VIBRIO VULNIFICUS A-RIBOSWITCH in water
132253
   13C      O5'    1   8.900   2.188   4.834 -0.8057  0.3371  0.1359
   13C      H5T    2   8.873   2.183   4.926 -0.2629  0.2058  0.2915
   13C      C5'    3   8.933   2.054   4.785  0.4355  0.0267  0.4308
   13C     H5'1    4   8.972   1.995   4.868  0.0107  2.2670  2.3442
   13C     H5'2    5   9.000   2.059   4.699 -0.9195 -2.4105 -0.8817
   13C      C4'    6   8.803   1.989   4.740 -0.3495  0.3066 -0.0533
   13C      H4'    7   8.825   1.887   4.711  1.2567  0.5052  0.3693
   13C      O4'    8   8.711   1.987   4.850  0.0435 -0.1094  0.1215
   13C      C1'    9   8.575   1.981   4.801  0.4711  0.2018  0.2845
   13C      H1'   10   8.543   1.879   4.823  0.5593  0.1370  0.1146
   13C       N1   11   8.489   2.074   4.877 -0.0256 -0.4670  0.4459
   13C       C6   12   8.532   2.197   4.925  0.1754  0.2065  0.3223
   13C       H6   13   8.634   2.229   4.907  0.7311 -0.8206  1.4661
   13C       C5   14   8.451   2.285   4.992  0.4138  0.0753 -0.4308
   13C       H5   15   8.502   2.367   5.042  2.2971 -1.5467  0.4445
   13C       C4   16   8.314   2.241   5.011 -0.4307  0.7432 -0.7722
   13C       N4   17   8.234   2.316   5.087 -0.6997 -0.2889 -0.5472
   13C      H41   18   8.276   2.392   5.138 -2.2910 -0.6122  1.3665
   13C      H42   19   8.142   2.280   5.108 -1.0746  1.4160  1.0234
   13C       N3   20   8.267   2.132   4.953  0.5315 -0.6403  0.4697
   13C       C2   21   8.352   2.043   4.890  0.6016 -0.2192  0.5085
   13C       O2   22   8.299   1.941   4.841 -0.9029  1.1977 -0.2107
   13C      C3'   23   8.721   2.057   4.631  0.2952  0.0563 -1.4426
   13C      H3'   24   8.705   2.161   4.660  0.9838 -0.2754  0.3279
   13C      C2'   25   8.586   1.994   4.649  0.4445  0.1292 -0.2935
   13C     H2'1   26   8.513   2.072   4.628  0.7821  0.4651 -0.2337
   13C      O2'   27   8.566   1.866   4.590  0.6139  0.4109 -0.3777
   13C     HO'2   28   8.649   1.838   4.551  1.6813  0.7377  1.4977
   13C      O3'   29   8.772   2.045   4.496 -0.4438  0.6823 -0.0755
   14G        P   30   8.737   2.156   4.386 -0.3884  0.3282  0.0804
   14G      O1P   31   8.841   2.175   4.283 -0.1482  0.2158  0.2348
   14G      O2P   32   8.695   2.278   4.457 -0.4419 -0.2797 -0.1918
   14G      O5'   33   8.610   2.100   4.320  0.8706  0.2436 -0.0699
   14G      C5'   34   8.609   1.993   4.226 -0.2346  0.7934 -0.3345
   14G     H5'1   35   8.659   1.911   4.278 -2.7865 -0.2397  0.6470
   14G     H5'2   36   8.663   2.023   4.137 -0.7076 -1.1088 -1.3031
   14G      C4'   37   8.472   1.944   4.176 -0.3077 -0.2090  0.2077
   14G      H4'   38   8.482   1.871   4.096  1.5847  0.3463 -0.1028
   14G      O4'   39   8.376   1.893   4.272  0.2973  0.0679 -0.7084
   14G      C1'   40   8.250   1.952   4.241 -0.2111 -0.0984 -0.2977
   14G      H1'   41   8.167   1.881   4.238 -1.2066  0.8186  2.4980
   14G       N9   42   8.217   2.053   4.346  0.3373  0.0636  0.4337
   14G       C8   43   8.295   2.110   4.442  0.1173  0.0475  0.1661
   14G       H8   44   8.400   2.089   4.457  0.1123  1.4589  2.6647
   14G       N7   45   8.233   2.189   4.524 -0.3320 -0.5564  0.0628
   14G       C5   46   8.099   2.189   4.474  0.0113  0.4559  0.0079
   14G       C6   47   7.976   2.259   4.518 -0.2206  0.6592  0.4203
   14G       O6   48   7.962   2.342   4.610 -0.1308 -0.3929  0.2130
   14G       N1   49   7.867   2.231   4.442 -0.3863  0.2695 -0.2013
   14G       H1   50   7.785   2.284   4.465  0.0224  1.6208 -1.6789
   14G       C2   51   7.882   2.167   4.319  0.0004  0.5568 -0.3763
   14G       N2   52   7.769   2.157   4.259 -0.3160 -0.1612  0.8162
   14G      H21   53   7.682   2.199   4.287 -1.1048 -0.7091 -0.6726
   14G      H22   54   7.777   2.108   4.171  0.8154 -0.1326  0.8848
   14G       N3   55   7.989   2.090   4.273  0.4030 -0.2683  0.2505
   14G       C4   56   8.095   2.109   4.364  0.2231 -0.1950  0.8538
   14G      C3'   57   8.402   2.069   4.114  0.1624 -0.4527  1.0087
   14G      H3'   58   8.398   2.152   4.184 -2.9924  0.4522 -0.0361
   14G      C2'   59   8.261   2.017   4.102  0.5095 -0.3309  0.2588
   14G     H2'1   60   8.195   2.102   4.087 -0.8408 -1.6456 -1.7003
   14G      O2'   61   8.254   1.922   3.992  0.2806  0.0547  0.4985
   14G     HO'2   62   8.308   1.957   3.922  0.2562  0.1520  0.5279
   14G      O3'   63   8.457   2.099   3.982  0.8399  0.2214  0.2512
   15C        P   64   8.450   2.255   3.937 -0.2196 -0.2379 -0.4331
   15C      O1P   65   8.506   2.276   3.801  0.0928  0.1463 -0.3800
   15C      O2P   66   8.503   2.340   4.048 -0.5529 -0.2924 -0.2207
   15C      O5'   67   8.294   2.286   3.924  0.7612  0.0448  0.3381
   15C      C5'   68   8.209   2.229   3.822 -0.0389  0.0675 -0.3169
   15C     H5'1   69   8.210   2.123   3.845 -0.1533  0.6247  2.7360
   15C     H5'2   70   8.251   2.245   3.723 -1.6326  0.2667 -0.9956
   15C      C4'   71   8.070   2.294   3.844  0.2858  0.9191  0.1620
   15C      H4'   72   8.008   2.251   3.765 -1.8873  2.8359  0.7170
   15C      O4'   73   8.014   2.255   3.963  0.3518  0.2207  0.4663
   15C      C1'   74   7.926   2.355   4.006  0.6990 -0.1672 -0.6201
   15C      H1'   75   7.825   2.315   4.016  1.6521 -2.7640 -0.5885
   15C       N1   76   7.976   2.421   4.133 -0.7812  0.1749  0.2097
   15C       C6   77   8.111   2.412   4.168 -0.2018 -0.4283  0.0584
   15C       H6   78   8.185   2.355   4.114 -0.6280 -0.1952 -0.7915
   15C       C5   79   8.156   2.486   4.282 -0.0580  0.5674  0.4605
   15C       H5   80   8.260   2.480   4.309  0.1779  0.5736 -0.4167
   15C       C4   81   8.062   2.558   4.353  0.3276 -0.2293  0.0093
   15C       N4   82   8.101   2.618   4.463  0.1133  0.7053 -0.0655
   15C      H41   83   8.197   2.613   4.493  0.4532  1.2124 -1.0215
   15C      H42   84   8.042   2.692   4.499 -1.5311 -1.1619  1.2859
   15C       N3   85   7.933   2.571   4.317  0.1169  0.2976 -0.2606
   15C       C2   86   7.889   2.503   4.210 -0.3340  0.2469  1.3589
   15C       O2   87   7.770   2.516   4.182 -0.7225 -0.4280  0.0469
   15C      C3'   88   8.063   2.443   3.837 -0.0597  0.6176 -0.2814
   15C      H3'   89   8.139   2.487   3.901 -1.1919  1.6426  0.4100
   15C      C2'   90   7.923   2.463   3.894  0.8294  0.6606  0.2962
   15C     H2'1   91   7.913   2.566   3.928  0.2237  1.1021 -1.1049
   15C      O2'   92   7.825   2.435   3.795 -0.3519 -0.1909 -0.4414
   15C     HO'2   93   7.855   2.461   3.707 -2.5879 -2.8624 -2.1795
   15C      O3'   94   8.091   2.505   3.714  0.1558 -0.5175 -0.8004
   16U        P   95   8.140   2.652   3.705 -0.2520 -0.3885  0.1843
   16U      O1P   96   8.162   2.685   3.558 -0.0221 -0.4757  0.0788
   16U      O2P   97   8.257   2.670   3.793 -0.0758 -0.3849 -0.3816
   16U      O5'   98   8.018   2.746   3.759 -0.2901  0.0159 -0.2453
   16U      C5'   99   7.895   2.762   3.690 -0.3119 -1.0749  0.0062
   16U     H5'1  100   7.830   2.675   3.695 -0.4814 -0.9339  0.2686
   16U     H5'2  101   7.920   2.787   3.587 -1.4250 -1.5931 -0.4043
   16U      C4'  102   7.822   2.880   3.759  0.1757 -0.5138  1.2730
   16U      H4'  103   7.724   2.890   3.713  1.6449 -0.4352 -2.0853
   16U      O4'  104   7.801   2.847   3.892  0.3698 -0.5534 -0.8382
   16U      C1'  105   7.817   2.960   3.976 -0.3409  0.8227 -0.4382
   16U      H1'  106   7.732   2.973   4.043 -0.8560  0.5711 -1.0309
   16U       N1  107   7.929   2.944   4.071 -0.0337 -0.0823  0.5468
   16U       C6  108   8.022   2.836   4.068  0.2104 -0.2567  0.1905
   16U       H6  109   8.023   2.762   3.989 -2.9150 -0.2717  0.0497
   16U       C5  110   8.113   2.826   4.166 -0.3628  0.1192 -0.5128
   16U       H5  111   8.186   2.748   4.155  0.0600  0.3723  0.3705
   16U       C4  112   8.120   2.918   4.279 -0.2129  0.1554  0.2160
   16U       O4  113   8.195   2.915   4.373  0.3188  0.3585 -0.4566
   16U       N3  114   8.027   3.022   4.274  0.3069  0.6689  0.0782
   16U       H3  115   8.014   3.080   4.355 -1.2719  1.4658 -0.7051
   16U       C2  116   7.928   3.033   4.174 -0.4182  0.1794  0.3506
   16U       O2  117   7.840   3.127   4.181 -0.8327  0.0436  0.0779
   16U      C3'  118   7.890   3.011   3.763 -0.2007 -0.3350  0.9635
   16U      H3'  119   7.993   2.987   3.790  0.1025 -0.6372 -0.3863
   16U      C2'  120   7.822   3.081   3.875 -0.4137  0.5728 -0.0209
   16U     H2'1  121   7.886   3.162   3.910 -0.4796 -0.3039  2.3735
   16U      O2'  122   7.686   3.125   3.844  0.1694  0.9249 -0.2625
   16U     HO'2  123   7.629   3.048   3.843  2.3830 -0.8721  0.7501
   16U      O3'  124   7.896   3.087   3.641  0.4003 -0.1154 -0.1003
   17U        P  125   8.005   3.205   3.629  0.4126 -0.0681  0.0553
   17U      O1P  126   8.007   3.230   3.487 -0.0864 -0.0390 -0.3893
   17U      O2P  127   8.139   3.162   3.678  0.4032  0.2144 -0.2741
   17U      O5'  128   7.955   3.336   3.706  0.2547 -0.3347 -0.2510
   17U      C5'  129   7.823   3.402   3.689 -0.3602 -0.2516  0.1284
   17U     H5'1  130   7.743   3.329   3.705 -0.6960 -0.1897 -1.1608
   17U     H5'2  131   7.816   3.451   3.592 -3.8055 -2.0306 -0.6727
   17U      C4'  132   7.811   3.513   3.802  0.1064  0.3088  0.9398
   17U      H4'  133   7.721   3.571   3.782  0.8278  0.1345 -4.0376
   17U      O4'  134   7.796   3.440   3.921  0.6604  0.0954 -0.0179
   17U      C1'  135   7.869   3.509   4.020 -0.4257  0.5614  0.2808
   17U      H1'  136   7.805   3.520   4.107 -0.3118 -1.1902  0.6252
   17U       N1  137   7.984   3.432   4.084  0.1658  0.7401  0.1792
   17U       C6  138   8.075   3.358   4.007 -0.0568 -0.4355 -0.7316
   17U       H6  139   8.055   3.353   3.901 -1.8180  3.0114 -0.6932
   17U       C5  140   8.178   3.292   4.063  0.3864  0.2250  0.5198
   17U       H5  141   8.238   3.244   3.987  0.3184  2.4742 -1.0737
   17U       C4  142   8.195   3.280   4.202  0.3684 -0.3889 -0.4986
   17U       O4  143   8.283   3.227   4.266  0.2159  0.0342 -0.0500
   17U       N3  144   8.114   3.361   4.270  0.3476 -0.3922 -0.2980
   17U       H3  145   8.153   3.389   4.359  0.8723  2.4951 -1.3302
   17U       C2  146   8.004   3.436   4.220  0.0718 -0.0488 -0.1285
   17U       O2  147   7.954   3.522   4.290  0.3612  0.0605 -0.0806
   17U      C3'  148   7.932   3.605   3.823 -0.3514  1.0104 -0.7929
   17U      H3'  149   8.022   3.544   3.815 -0.2753  0.4051  3.0981
   17U      C2'  150   7.914   3.640   3.967 -0.1905  0.3306  0.0986
   17U     H2'1  151   8.002   3.673   4.023  0.6106 -2.9366  1.0031
   17U      O2'  152   7.807   3.733   3.989 -0.0976 -0.2082  0.6514
   17U     HO'2  153   7.804   3.792   3.913 -2.3228 -2.3008 -1.0615
   17U      O3'  154   7.935   3.716   3.739  0.2182  0.0477 -0.1364
   18C        P  155   8.067   3.793   3.720 -0.3649 -0.2232  0.4073
   18C      O1P  156   8.033   3.904   3.627  0.1522 -0.7245 -0.2446
   18C      O2P  157   8.179   3.702   3.674 -0.4665 -0.0291  0.1343
   18C      O5'  158   8.106   3.864   3.858 -0.4899 -0.1179  0.1298
   18C      C5'  159   8.042   3.978   3.907 -0.0444 -1.0331  0.3852
   18C     H5'1  160   7.937   3.956   3.925  0.1773 -4.4573 -1.6904
   18C     H5'2  161   8.044   4.061   3.837  2.7347  0.2110  1.7561
   18C      C4'  162   8.104   4.029   4.041 -0.9260  0.4020  0.1120
   18C      H4'  163   8.052   4.118   4.077 -1.0282  0.4326 -0.1105
   18C      O4'  164   8.087   3.927   4.139 -0.2174  0.1263  0.2022
   18C      C1'  165   8.201   3.926   4.228 -0.5838  0.1706  0.6479
   18C      H1'  166   8.179   3.951   4.332  2.9086  3.1003  0.9097
   18C       N1  167   8.276   3.798   4.223 -0.3211  0.1321 -0.1949
   18C       C6  168   8.285   3.714   4.108  0.8203  1.1697 -0.3068
   18C       H6  169   8.230   3.745   4.020 -0.7209  1.5855  0.7776
   18C       C5  170   8.365   3.606   4.109  0.2099  0.3136  0.3907
   18C       H5  171   8.390   3.542   4.025  0.4823  0.2139  0.5437
   18C       C4  172   8.434   3.579   4.235 -0.2073 -0.1163  0.0598
   18C       N4  173   8.517   3.480   4.240  0.3626 -0.1170 -0.6870
   18C      H41  174   8.506   3.412   4.167 -0.6411  1.5259 -2.1473
   18C      H42  175   8.564   3.464   4.329 -0.5583  1.0390  0.0320
   18C       N3  176   8.436   3.659   4.339  0.4823  0.6829  0.4380
   18C       C2  177   8.364   3.772   4.331  0.1534  0.0245 -0.7414
   18C       O2  178   8.387   3.861   4.419 -0.5324  0.3072  1.2643
   18C      C3'  179   8.258   4.054   4.035  0.2793 -0.0421 -0.2602
   18C      H3'  180   8.304   3.980   3.970 -1.7652 -0.0184 -1.8327
   18C      C2'  181   8.295   4.033   4.182 -0.3265  0.5033  0.1787
   18C     H2'1  182   8.398   3.997   4.181  0.3655  2.3650  0.5993
   18C      O2'  183   8.265   4.149   4.260  0.3449  0.2285  0.3547
   18C     HO'2  184   8.309   4.216   4.208  0.0633 -0.3417 -0.6362
   18C      O3'  185   8.277   4.183   3.982  0.1910  0.6162  0.1719
   19A        P  186   8.407   4.213   3.890 -0.2886 -0.1419 -0.2102
   19A      O1P  187   8.387   4.350   3.829 -0.0145  0.4131  0.3954
   19A      O2P  188   8.432   4.096   3.804 -0.9491  0.0858  0.0290
   19A      O5'  189   8.520   4.215   4.001  0.3970  0.1383  0.3732
   19A      C5'  190   8.553   4.332   4.077 -0.5792 -0.5676 -0.5090
   19A     H5'1  191   8.460   4.379   4.109  0.1200  0.8265 -0.4199
   19A     H5'2  192   8.589   4.416   4.017  0.5750 -0.7558 -0.1035
   19A      C4'  193   8.647   4.302   4.193 -0.9024  0.1922 -0.1753
   19A      H4'  194   8.653   4.394   4.251 -0.3219 -0.8948  1.5632
   19A      O4'  195   8.606   4.194   4.275  0.7695  0.6388  0.1143
   19A      C1'  196   8.714   4.119   4.328 -1.0461 -0.1611 -0.0297
   19A      H1'  197   8.724   4.131   4.436  2.1295 -2.0864 -0.0078
   19A       N9  198   8.702   3.981   4.287 -0.0803  0.2602 -0.5394
   19A       C8  199   8.655   3.933   4.167 -0.3023  0.5051 -0.3363
   19A       H8  200   8.600   3.988   4.092 -2.8993 -1.5120 -0.0686
   19A       N7  201   8.688   3.804   4.152 -0.4034 -0.8458 -0.6011
   19A       C5  202   8.774   3.772   4.265  0.1972 -0.4565  0.1368
   19A       C6  203   8.844   3.660   4.308 -0.3688 -0.5401 -0.4788
   19A       N6  204   8.862   3.540   4.249 -0.5456 -0.2197  0.6107
   19A      H61  205   8.825   3.513   4.159  1.2484  0.8567 -0.5065
   19A      H62  206   8.918   3.467   4.292 -0.8999 -0.6619  0.3343
   19A       N1  207   8.907   3.670   4.422 -0.1183  0.2003 -0.4759
   19A       C2  208   8.905   3.781   4.500  0.5453  0.0542 -0.6270
   19A       H2  209   8.964   3.785   4.590  1.2161  2.6018 -1.1025
   19A       N3  210   8.843   3.892   4.466 -0.6286 -0.0201  0.4448
   19A       C4  211   8.772   3.877   4.350  0.8572 -0.6602 -0.8713
   19A      C3'  212   8.792   4.268   4.153  0.1728 -0.2746 -0.3567
   19A      H3'  213   8.791   4.217   4.056  0.9805 -0.8722 -0.0572
   19A      C2'  214   8.842   4.171   4.260  0.1017  0.5575 -0.8043
   19A     H2'1  215   8.892   4.089   4.209 -0.5746 -0.7455  0.5277
   19A      O2'  216   8.923   4.224   4.360  0.0925  0.3393 -0.5736
   19A     HO'2  217   9.005   4.259   4.325  0.3241  2.6876  1.9809
   19A      O3'  218   8.875   4.379   4.158  0.1716 -0.4615 -0.0410
   20U        P  219   9.000   4.402   4.073 -0.3072  0.2897  0.3455
   20U      O1P  220   9.014   4.543   4.038  0.2205 -0.2549  0.8818
   20U      O2P  221   9.008   4.305   3.960  0.1078 -0.3251 -0.3997
   20U      O5'  222   9.110   4.361   4.180 -0.1058 -0.0281  0.2878
   20U      C5'  223   9.154   4.452   4.280  0.4000 -0.1668 -0.2918
   20U     H5'1  224   9.065   4.467   4.341 -0.3237 -0.8100 -1.1794
   20U     H5'2  225   9.183   4.549   4.240 -1.8430  1.2343  1.2547
   20U      C4'  226   9.257   4.392   4.370 -0.8511  0.2376  0.6932
   20U      H4'  227   9.298   4.460   4.444 -1.2531 -0.9895  2.0759
   20U      O4'  228   9.205   4.273   4.428 -0.1875 -0.3774 -0.0620
   20U      C1'  229   9.301   4.173   4.442  0.0664  0.5381  0.1979
   20U      H1'  230   9.307   4.148   4.548 -0.8571  0.5759  0.2679
   20U       N1  231   9.253   4.043   4.370 -0.6463  0.5597 -1.4517
   20U       C6  232   9.195   4.044   4.246  0.2282  0.3360 -0.4295
   20U       H6  233   9.198   4.141   4.199  1.2960  1.1657  1.2527
   20U       C5  234   9.163   3.924   4.187  0.6238  0.3143  0.0645
   20U       H5  235   9.126   3.916   4.086  1.1749 -0.2560 -0.1003
   20U       C4  236   9.186   3.799   4.255  0.5127 -0.7067  0.5413
   20U       O4  237   9.149   3.693   4.202 -0.0369 -0.3778  0.5804
   20U       N3  238   9.231   3.807   4.382 -0.4510 -0.6451  0.3981
   20U       H3  239   9.260   3.720   4.423 -1.3849 -1.5858 -0.8374
   20U       C2  240   9.277   3.919   4.437 -0.3096 -0.1777  0.3638
   20U       O2  241   9.344   3.909   4.542 -0.6593  0.0703  0.5950
   20U      C3'  242   9.378   4.335   4.282  0.4230 -0.4586 -0.5407
   20U      H3'  243   9.337   4.293   4.191  1.0931  0.6982 -1.4097
   20U      C2'  244   9.434   4.228   4.380  0.5417  1.1189  0.0708
   20U     H2'1  245   9.482   4.155   4.315  0.8871 -0.9833  2.5381
   20U      O2'  246   9.515   4.278   4.490  0.4527  0.0404 -0.5636
   20U     HO'2  247   9.589   4.217   4.496 -0.3591 -1.2509 -2.7004
   20U      O3'  248   9.468   4.444   4.244  0.0577 -0.0604 -0.2144
   21A        P  249   9.556   4.438   4.114  0.3754 -0.0301  0.4341
   21A      O1P  250   9.637   4.560   4.113  0.2973 -0.2071  0.1428
   21A      O2P  251   9.465   4.411   4.002  0.1456 -0.2325 -0.6485
   21A      O5'  252   9.649   4.312   4.125  0.3543  0.4223 -0.3139
   21A      C5'  253   9.760   4.314   4.211  0.0856  0.2207  0.0253
   21A     H5'1  254   9.724   4.357   4.304 -1.8748  3.2151 -1.9367
   21A     H5'2  255   9.828   4.388   4.169  0.0152 -0.5497 -1.5415
   21A      C4'  256   9.818   4.172   4.213  0.3180 -0.0844 -0.7515
   21A      H4'  257   9.906   4.180   4.276  0.0039 -1.1539 -0.1529
   21A      O4'  258   9.718   4.088   4.264  0.2664  0.0335  0.1055
   21A      C1'  259   9.742   3.960   4.210 -0.1846 -0.0520 -0.0987
   21A      H1'  260   9.759   3.896   4.296 -2.5030  2.2555  2.2885
   21A       N9  261   9.626   3.899   4.129 -0.0153 -0.1421  0.3966
   21A       C8  262   9.522   3.963   4.071  0.1165 -1.4216 -0.0845
   21A       H8  263   9.507   4.067   4.096 -0.0088 -1.2785 -0.7348
   21A       N7  264   9.430   3.892   4.016 -0.7603  0.0372  0.2537
   21A       C5  265   9.483   3.758   4.029 -0.5311  0.1299 -0.2110
   21A       C6  266   9.455   3.628   3.976 -0.2575  0.2402 -0.2817
   21A       N6  267   9.373   3.616   3.882 -0.1810 -0.0375  0.7970
   21A      H61  268   9.329   3.701   3.848  3.4000  1.2552 -1.2439
   21A      H62  269   9.338   3.524   3.861  0.7495 -0.2356  0.0401
   21A       N1  270   9.519   3.521   4.015 -0.0945 -0.2782  0.4271
   21A       C2  271   9.619   3.541   4.101 -0.0103  0.1417 -0.2415
   21A       H2  272   9.667   3.453   4.141 -0.8481  0.7393  2.3182
   21A       N3  273   9.665   3.653   4.155 -0.1222 -0.1908  0.2893
   21A       C4  274   9.599   3.764   4.109 -0.0615 -0.0704 -0.0205
   21A      C3'  275   9.856   4.114   4.075 -0.4559 -0.9621  0.4392
   21A      H3'  276   9.779   4.138   4.002 -0.4934  2.1131  1.3748
   21A      C2'  277   9.858   3.971   4.119 -0.5786  0.3026 -0.1361
   21A     H2'1  278   9.846   3.902   4.035 -0.4931  0.8831 -0.6353
   21A      O2'  279   9.986   3.957   4.181 -0.1015  0.1711 -0.4623
   21A     HO'2  280  10.042   4.024   4.141 -1.5522  0.8431 -1.4442
   21A      O3'  281   9.989   4.163   4.038  0.0549  0.4387  0.2092
   22U        P  282  10.039   4.152   3.891  0.0611 -0.0080 -0.2310
   22U      O1P  283  10.177   4.116   3.910 -0.5831  0.7332  0.1456
   22U      O2P  284  10.007   4.279   3.823  0.6718 -0.5654  0.5501
   22U      O5'  285   9.966   4.036   3.811  0.2127  0.1066  0.3819
   22U      C5'  286   9.904   4.055   3.681 -0.1379 -0.0081  0.3553
   22U     H5'1  287   9.979   4.097   3.614 -0.3519  3.1024  1.9068
   22U     H5'2  288   9.819   4.122   3.694 -0.1039  0.4398 -1.4804
   22U      C4'  289   9.844   3.925   3.630 -0.2286 -0.8145 -0.5808
   22U      H4'  290   9.786   3.950   3.541 -3.0804  1.2118  1.6479
   22U      O4'  291   9.955   3.838   3.609  0.1714 -0.1350  0.2364
   22U      C1'  292   9.917   3.707   3.645 -0.1415 -0.0643  0.7246
   22U      H1'  293   9.847   3.679   3.567  1.6561 -0.2539 -0.8724
   22U       N1  294  10.022   3.606   3.654 -0.3111 -0.0268 -0.5431
   22U       C6  295  10.133   3.625   3.737 -0.0492 -0.5378 -0.0007
   22U       H6  296  10.152   3.722   3.781 -2.3985  1.4816 -3.0153
   22U       C5  297  10.226   3.525   3.743 -0.1421  0.3014 -0.2273
   22U       H5  298  10.312   3.538   3.807 -1.2854  0.5750  1.3220
   22U       C4  299  10.206   3.395   3.679  0.0911 -0.4595  0.1988
   22U       O4  300  10.285   3.303   3.679  0.0403  0.0664 -0.4089
   22U       N3  301  10.092   3.388   3.611  0.3504  0.4089 -0.3973
   22U       H3  302  10.081   3.296   3.572  1.0377 -0.5352  1.4863
   22U       C2  303   9.999   3.485   3.591 -0.4555  0.1657 -0.1082
   22U       O2  304   9.895   3.464   3.526  0.1912 -0.4319 -0.1101
   22U      C3'  305   9.756   3.862   3.740 -0.9285  0.0052 -0.6385
   22U      H3'  306   9.736   3.928   3.825  0.7007 -1.3614  0.8961
   22U      C2'  307   9.843   3.741   3.781 -0.1980  0.7320  0.8284
   22U     H2'1  308   9.924   3.765   3.850  3.7157 -3.7924 -1.6253
   22U      O2'  309   9.776   3.624   3.828 -0.0151 -0.0755 -0.0214
   22U     HO'2  310   9.684   3.628   3.799  0.5849  0.5511 -1.9553
   22U      O3'  311   9.632   3.814   3.716 -0.4333 -1.3374  0.4511
   23A        P  312   9.508   3.904   3.669  0.5784  0.3604 -0.3848
   23A      O1P  313   9.508   4.025   3.754 -0.2731  0.6303 -0.1339
   23A      O2P  314   9.389   3.816   3.663 -0.1083  0.1464 -0.0157
   23A      O5'  315   9.548   3.953   3.517 -0.1002 -0.3245 -0.0725
   23A      C5'  316   9.519   4.089   3.468  0.2080  0.0179 -0.2360
   23A     H5'1  317   9.533   4.159   3.550  0.5316 -1.3185  0.8958
   23A     H5'2  318   9.413   4.090   3.445  0.0826  1.8788  0.2368
   23A      C4'  319   9.610   4.123   3.355 -0.4837  0.5471 -0.2290
   23A      H4'  320   9.576   4.214   3.304 -0.8493  1.8403  2.1669
   23A      O4'  321   9.745   4.140   3.398 -0.2236  0.0905  0.2615
   23A      C1'  322   9.814   4.143   3.279 -0.3428 -0.0474 -0.4565
   23A      H1'  323   9.817   4.250   3.255  1.1030  0.1852  0.5932
   23A       N9  324   9.952   4.089   3.306 -0.4778  0.9959  0.1622
   23A       C8  325  10.066   4.164   3.326  0.7897 -0.6696  0.1736
   23A       H8  326  10.064   4.272   3.318 -1.9976 -0.6328  0.3016
   23A       N7  327  10.173   4.092   3.354  0.3071  0.5505  0.0252
   23A       C5  328  10.129   3.958   3.343  0.0671  0.0125  0.4257
   23A       C6  329  10.188   3.834   3.381 -0.4476  0.7401 -0.7000
   23A       N6  330  10.301   3.817   3.446 -0.2841 -0.1386  0.2974
   23A      H61  331  10.345   3.902   3.479 -2.4678  0.8191  0.9347
   23A      H62  332  10.331   3.724   3.469  0.7329 -0.3585 -1.6827
   23A       N1  333  10.122   3.724   3.351  0.2395  0.3536 -0.4410
   23A       C2  334   9.994   3.733   3.318  0.1831 -0.2466  0.1058
   23A       H2  335   9.955   3.633   3.310  2.2224 -1.1340  0.4587
   23A       N3  336   9.920   3.839   3.298 -0.5934 -0.4157 -0.3971
   23A       C4  337   9.993   3.956   3.319  0.2959  0.0645 -0.0569
   23A      C3'  338   9.626   4.013   3.248  0.8225 -0.7234  0.1506
   23A      H3'  339   9.657   3.921   3.298 -1.5468 -0.0988  3.0902
   23A      C2'  340   9.740   4.077   3.166 -0.3023 -0.1876 -0.2643
   23A     H2'1  341   9.793   4.007   3.101 -1.7099 -0.7073 -0.8997
   23A      O2'  342   9.705   4.182   3.073  0.1428  0.1746 -0.1746
   23A     HO'2  343   9.639   4.149   3.011  0.2808 -2.3230  0.8672
   23A      O3'  344   9.503   3.999   3.186  0.0414  0.2755  0.0862
   24A        P  345   9.463   3.867   3.116 -0.1325  0.0943  0.1464
   24A      O1P  346   9.342   3.896   3.041 -0.0741  0.1155  0.2660
   24A      O2P  347   9.468   3.758   3.216  0.1114  0.2348  0.4344
   24A      O5'  348   9.583   3.842   3.008  1.1436  0.2531  0.5520
   24A      C5'  349   9.684   3.738   3.019 -0.3241 -0.8957 -0.4578
   24A     H5'1  350   9.716   3.724   3.123 -1.4391 -2.0956 -0.2537
   24A     H5'2  351   9.775   3.769   2.967 -0.3651 -1.1176 -0.6626
   24A      C4'  352   9.654   3.596   2.966  0.3887  0.1098  0.5620
   24A      H4'  353   9.750   3.548   2.946  0.1535 -0.8813  1.6939
   24A      O4'  354   9.569   3.520   3.045  0.5446 -0.2821  0.1518
   24A      C1'  355   9.508   3.419   2.964 -0.0039 -0.0104 -0.3467
   24A      H1'  356   9.538   3.316   2.983 -1.3815 -0.3775 -0.0432
   24A       N9  357   9.360   3.434   2.985  0.5019  0.5629 -0.2890
   24A       C8  358   9.281   3.540   3.022 -0.4496 -0.2454 -0.4848
   24A       H8  359   9.316   3.642   3.036  0.9789 -0.7622 -0.1057
   24A       N7  360   9.160   3.508   3.031 -0.0642  0.2300  0.3972
   24A       C5  361   9.151   3.376   2.991 -0.3952 -0.2371 -0.4327
   24A       C6  362   9.050   3.283   2.960 -1.0768 -0.4431  0.5345
   24A       N6  363   8.920   3.290   2.975 -0.0591  0.5435  0.6635
   24A      H61  364   8.878   3.379   2.999  0.1267  1.1009 -0.9122
   24A      H62  365   8.865   3.205   2.979 -0.3901  0.8157  2.4604
   24A       N1  366   9.079   3.161   2.927 -0.4162  0.1635 -0.4047
   24A       C2  367   9.202   3.119   2.909 -0.3073  0.0117 -0.2562
   24A       H2  368   9.208   3.017   2.877 -0.0859 -0.3868  0.9871
   24A       N3  369   9.309   3.199   2.926  0.3856  0.9190 -0.0791
   24A       C4  370   9.277   3.330   2.962  0.3413 -0.2486 -0.1821
   24A      C3'  371   9.582   3.599   2.821  0.2073  0.3850 -0.6299
   24A      H3'  372   9.494   3.664   2.820  0.3606  0.6333  0.4747
   24A      C2'  373   9.532   3.455   2.816  0.9344 -0.5529 -0.0200
   24A     H2'1  374   9.447   3.442   2.749  0.9892  0.7544 -0.3686
   24A      O2'  375   9.634   3.375   2.774 -0.0785  0.3111  0.2536
   24A     HO'2  376   9.681   3.429   2.709 -1.2926  2.0307  0.7340
   24A      O3'  377   9.665   3.627   2.717 -0.4858  0.3583 -0.2104
   25U        P  378   9.708   3.777   2.671 -0.0365  0.7593 -0.0379
   25U      O1P  379   9.589   3.870   2.684 -0.2819  0.1310  0.6072
   25U      O2P  380   9.767   3.762   2.537 -0.3206  0.1587  0.6569
   25U      O5'  381   9.830   3.836   2.762  0.4549  0.3159  0.1726
   25U      C5'  382   9.825   3.972   2.790  0.5672 -0.5381 -0.3137
   25U     H5'1  383   9.753   3.990   2.869  0.7815 -2.5843  0.3961
   25U     H5'2  384   9.797   4.024   2.699  1.7816 -0.0876 -0.4481
   25U      C4'  385   9.964   4.021   2.832  0.2815  0.2303  0.0589
   25U      H4'  386   9.956   4.127   2.856  1.6362 -0.0239  1.9013
   25U      O4'  387   9.999   3.961   2.958 -0.3834 -0.2152 -0.4474
   25U      C1'  388  10.143   3.940   2.957 -0.3177 -0.0900  0.7028
   25U      H1'  389  10.178   3.992   3.046 -0.4407  0.5865  0.3631
   25U       N1  390  10.189   3.799   2.957 -0.3576  0.5213  0.0833
   25U       C6  391  10.127   3.696   2.884 -0.8280  0.3085 -0.8660
   25U       H6  392  10.061   3.727   2.805 -1.0722 -0.4721 -0.9758
   25U       C5  393  10.169   3.565   2.896  0.7125 -0.2145  0.6426
   25U       H5  394  10.128   3.485   2.836 -0.3437  1.9712 -1.6884
   25U       C4  395  10.270   3.528   2.991  0.0416 -0.3211  0.3112
   25U       O4  396  10.308   3.412   3.002 -0.4833 -0.5612  0.2116
   25U       N3  397  10.317   3.630   3.070  0.1484 -0.6887  0.3998
   25U       H3  398  10.395   3.600   3.127 -0.7995 -3.3907  0.4163
   25U       C2  399  10.296   3.767   3.041  0.8871  0.4572 -0.2601
   25U       O2  400  10.359   3.854   3.107  0.6328 -0.3916  0.4350
   25U      C3'  401  10.076   4.019   2.735  0.0688  0.6657  0.7642
   25U      H3'  402  10.080   3.915   2.702 -0.8199 -0.3054  3.4683
   25U      C2'  403  10.189   4.031   2.834 -0.9330 -0.0904 -0.4446
   25U     H2'1  404  10.289   4.009   2.796  0.9647  1.2947  3.2835
   25U      O2'  405  10.211   4.157   2.887 -0.0338 -0.8837 -0.3170
   25U     HO'2  406  10.305   4.160   2.903 -0.2360 -0.2275  0.8556
   25U      O3'  407  10.079   4.116   2.631  0.3989  0.5642 -0.5201
   26C        P  408  10.180   4.093   2.505  0.2645  0.1337  0.2000
   26C      O1P  409  10.159   4.209   2.410 -0.0864 -0.2576  0.3478
   26C      O2P  410  10.154   3.958   2.449  0.0821 -0.3412 -0.0060
   26C      O5'  411  10.329   4.094   2.569  0.5677  0.1292  0.0757
   26C      C5'  412  10.381   4.214   2.617 -0.1654 -0.6804 -0.0125
   26C     H5'1  413  10.312   4.266   2.683  0.1962 -1.6783  1.1866
   26C     H5'2  414  10.395   4.279   2.531 -2.0219 -0.9108 -0.5411
   26C      C4'  415  10.517   4.200   2.691  0.1868  1.2174  0.4399
   26C      H4'  416  10.540   4.303   2.717 -2.8009  1.9841  0.4789
   26C      O4'  417  10.515   4.127   2.811  0.2465  0.1812 -0.5570
   26C      C1'  418  10.633   4.040   2.828 -0.1593  0.1869  0.1066
   26C      H1'  419  10.685   4.057   2.922  1.1750 -1.3477 -0.3031
   26C       N1  420  10.605   3.895   2.814 -0.0112  0.3357 -0.4961
   26C       C6  421  10.492   3.843   2.756  0.5327  0.6599 -0.0232
   26C       H6  422  10.420   3.902   2.700  1.1177  1.3461 -0.0628
   26C       C5  423  10.463   3.709   2.758  0.1040  0.7835 -0.1898
   26C       H5  424  10.369   3.668   2.721  0.1814 -1.1886  1.6215
   26C       C4  425  10.567   3.622   2.804  0.0799  0.7019 -0.3500
   26C       N4  426  10.532   3.496   2.826 -0.6364 -0.2815  0.3019
   26C      H41  427  10.438   3.463   2.808 -1.2861  2.1513 -1.2052
   26C      H42  428  10.602   3.428   2.850  1.3355  1.6492  0.2532
   26C       N3  429  10.681   3.669   2.856  0.1851  0.2170 -0.1629
   26C       C2  430  10.704   3.801   2.846 -0.3827  0.0872 -0.4041
   26C       O2  431  10.823   3.832   2.858  0.3633  0.0296 -0.1943
   26C      C3'  432  10.637   4.145   2.614 -0.0553  0.0186  0.6651
   26C      H3'  433  10.598   4.066   2.549  3.6077 -1.5059  0.0545
   26C      C2'  434  10.731   4.089   2.722 -0.4446  0.1595  0.2409
   26C     H2'1  435  10.807   4.027   2.676  1.1950  1.0326  1.6400
   26C      O2'  436  10.821   4.182   2.788  0.3505  0.2681 -0.1881
   26C     HO'2  437  10.819   4.267   2.742  1.3521  0.9522  0.9809
   26C      O3'  438  10.706   4.244   2.532  0.3475 -0.1277 -0.1680
   27C        P  439  10.792   4.198   2.404  0.1746  0.0562 -0.5722
   27C      O1P  440  10.852   4.319   2.348  0.2057  0.2514  0.0037
   27C      O2P  441  10.708   4.122   2.307 -0.1982  0.3302 -0.2553
   27C      O5'  442  10.908   4.104   2.440 -0.0589 -0.0988  0.2493
   27C      C5'  443  11.032   4.150   2.488 -0.7425 -0.0658  0.2952
   27C     H5'1  444  11.010   4.210   2.576 -1.8255  0.4238 -0.2967
   27C     H5'2  445  11.075   4.217   2.413 -0.8421  0.1060  0.3910
   27C      C4'  446  11.119   4.032   2.521 -0.7941  0.2456  0.1172
   27C      H4'  447  11.217   4.063   2.557 -0.5592 -1.4033  1.0134
   27C      O4'  448  11.057   3.941   2.610 -0.2201  0.0373  0.4410
   27C      C1'  449  11.109   3.811   2.596 -0.1591 -0.0560  0.4077
   27C      H1'  450  11.155   3.783   2.690 -0.5763 -1.8906  0.0984
   27C       N1  451  11.004   3.709   2.566  1.0217 -0.5293  0.5813
   27C       C6  452  10.881   3.747   2.518 -0.2785  0.3540 -0.2142
   27C       H6  453  10.864   3.847   2.483  4.1981  1.6998  0.7575
   27C       C5  454  10.789   3.651   2.509  0.1934 -0.2443 -0.1984
   27C       H5  455  10.692   3.678   2.469  0.3689  1.9688  0.6951
   27C       C4  456  10.817   3.520   2.561  0.5579 -0.6931 -0.1696
   27C       N4  457  10.738   3.418   2.551 -0.1559 -0.0939  0.3463
   27C      H41  458  10.645   3.421   2.511 -0.1122  1.8493  0.3263
   27C      H42  459  10.767   3.324   2.575 -2.5015 -1.5313 -1.8968
   27C       N3  460  10.934   3.487   2.610 -0.2731 -0.2372 -0.8632
   27C       C2  461  11.031   3.581   2.612  0.4095  0.1323  0.4704
   27C       O2  462  11.143   3.545   2.650  0.0483 -0.0103 -0.0461
   27C      C3'  463  11.160   3.943   2.403  0.3675  0.2333 -0.1069
   27C      H3'  464  11.072   3.911   2.348 -0.4924 -0.0032  1.3598
   27C      C2'  465  11.211   3.822   2.477 -0.5797  0.0377 -0.2494
   27C     H2'1  466  11.205   3.735   2.412  0.5638 -0.6628  0.5503
   27C      O2'  467  11.337   3.838   2.540  0.2253  0.0591  0.0754
   27C     HO'2  468  11.406   3.865   2.479  0.3774  0.6924  0.5192
   27C      O3'  469  11.257   4.005   2.323  0.2735 -0.0648 -0.4195
   28U        P  470  11.282   3.953   2.170  0.4188  0.1498 -0.1800
   28U      O1P  471  11.401   4.034   2.122  0.3150  0.3062  0.2151
   28U      O2P  472  11.146   3.963   2.105 -0.0609 -0.1453  0.1790
   28U      O5'  473  11.331   3.802   2.183 -0.0704 -0.0318  0.3812
   28U      C5'  474  11.463   3.773   2.207 -1.0916 -0.1208 -0.1285
   28U     H5'1  475  11.500   3.825   2.295  0.4491 -2.1290  0.4873
   28U     H5'2  476  11.531   3.805   2.128  2.5130 -0.1386  2.7021
   28U      C4'  477  11.482   3.622   2.217  0.8621 -0.3101  0.1507
   28U      H4'  478  11.586   3.599   2.241  1.0351  1.5900  1.4336
   28U      O4'  479  11.403   3.561   2.318 -0.1050  0.0496 -0.1151
   28U      C1'  480  11.364   3.430   2.264  0.2733  0.0486  0.1012
   28U      H1'  481  11.396   3.349   2.329  0.9195 -0.1297 -0.4194
   28U       N1  482  11.214   3.417   2.248  0.2070 -0.3557 -0.3610
   28U       C6  483  11.136   3.531   2.233  0.2983 -0.3139 -0.0393
   28U       H6  484  11.181   3.629   2.230  0.0046 -0.1819 -0.1278
   28U       C5  485  11.001   3.519   2.207  0.2263 -0.0651  0.0466
   28U       H5  486  10.937   3.603   2.185  0.8974  0.2796 -0.6641
   28U       C4  487  10.931   3.393   2.206 -0.2506  1.1301  0.0883
   28U       O4  488  10.811   3.376   2.188  0.3818 -0.2787 -0.1240
   28U       N3  489  11.011   3.280   2.226 -0.1890  0.1712  0.0857
   28U       H3  490  10.971   3.187   2.234  2.6591 -1.1035  1.0024
   28U       C2  491  11.152   3.294   2.243  0.4055 -0.1440 -0.0368
   28U       O2  492  11.217   3.191   2.255 -0.4538 -0.1765  0.5737
   28U      C3'  493  11.450   3.560   2.081  0.2014  0.1932  0.0187
   28U      H3'  494  11.355   3.597   2.043  0.9167 -0.3049 -2.4150
   28U      C2'  495  11.426   3.419   2.127  0.4021  0.3312 -0.5330
   28U     H2'1  496  11.359   3.363   2.062  0.3088 -0.2795  0.0842
   28U      O2'  497  11.549   3.352   2.143  0.3812  0.1731  0.3565
   28U     HO'2  498  11.579   3.344   2.052 -2.7181  1.4160 -0.8921
   28U      O3'  499  11.545   3.584   1.987 -0.7782  0.1094  0.0186
   29A        P  500  11.526   3.541   1.828 -0.1050  0.4222  0.1769
   29A      O1P  501  11.645   3.586   1.753  0.1402 -0.2842 -0.1692
   29A      O2P  502  11.391   3.574   1.775  0.2289  0.5604 -0.1298
   29A      O5'  503  11.545   3.382   1.823  0.0583 -0.6161  0.6010
   29A      C5'  504  11.674   3.323   1.820 -0.2188  0.5758 -0.4643
   29A     H5'1  505  11.730   3.365   1.904  1.0420  0.9729 -1.4928
   29A     H5'2  506  11.711   3.342   1.720 -2.2125  1.8008 -1.0288
   29A      C4'  507  11.656   3.172   1.844  0.4411  0.5326  0.4479
   29A      H4'  508  11.750   3.123   1.869  1.0952  1.2428 -0.5526
   29A      O4'  509  11.565   3.151   1.951 -0.3086 -0.1632  0.0548
   29A      C1'  510  11.495   3.032   1.931  0.0408  0.0301 -0.0464
   29A      H1'  511  11.504   2.956   2.009  1.9208 -1.0064 -1.2031
   29A       N9  512  11.346   3.057   1.926 -0.1329  0.0259  0.1676
   29A       C8  513  11.284   3.174   1.905  0.4790  0.1293 -0.4854
   29A       H8  514  11.338   3.266   1.886 -1.2960  1.7026  1.6557
   29A       N7  515  11.157   3.181   1.898  0.2776  0.6644 -0.2977
   29A       C5  516  11.125   3.046   1.924 -0.2688 -0.7282 -0.1034
   29A       C6  517  11.004   2.979   1.945  0.1899 -0.4925  0.4217
   29A       N6  518  10.886   3.032   1.942  0.7841 -0.0602 -0.2138
   29A      H61  519  10.881   3.129   1.914  1.3148 -0.2480 -1.0092
   29A      H62  520  10.801   2.979   1.954 -1.8585  3.9901  0.7760
   29A       N1  521  11.004   2.847   1.970  0.0449  0.2516 -0.0791
   29A       C2  522  11.120   2.784   1.968  0.1327  0.1071 -0.4574
   29A       H2  523  11.112   2.678   1.988 -1.7783  0.2935 -0.0568
   29A       N3  524  11.241   2.833   1.953 -0.4695 -0.4441  0.2041
   29A       C4  525  11.237   2.967   1.938 -0.2262 -0.7554  0.8218
   29A      C3'  526  11.587   3.106   1.721  0.2632 -0.8519  0.5970
   29A      H3'  527  11.497   3.162   1.695 -0.1159 -0.9340  1.6861
   29A      C2'  528  11.540   2.982   1.792  1.1266 -0.7507 -0.7578
   29A     H2'1  529  11.458   2.940   1.733  1.0844 -0.2009 -1.0978
   29A      O2'  530  11.645   2.891   1.809 -0.5525 -0.1916  0.2959
   29A     HO'2  531  11.708   2.909   1.739 -1.2649  0.3188 -0.2420
   29A      O3'  532  11.669   3.065   1.616  0.0202 -0.1234 -0.1191
   30A        P  533  11.603   3.018   1.480  0.2273 -0.0594 -0.2087
   30A      O1P  534  11.717   2.972   1.397 -0.3807 -0.9852 -0.0847
   30A      O2P  535  11.527   3.138   1.432 -0.1274 -0.7721 -0.0609
   30A      O5'  536  11.508   2.886   1.493  0.4445  0.0695  0.0668
   30A      C5'  537  11.562   2.760   1.491  0.7015 -0.5019  0.0722
   30A     H5'1  538  11.637   2.757   1.571  1.3365  2.3180 -0.3161
   30A     H5'2  539  11.616   2.743   1.398  0.0679 -0.8314 -0.2384
   30A      C4'  540  11.452   2.662   1.506  0.5201  0.2667  0.1958
   30A      H4'  541  11.489   2.561   1.525 -0.8869 -0.7279 -1.9064
   30A      O4'  542  11.368   2.703   1.612  0.2292  0.2570  0.6053
   30A      C1'  543  11.240   2.648   1.599  0.8772  1.0920  0.5971
   30A      H1'  544  11.206   2.577   1.674 -3.0260  2.9517  0.8608
   30A       N9  545  11.141   2.760   1.609 -0.0391  0.8107 -0.1443
   30A       C8  546  11.165   2.893   1.601  0.2248 -0.9669 -0.6143
   30A       H8  547  11.266   2.929   1.593  0.4277 -1.5880 -0.9371
   30A       N7  548  11.052   2.963   1.600 -1.0106 -0.1409 -0.0207
   30A       C5  549  10.949   2.877   1.607 -0.0076  0.5640  0.0611
   30A       C6  550  10.809   2.883   1.633 -0.1344 -0.0652 -0.0260
   30A       N6  551  10.746   2.996   1.655  0.0754 -0.2681 -0.0581
   30A      H61  552  10.797   3.081   1.642 -1.2710  0.3704 -1.4002
   30A      H62  553  10.646   2.999   1.669  0.1616  3.3842  0.8594
   30A       N1  554  10.732   2.778   1.634  0.3091  0.2406 -0.0643
   30A       C2  555  10.789   2.663   1.632 -0.4314  0.8754 -0.2447
   30A       H2  556  10.723   2.578   1.642 -0.8442  1.2493  0.3028
   30A       N3  557  10.925   2.637   1.619  0.2819 -0.6293 -0.1727
   30A       C4  558  11.002   2.752   1.612  0.2415  0.0594  0.1354
   30A      C3'  559  11.353   2.655   1.384  0.0093  0.5927 -0.4692
   30A      H3'  560  11.321   2.755   1.355 -2.1874  0.1594  0.2138
   30A      C2'  561  11.235   2.580   1.459  0.0184 -0.3128 -0.9500
   30A     H2'1  562  11.137   2.589   1.412 -1.4001  0.1974  1.8810
   30A      O2'  563  11.268   2.445   1.469  0.1142  0.5246  0.0802
   30A     HO'2  564  11.285   2.421   1.378 -2.2769  1.2896 -0.6436
   30A      O3'  565  11.407   2.578   1.276  0.8148  0.0646  0.0787
   31U        P  566  11.384   2.629   1.123  0.4898 -0.2969  0.1399
   31U      O1P  567  11.448   2.528   1.039  0.2072  0.2870 -0.1613
   31U      O2P  568  11.426   2.764   1.109 -0.2430  0.0714  0.4895
   31U      O5'  569  11.227   2.618   1.110 -0.3252  0.1921 -0.8544
   31U      C5'  570  11.170   2.489   1.104 -0.4143 -0.3330 -0.1047
   31U     H5'1  571  11.202   2.428   1.189  2.1184  1.0406  0.0280
   31U     H5'2  572  11.200   2.442   1.010 -3.4104 -0.2279 -1.2453
   31U      C4'  573  11.017   2.480   1.101 -0.2223 -0.6343  0.1642
   31U      H4'  574  10.999   2.373   1.101  2.0145 -1.1416 -2.8271
   31U      O4'  575  10.960   2.540   1.218 -0.5012  0.4296 -0.4428
   31U      C1'  576  10.829   2.592   1.199 -0.1415  0.0541 -0.2512
   31U      H1'  577  10.753   2.539   1.257 -0.6460  0.4614 -0.5374
   31U       N1  578  10.823   2.745   1.224 -0.3638 -0.1324 -0.3352
   31U       C6  579  10.944   2.816   1.241 -0.1188  0.7612 -0.9048
   31U       H6  580  11.040   2.770   1.225 -0.2530 -0.9351  2.3614
   31U       C5  581  10.934   2.942   1.286 -0.8123  0.2906  0.1385
   31U       H5  582  11.027   2.996   1.299 -0.7529  0.3871 -0.6435
   31U       C4  583  10.806   3.001   1.326  0.3470 -0.2610 -0.2937
   31U       O4  584  10.789   3.108   1.379 -0.4214 -0.3157 -0.3013
   31U       N3  585  10.697   2.925   1.306  0.0862  0.1257 -0.3460
   31U       H3  586  10.608   2.965   1.332  0.8533  0.7205  1.5597
   31U       C2  587  10.697   2.802   1.251 -0.5572  0.1201 -0.1969
   31U       O2  588  10.591   2.742   1.235  0.1290 -0.4874 -0.0187
   31U      C3'  589  10.946   2.555   0.989 -0.3481 -0.4773  0.4053
   31U      H3'  590  10.980   2.659   0.995  1.0058 -0.9061  0.4383
   31U      C2'  591  10.802   2.555   1.051 -0.0772  0.0967 -0.0282
   31U     H2'1  592  10.740   2.629   1.001 -0.3383 -0.9382 -1.3005
   31U      O2'  593  10.732   2.434   1.051  0.3078  0.2494  0.1645
   31U     HO'2  594  10.715   2.413   0.958  1.8309  0.8180 -0.2790
   31U      O3'  595  10.959   2.495   0.857  0.1695  0.3572 -0.1639
   32G        P  596  10.932   2.590   0.737  0.2543 -0.1846  0.5137
   32G      O1P  597  10.952   2.515   0.610 -0.1018  0.2000 -0.7600
   32G      O2P  598  11.012   2.718   0.752 -0.2264 -0.1728 -0.3824
   32G      O5'  599  10.769   2.621   0.745  0.0280  0.2086  0.6165
   32G      C5'  600  10.681   2.543   0.669  0.0194 -0.4747  0.0796
   32G     H5'1  601  10.697   2.436   0.686  0.1283 -0.2311  1.6974
   32G     H5'2  602  10.709   2.563   0.565  1.3291 -1.8351  0.1294
   32G      C4'  603  10.531   2.567   0.702  0.4035  0.7785  0.4233
   32G      H4'  604  10.470   2.480   0.679  0.9032  0.4393  0.3686
   32G      O4'  605  10.521   2.594   0.844  0.2889  0.3610  0.3257
   32G      C1'  606  10.417   2.687   0.867 -0.1856 -0.8061 -0.6595
   32G      H1'  607  10.342   2.657   0.939  0.2835  1.8482  1.0683
   32G       N9  608  10.463   2.826   0.905 -0.2694  0.1913 -0.0946
   32G       C8  609  10.591   2.881   0.885 -0.2443 -0.1393  0.6835
   32G       H8  610  10.669   2.809   0.861  1.2424  1.7417 -0.3707
   32G       N7  611  10.603   3.008   0.920  0.1919 -0.1785  0.4829
   32G       C5  612  10.472   3.044   0.955  0.4401  0.8882  0.6109
   32G       C6  613  10.416   3.169   1.008 -1.6225 -0.0222  0.0128
   32G       O6  614  10.477   3.274   1.027  0.1053 -0.3263  0.0903
   32G       N1  615  10.276   3.165   1.023  0.1655 -0.4842  0.1638
   32G       H1  616  10.234   3.249   1.059  0.2680 -0.0477 -0.7008
   32G       C2  617  10.202   3.053   0.996  1.0295 -0.7314 -0.4548
   32G       N2  618  10.076   3.067   1.013  0.2334 -0.1361  0.1886
   32G      H21  619  10.036   3.157   1.038  0.6529  0.1951 -0.3066
   32G      H22  620  10.017   2.993   0.981  1.0488  0.4428 -2.9678
   32G       N3  621  10.244   2.937   0.959 -0.1822  0.1466 -0.0259
   32G       C4  622  10.384   2.938   0.939  0.1110  0.3832  0.2974
   32G      C3'  623  10.473   2.689   0.639 -0.0744  0.4230  0.2547
   32G      H3'  624  10.549   2.767   0.641  0.1494  0.2236  2.7439
   32G      C2'  625  10.355   2.717   0.733  0.2124 -0.0785  0.3688
   32G     H2'1  626  10.331   2.822   0.716 -2.0319 -0.4835  0.7944
   32G      O2'  627  10.241   2.632   0.714  0.3523 -0.1987  0.3601
   32G     HO'2  628  10.169   2.679   0.757  0.7188 -0.8754  1.7695
   32G      O3'  629  10.433   2.656   0.506  0.1548  0.0025  0.1582
   33A        P  630  10.402   2.765   0.398  0.2628 -0.0488  0.4126
   33A      O1P  631  10.396   2.693   0.270  0.1560 -0.5147 -0.5387
   33A      O2P  632  10.502   2.878   0.409  0.4485 -0.4379 -0.2813
   33A      O5'  633  10.263   2.829   0.441 -0.0920  0.2352  0.2321
   33A      C5'  634  10.143   2.757   0.431  0.5137  0.4316 -0.7378
   33A     H5'1  635  10.143   2.669   0.496 -3.2817  0.6576 -0.1626
   33A     H5'2  636  10.131   2.728   0.327  0.8251 -3.0110  0.0885
   33A      C4'  637  10.028   2.842   0.482  0.1115 -0.2585  0.5382
   33A      H4'  638   9.940   2.777   0.483  0.7841 -1.1782  1.7540
   33A      O4'  639  10.042   2.888   0.617 -0.0729  0.4703  0.3100
   33A      C1'  640   9.976   3.013   0.634  0.1113 -0.0773 -0.1757
   33A      H1'  641   9.901   3.006   0.713  0.8612  0.6870  0.6134
   33A       N9  642  10.074   3.122   0.668  0.0581 -0.1339 -0.1081
   33A       C8  643  10.210   3.110   0.671  0.1556 -0.1826  0.6182
   33A       H8  644  10.266   3.022   0.643  1.0538  0.6425 -0.2704
   33A       N7  645  10.269   3.223   0.703 -0.4439 -0.8121 -0.0469
   33A       C5  646  10.164   3.314   0.723 -0.3892 -0.2717  0.1376
   33A       C6  647  10.140   3.452   0.767 -0.3371  0.2455 -0.0393
   33A       N6  648  10.240   3.535   0.782 -0.7023 -0.6121  0.1404
   33A      H61  649  10.332   3.495   0.787 -0.9863 -1.4213 -0.7141
   33A      H62  650  10.214   3.630   0.804 -0.5124 -1.2449  3.5811
   33A       N1  651  10.023   3.505   0.785  0.2875 -0.2569  0.8331
   33A       C2  652   9.917   3.422   0.766 -0.1033 -1.0290 -0.3536
   33A       H2  653   9.824   3.475   0.780  0.6011 -0.1250  1.1302
   33A       N3  654   9.914   3.296   0.729  0.2867 -0.1067 -0.1278
   33A       C4  655  10.040   3.252   0.699  0.0776  0.2074  0.0290
   33A      C3'  656   9.999   2.965   0.399 -0.3557 -0.1558  0.2220
   33A      H3'  657  10.084   3.031   0.385 -1.2254  0.9946  0.1998
   33A      C2'  658   9.911   3.037   0.501 -0.3117 -0.4194 -0.2932
   33A     H2'1  659   9.895   3.143   0.478 -1.2848 -0.5534 -0.2748
   33A      O2'  660   9.781   2.983   0.509  0.5299  0.1486  0.2756
   33A     HO'2  661   9.725   3.040   0.562 -0.1570  0.5853 -0.8643
   33A      O3'  662   9.929   2.940   0.279  0.9815  0.2611 -0.3241
   34U        P  663   9.939   3.034   0.151 -0.2704 -0.2959 -0.2805
   34U      O1P  664   9.887   2.962   0.033 -1.0680 -0.4374  0.6183
   34U      O2P  665  10.077   3.079   0.146 -0.1263 -0.4863  0.2718
   34U      O5'  666   9.846   3.154   0.196  0.0369  0.3951 -0.0944
   34U      C5'  667   9.703   3.137   0.225 -0.3843  0.2154  0.4490
   34U     H5'1  668   9.688   3.066   0.306 -0.1770 -0.0230  0.2815
   34U     H5'2  669   9.660   3.096   0.134  1.3300 -1.1395  0.2020
   34U      C4'  670   9.649   3.273   0.269  0.1549 -0.2773 -0.3631
   34U      H4'  671   9.550   3.259   0.313  0.8921  0.1173  1.4816
   34U      O4'  672   9.715   3.325   0.383  0.7159 -0.3101  0.1531
   34U      C1'  673   9.772   3.448   0.350  0.5512  0.2046  0.3188
   34U      H1'  674   9.700   3.517   0.392  0.5637 -0.4397  1.4501
   34U       N1  675   9.910   3.465   0.401  0.1089 -0.0124 -0.3029
   34U       C6  676  10.012   3.374   0.368 -0.4830 -0.0976 -0.1916
   34U       H6  677   9.984   3.282   0.320  1.7411  0.0992 -2.0093
   34U       C5  678  10.139   3.411   0.383 -0.3713 -0.2008  0.0535
   34U       H5  679  10.223   3.345   0.364  0.2736  0.7002 -0.2797
   34U       C4  680  10.174   3.541   0.435 -0.4444 -0.9294 -0.3870
   34U       O4  681  10.294   3.576   0.456  0.0599  0.1412  0.0287
   34U       N3  682  10.074   3.625   0.472  0.7039 -0.6751 -0.2476
   34U       H3  683  10.092   3.721   0.498 -2.2717  0.1989 -1.0343
   34U       C2  684   9.942   3.590   0.459  0.0445 -0.7677  0.1005
   34U       O2  685   9.858   3.672   0.492 -0.2360  0.2299 -0.0549
   34U      C3'  686   9.650   3.379   0.155 -0.6802  0.2920  0.5386
   34U      H3'  687   9.665   3.335   0.057 -0.9046  2.0096 -0.3045
   34U      C2'  688   9.773   3.464   0.192  0.0841  0.0904 -0.6050
   34U     H2'1  689   9.854   3.414   0.140  0.4556 -0.4787  0.5009
   34U      O2'  690   9.747   3.601   0.144  0.7062  0.1021  0.0475
   34U     HO'2  691   9.825   3.658   0.137  0.9101 -0.0097  1.1812
   34U      O3'  692   9.521   3.444   0.161 -0.2071  0.3385 -0.0682
   35A        P  693   9.408   3.394   0.060 -0.0408 -0.0971 -0.3659
   35A      O1P  694   9.389   3.254   0.053  0.6452  0.6153  0.1211
   35A      O2P  695   9.437   3.473  -0.061  0.3160  0.1114  0.1319
   35A      O5'  696   9.285   3.460   0.136 -0.2106  0.0141  0.2362
   35A      C5'  697   9.225   3.409   0.258 -0.0351 -0.3772  0.4134
   35A     H5'1  698   9.304   3.384   0.328  1.8932  0.9411 -1.1696
   35A     H5'2  699   9.170   3.320   0.225 -0.2458 -0.6885  1.5616
   35A      C4'  700   9.130   3.498   0.323  0.6352 -0.2610 -0.2482
   35A      H4'  701   9.064   3.444   0.391 -1.0649  2.1547  0.1819
   35A      O4'  702   9.190   3.597   0.402 -0.3615 -0.7996 -0.0288
   35A      C1'  703   9.150   3.726   0.356 -0.6878  0.1336 -0.3707
   35A      H1'  704   9.125   3.792   0.440  0.2047 -2.0848  1.7773
   35A       N9  705   9.266   3.789   0.287  0.5591  1.1337 -0.7516
   35A       C8  706   9.388   3.729   0.261 -0.5259 -0.8736  0.2246
   35A       H8  707   9.413   3.628   0.289  1.1943 -0.3470  0.7126
   35A       N7  708   9.474   3.810   0.204  0.5527 -0.0066 -0.3063
   35A       C5  709   9.396   3.931   0.189  0.6617  0.2594 -0.3144
   35A       C6  710   9.414   4.057   0.128 -0.5569  0.2575  0.2600
   35A       N6  711   9.531   4.103   0.082  0.2490 -0.1675  0.2464
   35A      H61  712   9.614   4.048   0.098  0.3351  0.5308  2.6127
   35A      H62  713   9.532   4.190   0.031 -0.6405 -1.5830 -2.3575
   35A       N1  714   9.315   4.148   0.124  0.0360 -0.1986 -0.1079
   35A       C2  715   9.203   4.122   0.183  0.4160 -0.0087 -0.0103
   35A       H2  716   9.133   4.205   0.179  0.8993  0.3939 -0.2245
   35A       N3  717   9.170   4.010   0.249 -0.3886 -0.3986 -0.1463
   35A       C4  718   9.270   3.919   0.244 -0.0618  0.4895  1.3892
   35A      C3'  719   9.043   3.561   0.214 -1.1479 -0.4569  0.3032
   35A      H3'  720   9.087   3.577   0.116 -0.4508 -0.8235  0.5542
   35A      C2'  721   9.023   3.705   0.269  0.4818 -0.3227 -0.2162
   35A     H2'1  722   9.022   3.774   0.184 -0.0756  0.8650  0.7136
   35A      O2'  723   8.910   3.722   0.347  0.7469 -0.0934 -0.2383
   35A     HO'2  724   8.905   3.659   0.420 -0.0519 -0.7683 -0.8492
   35A      O3'  725   8.912   3.514   0.192 -0.2252 -0.1867  0.0898
   36U        P  726   8.898   3.395   0.095  0.0066 -0.5155 -0.0526
   36U      O1P  727   8.990   3.418  -0.017 -0.1129 -0.2620  0.4501
   36U      O2P  728   8.756   3.370   0.070  0.4461 -0.0446 -0.4050
   36U      O5'  729   8.947   3.269   0.183 -1.1804  0.5382 -0.0065
   36U      C5'  730   8.868   3.222   0.293  0.6014 -0.5198  0.0321
   36U     H5'1  731   8.764   3.252   0.280  0.9391  0.1370 -1.4079
   36U     H5'2  732   8.888   3.271   0.388  0.5875  0.2156 -0.3417
   36U      C4'  733   8.877   3.072   0.320  0.2549 -0.0583 -0.2822
   36U      H4'  734   8.813   3.058   0.407  0.0074  0.3276 -0.3981
   36U      O4'  735   8.827   3.003   0.208  0.2984  0.8403  0.2702
   36U      C1'  736   8.925   2.910   0.163 -0.2829  0.1976  0.3225
   36U      H1'  737   8.911   2.812   0.206  0.9514 -0.2151 -0.1613
   36U       N1  738   8.920   2.909   0.013 -0.3031 -0.6213 -0.0479
   36U       C6  739   8.921   3.026  -0.058  0.3500 -0.1369  0.4110
   36U       H6  740   8.924   3.121  -0.006 -0.6489  0.4197 -0.5034
   36U       C5  741   8.907   3.026  -0.191 -1.0644 -0.1520  0.0079
   36U       H5  742   8.899   3.121  -0.244  1.4325  0.3521  0.4026
   36U       C4  743   8.898   2.906  -0.265 -0.1807 -0.0098 -0.3694
   36U       O4  744   8.887   2.893  -0.387 -0.2592 -0.4951 -0.0013
   36U       N3  745   8.918   2.792  -0.194  0.1591  0.5721 -0.1503
   36U       H3  746   8.920   2.704  -0.243  1.4127 -0.5742  1.8094
   36U       C2  747   8.939   2.789  -0.058 -0.0424 -0.0010 -0.0126
   36U       O2  748   8.967   2.683   0.004  0.1064  0.4938  0.1385
   36U      C3'  749   9.015   3.014   0.352  0.0302 -0.3994  0.1346
   36U      H3'  750   9.075   3.100   0.380 -1.6273  0.2470  1.9008
   36U      C2'  751   9.059   2.960   0.216 -0.1674  0.1768 -0.0413
   36U     H2'1  752   9.098   3.045   0.160 -2.4198  1.2377 -0.1047
   36U      O2'  753   9.142   2.846   0.229 -0.1790  0.4781  0.5526
   36U     HO'2  754   9.110   2.801   0.308 -0.1947  0.5413  0.5823
   36U      O3'  755   9.018   2.908   0.452  0.4524  0.0562  0.0824
   37G        P  756   9.039   2.941   0.613  0.1280 -0.1546 -0.3269
   37G      O1P  757   9.048   2.814   0.690 -0.0506  0.2856 -0.5400
   37G      O2P  758   8.926   3.037   0.657  0.3187  0.2178  0.5483
   37G      O5'  759   9.183   3.012   0.617  0.1026 -0.2104  0.6930
   37G      C5'  760   9.303   2.956   0.571 -0.0755  0.4263 -0.2702
   37G     H5'1  761   9.298   2.946   0.463 -3.5604 -0.7031 -0.1537
   37G     H5'2  762   9.328   2.864   0.625 -1.1742 -1.0207 -2.0822
   37G      C4'  763   9.425   3.041   0.596  0.0502  0.0038 -0.1836
   37G      H4'  764   9.518   2.997   0.559  0.2325  0.2733 -0.0546
   37G      O4'  765   9.400   3.163   0.528 -0.0611 -0.3349 -0.2662
   37G      C1'  766   9.467   3.265   0.595  0.0331 -0.4118 -0.6133
   37G      H1'  767   9.542   3.317   0.535  1.9977  1.0891  2.8725
   37G       N9  768   9.370   3.364   0.643  0.2248  0.3413 -0.0095
   37G       C8  769   9.234   3.348   0.669 -0.7943  0.2271  0.3925
   37G       H8  770   9.192   3.249   0.674 -0.8999  0.3107  4.1583
   37G       N7  771   9.180   3.460   0.705 -0.4914  0.5076  0.1791
   37G       C5  772   9.278   3.561   0.681  0.5602  0.6969  0.5117
   37G       C6  773   9.273   3.704   0.674  0.2146 -0.0287  0.1999
   37G       O6  774   9.179   3.786   0.686  0.5150  0.4072  0.1551
   37G       N1  775   9.392   3.762   0.655  0.3500 -0.1617  0.0378
   37G       H1  776   9.398   3.860   0.677 -0.7433 -0.3863  1.4516
   37G       C2  777   9.506   3.696   0.635  0.1104 -0.2461  0.0921
   37G       N2  778   9.616   3.765   0.613  0.2414  0.3899 -0.3819
   37G      H21  779   9.603   3.864   0.600 -1.1873  0.2211 -0.3837
   37G      H22  780   9.683   3.709   0.564  0.3632  0.7085 -0.5799
   37G       N3  781   9.526   3.563   0.635 -0.2024  0.4131 -0.0793
   37G       C4  782   9.403   3.499   0.652  0.0978  0.2106 -1.0477
   37G      C3'  783   9.452   3.082   0.743 -0.2623 -0.2031  0.5542
   37G      H3'  784   9.364   3.115   0.798  1.0457 -0.0504  2.6726
   37G      C2'  785   9.539   3.206   0.711  0.5036 -0.1012  0.2527
   37G     H2'1  786   9.549   3.282   0.789  2.4968 -0.8289  0.7521
   37G      O2'  787   9.667   3.168   0.661 -0.1714  0.6504  0.1108
   37G     HO'2  788   9.737   3.209   0.713 -1.6323  2.1118  1.0403
   37G      O3'  789   9.524   2.984   0.819  0.2999 -0.1335 -0.7236
   38G        P  790   9.525   2.986   0.980  0.0973 -0.2443 -0.4090
   38G      O1P  791   9.625   2.884   1.012  0.0059 -0.1230 -0.2472
   38G      O2P  792   9.383   2.971   1.026  0.7805 -0.5814 -0.5937
   38G      O5'  793   9.576   3.136   1.030  0.7102 -0.0307 -0.2380
   38G      C5'  794   9.708   3.173   1.020 -0.8475  0.1117 -0.2608
   38G     H5'1  795   9.745   3.156   0.919  0.9207 -1.2205  0.5553
   38G     H5'2  796   9.765   3.102   1.079 -0.8130 -0.3383 -0.8313
   38G      C4'  797   9.730   3.320   1.060 -0.6035 -0.6134 -0.5296
   38G      H4'  798   9.837   3.340   1.059 -0.8182  0.8738  1.3708
   38G      O4'  799   9.662   3.410   0.974  0.0041 -0.2388  0.0288
   38G      C1'  800   9.635   3.533   1.039  0.5213 -0.2517 -0.5993
   38G      H1'  801   9.691   3.615   0.994 -1.0676  0.4429 -1.4157
   38G       N9  802   9.494   3.561   1.014  0.5845 -0.1462  0.9398
   38G       C8  803   9.387   3.478   1.032  0.8485  0.3180  0.4199
   38G       H8  804   9.406   3.371   1.029 -0.4392  0.0888 -0.3036
   38G       N7  805   9.274   3.537   1.044  0.3064  0.4367  0.5772
   38G       C5  806   9.304   3.670   1.011 -0.6682 -0.0051 -0.1280
   38G       C6  807   9.231   3.794   0.996 -0.1919 -0.4669 -1.0218
   38G       O6  808   9.110   3.818   1.007 -0.2394  0.2013  0.3192
   38G       N1  809   9.307   3.908   0.965  0.2138  0.2833 -0.6569
   38G       H1  810   9.265   4.000   0.963 -0.4028  0.0569  0.6328
   38G       C2  811   9.440   3.895   0.950 -0.3788 -0.0422  1.1528
   38G       N2  812   9.500   4.002   0.907  0.1167  0.7045 -0.2286
   38G      H21  813   9.452   4.090   0.893  0.9704  1.5022  1.5695
   38G      H22  814   9.599   3.988   0.895  0.7443  2.9135  1.5997
   38G       N3  815   9.514   3.792   0.959  0.2937 -0.1389 -0.3428
   38G       C4  816   9.436   3.681   0.996 -0.4497 -0.1398  0.6667
   38G      C3'  817   9.679   3.355   1.202 -0.8591 -0.3959  0.0130
   38G      H3'  818   9.590   3.299   1.232 -1.1747  1.3315  2.6685
   38G      C2'  819   9.656   3.508   1.187  0.1028 -0.4044 -0.0458
   38G     H2'1  820   9.561   3.531   1.235 -0.7314  2.1026 -2.6394
   38G      O2'  821   9.765   3.595   1.234  0.3974  0.4847 -0.0031
   38G     HO'2  822   9.816   3.534   1.288  0.5157  0.1885 -0.4470
   38G      O3'  823   9.779   3.338   1.301 -0.3411 -0.7758  0.2940
   39U        P  824   9.742   3.290   1.452  0.4479  0.2834  0.5464
   39U      O1P  825   9.604   3.336   1.481  0.0038 -0.3784  0.0060
   39U      O2P  826   9.861   3.335   1.527  0.2798  0.0228  0.1875
   39U      O5'  827   9.739   3.132   1.461  0.0689 -0.0912 -0.0840
   39U      C5'  828   9.654   3.046   1.393  0.2006 -0.1869  0.4641
   39U     H5'1  829   9.608   3.086   1.303  0.0613  1.5522  1.2702
   39U     H5'2  830   9.572   3.015   1.459  1.1125 -1.0377  1.2233
   39U      C4'  831   9.713   2.915   1.345 -0.1439 -0.1142 -0.6566
   39U      H4'  832   9.631   2.856   1.302  1.1973 -0.7616 -2.4597
   39U      O4'  833   9.813   2.929   1.243  0.3500  0.8284  0.0747
   39U      C1'  834   9.905   2.822   1.255  0.1473 -0.5288 -0.7483
   39U      H1'  835   9.896   2.751   1.173  1.6554 -2.3082  0.5353
   39U       N1  836  10.046   2.874   1.273 -0.0062 -0.6161  0.2205
   39U       C6  837  10.069   2.999   1.335  0.3247 -0.0934  0.6423
   39U       H6  838   9.985   3.065   1.351  0.4685  0.1113  0.5616
   39U       C5  839  10.196   3.035   1.365 -0.3548 -0.9959  1.2979
   39U       H5  840  10.215   3.134   1.404  0.9037 -1.1416  1.1071
   39U       C4  841  10.315   2.957   1.333 -0.2937  0.2724  0.4946
   39U       O4  842  10.431   2.991   1.353 -0.0327  0.1056 -0.3756
   39U       N3  843  10.279   2.840   1.258  0.3849 -0.0048  0.1525
   39U       H3  844  10.350   2.773   1.234 -1.4632 -1.0604 -2.9207
   39U       C2  845  10.148   2.786   1.241 -0.2616 -0.9032  0.0310
   39U       O2  846  10.126   2.677   1.192 -0.3408  0.2730 -0.4763
   39U      C3'  847   9.784   2.836   1.461  0.2677 -0.1463 -0.3647
   39U      H3'  848   9.836   2.916   1.514 -1.0909  0.4277  0.1373
   39U      C2'  849   9.871   2.745   1.381  0.1078 -0.4156 -0.7816
   39U     H2'1  850   9.962   2.725   1.438  0.1924  1.6737 -0.1051
   39U      O2'  851   9.802   2.624   1.355  0.3270  0.3736  0.2592
   39U     HO'2  852   9.726   2.646   1.300 -0.3504 -3.5263 -0.6961
   39U      O3'  853   9.689   2.783   1.550 -0.6054  0.7810 -0.0559
   40U        P  854   9.727   2.734   1.698  0.1031 -0.1652  0.3453
   40U      O1P  855   9.617   2.660   1.751  0.1464  0.0092  0.0489
   40U      O2P  856   9.770   2.855   1.771  0.3772 -0.0959  0.2850
   40U      O5'  857   9.848   2.639   1.689 -0.3983 -1.0665 -0.3520
   40U      C5'  858   9.838   2.507   1.657 -0.1092 -0.1943 -0.6467
   40U     H5'1  859   9.772   2.496   1.571 -0.6674  0.8937 -0.3854
   40U     H5'2  860   9.800   2.454   1.745 -0.1497 -0.2105 -0.6739
   40U      C4'  861   9.975   2.446   1.631  0.4953 -0.3477 -0.5179
   40U      H4'  862   9.963   2.339   1.613  1.7441 -0.8243  1.1702
   40U      O4'  863  10.047   2.497   1.511  0.1236  0.3382 -0.1819
   40U      C1'  864  10.186   2.494   1.544  0.7281 -0.1469 -0.1190
   40U      H1'  865  10.242   2.449   1.461  0.7901  0.2411 -0.2886
   40U       N1  866  10.248   2.625   1.570 -0.6663 -0.3904  0.2661
   40U       C6  867  10.179   2.737   1.614  0.4963 -0.2510 -0.4368
   40U       H6  868  10.073   2.722   1.631  0.2737  1.4145 -0.1180
   40U       C5  869  10.246   2.851   1.655  0.1913  0.5191  0.8195
   40U       H5  870  10.187   2.930   1.699 -0.8723  0.0515  0.2717
   40U       C4  871  10.388   2.866   1.644  0.1252 -0.4140  0.1406
   40U       O4  872  10.452   2.971   1.664  0.2071  0.1255  0.1707
   40U       N3  873  10.451   2.754   1.591  0.1295  0.5871 -0.3851
   40U       H3  874  10.551   2.758   1.581  0.3663 -1.6733  0.3392
   40U       C2  875  10.390   2.634   1.556 -0.1024 -0.1206 -0.1928
   40U       O2  876  10.454   2.542   1.505  0.2836  0.5731  0.2553
   40U      C3'  877  10.070   2.451   1.749 -0.1606 -0.6004  0.3094
   40U      H3'  878  10.080   2.554   1.782  2.4016 -0.0548 -1.8445
   40U      C2'  879  10.194   2.415   1.672 -0.7715  0.2388  0.2206
   40U     H2'1  880  10.282   2.450   1.727  0.4218  0.1689 -1.5491
   40U      O2'  881  10.207   2.268   1.645  0.3082 -0.0271 -0.1739
   40U     HO'2  882  10.300   2.242   1.644 -0.3851 -2.8220  0.3944
   40U      O3'  883  10.042   2.357   1.854  0.1257  0.2344  0.1112
   41U        P  884  10.086   2.391   2.002  0.1852  0.2703 -0.3076
   41U      O1P  885  10.001   2.305   2.086 -0.2561 -0.3724 -0.1570
   41U      O2P  886  10.073   2.535   2.023  0.0461 -0.3390  0.1002
   41U      O5'  887  10.243   2.364   2.003 -0.1696  0.1267  0.2444
   41U      C5'  888  10.304   2.233   1.998  0.6015  0.3880 -0.2810
   41U     H5'1  889  10.279   2.184   1.904  1.4738 -2.1017  0.7050
   41U     H5'2  890  10.263   2.164   2.071  1.4111 -1.0477 -1.1230
   41U      C4'  891  10.458   2.233   2.005 -0.3117 -0.2352  0.0640
   41U      H4'  892  10.491   2.130   1.994  0.4722  0.1771 -1.8482
   41U      O4'  893  10.519   2.309   1.899  0.5084  0.0919 -0.1381
   41U      C1'  894  10.636   2.368   1.954  0.0480 -0.5156  0.4169
   41U      H1'  895  10.724   2.336   1.900  0.7020  0.2119  1.0266
   41U       N1  896  10.623   2.515   1.945  0.1375 -0.9059 -0.7130
   41U       C6  897  10.503   2.586   1.939  0.2643  0.2482 -0.4931
   41U       H6  898  10.411   2.531   1.941 -0.0262  0.7463  0.3428
   41U       C5  899  10.505   2.719   1.943  0.0643 -0.1597  0.4326
   41U       H5  900  10.409   2.769   1.940  0.3207  0.4647  1.7263
   41U       C4  901  10.628   2.796   1.965 -1.3884  0.3629  0.2253
   41U       O4  902  10.634   2.922   1.981 -0.2584 -0.2653 -0.1333
   41U       N3  903  10.745   2.722   1.980  0.1360  0.5019 -0.1045
   41U       H3  904  10.832   2.764   2.009  1.7010 -1.1312 -2.0698
   41U       C2  905  10.743   2.584   1.979 -0.2158  0.0959  0.3817
   41U       O2  906  10.847   2.522   2.014  0.7633 -0.1474  0.0693
   41U      C3'  907  10.503   2.295   2.137 -0.4647 -0.6174 -0.2967
   41U      H3'  908  10.459   2.392   2.163  1.2449 -0.4578  2.5044
   41U      C2'  909  10.648   2.325   2.100  0.6919  1.0609  0.2502
   41U     H2'1  910  10.694   2.404   2.159  1.2922  1.0828 -0.2351
   41U      O2'  911  10.726   2.206   2.100  0.4769 -0.5247  0.3772
   41U     HO'2  912  10.819   2.223   2.120  0.6990  0.5583 -1.3636
   41U      O3'  913  10.484   2.212   2.252  0.5385 -0.6122  0.2872
   42G        P  914  10.506   2.280   2.399 -0.1541  0.1005  0.0929
   42G      O1P  915  10.444   2.179   2.489 -0.1479 -0.8187  0.0309
   42G      O2P  916  10.452   2.418   2.390  0.1762 -0.2132 -0.1891
   42G      O5'  917  10.659   2.302   2.441  0.4887 -0.0244  0.0382
   42G      C5'  918  10.748   2.194   2.449 -0.1078  0.9102  0.5075
   42G     H5'1  919  10.723   2.124   2.369 -3.0793  0.2615  1.8693
   42G     H5'2  920  10.737   2.145   2.546 -3.4194  0.2789 -0.0574
   42G      C4'  921  10.888   2.248   2.430 -0.6751 -0.6856  0.4465
   42G      H4'  922  10.961   2.171   2.403 -0.5462  0.0419 -1.4790
   42G      O4'  923  10.903   2.343   2.314  0.7206  0.6933  0.1650
   42G      C1'  924  10.998   2.445   2.338 -0.0657  0.4285 -0.9704
   42G      H1'  925  11.087   2.444   2.274  0.0483  0.8245 -0.8213
   42G       N9  926  10.939   2.586   2.326  0.1056  0.7605  0.2184
   42G       C8  927  10.806   2.625   2.317 -0.2454  0.2357  0.2089
   42G       H8  928  10.728   2.551   2.320  1.0719 -1.2054 -0.0034
   42G       N7  929  10.786   2.753   2.321 -0.5482  0.1568  0.3955
   42G       C5  930  10.917   2.804   2.310  0.2487 -0.4716 -0.2034
   42G       C6  931  10.968   2.943   2.314  0.0291  0.6012  0.5184
   42G       O6  932  10.900   3.047   2.320 -0.0609  1.1079 -0.3868
   42G       N1  933  11.106   2.945   2.307  0.4165 -0.1954  0.2440
   42G       H1  934  11.145   3.034   2.280 -1.9675  1.1432  0.9715
   42G       C2  935  11.186   2.837   2.297 -0.2138  0.2086 -0.4962
   42G       N2  936  11.316   2.856   2.275 -0.1977  0.2514 -0.6668
   42G      H21  937  11.350   2.951   2.282 -1.6528  0.6657  2.2048
   42G      H22  938  11.374   2.775   2.260  1.6374  1.3494  0.2318
   42G       N3  939  11.145   2.710   2.304 -0.1208 -0.2329  0.2736
   42G       C4  940  11.011   2.703   2.319 -0.1862 -0.0547  0.8420
   42G      C3'  941  10.932   2.330   2.542  0.0912 -0.3256 -1.1037
   42G      H3'  942  10.852   2.397   2.574  1.6931  0.4321  1.6891
   42G      C2'  943  11.044   2.419   2.485 -0.4789  0.0444  0.5012
   42G     H2'1  944  11.068   2.511   2.538 -0.1417  1.4302 -1.8876
   42G      O2'  945  11.171   2.357   2.469  0.5302  0.0449  0.1502
   42G     HO'2  946  11.234   2.406   2.522  1.3417 -0.5637 -0.2260
   42G      O3'  947  10.979   2.250   2.659 -0.3998  0.3300 -0.3900
   43G        P  948  10.974   2.305   2.801 -0.6961  0.2695 -0.4003
   43G      O1P  949  11.008   2.200   2.894 -0.0707  0.2286 -0.1939
   43G      O2P  950  10.842   2.371   2.820  0.1887  0.3403  0.0669
   43G      O5'  951  11.082   2.424   2.803 -0.4519 -0.4524  0.2989
   43G      C5'  952  11.220   2.408   2.824  0.1004  0.3835  0.1979
   43G     H5'1  953  11.267   2.343   2.751  1.9901 -0.6354  2.2020
   43G     H5'2  954  11.233   2.371   2.926  2.0952 -2.3445 -0.9211
   43G      C4'  955  11.284   2.544   2.808 -0.4283  0.0427  0.0711
   43G      H4'  956  11.392   2.543   2.818 -0.2733  0.9046 -1.2653
   43G      O4'  957  11.254   2.615   2.685  0.0103  0.0398  0.2183
   43G      C1'  958  11.265   2.755   2.712 -0.1460 -0.3381  0.7769
   43G      H1'  959  11.326   2.807   2.638 -0.8521  0.1701  0.5381
   43G       N9  960  11.136   2.814   2.674  0.1435  0.2217 -0.4768
   43G       C8  961  11.009   2.758   2.680  0.2051  0.0003  0.9384
   43G       H8  962  10.994   2.654   2.706 -1.3400 -0.0215  0.0296
   43G       N7  963  10.913   2.834   2.651  0.2965  0.0117 -0.5219
   43G       C5  964  10.972   2.959   2.643  0.2019 -0.0362  0.1586
   43G       C6  965  10.922   3.089   2.630 -0.0742 -0.6375  0.0280
   43G       O6  966  10.809   3.123   2.597 -0.4690 -0.2913  0.2316
   43G       N1  967  11.019   3.189   2.647 -0.3056 -0.0795  0.0117
   43G       H1  968  10.999   3.289   2.648  0.1598  0.0141  0.0241
   43G       C2  969  11.156   3.168   2.655  0.5244 -0.2660 -0.2056
   43G       N2  970  11.229   3.275   2.666  0.2965  0.2236  0.0961
   43G      H21  971  11.182   3.364   2.676  0.8472  0.7248 -1.5195
   43G      H22  972  11.329   3.273   2.658  0.2518 -0.9138 -0.4808
   43G       N3  973  11.211   3.047   2.665 -0.2443  0.7295  0.0033
   43G       C4  974  11.113   2.948   2.660  0.0436  0.2837 -0.1270
   43G      C3'  975  11.246   2.642   2.915 -0.2372 -0.4500  0.0139
   43G      H3'  976  11.138   2.635   2.930 -0.1089 -2.2076  0.2643
   43G      C2'  977  11.295   2.772   2.859 -0.6191 -0.0392 -0.0449
   43G     H2'1  978  11.236   2.853   2.900 -0.6920  0.5558 -1.2648
   43G      O2'  979  11.435   2.795   2.866 -0.0728  0.4120 -0.1727
   43G     HO'2  980  11.474   2.722   2.914  0.0538  0.5223 -0.1083
   43G      O3'  981  11.314   2.621   3.035  0.3809  0.4708  0.8063
   44G        P  982  11.260   2.675   3.177 -0.2245 -0.2658  0.1882
   44G      O1P  983  11.342   2.627   3.289  0.6968  0.0332 -0.1275
   44G      O2P  984  11.117   2.653   3.176  0.6793 -0.2132  0.8242
   44G      O5'  985  11.284   2.840   3.171 -0.7188  1.1068 -0.0700
   44G      C5'  986  11.410   2.893   3.194 -0.1008 -0.3247  0.2131
   44G     H5'1  987  11.490   2.827   3.158 -0.6558 -2.5609  2.7523
   44G     H5'2  988  11.429   2.886   3.301 -1.6171 -1.1982  0.4620
   44G      C4'  989  11.424   3.035   3.143  0.2986 -0.0303  0.0707
   44G      H4'  990  11.525   3.072   3.125  0.4034 -0.1411  0.4426
   44G      O4'  991  11.355   3.056   3.017 -0.2156  0.4073  0.0626
   44G      C1'  992  11.301   3.187   3.006  0.2382  0.0513 -0.7447
   44G      H1'  993  11.343   3.232   2.916 -1.1775 -0.5859 -1.7659
   44G       N9  994  11.155   3.187   3.007 -0.5203  0.4365 -0.2264
   44G       C8  995  11.076   3.075   3.001  0.2482  0.2231  0.1096
   44G       H8  996  11.117   2.975   3.003 -1.7523 -0.6576 -0.7192
   44G       N7  997  10.950   3.098   2.965  0.1125 -0.3739 -0.2112
   44G       C5  998  10.944   3.238   2.953 -0.2399 -0.6884  0.0802
   44G       C6  999  10.838   3.328   2.916  0.0838  0.4121  0.1180
   44G       O6 1000  10.725   3.298   2.887  0.1197  0.0760  0.3640
   44G       N1 1001  10.868   3.460   2.922  0.6680  0.5887 -0.5272
   44G       H1 1002  10.789   3.520   2.904  0.1222 -0.4563 -1.7493
   44G       C2 1003  10.995   3.498   2.949 -0.0949 -0.3610  0.8581
   44G       N2 1004  11.008   3.630   2.930 -0.6948 -0.6142 -0.0044
   44G      H21 1005  10.928   3.691   2.935  1.7626  2.8001  1.0724
   44G      H22 1006  11.099   3.669   2.945 -1.0900  0.2499  0.2299
   44G       N3 1007  11.103   3.425   2.977 -0.4077  0.0141  0.2340
   44G       C4 1008  11.069   3.293   2.985  0.1242 -0.4629  0.6232
   44G      C3' 1009  11.356   3.135   3.229 -0.1328  0.0544 -0.2719
   44G      H3' 1010  11.258   3.095   3.257  0.1294  0.6982  1.6928
   44G      C2' 1011  11.344   3.256   3.137  0.7827 -0.1758 -0.1921
   44G     H2'1 1012  11.264   3.321   3.172  0.5089 -1.6606  2.1330
   44G      O2' 1013  11.462   3.329   3.118 -0.5680 -0.8795  0.1752
   44G     HO'2 1014  11.506   3.346   3.201  0.0409  1.0834 -0.4906
   44G      O3' 1015  11.444   3.162   3.337  0.4520  0.1717  0.5742
   45A        P 1016  11.377   3.206   3.475  0.1196  0.0419 -0.0527
   45A      O1P 1017  11.488   3.233   3.569 -0.1326  0.7811  0.2748
   45A      O2P 1018  11.280   3.104   3.515  0.2026  0.5175  0.1939
   45A      O5' 1019  11.291   3.341   3.454 -0.2260 -0.1572  0.0361
   45A      C5' 1020  11.358   3.459   3.408  0.5618 -0.1430  0.1945
   45A     H5'1 1021  11.405   3.446   3.310  1.2720  0.3833  0.4619
   45A     H5'2 1022  11.429   3.495   3.482 -1.8852  2.1497  1.6054
   45A      C4' 1023  11.257   3.574   3.393  0.5259  0.5030 -1.4716
   45A      H4' 1024  11.315   3.660   3.358  0.1720  1.6200  0.5616
   45A      O4' 1025  11.169   3.554   3.282 -0.7079  0.1593  0.2949
   45A      C1' 1026  11.040   3.609   3.315 -0.4770 -0.1719 -0.1452
   45A      H1' 1027  11.007   3.689   3.249 -1.2151  1.3843  1.9794
   45A       N9 1028  10.932   3.508   3.297  0.2599  0.3129 -0.4221
   45A       C8 1029  10.944   3.370   3.305 -0.1745 -0.7436 -0.2274
   45A       H8 1030  11.033   3.323   3.344 -1.1113 -1.2434  1.4086
   45A       N7 1031  10.841   3.303   3.268 -0.1079 -0.6516 -0.6845
   45A       C5 1032  10.754   3.406   3.226  0.6732 -0.3541  0.3165
   45A       C6 1033  10.620   3.424   3.179 -0.0546  0.8524  0.0249
   45A       N6 1034  10.547   3.327   3.137  0.1679  0.2553  0.0637
   45A      H61 1035  10.581   3.236   3.111  2.6381  0.8034  1.1733
   45A      H62 1036  10.470   3.365   3.082  0.0561  2.1111  1.3977
   45A       N1 1037  10.560   3.539   3.168  0.2616 -0.1856  0.3458
   45A       C2 1038  10.632   3.646   3.202  0.2792 -0.5992 -0.0501
   45A       H2 1039  10.574   3.737   3.211  2.4997  0.8162  0.5667
   45A       N3 1040  10.754   3.656   3.250 -0.5880  0.0358  0.3417
   45A       C4 1041  10.807   3.531   3.260  0.2077 -0.0241 -0.5367
   45A      C3' 1042  11.166   3.591   3.518  0.0101  1.0148  0.0002
   45A      H3' 1043  11.120   3.498   3.552 -2.4346  2.0915 -0.1586
   45A      C2' 1044  11.049   3.670   3.455 -0.3051  0.2049  0.0431
   45A     H2'1 1045  10.952   3.658   3.502 -1.4096  0.9718 -1.9269
   45A      O2' 1046  11.084   3.804   3.429  0.0247  0.1786 -0.1309
   45A     HO'2 1047  11.106   3.844   3.514  1.8754 -1.3401  0.1676
   45A      O3' 1048  11.229   3.651   3.631  0.9112 -0.0793  0.3156
   46G        P 1049  11.161   3.630   3.770  0.0746  0.1715  0.1755
   46G      O1P 1050  11.219   3.734   3.861 -0.5559  0.4279 -0.0390
   46G      O2P 1051  11.178   3.490   3.806  0.0001  0.1173  0.2838
   46G      O5' 1052  11.005   3.658   3.746 -0.5882 -0.2529  0.1692
   46G      C5' 1053  10.944   3.786   3.769 -0.1874  0.3305  0.9549
   46G     H5'1 1054  10.992   3.865   3.711  0.1509 -0.0615  0.6944
   46G     H5'2 1055  10.963   3.812   3.873  1.8460  1.4487  0.3606
   46G      C4' 1056  10.794   3.796   3.741 -0.8508  0.0324 -0.0671
   46G      H4' 1057  10.766   3.902   3.745 -2.1106 -0.2178 -1.4614
   46G      O4' 1058  10.758   3.745   3.614 -0.2845  0.1101  0.2375
   46G      C1' 1059  10.631   3.693   3.633 -0.8752 -0.1598 -0.6036
   46G      H1' 1060  10.563   3.739   3.561 -2.5103 -0.5476  0.6415
   46G       N9 1061  10.642   3.549   3.598 -0.0373 -0.1461  0.5675
   46G       C8 1062  10.740   3.463   3.638 -0.1560  0.5446  0.3855
   46G       H8 1063  10.823   3.503   3.693 -0.0217  2.1532 -0.9080
   46G       N7 1064  10.722   3.339   3.592  0.5108  0.8428  0.0087
   46G       C5 1065  10.603   3.352   3.510 -0.2921  0.1799  0.3362
   46G       C6 1066  10.527   3.254   3.441 -0.4565 -0.0418  0.9589
   46G       O6 1067  10.548   3.134   3.410 -0.7821  0.4050 -0.1916
   46G       N1 1068  10.407   3.301   3.399 -0.6209  0.5288 -0.1320
   46G       H1 1069  10.354   3.237   3.342 -3.3104  0.3031  2.3866
   46G       C2 1070  10.368   3.432   3.409  0.5051  0.3843  0.1104
   46G       N2 1071  10.256   3.467   3.346  0.5539  0.0692 -0.0254
   46G      H21 1072  10.206   3.395   3.296  0.9991  0.6984 -1.4180
   46G      H22 1073  10.237   3.566   3.346  1.7153  0.3047  0.4716
   46G       N3 1074  10.438   3.526   3.477 -0.1875 -0.1560 -0.0354
   46G       C4 1075  10.553   3.480   3.528  0.3885 -0.4114  0.0628
   46G      C3' 1076  10.720   3.722   3.853  0.6648 -0.1914 -0.0052
   46G      H3' 1077  10.771   3.626   3.860 -1.1692 -1.2278 -0.0116
   46G      C2' 1078  10.585   3.713   3.784 -0.6777 -0.1618  0.4400
   46G     H2'1 1079  10.534   3.626   3.826 -0.9003  0.0311  0.5753
   46G      O2' 1080  10.507   3.826   3.787  0.2319 -0.0536  0.5078
   46G     HO'2 1081  10.469   3.833   3.875  0.5879 -0.1259  0.6682
   46G      O3' 1082  10.707   3.788   3.979 -0.1474 -0.6073 -0.8856
   47U        P 1083  10.750   3.705   4.111  0.1021  0.0757 -0.0559
   47U      O1P 1084  10.777   3.806   4.214 -0.3194  0.3238 -0.3116
   47U      O2P 1085  10.854   3.608   4.081 -0.6872  0.1393 -0.0927
   47U      O5' 1086  10.611   3.639   4.149 -0.6137  0.1971  0.2050
   47U      C5' 1087  10.492   3.710   4.174  0.1100 -0.1569 -0.0707
   47U     H5'1 1088  10.465   3.770   4.087  1.4169 -1.7874 -1.6571
   47U     H5'2 1089  10.503   3.783   4.255 -1.0477 -0.1782  0.1175
   47U      C4' 1090  10.374   3.618   4.203 -0.3552 -0.0360  0.2187
   47U      H4' 1091  10.295   3.687   4.231  0.4609  1.0942 -0.1895
   47U      O4' 1092  10.341   3.546   4.083 -0.1968 -0.2251 -0.0400
   47U      C1' 1093  10.328   3.409   4.116 -0.1384 -0.1898 -0.5581
   47U      H1' 1094  10.221   3.392   4.128 -0.1797 -0.0822 -0.7695
   47U       N1 1095  10.375   3.327   4.006 -0.4838  0.4210 -0.7966
   47U       C6 1096  10.507   3.332   3.965  0.6258 -0.6294 -0.0022
   47U       H6 1097  10.573   3.411   3.998 -2.1305  1.0266  1.9502
   47U       C5 1098  10.562   3.242   3.884 -0.4846 -0.1228  0.0037
   47U       H5 1099  10.663   3.251   3.847 -0.2391 -2.2956  0.0039
   47U       C4 1100  10.480   3.126   3.839 -0.2985  0.3613 -0.0649
   47U       O4 1101  10.521   3.041   3.763  0.0071 -0.1107  0.6127
   47U       N3 1102  10.352   3.114   3.895 -0.3695 -0.7317  0.4495
   47U       H3 1103  10.303   3.025   3.892 -1.0693 -0.3664  0.7867
   47U       C2 1104  10.293   3.215   3.970  0.3303 -0.3491  0.2831
   47U       O2 1105  10.173   3.216   3.985 -0.1845  0.4408 -0.1414
   47U      C3' 1106  10.400   3.516   4.318  0.2244  0.0835 -0.8869
   47U      H3' 1107  10.495   3.537   4.368 -0.7160  0.6315  0.7565
   47U      C2' 1108  10.412   3.391   4.245  0.2067 -0.5418  0.5552
   47U     H2'1 1109  10.517   3.384   4.217  0.5748  0.1373  1.6898
   47U      O2' 1110  10.366   3.277   4.317 -0.7560 -0.1830  0.2376
   47U     HO'2 1111  10.337   3.300   4.406  1.3121  0.7515  0.7260
   47U      O3' 1112  10.289   3.522   4.405  0.4139  0.1476  0.3263
   48U        P 1113  10.305   3.521   4.558  0.1901  0.0668 -0.0585
   48U      O1P 1114  10.186   3.581   4.620 -0.0971 -0.0657 -0.1468
   48U      O2P 1115  10.437   3.581   4.599 -0.0583  0.2280  1.1496
   48U      O5' 1116  10.317   3.365   4.582 -0.0666  0.0194 -0.4884
   48U      C5' 1117  10.332   3.308   4.711  0.8523 -0.2444 -0.5618
   48U     H5'1 1118  10.241   3.331   4.767 -0.0061  0.8274 -2.3070
   48U     H5'2 1119  10.416   3.354   4.764 -1.0469  0.4022  2.1320
   48U      C4' 1120  10.343   3.154   4.717 -0.4007 -0.0026 -0.6525
   48U      H4' 1121  10.384   3.136   4.817 -1.7886 -1.2141 -0.2728
   48U      O4' 1122  10.213   3.101   4.720  0.4263  0.0370  0.2689
   48U      C1' 1123  10.199   3.018   4.612 -0.4437  0.0188  0.2829
   48U      H1' 1124  10.142   2.931   4.646 -1.1031  0.0896 -0.6210
   48U       N1 1125  10.137   3.084   4.496  0.5786 -0.1577  0.2514
   48U       C6 1126  10.087   3.212   4.522  0.2340 -0.2406  0.6077
   48U       H6 1127  10.074   3.245   4.625 -2.0423  1.5436 -0.1655
   48U       C5 1128  10.028   3.281   4.417  0.0511  0.0565  0.6320
   48U       H5 1129   9.986   3.378   4.437  2.1232  1.3712 -0.8874
   48U       C4 1130  10.025   3.231   4.284 -0.7137 -0.5961 -0.8661
   48U       O4 1131   9.977   3.291   4.191 -0.2201  0.0746 -0.3569
   48U       N3 1132  10.078   3.105   4.268 -0.1471 -0.1567 -0.3797
   48U       H3 1133  10.078   3.061   4.177 -1.7765 -2.7229  0.7619
   48U       C2 1134  10.115   3.027   4.371  0.3294  0.2956 -1.0572
   48U       O2 1135  10.108   2.904   4.355  0.1411 -0.1443  0.2504
   48U      C3' 1136  10.434   3.078   4.623  0.5877  0.4119  0.3430
   48U      H3' 1137  10.455   3.144   4.539 -0.3898  3.1586  2.1197
   48U      C2' 1138  10.343   2.964   4.588  0.2812 -0.1258 -0.0012
   48U     H2'1 1139  10.356   2.941   4.482  2.7524  0.4552  0.1271
   48U      O2' 1140  10.361   2.848   4.668 -0.0561 -0.6288  0.5632
   48U     HO'2 1141  10.455   2.829   4.672  0.5171  1.7604 -0.2049
   48U      O3' 1142  10.561   3.031   4.682  0.2643  0.1719 -0.5255
   49U        P 1143  10.675   2.951   4.598  0.1740 -0.1934 -0.2369
   49U      O1P 1144  10.802   2.965   4.673  0.5196 -0.0657 -0.2134
   49U      O2P 1145  10.666   2.998   4.457 -0.2898 -0.2274  0.2375
   49U      O5' 1146  10.628   2.793   4.611 -0.0992 -0.7205  0.3306
   49U      C5' 1147  10.726   2.683   4.596 -0.3941  0.2974 -0.0980
   49U     H5'1 1148  10.811   2.696   4.663  0.6889 -0.5876 -1.2456
   49U     H5'2 1149  10.769   2.676   4.496  1.5600  0.1714  0.7111
   49U      C4' 1150  10.681   2.541   4.634  0.6080 -0.5591  0.0365
   49U      H4' 1151  10.762   2.477   4.601  0.7264 -0.0265 -0.7481
   49U      O4' 1152  10.655   2.530   4.771 -0.5077  0.5699 -0.4274
   49U      C1' 1153  10.537   2.452   4.791  0.5280 -0.5131 -0.1240
   49U      H1' 1154  10.564   2.347   4.780  1.6662 -0.2869  0.3640
   49U       N1 1155  10.475   2.469   4.924  0.0071 -0.1873  0.7138
   49U       C6 1156  10.476   2.587   4.986 -0.0444 -0.2162 -0.7691
   49U       H6 1157  10.530   2.668   4.938  1.9757 -1.2180 -0.2925
   49U       C5 1158  10.408   2.609   5.102  0.0019  0.3720 -0.2152
   49U       H5 1159  10.405   2.705   5.151  0.5842  0.7666 -0.9195
   49U       C4 1160  10.333   2.505   5.164  0.2861  1.0215  0.3366
   49U       O4 1161  10.274   2.519   5.271  0.0224 -0.0696 -0.1864
   49U       N3 1162  10.333   2.385   5.095 -0.5553 -0.0750  0.3291
   49U       H3 1163  10.299   2.307   5.149 -1.3555  0.9286  1.3271
   49U       C2 1164  10.404   2.365   4.977 -0.0427  0.4861 -0.2033
   49U       O2 1165  10.404   2.249   4.929  0.4071 -0.0498 -0.5052
   49U      C3' 1166  10.555   2.504   4.557  0.1256 -0.2844 -0.2066
   49U      H3' 1167  10.535   2.590   4.494  2.3758  1.8666  1.7876
   49U      C2' 1168  10.457   2.487   4.674 -0.2887 -0.2260 -0.6838
   49U     H2'1 1169  10.421   2.586   4.701 -0.1642 -0.7041  1.4332
   49U      O2' 1170  10.346   2.404   4.652  0.2135 -0.0550 -0.2513
   49U     HO'2 1171  10.385   2.324   4.617  0.9525  1.0115 -2.0461
   49U      O3' 1172  10.572   2.382   4.491  0.3499  0.8023  0.5584
   50C        P 1173  10.634   2.376   4.348  0.3163 -0.3479 -0.0675
   50C      O1P 1174  10.684   2.238   4.329 -0.6436 -0.2264  0.2250
   50C      O2P 1175  10.734   2.482   4.340 -1.1329 -0.1122  0.0518
   50C      O5' 1176  10.517   2.398   4.244 -0.6662 -0.0467 -0.3933
   50C      C5' 1177  10.433   2.298   4.211  0.0131  0.2683  0.2478
   50C     H5'1 1178  10.398   2.249   4.301  1.4038  0.1594  0.7489
   50C     H5'2 1179  10.490   2.229   4.149 -0.2599  0.7881 -0.6055
   50C      C4' 1180  10.316   2.352   4.132 -0.0619 -0.5178  0.0889
   50C      H4' 1181  10.252   2.272   4.094  0.6482 -1.2877  0.4629
   50C      O4' 1182  10.241   2.440   4.213 -0.6706 -0.2245  0.4403
   50C      C1' 1183  10.193   2.553   4.134  0.1030 -0.9072  0.9586
   50C      H1' 1184  10.087   2.578   4.137  0.3381  1.2908 -2.6590
   50C       N1 1185  10.269   2.676   4.171  0.5512 -0.4131 -0.6305
   50C       C6 1186  10.364   2.674   4.276  0.6666  0.0967 -0.2307
   50C       H6 1187  10.370   2.587   4.339 -0.2835 -0.6772 -1.1797
   50C       C5 1188  10.436   2.784   4.297  0.1066 -0.3169 -0.3624
   50C       H5 1189  10.514   2.789   4.370 -0.9647  1.5348  0.7489
   50C       C4 1190  10.421   2.901   4.209 -0.5250 -0.4246 -0.3396
   50C       N4 1191  10.486   3.017   4.234  0.0266  0.1144  0.4005
   50C      H41 1192  10.549   3.012   4.313  0.4491  0.3783  0.0845
   50C      H42 1193  10.435   3.101   4.211 -1.3460 -0.6233  0.6170
   50C       N3 1194  10.325   2.906   4.123  0.3798 -0.1024 -0.0899
   50C       C2 1195  10.244   2.800   4.102 -0.1035  0.4370  0.0427
   50C       O2 1196  10.158   2.802   4.010 -0.3184 -0.3990 -0.1598
   50C      C3' 1197  10.350   2.434   4.005  0.4484 -0.3796 -0.3694
   50C      H3' 1198  10.430   2.502   4.031  1.1965 -1.0913 -0.7503
   50C      C2' 1199  10.220   2.512   3.988  0.4792  0.7220  0.5598
   50C     H2'1 1200  10.239   2.594   3.920  3.5082 -0.2968  0.0025
   50C      O2' 1201  10.110   2.436   3.948  0.0310 -0.8824 -0.3391
   50C     HO'2 1202  10.123   2.407   3.858  1.8112  1.7969 -1.0457
   50C      O3' 1203  10.387   2.349   3.892  0.1095 -0.0302 -0.4086
   51U        P 1204  10.414   2.402   3.751  0.1688 -0.1695 -0.2426
   51U      O1P 1205  10.518   2.320   3.692  0.0394  0.2192 -0.4264
   51U      O2P 1206  10.444   2.547   3.755 -0.5532  0.1227 -0.1171
   51U      O5' 1207  10.277   2.372   3.679  0.1514  0.3463 -0.4206
   51U      C5' 1208  10.229   2.239   3.660  0.5020  0.3020 -0.3006
   51U     H5'1 1209  10.221   2.184   3.754  1.9870  1.4949  0.5615
   51U     H5'2 1210  10.288   2.174   3.595  1.0112  1.5479 -1.1174
   51U      C4' 1211  10.083   2.256   3.603 -0.3393  0.3801  0.2500
   51U      H4' 1212  10.047   2.160   3.567  0.4628  0.9267 -2.2182
   51U      O4' 1213  10.002   2.319   3.699 -0.5286  0.1890 -0.0303
   51U      C1' 1214   9.896   2.390   3.627 -0.2934  0.1906 -0.0665
   51U      H1' 1215   9.803   2.339   3.651  0.1819 -0.5257  0.2795
   51U       N1 1216   9.887   2.535   3.664  0.0139 -0.1317 -0.1884
   51U       C6 1217  10.002   2.609   3.683  1.1658 -0.6622 -0.3888
   51U       H6 1218  10.100   2.565   3.666  2.2584  1.7917 -0.8476
   51U       C5 1219   9.996   2.742   3.699 -0.8916 -0.1805  0.2854
   51U       H5 1220  10.088   2.799   3.703 -1.3662  0.8195 -1.9065
   51U       C4 1221   9.873   2.806   3.705  0.4400  0.3223 -0.2141
   51U       O4 1222   9.857   2.925   3.714  0.0635  0.2212 -0.3066
   51U       N3 1223   9.763   2.724   3.692  0.2379 -0.8312  0.2653
   51U       H3 1224   9.678   2.765   3.728  1.3056  0.6903  1.2302
   51U       C2 1225   9.763   2.590   3.681  0.4350 -0.6904 -0.1801
   51U       O2 1226   9.654   2.536   3.702 -0.0401 -0.4401  0.1321
   51U      C3' 1227  10.076   2.339   3.480 -0.9749  0.3173 -0.0947
   51U      H3' 1228  10.137   2.429   3.484  0.3559 -0.4171 -2.0923
   51U      C2' 1229   9.923   2.368   3.480 -0.5282 -0.4442 -0.2723
   51U     H2'1 1230   9.907   2.457   3.418 -1.2902 -0.5039 -0.1730
   51U      O2' 1231   9.846   2.263   3.424  0.4249  0.1044 -0.2523
   51U     HO'2 1232   9.902   2.209   3.367  1.1630 -2.2396  2.3896
   51U      O3' 1233  10.103   2.255   3.364 -0.0973 -0.1724 -0.4986
   52A        P 1234  10.159   2.317   3.227 -0.2691  0.5743 -0.2764
   52A      O1P 1235  10.147   2.213   3.120 -0.1071 -0.4537  0.5373
   52A      O2P 1236  10.284   2.387   3.251  0.7641 -0.4367 -0.9184
   52A      O5' 1237  10.058   2.436   3.183  0.1103 -0.1411  0.2546
   52A      C5' 1238   9.929   2.417   3.131  0.1321  0.3052  0.9316
   52A     H5'1 1239   9.881   2.340   3.192 -1.6076  0.3972 -0.2429
   52A     H5'2 1240   9.943   2.371   3.034  2.2207  0.8601  0.9331
   52A      C4' 1241   9.849   2.546   3.125  0.0441 -0.9363  0.1587
   52A      H4' 1242   9.755   2.528   3.074  2.5027 -3.0863 -4.2660
   52A      O4' 1243   9.839   2.604   3.257 -0.0968 -0.3295  0.4256
   52A      C1' 1244   9.847   2.747   3.239  0.1961 -0.7155  0.7135
   52A      H1' 1245   9.770   2.800   3.295  0.7319  1.0684 -0.1615
   52A       N9 1246   9.977   2.796   3.297 -0.9161  0.7670 -0.3255
   52A       C8 1247  10.085   2.716   3.340 -0.7808 -0.3979 -0.3692
   52A       H8 1248  10.094   2.611   3.314  1.3126 -0.6080  0.9881
   52A       N7 1249  10.165   2.780   3.421  0.4586  0.0049 -0.9793
   52A       C5 1250  10.101   2.904   3.442 -0.7422 -0.5391  0.6125
   52A       C6 1251  10.138   3.028   3.499  0.7472 -0.3371 -0.5223
   52A       N6 1252  10.249   3.051   3.565  0.0628  0.3552 -0.5750
   52A      H61 1253  10.317   2.979   3.550 -0.5355 -0.3535  0.0260
   52A      H62 1254  10.269   3.144   3.600  0.2039  0.8786 -1.9812
   52A       N1 1255  10.054   3.136   3.489  0.1744  0.4807 -0.1197
   52A       C2 1256   9.938   3.119   3.424 -0.6880 -0.2624 -0.0650
   52A       H2 1257   9.871   3.204   3.432  0.7271  0.8544  0.4802
   52A       N3 1258   9.892   3.018   3.359 -0.2744 -0.0953 -0.0957
   52A       C4 1259   9.983   2.910   3.370  0.3767  1.0276 -0.8840
   52A      C3' 1260   9.914   2.649   3.038  0.6231 -0.1242  0.2280
   52A      H3' 1261  10.022   2.651   3.049  0.9190 -3.7736 -0.7242
   52A      C2' 1262   9.856   2.785   3.092  0.4543 -0.7678  0.6316
   52A     H2'1 1263   9.927   2.864   3.069  0.4149 -0.2227  2.2440
   52A      O2' 1264   9.728   2.810   3.036 -0.5869 -0.0403 -0.6492
   52A     HO'2 1265   9.695   2.888   3.080 -2.2252 -1.2759  0.4632
   52A      O3' 1266   9.877   2.619   2.902  0.3040 -0.4654  0.4469
   53C        P 1267   9.973   2.661   2.776 -0.2215 -0.2971  0.1451
   53C      O1P 1268   9.914   2.623   2.644 -0.6655 -0.2056  0.1270
   53C      O2P 1269  10.104   2.615   2.811  0.0668 -0.4236 -0.1280
   53C      O5' 1270   9.973   2.824   2.787  0.1692 -0.1931 -0.0322
   53C      C5' 1271   9.849   2.897   2.751  0.2226  0.0076 -0.2397
   53C     H5'1 1272   9.760   2.860   2.801 -0.4691  2.5108  0.4736
   53C     H5'2 1273   9.833   2.887   2.644 -1.7642 -0.7231  0.0921
   53C      C4' 1274   9.869   3.044   2.786 -0.1219 -0.7868 -0.2024
   53C      H4' 1275   9.778   3.094   2.753  0.2679  0.5311  0.6511
   53C      O4' 1276   9.879   3.043   2.930  0.1719  0.5002  0.5746
   53C      C1' 1277   9.974   3.139   2.971 -0.2960 -0.3911  0.7241
   53C      H1' 1278   9.926   3.198   3.049 -0.8363 -0.4035  0.4056
   53C       N1 1279  10.094   3.092   3.048 -0.0024 -0.1988  0.9375
   53C       C6 1280  10.147   2.974   3.017 -0.1368  0.3294 -0.9066
   53C       H6 1281  10.111   2.922   2.929  0.8413 -1.5056 -0.2702
   53C       C5 1282  10.249   2.913   3.083  0.5207 -0.3638 -0.2085
   53C       H5 1283  10.279   2.811   3.062 -0.4451 -0.6451 -0.2446
   53C       C4 1284  10.304   2.980   3.192 -0.6944 -0.2379  0.2065
   53C       N4 1285  10.412   2.944   3.250 -0.0084  0.0688  0.6252
   53C      H41 1286  10.457   2.855   3.232 -2.0695 -0.4513 -2.9169
   53C      H42 1287  10.448   3.020   3.306  1.7241 -1.7864  2.1881
   53C       N3 1288  10.259   3.105   3.223 -0.3799  0.0732  0.4251
   53C       C2 1289  10.156   3.161   3.153  0.4234 -0.2863 -0.9777
   53C       O2 1290  10.110   3.270   3.184  0.0873  0.0560  0.1383
   53C      C3' 1291   9.997   3.113   2.738  0.1557  1.0294 -0.1607
   53C      H3' 1292  10.077   3.040   2.745 -0.4150  0.1677 -1.9875
   53C      C2' 1293  10.025   3.216   2.848  0.4525  0.0064  0.0862
   53C     H2'1 1294  10.125   3.260   2.852 -0.0396  1.4686 -2.0407
   53C      O2' 1295   9.933   3.321   2.831  0.2812 -0.1655 -0.2006
   53C     HO'2 1296   9.923   3.350   2.740 -0.7232  2.5010  0.6643
   53C      O3' 1297   9.988   3.176   2.611  0.4088 -0.1039  0.7354
   54C        P 1298  10.034   3.106   2.475  0.1329 -0.2369 -0.0687
   54C      O1P 1299  10.156   3.036   2.517 -0.3978  0.6046  0.9506
   54C      O2P 1300  10.041   3.212   2.371 -0.1630 -0.2206 -0.2465
   54C      O5' 1301   9.924   2.993   2.438 -0.1435  0.5616 -0.5153
   54C      C5' 1302   9.822   3.018   2.345 -0.2801 -0.0821  0.6817
   54C     H5'1 1303   9.843   2.950   2.262  1.6296 -0.0637  1.1046
   54C     H5'2 1304   9.823   3.120   2.306  0.6578 -0.8876 -1.5755
   54C      C4' 1305   9.679   2.985   2.398  0.2588 -0.3538 -0.5238
   54C      H4' 1306   9.673   2.878   2.418  1.6083 -0.2608  0.5054
   54C      O4' 1307   9.646   3.071   2.513  0.1115 -0.0073 -0.5905
   54C      C1' 1308   9.507   3.102   2.501 -0.5136  0.6009 -0.3883
   54C      H1' 1309   9.455   3.069   2.591 -0.0603  0.9068 -0.0096
   54C       N1 1310   9.484   3.257   2.490  0.1003 -0.4183  0.5603
   54C       C6 1311   9.592   3.333   2.448  0.5509  0.3116  0.2503
   54C       H6 1312   9.681   3.275   2.428  0.0410 -0.3832 -0.0328
   54C       C5 1313   9.582   3.469   2.451  0.3113  0.2693 -0.8008
   54C       H5 1314   9.669   3.531   2.437  0.8670  0.0199  1.2468
   54C       C4 1315   9.461   3.519   2.493 -0.0465  0.2596  0.1740
   54C       N4 1316   9.443   3.648   2.503  0.2773  0.3439  0.0321
   54C      H41 1317   9.506   3.715   2.461  0.1891 -0.2136 -1.0315
   54C      H42 1318   9.369   3.690   2.557 -2.5772 -2.3196 -1.4373
   54C       N3 1319   9.357   3.449   2.528  0.2016 -0.7504  0.1683
   54C       C2 1320   9.363   3.315   2.527 -0.2063  0.7407  0.4492
   54C       O2 1321   9.266   3.253   2.549 -0.3491 -0.2203 -0.3140
   54C      C3' 1322   9.570   3.021   2.300 -0.3688  0.1890  0.0108
   54C      H3' 1323   9.601   3.117   2.257 -0.0978  0.2125  0.2582
   54C      C2' 1324   9.440   3.029   2.386 -0.4424 -0.8231 -0.5362
   54C     H2'1 1325   9.357   3.079   2.338  1.0829  1.5629 -0.8292
   54C      O2' 1326   9.410   2.895   2.424 -0.0310  0.4069  0.4462
   54C     HO'2 1327   9.423   2.831   2.353 -0.1352 -1.8533  2.3699
   54C      O3' 1328   9.551   2.928   2.203 -0.0186 -0.1181 -0.4374
   55A        P 1329   9.466   2.948   2.078  0.4689 -0.0158  0.3369
   55A      O1P 1330   9.475   2.822   1.999  0.2725  0.4301  0.5871
   55A      O2P 1331   9.519   3.069   2.012 -0.1393  0.6201 -0.4087
   55A      O5' 1332   9.321   2.980   2.108  0.6296 -0.2193 -0.6687
   55A      C5' 1333   9.232   2.879   2.154  0.8941  0.2420 -1.1002
   55A     H5'1 1334   9.266   2.840   2.250 -0.5837  2.0374  0.2216
   55A     H5'2 1335   9.220   2.806   2.074 -0.6564  0.9066 -1.5098
   55A      C4' 1336   9.095   2.930   2.193  0.6674 -0.0985  0.1979
   55A      H4' 1337   9.031   2.845   2.218 -0.3720  0.0995 -1.6279
   55A      O4' 1338   9.105   3.024   2.301 -0.0137 -0.2506  0.0100
   55A      C1' 1339   9.023   3.135   2.279  0.1305  0.0260  0.1499
   55A      H1' 1340   8.954   3.146   2.362 -2.1645 -3.9884 -0.9616
   55A       N9 1341   9.095   3.263   2.262  0.5661  0.3341  0.2682
   55A       C8 1342   9.217   3.288   2.211 -0.1355 -0.0539  0.2528
   55A       H8 1343   9.275   3.204   2.177 -0.3350 -0.6041  1.2512
   55A       N7 1344   9.254   3.411   2.213  0.5665 -0.1030  0.0945
   55A       C5 1345   9.142   3.477   2.271 -0.2120  0.8714 -0.2116
   55A       C6 1346   9.109   3.607   2.318  0.0830  0.4884 -0.0186
   55A       N6 1347   9.185   3.718   2.337 -0.2962  0.5631 -0.3462
   55A      H61 1348   9.284   3.717   2.316  0.0191 -0.5605  1.0467
   55A      H62 1349   9.132   3.801   2.358  0.0834  0.3980  1.3711
   55A       N1 1350   8.989   3.640   2.362  0.5454  0.4546 -0.7697
   55A       C2 1351   8.902   3.537   2.369 -0.0326  0.3441 -0.1733
   55A       H2 1352   8.802   3.562   2.402 -0.5509  1.8280 -2.6305
   55A       N3 1353   8.923   3.407   2.346  0.2101 -0.3722  0.3141
   55A       C4 1354   9.047   3.384   2.300  0.2179 -1.0827 -0.6330
   55A      C3' 1355   9.028   3.005   2.075  0.5960 -0.8060 -0.2244
   55A      H3' 1356   9.100   3.056   2.010  0.4415 -2.5723 -1.8714
   55A      C2' 1357   8.938   3.106   2.153  0.3139 -0.3904  0.2328
   55A     H2'1 1358   8.919   3.200   2.101  0.9562  0.6158  1.7577
   55A      O2' 1359   8.821   3.039   2.193  0.1634 -0.2357  0.3896
   55A     HO'2 1360   8.794   2.974   2.129 -1.2972 -0.2935  1.0251
   55A      O3' 1361   8.951   2.918   1.993 -0.8875  0.0327  0.3524
   56A        P 1362   8.880   2.965   1.857  0.5114  0.3832  0.2247
   56A      O1P 1363   8.799   2.848   1.810  0.0344  0.0465 -0.8699
   56A      O2P 1364   8.983   3.018   1.770 -0.6780  0.1531  0.1423
   56A      O5' 1365   8.778   3.090   1.901 -0.5921  0.4187  0.4322
   56A      C5' 1366   8.639   3.070   1.906  0.0324 -0.9986  0.3697
   56A     H5'1 1367   8.621   2.993   1.981  0.1583 -1.0205  0.3778
   56A     H5'2 1368   8.600   3.025   1.815 -0.6387 -2.2109  1.2246
   56A      C4' 1369   8.567   3.202   1.944  0.1393  0.7718 -0.6243
   56A      H4' 1370   8.461   3.181   1.962  0.2941 -0.0638 -0.6569
   56A      O4' 1371   8.624   3.263   2.059 -0.0922 -0.0914 -0.3213
   56A      C1' 1372   8.619   3.404   2.046 -0.3288  0.3118  0.3623
   56A      H1' 1373   8.560   3.446   2.128 -1.9711 -0.8244 -0.1970
   56A       N9 1374   8.750   3.479   2.037  0.1619  0.0085 -0.4777
   56A       C8 1375   8.871   3.441   1.991 -0.2161  0.7968  0.0301
   56A       H8 1376   8.889   3.340   1.959  1.2111  0.4842  1.6600
   56A       N7 1377   8.965   3.531   1.997 -0.0628  0.2525 -0.2269
   56A       C5 1378   8.896   3.639   2.050  0.2315 -0.2179  0.1714
   56A       C6 1379   8.930   3.768   2.082 -0.2508 -0.3610 -0.5100
   56A       N6 1380   9.044   3.823   2.054 -0.2498  0.1920 -0.1229
   56A      H61 1381   9.116   3.772   2.005 -1.4712 -0.3350 -1.4373
   56A      H62 1382   9.069   3.915   2.086  0.4776 -0.1767  0.3898
   56A       N1 1383   8.850   3.855   2.140  0.2465 -0.3756  0.6306
   56A       C2 1384   8.729   3.812   2.163 -0.1347  0.3549 -0.4915
   56A       H2 1385   8.663   3.884   2.210 -0.2663 -1.1566  1.8144
   56A       N3 1386   8.677   3.690   2.141 -0.6590 -0.5847  0.1026
   56A       C4 1387   8.765   3.609   2.079  0.4435 -0.2748  0.2011
   56A      C3' 1388   8.577   3.306   1.835  0.2690  0.0974  0.2641
   56A      H3' 1389   8.683   3.311   1.811  0.4600 -1.7651  0.5440
   56A      C2' 1390   8.538   3.435   1.921  0.5892  0.5178  0.0122
   56A     H2'1 1391   8.566   3.528   1.871 -1.0075  0.0113 -1.9511
   56A      O2' 1392   8.401   3.446   1.940 -0.2389  0.0803 -0.5028
   56A     HO'2 1393   8.353   3.396   1.875 -0.8404  1.6882 -1.3574
   56A      O3' 1394   8.493   3.283   1.719  0.2845  0.3199 -0.2785
   57G        P 1395   8.533   3.346   1.576 -0.0182  0.2969 -0.4999
   57G      O1P 1396   8.451   3.275   1.481 -0.0815  0.0167  0.3969
   57G      O2P 1397   8.680   3.350   1.550  0.0463  0.4752 -0.2267
   57G      O5' 1398   8.477   3.491   1.584 -0.1461  0.6341 -0.2109
   57G      C5' 1399   8.342   3.517   1.631 -0.0373  0.3899 -0.3792
   57G     H5'1 1400   8.309   3.451   1.711 -0.8425 -0.0893 -1.0871
   57G     H5'2 1401   8.274   3.492   1.550  1.4024  0.5661 -1.6716
   57G      C4' 1402   8.326   3.672   1.656 -0.4133  0.6524  0.1092
   57G      H4' 1403   8.219   3.679   1.672 -0.2635  1.3402  0.8613
   57G      O4' 1404   8.392   3.710   1.777  0.4273  0.0509 -0.2369
   57G      C1' 1405   8.448   3.843   1.764  0.3035  0.1331 -0.7098
   57G      H1' 1406   8.403   3.905   1.842 -0.4145 -1.7024  0.3827
   57G       N9 1407   8.596   3.856   1.767 -0.4101  0.3661  0.4708
   57G       C8 1408   8.688   3.759   1.721 -0.6122 -0.3151  0.0407
   57G       H8 1409   8.668   3.666   1.670 -1.3376  0.3858 -1.0093
   57G       N7 1410   8.814   3.805   1.734 -0.1777 -0.2746  0.4295
   57G       C5 1411   8.805   3.935   1.788  0.1411  0.2628  0.2419
   57G       C6 1412   8.907   4.036   1.817  0.1656  0.9747  0.4489
   57G       O6 1413   9.030   4.014   1.813 -0.0662  0.1650  0.2861
   57G       N1 1414   8.862   4.160   1.843 -0.0163  0.1888 -0.1344
   57G       H1 1415   8.927   4.232   1.872 -1.1555  2.4887 -2.8650
   57G       C2 1416   8.726   4.181   1.853  0.0619  0.0923 -0.1731
   57G       N2 1417   8.691   4.306   1.872  0.3666 -0.0633  0.4523
   57G      H21 1418   8.763   4.372   1.897  0.9689 -1.2640  2.1229
   57G      H22 1419   8.596   4.336   1.856  0.0265 -0.6295  1.3401
   57G       N3 1420   8.629   4.091   1.838 -0.4548  0.7933 -0.1288
   57G       C4 1421   8.672   3.967   1.798  0.2759 -0.6813 -0.1861
   57G      C3' 1422   8.373   3.771   1.544  0.0084 -0.3700 -0.7035
   57G      H3' 1423   8.464   3.722   1.509  0.1261 -0.6167 -0.0670
   57G      C2' 1424   8.399   3.896   1.626  0.0226 -0.0667 -0.0636
   57G     H2'1 1425   8.468   3.962   1.573 -0.3979  0.4549  0.0186
   57G      O2' 1426   8.284   3.974   1.666 -0.9580 -0.8078  0.1805
   57G     HO'2 1427   8.308   4.034   1.737 -2.1719  0.3051 -0.3246
   57G      O3' 1428   8.280   3.803   1.436  0.1289  0.3003 -0.3565
   58A        P 1429   8.332   3.832   1.290  0.0499  0.4641 -0.2059
   58A      O1P 1430   8.221   3.826   1.194 -0.7390  0.4146  0.5280
   58A      O2P 1431   8.451   3.749   1.266  0.0296 -0.2866  0.3487
   58A      O5' 1432   8.390   3.979   1.289 -0.2238  0.4316  0.2188
   58A      C5' 1433   8.301   4.080   1.299 -0.0215  0.3559 -0.4255
   58A     H5'1 1434   8.224   4.065   1.375  0.3943  1.6881  0.3026
   58A     H5'2 1435   8.247   4.088   1.205 -0.7845  0.5008  0.0158
   58A      C4' 1436   8.378   4.208   1.338  0.4653  0.1987  0.0037
   58A      H4' 1437   8.297   4.281   1.345  0.4676  0.2113 -0.0978
   58A      O4' 1438   8.438   4.202   1.465 -0.2818 -0.4214 -0.2657
   58A      C1' 1439   8.561   4.279   1.458  0.5228 -0.1161 -0.4108
   58A      H1' 1440   8.574   4.344   1.544  1.0722  1.8890 -1.9360
   58A       N9 1441   8.680   4.186   1.462  0.0620  0.1760 -0.8410
   58A       C8 1442   8.688   4.053   1.442  0.0450 -0.0849  0.2704
   58A       H8 1443   8.605   3.988   1.418 -1.1088  0.7874  1.7537
   58A       N7 1444   8.805   4.001   1.460  0.2919  0.1953 -0.0982
   58A       C5 1445   8.885   4.117   1.490  0.0992 -0.7376  0.0769
   58A       C6 1446   9.019   4.142   1.514 -0.1202  0.1754  0.2198
   58A       N6 1447   9.116   4.047   1.513  0.1726 -0.8121 -0.7411
   58A      H61 1448   9.093   3.949   1.502 -1.5346 -0.3956 -1.0814
   58A      H62 1449   9.210   4.075   1.539 -0.5289 -0.3646  1.6045
   58A       N1 1450   9.058   4.266   1.546  0.2466 -0.9088  0.5236
   58A       C2 1451   8.973   4.360   1.540  0.5731 -0.0600  0.0477
   58A       H2 1452   9.011   4.458   1.564 -1.7200  0.6242  1.2029
   58A       N3 1453   8.844   4.357   1.506 -0.5366  0.0335  0.4921
   58A       C4 1454   8.808   4.228   1.489  0.3141 -0.1107  0.6302
   58A      C3' 1455   8.484   4.264   1.242 -0.1302  0.1568 -0.3978
   58A      H3' 1456   8.558   4.186   1.223  1.7409  1.8122 -0.2415
   58A      C2' 1457   8.555   4.363   1.332 -0.3762  0.3173 -0.8698
   58A     H2'1 1458   8.656   4.380   1.296  0.2335 -0.9854  0.1471
   58A      O2' 1459   8.476   4.475   1.375 -0.0702 -0.2571 -0.5613
   58A     HO'2 1460   8.512   4.506   1.458  1.0861 -1.9149 -0.3933
   58A      O3' 1461   8.416   4.301   1.121 -0.1156  0.1308 -0.1303
   59G        P 1462   8.497   4.306   0.978  0.3335  0.0096 -0.0086
   59G      O1P 1463   8.398   4.322   0.876 -0.5890  0.4165 -0.0237
   59G      O2P 1464   8.582   4.187   0.977  0.0152 -0.2233  0.0965
   59G      O5' 1465   8.589   4.430   0.981  0.1309  0.0878 -0.1987
   59G      C5' 1466   8.539   4.565   0.987 -0.1217  0.3361 -0.1188
   59G     H5'1 1467   8.467   4.574   1.068 -0.1141  2.8546 -0.3148
   59G     H5'2 1468   8.486   4.589   0.895 -0.4486 -2.2117 -0.6868
   59G      C4' 1469   8.662   4.651   1.030  0.4809 -0.5085 -0.1256
   59G      H4' 1470   8.632   4.753   1.054 -1.9290 -0.5803 -2.3215
   59G      O4' 1471   8.717   4.600   1.150 -0.1161  0.7141  0.0538
   59G      C1' 1472   8.857   4.597   1.141 -0.3850 -0.0226 -0.0756
   59G      H1' 1473   8.903   4.653   1.222  2.0934  0.6728 -1.8381
   59G       N9 1474   8.910   4.459   1.152  0.8393  0.0899 -0.2482
   59G       C8 1475   8.856   4.340   1.129 -0.6333 -0.0274 -0.9793
   59G       H8 1476   8.752   4.321   1.110 -0.4429  0.7243 -3.0087
   59G       N7 1477   8.931   4.233   1.157 -0.6266 -1.0653  0.1170
   59G       C5 1478   9.052   4.296   1.189 -0.3717  0.2605  0.0903
   59G       C6 1479   9.182   4.240   1.217 -0.1362 -0.9048  0.4215
   59G       O6 1480   9.213   4.124   1.219  0.4521  0.2297 -0.5114
   59G       N1 1481   9.279   4.336   1.234  0.4919 -0.0649 -0.0333
   59G       H1 1482   9.378   4.319   1.238  1.0833  2.5789 -1.0168
   59G       C2 1483   9.251   4.473   1.233  0.2036 -0.4882  0.4189
   59G       N2 1484   9.350   4.560   1.251 -0.4683  0.0631 -0.1282
   59G      H21 1485   9.444   4.523   1.256 -0.1265  0.7042 -1.2965
   59G      H22 1486   9.327   4.658   1.246  1.0213  0.3909 -1.8691
   59G       N3 1487   9.127   4.522   1.214  0.0360 -0.1338 -0.1140
   59G       C4 1488   9.033   4.427   1.187 -0.2379 -0.7034  0.2985
   59G      C3' 1489   8.773   4.648   0.921 -0.4538  0.2145  0.1144
   59G      H3' 1490   8.790   4.550   0.876  3.9329 -0.0567  1.8198
   59G      C2' 1491   8.899   4.665   1.011  0.6634 -0.7473 -0.2607
   59G     H2'1 1492   8.991   4.620   0.974  1.7805  0.8146  0.4917
   59G      O2' 1493   8.917   4.798   1.056 -0.1157  0.0730  0.1511
   59G     HO'2 1494   8.878   4.855   0.989  0.7777 -0.5246 -0.9124
   59G      O3' 1495   8.773   4.754   0.832  0.1630  0.3066  0.5080
   60C        P 1496   8.836   4.731   0.687 -0.1430  0.4484  0.0582
   60C      O1P 1497   8.833   4.863   0.621  0.1417 -0.2125  0.0813
   60C      O2P 1498   8.784   4.613   0.616 -0.3571  0.1665 -0.2788
   60C      O5' 1499   8.991   4.705   0.711  0.0697  0.4133  0.1871
   60C      C5' 1500   9.092   4.800   0.751  0.3161  0.7728 -0.4238
   60C     H5'1 1501   9.067   4.863   0.836  1.8627 -1.9928  2.2746
   60C     H5'2 1502   9.123   4.858   0.664  0.6401 -1.3094 -1.7751
   60C      C4' 1503   9.215   4.719   0.785 -0.1928  0.5454  0.4124
   60C      H4' 1504   9.302   4.779   0.810  0.9431 -0.2353 -1.4437
   60C      O4' 1505   9.200   4.619   0.888 -0.1453 -0.0112  0.0506
   60C      C1' 1506   9.286   4.506   0.857 -0.0679  0.7352  0.8362
   60C      H1' 1507   9.359   4.488   0.936  0.4019  0.3837  0.3273
   60C       N1 1508   9.202   4.387   0.860  0.7409 -0.0572  0.3160
   60C       C6 1509   9.073   4.393   0.825 -0.3061 -0.1345  0.6965
   60C       H6 1510   9.033   4.484   0.781 -1.3206  0.1283  2.0900
   60C       C5 1511   8.990   4.283   0.821  0.0825 -0.7378 -0.2675
   60C       H5 1512   8.891   4.285   0.780  0.6779  0.3334 -1.7462
   60C       C4 1513   9.051   4.165   0.867 -0.0126  0.5411 -0.1282
   60C       N4 1514   8.982   4.056   0.863  0.0769 -0.0045 -0.2542
   60C      H41 1515   8.886   4.047   0.836  0.3484  1.7979 -2.0627
   60C      H42 1516   9.035   3.973   0.885 -0.2653 -0.4701 -1.1232
   60C       N3 1517   9.179   4.151   0.901  0.5531  1.0318  0.6009
   60C       C2 1518   9.258   4.265   0.899  0.1957 -0.0671  0.1278
   60C       O2 1519   9.376   4.260   0.933 -0.1385 -0.2805 -0.9651
   60C      C3' 1520   9.270   4.646   0.658  0.0373  0.2001 -0.1813
   60C      H3' 1521   9.193   4.581   0.617  0.3855 -0.3905  0.0961
   60C      C2' 1522   9.363   4.539   0.727  0.6168 -0.8979  0.1676
   60C     H2'1 1523   9.367   4.449   0.666 -0.0135 -0.7475 -0.1056
   60C      O2' 1524   9.494   4.592   0.749 -0.0053 -0.0523  0.0787
   60C     HO'2 1525   9.549   4.528   0.796  1.8393  0.8406 -0.7763
   60C      O3' 1526   9.340   4.734   0.573  0.4576 -0.1016  0.2589
   61C        P 1527   9.369   4.701   0.418  0.2198 -0.0572  0.1565
   61C      O1P 1528   9.413   4.825   0.350  0.1857  0.3229  0.4052
   61C      O2P 1529   9.244   4.638   0.375  0.2575  0.2271  0.4130
   61C      O5' 1530   9.486   4.596   0.411  0.1763 -0.2046 -0.2660
   61C      C5' 1531   9.616   4.629   0.454 -0.4247  0.5513  0.3091
   61C     H5'1 1532   9.610   4.683   0.549  0.7254  2.4844 -0.6589
   61C     H5'2 1533   9.651   4.696   0.376  0.2335  0.2269  0.3242
   61C      C4' 1534   9.704   4.514   0.453  0.2005 -0.1941 -0.3013
   61C      H4' 1535   9.801   4.543   0.494  0.5558  2.0709 -2.4889
   61C      O4' 1536   9.638   4.416   0.540 -0.9969 -0.6454  0.1346
   61C      C1' 1537   9.626   4.285   0.478  0.1255  0.3434 -0.1521
   61C      H1' 1538   9.701   4.216   0.518  0.8375  0.7235 -0.7950
   61C       N1 1539   9.492   4.228   0.495  1.0333  0.3076  0.2634
   61C       C6 1540   9.380   4.293   0.464  0.2091 -0.3756  0.2835
   61C       H6 1541   9.377   4.386   0.409 -2.2383 -0.8968 -0.5691
   61C       C5 1542   9.258   4.233   0.497 -0.5311  0.2488 -0.1129
   61C       H5 1543   9.168   4.285   0.469 -1.3943 -1.3523 -0.4151
   61C       C4 1544   9.255   4.111   0.563  0.0243 -0.2638  0.0261
   61C       N4 1545   9.138   4.056   0.585 -0.0040 -0.2565 -0.3988
   61C      H41 1546   9.052   4.101   0.556 -1.0663 -0.7458  1.7368
   61C      H42 1547   9.134   3.961   0.618 -0.6386 -0.6670 -1.6222
   61C       N3 1548   9.366   4.050   0.585 -0.1105  0.1587  0.6052
   61C       C2 1549   9.485   4.103   0.556  0.8807  0.2030  0.0525
   61C       O2 1550   9.581   4.032   0.578  0.6338  0.1759 -0.3785
   61C      C3' 1551   9.725   4.447   0.320  0.4310 -0.9383  0.3645
   61C      H3' 1552   9.667   4.507   0.250 -1.2421 -1.1547  1.4980
   61C      C2' 1553   9.663   4.307   0.334  0.6408 -0.3243 -0.0051
   61C     H2'1 1554   9.571   4.300   0.275  0.6081 -1.9682  0.2018
   61C      O2' 1555   9.749   4.208   0.297 -0.2800 -0.6009  0.1640
   61C     HO'2 1556   9.841   4.235   0.307 -0.3373 -0.2666 -0.1935
   61C      O3' 1557   9.857   4.444   0.273  0.0794 -0.8098 -0.1082
   62U        P 1558   9.901   4.549   0.160  0.0342  0.0240 -0.2633
   62U      O1P 1559  10.047   4.555   0.167  0.3926 -0.1530  0.3056
   62U      O2P 1560   9.825   4.677   0.180  0.2039 -0.8062  0.2841
   62U      O5' 1561   9.849   4.492   0.020 -0.0748 -0.2180 -0.2712
   62U      C5' 1562   9.896   4.369  -0.026 -0.9040  0.2932  0.2948
   62U     H5'1 1563   9.888   4.294   0.052 -1.2346  0.5151  0.4754
   62U     H5'2 1564  10.002   4.394  -0.039 -0.8870  0.2026  0.2544
   62U      C4' 1565   9.820   4.316  -0.145 -0.1156 -0.2329 -0.1327
   62U      H4' 1566   9.867   4.223  -0.177 -0.1054 -0.2801  0.0188
   62U      O4' 1567   9.688   4.274  -0.113 -0.6506 -0.3473 -0.3962
   62U      C1' 1568   9.595   4.341  -0.201 -0.3220  0.2590 -0.8033
   62U      H1' 1569   9.562   4.265  -0.272  0.7332 -1.1183  0.1394
   62U       N1 1570   9.481   4.391  -0.117  0.3947  0.7204  0.4655
   62U       C6 1571   9.498   4.464  -0.002 -0.1083 -0.6376  0.6006
   62U       H6 1572   9.601   4.478   0.028 -0.2843  2.4381  0.1252
   62U       C5 1573   9.400   4.529   0.065 -0.4094  0.4727  0.1706
   62U       H5 1574   9.420   4.582   0.156  0.4303 -0.3426  0.4732
   62U       C4 1575   9.266   4.528   0.015 -0.3738  0.6831 -0.0260
   62U       O4 1576   9.179   4.588   0.064  0.9283 -0.5733 -0.0622
   62U       N3 1577   9.251   4.441  -0.090  0.1466  0.8905 -0.2304
   62U       H3 1578   9.159   4.427  -0.130 -0.3047  1.7631  0.4471
   62U       C2 1579   9.354   4.373  -0.167  0.1962 -0.5029 -0.4747
   62U       O2 1580   9.324   4.313  -0.275  0.0023  0.1000 -0.6061
   62U      C3' 1581   9.819   4.412  -0.267  0.4298  0.6692 -0.3186
   62U      H3' 1582   9.874   4.502  -0.243 -0.7202  0.8012  2.1753
   62U      C2' 1583   9.672   4.455  -0.275  0.3299  0.2594 -0.3913
   62U     H2'1 1584   9.649   4.552  -0.231 -2.5387 -0.5228  0.0264
   62U      O2' 1585   9.631   4.473  -0.407  0.3569  0.0380  0.3131
   62U     HO'2 1586   9.709   4.510  -0.450  0.3113 -0.3208 -0.0856
   62U      O3' 1587   9.874   4.351  -0.381 -0.3542 -0.2581  0.1956
   63U        P 1588  10.033   4.328  -0.408 -0.4539 -0.2491 -0.0614
   63U      O1P 1589  10.121   4.426  -0.340 -0.4740  0.4812  0.3543
   63U      O2P 1590  10.041   4.319  -0.551 -0.2357  0.1462  0.4624
   63U      O5' 1591  10.051   4.185  -0.339  0.8293  0.7823  0.1089
   63U      C5' 1592  10.146   4.163  -0.232 -1.2190 -0.2150  0.2445
   63U     H5'1 1593  10.136   4.239  -0.154 -2.1114 -1.1493  1.0773
   63U     H5'2 1594  10.247   4.179  -0.269 -1.9552  1.4938 -1.1481
   63U      C4' 1595  10.134   4.023  -0.170  0.3364  0.8851 -0.4919
   63U      H4' 1596  10.216   3.998  -0.103  0.4618 -0.5220 -1.1397
   63U      O4' 1597  10.003   4.009  -0.109  0.4829 -0.9056  0.6076
   63U      C1' 1598   9.944   3.886  -0.152 -0.1762  0.1804  0.2508
   63U      H1' 1599   9.924   3.827  -0.063  1.1791  2.6965  2.3742
   63U       N1 1600   9.815   3.918  -0.225 -0.4360 -0.3063  0.5626
   63U       C6 1601   9.815   3.984  -0.342  0.1081 -1.0411 -0.1763
   63U       H6 1602   9.905   4.001  -0.401 -0.1180 -2.9179 -1.1626
   63U       C5 1603   9.692   4.023  -0.398  0.2540 -0.1931  0.6642
   63U       H5 1604   9.693   4.088  -0.485 -1.5872  1.2543  1.6323
   63U       C4 1605   9.565   3.997  -0.333  0.0881  1.3079 -0.0398
   63U       O4 1606   9.455   4.023  -0.376 -0.0275  0.3223  0.2121
   63U       N3 1607   9.578   3.946  -0.208 -0.2391 -0.3686  0.6312
   63U       H3 1608   9.491   3.912  -0.169  0.1114 -1.3528  0.5759
   63U       C2 1609   9.699   3.901  -0.154  0.1609 -0.1429 -0.4432
   63U       O2 1610   9.694   3.847  -0.042 -0.3125 -0.1607 -1.1931
   63U      C3' 1611  10.144   3.908  -0.281  0.2695  0.5007  0.5651
   63U      H3' 1612  10.104   3.951  -0.373  0.9955 -0.5814 -0.2725
   63U      C2' 1613  10.045   3.807  -0.239 -0.0114 -0.6672 -0.1455
   63U     H2'1 1614   9.987   3.754  -0.314 -1.2824  0.1977  0.2074
   63U      O2' 1615  10.113   3.714  -0.150  0.5696 -0.0404  0.1039
   63U     HO'2 1616  10.193   3.688  -0.196  0.5083 -2.1049  1.0302
   63U      O3' 1617  10.269   3.842  -0.306 -0.3788 -0.6095  0.1680
   64A        P 1618  10.395   3.919  -0.377 -0.1977  0.0848  0.1271
   64A      O1P 1619  10.344   3.993  -0.490 -0.0211 -0.3962  0.7505
   64A      O2P 1620  10.497   3.819  -0.405  0.6353  0.3382 -0.4748
   64A      O5' 1621  10.433   4.018  -0.256 -0.4381  0.0062 -0.0699
   64A      C5' 1622  10.495   3.966  -0.142  0.5634  0.7668 -0.5972
   64A     H5'1 1623  10.595   3.931  -0.167 -0.4972 -0.5841 -3.3880
   64A     H5'2 1624  10.439   3.878  -0.111  2.5934 -0.8348 -1.2658
   64A      C4' 1625  10.512   4.083  -0.039  0.3786  0.3426 -0.3892
   64A      H4' 1626  10.573   4.158  -0.089  0.8301  0.7677  0.7704
   64A      O4' 1627  10.385   4.139   0.016  0.3860 -0.0612  0.2657
   64A      C1' 1628  10.374   4.119   0.156 -0.7435 -0.1941 -0.0068
   64A      H1' 1629  10.412   4.213   0.194 -1.1157 -1.3759  3.7386
   64A       N9 1630  10.235   4.093   0.196  0.3640  0.3262  0.3182
   64A       C8 1631  10.145   4.195   0.224 -0.0378 -0.2574  0.0392
   64A       H8 1632  10.179   4.297   0.239  0.9397 -0.3560 -1.2720
   64A       N7 1633  10.018   4.158   0.226 -0.1824  0.5648 -0.3571
   64A       C5 1634  10.028   4.017   0.208 -0.4672 -0.0845  0.6695
   64A       C6 1635   9.928   3.913   0.203  0.1686 -0.5616  0.6061
   64A       N6 1636   9.798   3.930   0.228 -0.1147  0.1523 -0.2367
   64A      H61 1637   9.766   4.024   0.247 -0.4968 -0.4890  2.7761
   64A      H62 1638   9.742   3.846   0.224  0.5320 -0.4094  1.2627
   64A       N1 1639   9.957   3.788   0.178 -0.1297  0.6391 -0.1835
   64A       C2 1640  10.083   3.762   0.147  0.2121  0.0677 -1.0712
   64A       H2 1641  10.098   3.656   0.131 -0.3150 -0.2200  0.2242
   64A       N3 1642  10.189   3.846   0.143  0.6081  0.4557  0.3227
   64A       C4 1643  10.157   3.977   0.184  0.9242  0.0966  0.5824
   64A      C3' 1644  10.587   4.034   0.080  0.2388  0.6597 -0.3862
   64A      H3' 1645  10.647   3.949   0.050  1.2821 -0.2884  3.7076
   64A      C2' 1646  10.478   4.003   0.177  0.6600  0.3957  0.0016
   64A     H2'1 1647  10.429   3.911   0.144  1.6887 -0.4620  0.8027
   64A      O2' 1648  10.519   3.973   0.315  0.3923  0.6079 -0.1578
   64A     HO'2 1649  10.565   4.053   0.340  2.0042  0.2554 -1.7553
   64A      O3' 1650  10.676   4.134   0.112 -0.5587  0.9887  0.1226
   65A        P 1651  10.794   4.113   0.216  0.1147  0.4531 -0.4126
   65A      O1P 1652  10.890   4.222   0.188 -0.0581  0.6183  0.1833
   65A      O2P 1653  10.844   3.972   0.206  0.0814 -1.0668 -0.5891
   65A      O5' 1654  10.720   4.139   0.354 -0.6246 -0.3002  0.4667
   65A      C5' 1655  10.695   4.265   0.383  0.3347  0.2501  0.1995
   65A     H5'1 1656  10.634   4.314   0.307 -0.7017 -0.6056  0.4459
   65A     H5'2 1657  10.789   4.318   0.400 -0.0575  0.7101  1.0014
   65A      C4' 1658  10.618   4.259   0.517  0.1480  0.2584 -0.3883
   65A      H4' 1659  10.620   4.352   0.574 -1.0097 -0.7900  1.4543
   65A      O4' 1660  10.484   4.221   0.496  0.2636  0.3075 -0.3793
   65A      C1' 1661  10.454   4.129   0.598 -0.7481  0.0283  0.2863
   65A      H1' 1662  10.439   4.189   0.688  2.0966 -0.8600  1.4622
   65A       N9 1663  10.327   4.057   0.574  0.4681 -0.4974 -0.4939
   65A       C8 1664  10.305   3.924   0.547 -0.3498 -0.0013  0.4416
   65A       H8 1665  10.384   3.851   0.540  0.1240  0.5965 -0.6418
   65A       N7 1666  10.177   3.893   0.521 -0.2971  0.1532  0.2908
   65A       C5 1667  10.109   4.009   0.548  0.6136 -0.5563 -0.1344
   65A       C6 1668   9.971   4.047   0.557  0.0336 -0.4281 -0.0795
   65A       N6 1669   9.864   3.976   0.544  0.0028 -0.7112  0.0447
   65A      H61 1670   9.866   3.876   0.526  2.3281 -0.8029  0.5077
   65A      H62 1671   9.782   4.034   0.550  0.1897 -0.6117  2.4059
   65A       N1 1672   9.943   4.177   0.573 -0.1355  0.2659 -0.7994
   65A       C2 1673  10.041   4.264   0.590  0.0580  0.1669  0.8343
   65A       H2 1674  10.010   4.367   0.600 -2.6535 -0.4174 -0.6664
   65A       N3 1675  10.171   4.242   0.603  0.5379  0.1715  0.2654
   65A       C4 1676  10.199   4.109   0.584  0.2217 -0.6136  1.3434
   65A      C3' 1677  10.667   4.159   0.625 -0.0865  0.4029 -0.7215
   65A      H3' 1678  10.768   4.128   0.599  0.2563 -1.2833  2.1853
   65A      C2' 1679  10.573   4.037   0.624  0.5384 -0.2690  0.3907
   65A     H2'1 1680  10.601   3.970   0.544  0.1078  1.7540 -1.5521
   65A      O2' 1681  10.570   3.958   0.739  0.1031  0.1073 -0.2124
   65A     HO'2 1682  10.600   3.999   0.821  1.2961 -1.6112  0.2537
   65A      O3' 1683  10.672   4.238   0.747  0.4548  0.6804  0.3701
   66A        P 1684  10.763   4.201   0.869  0.0189 -0.1074  0.0482
   66A      O1P 1685  10.774   4.323   0.955  0.0940  0.0048  0.9673
   66A      O2P 1686  10.884   4.144   0.814 -0.4752  0.6794  0.1017
   66A      O5' 1687  10.691   4.080   0.960 -0.0454 -0.0328  0.2606
   66A      C5' 1688  10.590   4.100   1.061 -0.3385 -0.1979  0.2246
   66A     H5'1 1689  10.643   4.146   1.145  2.4453 -0.3861 -1.3279
   66A     H5'2 1690  10.550   4.003   1.090 -0.6819  0.2825  1.4267
   66A      C4' 1691  10.471   4.186   1.017  0.2291 -0.1250 -0.0739
   66A      H4' 1692  10.512   4.284   0.991  1.3135 -0.7392 -0.7404
   66A      O4' 1693  10.400   4.127   0.919  0.5772 -0.2488 -0.8483
   66A      C1' 1694  10.261   4.160   0.932 -0.7931  0.7228  0.1772
   66A      H1' 1695  10.225   4.209   0.841  1.3562 -0.1975 -1.2625
   66A       N9 1696  10.187   4.034   0.942  0.3434 -0.4535 -0.2378
   66A       C8 1697  10.237   3.901   0.934  0.1246  0.3744 -0.0104
   66A       H8 1698  10.342   3.874   0.938  0.4080  1.0140 -2.0621
   66A       N7 1699  10.140   3.816   0.896 -0.0493 -0.0230 -0.7281
   66A       C5 1700  10.024   3.897   0.898  0.4647  0.0433  0.4285
   66A       C6 1701   9.891   3.871   0.871  0.2754  0.2600  0.2182
   66A       N6 1702   9.841   3.761   0.819 -0.0987 -0.2662  0.1658
   66A      H61 1703   9.909   3.690   0.797  1.7508  0.7912  2.0899
   66A      H62 1704   9.758   3.774   0.763  1.0388  0.7723 -1.3824
   66A       N1 1705   9.797   3.966   0.881  0.0870  0.1225  0.1746
   66A       C2 1706   9.842   4.089   0.913  0.3998  0.0062  0.1066
   66A       H2 1707   9.774   4.173   0.912  1.9455  1.4403  2.9439
   66A       N3 1708   9.961   4.132   0.936 -0.1830 -0.0875  0.1236
   66A       C4 1709  10.048   4.025   0.926  0.0750 -0.2891 -0.2656
   66A      C3' 1710  10.379   4.201   1.140 -0.4242 -0.8031  0.9222
   66A      H3' 1711  10.374   4.098   1.174 -1.5404 -1.1055 -0.0828
   66A      C2' 1712  10.251   4.239   1.062 -0.6374  0.0142 -0.6156
   66A     H2'1 1713  10.166   4.204   1.121  0.1625 -1.7296 -0.4543
   66A      O2' 1714  10.233   4.374   1.032 -0.5415 -0.2413 -0.2450
   66A     HO'2 1715  10.212   4.415   1.116  1.4211 -1.1898  0.7748
   66A      O3' 1716  10.413   4.288   1.237  0.6081 -0.7337 -0.2065
   67C        P 1717  10.342   4.284   1.375 -0.1565 -0.1957 -0.1489
   67C      O1P 1718  10.439   4.342   1.477  0.1351  0.3069  0.2221
   67C      O2P 1719  10.275   4.150   1.393  0.6749  0.7027 -0.0569
   67C      O5' 1720  10.218   4.383   1.349  0.3039 -0.2926 -0.0150
   67C      C5' 1721  10.246   4.523   1.351  0.5121 -1.0134 -0.6284
   67C     H5'1 1722  10.311   4.555   1.270 -1.1428 -0.1018 -1.6621
   67C     H5'2 1723  10.279   4.556   1.449 -2.3504 -0.1864  0.1603
   67C      C4' 1724  10.109   4.605   1.342 -0.4952 -0.7377  0.0432
   67C      H4' 1725  10.130   4.707   1.309  1.4175  0.0266  3.1367
   67C      O4' 1726  10.030   4.553   1.232  0.0953 -0.2757  0.4416
   67C      C1' 1727   9.891   4.566   1.268  0.6929 -0.1329 -0.3569
   67C      H1' 1728   9.838   4.618   1.188 -0.7408 -0.2632  0.4743
   67C       N1 1729   9.816   4.436   1.278  0.2391 -1.1191 -0.7222
   67C       C6 1730   9.872   4.317   1.241  0.2712  0.1603  0.5564
   67C       H6 1731   9.980   4.319   1.233  0.2892 -2.2918 -0.5690
   67C       C5 1732   9.791   4.206   1.230 -0.4550  0.6983  1.2222
   67C       H5 1733   9.838   4.112   1.205 -3.3967 -0.8442  0.9709
   67C       C4 1734   9.654   4.224   1.245 -0.1610 -0.5395 -0.3661
   67C       N4 1735   9.576   4.121   1.258 -0.4394  0.4618 -0.8795
   67C      H41 1736   9.616   4.029   1.265 -1.8643 -0.1769 -0.8960
   67C      H42 1737   9.477   4.135   1.267 -0.1334  2.9246 -0.5064
   67C       N3 1738   9.601   4.345   1.276 -0.0309  0.3194 -0.5499
   67C       C2 1739   9.680   4.450   1.286 -0.1537 -0.3256 -0.3147
   67C       O2 1740   9.626   4.557   1.290  0.0130 -0.1087  0.0913
   67C      C3' 1741  10.016   4.594   1.471  0.0747  0.2053  0.5411
   67C      H3' 1742  10.014   4.487   1.493 -0.3084  0.1200  0.1217
   67C      C2' 1743   9.885   4.639   1.410 -0.3030 -0.1176 -0.7307
   67C     H2'1 1744   9.795   4.614   1.465 -0.3435 -0.6937 -1.0533
   67C      O2' 1745   9.891   4.782   1.397  0.2874  0.3194  0.4168
   67C     HO'2 1746   9.806   4.823   1.379  0.8078  1.6563  0.8401
   67C      O3' 1747  10.062   4.665   1.582 -0.6125 -0.5807 -0.3548
   68U        P 1748  10.000   4.649   1.726 -0.4624  0.0683  0.4623
   68U      O1P 1749  10.078   4.741   1.810 -0.3377  0.0488  0.4757
   68U      O2P 1750  10.006   4.501   1.747  0.1317 -0.4944  0.2460
   68U      O5' 1751   9.849   4.689   1.726 -0.1598 -0.0540 -0.2783
   68U      C5' 1752   9.813   4.832   1.725 -0.0254  0.1640 -0.6506
   68U     H5'1 1753   9.872   4.879   1.647  0.5107  0.1335 -0.2777
   68U     H5'2 1754   9.838   4.879   1.821 -1.1020  4.3577 -2.1998
   68U      C4' 1755   9.662   4.850   1.700 -1.2452  0.4914 -0.4380
   68U      H4' 1756   9.640   4.953   1.672 -1.8578  0.4200 -0.2204
   68U      O4' 1757   9.623   4.753   1.601 -0.0199 -0.2233 -0.4988
   68U      C1' 1758   9.488   4.714   1.627 -0.3534 -0.0681 -0.0870
   68U      H1' 1759   9.416   4.751   1.554 -2.4366  0.8653  2.2840
   68U       N1 1760   9.471   4.563   1.623  0.2811 -0.0796  0.3549
   68U       C6 1761   9.575   4.468   1.630 -0.1975 -0.4943  0.3290
   68U       H6 1762   9.672   4.508   1.657  1.0571 -1.7171 -2.0736
   68U       C5 1763   9.560   4.333   1.612  1.2142  0.7632  0.0304
   68U       H5 1764   9.644   4.265   1.618 -0.3217 -1.3182 -1.0608
   68U       C4 1765   9.429   4.281   1.588  0.0665 -0.1840 -0.1541
   68U       O4 1766   9.402   4.164   1.564 -0.1054  0.2560 -0.3535
   68U       N3 1767   9.330   4.375   1.583  0.7282  0.2683 -0.0715
   68U       H3 1768   9.238   4.343   1.555  0.1028  0.7744  1.3174
   68U       C2 1769   9.340   4.511   1.607 -0.1090  0.0961 -0.1583
   68U       O2 1770   9.242   4.581   1.593 -0.0091 -0.0025 -0.0493
   68U      C3' 1771   9.585   4.806   1.821  0.1441  0.1631 -0.2779
   68U      H3' 1772   9.626   4.709   1.850  1.0544  0.5940 -0.0571
   68U      C2' 1773   9.453   4.771   1.762 -0.2560 -0.4919  0.4040
   68U     H2'1 1774   9.416   4.689   1.824 -2.1073  1.3158  1.8377
   68U      O2' 1775   9.368   4.887   1.741  0.0536 -0.0698  1.0600
   68U     HO'2 1776   9.281   4.860   1.712  0.5136 -0.1104 -0.3556
   68U      O3' 1777   9.581   4.910   1.921 -0.1695  0.1955 -0.3769
   69C        P 1778   9.563   4.871   2.075 -0.2723  0.0154 -0.2466
   69C      O1P 1779   9.585   4.994   2.150  0.1294 -0.2913 -0.1752
   69C      O2P 1780   9.657   4.755   2.091  0.7243 -0.3769  0.6339
   69C      O5' 1781   9.410   4.826   2.087 -0.1555 -0.2699 -0.1624
   69C      C5' 1782   9.309   4.933   2.100  0.5170 -0.0548 -0.3084
   69C     H5'1 1783   9.335   5.005   2.022  2.5068 -0.4064 -0.0172
   69C     H5'2 1784   9.319   4.986   2.195 -0.8534  2.0769 -1.2774
   69C      C4' 1785   9.155   4.900   2.063 -0.8250  0.4015  0.1489
   69C      H4' 1786   9.099   4.994   2.061 -0.8428  0.3798 -0.7096
   69C      O4' 1787   9.153   4.840   1.938  0.0622 -0.7526  0.0391
   69C      C1' 1788   9.045   4.738   1.938 -0.3963 -1.2692 -0.2537
   69C      H1' 1789   8.974   4.754   1.857 -2.3558  0.5054  1.7018
   69C       N1 1790   9.093   4.599   1.936 -0.0320 -0.0014  0.5686
   69C       C6 1791   9.227   4.566   1.959  0.7861 -0.7878  0.4876
   69C       H6 1792   9.292   4.649   1.984 -2.7990  1.7837  2.0370
   69C       C5 1793   9.270   4.443   1.940  0.1265  0.2777  0.1767
   69C       H5 1794   9.376   4.427   1.955 -0.1972 -0.5339  1.8537
   69C       C4 1795   9.181   4.343   1.902  0.4913 -0.1315 -0.9971
   69C       N4 1796   9.216   4.222   1.879 -0.4754 -0.1241  0.3670
   69C      H41 1797   9.311   4.201   1.907 -1.3782 -2.7637  1.7362
   69C      H42 1798   9.160   4.156   1.827  1.3396 -1.8033  0.4236
   69C       N3 1799   9.051   4.371   1.882 -0.1246 -0.1077  0.1294
   69C       C2 1800   9.004   4.500   1.902 -1.0935  0.4823  0.1333
   69C       O2 1801   8.882   4.516   1.890  0.7284 -0.1033  1.0228
   69C      C3' 1802   9.088   4.814   2.164  0.1631 -0.2714  0.1078
   69C      H3' 1803   9.156   4.736   2.199  0.0726  1.1724  3.9372
   69C      C2' 1804   8.975   4.761   2.074 -0.3080  0.4115  0.5351
   69C     H2'1 1805   8.925   4.674   2.117 -0.5704  0.0219 -0.5322
   69C      O2' 1806   8.875   4.858   2.066 -0.1762 -0.2058  0.4380
   69C     HO'2 1807   8.841   4.875   2.154 -2.5313 -1.6183 -0.1015
   69C      O3' 1808   9.044   4.892   2.268  0.5377  0.2543  0.0439
   70U        P 1809   8.992   4.831   2.398  0.1242 -0.2144 -0.1988
   70U      O1P 1810   8.948   4.946   2.475  0.0127 -0.1450  0.6986
   70U      O2P 1811   9.096   4.752   2.458 -0.6663  0.0298 -0.5887
   70U      O5' 1812   8.869   4.730   2.367  0.2894  0.2987  0.7633
   70U      C5' 1813   8.729   4.769   2.365 -0.3994 -0.3508  0.0392
   70U     H5'1 1814   8.713   4.841   2.284  0.9669  1.2404  1.1239
   70U     H5'2 1815   8.708   4.818   2.460 -0.2166 -2.6906  1.3643
   70U      C4' 1816   8.633   4.651   2.356 -0.1503  0.0625  0.3019
   70U      H4' 1817   8.532   4.692   2.350  0.0440  0.3795 -1.1191
   70U      O4' 1818   8.647   4.573   2.234  0.3086 -1.0685  0.0398
   70U      C1' 1819   8.645   4.432   2.266  0.0202  0.2823 -0.7218
   70U      H1' 1820   8.573   4.388   2.197 -1.5168  2.3667 -0.5476
   70U       N1 1821   8.772   4.352   2.255 -1.1545  0.1698  0.0828
   70U       C6 1822   8.892   4.403   2.279 -0.8503  0.0229 -0.6600
   70U       H6 1823   8.899   4.503   2.320 -0.9657 -1.2334  2.6972
   70U       C5 1824   9.004   4.325   2.254  0.0487  0.5332 -0.4930
   70U       H5 1825   9.102   4.358   2.285  0.0800 -0.8553  1.0375
   70U       C4 1826   8.999   4.191   2.203  0.7724  0.1266  0.1289
   70U       O4 1827   9.094   4.115   2.180  0.2022 -0.3568  0.0603
   70U       N3 1828   8.873   4.148   2.185  0.4310 -0.5435  0.2370
   70U       H3 1829   8.861   4.054   2.150 -1.1441  0.2224 -1.4863
   70U       C2 1830   8.762   4.221   2.211 -0.2265 -0.2918  0.9182
   70U       O2 1831   8.648   4.172   2.190 -0.0897 -0.0262  1.1126
   70U      C3' 1832   8.638   4.563   2.473 -0.0239 -0.8827 -0.1634
   70U      H3' 1833   8.738   4.550   2.514  2.0785  5.5025 -2.1975
   70U      C2' 1834   8.590   4.427   2.412 -0.8787  0.5075  0.4377
   70U     H2'1 1835   8.627   4.337   2.461  0.1126  0.5602 -0.1908
   70U      O2' 1836   8.448   4.423   2.408  0.1599 -0.5314  0.3298
   70U     HO'2 1837   8.403   4.493   2.456 -0.1924 -0.7708  0.3573
   70U      O3' 1838   8.553   4.609   2.574  0.8010 -0.3421  0.4207
   71U        P 1839   8.582   4.574   2.726 -0.0220  0.1974 -0.3131
   71U      O1P 1840   8.478   4.628   2.812 -0.0692  0.0262 -0.1348
   71U      O2P 1841   8.722   4.618   2.749 -0.3922 -0.0654 -0.1910
   71U      O5' 1842   8.572   4.411   2.740 -0.3274  0.5116  0.0485
   71U      C5' 1843   8.447   4.352   2.738  0.0942  0.3247  0.8730
   71U     H5'1 1844   8.391   4.400   2.658  2.4291 -0.0104 -1.0986
   71U     H5'2 1845   8.404   4.373   2.835  1.4680 -0.7394  1.7505
   71U      C4' 1846   8.455   4.202   2.716  0.0354 -0.3721 -0.0669
   71U      H4' 1847   8.358   4.156   2.730 -0.7789  1.3039  0.0650
   71U      O4' 1848   8.514   4.163   2.589  0.4489 -0.2207  0.4109
   71U      C1' 1849   8.571   4.035   2.615  0.0364  0.2046  0.4417
   71U      H1' 1850   8.509   3.964   2.561  1.3589 -0.8470  0.2461
   71U       N1 1851   8.709   4.024   2.568 -0.7618  0.5601  0.2856
   71U       C6 1852   8.790   4.132   2.575 -0.3996  0.4639 -0.0233
   71U       H6 1853   8.756   4.230   2.608 -0.3491  1.0928 -1.7547
   71U       C5 1854   8.925   4.117   2.540  0.3080 -1.0679 -0.3103
   71U       H5 1855   8.992   4.199   2.558  0.0285 -0.2237 -2.8000
   71U       C4 1856   8.982   3.994   2.490  0.0770 -0.6175  0.5562
   71U       O4 1857   9.101   3.965   2.469  0.2272  0.2351 -0.1067
   71U       N3 1858   8.891   3.891   2.490 -0.1116  0.0346 -0.2447
   71U       H3 1859   8.934   3.802   2.469  0.1889 -0.1210  0.9662
   71U       C2 1860   8.759   3.899   2.530  0.5450 -0.0804  0.7948
   71U       O2 1861   8.688   3.796   2.547 -0.1834  0.3111  0.2560
   71U      C3' 1862   8.549   4.141   2.822  0.4616 -0.3328  0.6596
   71U      H3' 1863   8.645   4.193   2.813  0.2737  0.3583  2.2913
   71U      C2' 1864   8.562   4.002   2.767 -0.4438 -1.2359  0.4290
   71U     H2'1 1865   8.654   3.953   2.799 -0.0451  0.5408  2.2156
   71U      O2' 1866   8.463   3.910   2.783  0.4078  0.2198  0.7548
   71U     HO'2 1867   8.507   3.828   2.806 -1.1957 -0.6925  0.7752
   71U      O3' 1868   8.496   4.149   2.953 -0.0611 -0.4659  0.1630
   72G        P 1869   8.596   4.128   3.076  0.5075  0.6478 -0.0559
   72G      O1P 1870   8.528   4.157   3.203  0.0341  1.3249 -0.4763
   72G      O2P 1871   8.719   4.194   3.053  0.7836 -0.6640 -0.3853
   72G      O5' 1872   8.628   3.966   3.077  0.4552 -0.0195 -0.0464
   72G      C5' 1873   8.530   3.870   3.115  0.4780  0.5196 -0.0803
   72G     H5'1 1874   8.441   3.896   3.058  0.0214 -0.7744  0.0084
   72G     H5'2 1875   8.495   3.883   3.217 -3.7123 -0.3875 -1.2474
   72G      C4' 1876   8.579   3.730   3.086 -0.0142 -0.0106  0.3527
   72G      H4' 1877   8.500   3.660   3.115 -0.4429  0.0770 -0.5476
   72G      O4' 1878   8.615   3.708   2.953  0.1388  0.0599 -0.3270
   72G      C1' 1879   8.735   3.641   2.946 -0.3283 -1.2507 -0.6989
   72G      H1' 1880   8.721   3.560   2.875  1.3366  1.3874 -4.3393
   72G       N9 1881   8.849   3.726   2.907  0.0728  0.3098  0.5760
   72G       C8 1882   8.905   3.842   2.948  0.5122 -0.3258 -0.6278
   72G       H8 1883   8.855   3.911   3.015  0.0967 -2.3608  1.2636
   72G       N7 1884   9.018   3.870   2.880  0.5018  0.7194 -0.1162
   72G       C5 1885   9.045   3.759   2.803 -0.3979  0.2727 -0.8715
   72G       C6 1886   9.155   3.716   2.727  0.5057 -0.1853  1.0897
   72G       O6 1887   9.256   3.776   2.693  0.2230  0.4568 -0.0521
   72G       N1 1888   9.145   3.588   2.676 -0.3357  0.7871 -1.1884
   72G       H1 1889   9.218   3.552   2.617 -0.5289 -0.2271 -0.8270
   72G       C2 1890   9.042   3.509   2.706 -0.0586  0.0992  0.3298
   72G       N2 1891   9.039   3.391   2.654 -0.1818 -0.3201  0.1661
   72G      H21 1892   9.123   3.369   2.603 -0.1872 -0.0694  0.0468
   72G      H22 1893   8.963   3.325   2.659  1.0899 -1.7863  0.9859
   72G       N3 1894   8.933   3.547   2.764 -0.0850  0.1671  0.2342
   72G       C4 1895   8.945   3.672   2.819  0.0848  0.2749 -0.3257
   72G      C3' 1896   8.695   3.693   3.177 -0.2190  0.2581  0.1335
   72G      H3' 1897   8.759   3.780   3.191 -1.0831  1.1266 -1.0865
   72G      C2' 1898   8.756   3.581   3.088  0.1003 -1.0723  0.3503
   72G     H2'1 1899   8.861   3.578   3.120 -0.3486  1.6306  2.4389
   72G      O2' 1900   8.695   3.457   3.092  0.1259 -0.1818  0.1395
   72G     HO'2 1901   8.685   3.429   3.183  0.6473  3.3337  1.4713
   72G      O3' 1902   8.644   3.655   3.302 -0.0917 -0.0893  0.1192
   73A        P 1903   8.750   3.603   3.409  0.0249 -0.2134  0.2738
   73A      O1P 1904   8.689   3.598   3.541  0.8253  0.2718  0.1849
   73A      O2P 1905   8.878   3.678   3.388  0.0614 -0.2338 -0.3481
   73A      O5' 1906   8.770   3.451   3.371  0.1878 -0.5698 -0.4024
   73A      C5' 1907   8.828   3.368   3.468  0.5860  0.2127  0.3980
   73A     H5'1 1908   8.743   3.327   3.522 -2.0274 -1.1752 -4.2247
   73A     H5'2 1909   8.904   3.410   3.534  0.0323 -0.3785  1.4354
   73A      C4' 1910   8.895   3.256   3.387 -0.2048  0.1008 -0.4403
   73A      H4' 1911   8.820   3.197   3.334 -1.4612  1.0503  0.2285
   73A      O4' 1912   8.997   3.275   3.288 -0.5198 -0.5376  0.0380
   73A      C1' 1913   9.086   3.162   3.281  0.1960  0.3286  0.0582
   73A      H1' 1914   9.059   3.100   3.195 -1.6183  0.8904  0.1768
   73A       N9 1915   9.230   3.198   3.277 -0.5018  0.0779 -0.2011
   73A       C8 1916   9.288   3.323   3.298 -0.4148  0.1586 -0.4281
   73A       H8 1917   9.226   3.403   3.334 -0.5508 -0.1322 -0.0069
   73A       N7 1918   9.415   3.323   3.276  0.1029  0.4352  0.0477
   73A       C5 1919   9.440   3.186   3.246  0.0683  0.0740  0.2167
   73A       C6 1920   9.553   3.109   3.196  0.2839 -1.2184 -0.6493
   73A       N6 1921   9.675   3.163   3.178  0.2616  0.6242  0.7733
   73A      H61 1922   9.686   3.256   3.216  0.2403  0.6264  0.7745
   73A      H62 1923   9.749   3.094   3.178  0.3309  0.6855  1.8421
   73A       N1 1924   9.554   2.982   3.171 -0.3791 -0.1685  0.8141
   73A       C2 1925   9.439   2.921   3.185  0.0611  0.0999  0.9204
   73A       H2 1926   9.440   2.817   3.156 -2.0175  1.1251 -3.9087
   73A       N3 1927   9.320   2.974   3.220 -0.2022 -0.5039  0.1908
   73A       C4 1928   9.329   3.110   3.252  0.1756 -0.2551 -0.9492
   73A      C3' 1929   8.967   3.159   3.478  0.4745 -0.0698  0.0433
   73A      H3' 1930   9.030   3.225   3.538  0.8742  1.3975 -1.8890
   73A      C2' 1931   9.059   3.069   3.398 -0.2225 -0.1463  0.4284
   73A     H2'1 1932   9.149   3.049   3.456  0.2872  2.0464  0.4781
   73A      O2' 1933   8.987   2.954   3.337  0.1805 -0.3393  0.4534
   73A     HO'2 1934   8.985   2.881   3.399 -0.1887  1.2914  2.4676
   73A      O3' 1935   8.878   3.093   3.561 -0.2590 -0.1552 -0.5007
   74U        P 1936   8.923   3.066   3.711 -0.4450  0.0996  0.0750
   74U      O1P 1937   8.807   3.014   3.789  0.2866 -0.0270 -0.0851
   74U      O2P 1938   8.995   3.179   3.762  0.1633  0.3109 -0.4247
   74U      O5' 1939   9.023   2.949   3.675 -0.5922 -0.3110 -0.0106
   74U      C5' 1940   8.976   2.816   3.654  0.1666 -0.0096 -0.0287
   74U     H5'1 1941   8.894   2.825   3.583  1.2768  0.8805 -1.2544
   74U     H5'2 1942   8.942   2.774   3.749 -3.3598  1.0671 -0.7112
   74U      C4' 1943   9.085   2.724   3.605  0.3762  0.2493 -0.2387
   74U      H4' 1944   9.040   2.630   3.572 -0.8270  0.8666 -0.4272
   74U      O4' 1945   9.164   2.788   3.501  0.2309  0.1353  0.2693
   74U      C1' 1946   9.301   2.750   3.521  0.2542  0.2062 -0.2549
   74U      H1' 1947   9.327   2.704   3.426 -0.4024 -0.5235 -0.0852
   74U       N1 1948   9.393   2.858   3.537 -0.2510 -0.2736 -0.7350
   74U       C6 1949   9.363   2.971   3.612  0.6683 -0.1908  0.1629
   74U       H6 1950   9.264   2.985   3.651  0.5964  0.4317 -0.2305
   74U       C5 1951   9.452   3.076   3.626 -0.0511  0.6455  0.2661
   74U       H5 1952   9.418   3.168   3.671 -1.5648 -0.6388  1.9347
   74U       C4 1953   9.584   3.062   3.561 -0.4528 -0.0318 -0.4066
   74U       O4 1954   9.675   3.152   3.570  0.5711  0.3602  0.2405
   74U       N3 1955   9.607   2.941   3.500 -0.0713 -0.3364 -0.7387
   74U       H3 1956   9.702   2.934   3.464  0.0659 -0.5497 -0.3358
   74U       C2 1957   9.522   2.835   3.498 -0.1465 -0.2480  0.3620
   74U       O2 1958   9.559   2.729   3.436 -0.2893 -0.1315  0.1490
   74U      C3' 1959   9.182   2.695   3.721 -0.3612 -0.4572  0.0480
   74U      H3' 1960   9.220   2.787   3.765 -1.3664  0.0442 -0.1075
   74U      C2' 1961   9.302   2.652   3.636 -0.1146 -0.7389 -0.8614
   74U     H2'1 1962   9.395   2.653   3.694 -1.9675  0.4675  2.3789
   74U      O2' 1963   9.280   2.525   3.590 -0.3581  0.1557  0.4038
   74U     HO'2 1964   9.306   2.459   3.654  0.3139  0.4097  0.4036
   74U      O3' 1965   9.142   2.599   3.819 -0.7371  0.2616 -0.0952
   75U        P 1966   9.189   2.585   3.968  0.0693 -0.1685 -0.1228
   75U      O1P 1967   9.219   2.444   3.992  0.3615 -0.4414  0.4857
   75U      O2P 1968   9.095   2.656   4.054 -0.1328  0.2594 -0.1382
   75U      O5' 1969   9.325   2.667   3.973 -0.5690  0.4877  0.0338
   75U      C5' 1970   9.448   2.599   3.960  0.4370 -0.2297 -0.2790
   75U     H5'1 1971   9.452   2.560   3.858  0.8217 -0.7070 -0.0888
   75U     H5'2 1972   9.453   2.522   4.037 -2.7829 -0.7872 -0.4743
   75U      C4' 1973   9.570   2.684   3.988  0.4771 -0.2512 -0.4395
   75U      H4' 1974   9.656   2.618   3.997 -0.7543 -1.7588  0.7424
   75U      O4' 1975   9.584   2.798   3.899  0.3035  0.4406 -0.2161
   75U      C1' 1976   9.636   2.916   3.957 -0.1227 -0.4056  0.4140
   75U      H1' 1977   9.728   2.961   3.920  0.7555 -1.1557  1.6071
   75U       N1 1978   9.523   3.021   3.955 -0.1537  0.0165 -0.5203
   75U       C6 1979   9.390   2.992   3.942  0.2631 -0.1432  0.7040
   75U       H6 1980   9.359   2.889   3.933  0.3625 -0.0950 -0.2409
   75U       C5 1981   9.295   3.090   3.928 -0.1485  0.4335 -0.2005
   75U       H5 1982   9.198   3.054   3.897  1.6124 -4.4291 -0.8115
   75U       C4 1983   9.328   3.233   3.939  1.0305  0.3575  0.1841
   75U       O4 1984   9.245   3.322   3.935 -0.1776  0.2108  0.1776
   75U       N3 1985   9.460   3.249   3.959 -0.3668 -0.4092  0.6369
   75U       H3 1986   9.490   3.345   3.960 -0.4532 -0.3423 -1.0356
   75U       C2 1987   9.559   3.156   3.976 -0.7071 -0.4065  0.0813
   75U       O2 1988   9.670   3.192   4.023 -0.0572 -0.5484  0.4271
   75U      C3' 1989   9.559   2.751   4.125 -0.5375  0.1442  0.5226
   75U      H3' 1990   9.462   2.798   4.141  0.1463  2.5692 -1.7114
   75U      C2' 1991   9.660   2.869   4.096  0.8118 -0.1048 -0.2474
   75U     H2'1 1992   9.658   2.944   4.176 -1.5664  0.4375 -0.7224
   75U      O2' 1993   9.796   2.814   4.092 -0.3362 -0.3932  0.2437
   75U     HO'2 1994   9.793   2.747   4.161 -1.0257 -1.8500 -1.1312
   75U      O3' 1995   9.607   2.664   4.231  0.3221 -0.1728 -0.1965
   76A        P 1996   9.561   2.673   4.378 -0.4771  0.2641  0.3230
   76A      O1P 1997   9.632   2.556   4.436  0.0472  0.1213 -0.4050
   76A      O2P 1998   9.415   2.669   4.374  0.0453  0.0151  0.2979
   76A      O5' 1999   9.614   2.805   4.445 -0.0229 -0.5106  0.5607
   76A      C5' 2000   9.748   2.828   4.494  0.2368 -0.6487  0.1310
   76A     H5'1 2001   9.826   2.809   4.420  0.7694  0.2934  0.4322
   76A     H5'2 2002   9.762   2.756   4.574  1.4654 -0.3968  0.1612
   76A      C4' 2003   9.774   2.965   4.561 -0.2973 -0.5376  0.4845
   76A      H4' 2004   9.871   2.964   4.611  0.1370  0.3228 -0.3096
   76A      O4' 2005   9.784   3.070   4.464 -0.2002 -0.0863  0.7243
   76A      C1' 2006   9.717   3.180   4.514  0.3355 -0.2586  0.6608
   76A      H1' 2007   9.792   3.260   4.512  0.6513 -0.4602  2.6638
   76A       N9 2008   9.602   3.213   4.428  0.3097  0.4584 -0.3379
   76A       C8 2009   9.537   3.127   4.344 -0.0402  0.3722  0.0691
   76A       H8 2010   9.561   3.022   4.347 -1.1324  0.1102  2.8739
   76A       N7 2011   9.445   3.187   4.274 -0.6289  0.6882 -0.2136
   76A       C5 2012   9.447   3.319   4.326  0.4105  1.1052  0.7720
   76A       C6 2013   9.361   3.432   4.311 -0.4793  0.5496 -0.7437
   76A       N6 2014   9.254   3.442   4.238 -0.0990  0.0699  0.3558
   76A      H61 2015   9.226   3.366   4.178 -4.1067  0.1687  1.8041
   76A      H62 2016   9.206   3.528   4.217 -0.7854 -0.5317 -0.6093
   76A       N1 2017   9.382   3.541   4.390 -0.1190 -0.2912 -0.3070
   76A       C2 2018   9.491   3.547   4.456 -0.2890  0.5770 -0.3714
   76A       H2 2019   9.498   3.642   4.507 -0.9653 -0.6412  2.1690
   76A       N3 2020   9.583   3.454   4.470 -0.6127 -0.1216 -0.3739
   76A       C4 2021   9.551   3.339   4.407  0.8407 -0.0016  0.2907
   76A      C3' 2022   9.654   3.008   4.653  0.4817 -0.0739  0.7726
   76A      H3' 2023   9.570   2.984   4.588  0.5262 -0.6808  0.9357
   76A      C2' 2024   9.674   3.162   4.664 -0.0626 -0.3583  0.6840
   76A     H2'1 2025   9.582   3.212   4.694 -0.8362 -0.6376 -1.1243
   76A      O2' 2026   9.773   3.184   4.759 -0.1432  0.1062  0.0768
   76A     HO'2 2027   9.742   3.147   4.842 -1.7045  0.1929 -0.4308
   76A      O3' 2028   9.646   2.938   4.773 -0.1423 -0.1981 -0.2968
   77U        P 2029   9.508   2.917   4.843 -0.2008 -0.5943  0.0402
   77U      O1P 2030   9.539   2.861   4.974  0.2717 -0.1110  0.1879
   77U      O2P 2031   9.424   2.844   4.745 -1.0385 -0.7498  0.0630
   77U      O5' 2032   9.450   3.065   4.873  0.0808  0.0166  0.4335
   77U      C5' 2033   9.512   3.154   4.962  0.6257 -0.0764 -0.7151
   77U     H5'1 2034   9.621   3.150   4.950  0.7090 -1.1983  0.2669
   77U     H5'2 2035   9.498   3.123   5.065  1.4072 -0.2491 -0.6515
   77U      C4' 2036   9.459   3.294   4.951  0.1910  0.2817  0.5019
   77U      H4' 2037   9.517   3.356   5.019  0.1754  2.6568 -1.5221
   77U      O4' 2038   9.464   3.353   4.818  0.4762 -0.0413  0.3494
   77U      C1' 2039   9.351   3.437   4.799  0.3710 -0.4161  0.4606
   77U      H1' 2040   9.381   3.541   4.785 -1.4406 -0.2283 -3.3667
   77U       N1 2041   9.266   3.395   4.679  0.1161  0.3623  0.0551
   77U       C6 2042   9.256   3.260   4.642  0.3095  0.2252  0.1533
   77U       H6 2043   9.325   3.189   4.686  1.2558  1.3427  0.5219
   77U       C5 2044   9.159   3.226   4.549  0.1205 -0.9037 -0.4888
   77U       H5 2045   9.158   3.121   4.521 -0.7572 -0.9656 -0.2460
   77U       C4 2046   9.069   3.326   4.485  0.0683 -0.1496 -0.9464
   77U       O4 2047   8.990   3.303   4.395  0.1630  0.0559  0.5674
   77U       N3 2048   9.091   3.452   4.524 -0.5237  0.5302 -0.2088
   77U       H3 2049   9.046   3.521   4.466 -0.9632  1.3613  1.0801
   77U       C2 2050   9.186   3.494   4.615 -0.5681 -0.1586  0.1016
   77U       O2 2051   9.199   3.612   4.631 -0.2428 -0.5620 -0.3811
   77U      C3' 2052   9.318   3.299   4.990  0.5107 -0.5354 -0.6382
   77U      H3' 2053   9.268   3.211   4.948 -0.2992 -1.1234  1.4498
   77U      C2' 2054   9.272   3.432   4.922 -0.5214  0.1396  0.0224
   77U     H2'1 2055   9.166   3.420   4.900 -0.1674 -1.4747 -0.9789
   77U      O2' 2056   9.312   3.545   4.993 -0.5879  0.0397 -0.2124
   77U     HO'2 2057   9.307   3.526   5.087 -1.5630 -0.6819 -0.3832
   77U      O3' 2058   9.302   3.297   5.132 -0.1254  0.0814  0.7894
   78G        P 2059   9.161   3.255   5.189 -0.2550 -0.3407  0.0778
   78G      O1P 2060   9.167   3.251   5.335  0.3388 -0.3481 -0.1746
   78G      O2P 2061   9.115   3.136   5.114 -0.3063 -0.2702 -0.1499
   78G      O5' 2062   9.073   3.379   5.144 -0.0275 -0.5268  0.2852
   78G      C5' 2063   9.072   3.496   5.222 -0.3408 -0.4049 -0.4261
   78G     H5'1 2064   9.170   3.543   5.213 -0.4320  0.0573  0.8290
   78G     H5'2 2065   9.055   3.472   5.327  0.9078  2.1732  0.4615
   78G      C4' 2066   8.971   3.602   5.182  0.5925  0.1121  0.4217
   78G      H4' 2067   8.980   3.680   5.257  0.6418  1.5604 -1.0402
   78G      O4' 2068   9.010   3.645   5.052  0.4237  0.0121  0.1655
   78G      C1' 2069   8.895   3.666   4.969 -0.2536  0.0981  0.6355
   78G      H1' 2070   8.898   3.766   4.926 -0.7835 -0.2352 -0.2128
   78G       N9 2071   8.873   3.566   4.860  0.0767 -0.1733 -0.5142
   78G       C8 2072   8.903   3.432   4.860  0.1726  0.3832  0.3460
   78G       H8 2073   8.961   3.385   4.939 -1.6517 -0.2281  1.3753
   78G       N7 2074   8.852   3.361   4.756 -0.6108 -0.4428 -0.0977
   78G       C5 2075   8.780   3.465   4.692 -0.1189  0.4911  1.0117
   78G       C6 2076   8.696   3.462   4.574 -0.5230  0.8021  0.8063
   78G       O6 2077   8.682   3.371   4.485 -0.6685 -0.1781 -0.6378
   78G       N1 2078   8.618   3.574   4.555 -0.4032 -0.9468  0.4406
   78G       H1 2079   8.573   3.589   4.466 -0.0653  0.8924  0.5502
   78G       C2 2080   8.627   3.679   4.633 -0.1630 -0.0675  0.6221
   78G       N2 2081   8.540   3.768   4.622  0.4630 -0.1388 -0.0295
   78G      H21 2082   8.471   3.770   4.548 -0.0843  0.3811  0.4812
   78G      H22 2083   8.549   3.848   4.684  0.3384  0.9803 -1.4047
   78G       N3 2084   8.708   3.693   4.732 -0.3677  0.3732 -0.3053
   78G       C4 2085   8.778   3.580   4.760  0.6114 -0.6070  0.3823
   78G      C3' 2086   8.830   3.548   5.169 -0.1853 -0.4613 -0.3624
   78G      H3' 2087   8.826   3.448   5.125  2.4314 -0.8254  0.0528
   78G      C2' 2088   8.773   3.651   5.066  0.0140  0.2420 -0.4705
   78G     H2'1 2089   8.689   3.611   5.010  1.8270 -1.2301 -2.2820
   78G      O2' 2090   8.742   3.773   5.121 -0.7921 -0.3305 -0.8014
   78G     HO'2 2091   8.705   3.756   5.208  0.2112 -0.3889 -0.3658
   78G      O3' 2092   8.760   3.554   5.295  0.3223  0.2199 -0.2617
   79A        P 2093   8.612   3.484   5.311 -0.3534 -0.0775 -0.4557
   79A      O1P 2094   8.578   3.494   5.454 -0.6644  0.0296  0.1967
   79A      O2P 2095   8.623   3.353   5.247  0.6044  0.1351  0.2764
   79A      O5' 2096   8.506   3.569   5.229 -0.3366  0.1697  0.3594
   79A      C5' 2097   8.446   3.680   5.280  0.7377 -0.7767  0.2728
   79A     H5'1 2098   8.521   3.757   5.302  0.1303  0.4425 -1.6724
   79A     H5'2 2099   8.387   3.660   5.370 -2.7281 -0.1339 -1.6845
   79A      C4' 2100   8.336   3.740   5.178  0.0839  0.2733  0.1669
   79A      H4' 2101   8.309   3.834   5.225  3.1196  1.6090 -0.5174
   79A      O4' 2102   8.386   3.763   5.043 -0.2516  0.7051  0.1804
   79A      C1' 2103   8.284   3.730   4.957 -0.1906 -0.9519 -0.0015
   79A      H1' 2104   8.264   3.806   4.880  2.6152 -0.9975 -0.8963
   79A       N9 2105   8.319   3.615   4.876 -0.4552 -0.2704  0.6476
   79A       C8 2106   8.423   3.528   4.901  0.1781 -0.0664 -0.8029
   79A       H8 2107   8.481   3.539   4.991 -2.0452  0.9363  0.5833
   79A       N7 2108   8.436   3.432   4.814  0.7227 -0.6284 -0.0874
   79A       C5 2109   8.336   3.464   4.725  0.5428  0.0893  0.1755
   79A       C6 2110   8.301   3.403   4.604 -0.1192 -0.2991 -0.0453
   79A       N6 2111   8.359   3.293   4.559  0.0904  0.0639  0.0780
   79A      H61 2112   8.448   3.259   4.593 -0.0306  0.7528  1.1088
   79A      H62 2113   8.328   3.280   4.464 -1.6175  0.3896  0.5655
   79A       N1 2114   8.200   3.461   4.530  0.0086  0.2414 -0.0526
   79A       C2 2115   8.134   3.562   4.577 -0.0769 -0.0463 -0.3387
   79A       H2 2116   8.044   3.584   4.522  0.0133 -0.3068 -0.5922
   79A       N3 2117   8.153   3.628   4.694 -0.6527  0.2665 -0.2660
   79A       C4 2118   8.261   3.570   4.762 -0.1393 -0.0731  0.1717
   79A      C3' 2119   8.216   3.650   5.161 -1.1566  0.9789  0.0214
   79A      H3' 2120   8.252   3.550   5.137 -2.1865  0.6386 -0.1436
   79A      C2' 2121   8.156   3.708   5.037  0.6507 -0.9175 -0.1964
   79A     H2'1 2122   8.090   3.640   4.983 -0.3009  1.0934 -1.6700
   79A      O2' 2123   8.097   3.837   5.064  0.3719 -0.2523 -0.3669
   79A     HO'2 2124   8.038   3.827   5.139  1.9333 -0.7101  0.8753
   79A      O3' 2125   8.132   3.653   5.276 -0.1219 -0.1968  0.1284
   80A        P 2126   8.041   3.527   5.308 -0.4866 -0.1147  0.0358
   80A      O1P 2127   7.978   3.550   5.440 -0.8211  0.3676 -0.0892
   80A      O2P 2128   8.130   3.409   5.298  0.7177  0.0359  0.2462
   80A      O5' 2129   7.931   3.518   5.188  0.1318  0.1717 -0.0179
   80A      C5' 2130   7.842   3.626   5.168 -0.2686 -0.3256 -1.2264
   80A     H5'1 2131   7.901   3.716   5.185 -0.2620 -0.6754  0.8927
   80A     H5'2 2132   7.762   3.622   5.243  1.9061  0.2603  1.2577
   80A      C4' 2133   7.769   3.623   5.030  0.2707  0.3133  0.5569
   80A      H4' 2134   7.689   3.695   5.016 -0.5246 -0.4411  1.1173
   80A      O4' 2135   7.867   3.629   4.927  0.8862  0.0570  0.2674
   80A      C1' 2136   7.847   3.532   4.828 -0.0177  0.6152 -0.1616
   80A      H1' 2137   7.854   3.569   4.725 -1.3997 -1.2810 -1.0009
   80A       N9 2138   7.938   3.413   4.820 -0.1764  0.4103  0.0117
   80A       C8 2139   8.029   3.359   4.909  0.3804  0.6594  0.0882
   80A       H8 2140   8.042   3.407   5.005 -1.0486  2.8680 -0.7395
   80A       N7 2141   8.085   3.248   4.871 -0.2783 -0.1935 -0.5758
   80A       C5 2142   8.032   3.228   4.744  0.6141 -0.0474 -0.1212
   80A       C6 2143   8.051   3.136   4.646  0.5918  0.1370 -0.0595
   80A       N6 2144   8.140   3.039   4.646 -0.1912 -0.4595 -0.1769
   80A      H61 2145   8.207   3.024   4.721  0.4374  1.2714 -0.3441
   80A      H62 2146   8.158   2.992   4.559  0.4981 -1.3507  0.4275
   80A       N1 2147   7.995   3.154   4.526 -0.3561  0.3901 -0.2323
   80A       C2 2148   7.908   3.251   4.516  0.1535 -0.4471  0.3031
   80A       H2 2149   7.878   3.263   4.413  0.7896 -0.5667  0.0997
   80A       N3 2150   7.869   3.345   4.604 -0.9057  0.5877 -0.1151
   80A       C4 2151   7.938   3.324   4.720 -0.2375 -0.2595  0.7057
   80A      C3' 2152   7.704   3.488   5.001 -0.9541 -0.2292  0.5159
   80A      H3' 2153   7.761   3.404   5.041  1.5161  1.2294  0.2633
   80A      C2' 2154   7.703   3.484   4.850 -0.0591 -0.8404 -0.3309
   80A     H2'1 2155   7.679   3.386   4.809 -1.5309 -0.2559 -0.9836
   80A      O2' 2156   7.622   3.591   4.787 -0.0094 -0.2497 -0.1974
   80A     HO'2 2157   7.532   3.585   4.819  0.4529 -1.8977  0.9255
   80A      O3' 2158   7.575   3.479   5.046  0.1772 -0.6619  0.3948
   81G        P 2159   7.501   3.341   5.063  0.2024 -0.3328  0.2369
   81G      O1P 2160   7.370   3.363   5.133  0.5197  0.0382  0.2521
   81G      O2P 2161   7.592   3.242   5.118  0.2006  0.0227  0.3131
   81G      O5' 2162   7.470   3.292   4.920  0.2287 -0.0110  0.0163
   81G      C5' 2163   7.362   3.343   4.849 -0.1134 -0.2589 -0.5523
   81G     H5'1 2164   7.387   3.448   4.835  2.2517 -0.8513 -1.1538
   81G     H5'2 2165   7.276   3.330   4.916 -2.2674  1.4496 -2.7846
   81G      C4' 2166   7.343   3.268   4.714 -0.7711 -0.8834  0.0317
   81G      H4' 2167   7.263   3.317   4.658  1.1459  1.8641 -0.5227
   81G      O4' 2168   7.458   3.281   4.636  0.2051  0.7499 -0.1450
   81G      C1' 2169   7.476   3.156   4.564 -0.2944  0.3673  0.3322
   81G      H1' 2170   7.488   3.181   4.459 -2.7380  0.5639  0.0441
   81G       N9 2171   7.597   3.079   4.603 -0.3752 -0.3558 -0.0010
   81G       C8 2172   7.673   3.101   4.713  0.3184 -0.2057  0.0952
   81G       H8 2173   7.654   3.184   4.779 -0.9401 -1.1967  1.0390
   81G       N7 2174   7.766   3.011   4.731 -0.0604 -0.1328  0.7216
   81G       C5 2175   7.756   2.931   4.611  0.0982 -0.4893 -0.4353
   81G       C6 2176   7.844   2.844   4.549  0.5843  0.3693  0.0771
   81G       O6 2177   7.958   2.810   4.592 -0.2741  0.5964 -0.1900
   81G       N1 2178   7.796   2.787   4.434  0.0861 -0.2915 -0.4626
   81G       H1 2179   7.852   2.717   4.388  0.4259 -0.2657 -0.0961
   81G       C2 2180   7.684   2.830   4.373  0.3360 -0.2240 -0.3721
   81G       N2 2181   7.651   2.761   4.266 -0.2006 -0.2803 -0.0575
   81G      H21 2182   7.701   2.677   4.240 -1.3951 -0.7038 -1.0746
   81G      H22 2183   7.567   2.782   4.215 -0.3523  0.0318  0.3098
   81G       N3 2184   7.607   2.932   4.414 -0.1291  0.2126  0.5097
   81G       C4 2185   7.655   2.981   4.533  0.1941  0.3009  0.8919
   81G      C3' 2186   7.304   3.122   4.725 -0.0014  0.1889 -0.0273
   81G      H3' 2187   7.368   3.079   4.803  0.9200  0.6747 -0.4900
   81G      C2' 2188   7.348   3.072   4.584  0.0370 -0.3353  0.1102
   81G     H2'1 2189   7.374   2.966   4.591  1.3633  0.0192  1.1311
   81G      O2' 2190   7.252   3.098   4.479  0.3916  0.8068 -0.0373
   81G     HO'2 2191   7.262   3.029   4.414  2.4751  1.9841 -1.0696
   81G      O3' 2192   7.163   3.098   4.750 -0.2992 -0.0076  0.6661
   82U        P 2193   7.110   2.961   4.813  0.5729  0.2864  0.0093
   82U      O1P 2194   6.960   2.955   4.793  0.4398 -0.3820  0.4577
   82U      O2P 2195   7.162   2.964   4.952  0.8298  0.3806 -0.0387
   82U      O5' 2196   7.189   2.850   4.730 -0.4718  0.4380 -0.5989
   82U      C5' 2197   7.127   2.801   4.616 -0.2829  0.0760 -0.1706
   82U     H5'1 2198   7.118   2.886   4.549 -0.4268  2.9714  3.2672
   82U     H5'2 2199   7.028   2.768   4.648  0.1047 -0.4272  0.5358
   82U      C4' 2200   7.208   2.688   4.550 -0.5836  0.8543  0.0020
   82U      H4' 2201   7.151   2.650   4.465  0.7160 -1.6558  0.1635
   82U      O4' 2202   7.341   2.725   4.509  0.0861 -0.1382  0.4272
   82U      C1' 2203   7.422   2.607   4.505  0.1421 -0.0202 -0.4009
   82U      H1' 2204   7.444   2.583   4.401 -1.9123 -0.5263 -0.7672
   82U       N1 2205   7.536   2.603   4.600  0.2069  0.2587 -0.0315
   82U       C6 2206   7.541   2.686   4.709 -0.2251 -0.0941 -0.4523
   82U       H6 2207   7.454   2.746   4.732  0.7265  0.5025  2.0164
   82U       C5 2208   7.647   2.682   4.797  0.2699 -0.2292 -0.3387
   82U       H5 2209   7.641   2.740   4.888  0.4023 -0.4047 -0.2164
   82U       C4 2210   7.765   2.605   4.766 -0.0303 -0.0894  0.6245
   82U       O4 2211   7.862   2.607   4.839 -0.9756  0.0762 -0.0974
   82U       N3 2212   7.754   2.522   4.657  0.3728  0.0989  0.8964
   82U       H3 2213   7.828   2.456   4.636  0.3178 -0.0801  1.2399
   82U       C2 2214   7.649   2.526   4.569  0.0875  0.1263  1.1114
   82U       O2 2215   7.654   2.457   4.470  0.0906  0.1545 -0.3130
   82U      C3' 2216   7.231   2.565   4.644  0.6056  0.5448  0.1441
   82U      H3' 2217   7.276   2.588   4.741  0.6022 -0.2750  0.3497
   82U      C2' 2218   7.331   2.487   4.559  1.1700  0.4116  0.2040
   82U     H2'1 2219   7.382   2.420   4.629 -0.8352 -1.2240  0.1814
   82U      O2' 2220   7.292   2.419   4.436 -0.2780 -0.0221  0.7143
   82U     HO'2 2221   7.246   2.339   4.460 -2.2740  0.1570 -2.0758
   82U      O3' 2222   7.126   2.480   4.664  0.0589 -0.2393  0.4415
   83G        P 2223   7.124   2.390   4.797  0.5015  0.3644  0.1901
   83G      O1P 2224   6.986   2.338   4.807 -0.1102 -0.4514 -0.3125
   83G      O2P 2225   7.183   2.463   4.912  0.0171 -0.1880  0.3145
   83G      O5' 2226   7.224   2.270   4.765 -0.1110  0.1760 -0.1036
   83G      C5' 2227   7.177   2.154   4.696 -0.2831 -0.7589 -1.1155
   83G     H5'1 2228   7.148   2.170   4.593 -0.0049 -1.2773 -1.2807
   83G     H5'2 2229   7.092   2.110   4.747  1.0258 -2.1306  0.0107
   83G      C4' 2230   7.285   2.045   4.687 -0.1736 -0.1885 -0.1072
   83G      H4' 2231   7.244   1.960   4.631  1.4289 -0.3297 -1.1119
   83G      O4' 2232   7.403   2.102   4.626 -0.2466  0.1439  0.0940
   83G      C1' 2233   7.516   2.029   4.683 -0.0917 -0.4495 -0.2332
   83G      H1' 2234   7.565   1.975   4.602  0.9850  2.0193 -1.3423
   83G       N9 2235   7.601   2.127   4.751 -0.3296  0.0404  0.1161
   83G       C8 2236   7.561   2.240   4.811 -0.2568  0.0597  0.2109
   83G       H8 2237   7.459   2.274   4.820  0.1012  1.1082  0.4531
   83G       N7 2238   7.659   2.314   4.857 -0.5548 -0.3410 -0.8758
   83G       C5 2239   7.772   2.235   4.837 -0.1092  1.0194  0.6790
   83G       C6 2240   7.902   2.242   4.886 -0.3862  0.2858 -0.6083
   83G       O6 2241   7.954   2.329   4.959  0.5208  0.0143  0.7687
   83G       N1 2242   7.990   2.143   4.848  0.3716 -0.3682 -0.5233
   83G       H1 2243   8.082   2.153   4.889  1.1311  1.0949 -2.4495
   83G       C2 2244   7.951   2.039   4.771 -0.2342  0.1843  0.0458
   83G       N2 2245   8.036   1.939   4.754 -0.2894  0.1530  0.9101
   83G      H21 2246   8.133   1.946   4.780  0.1344  2.7739 -0.9719
   83G      H22 2247   8.001   1.860   4.701  1.4605 -0.4405  0.5746
   83G       N3 2248   7.825   2.022   4.731  0.2149 -0.3319  0.0024
   83G       C4 2249   7.741   2.122   4.767 -1.1192 -0.3775  0.2737
   83G      C3' 2250   7.327   2.001   4.823  0.3719  0.1213 -0.3751
   83G      H3' 2251   7.332   2.087   4.889 -2.0220  0.4995 -0.6236
   83G      C2' 2252   7.461   1.936   4.787 -0.3722 -0.6024 -0.2255
   83G     H2'1 2253   7.523   1.939   4.877  0.9123 -0.8528 -1.0835
   83G      O2' 2254   7.449   1.806   4.734  0.0833 -0.4484  0.1730
   83G     HO'2 2255   7.390   1.760   4.794 -0.3185  0.2486  0.3338
   83G      O3' 2256   7.246   1.904   4.879 -0.3078 -0.0739 -0.1430
   83G      H3T 2257   7.155   1.935   4.885 -0.4655 -0.6991  1.2326
   84SOL     OW 2258   1.448   2.864   4.177 -0.4086  0.2409 -0.2605
   84SOL    HW1 2259   1.448   2.790   4.238 -0.3741  0.8523  0.4916
   84SOL    HW2 2260   1.489   2.935   4.225  0.0615  0.6024 -1.1770
   85SOL     OW 2261   2.910   5.865   4.704 -0.0279 -0.9314 -0.1498
   85SOL    HW1 2262   2.869   5.781   4.725 -0.6258 -0.9502 -1.2953
   85SOL    HW2 2263   2.955   5.849   4.621 -1.1121  0.1824 -0.9746
   86SOL     OW 2264   3.044   1.472   9.215  0.6919 -0.1963 -0.5459
   86SOL    HW1 2265   3.139   1.468   9.203  0.5940 -0.3586 -1.2843
   86SOL    HW2 2266   3.032   1.455   9.309  1.4924  1.5414 -0.0798
   87SOL     OW 2267  10.524   2.882   8.251 -0.3430  0.4882 -0.0209
   87SOL    HW1 2268  10.600   2.916   8.203  0.2304  2.4229  2.0822
   87SOL    HW2 2269  10.542   2.789   8.262 -0.5507 -0.0955 -3.4845
   88SOL     OW 2270   7.795   1.188   8.202 -0.5223 -0.1031  0.4242
   88SOL    HW1 2271   7.746   1.255   8.156 -0.8553  1.1102  2.4307
   88SOL    HW2 2272   7.804   1.221   8.291  1.6796 -1.4847  0.8050
   89SOL     OW 2273   7.389  10.091  10.388  0.3821  0.0096 -0.0860
   89SOL    HW1 2274   7.356  10.133  10.467  1.0294 -0.1793  0.2931
   89SOL    HW2 2275   7.465  10.041  10.417  1.2230  0.7075 -0.9814
   90SOL     OW 2276   3.027   6.764   1.688 -0.0220 -0.1131 -0.1145
   90SOL    HW1 2277   2.944   6.731   1.652  0.1400 -0.4361 -0.1981
   90SOL    HW2 2278   3.054   6.696   1.750  0.8461 -0.6595 -1.0659
   91SOL     OW 2279   0.019   0.428   8.340  0.3112  0.4899  0.1431
   91SOL    HW1 2280   0.055   0.487   8.407 -0.1263  0.0090  0.8183
   91SOL    HW2 2281  -0.064   0.468   8.315  0.3046  0.4801  0.1489
   92SOL     OW 2282   3.900   0.722  10.048 -0.3305  0.0398 -0.2084
   92SOL    HW1 2283   3.958   0.789  10.085 -0.7948 -0.7111  2.0222
   92SOL    HW2 2284   3.816   0.765  10.038 -0.4988 -0.0523  0.7488
   93SOL     OW 2285   1.677   2.694   0.756  0.2984  0.3022  0.4633
   93SOL    HW1 2286   1.696   2.672   0.664 -0.3639  1.8980 -0.0871
   93SOL    HW2 2287   1.595   2.743   0.752 -0.5205 -0.8502  2.0992
   94SOL     OW 2288   6.170  10.658   2.793  0.4759  0.0337  0.3434
   94SOL    HW1 2289   6.158  10.688   2.883  0.4630 -1.5018  0.8810
   94SOL    HW2 2290   6.250  10.605   2.796  2.1034  2.2092 -1.1606
   95SOL     OW 2291   3.157   8.807   8.371 -0.1217  0.1432 -0.1205
   95SOL    HW1 2292   3.233   8.844   8.416  0.5430 -0.8925 -0.3673
   95SOL    HW2 2293   3.102   8.773   8.441  0.0434  0.1374  0.0072
   96SOL     OW 2294   7.625   7.308  10.292 -0.4689  0.4857 -0.0425
   96SOL    HW1 2295   7.699   7.272  10.243 -0.0615  0.4047  0.6248
   96SOL    HW2 2296   7.620   7.254  10.371 -0.7135  1.0274  0.3161
   97SOL     OW 2297   5.790   1.101   8.979  0.3102  0.4913 -0.2012
   97SOL    HW1 2298   5.702   1.071   9.003  0.7432 -2.0241 -1.4751
   97SOL    HW2 2299   5.785   1.116   8.884  0.5721  3.1313  0.1099
   98SOL     OW 2300   2.909   7.590   6.424 -0.0961 -0.6011  0.3219
   98SOL    HW1 2301   2.969   7.611   6.353  0.1594  0.4389  0.8246
   98SOL    HW2 2302   2.835   7.648   6.411  0.0850 -0.1836  1.0615
   99SOL     OW 2303   3.974   2.608   4.801 -0.4628 -0.6452 -0.5663
   99SOL    HW1 2304   4.063   2.618   4.767 -0.4532  0.9437 -0.1496
   99SOL    HW2 2305   3.925   2.567   4.729  0.2465 -0.1267 -1.3581
  100SOL     OW 2306   0.316   8.269   6.313  0.0137  0.0421  0.2906
  100SOL    HW1 2307   0.340   8.183   6.277  1.3471  0.2871  0.5475
  100SOL    HW2 2308   0.399   8.308   6.339 -0.6651  1.0480  1.0217
  101SOL     OW 2309   4.124   2.868   9.064 -0.4698 -0.6748 -0.1334
  101SOL    HW1 2310   4.115   2.914   9.148  1.3519  0.4096 -0.4942
  101SOL    HW2 2311   4.218   2.851   9.055 -0.8453 -2.6405 -1.0176
  102SOL     OW 2312   4.916   8.201   4.510  0.3042 -0.3681  0.2141
  102SOL    HW1 2313   4.860   8.145   4.563  0.3279 -0.5785  0.0190
  102SOL    HW2 2314   5.003   8.161   4.516  0.6414  0.4850  1.2841
  103SOL     OW 2315   9.103   4.878   3.767  0.2389 -0.4897  0.2958
  103SOL    HW1 2316   9.071   4.958   3.726 -0.8119  1.1048  3.8694
  103SOL    HW2 2317   9.031   4.816   3.759 -0.2590  0.0626  0.3908
  104SOL     OW 2318   0.802   9.278   0.776  0.0315 -0.8767  0.0763
  104SOL    HW1 2319   0.874   9.316   0.725 -0.3129 -0.6571 -0.2553
  104SOL    HW2 2320   0.811   9.183   0.764 -0.2192 -0.8181 -0.6464
  105SOL     OW 2321   7.379   7.247   3.078 -0.5403  0.2507  0.6618
  105SOL    HW1 2322   7.435   7.172   3.098  0.1041  0.6722  0.4687
  105SOL    HW2 2323   7.326   7.218   3.004 -0.9260 -0.3210  1.1573
  106SOL     OW 2324  10.520   2.571  10.508  0.1930  0.8749 -0.4832
  106SOL    HW1 2325  10.569   2.531  10.580  0.8999 -0.7146 -1.7913
  106SOL    HW2 2326  10.428   2.566  10.536  0.4196 -0.1161  0.1123
  107SOL     OW 2327   5.730   9.936   3.216  0.2771 -0.1647  0.0149
  107SOL    HW1 2328   5.817   9.899   3.230 -0.3797 -1.2910  1.4272
  107SOL    HW2 2329   5.670   9.865   3.239 -1.0292  0.4865 -1.2212
  108SOL     OW 2330   6.446   0.370   3.505  0.0074  0.4646  0.3302
  108SOL    HW1 2331   6.408   0.371   3.593 -1.3982  0.0562 -0.2414
  108SOL    HW2 2332   6.401   0.440   3.459  0.6700  0.6158 -0.0907
  109SOL     OW 2333   6.669   3.420   1.815  0.1001  0.3930 -0.0077
  109SOL    HW1 2334   6.653   3.326   1.799 -3.0865  0.0611  3.6869
  109SOL    HW2 2335   6.734   3.421   1.885  1.5619  1.1429 -1.3069
  110SOL     OW 2336   2.085   4.053   0.881 -0.3077  0.3463  0.2690
  110SOL    HW1 2337   2.160   4.106   0.907  0.8639 -0.4011 -1.4396
  110SOL    HW2 2338   2.031   4.112   0.828 -0.3164  0.5396  0.4899
  111SOL     OW 2339   9.293   1.930  10.549 -0.0562 -0.2696 -0.1782
  111SOL    HW1 2340   9.288   1.843  10.588 -0.9770 -0.0239  0.2801
  111SOL    HW2 2341   9.240   1.924  10.470  0.0737 -0.1938 -0.2705
  112SOL     OW 2342   7.406  10.297   4.564 -0.0768  0.4872 -0.0970
  112SOL    HW1 2343   7.468  10.350   4.614  0.0252  0.7923 -0.5445
  112SOL    HW2 2344   7.369  10.237   4.629 -0.3620  1.2480  0.4720
  113SOL     OW 2345   0.711   9.379   5.753 -0.1107 -0.3809  0.3968
  113SOL    HW1 2346   0.747   9.291   5.747  1.2400  0.0032  2.0253
  113SOL    HW2 2347   0.750   9.426   5.679  0.0127 -0.8549  0.1548
  114SOL     OW 2348   0.731   7.171   6.778 -0.7275 -0.0720  0.6329
  114SOL    HW1 2349   0.728   7.263   6.751  2.7615 -0.0219 -0.0670
  114SOL    HW2 2350   0.793   7.169   6.851 -1.2106 -1.8128  1.0428
  115SOL     OW 2351   9.950   5.446   4.300  0.3387  0.0891  0.5588
  115SOL    HW1 2352   9.978   5.356   4.317  0.5828  0.3316  1.4956
  115SOL    HW2 2353  10.029   5.490   4.268  0.5173  0.2427  1.1868
  116SOL     OW 2354   2.542   6.788   3.977  0.0148  0.5522  0.0491
  116SOL    HW1 2355   2.488   6.781   4.055  1.5529 -2.3446  1.0045
  116SOL    HW2 2356   2.571   6.880   3.976  1.4677  0.3495  4.0343
  117SOL     OW 2357   3.522   4.378   5.715  0.3403  0.4452  0.1407
  117SOL    HW1 2358   3.531   4.291   5.754  1.1394  0.9727  1.2062
  117SOL    HW2 2359   3.566   4.437   5.778  0.0616  1.5742 -0.6884
  118SOL     OW 2360   1.535   5.987   7.364  0.2948  0.1422 -0.0432
  118SOL    HW1 2361   1.510   6.043   7.290 -0.3020 -0.5300 -0.3572
  118SOL    HW2 2362   1.482   5.908   7.353  1.6634 -0.8001 -0.0129
  119SOL     OW 2363   9.266   3.919  10.297 -0.4327  0.4191  0.4876
  119SOL    HW1 2364   9.361   3.915  10.298 -0.2076  2.2288 -2.3064
  119SOL    HW2 2365   9.238   3.833  10.330  2.0973  0.1653  2.2285
  120SOL     OW 2366   5.522   9.814   3.788 -0.1198  0.0554 -0.4309
  120SOL    HW1 2367   5.515   9.855   3.874  2.0857 -1.0450  0.3589
  120SOL    HW2 2368   5.606   9.846   3.753  0.5169 -1.8543 -0.7889
  121SOL     OW 2369   9.198   0.807   6.085 -0.0484  0.4607 -0.0098
  121SOL    HW1 2370   9.267   0.761   6.134 -0.8826  1.2127  1.9706
  121SOL    HW2 2371   9.120   0.753   6.097  0.0325 -0.1439 -1.8576
  122SOL     OW 2372   4.791   8.974   2.187 -0.3862 -0.0947  0.2255
  122SOL    HW1 2373   4.805   8.882   2.164  0.4593  0.0320  0.2108
  122SOL    HW2 2374   4.719   9.002   2.130  0.2719 -0.3698 -0.7662
  123SOL     OW 2375   0.635   0.739   8.330  0.2924  0.1123  0.3122
  123SOL    HW1 2376   0.615   0.650   8.360  1.5330  0.8576  3.8752
  123SOL    HW2 2377   0.550   0.776   8.306 -0.7102 -1.0625  1.8412
  124SOL     OW 2378   9.132   0.649   1.104  0.0108  0.3188  0.2936
  124SOL    HW1 2379   9.130   0.727   1.050 -0.8846  0.7540  0.9298
  124SOL    HW2 2380   9.221   0.614   1.094  0.2942  1.1997 -0.2946
  125SOL     OW 2381   8.998   6.677   7.898 -0.3320  0.1012  0.3439
  125SOL    HW1 2382   9.070   6.698   7.839 -2.7184  1.8882 -2.1655
  125SOL    HW2 2383   9.006   6.739   7.970  1.1896 -0.4184  0.6423
  126SOL     OW 2384   9.981  10.964   6.643  0.2387  0.4756 -0.1353
  126SOL    HW1 2385   9.941  10.925   6.565 -0.2051 -0.3702  0.4906
  126SOL    HW2 2386  10.070  10.986   6.616 -0.5458  2.1853 -1.4898
  127SOL     OW 2387   9.194   2.674   9.145 -0.3449 -0.2585 -0.3394
  127SOL    HW1 2388   9.288   2.657   9.137 -0.2990 -0.7260  0.9283
  127SOL    HW2 2389   9.165   2.616   9.215 -1.9871 -1.5891 -2.0184
  128SOL     OW 2390   9.884   3.753   5.547 -0.8252 -0.2767  0.3605
  128SOL    HW1 2391   9.973   3.740   5.516 -0.6077 -0.2751  0.9773
  128SOL    HW2 2392   9.893   3.792   5.634 -1.4522  1.1454 -0.1891
  129SOL     OW 2393   5.485   9.057   8.205  0.6526  0.3730 -0.4212
  129SOL    HW1 2394   5.449   8.970   8.191 -0.3423  0.9959 -2.0316
  129SOL    HW2 2395   5.424   9.098   8.267 -0.3236  0.7208 -1.5625
  130SOL     OW 2396   1.236   9.670   6.518 -0.4900  0.2077 -0.1258
  130SOL    HW1 2397   1.168   9.606   6.494 -0.3510  0.2918 -0.7637
  130SOL    HW2 2398   1.222   9.686   6.611  0.2506 -1.7071  0.3617
  131SOL     OW 2399   7.925   3.016   8.484  0.0542 -0.1325 -0.1931
  131SOL    HW1 2400   7.917   2.963   8.563  0.0958  0.1919  0.0319
  131SOL    HW2 2401   7.952   2.955   8.416  1.1889 -0.2003  0.3056
  132SOL     OW 2402   1.149   2.618   3.761 -0.3215  0.2479 -0.4934
  132SOL    HW1 2403   1.078   2.613   3.697  0.4466  0.3986 -1.3773
  132SOL    HW2 2404   1.106   2.602   3.846 -1.3456  0.0006 -1.0407
  133SOL     OW 2405   4.228   6.219  10.717  0.7733  0.0908  0.4321
  133SOL    HW1 2406   4.137   6.188  10.709  0.6775  0.3144  0.6424
  133SOL    HW2 2407   4.239   6.280  10.645  0.2379  1.3141  1.3549
  134SOL     OW 2408   7.461   2.950   3.547 -0.1752  0.2799  0.2674
  134SOL    HW1 2409   7.530   3.012   3.521 -0.8205  0.5452 -0.8697
  134SOL    HW2 2410   7.389   2.968   3.487 -1.3235  0.1204  1.5442
  135SOL     OW 2411   0.907   4.303   8.816 -0.5559 -0.5614 -0.5991
  135SOL    HW1 2412   0.974   4.268   8.757 -1.6943 -0.1418 -2.2109
  135SOL    HW2 2413   0.847   4.230   8.830  0.5267 -1.1367  1.3792
  136SOL     OW 2414   3.424   1.025   3.378  0.8159  0.3382 -0.1180
  136SOL    HW1 2415   3.485   0.976   3.324  1.4668 -1.0220  1.7406
  136SOL    HW2 2416   3.398   1.100   3.324  1.5537 -0.8210 -2.1881
  137SOL     OW 2417   7.257   3.395   3.654 -0.1061  0.1903 -0.1043
  137SOL    HW1 2418   7.277   3.322   3.713  0.1658  0.9412  0.7538
  137SOL    HW2 2419   7.179   3.366   3.606  0.3708 -0.9222 -0.2413
  138SOL     OW 2420   6.160  10.952   4.191  0.5387  0.4516  0.6224
  138SOL    HW1 2421   6.148  10.912   4.105 -0.4956  1.5464  0.2204
  138SOL    HW2 2422   6.080  11.002   4.205  0.7808  0.4434  2.1508
  139SOL     OW 2423   1.750   0.144   3.998  0.1761 -0.5167 -0.3025
  139SOL    HW1 2424   1.747   0.049   4.009 -2.2558 -0.3642  1.2541
  139SOL    HW2 2425   1.670   0.165   3.949  0.5148  0.7520 -0.3459
  140SOL     OW 2426   5.835   0.058  10.300  0.1237  0.0205  0.2868
  140SOL    HW1 2427   5.806   0.132  10.248 -1.2627  0.4554  1.5900
  140SOL    HW2 2428   5.861   0.096  10.384  2.0841 -0.6817  0.0502
  141SOL     OW 2429   7.694   7.330   3.023  0.4175  0.8875 -0.6058
  141SOL    HW1 2430   7.683   7.246   2.978 -1.4879  1.3134 -1.0205
  141SOL    HW2 2431   7.786   7.331   3.049  1.0369 -0.3941 -2.4833
  142SOL     OW 2432   3.081  10.561  10.945  0.0459  0.0422 -0.3634
  142SOL    HW1 2433   3.060  10.472  10.974  1.2755 -0.1585 -0.0298
  142SOL    HW2 2434   3.144  10.550  10.874  0.7040  0.6506  0.1078
  143SOL     OW 2435   4.010   9.953   4.479  0.9005 -0.5859  0.4739
  143SOL    HW1 2436   3.963   9.873   4.502 -0.1708 -0.0629  0.1880
  143SOL    HW2 2437   3.986   9.969   4.387  3.3588 -1.4553 -0.3940
  144SOL     OW 2438   2.681  10.526   9.522  0.0241  0.6058 -0.2951
  144SOL    HW1 2439   2.602  10.501   9.570  0.3974 -0.1798 -0.0757
  144SOL    HW2 2440   2.692  10.458   9.456  1.7132 -0.5423  1.0775
  145SOL     OW 2441   3.678   9.664   0.042  0.2392 -0.1757 -0.6816
  145SOL    HW1 2442   3.770   9.690   0.032  0.1687 -0.2274 -1.4845
  145SOL    HW2 2443   3.638   9.683  -0.043 -0.4678 -0.2645 -0.3755
  146SOL     OW 2444   3.381   0.097   9.795  0.0753 -0.1802 -0.3480
  146SOL    HW1 2445   3.442   0.167   9.818  0.0865 -0.1291 -0.5257
  146SOL    HW2 2446   3.295   0.135   9.811  0.0987 -0.8541  1.6164
  147SOL     OW 2447   9.007   6.811   1.322  0.3628 -0.0946 -0.3597
  147SOL    HW1 2448   9.011   6.883   1.385  0.5039  1.6112 -2.2026
  147SOL    HW2 2449   9.097   6.782   1.312  0.2215 -1.0072  0.8775
  148SOL     OW 2450  10.090   4.638  10.909 -0.1896  0.5031  0.2034
  148SOL    HW1 2451  10.012   4.610  10.957 -0.5759  1.1825 -0.0055
  148SOL    HW2 2452  10.089   4.588  10.828  0.3181 -0.4536  0.7765
  149SOL     OW 2453   9.957   6.130   1.286 -0.2156  0.2129 -0.1644
  149SOL    HW1 2454  10.023   6.181   1.240 -2.4248  1.5862 -2.0511
  149SOL    HW2 2455   9.883   6.125   1.225 -2.1017 -0.7169  2.0155
  150SOL     OW 2456   4.826   4.589   1.233 -0.1537  0.4349 -0.1506
  150SOL    HW1 2457   4.794   4.569   1.145 -2.4241  0.9896  0.5053
  150SOL    HW2 2458   4.893   4.656   1.218 -1.6868  1.7820 -1.3735
  151SOL     OW 2459  10.045   9.711   7.916 -0.0495  0.2192 -0.3198
  151SOL    HW1 2460  10.095   9.792   7.909  0.6205 -0.1220  0.3496
  151SOL    HW2 2461  10.106   9.649   7.956 -0.4908 -0.6683 -1.0053
  152SOL     OW 2462   7.868   1.740   0.041 -0.1959 -0.6751 -0.3262
  152SOL    HW1 2463   7.865   1.833   0.019  0.0592 -0.6322 -0.1848
  152SOL    HW2 2464   7.816   1.697  -0.027  1.5396 -0.6857 -1.7216
  153SOL     OW 2465   2.427   4.670   9.308 -0.4866  0.0688  0.6378
  153SOL    HW1 2466   2.468   4.703   9.228  0.2705 -0.6057  0.7430
  153SOL    HW2 2467   2.366   4.603   9.277  0.6847 -1.0473  0.7070
  154SOL     OW 2468   4.202   1.670   7.845  0.2620 -0.0727 -0.5634
  154SOL    HW1 2469   4.226   1.673   7.752 -2.4207 -1.7677 -1.4192
  154SOL    HW2 2470   4.209   1.578   7.868 -0.9997  0.0482  0.3449
  155SOL     OW 2471   9.319   8.251   1.511  0.1323 -0.7266 -0.5408
  155SOL    HW1 2472   9.251   8.288   1.568 -0.8479 -0.5646 -1.7632
  155SOL    HW2 2473   9.391   8.314   1.517 -1.1032  0.8947 -1.7576
  156SOL     OW 2474   4.626   9.324  10.133  0.4745 -0.2954 -0.2400
  156SOL    HW1 2475   4.693   9.287  10.074 -0.7612 -0.4551 -1.6148
  156SOL    HW2 2476   4.643   9.418  10.132  0.4741 -0.2979 -0.8502
  157SOL     OW 2477   9.289   3.773   5.295  0.4111 -0.5932 -0.2875
  157SOL    HW1 2478   9.237   3.790   5.374  0.4682  2.1389 -0.7540
  157SOL    HW2 2479   9.347   3.701   5.320 -2.4194 -2.7264  0.7613
  158SOL     OW 2480   2.676   7.538   3.033 -0.0427 -0.2148  0.3132
  158SOL    HW1 2481   2.595   7.497   3.006 -0.4433  1.3368 -0.9773
  158SOL    HW2 2482   2.651   7.628   3.056  1.4513  0.7602 -1.5337
  159SOL     OW 2483   3.815   0.840   6.930  0.2239 -0.2215 -0.1849
  159SOL    HW1 2484   3.793   0.895   6.855 -2.3550 -0.6222  0.1891
  159SOL    HW2 2485   3.873   0.772   6.894  0.2772  0.4841 -1.4705
  160SOL     OW 2486   6.400  10.052   8.497  0.1505 -0.0574  0.1553
  160SOL    HW1 2487   6.369  10.056   8.587 -0.3864 -3.2259  0.2369
  160SOL    HW2 2488   6.326  10.082   8.444  0.4379  1.7263  0.7168
  161SOL     OW 2489  10.550   8.926   1.509  0.2291  0.6826  0.5696
  161SOL    HW1 2490  10.586   8.926   1.420 -0.9455 -0.3015  0.0697
  161SOL    HW2 2491  10.553   9.017   1.536  0.5643  1.0000 -0.4994
  162SOL     OW 2492   6.413   0.853   0.105  0.0819  0.1005  0.3261
  162SOL    HW1 2493   6.488   0.910   0.088 -0.8218  1.7065  1.5279
  162SOL    HW2 2494   6.344   0.911   0.135 -2.1982 -1.1253 -2.1106
  163SOL     OW 2495   7.760   0.014   9.182 -0.0809  0.5171 -0.0748
  163SOL    HW1 2496   7.784  -0.078   9.167  0.1034  0.5813 -0.1914
  163SOL    HW2 2497   7.738   0.019   9.274 -1.9136 -0.0403 -0.4473
  164SOL     OW 2498   7.986   9.057   0.505 -0.0558 -0.3123 -0.0777
  164SOL    HW1 2499   7.997   9.148   0.530  1.2847 -0.0128 -1.6283
  164SOL    HW2 2500   8.067   9.014   0.531  0.9346 -0.2142 -2.7091
  165SOL     OW 2501   1.071   2.593  10.155 -0.3476  0.7802 -0.3325
  165SOL    HW1 2502   1.160   2.619  10.132  0.6398 -1.1919  0.9438
  165SOL    HW2 2503   1.074   2.576  10.249 -1.5636 -0.9941 -0.5470
  166SOL     OW 2504   0.554   5.543   1.528  0.4356 -0.2393  1.0529
  166SOL    HW1 2505   0.634   5.519   1.480  0.7720  0.8607  1.0300
  166SOL    HW2 2506   0.493   5.569   1.459  0.4806  0.1001  1.1400
  167SOL     OW 2507   6.829   5.282   3.128  0.1915  0.0431 -0.4712
  167SOL    HW1 2508   6.896   5.261   3.193 -0.4870  0.8315  0.5082
  167SOL    HW2 2509   6.879   5.313   3.052  0.9713 -0.1863 -0.0687
  168SOL     OW 2510   3.829   8.516   0.876  0.1153 -0.1438 -0.3306
  168SOL    HW1 2511   3.736   8.494   0.871  0.1597 -0.7929  1.2280
  168SOL    HW2 2512   3.864   8.492   0.790 -1.2214  0.5089 -1.0944
  169SOL     OW 2513   9.931  10.515   8.039 -0.2410 -0.1649  0.5282
  169SOL    HW1 2514  10.007  10.530   7.982 -1.0239 -1.2472 -0.8897
  169SOL    HW2 2515   9.856  10.520   7.980 -1.3123  1.0547  1.9347
  170SOL     OW 2516   6.958   3.057   0.868 -0.5417  0.4315  0.6358
  170SOL    HW1 2517   6.979   2.979   0.919 -1.1029  1.0348  1.8338
  170SOL    HW2 2518   7.037   3.110   0.872  1.0570 -1.3393 -2.8373
  171SOL     OW 2519   3.700   1.254   7.442 -0.2760 -0.1769  0.7102
  171SOL    HW1 2520   3.641   1.327   7.419 -0.1447 -0.1897  0.3349
  171SOL    HW2 2521   3.645   1.176   7.435 -0.5797 -0.0684  1.6949
  172SOL     OW 2522   1.213  11.027   3.473  0.5860 -0.5927 -0.0284
  172SOL    HW1 2523   1.146  10.966   3.503  1.2318 -2.1587 -1.6045
  172SOL    HW2 2524   1.288  10.972   3.450  2.2656  1.0620  1.1892
  173SOL     OW 2525   6.493   3.634   8.925 -0.0980  0.1530 -0.8303
  173SOL    HW1 2526   6.460   3.546   8.908  0.7484 -0.3345 -0.0292
  173SOL    HW2 2527   6.577   3.621   8.970  0.7367  1.3596 -1.9537
  174SOL     OW 2528  10.393   9.423  10.888  0.5416 -0.4886  0.1099
  174SOL    HW1 2529  10.301   9.442  10.868  0.3464 -1.0841  0.4183
  174SOL    HW2 2530  10.436   9.422  10.802 -0.0111 -1.5852 -0.1661
  175SOL     OW 2531   3.054   1.224   2.839  0.1776  0.2370 -0.3400
  175SOL    HW1 2532   3.048   1.299   2.899  3.1301  0.7538 -0.5648
  175SOL    HW2 2533   2.981   1.238   2.778 -0.0112  2.3632  0.2665
  176SOL     OW 2534  10.287   2.845   2.713  0.3999 -0.3697 -0.5780
  176SOL    HW1 2535  10.240   2.904   2.653 -1.3992 -0.1640  0.9483
  176SOL    HW2 2536  10.223   2.777   2.734  1.2934 -0.9229  0.4223
  177SOL     OW 2537   3.005   8.274   6.044 -0.0705 -0.0261 -0.6310
  177SOL    HW1 2538   3.038   8.303   5.959 -0.9821 -1.1241 -1.3924
  177SOL    HW2 2539   3.038   8.184   6.053  1.0738  0.4920  0.7793
  178SOL     OW 2540   9.051   7.476   6.651 -0.5452  0.4458 -0.0273
  178SOL    HW1 2541   9.009   7.400   6.692  1.3489  0.4220  2.0777
  178SOL    HW2 2542   9.137   7.444   6.624 -1.3490  0.7482 -3.3165
  179SOL     OW 2543   1.203   7.311   3.122 -0.2099 -0.0400  0.9002
  179SOL    HW1 2544   1.237   7.223   3.137  1.1984  0.3044  0.0043
  179SOL    HW2 2545   1.108   7.300   3.117  0.0248 -1.8792 -1.3134
  180SOL     OW 2546   5.978  10.772   7.942  0.0128 -0.0255 -0.5701
  180SOL    HW1 2547   5.969  10.839   8.010 -0.4623 -0.0124 -0.6378
  180SOL    HW2 2548   5.962  10.690   7.988  0.3912 -0.0753 -0.5281
  181SOL     OW 2549   7.962   0.322   4.433 -0.1679  0.7418 -0.8955
  181SOL    HW1 2550   7.998   0.303   4.520  0.1187 -0.7616 -1.3212
  181SOL    HW2 2551   7.912   0.403   4.445 -0.7976  0.1238  0.8375
  182SOL     OW 2552   7.380   0.955   9.188  0.2483 -0.0716 -0.0113
  182SOL    HW1 2553   7.356   1.038   9.146  1.6486 -0.2390 -1.2574
  182SOL    HW2 2554   7.329   0.952   9.268 -0.9712  1.2762 -0.7044
  183SOL     OW 2555   9.383   0.600   1.046 -0.8442  0.9548 -0.0211
  183SOL    HW1 2556   9.437   0.648   0.982  0.1355 -0.7796 -0.5755
  183SOL    HW2 2557   9.431   0.609   1.129 -0.5443  0.7823 -0.1711
  184SOL     OW 2558   6.897   0.386   3.014  0.7852 -0.0385 -0.2969
  184SOL    HW1 2559   6.974   0.417   2.967  0.5144 -1.8206 -2.0302
  184SOL    HW2 2560   6.844   0.342   2.947  0.4948 -2.9325  1.6590
  185SOL     OW 2561   2.328   0.716   0.937  0.0402  0.8605  0.1447
  185SOL    HW1 2562   2.241   0.677   0.946  0.0127  0.8682 -0.0804
  185SOL    HW2 2563   2.357   0.689   0.850  0.7372 -0.0836  0.6512
  186SOL     OW 2564   1.684   4.544   5.131 -0.1686 -0.1661  0.4350
  186SOL    HW1 2565   1.769   4.508   5.107 -0.2269  0.2112 -0.3618
  186SOL    HW2 2566   1.699   4.637   5.144 -0.6555  0.0922 -0.7447
  187SOL     OW 2567  10.997  10.463   1.477  0.3128 -0.4215  0.0632
  187SOL    HW1 2568  11.039  10.495   1.557 -0.5621  0.2815  0.2472
  187SOL    HW2 2569  11.014  10.369   1.478 -1.3991 -0.7792  2.1472
  188SOL     OW 2570   4.046   3.977   6.067  0.0922 -0.0952  0.4150
  188SOL    HW1 2571   4.028   4.067   6.038  1.3401 -0.3092 -1.0937
  188SOL    HW2 2572   4.059   3.985   6.162 -1.4496  1.0269  0.5822
  189SOL     OW 2573   3.101   3.352   7.957 -0.2828  0.8339  0.1231
  189SOL    HW1 2574   3.127   3.360   7.865  1.2553  0.5104  0.4967
  189SOL    HW2 2575   3.104   3.442   7.990 -1.2122  0.9994 -0.2296
  190SOL     OW 2576  10.982   5.110   0.865  0.2188  0.4129 -0.1025
  190SOL    HW1 2577  10.963   5.200   0.836  1.4870  2.0948  3.6097
  190SOL    HW2 2578  10.915   5.093   0.932  1.5181 -0.3367  1.0411
  191SOL     OW 2579   1.481   2.791   7.278  0.2411 -0.2077 -0.0848
  191SOL    HW1 2580   1.556   2.751   7.234  0.6126  0.6779 -0.2677
  191SOL    HW2 2581   1.422   2.717   7.297  1.0066 -0.8641 -0.2258
  192SOL     OW 2582   0.823   6.354   1.891  0.5276 -0.0485 -0.0483
  192SOL    HW1 2583   0.748   6.403   1.856  0.4308 -1.0879 -1.4000
  192SOL    HW2 2584   0.835   6.388   1.979 -2.9321 -1.3278  1.0993
  193SOL     OW 2585   4.174   9.062   9.733  0.4695  0.4891  0.0709
  193SOL    HW1 2586   4.169   9.125   9.804 -0.1665 -1.2203  1.6171
  193SOL    HW2 2587   4.196   9.114   9.656  0.5794  2.4814  1.3879
  194SOL     OW 2588   4.219   1.611   6.989  0.0523  0.4130 -0.2465
  194SOL    HW1 2589   4.241   1.693   6.946  1.0692  0.4666  0.3424
  194SOL    HW2 2590   4.173   1.637   7.069  3.2685  0.6418  1.6791
  195SOL     OW 2591   4.045   8.293   3.691 -0.2641  0.7523  0.2772
  195SOL    HW1 2592   4.026   8.243   3.771 -0.1443 -0.8842 -0.6648
  195SOL    HW2 2593   4.034   8.384   3.716  2.5191  0.5111  2.9187
  196SOL     OW 2594   4.775   9.200   9.075 -0.4772 -0.5304 -0.4963
  196SOL    HW1 2595   4.731   9.256   9.011 -1.3429 -0.9762 -0.2967
  196SOL    HW2 2596   4.868   9.215   9.059 -0.6836  0.8795 -0.5344
  197SOL     OW 2597   3.884   0.358   2.850 -0.0453 -0.6325 -0.0321
  197SOL    HW1 2598   3.805   0.397   2.887  0.8427  1.7359 -0.4475
  197SOL    HW2 2599   3.939   0.338   2.926  0.0062  0.1631  0.1470
  198SOL     OW 2600   3.363   5.514   9.664 -0.0992 -0.6569  0.0634
  198SOL    HW1 2601   3.352   5.537   9.756  0.6068 -1.8289  0.4581
  198SOL    HW2 2602   3.394   5.424   9.665 -1.0550 -1.0421 -1.3597
  199SOL     OW 2603   3.148   7.822   3.004  0.1018 -0.3246 -0.1754
  199SOL    HW1 2604   3.054   7.813   3.019  0.0986  0.7385  0.5353
  199SOL    HW2 2605   3.188   7.810   3.091  0.5930 -0.4783 -0.4171
  200SOL     OW 2606   8.550   0.594  10.193 -0.1591 -0.4273 -0.5455
  200SOL    HW1 2607   8.570   0.645  10.114  2.2195  2.6783  1.8490
  200SOL    HW2 2608   8.454   0.591  10.194 -0.3498  1.9587 -2.0946
  201SOL     OW 2609   3.270   5.529   1.649  0.2853 -0.2825  0.2075
  201SOL    HW1 2610   3.267   5.457   1.585 -0.3375 -0.6446  0.6309
  201SOL    HW2 2611   3.251   5.607   1.597  0.3797 -0.4975 -0.1570
  202SOL     OW 2612   3.891   2.363   2.756  0.4616  0.4159  0.3807
  202SOL    HW1 2613   3.986   2.354   2.765  0.5222  0.7195  0.0451
  202SOL    HW2 2614   3.863   2.401   2.839  0.5005 -0.6093  0.8825
  203SOL     OW 2615   2.455   2.428   5.356 -0.2575 -0.4040  0.1587
  203SOL    HW1 2616   2.502   2.473   5.427  0.2103 -2.0490  0.9570
  203SOL    HW2 2617   2.479   2.476   5.277  3.1524 -1.3519  0.4576
  204SOL     OW 2618   8.937   4.747   3.498 -0.0396 -0.4846 -0.1294
  204SOL    HW1 2619   8.873   4.763   3.567 -0.4335 -1.5374 -0.2286
  204SOL    HW2 2620   8.963   4.834   3.468  0.1634 -0.0184  1.3544
  205SOL     OW 2621   6.240   8.876   4.906 -0.4626 -0.4270 -0.7854
  205SOL    HW1 2622   6.193   8.920   4.977  0.0411 -0.8015 -0.2050
  205SOL    HW2 2623   6.319   8.841   4.948  0.4911  0.4315 -1.7870
  206SOL     OW 2624   2.185   1.674   3.113  0.5571  0.0203 -0.0736
  206SOL    HW1 2625   2.208   1.589   3.151  0.8227  0.8766  1.8278
  206SOL    HW2 2626   2.105   1.700   3.158  1.1832  1.3371  0.3239
  207SOL     OW 2627   2.817   9.215   2.961  0.0528 -0.6045 -0.3954
  207SOL    HW1 2628   2.842   9.172   3.043  1.8676 -0.1891 -0.6762
  207SOL    HW2 2629   2.730   9.180   2.940  0.6519 -2.6784  0.3763
  208SOL     OW 2630   7.290   2.673   1.643 -0.9261  0.0699  0.1361
  208SOL    HW1 2631   7.288   2.634   1.730 -2.4578  1.1915  0.6614
  208SOL    HW2 2632   7.367   2.731   1.644  0.7739 -2.0416 -0.3197
  209SOL     OW 2633   0.187   4.817  10.239 -0.1730 -0.3308  0.1050
  209SOL    HW1 2634   0.211   4.875  10.311  0.7754  1.3265 -1.4547
  209SOL    HW2 2635   0.117   4.762  10.274 -0.6353  1.2869  1.8955
  210SOL     OW 2636   9.698   8.573   0.230 -1.1493  0.5335  0.1813
  210SOL    HW1 2637   9.724   8.577   0.138  1.3714 -0.5523  0.7772
  210SOL    HW2 2638   9.777   8.593   0.279 -2.3321  0.6953  2.1437
  211SOL     OW 2639   9.570   6.285   2.656 -0.1662 -0.6624 -0.6201
  211SOL    HW1 2640   9.534   6.219   2.715 -0.6038  1.3752  1.5896
  211SOL    HW2 2641   9.663   6.288   2.677 -0.1315 -0.6491 -0.7722
  212SOL     OW 2642   0.555   0.070   7.972  0.6984 -0.7403 -0.0797
  212SOL    HW1 2643   0.464   0.090   7.996  1.0897 -0.2885  1.0908
  212SOL    HW2 2644   0.583   0.146   7.921  0.2281 -1.1787 -1.0190
  213SOL     OW 2645   6.019   5.040   8.941 -0.2441  0.1611 -0.0334
  213SOL    HW1 2646   5.983   5.101   8.877 -0.9033 -2.1966 -2.0355
  213SOL    HW2 2647   5.991   5.076   9.026 -0.2353  2.8043 -1.0609
  214SOL     OW 2648   3.735   3.636   2.697  0.3772  0.1422 -0.0666
  214SOL    HW1 2649   3.673   3.578   2.742  0.5679 -0.1045 -0.1227
  214SOL    HW2 2650   3.777   3.580   2.631  0.9785  0.1979  0.2623
  215SOL     OW 2651   1.559   3.176   1.366 -0.7617 -0.5642 -0.0278
  215SOL    HW1 2652   1.630   3.139   1.418  0.4614  1.5809 -0.0538
  215SOL    HW2 2653   1.509   3.100   1.337  1.1305 -2.1263  0.5485
  216SOL     OW 2654   9.080   5.574   3.329  0.0402 -0.0264  0.9934
  216SOL    HW1 2655   9.025   5.602   3.255 -0.2835 -1.4740  0.6607
  216SOL    HW2 2656   9.152   5.527   3.288  0.3930  0.0198  1.5605
  217SOL     OW 2657   4.162   6.672   6.414  0.7027 -0.3659 -0.4679
  217SOL    HW1 2658   4.085   6.728   6.426  0.7125 -0.0430 -1.7528
  217SOL    HW2 2659   4.220   6.695   6.487  0.0721  0.2104 -0.1360
  218SOL     OW 2660   8.853   7.136   7.426  0.2154  0.0355 -0.2424
  218SOL    HW1 2661   8.795   7.091   7.365  0.7405 -0.3147 -0.4826
  218SOL    HW2 2662   8.937   7.142   7.381  0.3646  0.5680  0.0937
  219SOL     OW 2663   4.834   4.236   9.993  0.1012 -0.2313 -0.3103
  219SOL    HW1 2664   4.790   4.262  10.075  0.3494 -0.4648 -0.1022
  219SOL    HW2 2665   4.827   4.141   9.992  1.4087 -0.3433  0.1870
  220SOL     OW 2666   7.867   0.560   5.425  0.0136  0.0620  0.1913
  220SOL    HW1 2667   7.793   0.520   5.471  1.4606  0.0711  2.7368
  220SOL    HW2 2668   7.920   0.486   5.396  0.0877  0.0712  0.3012
  221SOL     OW 2669  10.427   6.328   4.368  0.0157  0.1485  0.0508
  221SOL    HW1 2670  10.423   6.236   4.340 -0.1259 -0.5248  2.1015
  221SOL    HW2 2671  10.520   6.350   4.362  0.1251 -0.2971  0.0249
  222SOL     OW 2672   3.314   0.208   7.213  0.0725  0.2335 -0.1868
  222SOL    HW1 2673   3.316   0.277   7.147 -0.3626  0.7646  0.3410
  222SOL    HW2 2674   3.254   0.241   7.280  1.2680  0.1667  0.9562
  223SOL     OW 2675   8.463   8.382   9.531 -0.1504  0.4294  0.1478
  223SOL    HW1 2676   8.448   8.475   9.518 -0.2205  0.5748  1.1437
  223SOL    HW2 2677   8.553   8.375   9.561  0.5664 -0.0563 -1.9687
  224SOL     OW 2678   4.135   1.698   2.845  0.0784  0.0439  0.4325
  224SOL    HW1 2679   4.215   1.745   2.867 -0.6197  1.1097  0.8037
  224SOL    HW2 2680   4.081   1.763   2.799  0.3085 -1.2830 -1.8579
  225SOL     OW 2681   2.849   6.995  10.716  0.3303 -0.4182 -0.1252
  225SOL    HW1 2682   2.911   6.963  10.650 -0.4050 -1.0618 -0.5213
  225SOL    HW2 2683   2.846   6.925  10.781  0.2335 -0.2688  0.0306
  226SOL     OW 2684   4.604   4.901   2.534 -0.0138 -0.6988  0.0455
  226SOL    HW1 2685   4.650   4.981   2.507  2.7672 -2.3509 -0.5567
  226SOL    HW2 2686   4.599   4.908   2.630  0.0868  0.2418 -0.0075
  227SOL     OW 2687   1.611   6.575   8.872 -0.1109 -0.6878  0.3758
  227SOL    HW1 2688   1.698   6.605   8.902 -1.0623  1.8240  0.8760
  227SOL    HW2 2689   1.581   6.516   8.941  0.0082  0.7738  1.7371
  228SOL     OW 2690   0.492   4.860   7.761  0.0614  0.6236  0.2566
  228SOL    HW1 2691   0.500   4.904   7.846 -0.0504  2.0191 -0.4267
  228SOL    HW2 2692   0.565   4.894   7.710 -0.2226  0.2488 -0.4107
  229SOL     OW 2693   0.662   6.425   6.687 -0.5424 -0.0801  0.0192
  229SOL    HW1 2694   0.724   6.359   6.657 -0.3669  0.5047 -0.9297
  229SOL    HW2 2695   0.716   6.494   6.725 -0.5267  0.8429 -1.6138
  230SOL     OW 2696   7.999  10.132   1.679 -0.0487  0.2688  0.5726
  230SOL    HW1 2697   8.033  10.042   1.679 -1.3715 -0.2712 -1.0550
  230SOL    HW2 2698   7.967  10.145   1.768  0.4308 -0.7699  0.9173
  231SOL     OW 2699   5.821   3.302   2.937 -0.2645 -0.3291 -0.1003
  231SOL    HW1 2700   5.892   3.253   2.979 -0.2832  0.0872  0.4307
  231SOL    HW2 2701   5.866   3.362   2.877 -0.0837  0.6787  1.0086
  232SOL     OW 2702   2.170   0.210   2.321  0.2102  0.4632  0.0722
  232SOL    HW1 2703   2.221   0.289   2.336  0.5870 -0.1338  2.2025
  232SOL    HW2 2704   2.195   0.150   2.391 -2.1278 -0.5039  0.1912
  233SOL     OW 2705  11.022   8.913   6.817 -0.8817  0.1426  0.0359
  233SOL    HW1 2706  10.945   8.970   6.810 -1.2252 -0.4955 -2.6736
  233SOL    HW2 2707  10.988   8.825   6.801  0.2601 -0.2635 -0.2339
  234SOL     OW 2708   2.943   7.656   1.026 -0.0462 -0.0758 -0.1727
  234SOL    HW1 2709   2.987   7.657   1.111 -0.8473 -1.0443  0.2742
  234SOL    HW2 2710   2.970   7.738   0.984  3.0211 -1.0787 -0.3946
  235SOL     OW 2711   4.505   8.502   5.760  0.1654  0.0481 -0.3548
  235SOL    HW1 2712   4.503   8.407   5.763  0.5373  0.0488 -0.0438
  235SOL    HW2 2713   4.441   8.525   5.693  0.2177 -0.4280 -0.5726
  236SOL     OW 2714   6.141   4.722   4.178 -0.0530  0.3720 -0.6346
  236SOL    HW1 2715   6.118   4.738   4.270  1.2708  1.4370 -0.4588
  236SOL    HW2 2716   6.157   4.809   4.142  2.0309 -0.1709 -1.1454
  237SOL     OW 2717   7.048   9.007  10.924  0.3390 -0.3832 -0.5421
  237SOL    HW1 2718   6.986   9.003  10.996 -0.1777 -0.2042 -0.9682
  237SOL    HW2 2719   7.075   9.098  10.919  0.8599 -0.5133 -0.1771
  238SOL     OW 2720   4.123   0.371   3.372  0.1314  0.1522  1.2234
  238SOL    HW1 2721   4.183   0.416   3.432 -0.5605 -1.0043  2.8513
  238SOL    HW2 2722   4.145   0.279   3.380  1.1525  0.0482 -1.6634
  239SOL     OW 2723   7.296   4.526   3.801  0.3019  0.0877  0.0725
  239SOL    HW1 2724   7.283   4.609   3.847 -0.6306  1.2907 -2.2200
  239SOL    HW2 2725   7.386   4.530   3.770  0.7511 -0.4782  1.2378
  240SOL     OW 2726   2.784   8.695   5.091 -0.6294 -0.3090  0.4162
  240SOL    HW1 2727   2.853   8.713   5.155  1.0515  1.2198 -1.6608
  240SOL    HW2 2728   2.815   8.617   5.044  0.7716  1.4402 -1.7551
  241SOL     OW 2729   5.784   9.271   2.682 -0.8305 -0.0827 -0.1693
  241SOL    HW1 2730   5.706   9.282   2.737 -0.2483  1.2543  0.4373
  241SOL    HW2 2731   5.760   9.203   2.620 -2.1488 -0.3659  0.6081
  242SOL     OW 2732   2.991   6.550   5.633  0.4229 -0.1080  0.5466
  242SOL    HW1 2733   3.032   6.602   5.702 -1.1566  2.3402 -0.2443
  242SOL    HW2 2734   3.009   6.598   5.553 -1.9610 -0.1689 -0.1041
  243SOL     OW 2735   9.525   6.295   5.724 -0.4007 -0.4312  0.2401
  243SOL    HW1 2736   9.612   6.280   5.762  0.5687  4.5343  0.7147
  243SOL    HW2 2737   9.543   6.334   5.638 -2.1332  0.3552  0.1889
  244SOL     OW 2738   3.115   3.088   4.074 -0.0735 -0.0911  0.1657
  244SOL    HW1 2739   3.044   3.109   4.134 -0.0888 -1.0137  0.4926
  244SOL    HW2 2740   3.086   3.124   3.990 -1.1862 -0.9027  0.1718
  245SOL     OW 2741   3.085  10.223   2.511  0.5041 -0.3631  0.4234
  245SOL    HW1 2742   3.036  10.166   2.452 -1.0707  1.2919  0.0135
  245SOL    HW2 2743   3.021  10.249   2.578  1.2890  0.5060  0.8646
  246SOL     OW 2744   5.322   9.102   8.538  0.0539 -0.4213  0.0470
  246SOL    HW1 2745   5.347   9.091   8.630 -2.1543  0.6973  0.8679
  246SOL    HW2 2746   5.247   9.044   8.526 -0.0809 -0.0848 -0.8617
  247SOL     OW 2747   4.761   4.341  10.227 -0.1553 -0.3130  0.4914
  247SOL    HW1 2748   4.688   4.302  10.274  1.1755 -0.9654  2.1008
  247SOL    HW2 2749   4.839   4.307  10.270  1.1050  1.5876 -0.1380
  248SOL     OW 2750   6.160   2.711   8.857  0.0996 -0.7620  0.1616
  248SOL    HW1 2751   6.139   2.757   8.776 -0.5085 -0.1510  0.6532
  248SOL    HW2 2752   6.090   2.646   8.866  1.4952 -2.4886 -1.0413
  249SOL     OW 2753   4.769   2.697   0.630 -0.4953  0.5125  0.2404
  249SOL    HW1 2754   4.818   2.762   0.680 -0.4386  0.7830 -0.1663
  249SOL    HW2 2755   4.798   2.708   0.540 -1.2065  0.5905  0.0110
  250SOL     OW 2756   8.925   4.008   0.377 -0.0122  0.5608 -0.3411
  250SOL    HW1 2757   9.010   3.989   0.337 -0.4715  0.9069 -1.5245
  250SOL    HW2 2758   8.884   3.923   0.389  0.5448  0.3766  0.3916
  251SOL     OW 2759   5.593   1.981   3.920  0.1868  0.0015  0.1365
  251SOL    HW1 2760   5.525   1.913   3.926  1.8283 -2.0195 -2.1075
  251SOL    HW2 2761   5.547   2.058   3.885 -1.4543 -0.3685  1.3509
  252SOL     OW 2762   2.741   2.269   4.692  0.2760  0.2882 -0.7501
  252SOL    HW1 2763   2.759   2.276   4.599 -1.3865 -0.6512 -1.1806
  252SOL    HW2 2764   2.648   2.292   4.701  0.5924  1.1231  0.7849
  253SOL     OW 2765  10.547   3.020   2.573 -0.6687  0.3337  0.2029
  253SOL    HW1 2766  10.494   3.094   2.543  0.4905  0.1016 -2.7865
  253SOL    HW2 2767  10.637   3.055   2.574 -0.0442 -1.0532 -1.6858
  254SOL     OW 2768   2.044   8.984   9.940  0.6335 -0.0072 -0.3073
  254SOL    HW1 2769   1.951   8.965   9.947  0.5057  0.9718  0.9134
  254SOL    HW2 2770   2.078   8.914   9.883 -0.4355 -1.6937  1.0092
  255SOL     OW 2771   8.593   4.775   5.285 -0.8321 -0.4790  0.7308
  255SOL    HW1 2772   8.585   4.728   5.203 -0.5611 -1.4274  1.2365
  255SOL    HW2 2773   8.685   4.763   5.311 -0.7321  0.3992  0.8344
  256SOL     OW 2774  10.339   0.075   3.805 -0.1195 -0.4924 -0.5987
  256SOL    HW1 2775  10.345   0.170   3.805  1.5298 -0.5734 -0.5750
  256SOL    HW2 2776  10.245   0.057   3.800 -0.6400  1.1105  1.7586
  257SOL     OW 2777   3.363   5.857  10.691 -0.3362 -0.1170 -0.1864
  257SOL    HW1 2778   3.337   5.867  10.782 -2.3291 -0.4650 -0.6653
  257SOL    HW2 2779   3.431   5.923  10.678  0.1582 -0.2286  1.5883
  258SOL     OW 2780   4.430  10.125   4.560 -0.4525  0.3987  0.1219
  258SOL    HW1 2781   4.409  10.202   4.508 -0.6292 -1.1672 -2.3270
  258SOL    HW2 2782   4.345  10.092   4.589 -0.6308 -0.3126 -1.1306
  259SOL     OW 2783   3.418   8.063   5.989  0.0424 -0.4044 -0.3878
  259SOL    HW1 2784   3.490   8.126   5.996 -1.0569  0.7502  1.7484
  259SOL    HW2 2785   3.388   8.070   5.899 -0.1644  2.3652 -0.2030
  260SOL     OW 2786  10.529   0.655   9.836  0.0256 -0.2163 -0.3543
  260SOL    HW1 2787  10.574   0.640   9.754 -0.7095  0.5404 -0.9073
  260SOL    HW2 2788  10.542   0.574   9.885 -1.6718 -1.7490 -2.2435
  261SOL     OW 2789   3.962   7.574   0.807  0.2033 -0.2315 -0.3000
  261SOL    HW1 2790   3.971   7.669   0.809 -2.6670  0.1564 -0.9658
  261SOL    HW2 2791   3.914   7.552   0.887  0.5735 -1.1177 -0.2993
  262SOL     OW 2792  11.023   6.194   8.761 -0.1753 -0.3031  0.4734
  262SOL    HW1 2793  11.055   6.166   8.675  0.1909 -0.1814  0.5682
  262SOL    HW2 2794  11.049   6.285   8.768  1.2473 -0.7530  1.3787
  263SOL     OW 2795   0.729   2.082   6.640 -0.4548 -0.8966  0.2776
  263SOL    HW1 2796   0.647   2.052   6.680  0.2289  0.1461  2.6140
  263SOL    HW2 2797   0.786   2.005   6.645 -0.7979 -1.1768  0.0261
  264SOL     OW 2798   7.340   8.589   7.622 -0.1053  0.4540  0.1276
  264SOL    HW1 2799   7.310   8.610   7.711 -0.8812 -1.3466  0.3351
  264SOL    HW2 2800   7.423   8.544   7.634 -0.8513 -0.9811  0.0598
  265SOL     OW 2801   0.669   6.816  10.081 -0.1628 -0.2169 -0.2149
  265SOL    HW1 2802   0.639   6.821  10.171  1.2600  1.3409  0.2204
  265SOL    HW2 2803   0.741   6.753  10.082 -1.0256 -1.2471 -0.5687
  266SOL     OW 2804   5.267   6.188   6.579 -0.6050 -0.4099  0.4191
  266SOL    HW1 2805   5.275   6.218   6.488  0.8673 -0.7972  0.3998
  266SOL    HW2 2806   5.190   6.235   6.613  0.2720  1.6788 -0.2892
  267SOL     OW 2807   1.792   9.519   4.842 -0.3643  0.1476  0.2919
  267SOL    HW1 2808   1.768   9.491   4.754 -0.9534  0.1999  0.4310
  267SOL    HW2 2809   1.819   9.611   4.832  1.6146 -0.4300 -0.1703
  268SOL     OW 2810   1.053  10.927   5.197  0.3072 -0.6592  0.1558
  268SOL    HW1 2811   1.103  10.862   5.246 -0.7419 -1.8037 -0.2480
  268SOL    HW2 2812   1.042  10.889   5.110 -2.9141 -1.4364  0.7704
  269SOL     OW 2813   1.989   8.229   6.997  0.2351 -0.6079 -0.1565
  269SOL    HW1 2814   2.044   8.249   6.921 -0.4469  1.2309 -0.2145
  269SOL    HW2 2815   2.049   8.191   7.061  1.6561  1.5263 -0.1389
  270SOL     OW 2816   9.444   9.336   6.457 -0.0786  0.0760  0.0514
  270SOL    HW1 2817   9.536   9.357   6.440 -0.5836  1.7064 -0.9359
  270SOL    HW2 2818   9.423   9.267   6.394  0.5499 -0.5662  0.5315
  271SOL     OW 2819   5.138   6.896   2.685 -0.0650 -0.0410 -0.0490
  271SOL    HW1 2820   5.096   6.971   2.729 -0.1878  1.4350 -2.5062
  271SOL    HW2 2821   5.065   6.845   2.649  0.0247  1.7115 -3.0282
  272SOL     OW 2822   6.173   1.622   0.775  0.4175  0.5898 -0.2951
  272SOL    HW1 2823   6.207   1.541   0.736  0.1065  0.6738 -0.7422
  272SOL    HW2 2824   6.079   1.619   0.759  0.2621  0.5663  0.5697
  273SOL     OW 2825   5.436   1.251   7.578  0.0054  0.3852 -0.2016
  273SOL    HW1 2826   5.511   1.295   7.618 -2.0269  1.8290  2.3615
  273SOL    HW2 2827   5.401   1.315   7.516 -0.7630  0.9688  0.7902
  274SOL     OW 2828   3.641   2.872   3.418  0.7484 -0.6046 -0.2093
  274SOL    HW1 2829   3.597   2.942   3.369  1.9705  1.0783  0.9848
  274SOL    HW2 2830   3.734   2.890   3.406  1.0795 -1.0602  1.4620
  275SOL     OW 2831   2.906   9.683   2.805 -0.3300 -0.0234 -0.1241
  275SOL    HW1 2832   2.999   9.706   2.797 -0.4989  0.1869 -1.8429
  275SOL    HW2 2833   2.907   9.594   2.840  0.5295 -0.0370 -0.1598
  276SOL     OW 2834   7.605   4.651   4.510 -0.3090  0.1881  0.8842
  276SOL    HW1 2835   7.544   4.608   4.450  0.7458 -0.3356  0.1637
  276SOL    HW2 2836   7.600   4.599   4.590  0.2813 -0.7652  0.3239
  277SOL     OW 2837   5.748   9.730   6.520 -0.3787 -0.0405 -0.1357
  277SOL    HW1 2838   5.758   9.762   6.610  0.3466 -0.2786 -0.1219
  277SOL    HW2 2839   5.714   9.806   6.471  0.4528  0.4867  0.0806
  278SOL     OW 2840   5.637   4.855   7.312  0.5975  0.5171  0.6786
  278SOL    HW1 2841   5.709   4.918   7.316  0.6242  0.5306  0.1435
  278SOL    HW2 2842   5.628   4.835   7.218  0.6952 -0.3977  0.8538
  279SOL     OW 2843   0.199   3.369   8.523  0.3528  0.7706 -0.3769
  279SOL    HW1 2844   0.109   3.401   8.524  0.5201  1.2452 -0.2672
  279SOL    HW2 2845   0.244   3.419   8.591  0.8781  1.0733 -0.9298
  280SOL     OW 2846   1.164   2.099   9.783  0.1915  0.1345  0.3574
  280SOL    HW1 2847   1.119   2.090   9.867  0.5825 -1.7693  0.3931
  280SOL    HW2 2848   1.117   2.041   9.724  0.0518  1.2979 -0.7276
  281SOL     OW 2849   5.967   8.183   6.724 -1.0739 -0.0302  0.3314
  281SOL    HW1 2850   6.024   8.206   6.650 -0.1956  0.2910  1.0888
  281SOL    HW2 2851   6.025   8.185   6.800 -1.7645 -1.2493  0.9178
  282SOL     OW 2852   3.659   0.820  10.078  0.0755  0.0777 -0.1156
  282SOL    HW1 2853   3.575   0.776  10.091  0.3091  0.1804  2.1306
  282SOL    HW2 2854   3.635   0.912  10.062 -0.2728  0.4688  2.2493
  283SOL     OW 2855   3.864   7.889  10.580 -0.0030 -0.1533 -0.1067
  283SOL    HW1 2856   3.901   7.962  10.530 -0.9467  0.9819  0.7943
  283SOL    HW2 2857   3.873   7.814  10.522  3.3525  0.0961 -0.0933
  284SOL     OW 2858  10.313   5.062   4.797 -0.2271  0.5996 -0.0160
  284SOL    HW1 2859  10.325   4.971   4.770 -0.5541  0.3235  0.7470
  284SOL    HW2 2860  10.353   5.113   4.727 -0.5458 -0.1128 -0.7309
  285SOL     OW 2861   5.756   6.416   6.665  0.5856 -0.1035  0.1045
  285SOL    HW1 2862   5.756   6.468   6.585 -2.6284 -1.4377 -0.9626
  285SOL    HW2 2863   5.727   6.477   6.733  1.1133  0.5126 -0.2156
  286SOL     OW 2864  10.459   4.021   4.987  0.3178  0.7234 -0.5907
  286SOL    HW1 2865  10.489   3.933   4.963 -1.5557 -0.0938 -0.1060
  286SOL    HW2 2866  10.407   4.050   4.912 -3.5964 -0.8852  1.2308
  287SOL     OW 2867   2.127   5.793   1.971  0.0213  0.5904 -0.1706
  287SOL    HW1 2868   2.208   5.832   1.938  0.2526 -0.3102 -0.7335
  287SOL    HW2 2869   2.066   5.866   1.980  0.9647  1.3233  0.4994
  288SOL     OW 2870   4.257   4.922   8.728  0.2633 -1.1675 -0.3584
  288SOL    HW1 2871   4.190   4.979   8.692  1.8126  0.4064 -0.8950
  288SOL    HW2 2872   4.238   4.836   8.691 -0.2690 -0.3288 -2.1279
  289SOL     OW 2873   4.782  10.795   6.398 -0.5095 -0.2291  0.4854
  289SOL    HW1 2874   4.865  10.811   6.442  0.2869  0.4367 -1.1686
  289SOL    HW2 2875   4.743  10.882   6.387 -1.2730 -0.5017  0.9317
  290SOL     OW 2876   5.967   6.229   3.216 -0.1176 -0.0879 -0.4734
  290SOL    HW1 2877   6.013   6.234   3.133  0.9214 -0.4991  0.0535
  290SOL    HW2 2878   6.010   6.157   3.263 -0.0157  0.7512  0.7958
  291SOL     OW 2879   8.222   7.915  10.278 -0.4766  0.1759  0.2840
  291SOL    HW1 2880   8.221   8.006  10.307  0.6677  0.3915 -0.2925
  291SOL    HW2 2881   8.152   7.909  10.214  0.8624  1.2572 -1.3511
  292SOL     OW 2882   7.412   1.048   5.861 -0.9780  0.1338 -0.7705
  292SOL    HW1 2883   7.396   1.019   5.950  0.3943 -0.3999 -0.6780
  292SOL    HW2 2884   7.447   0.971   5.815  0.2049  0.8993 -1.2208
  293SOL     OW 2885   9.906   1.939   2.735 -0.1558  0.1536  0.3405
  293SOL    HW1 2886   9.899   2.003   2.665  0.5654 -1.3264 -1.1506
  293SOL    HW2 2887   9.859   1.978   2.809 -1.9185  1.2825 -1.3051
  294SOL     OW 2888   0.452   7.127   4.645  0.1402  0.0526 -0.0429
  294SOL    HW1 2889   0.397   7.088   4.577 -0.0584 -0.5889  0.4708
  294SOL    HW2 2890   0.536   7.083   4.636  0.9069  1.6650 -1.4144
  295SOL     OW 2891   7.606   1.636   5.640  0.2892 -0.3967  0.3709
  295SOL    HW1 2892   7.576   1.621   5.550 -0.7380  0.8143  0.4837
  295SOL    HW2 2893   7.651   1.720   5.635  0.0535 -0.2310  1.0291
  296SOL     OW 2894   0.462   3.305  11.022 -0.3765  0.1212  0.0086
  296SOL    HW1 2895   0.373   3.310  10.989 -0.0831  0.5949 -0.7402
  296SOL    HW2 2896   0.453   3.306  11.117 -1.1841 -0.2318 -0.0589
  297SOL     OW 2897   3.013   7.590   3.845  0.0571 -0.4031  0.0574
  297SOL    HW1 2898   2.959   7.649   3.897  0.6091 -0.0742  0.2595
  297SOL    HW2 2899   3.019   7.633   3.759 -1.1612 -1.1228 -0.4230
  298SOL     OW 2900   0.554   2.690   7.478  0.4223 -0.4490 -0.5766
  298SOL    HW1 2901   0.554   2.597   7.500 -0.2691 -0.0897  1.0786
  298SOL    HW2 2902   0.614   2.730   7.542 -1.2420  0.5714  0.4119
  299SOL     OW 2903   3.172   1.605   1.103 -1.0237 -0.2508  0.4997
  299SOL    HW1 2904   3.189   1.541   1.034 -0.0480  0.3845  0.1365
  299SOL    HW2 2905   3.078   1.622   1.097 -1.1691 -1.1143  0.1472
  300SOL     OW 2906   0.028   7.692   0.213  0.0080  1.2030  0.5356
  300SOL    HW1 2907   0.038   7.636   0.136 -1.8925  1.3432  0.1293
  300SOL    HW2 2908  -0.004   7.775   0.178 -1.8634  0.9508  1.5202
  301SOL     OW 2909   5.926   7.063   6.249 -0.0342 -0.0028 -0.4548
  301SOL    HW1 2910   5.841   7.105   6.250  0.1417  0.3673 -0.9183
  301SOL    HW2 2911   5.988   7.133   6.268  0.1523 -0.3041  0.0583
  302SOL     OW 2912  10.634   6.126   5.566 -0.4864  0.6437  0.3397
  302SOL    HW1 2913  10.595   6.039   5.566 -0.7145  0.7242 -0.8592
  302SOL    HW2 2914  10.614   6.161   5.479  2.6625  0.4869 -0.5771
  303SOL     OW 2915   2.346   6.726  10.150 -0.3286 -0.3030  0.0426
  303SOL    HW1 2916   2.264   6.742  10.103 -1.4094 -2.9228  0.8289
  303SOL    HW2 2917   2.320   6.723  10.242  0.7738 -0.5347  0.3575
  304SOL     OW 2918   6.889   4.170   0.873 -0.0032 -0.2822 -0.2925
  304SOL    HW1 2919   6.968   4.214   0.903  0.9881 -0.8774 -1.9285
  304SOL    HW2 2920   6.916   4.120   0.796 -2.1464  0.2386 -1.4855
  305SOL     OW 2921   6.709   4.257   7.915 -0.0356 -0.0217  0.5593
  305SOL    HW1 2922   6.732   4.241   7.823  1.5940  1.2912  0.6825
  305SOL    HW2 2923   6.757   4.189   7.963 -1.2941 -1.0300  0.4451
  306SOL     OW 2924   0.841  10.409   7.198  0.2606 -0.2011 -0.5192
  306SOL    HW1 2925   0.930  10.385   7.222  0.1594  0.0170  0.0930
  306SOL    HW2 2926   0.824  10.491   7.246 -0.4491 -0.5210 -0.1987
  307SOL     OW 2927   5.890   3.345   3.732 -0.4095 -0.0859  0.5877
  307SOL    HW1 2928   5.920   3.419   3.785  1.2331  2.8257 -3.8521
  307SOL    HW2 2929   5.797   3.363   3.717 -0.4366  0.0951  0.9621
  308SOL     OW 2930   9.031   5.603  10.783  0.8632 -0.3040  0.3690
  308SOL    HW1 2931   9.012   5.585  10.875  0.9386 -0.9642  0.2621
  308SOL    HW2 2932   9.103   5.666  10.785 -0.4028  1.1893  0.7612
  309SOL     OW 2933   0.062   4.666   3.123  0.5416 -0.0827 -0.2139
  309SOL    HW1 2934   0.137   4.655   3.181  0.0990 -1.4937  0.1341
  309SOL    HW2 2935  -0.002   4.715   3.174  0.8407  0.2452 -0.1549
  310SOL     OW 2936   6.492   7.704   1.782  0.4701 -0.8317 -0.0123
  310SOL    HW1 2937   6.455   7.642   1.846 -0.5027  0.7530  1.0148
  310SOL    HW2 2938   6.428   7.706   1.711  0.7098 -1.2936 -0.2498
  311SOL     OW 2939   6.775   1.611   5.208  0.1925 -0.1641  0.0648
  311SOL    HW1 2940   6.772   1.543   5.141  0.0431  0.2093 -0.3099
  311SOL    HW2 2941   6.710   1.675   5.180  1.2202  0.7609 -0.2744
  312SOL     OW 2942   2.191   8.347   4.382 -0.1720  0.3682  0.1232
  312SOL    HW1 2943   2.100   8.321   4.397  0.4825 -2.1575  0.1076
  312SOL    HW2 2944   2.233   8.335   4.467  0.8398 -1.8832 -0.6187
  313SOL     OW 2945   8.704   4.924   4.953 -0.1350  0.8143  0.0077
  313SOL    HW1 2946   8.784   4.934   5.004 -0.2475  1.5651  0.0508
  313SOL    HW2 2947   8.734   4.931   4.862 -0.2743  2.2471  0.0404
  314SOL     OW 2948   7.147   8.604   8.238 -0.0006  0.2252  0.9908
  314SOL    HW1 2949   7.095   8.566   8.309 -0.1198  1.3076  1.5057
  314SOL    HW2 2950   7.123   8.697   8.238  1.3399  0.5918  0.7231
  315SOL     OW 2951   6.272  10.428  10.303  0.0156 -0.2945  0.1074
  315SOL    HW1 2952   6.344  10.485  10.330 -0.8426  0.4503  0.9340
  315SOL    HW2 2953   6.225  10.479  10.237  0.1391 -0.6991 -0.2935
  316SOL     OW 2954   1.386  10.653   4.196  0.3724  0.3807  0.2609
  316SOL    HW1 2955   1.359  10.742   4.175 -4.8743 -0.5597  1.5465
  316SOL    HW2 2956   1.362  10.602   4.118 -1.2096 -0.4413  1.2262
  317SOL     OW 2957   8.121  10.658   1.837  0.7756 -0.2178  0.3638
  317SOL    HW1 2958   8.050  10.673   1.900  1.3237 -0.6992  1.1161
  317SOL    HW2 2959   8.134  10.563   1.839  1.6032 -0.1049  0.4051
  318SOL     OW 2960   2.182  10.670   3.642  0.0698 -0.4903  0.3710
  318SOL    HW1 2961   2.201  10.581   3.671  0.5043 -0.5590 -0.0963
  318SOL    HW2 2962   2.191  10.724   3.721  1.6042 -0.6160  0.3156
  319SOL     OW 2963   9.114   2.544   9.374 -0.5523  0.1222 -0.0880
  319SOL    HW1 2964   9.038   2.578   9.421 -0.8029  0.9822 -1.0552
  319SOL    HW2 2965   9.080   2.468   9.326 -1.0228  0.9526 -1.1200
  320SOL     OW 2966   1.207   1.702   8.402 -0.2002  0.1588  0.6428
  320SOL    HW1 2967   1.261   1.623   8.412 -0.8501 -0.5478 -0.9923
  320SOL    HW2 2968   1.130   1.685   8.456 -0.7838 -0.7773 -0.4569
  321SOL     OW 2969   1.668   1.895   7.338 -0.4197  0.8750  0.4228
  321SOL    HW1 2970   1.666   1.807   7.301 -1.8047  0.2300  1.8785
  321SOL    HW2 2971   1.742   1.894   7.398  1.8753  1.9459 -2.1802
  322SOL     OW 2972   1.037   1.551   3.244  0.5831 -0.6321  0.1117
  322SOL    HW1 2973   1.007   1.530   3.332  0.6275 -0.6536  0.1220
  322SOL    HW2 2974   1.053   1.465   3.203 -1.4730 -0.7253 -0.6451
  323SOL     OW 2975   7.607   9.160   1.977 -0.3783 -0.0550  0.1213
  323SOL    HW1 2976   7.523   9.131   2.013 -1.2008  0.7832 -1.0521
  323SOL    HW2 2977   7.637   9.086   1.923 -0.4353 -0.2923  0.4102
  324SOL     OW 2978   4.917   5.045   5.114 -0.3881 -0.2288  0.2526
  324SOL    HW1 2979   4.904   5.052   5.020 -0.0606  1.6794  0.3006
  324SOL    HW2 2980   5.012   5.032   5.124 -0.3690 -0.0516  0.3162
  325SOL     OW 2981   6.386   2.328   4.190 -0.5767  0.7288 -0.3707
  325SOL    HW1 2982   6.418   2.237   4.188 -1.2073  0.4295  1.2821
  325SOL    HW2 2983   6.456   2.379   4.151  0.1437 -0.3780 -0.5826
  326SOL     OW 2984  10.677   7.581   1.407 -0.3910 -0.4661  0.1863
  326SOL    HW1 2985  10.712   7.636   1.337 -0.6310 -1.7633 -0.9987
  326SOL    HW2 2986  10.624   7.515   1.362  1.3107 -2.7813  1.3305
  327SOL     OW 2987   7.155   9.336   7.608 -0.0057  0.1602 -0.0865
  327SOL    HW1 2988   7.089   9.371   7.668 -0.1742  0.4910 -0.4596
  327SOL    HW2 2989   7.105   9.293   7.539  0.1974 -0.7141  0.2970
  328SOL     OW 2990   8.513   3.898   9.923 -0.1372  0.1379 -0.0539
  328SOL    HW1 2991   8.526   3.990   9.944 -0.5763 -0.0314  1.0278
  328SOL    HW2 2992   8.470   3.861  10.000 -0.0115 -0.9638 -0.4848
  329SOL     OW 2993   6.013  10.380   2.947  0.4343 -0.0936 -0.4818
  329SOL    HW1 2994   6.052  10.466   2.963  0.5773 -0.3996  0.9252
  329SOL    HW2 2995   5.919  10.396   2.943  0.4291  0.0668  0.2306
  330SOL     OW 2996   0.469   3.892   4.698  0.2387 -0.5562  0.7659
  330SOL    HW1 2997   0.403   3.825   4.681 -0.5954  0.4343 -0.0302
  330SOL    HW2 2998   0.422   3.960   4.746 -0.0284  1.2527 -1.8152
  331SOL     OW 2999   4.513   8.491   3.489  0.1132 -0.2175  0.0757
  331SOL    HW1 3000   4.591   8.467   3.539 -0.1195 -1.3511 -0.0820
  331SOL    HW2 3001   4.487   8.410   3.445 -0.8691  0.2690 -0.2576
  332SOL     OW 3002   5.604   2.690   5.653  0.3205  0.6117 -0.0909
  332SOL    HW1 3003   5.581   2.615   5.708  0.2062  1.0251  0.4337
  332SOL    HW2 3004   5.556   2.675   5.571 -1.5335  1.2234  0.8080
  333SOL     OW 3005   4.343   4.490  10.322  0.0722 -0.3908 -0.0435
  333SOL    HW1 3006   4.305   4.512  10.406 -0.4097  0.4700 -0.4717
  333SOL    HW2 3007   4.437   4.506  10.333 -0.3299  3.0081 -0.6078
  334SOL     OW 3008   9.857   0.266   5.508  0.1636 -0.5351 -0.5532
  334SOL    HW1 3009   9.792   0.264   5.438 -0.0099 -1.6535 -0.3843
  334SOL    HW2 3010   9.940   0.284   5.464 -0.2231  0.8224 -0.7822
  335SOL     OW 3011   8.555   6.118   8.019 -0.0373 -0.2131  0.2263
  335SOL    HW1 3012   8.537   6.024   8.019 -0.5944 -0.1166  1.3318
  335SOL    HW2 3013   8.647   6.125   8.045  0.2493 -0.4815 -0.6807
  336SOL     OW 3014   3.667   2.999   6.516  0.7123  0.0188  0.0229
  336SOL    HW1 3015   3.617   3.081   6.512  1.3257  0.3417 -1.5770
  336SOL    HW2 3016   3.642   2.961   6.600 -1.5275  0.6012 -0.3057
  337SOL     OW 3017   6.241   6.735   6.549  0.0932  0.4719  0.0918
  337SOL    HW1 3018   6.209   6.802   6.610  1.4371  2.0391 -0.8745
  337SOL    HW2 3019   6.161   6.700   6.509 -0.6503  1.4904  0.6175
  338SOL     OW 3020   0.456   5.078  10.165  0.0519 -0.3325  0.1190
  338SOL    HW1 3021   0.377   5.132  10.163 -0.0409 -0.4864 -1.3581
  338SOL    HW2 3022   0.451   5.032  10.248 -2.2518 -1.5689 -0.6116
  339SOL     OW 3023  10.943   3.559   0.286 -0.2573  0.0859 -0.2051
  339SOL    HW1 3024  11.019   3.521   0.241 -0.6651 -2.1842  0.8499
  339SOL    HW2 3025  10.976   3.583   0.373 -0.3345  0.8077 -0.3767
  340SOL     OW 3026   6.129   2.040   1.702 -0.1820 -0.2834  0.0277
  340SOL    HW1 3027   6.038   2.013   1.702 -0.0092 -0.8993 -0.2583
  340SOL    HW2 3028   6.175   1.971   1.751 -0.0510  0.7087  1.3586
  341SOL     OW 3029   4.359   1.871   8.419 -0.3587  0.1609  0.2081
  341SOL    HW1 3030   4.359   1.940   8.486 -0.6346  1.3657 -0.9809
  341SOL    HW2 3031   4.391   1.915   8.340  1.4518 -1.6056 -0.1105
  342SOL     OW 3032   6.234   9.951   9.334  0.5147  0.1807 -0.0818
  342SOL    HW1 3033   6.230   9.869   9.284 -0.4045  0.7290 -0.9517
  342SOL    HW2 3034   6.318   9.947   9.380  0.6181 -1.1126 -0.3441
  343SOL     OW 3035   7.625   9.024   1.582  0.1562 -0.1209  0.3499
  343SOL    HW1 3036   7.651   9.023   1.490 -1.2206  0.6619 -0.0803
  343SOL    HW2 3037   7.531   9.041   1.580 -0.5338 -3.1236  1.8099
  344SOL     OW 3038   6.842   4.641   4.584 -0.2035 -0.2509 -0.0759
  344SOL    HW1 3039   6.761   4.590   4.583 -0.6094  0.3498  0.7139
  344SOL    HW2 3040   6.872   4.636   4.675  0.5439 -0.2981 -0.3180
  345SOL     OW 3041   8.896   8.809   4.856  0.1241 -0.2668  0.8638
  345SOL    HW1 3042   8.814   8.834   4.815 -0.6294 -1.3127  1.6876
  345SOL    HW2 3043   8.918   8.883   4.913  0.4374  0.5663 -0.3074
  346SOL     OW 3044   8.136   8.507   4.695 -0.5675 -0.1705 -0.1768
  346SOL    HW1 3045   8.047   8.542   4.690  0.0786  1.4216 -1.3042
  346SOL    HW2 3046   8.171   8.543   4.777 -1.4096 -1.9979  1.0270
  347SOL     OW 3047   1.047   2.372   2.131 -0.3769 -0.3368  0.0108
  347SOL    HW1 3048   0.964   2.345   2.093  0.1218 -1.6071 -0.2108
  347SOL    HW2 3049   1.046   2.468   2.125 -2.4033 -0.2204  1.2805
  348SOL     OW 3050   9.464   1.612   5.123 -0.0460  0.9456 -0.1031
  348SOL    HW1 3051   9.493   1.704   5.121 -1.0437  1.3836  2.3013
  348SOL    HW2 3052   9.403   1.608   5.196  1.1714 -2.0318  0.8864
  349SOL     OW 3053   6.086  10.230   2.232  0.0018  0.0952 -0.1594
  349SOL    HW1 3054   5.992  10.221   2.241 -0.1184  0.7821 -0.7135
  349SOL    HW2 3055   6.121  10.207   2.318 -0.6724 -0.0605  0.0718
  350SOL     OW 3056   1.965   0.294   7.817 -0.3179  0.0121  0.3082
  350SOL    HW1 3057   1.993   0.338   7.737  0.1941  0.4801  0.7325
  350SOL    HW2 3058   2.023   0.329   7.885  0.1948 -1.4171  0.6402
  351SOL     OW 3059   4.659   0.040   2.271 -0.2032 -0.3444  0.0000
  351SOL    HW1 3060   4.735   0.097   2.261 -1.7614  1.6430 -1.0671
  351SOL    HW2 3061   4.681  -0.038   2.220  1.4521 -0.2338  0.4583
  352SOL     OW 3062   1.133   7.521   2.391  0.2008  0.6549  0.3154
  352SOL    HW1 3063   1.186   7.446   2.417  1.9234  0.6519 -2.6786
  352SOL    HW2 3064   1.145   7.584   2.462 -2.0066 -2.0148  3.3665
  353SOL     OW 3065   3.510  10.344   2.298 -0.0888 -0.7770 -0.3051
  353SOL    HW1 3066   3.595  10.308   2.324  0.7294 -0.4364 -2.3429
  353SOL    HW2 3067   3.524  10.438   2.293 -1.4692 -0.3152  2.2540
  354SOL     OW 3068   6.330   7.720   9.816 -0.0972 -0.1808 -0.9314
  354SOL    HW1 3069   6.252   7.712   9.762 -0.4911  2.2726 -0.8339
  354SOL    HW2 3070   6.344   7.632   9.851 -2.8693 -0.6822 -0.8588
  355SOL     OW 3071   1.311  10.725   2.492  0.1689  0.5434 -0.1187
  355SOL    HW1 3072   1.231  10.674   2.503  0.3115  0.2521 -0.4339
  355SOL    HW2 3073   1.378  10.676   2.540  0.5844 -0.2385 -1.4353
  356SOL     OW 3074   7.638   3.843   7.345 -0.6380 -0.1902  0.4940
  356SOL    HW1 3075   7.732   3.853   7.358 -0.7085  0.4776  0.5298
  356SOL    HW2 3076   7.626   3.749   7.329  0.0418 -0.2669  0.3922
  357SOL     OW 3077   5.401   8.990   1.493  0.3601 -0.5307  0.2135
  357SOL    HW1 3078   5.494   9.008   1.503  0.6250 -0.2229 -2.1206
  357SOL    HW2 3079   5.390   8.900   1.524  1.8075 -1.1879 -1.0521
  358SOL     OW 3080   1.047  10.718   0.280  0.0344  0.4213  0.6492
  358SOL    HW1 3081   0.953  10.726   0.269  0.0553 -0.6338 -0.5159
  358SOL    HW2 3082   1.058  10.643   0.338  0.1749 -0.7838 -0.8782
  359SOL     OW 3083   1.280   2.990   8.433 -0.1446  0.4603  0.6111
  359SOL    HW1 3084   1.225   2.940   8.493  0.8350  0.1944  1.3126
  359SOL    HW2 3085   1.281   3.079   8.470  3.5153 -0.4679  3.3294
  360SOL     OW 3086   4.610   9.639   7.509 -0.1240  0.0534  0.0541
  360SOL    HW1 3087   4.632   9.593   7.428 -0.1812  1.4795 -0.8124
  360SOL    HW2 3088   4.517   9.621   7.523 -0.1036 -0.2234 -0.1735
  361SOL     OW 3089  10.942   8.547   1.032  0.8400 -0.2075  0.2171
  361SOL    HW1 3090  10.946   8.599   0.952  1.1215  0.0052  0.3668
  361SOL    HW2 3091  10.979   8.462   1.007 -1.7177 -1.1525 -0.6355
  362SOL     OW 3092   4.780   8.071   7.693 -0.3241  0.3769  0.6020
  362SOL    HW1 3093   4.810   8.161   7.677 -0.8762  0.7391  1.5569
  362SOL    HW2 3094   4.713   8.056   7.627  0.9221  0.0490 -0.6571
  363SOL     OW 3095   9.444   0.482   4.622  0.2956  0.3565 -0.4932
  363SOL    HW1 3096   9.360   0.465   4.579  0.5968  1.9301 -1.8196
  363SOL    HW2 3097   9.509   0.439   4.565  0.4905  0.2797 -0.2126
  364SOL     OW 3098   0.866   4.093   3.911  0.0066  0.0687  0.2421
  364SOL    HW1 3099   0.788   4.107   3.857 -1.2392  0.1796  1.9615
  364SOL    HW2 3100   0.880   3.999   3.911  0.8602  0.1702 -1.3398
  365SOL     OW 3101   4.003   0.028   6.704 -0.3975  0.3452  0.0414
  365SOL    HW1 3102   4.042  -0.019   6.630  0.5303  0.4878  0.4340
  365SOL    HW2 3103   4.065   0.099   6.723 -0.9884  0.7488  0.4891
  366SOL     OW 3104   6.531   3.736   3.665  0.2380  0.0273 -0.1482
  366SOL    HW1 3105   6.524   3.669   3.734 -0.7789  0.7729  0.5049
  366SOL    HW2 3106   6.569   3.812   3.709  0.4459  0.2107 -0.6424
  367SOL     OW 3107   5.968   0.494   2.915 -0.2189  0.1479 -0.0292
  367SOL    HW1 3108   5.875   0.472   2.919  0.2186 -2.3891 -1.4108
  367SOL    HW2 3109   5.994   0.473   2.826  1.7583  0.4806  0.4153
  368SOL     OW 3110   3.201   1.216   8.371 -0.2158 -0.0935 -0.5472
  368SOL    HW1 3111   3.187   1.228   8.465 -0.9901 -0.4240 -0.6125
  368SOL    HW2 3112   3.207   1.305   8.336  0.8419  0.0271 -0.0828
  369SOL     OW 3113  10.979   7.559   2.437 -0.7007  0.1999 -0.9948
  369SOL    HW1 3114  10.974   7.524   2.525 -2.2535  0.2950 -1.0186
  369SOL    HW2 3115  11.019   7.489   2.385  0.0629  0.0801 -0.2754
  370SOL     OW 3116   5.670   9.909   6.087 -0.3074  0.1737  0.1549
  370SOL    HW1 3117   5.647   9.995   6.122  0.4843 -0.0243  1.1761
  370SOL    HW2 3118   5.761   9.896   6.111 -0.4862 -1.0616  0.2378
  371SOL     OW 3119   6.139   9.887  10.384  0.0079 -0.2143 -0.1789
  371SOL    HW1 3120   6.156   9.981  10.378 -0.7709  0.0109  0.8612
  371SOL    HW2 3121   6.202   9.856  10.450 -0.4241 -0.2279  0.2317
  372SOL     OW 3122   0.005   8.809   4.872 -0.5289  0.2858 -0.0206
  372SOL    HW1 3123   0.037   8.817   4.782 -0.3941 -0.3497 -0.0410
  372SOL    HW2 3124   0.039   8.724   4.901 -0.3806  0.5914  0.7076
  373SOL     OW 3125   9.807   2.364   5.829  0.1038 -0.2630  0.1834
  373SOL    HW1 3126   9.882   2.371   5.887  0.7272 -1.2741 -0.4624
  373SOL    HW2 3127   9.845   2.343   5.743 -0.8912 -0.3228 -0.2588
  374SOL     OW 3128   4.007   4.230   1.804  0.1486 -0.0999  0.2814
  374SOL    HW1 3129   4.074   4.299   1.807  1.6446 -1.4842  0.0347
  374SOL    HW2 3130   4.055   4.151   1.780 -1.7756 -0.9461 -1.0692
  375SOL     OW 3131   3.251  10.241   9.852  0.3025 -0.1252 -0.5170
  375SOL    HW1 3132   3.295  10.291   9.783 -0.4117  1.4631  0.1279
  375SOL    HW2 3133   3.158  10.250   9.831  0.1239 -0.3733  0.1618
  376SOL     OW 3134   6.349   8.624   6.088  0.1350 -0.2597 -0.2514
  376SOL    HW1 3135   6.272   8.638   6.033  1.2807 -0.9242 -2.1420
  376SOL    HW2 3136   6.362   8.529   6.086 -0.4599 -0.4740  2.2353
  377SOL     OW 3137   8.932   6.446   4.134 -0.1216  0.0937  0.5903
  377SOL    HW1 3138   8.883   6.480   4.058  0.6683 -2.7618 -1.3728
  377SOL    HW2 3139   9.023   6.467   4.115 -0.0879  1.4723  2.0414
  378SOL     OW 3140   4.989   1.067   1.724  0.3345  0.0287 -0.0624
  378SOL    HW1 3141   4.987   1.010   1.647 -0.9032 -1.2108  0.8514
  378SOL    HW2 3142   4.897   1.089   1.741  0.6783  1.2030  0.4207
  379SOL     OW 3143   0.074   2.221   7.652 -0.1582 -0.2609  0.4759
  379SOL    HW1 3144   0.040   2.169   7.725  1.7701 -0.7463  1.0874
  379SOL    HW2 3145   0.102   2.303   7.693  0.4324 -0.3237  0.2016
  380SOL     OW 3146   9.962   8.058   8.230 -0.0094 -0.0399  0.2009
  380SOL    HW1 3147   9.968   7.973   8.186  0.4464  0.5568 -0.9488
  380SOL    HW2 3148   9.877   8.058   8.273  0.9284 -1.9964  2.2401
  381SOL     OW 3149   8.652  10.992   3.463 -0.3005 -0.5850  0.4829
  381SOL    HW1 3150   8.689  10.984   3.375  0.8583 -1.2005  0.9946
  381SOL    HW2 3151   8.705  10.932   3.516  0.5452  1.4289  2.0559
  382SOL     OW 3152  10.840   5.267   1.577  0.1359 -0.8707  0.7346
  382SOL    HW1 3153  10.755   5.307   1.561  0.8756  0.4930  0.0128
  382SOL    HW2 3154  10.875   5.314   1.653  1.7428  1.1873 -1.1520
  383SOL     OW 3155   1.135   9.470   9.645 -0.7201 -0.8080 -0.3693
  383SOL    HW1 3156   1.223   9.503   9.664 -1.0486 -0.8219  1.3870
  383SOL    HW2 3157   1.141   9.375   9.660 -1.2182 -0.6944  0.6852
  384SOL     OW 3158   0.663   5.537   9.879 -0.0842 -0.0068  0.1179
  384SOL    HW1 3159   0.581   5.500   9.911 -0.3742  1.4043  1.1311
  384SOL    HW2 3160   0.721   5.534   9.955  0.0081  1.2002  0.1105
  385SOL     OW 3161   4.992   3.805   6.874 -0.7270 -0.5711 -0.0192
  385SOL    HW1 3162   4.975   3.763   6.959  0.5018 -1.2038 -0.0622
  385SOL    HW2 3163   5.087   3.802   6.865 -0.8461 -0.6085 -1.4757
  386SOL     OW 3164   5.632   6.254   5.623  0.2399 -0.5153 -0.0218
  386SOL    HW1 3165   5.570   6.248   5.695 -1.3247 -1.8207 -1.4137
  386SOL    HW2 3166   5.650   6.163   5.600  3.5606 -0.2589  0.9848
  387SOL     OW 3167   5.946   9.445   9.095  0.0319 -0.0422 -0.2416
  387SOL    HW1 3168   6.019   9.450   9.157 -0.5133  0.6205  0.3606
  387SOL    HW2 3169   5.868   9.441   9.150 -0.3542 -2.0379 -0.8447
  388SOL     OW 3170   8.247   0.572   9.080  0.0325  0.0739 -0.7663
  388SOL    HW1 3171   8.167   0.624   9.089 -1.7424 -2.7705  2.6984
  388SOL    HW2 3172   8.228   0.510   9.010 -0.7177 -0.3707 -0.1808
  389SOL     OW 3173   4.823   7.275   5.793  0.1496  0.0270 -0.0010
  389SOL    HW1 3174   4.848   7.367   5.804  0.1000  0.1674 -0.9529
  389SOL    HW2 3175   4.871   7.229   5.862  1.6399  0.5385 -0.6514
  390SOL     OW 3176   6.049   9.077   7.942  0.1679  0.4584 -0.0787
  390SOL    HW1 3177   6.052   9.160   7.895  3.0895  0.4006 -0.1832
  390SOL    HW2 3178   6.005   9.097   8.024  1.8020  2.4664  0.4003
  391SOL     OW 3179   0.415  10.315   8.727 -0.7177  0.7660  0.1228
  391SOL    HW1 3180   0.325  10.296   8.755 -1.3278  2.8369 -0.2715
  391SOL    HW2 3181   0.467  10.303   8.806 -1.0289 -1.9277  0.0300
  392SOL     OW 3182   9.128   4.925   9.376  0.3510  0.8961 -0.3516
  392SOL    HW1 3183   9.201   4.922   9.438 -1.5662  1.4029  2.1153
  392SOL    HW2 3184   9.082   4.843   9.390 -0.6757  1.4585 -0.3514
  393SOL     OW 3185   2.941   8.329   0.095 -0.0405  0.2853 -0.1876
  393SOL    HW1 3186   3.014   8.284   0.137  0.8366  1.6812 -0.1542
  393SOL    HW2 3187   2.982   8.394   0.038 -1.2552  0.9954 -0.2903
  394SOL     OW 3188   8.551   5.509   1.752  0.1019  0.4641 -0.2708
  394SOL    HW1 3189   8.620   5.531   1.815  0.6205  0.7603 -0.9412
  394SOL    HW2 3190   8.561   5.572   1.681 -1.6502  1.3221  0.1895
  395SOL     OW 3191   7.868   3.561   6.727  0.0358  0.1249 -0.0989
  395SOL    HW1 3192   7.864   3.466   6.716  0.3411  0.2736 -1.8791
  395SOL    HW2 3193   7.962   3.580   6.729 -0.0224  0.3687  0.7090
  396SOL     OW 3194  10.070   4.003   5.500 -0.0461 -0.5612  1.0406
  396SOL    HW1 3195  10.091   4.070   5.436  1.0011 -0.2582  1.6846
  396SOL    HW2 3196  10.075   3.921   5.452  0.3206 -0.3050  0.6377
  397SOL     OW 3197   7.961   0.976   4.108  0.5751 -0.1244  0.1540
  397SOL    HW1 3198   7.914   0.900   4.075 -2.6710  1.4393  0.8211
  397SOL    HW2 3199   7.969   0.960   4.202 -0.9760  0.6946  0.4593
  398SOL     OW 3200   9.726   6.920   7.362 -0.1985  0.3058  0.2934
  398SOL    HW1 3201   9.661   6.880   7.419 -0.8269  1.8818  0.7246
  398SOL    HW2 3202   9.807   6.918   7.413  0.0321 -1.2300 -0.0650
  399SOL     OW 3203   9.898   8.340   6.126 -0.4369 -0.1308  0.0448
  399SOL    HW1 3204   9.829   8.293   6.173  0.1723 -0.9258  0.1685
  399SOL    HW2 3205   9.870   8.432   6.128 -0.1184  0.0076  2.5885
  400SOL     OW 3206   4.119   3.152   0.240 -0.1331 -0.5671 -0.3799
  400SOL    HW1 3207   4.052   3.169   0.174 -0.4028 -1.0038 -0.2220
  400SOL    HW2 3208   4.116   3.057   0.253  0.3354 -0.5587 -0.1802
  401SOL     OW 3209   5.413   1.037   1.016  0.1831 -0.2666  0.0979
  401SOL    HW1 3210   5.478   0.967   1.013 -0.5371 -0.9425 -0.1300
  401SOL    HW2 3211   5.368   1.024   1.099  0.4346  0.2931  0.3237
  402SOL     OW 3212   7.379   9.096   6.222  0.0989  0.0735  0.2976
  402SOL    HW1 3213   7.405   9.035   6.153  1.6021 -0.5018  1.3025
  402SOL    HW2 3214   7.414   9.180   6.193  1.2555 -0.2813  0.6023
  403SOL     OW 3215   5.630   5.635   9.522  0.4395  0.4893  0.4632
  403SOL    HW1 3216   5.569   5.641   9.448 -0.2124  0.6867  1.0074
  403SOL    HW2 3217   5.679   5.554   9.506  0.2119  0.4567 -0.1103
  404SOL     OW 3218   6.788   2.840  10.047 -0.4464 -0.1287 -0.0131
  404SOL    HW1 3219   6.722   2.898  10.006 -0.6871 -0.8866 -0.7294
  404SOL    HW2 3220   6.868   2.892  10.048 -0.3722 -0.1430 -1.6920
  405SOL     OW 3221   3.203   2.806   0.530  0.0568 -0.2588 -0.0210
  405SOL    HW1 3222   3.219   2.765   0.446 -1.8147 -0.4682 -0.3212
  405SOL    HW2 3223   3.233   2.896   0.520 -0.7850 -0.0900 -1.1613
  406SOL     OW 3224   3.353   3.361   6.900  0.4162  0.0605 -0.4951
  406SOL    HW1 3225   3.298   3.436   6.922 -0.9337 -0.6165 -1.4870
  406SOL    HW2 3226   3.429   3.399   6.857  0.3740  0.9490  0.1880
  407SOL     OW 3227   4.178   3.403  10.037  0.6525  0.3788  0.0310
  407SOL    HW1 3228   4.155   3.451  10.116 -0.9098  0.3010 -0.3342
  407SOL    HW2 3229   4.094   3.374  10.002  1.4811 -2.0891 -0.0998
  408SOL     OW 3230   6.019   2.955   0.607 -0.1010 -0.0214  0.3563
  408SOL    HW1 3231   5.975   2.990   0.684  0.1450 -1.0637  0.9935
  408SOL    HW2 3232   5.976   2.997   0.533 -1.1037  0.1426  1.0204
  409SOL     OW 3233   7.714   7.547  10.451 -0.3245  0.3016 -0.0550
  409SOL    HW1 3234   7.731   7.516  10.540  0.3701 -0.7030 -0.5171
  409SOL    HW2 3235   7.720   7.468  10.396 -2.3404  0.6075 -0.8095
  410SOL     OW 3236   0.590   7.274   2.612  0.1123 -0.2892  0.1531
  410SOL    HW1 3237   0.534   7.278   2.535 -0.5434  0.6670  0.6638
  410SOL    HW2 3238   0.678   7.296   2.580  0.2707 -2.0073 -0.6925
  411SOL     OW 3239   4.824   5.459   5.093 -0.3000  0.8852 -0.0382
  411SOL    HW1 3240   4.876   5.424   5.021  2.0887  1.9673  1.0659
  411SOL    HW2 3241   4.850   5.408   5.169 -0.7103  1.5834  0.5830
  412SOL     OW 3242   7.291   0.046   1.931 -0.0698  0.0266  0.1164
  412SOL    HW1 3243   7.283   0.102   1.854 -0.8707 -0.7106 -0.3529
  412SOL    HW2 3244   7.354  -0.021   1.905 -1.8063 -1.3835 -0.6493
  413SOL     OW 3245   7.714   7.496   4.189  0.2255  0.1306 -0.3947
  413SOL    HW1 3246   7.783   7.471   4.251 -0.2767 -1.3741 -0.4030
  413SOL    HW2 3247   7.748   7.575   4.147  1.6823 -0.2271  0.0228
  414SOL     OW 3248   7.010   0.193   7.074 -0.5230 -0.6631 -0.1246
  414SOL    HW1 3249   6.995   0.170   7.165 -0.2351  0.9728  0.3686
  414SOL    HW2 3250   7.104   0.213   7.069 -0.4329 -1.1987 -0.9096
  415SOL     OW 3251   3.107   6.270   6.622 -0.1444  0.6159 -0.0059
  415SOL    HW1 3252   3.131   6.268   6.715  1.8723  1.2227 -0.4707
  415SOL    HW2 3253   3.081   6.361   6.606 -0.7432  0.4509  0.0103
  416SOL     OW 3254   3.880   2.932   0.127 -0.1763  0.3340 -0.2014
  416SOL    HW1 3255   3.882   3.016   0.081 -2.0224  1.9217  2.3245
  416SOL    HW2 3256   3.971   2.902   0.126  0.7295  2.8313 -0.4679
  417SOL     OW 3257   8.462  10.056   7.095 -0.0415 -0.1148  0.0648
  417SOL    HW1 3258   8.409   9.995   7.146 -0.4695 -2.3959 -2.8202
  417SOL    HW2 3259   8.406  10.133   7.084 -0.5932 -0.2834  1.4872
  418SOL     OW 3260   7.854   5.575   6.831 -0.2282 -0.0561 -0.1375
  418SOL    HW1 3261   7.782   5.637   6.846  0.9832  1.4438 -0.2577
  418SOL    HW2 3262   7.877   5.544   6.918 -1.1285 -0.6963 -0.1149
  419SOL     OW 3263  10.564  10.739   7.168  0.6063 -0.7116  0.4221
  419SOL    HW1 3264  10.635  10.677   7.185  0.6249 -0.6155  0.7176
  419SOL    HW2 3265  10.485  10.695   7.199  0.4418 -1.0735 -0.4981
  420SOL     OW 3266   7.272   0.920  10.800 -0.5316  0.0037  0.6406
  420SOL    HW1 3267   7.319   0.977  10.862  0.0962 -0.6464  0.7778
  420SOL    HW2 3268   7.331   0.913  10.725 -1.2103  0.6361  0.0257
  421SOL     OW 3269   6.677   0.242   1.819  0.1038 -0.5408 -0.0322
  421SOL    HW1 3270   6.672   0.288   1.735 -1.0526 -1.1596 -0.3277
  421SOL    HW2 3271   6.609   0.175   1.813 -0.7201  0.0745  1.8122
  422SOL     OW 3272   5.879   6.544   9.122  0.4926 -0.0608 -0.2462
  422SOL    HW1 3273   5.812   6.567   9.057  1.9300  0.3008 -1.6802
  422SOL    HW2 3274   5.900   6.453   9.102  0.3546 -0.2083  0.2786
  423SOL     OW 3275   2.049   6.462   6.796 -0.4491  0.1907 -0.1444
  423SOL    HW1 3276   2.102   6.539   6.774 -0.7513  0.9495  1.6279
  423SOL    HW2 3277   2.104   6.387   6.771  0.4513  0.9629 -0.5592
  424SOL     OW 3278   0.862   7.019   3.276 -0.3784  0.3986  0.2778
  424SOL    HW1 3279   0.783   7.065   3.250 -1.6071 -0.7797  1.7357
  424SOL    HW2 3280   0.832   6.931   3.298  1.4867 -0.3393  0.0129
  425SOL     OW 3281   6.348   6.756   1.344  0.5253 -0.3705 -0.1976
  425SOL    HW1 3282   6.367   6.827   1.406  1.0746 -1.3255  0.7755
  425SOL    HW2 3283   6.425   6.699   1.349 -0.7730 -2.1554  0.6718
  426SOL     OW 3284   9.093  10.363   6.748 -0.7705  0.1757  0.4442
  426SOL    HW1 3285   9.046  10.439   6.714 -1.0491  0.3833  1.2758
  426SOL    HW2 3286   9.065  10.356   6.839 -0.3153 -0.5873  0.5344
  427SOL     OW 3287   5.483   9.028   8.801  0.1193 -0.1448  0.4336
  427SOL    HW1 3288   5.556   9.022   8.739  0.8550 -1.1455  1.3572
  427SOL    HW2 3289   5.521   9.067   8.879 -0.3371 -0.6249  0.9045
  428SOL     OW 3290   8.091   8.711   5.533  0.6196  0.5759 -0.3651
  428SOL    HW1 3291   8.048   8.792   5.559 -0.8063 -1.3183  4.1654
  428SOL    HW2 3292   8.182   8.735   5.518  0.2688  3.0013  0.9991
  429SOL     OW 3293   8.052   5.954   4.974 -0.1589 -0.0753 -0.1342
  429SOL    HW1 3294   8.101   6.003   4.907 -1.7693  0.0315 -1.3157
  429SOL    HW2 3295   8.086   5.865   4.968  0.3137  0.1228 -0.5032
  430SOL     OW 3296   8.018   9.671   2.617  0.2802 -0.7651  0.2406
  430SOL    HW1 3297   7.926   9.671   2.641  0.1796 -0.0607 -0.1285
  430SOL    HW2 3298   8.065   9.664   2.701 -0.0499  2.2869  0.7820
  431SOL     OW 3299   2.931   8.924   0.569 -0.2342  0.0561  0.6824
  431SOL    HW1 3300   3.017   8.891   0.596 -0.2188 -3.8484 -2.8955
  431SOL    HW2 3301   2.950   9.006   0.524  1.7477 -0.7410 -0.0773
  432SOL     OW 3302   3.100   7.172   8.744  0.1331  0.0169  0.3458
  432SOL    HW1 3303   3.151   7.252   8.728 -0.7596  0.5619  0.1654
  432SOL    HW2 3304   3.154   7.102   8.706  0.6982  0.5918  0.0577
  433SOL     OW 3305   3.205   4.886   7.307  0.3964 -0.4449  0.3733
  433SOL    HW1 3306   3.161   4.962   7.346 -0.1193 -0.9476  0.7736
  433SOL    HW2 3307   3.152   4.866   7.229  0.8822 -0.0267 -0.0734
  434SOL     OW 3308   5.771   9.092   5.121 -0.1391 -0.2081  0.6091
  434SOL    HW1 3309   5.806   9.131   5.041 -1.2525 -0.8629 -0.2198
  434SOL    HW2 3310   5.771   9.164   5.184  1.1305  0.2187  0.1658
  435SOL     OW 3311   2.226   6.625   1.675  0.1736  0.6142  0.2976
  435SOL    HW1 3312   2.236   6.703   1.730  0.4494  1.0225 -0.3269
  435SOL    HW2 3313   2.131   6.616   1.664  0.1440  0.8930  0.3215
  436SOL     OW 3314   3.423   4.736   9.914  0.3318  0.1539 -0.7146
  436SOL    HW1 3315   3.360   4.781   9.859 -1.6867 -1.1858  0.3895
  436SOL    HW2 3316   3.406   4.770  10.002  0.4254 -0.9816 -0.2470
  437SOL     OW 3317  10.179   9.716   7.325 -0.2678  0.3257  0.0547
  437SOL    HW1 3318  10.186   9.761   7.409 -1.0839  1.1597 -0.3007
  437SOL    HW2 3319  10.259   9.739   7.278 -0.8581  1.8174 -0.2918
  438SOL     OW 3320   3.847  10.872   2.346  0.3309  0.2503 -0.4394
  438SOL    HW1 3321   3.877  10.888   2.435  2.8019  0.2026 -1.1933
  438SOL    HW2 3322   3.807  10.955   2.319 -1.0219  0.0717  0.8636
  439SOL     OW 3323   2.803   9.441   3.867  0.6049 -0.5184 -0.3017
  439SOL    HW1 3324   2.790   9.412   3.957  2.7172 -1.3883 -0.2239
  439SOL    HW2 3325   2.897   9.431   3.851  0.3846  0.1693 -2.4143
  440SOL     OW 3326   8.880   6.499   0.190 -0.0763  0.1794  0.0382
  440SOL    HW1 3327   8.959   6.444   0.184  0.7046  1.3152 -0.5394
  440SOL    HW2 3328   8.879   6.529   0.281  1.4519  1.9200 -0.4429
  441SOL     OW 3329   7.152   6.232   8.688  0.1355  0.3141 -0.0414
  441SOL    HW1 3330   7.096   6.158   8.664 -1.5050  1.3854  0.3074
  441SOL    HW2 3331   7.138   6.242   8.782 -0.7102  1.8516 -0.2954
  442SOL     OW 3332   0.595   1.144   7.807  0.0387 -0.0794  0.5404
  442SOL    HW1 3333   0.565   1.111   7.891  0.5847  0.5593  0.9999
  442SOL    HW2 3334   0.577   1.073   7.745 -1.9020  0.0639  0.8778
  443SOL     OW 3335   1.335   9.167   5.008 -0.2087 -0.0456 -0.2351
  443SOL    HW1 3336   1.259   9.202   4.960  0.0595 -0.1902 -0.7809
  443SOL    HW2 3337   1.350   9.230   5.079 -0.8272 -0.0092 -0.1327
  444SOL     OW 3338   3.853   0.317  10.781  0.2880 -0.2434  0.3208
  444SOL    HW1 3339   3.797   0.255  10.734 -0.0285 -0.5315  1.0534
  444SOL    HW2 3340   3.870   0.387  10.718 -2.0619  0.5621  0.4999
  445SOL     OW 3341   5.116   6.161   7.718  0.0139  0.1774 -0.5652
  445SOL    HW1 3342   5.095   6.196   7.631 -1.1784  2.6531  0.6329
  445SOL    HW2 3343   5.204   6.125   7.708  0.4261  1.5362 -2.5037
  446SOL     OW 3344   0.183   7.650   9.482 -0.3492  0.7747  0.3690
  446SOL    HW1 3345   0.153   7.738   9.502 -0.3067  0.5303  1.5794
  446SOL    HW2 3346   0.116   7.593   9.520  0.4781  0.2699  1.0988
  447SOL     OW 3347   9.245  10.272   8.331 -0.2245  0.2189 -0.1359
  447SOL    HW1 3348   9.170  10.213   8.334 -0.5977  0.6896  0.0350
  447SOL    HW2 3349   9.319  10.219   8.358 -0.3076 -0.5279 -1.3092
  448SOL     OW 3350   0.343   5.319   1.231  0.3374  0.5519  0.3355
  448SOL    HW1 3351   0.252   5.291   1.239 -0.3388  2.8561  1.9808
  448SOL    HW2 3352   0.339   5.400   1.180  1.4896  0.5166  0.1670
  449SOL     OW 3353   9.850   9.656   4.336 -0.8999  0.2600 -0.1902
  449SOL    HW1 3354   9.880   9.656   4.427  0.1747  1.2874 -0.5213
  449SOL    HW2 3355   9.836   9.564   4.316  1.3496 -0.2412  0.2411
  450SOL     OW 3356  10.547   8.070   3.053 -0.2924 -0.8361  0.0269
  450SOL    HW1 3357  10.622   8.069   2.994  1.5122 -0.4817  2.2032
  450SOL    HW2 3358  10.474   8.098   2.998  1.2971 -0.3726 -1.9758
  451SOL     OW 3359   4.351   7.469   9.230 -0.2997 -0.2301  0.6699
  451SOL    HW1 3360   4.403   7.417   9.168  0.4185 -0.0169  1.0909
  451SOL    HW2 3361   4.268   7.420   9.237 -0.9548  0.4339 -1.4887
  452SOL     OW 3362   8.430   2.949   7.781  0.2116  0.2452  0.4166
  452SOL    HW1 3363   8.414   2.867   7.734 -0.5608  0.0433  0.9995
  452SOL    HW2 3364   8.366   2.947   7.853  0.6888  1.0145  0.8649
  453SOL     OW 3365   6.532  10.355   3.675 -0.1736 -1.0807 -0.2134
  453SOL    HW1 3366   6.593  10.408   3.726 -2.2190 -0.2801  1.5667
  453SOL    HW2 3367   6.569  10.354   3.587  1.2311  1.2549  0.2602
  454SOL     OW 3368   6.375   5.859   8.408 -0.4902 -0.4727 -0.1575
  454SOL    HW1 3369   6.440   5.883   8.474  0.6461 -1.9198 -0.7012
  454SOL    HW2 3370   6.294   5.845   8.458  0.0636 -0.4453  0.7681
  455SOL     OW 3371   0.747   0.103   4.830  0.2554  0.2754  0.7951
  455SOL    HW1 3372   0.726   0.181   4.880  0.0404  0.6354  0.1545
  455SOL    HW2 3373   0.830   0.123   4.786 -0.4317  0.6496 -0.3801
  456SOL     OW 3374   8.987   3.355   6.288  0.1847  0.5326 -0.0873
  456SOL    HW1 3375   8.961   3.269   6.323  1.3163 -0.8196 -2.3571
  456SOL    HW2 3376   9.040   3.394   6.358 -0.1984 -0.6927  0.9310
  457SOL     OW 3377   6.457   3.167   9.773 -0.1750 -0.0687  0.2096
  457SOL    HW1 3378   6.509   3.218   9.712 -0.4689  0.0681  0.0711
  457SOL    HW2 3379   6.508   3.166   9.854  1.1352 -1.8507 -0.5670
  458SOL     OW 3380   8.999   5.743   8.625  0.2908  0.0624  0.2734
  458SOL    HW1 3381   9.063   5.744   8.696 -0.0610 -1.5247  0.6586
  458SOL    HW2 3382   8.994   5.651   8.598 -0.8712  0.3533 -0.6222
  459SOL     OW 3383   3.772   9.062   9.314  0.5582  0.4607 -0.3932
  459SOL    HW1 3384   3.793   9.060   9.407 -0.3881 -0.3379 -0.1815
  459SOL    HW2 3385   3.791   9.152   9.287  2.5224  0.2475  0.1384
  460SOL     OW 3386  10.470   7.839   8.528  0.4260 -0.2605 -0.0846
  460SOL    HW1 3387  10.523   7.918   8.535  0.7503 -0.4516 -0.3693
  460SOL    HW2 3388  10.528   7.769   8.558  0.8820 -0.6993 -1.8792
  461SOL     OW 3389   0.317   3.134   9.763  0.3839 -0.3049  0.3750
  461SOL    HW1 3390   0.274   3.114   9.680  0.8917 -1.9753  0.4920
  461SOL    HW2 3391   0.249   3.175   9.816 -0.6384 -1.5125  0.0232
  462SOL     OW 3392   0.273   1.067   4.833 -0.1236 -0.2394 -0.0359
  462SOL    HW1 3393   0.283   1.150   4.880 -1.4777  0.2516 -0.5513
  462SOL    HW2 3394   0.284   1.090   4.741 -0.5130 -0.6188 -0.1827
  463SOL     OW 3395   0.185   4.596   1.772 -0.4064 -0.0027  0.0328
  463SOL    HW1 3396   0.148   4.669   1.722 -1.9119  0.3890  1.6504
  463SOL    HW2 3397   0.144   4.518   1.734 -0.7769  0.2068 -0.0021
  464SOL     OW 3398   2.345   5.630  10.693  0.0368  0.9710  0.7012
  464SOL    HW1 3399   2.326   5.584  10.611  1.4807  0.8538  0.4087
  464SOL    HW2 3400   2.260   5.635  10.738 -0.8659  1.4403 -0.9889
  465SOL     OW 3401   4.231   3.108  10.437 -0.0106  0.2390  0.3206
  465SOL    HW1 3402   4.226   3.116  10.533  0.8424 -0.1214  0.4071
  465SOL    HW2 3403   4.317   3.145  10.415 -1.0477  2.2918 -0.5505
  466SOL     OW 3404   1.297   2.552   6.009  0.1351  0.5374  0.1980
  466SOL    HW1 3405   1.295   2.569   5.914  0.4235 -0.0846  0.0718
  466SOL    HW2 3406   1.348   2.471   6.017 -1.7134 -0.6266  0.7028
  467SOL     OW 3407   8.527   3.960   0.396 -0.1012 -1.0852  0.1989
  467SOL    HW1 3408   8.514   3.877   0.443 -1.9977 -0.1898  1.3512
  467SOL    HW2 3409   8.507   4.027   0.461 -0.1069  0.2596 -1.1529
  468SOL     OW 3410   6.722   1.843   0.428  0.2710 -0.0358  0.4018
  468SOL    HW1 3411   6.733   1.825   0.522 -0.1334  0.4063  0.5359
  468SOL    HW2 3412   6.669   1.770   0.396 -0.6826  0.4806  0.7826
  469SOL     OW 3413   1.732   6.758   5.137 -1.0388 -0.9377 -0.2104
  469SOL    HW1 3414   1.639   6.740   5.121 -0.8746 -0.9032 -1.2664
  469SOL    HW2 3415   1.777   6.727   5.059 -0.4618  1.5695 -0.9759
  470SOL     OW 3416  10.191   2.819   8.123  0.6496  0.2476  0.8465
  470SOL    HW1 3417  10.178   2.908   8.153  1.1335  0.3616  0.7295
  470SOL    HW2 3418  10.231   2.774   8.198 -0.6504 -0.1740  1.3076
  471SOL     OW 3419   3.391   7.413   5.417 -0.2511  0.1613  0.6342
  471SOL    HW1 3420   3.465   7.435   5.360 -1.6484  0.3104 -1.2021
  471SOL    HW2 3421   3.398   7.319   5.430  0.2037  0.1605  0.3892
  472SOL     OW 3422   8.851   9.922  10.353  0.0416 -0.1524  1.0039
  472SOL    HW1 3423   8.918   9.865  10.317 -1.2975 -1.8471  1.0883
  472SOL    HW2 3424   8.786   9.863  10.390 -0.6763  1.4630  2.4713
  473SOL     OW 3425   6.621   8.106   1.772 -0.0796 -0.0818  0.4021
  473SOL    HW1 3426   6.576   8.135   1.852  1.2217  1.6827  0.5518
  473SOL    HW2 3427   6.690   8.171   1.758  1.5415 -1.9085 -0.5950
  474SOL     OW 3428   0.091   7.667   2.955 -0.5205  0.0646 -0.0831
  474SOL    HW1 3429   0.141   7.713   3.022 -0.5655 -0.1446  0.0980
  474SOL    HW2 3430   0.133   7.690   2.872  0.5226 -0.9037  0.1461
  475SOL     OW 3431   6.375   4.241   4.679  0.2498 -0.2818 -0.8185
  475SOL    HW1 3432   6.349   4.175   4.742 -1.4572  1.5347  0.4951
  475SOL    HW2 3433   6.302   4.248   4.619 -0.1052  1.1450 -0.2703
  476SOL     OW 3434   7.345   4.300   4.795 -0.2154 -0.0892  0.2794
  476SOL    HW1 3435   7.306   4.304   4.882 -0.1054  2.5435  0.2782
  476SOL    HW2 3436   7.278   4.336   4.737  0.0720 -0.9306 -0.6203
  477SOL     OW 3437   8.384   0.930   7.113  0.0646 -0.1123  0.3351
  477SOL    HW1 3438   8.465   0.906   7.158 -0.0744 -1.7309 -0.2299
  477SOL    HW2 3439   8.363   0.855   7.058 -1.2150  0.7433 -0.4105
  478SOL     OW 3440   0.272   5.814   8.413 -0.1197 -0.5113 -0.0419
  478SOL    HW1 3441   0.320   5.733   8.429  2.2616  0.3929 -1.9978
  478SOL    HW2 3442   0.180   5.791   8.429  0.8499 -1.9256  5.4558
  479SOL     OW 3443   7.958   3.187   2.593 -0.0133  0.3309  0.0695
  479SOL    HW1 3444   7.999   3.188   2.506  1.0077 -0.3511  0.5349
  479SOL    HW2 3445   8.021   3.229   2.650 -1.1613  1.7965  0.3016
  480SOL     OW 3446   3.728   5.239   6.860  0.1661 -0.2478  0.0461
  480SOL    HW1 3447   3.818   5.225   6.832  1.0764 -0.5452  2.7902
  480SOL    HW2 3448   3.710   5.166   6.919 -1.4950  0.4025  0.3974
  481SOL     OW 3449   7.991  10.991   7.298  0.4261 -0.1587 -0.0268
  481SOL    HW1 3450   8.077  10.949   7.305  0.9654  0.9213 -0.0038
  481SOL    HW2 3451   7.980  11.010   7.205  0.8045  0.8875  0.1310
  482SOL     OW 3452  10.064   9.440   2.094  0.0497 -0.5079  0.2861
  482SOL    HW1 3453   9.978   9.475   2.119 -0.2735 -0.0289 -1.3444
  482SOL    HW2 3454  10.104   9.509   2.041  1.7996 -0.4249  1.6248
  483SOL     OW 3455   0.266   5.721   7.296 -0.5861  0.3293 -0.5536
  483SOL    HW1 3456   0.260   5.627   7.282  1.7715  0.1411 -0.7132
  483SOL    HW2 3457   0.256   5.732   7.391 -0.6415 -0.1029 -0.5085
  484SOL     OW 3458   0.867   7.499   2.289  0.0788  0.7079  0.0526
  484SOL    HW1 3459   0.837   7.585   2.316  0.4967  0.6783  0.6439
  484SOL    HW2 3460   0.963   7.503   2.296  0.2366  0.8120 -1.8159
  485SOL     OW 3461   7.708   5.842   5.064  0.3919  0.1557 -0.9696
  485SOL    HW1 3462   7.683   5.780   4.995  0.6288  0.3660 -1.2457
  485SOL    HW2 3463   7.773   5.795   5.115  1.0351  0.3933 -1.5513
  486SOL     OW 3464   5.612   9.053   0.290 -0.5448 -0.4714 -0.6580
  486SOL    HW1 3465   5.663   9.001   0.228  0.8042  1.3130 -1.0997
  486SOL    HW2 3466   5.643   9.142   0.278 -2.7628  0.4582  0.1249
  487SOL     OW 3467   7.336   1.206   0.344 -0.4313  0.4820  0.1267
  487SOL    HW1 3468   7.286   1.215   0.425  1.0824  2.7034  0.8772
  487SOL    HW2 3469   7.389   1.285   0.339  2.0075 -1.1234 -1.3347
  488SOL     OW 3470   1.915   6.782   7.791 -0.3624  0.7532  0.1280
  488SOL    HW1 3471   1.962   6.800   7.709 -1.0867  0.4569 -0.3653
  488SOL    HW2 3472   1.871   6.698   7.774 -0.4471  0.6498  0.8563
  489SOL     OW 3473  10.909  10.299   2.958 -0.2041 -0.3912  0.2893
  489SOL    HW1 3474  10.904  10.392   2.937 -1.9609 -0.4631  0.2378
  489SOL    HW2 3475  10.833  10.261   2.914  0.3548 -1.8050  0.5164
  490SOL     OW 3476   3.173   0.404   1.256  0.0297  0.2355  0.7573
  490SOL    HW1 3477   3.185   0.328   1.198  0.6249  0.6613  0.3124
  490SOL    HW2 3478   3.247   0.399   1.316 -1.4938 -1.2080  2.6761
  491SOL     OW 3479   7.750   5.367   2.007  0.2877  0.2514 -0.0839
  491SOL    HW1 3480   7.799   5.420   1.943 -1.0665  1.6227 -0.0516
  491SOL    HW2 3481   7.670   5.417   2.023 -0.6844 -1.4380  0.6021
  492SOL     OW 3482   6.255   0.823   7.079 -0.1818  0.4466 -0.1096
  492SOL    HW1 3483   6.330   0.771   7.109 -1.5937 -1.5829  0.1300
  492SOL    HW2 3484   6.206   0.763   7.022 -1.3074  1.9164 -0.7407
  493SOL     OW 3485   1.755   5.803   3.264 -0.0036 -0.0255  0.2365
  493SOL    HW1 3486   1.676   5.779   3.313  0.2357  0.0192  0.6530
  493SOL    HW2 3487   1.785   5.721   3.225 -0.2410 -0.0470  0.0940
  494SOL     OW 3488   3.965   3.373   7.156  0.2679 -0.3156 -0.3959
  494SOL    HW1 3489   3.873   3.377   7.133  0.5727  1.7244 -1.4749
  494SOL    HW2 3490   4.011   3.410   7.081  1.6726  2.1148  1.5094
  495SOL     OW 3491   8.554   5.670   0.853 -0.2128 -0.3076 -0.1341
  495SOL    HW1 3492   8.503   5.751   0.848 -2.7893 -1.8043 -0.4040
  495SOL    HW2 3493   8.593   5.661   0.766  1.6654  1.4821  0.4461
  496SOL     OW 3494   1.904   3.501   1.653  0.7442  0.5023 -0.1413
  496SOL    HW1 3495   1.856   3.463   1.579  0.4188  0.0765  0.2794
  496SOL    HW2 3496   1.936   3.586   1.621  1.9149 -0.3301 -1.2597
  497SOL     OW 3497   6.227   1.486   2.730  0.0821  0.1356 -0.4340
  497SOL    HW1 3498   6.136   1.480   2.757 -0.0016 -0.1941 -0.7786
  497SOL    HW2 3499   6.252   1.396   2.709  0.1658  0.3700 -1.3745
  498SOL     OW 3500   5.296   0.960   1.920 -0.2866  0.3430  0.1234
  498SOL    HW1 3501   5.340   0.909   1.988 -1.0666 -0.0340  0.3555
  498SOL    HW2 3502   5.321   1.050   1.939  0.3505  0.1469  0.2719
  499SOL     OW 3503   2.970   0.859   4.589 -0.1641  0.4704  0.1952
  499SOL    HW1 3504   2.879   0.851   4.616 -0.4450  0.8951 -0.5771
  499SOL    HW2 3505   3.013   0.781   4.624 -1.0067 -0.1564 -0.1341
  500SOL     OW 3506   7.914   0.997   5.163  0.5351 -1.0594  0.1531
  500SOL    HW1 3507   7.979   1.064   5.186 -2.2879  1.5944  0.9842
  500SOL    HW2 3508   7.898   1.010   5.070 -1.0929  0.5485  0.6138
  501SOL     OW 3509   6.812  10.916   9.224  0.1077  0.1157 -0.6104
  501SOL    HW1 3510   6.902  10.949   9.215  0.3435 -0.3949 -0.1459
  501SOL    HW2 3511   6.758  10.987   9.189  0.7010  0.3262 -1.1356
  502SOL     OW 3512   1.796   4.488   9.696  0.0544  0.6928 -0.5216
  502SOL    HW1 3513   1.753   4.415   9.739 -2.7781  1.0438 -2.4494
  502SOL    HW2 3514   1.775   4.564   9.750 -1.2219  0.7460 -1.0568
  503SOL     OW 3515   4.273   1.198   1.964 -0.6076  0.3470  0.4717
  503SOL    HW1 3516   4.289   1.121   1.910 -1.2475  0.6235 -0.1356
  503SOL    HW2 3517   4.244   1.265   1.902 -1.9323  0.5033  1.2101
  504SOL     OW 3518   5.738   8.471   8.936  0.1954  0.7865 -0.0671
  504SOL    HW1 3519   5.704   8.385   8.912 -0.7538  1.1300  0.0224
  504SOL    HW2 3520   5.778   8.505   8.856  1.0337  0.0625  0.0248
  505SOL     OW 3521   4.799   6.055   3.897  0.2184 -0.0060  0.2897
  505SOL    HW1 3522   4.818   6.143   3.864  0.6374 -0.3961 -0.5247
  505SOL    HW2 3523   4.883   6.023   3.930  0.0244 -0.0332  0.7678
  506SOL     OW 3524  10.012   9.246   9.394 -0.0895 -0.2716 -0.1378
  506SOL    HW1 3525   9.933   9.300   9.393 -0.9760 -1.5345  0.4012
  506SOL    HW2 3526  10.060   9.273   9.315 -0.4459  1.3692  0.1729
  507SOL     OW 3527   0.024   9.586   0.517 -0.0263  0.1242 -0.1329
  507SOL    HW1 3528  -0.054   9.540   0.487  0.0505 -0.1941  0.1485
  507SOL    HW2 3529   0.062   9.528   0.582  1.7218 -0.8298 -1.8990
  508SOL     OW 3530  10.568  10.469   3.079 -0.0397  0.4287 -0.3544
  508SOL    HW1 3531  10.601  10.419   3.153 -0.2768  0.8112  0.0171
  508SOL    HW2 3532  10.646  10.501   3.034  0.1237  1.4933  0.6282
  509SOL     OW 3533   3.097   0.256   0.324 -0.2720 -0.1026 -0.2774
  509SOL    HW1 3534   3.015   0.207   0.328  0.4984 -1.4514 -0.6089
  509SOL    HW2 3535   3.107   0.295   0.411 -2.8874  2.8712 -1.1170
  510SOL     OW 3536   0.903   5.133   1.871  0.3737 -0.2984  0.0351
  510SOL    HW1 3537   0.930   5.061   1.928  1.0938 -1.3840 -1.6136
  510SOL    HW2 3538   0.848   5.092   1.805  0.1341  0.8135 -0.4678
  511SOL     OW 3539   7.873   0.829   9.739  0.4219 -0.8138  0.1580
  511SOL    HW1 3540   7.826   0.854   9.660  0.3823  1.3317  0.7923
  511SOL    HW2 3541   7.898   0.738   9.725 -1.9251 -1.3249 -1.1475
  512SOL     OW 3542  10.200   7.087   6.567  0.0575  0.6018  0.2011
  512SOL    HW1 3543  10.201   7.178   6.536  1.8221  0.8987  0.9750
  512SOL    HW2 3544  10.149   7.040   6.502  1.5532  1.6234 -1.8266
  513SOL     OW 3545   0.157   4.387   8.127 -0.9720 -0.0158 -0.2190
  513SOL    HW1 3546   0.237   4.423   8.163 -1.4866  0.3769  0.5639
  513SOL    HW2 3547   0.183   4.303   8.090 -0.0045  0.5718 -0.9143
  514SOL     OW 3548   3.628   2.709   7.277  0.1982  0.5588 -0.0098
  514SOL    HW1 3549   3.573   2.639   7.312  0.0307  1.0989  0.8629
  514SOL    HW2 3550   3.703   2.713   7.338 -0.2892  1.7758  0.5451
  515SOL     OW 3551   4.520   6.189   0.918  0.3796 -0.7293  0.1412
  515SOL    HW1 3552   4.607   6.154   0.898  0.8346  0.4215  0.0209
  515SOL    HW2 3553   4.533   6.240   0.998  0.0087  0.1039 -0.3083
  516SOL     OW 3554  10.537   4.539   7.510 -0.3149 -0.3824  0.1339
  516SOL    HW1 3555  10.552   4.472   7.444 -0.0583  1.6396 -2.0199
  516SOL    HW2 3556  10.589   4.512   7.585  0.0671 -2.3461 -0.7824
  517SOL     OW 3557   8.702  10.397   9.251  0.0898 -0.1423 -0.2821
  517SOL    HW1 3558   8.639  10.347   9.304  0.4378 -1.2841 -0.9193
  517SOL    HW2 3559   8.739  10.461   9.313  0.8819 -1.7985  1.0257
  518SOL     OW 3560  10.752   2.854   0.463 -0.2324  0.1394 -0.1027
  518SOL    HW1 3561  10.659   2.851   0.443 -0.1809 -2.3921 -0.3763
  518SOL    HW2 3562  10.785   2.769   0.432  2.2037  1.0660 -0.2326
  519SOL     OW 3563   7.207   7.283  10.847 -0.2711  0.0110 -0.5405
  519SOL    HW1 3564   7.269   7.232  10.795  1.5696  0.4314  1.1448
  519SOL    HW2 3565   7.231   7.266  10.938  0.9595  4.2971  0.1714
  520SOL     OW 3566   5.478   1.894   5.401  0.4859 -0.5146 -0.0651
  520SOL    HW1 3567   5.456   1.812   5.445  0.7313  0.2383  1.5467
  520SOL    HW2 3568   5.395   1.943   5.399  0.5624 -0.3843 -0.0929
  521SOL     OW 3569   9.806   7.843   3.655  0.2798 -0.0845 -0.2623
  521SOL    HW1 3570   9.715   7.837   3.686  0.9426 -1.1431  1.6439
  521SOL    HW2 3571   9.805   7.796   3.572 -1.2982  1.6862 -1.3450
  522SOL     OW 3572   2.207   0.572   6.601  0.3069  0.3092  0.2543
  522SOL    HW1 3573   2.142   0.632   6.564 -0.9338 -1.6887 -1.0083
  522SOL    HW2 3574   2.183   0.565   6.694 -0.1077  1.0214  0.2121
  523SOL     OW 3575  10.608   2.103   3.328  0.1155  0.7604 -0.3873
  523SOL    HW1 3576  10.688   2.070   3.367  1.4719  1.6730 -2.2440
  523SOL    HW2 3577  10.538   2.051   3.367  1.4565  0.7744  2.2046
  524SOL     OW 3578  10.435   2.935   8.491 -0.2426 -0.1755 -0.6322
  524SOL    HW1 3579  10.432   3.030   8.485  1.0802  0.0300  1.1205
  524SOL    HW2 3580  10.474   2.907   8.408  1.8278  1.0474 -0.1427
  525SOL     OW 3581   6.078   0.207   1.093  0.1991 -0.3830 -0.3961
  525SOL    HW1 3582   5.997   0.224   1.141 -0.6135 -0.2291 -1.7913
  525SOL    HW2 3583   6.147   0.238   1.152 -0.9278  3.7832 -0.9110
  526SOL     OW 3584   7.796   4.176   0.696 -0.2284  0.0094 -0.5850
  526SOL    HW1 3585   7.868   4.236   0.683 -1.6649  1.8259 -0.5588
  526SOL    HW2 3586   7.838   4.093   0.720  1.8011  1.2232  0.3464
  527SOL     OW 3587   4.710   7.816   1.266 -0.7495  0.5939 -0.4830
  527SOL    HW1 3588   4.780   7.872   1.299 -1.6006  1.7994 -0.6319
  527SOL    HW2 3589   4.668   7.781   1.345  0.1352 -0.3258 -0.3952
  528SOL     OW 3590   2.137   4.206   9.642  0.4800 -0.2907 -0.4121
  528SOL    HW1 3591   2.061   4.173   9.689  0.1754 -1.0024 -1.3580
  528SOL    HW2 3592   2.126   4.301   9.643 -1.2010 -0.4168 -1.7174
  529SOL     OW 3593   2.216  10.941   5.218 -0.1814  0.3472  0.6416
  529SOL    HW1 3594   2.292  10.884   5.226  0.1992  0.8102  0.3574
  529SOL    HW2 3595   2.249  11.028   5.237 -1.2077  0.2342  3.2427
  530SOL     OW 3596   4.027   8.152   3.458 -0.1536 -0.0663  0.3063
  530SOL    HW1 3597   4.107   8.117   3.419  0.3203  0.1591  1.0480
  530SOL    HW2 3598   4.058   8.202   3.534 -0.7655  1.9860 -0.6960
  531SOL     OW 3599   2.629   7.329   3.855  0.5544 -0.0931 -0.1837
  531SOL    HW1 3600   2.626   7.235   3.838  1.7012 -0.2198  0.1880
  531SOL    HW2 3601   2.686   7.364   3.786 -2.4736  0.8823 -2.3686
  532SOL     OW 3602   7.544   7.533   5.554 -0.5409  0.3397 -0.4266
  532SOL    HW1 3603   7.511   7.618   5.583 -0.6250 -0.4167  1.8397
  532SOL    HW2 3604   7.466   7.478   5.547 -0.4395  0.3081 -1.4994
  533SOL     OW 3605   2.935   6.506   2.074 -0.0102 -0.2472 -0.4442
  533SOL    HW1 3606   2.944   6.418   2.111  0.5039  0.1251  0.3614
  533SOL    HW2 3607   2.890   6.556   2.143 -0.2676  0.1288 -0.8804
  534SOL     OW 3608   1.188   5.439   2.778  0.0634  0.1644 -0.0291
  534SOL    HW1 3609   1.131   5.513   2.797  0.2646  0.8107 -1.7469
  534SOL    HW2 3610   1.130   5.372   2.742  0.3142  0.7917 -1.6991
  535SOL     OW 3611   8.942   7.062   4.448  0.0159  0.4010 -0.3091
  535SOL    HW1 3612   8.890   7.135   4.482 -0.3567  1.4491 -2.8583
  535SOL    HW2 3613   8.879   6.990   4.438 -0.2750  0.6784 -0.4933
  536SOL     OW 3614   1.872   3.123   4.658 -0.2938  0.4998 -0.0903
  536SOL    HW1 3615   1.960   3.132   4.693 -0.4110  0.8940  0.1049
  536SOL    HW2 3616   1.862   3.029   4.641 -0.4823  0.1898  1.5772
  537SOL     OW 3617   5.806   4.376   6.688  0.0091  0.3930  0.2524
  537SOL    HW1 3618   5.796   4.340   6.776  0.1010  0.4195  0.2746
  537SOL    HW2 3619   5.891   4.421   6.690  0.5875 -0.6334 -0.1954
  538SOL     OW 3620   0.152   0.999   6.171 -0.5620  0.9203  0.0587
  538SOL    HW1 3621   0.195   1.078   6.203  0.5380  0.2087  0.3845
  538SOL    HW2 3622   0.099   0.969   6.245  1.0121 -0.0348  0.8589
  539SOL     OW 3623   2.764   8.710  10.843 -0.7579  0.1484  0.0681
  539SOL    HW1 3624   2.797   8.772  10.908  0.9006  0.5047 -1.0542
  539SOL    HW2 3625   2.730   8.637  10.895  1.9118 -0.2779  1.3852
  540SOL     OW 3626   5.768   6.248   6.028  0.0651 -0.0000 -0.0963
  540SOL    HW1 3627   5.840   6.196   5.994  0.0547 -0.8660  1.1495
  540SOL    HW2 3628   5.703   6.184   6.057 -0.8357  0.7462 -0.3825
  541SOL     OW 3629   0.513   3.731   3.079 -0.5425  0.2660 -0.1663
  541SOL    HW1 3630   0.547   3.784   3.007  1.8983 -0.7201  0.1607
  541SOL    HW2 3631   0.457   3.666   3.036  0.8287 -0.2770 -1.2167
  542SOL     OW 3632   9.273  10.480   8.516 -0.3483  0.1168 -0.1161
  542SOL    HW1 3633   9.275  10.405   8.457  0.6618 -0.2145  0.3087
  542SOL    HW2 3634   9.346  10.465   8.576 -2.5240 -0.6289  2.5446
  543SOL     OW 3635   0.660   7.733   6.789 -0.5155  0.0783 -0.2510
  543SOL    HW1 3636   0.661   7.818   6.834  0.9602 -0.0000 -0.0954
  543SOL    HW2 3637   0.689   7.671   6.855  1.6070 -0.0542 -1.2392
  544SOL     OW 3638   9.557   4.790   9.036  0.1685 -0.5607 -0.0873
  544SOL    HW1 3639   9.494   4.735   9.083  1.5201 -1.5967  0.5911
  544SOL    HW2 3640   9.585   4.736   8.962  2.1087 -1.2040  1.0293
  545SOL     OW 3641  10.742   5.338  10.666 -0.2701  0.0563  0.2545
  545SOL    HW1 3642  10.732   5.411  10.727  0.6143  0.3236  0.0883
  545SOL    HW2 3643  10.715   5.261  10.717 -1.3360  0.4999  0.3883
  546SOL     OW 3644   2.700   6.047  10.386 -0.4229  0.1989 -0.1466
  546SOL    HW1 3645   2.755   6.033  10.309 -0.5619  1.6768 -0.5462
  546SOL    HW2 3646   2.677   5.959  10.416  0.7660 -0.4196 -0.9689
  547SOL     OW 3647   0.163  10.893   9.615  0.0976  0.5490  0.1770
  547SOL    HW1 3648   0.213  10.854   9.687  2.2232  0.0717 -1.4410
  547SOL    HW2 3649   0.227  10.946   9.568 -0.5977 -0.8789 -2.6099
  548SOL     OW 3650   8.310   6.680   2.874  0.1245 -0.0145 -0.2515
  548SOL    HW1 3651   8.354   6.649   2.795 -0.4167  0.3726 -0.7157
  548SOL    HW2 3652   8.376   6.674   2.943  1.7153  2.8823 -1.3712
  549SOL     OW 3653   7.107   2.372   7.245 -0.7064 -0.0157 -0.3017
  549SOL    HW1 3654   7.078   2.437   7.181 -0.2432 -0.8971 -1.4529
  549SOL    HW2 3655   7.094   2.414   7.330  1.7662  2.5203 -1.0308
  550SOL     OW 3656  10.643   6.844   1.919  0.1001 -0.4229 -0.5186
  550SOL    HW1 3657  10.659   6.933   1.953 -2.1387  0.7033 -2.1167
  550SOL    HW2 3658  10.558   6.820   1.956 -1.3771 -0.0308 -3.4062
  551SOL     OW 3659   2.393  10.589   4.466  0.0607 -0.0219  0.5334
  551SOL    HW1 3660   2.432  10.675   4.454  1.1912 -0.6945 -1.0712
  551SOL    HW2 3661   2.465  10.533   4.497 -0.3968 -0.6021  0.5777
  552SOL     OW 3662   1.250   5.873   8.507 -0.3257 -0.1317  0.4035
  552SOL    HW1 3663   1.195   5.802   8.473  0.9347 -1.1273  0.3258
  552SOL    HW2 3664   1.334   5.861   8.461  0.2589  0.7318  1.2200
  553SOL     OW 3665   7.547   2.173   9.492  0.0833  0.5423 -0.7784
  553SOL    HW1 3666   7.479   2.187   9.426 -0.0073 -1.0572 -1.0427
  553SOL    HW2 3667   7.609   2.113   9.451  0.7848  0.6579  0.0846
  554SOL     OW 3668   1.078   7.567   7.182 -0.3616  0.4544  0.1131
  554SOL    HW1 3669   1.111   7.542   7.096 -1.4322 -0.0124 -0.1899
  554SOL    HW2 3670   1.073   7.663   7.179 -1.6435  0.3985 -0.8738
  555SOL     OW 3671  10.443   7.012   0.174 -0.2232 -0.4907  0.1550
  555SOL    HW1 3672  10.478   6.925   0.153 -0.6314 -0.6205  0.0061
  555SOL    HW2 3673  10.367   7.021   0.117  1.7505  1.3629 -2.4478
  556SOL     OW 3674   4.809   4.224   0.261  0.8015 -0.3336 -0.2840
  556SOL    HW1 3675   4.837   4.169   0.188  0.6831  3.2852 -3.3809
  556SOL    HW2 3676   4.884   4.280   0.278 -0.7487  2.1558 -1.1353
  557SOL     OW 3677   3.710   1.526   5.662 -0.2276  0.1146  0.0139
  557SOL    HW1 3678   3.716   1.441   5.706  0.4628 -0.5790 -1.3622
  557SOL    HW2 3679   3.616   1.546   5.660 -0.2865  0.1424  1.6998
  558SOL     OW 3680   4.281   1.862   9.080 -0.3407  0.0291 -0.0751
  558SOL    HW1 3681   4.189   1.885   9.095 -0.2046 -0.5508  1.9840
  558SOL    HW2 3682   4.294   1.781   9.130  1.8010  1.2285  1.4968
  559SOL     OW 3683   7.600  10.342   3.873  0.7415  0.1462 -0.1325
  559SOL    HW1 3684   7.592  10.386   3.788 -0.8865 -0.5758 -0.3914
  559SOL    HW2 3685   7.530  10.277   3.873  3.0279 -2.4803  0.2560
  560SOL     OW 3686   3.590   4.498   4.866  0.3465  0.0510  0.2188
  560SOL    HW1 3687   3.532   4.422   4.866 -0.4767  0.6517 -0.2080
  560SOL    HW2 3688   3.614   4.510   4.958 -0.9651  0.3210  0.5524
  561SOL     OW 3689   3.171   7.749   1.542  0.7847  0.1408 -0.2541
  561SOL    HW1 3690   3.185   7.795   1.625  1.3700  0.6989 -0.6553
  561SOL    HW2 3691   3.120   7.671   1.566  1.0303  0.2472  0.6396
  562SOL     OW 3692   6.934   9.438   7.758 -0.7178  0.2206  0.2791
  562SOL    HW1 3693   6.908   9.352   7.791  1.7840 -1.2589 -1.2898
  562SOL    HW2 3694   6.927   9.497   7.833 -0.9111 -1.7014  1.8276
  563SOL     OW 3695  10.925  10.875   2.014 -0.1356  0.3384  0.2366
  563SOL    HW1 3696  10.919  10.844   2.104  2.3883 -0.1317  0.3345
  563SOL    HW2 3697  10.937  10.795   1.962  1.1435  0.7366 -0.1418
  564SOL     OW 3698   8.884   9.599   2.681 -0.4972 -0.2726 -0.1973
  564SOL    HW1 3699   8.874   9.591   2.776  0.2590 -2.4872 -0.2344
  564SOL    HW2 3700   8.815   9.544   2.645  0.3575 -0.9717 -0.8393
  565SOL     OW 3701   2.730   9.667  10.469  0.1383 -0.0313 -0.0307
  565SOL    HW1 3702   2.807   9.649  10.523  1.3105  0.2389 -1.5294
  565SOL    HW2 3703   2.660   9.686  10.532  2.1821  3.6316  1.4464
  566SOL     OW 3704   8.884   9.719   5.901 -0.0627  0.3158 -0.3815
  566SOL    HW1 3705   8.828   9.651   5.938 -0.1890  0.4006 -0.4177
  566SOL    HW2 3706   8.909   9.773   5.977  1.1379 -0.5503 -0.1246
  567SOL     OW 3707   1.724   1.080   4.944  0.3928 -0.1448  0.4376
  567SOL    HW1 3708   1.639   1.056   4.908  0.3576 -0.1947  0.5549
  567SOL    HW2 3709   1.705   1.139   5.016  0.4696  0.0403  0.3065
  568SOL     OW 3710   8.111   8.048   3.102 -0.1198  0.2952 -0.2432
  568SOL    HW1 3711   8.061   8.030   3.023  1.5253  0.1111 -1.3054
  568SOL    HW2 3712   8.202   8.052   3.072  0.3771  2.4535  1.2654
  569SOL     OW 3713   6.471   2.916   0.724 -0.0598  0.7097  0.3074
  569SOL    HW1 3714   6.522   2.987   0.685  0.2218 -0.1412 -0.9753
  569SOL    HW2 3715   6.529   2.877   0.789  0.7185  0.1749 -0.6704
  570SOL     OW 3716   4.103  10.244   0.679 -0.0708  0.1535  0.5108
  570SOL    HW1 3717   4.041  10.274   0.613 -0.4919  2.0595  1.7117
  570SOL    HW2 3718   4.069  10.159   0.707 -0.2579 -0.3762 -1.1855
  571SOL     OW 3719   3.758   3.039   2.508 -0.0778 -0.4820  0.0775
  571SOL    HW1 3720   3.711   3.030   2.425 -0.5694  3.1517 -0.2285
  571SOL    HW2 3721   3.841   2.993   2.494  0.0669  0.4121 -2.6790
  572SOL     OW 3722   1.739   3.230   6.225 -0.4459  0.0696  0.1725
  572SOL    HW1 3723   1.662   3.175   6.213 -1.4625  1.5402 -0.3675
  572SOL    HW2 3724   1.705   3.320   6.224  1.1478  0.7287  0.9623
  573SOL     OW 3725   6.593   5.715   9.092  0.1040 -0.3437 -0.0646
  573SOL    HW1 3726   6.609   5.656   9.166 -1.5524 -1.0731 -0.2341
  573SOL    HW2 3727   6.502   5.744   9.104  0.1704  0.3998 -1.2171
  574SOL     OW 3728   5.405   8.794   2.331  0.0223 -0.3554 -0.0905
  574SOL    HW1 3729   5.483   8.850   2.342 -0.2709 -0.0360  0.4164
  574SOL    HW2 3730   5.424   8.716   2.384  0.3635 -0.6691 -0.6679
  575SOL     OW 3731  10.482   5.006   5.003 -0.0372  0.2764  0.0152
  575SOL    HW1 3732  10.433   5.026   4.923  0.4419 -2.2072 -1.0015
  575SOL    HW2 3733  10.423   4.951   5.055  0.3960  0.2040  0.4404
  576SOL     OW 3734   0.121  10.191   2.356 -0.0494  0.1852  0.0523
  576SOL    HW1 3735   0.147  10.192   2.264 -1.3469 -0.3141 -0.3444
  576SOL    HW2 3736   0.155  10.273   2.391  0.4610  0.3888 -0.8777
  577SOL     OW 3737   7.276   7.427   1.448  0.2275  0.0892  0.3456
  577SOL    HW1 3738   7.279   7.516   1.482 -0.2615  0.1073  0.3545
  577SOL    HW2 3739   7.363   7.412   1.411 -0.5360  1.6084 -2.2786
  578SOL     OW 3740   9.139   1.782   9.724 -0.2059  0.4598 -0.0019
  578SOL    HW1 3741   9.067   1.724   9.747  1.4563 -2.4847 -1.4201
  578SOL    HW2 3742   9.185   1.798   9.806 -1.3746  0.8196  0.6056
  579SOL     OW 3743   0.032   0.016   0.716 -0.8194 -0.2437 -0.4859
  579SOL    HW1 3744   0.025  -0.023   0.803 -1.6407  0.2694 -0.3114
  579SOL    HW2 3745   0.088   0.092   0.729  0.1623 -0.9235 -0.6777
  580SOL     OW 3746   2.247   5.551   5.575 -0.0494  0.9209  0.7301
  580SOL    HW1 3747   2.338   5.558   5.603 -0.0005  0.6972  0.6272
  580SOL    HW2 3748   2.237   5.460   5.548 -0.3638  0.8870  0.9564
  581SOL     OW 3749   0.995   0.879  10.856  0.6168  0.3544  0.1869
  581SOL    HW1 3750   1.038   0.909  10.936  2.3234 -2.0395  0.2816
  581SOL    HW2 3751   1.065   0.871  10.792 -0.4323  0.5221 -1.0289
  582SOL     OW 3752   2.933   3.225   0.872 -0.2183  0.0210  0.0621
  582SOL    HW1 3753   2.933   3.165   0.797 -1.9163 -2.3638  1.8310
  582SOL    HW2 3754   2.856   3.280   0.859 -0.1944 -0.0069 -0.1985
  583SOL     OW 3755   7.459   6.149   1.458  0.2887 -0.0198  0.0107
  583SOL    HW1 3756   7.485   6.057   1.454 -2.6711 -0.9871  0.3009
  583SOL    HW2 3757   7.423   6.160   1.546 -1.2344  0.8115 -0.6761
  584SOL     OW 3758   8.910  10.297   7.789  0.3414 -0.0513  0.1254
  584SOL    HW1 3759   8.922  10.210   7.750  2.8398 -0.4539  1.5616
  584SOL    HW2 3760   8.964  10.355   7.735 -1.6265  0.7489 -1.0628
  585SOL     OW 3761   8.402   9.449   9.063 -0.5257  0.3024  0.2334
  585SOL    HW1 3762   8.414   9.543   9.077  1.4162  0.4645 -2.0439
  585SOL    HW2 3763   8.358   9.419   9.143 -2.4909  3.3343  0.4669
  586SOL     OW 3764   4.988  10.066   1.175 -0.0552 -0.0391 -0.0231
  586SOL    HW1 3765   4.999  10.137   1.112 -0.8601  0.1808  0.0626
  586SOL    HW2 3766   5.047  10.087   1.247  0.2013  0.1863 -0.2983
  587SOL     OW 3767   2.134   1.287   1.140  0.3027  0.1914 -0.0071
  587SOL    HW1 3768   2.154   1.350   1.209 -0.1304  0.6919 -0.3274
  587SOL    HW2 3769   2.088   1.216   1.185  0.3093  0.3611  0.2692
  588SOL     OW 3770   7.936   6.769   0.621 -0.1512  0.1675  0.2500
  588SOL    HW1 3771   7.899   6.855   0.642 -0.0348 -0.2241  2.1744
  588SOL    HW2 3772   7.861   6.719   0.587 -0.6179  0.5005  0.7577
  589SOL     OW 3773   0.829   1.997   0.822  0.6498 -0.4901 -0.3652
  589SOL    HW1 3774   0.866   1.924   0.872  1.1322 -0.2690 -0.3966
  589SOL    HW2 3775   0.877   2.074   0.853  1.1569 -0.3913 -1.3607
  590SOL     OW 3776   2.199   7.408   0.163 -0.1190 -0.7468  0.2549
  590SOL    HW1 3777   2.185   7.441   0.074 -0.6993  1.6212  1.1427
  590SOL    HW2 3778   2.119   7.358   0.183 -0.6569 -0.0177 -0.0370
  591SOL     OW 3779   1.789  10.259   9.842 -0.2123  0.6240 -0.2865
  591SOL    HW1 3780   1.728  10.292   9.909  0.3790 -0.0509  0.5986
  591SOL    HW2 3781   1.861  10.322   9.843  0.9177 -0.6162  1.4064
  592SOL     OW 3782   0.158   1.274   4.153  1.0544  0.4874  1.1381
  592SOL    HW1 3783   0.134   1.182   4.141 -0.1511  0.7082  1.6869
  592SOL    HW2 3784   0.146   1.313   4.066  3.4472 -0.2314  0.4113
  593SOL     OW 3785   8.141   1.733   7.889  0.1133  0.4942  0.0603
  593SOL    HW1 3786   8.212   1.686   7.932 -0.8374 -0.2042  0.9009
  593SOL    HW2 3787   8.177   1.757   7.803  2.1563  2.1533  1.2750
  594SOL     OW 3788   4.617   1.561   4.729 -0.1561  0.7384 -0.0538
  594SOL    HW1 3789   4.643   1.626   4.664 -1.8196  1.5408  0.0337
  594SOL    HW2 3790   4.562   1.608   4.791  0.7058 -0.2047  1.4974
  595SOL     OW 3791   1.181   0.864   9.241 -0.4222 -0.3509  0.0789
  595SOL    HW1 3792   1.188   0.947   9.287  0.9985 -1.4331  1.9219
  595SOL    HW2 3793   1.271   0.842   9.216 -0.5419 -2.0528  1.0127
  596SOL     OW 3794   1.609   9.845   2.437  0.5964  0.1157 -0.4762
  596SOL    HW1 3795   1.611   9.774   2.502 -1.5991 -0.4441 -0.9493
  596SOL    HW2 3796   1.536   9.900   2.464  1.7669  1.8023 -0.5936
  597SOL     OW 3797   2.683   4.807   6.556 -0.6768 -0.0047 -0.2118
  597SOL    HW1 3798   2.729   4.784   6.636 -1.0270 -1.7513 -0.4662
  597SOL    HW2 3799   2.686   4.728   6.503 -5.2998 -0.9047  0.3712
  598SOL     OW 3800   9.625   5.744   3.142  0.3432  0.0267 -0.3845
  598SOL    HW1 3801   9.718   5.758   3.122  0.3720 -0.3092 -0.4934
  598SOL    HW2 3802   9.623   5.726   3.236  0.3085  0.7250 -0.2482
  599SOL     OW 3803   2.635   3.174   8.025  0.4572  0.0393  0.0950
  599SOL    HW1 3804   2.556   3.141   7.981 -0.6242  0.3163  1.7369
  599SOL    HW2 3805   2.696   3.193   7.954 -0.6040 -1.0916 -1.1638
  600SOL     OW 3806   9.192   2.426   7.814  0.2921 -0.4966 -0.7856
  600SOL    HW1 3807   9.162   2.516   7.829 -1.2889 -1.2072  0.7382
  600SOL    HW2 3808   9.139   2.394   7.741  0.3410 -0.4236 -0.8529
  601SOL     OW 3809   3.219  10.128   6.613  0.3761  0.1166  0.1711
  601SOL    HW1 3810   3.157  10.062   6.643  0.1131  0.8355  1.2726
  601SOL    HW2 3811   3.266  10.085   6.541 -1.7114 -0.2688 -1.0564
  602SOL     OW 3812  10.127   1.773   0.590 -0.2547 -0.0021  0.7129
  602SOL    HW1 3813  10.132   1.698   0.531  1.9490  1.5206 -1.2060
  602SOL    HW2 3814  10.038   1.806   0.579 -0.1272 -0.1908 -1.2634
  603SOL     OW 3815   7.965   6.454   5.034  0.5921 -0.1011 -0.1108
  603SOL    HW1 3816   7.985   6.500   5.115  2.7896 -0.3917 -0.4470
  603SOL    HW2 3817   8.005   6.368   5.044  1.2072 -0.0204 -1.6345
  604SOL     OW 3818   1.650   0.995   8.066  0.0201  0.0315 -0.1165
  604SOL    HW1 3819   1.662   1.046   7.986  0.5973  0.5882  0.3071
  604SOL    HW2 3820   1.557   1.004   8.087 -0.4309 -1.2432 -1.4431
  605SOL     OW 3821   7.442   6.517   0.644  0.6110  0.0670  0.0971
  605SOL    HW1 3822   7.438   6.447   0.710 -1.6841  1.5804  1.6841
  605SOL    HW2 3823   7.434   6.471   0.561  0.0058 -1.6463  1.0493
  606SOL     OW 3824   5.786  10.522   8.648 -0.5878 -0.0297 -0.1282
  606SOL    HW1 3825   5.755  10.542   8.736  1.8738  0.3201  0.7277
  606SOL    HW2 3826   5.754  10.433   8.631 -2.3327  0.4360  0.4573
  607SOL     OW 3827  10.291   7.119   5.569 -0.4087  0.0323  0.3835
  607SOL    HW1 3828  10.283   7.098   5.662  0.9387  0.7874  0.6852
  607SOL    HW2 3829  10.384   7.108   5.549 -0.4468  1.2025 -0.5433
  608SOL     OW 3830   9.321   6.682  10.704 -0.3189 -1.1079 -0.2328
  608SOL    HW1 3831   9.315   6.772  10.672  2.3270  0.2635  2.5538
  608SOL    HW2 3832   9.403   6.648  10.668  1.1748 -0.5674  2.3972
  609SOL     OW 3833   5.126   3.548   1.273  0.1171  0.0804  0.3325
  609SOL    HW1 3834   5.082   3.596   1.343  2.2143  3.7161 -0.5919
  609SOL    HW2 3835   5.059   3.534   1.207 -0.4903  2.6526  0.3030
  610SOL     OW 3836   6.168   2.772   4.260  0.3430  0.0291  0.2577
  610SOL    HW1 3837   6.096   2.715   4.234  0.5579  0.1936 -0.7322
  610SOL    HW2 3838   6.132   2.825   4.331 -0.4613 -0.0086 -0.1103
  611SOL     OW 3839   8.547   9.970   5.585  0.9331  0.0072 -0.8589
  611SOL    HW1 3840   8.560  10.065   5.590  0.1536  0.0585  1.0401
  611SOL    HW2 3841   8.577   9.937   5.669  0.0560 -1.2766 -1.0225
  612SOL     OW 3842   2.161   4.416   9.238  0.1271 -0.0634 -0.2835
  612SOL    HW1 3843   2.101   4.486   9.264 -2.3649 -2.2619  0.3981
  612SOL    HW2 3844   2.171   4.427   9.143 -0.6524  0.9158 -0.2711
  613SOL     OW 3845   6.539   1.041   5.231  0.2581 -0.0485  0.1726
  613SOL    HW1 3846   6.521   0.961   5.182  0.3853  1.4607 -2.5580
  613SOL    HW2 3847   6.453   1.076   5.252  0.1834 -0.1407  0.0239
  614SOL     OW 3848   9.250   3.680   8.772  0.4690  0.2428 -0.5407
  614SOL    HW1 3849   9.171   3.669   8.719  0.2444 -1.1766  0.0331
  614SOL    HW2 3850   9.296   3.597   8.764  0.9171  0.3506  0.6801
  615SOL     OW 3851   0.881   5.862   0.762  0.6573  0.3576  0.1831
  615SOL    HW1 3852   0.856   5.799   0.830  0.0366  1.2427  0.8050
  615SOL    HW2 3853   0.834   5.832   0.684 -0.9834  0.9634  0.8895
  616SOL     OW 3854  10.656   9.627   3.840 -1.2297  0.9722 -0.1224
  616SOL    HW1 3855  10.745   9.663   3.851 -0.7432  0.2206 -1.4059
  616SOL    HW2 3856  10.653   9.554   3.902 -0.4912  0.2172 -0.9498
  617SOL     OW 3857   3.616   4.813   7.115  0.2161 -0.4652  0.5758
  617SOL    HW1 3858   3.606   4.899   7.075  1.4593 -0.9980 -0.9815
  617SOL    HW2 3859   3.642   4.832   7.205  3.6515  0.9502 -0.5139
  618SOL     OW 3860   7.791  10.848   6.124  0.2429 -0.1345 -0.0568
  618SOL    HW1 3861   7.860  10.904   6.089 -0.1614  0.5666  0.2445
  618SOL    HW2 3862   7.821  10.824   6.211  0.4596 -0.4580 -0.2220
  619SOL     OW 3863   5.630   3.650   1.770 -0.3229 -0.1613 -0.6353
  619SOL    HW1 3864   5.610   3.609   1.854 -0.5608  1.5787  0.1812
  619SOL    HW2 3865   5.560   3.620   1.712 -1.2074  0.0802  0.2784
  620SOL     OW 3866   6.382  10.328   2.471  0.3308 -0.2488 -0.7042
  620SOL    HW1 3867   6.387  10.341   2.376  2.1379 -1.6794 -0.8652
  620SOL    HW2 3868   6.459  10.274   2.491 -0.2595 -0.3266  1.5169
  621SOL     OW 3869   1.819   6.972   7.398  0.6320  0.0463  0.3953
  621SOL    HW1 3870   1.774   7.054   7.417  0.1438 -0.0403 -0.3445
  621SOL    HW2 3871   1.910   6.988   7.421  0.9268  1.4290 -1.4894
  622SOL     OW 3872   5.334   8.410   0.699 -0.2544  0.0086 -0.0954
  622SOL    HW1 3873   5.285   8.330   0.683  1.5299 -1.1034 -0.2706
  622SOL    HW2 3874   5.331   8.422   0.794 -1.0223  0.0796 -0.1245
  623SOL     OW 3875   2.421   4.820   2.929 -0.6084 -0.8316 -0.0766
  623SOL    HW1 3876   2.480   4.888   2.963 -1.2985 -0.2583  0.0060
  623SOL    HW2 3877   2.479   4.752   2.896  0.1057 -1.0109  1.4548
  624SOL     OW 3878   2.765   0.333   6.184  0.3155  0.2937  0.5141
  624SOL    HW1 3879   2.717   0.280   6.121  1.5733 -0.4541  0.1407
  624SOL    HW2 3880   2.699   0.362   6.247 -0.2795 -2.6347  1.3723
  625SOL     OW 3881   6.551   7.318   4.305  0.8222 -0.5174 -0.3674
  625SOL    HW1 3882   6.498   7.239   4.293  1.9306 -1.0592 -2.1118
  625SOL    HW2 3883   6.598   7.303   4.388  2.1958 -2.4681 -1.4146
  626SOL     OW 3884   0.316   2.843   0.880  0.0219 -0.1354 -0.1377
  626SOL    HW1 3885   0.271   2.926   0.896  0.7300  0.6422 -1.8527
  626SOL    HW2 3886   0.343   2.812   0.966  0.1659  1.6789  0.5039
  627SOL     OW 3887   9.437   0.792   6.496  0.0356  0.3642 -0.5275
  627SOL    HW1 3888   9.387   0.794   6.577 -1.9904  1.5041 -1.7142
  627SOL    HW2 3889   9.461   0.884   6.480  1.7006 -0.0411 -0.4858
  628SOL     OW 3890   5.714   8.743   5.953 -0.4139 -0.4263  0.1230
  628SOL    HW1 3891   5.661   8.819   5.977 -0.8008 -0.7347  0.2729
  628SOL    HW2 3892   5.724   8.750   5.858 -1.2340 -0.6775  0.0088
  629SOL     OW 3893   2.268   0.937   3.727  0.1622 -0.7682  0.1446
  629SOL    HW1 3894   2.193   0.909   3.780  0.9021  0.2340  1.7945
  629SOL    HW2 3895   2.330   0.973   3.790  1.1115  0.4524 -1.4039
  630SOL     OW 3896   4.282   1.375   7.979 -0.2911  0.2938  0.0001
  630SOL    HW1 3897   4.280   1.351   7.886  0.0014  0.6410 -0.1003
  630SOL    HW2 3898   4.376   1.382   7.999 -0.3573  0.3567  0.2849
  631SOL     OW 3899   8.333   6.467   2.460 -0.1558  0.2290  0.3568
  631SOL    HW1 3900   8.360   6.490   2.371 -0.0299 -1.9650 -0.2289
  631SOL    HW2 3901   8.297   6.548   2.495 -0.7304  1.0374 -1.8877
  632SOL     OW 3902   7.819   0.148  10.967  0.0261 -0.5982 -0.0842
  632SOL    HW1 3903   7.733   0.105  10.965 -0.1368 -0.2812 -0.0008
  632SOL    HW2 3904   7.882   0.076  10.960 -0.2286 -0.9152  0.8027
  633SOL     OW 3905   6.121   8.812   3.543  0.2870 -0.8058 -0.4442
  633SOL    HW1 3906   6.103   8.745   3.477 -0.7904 -0.3222 -0.6782
  633SOL    HW2 3907   6.160   8.884   3.493 -0.3403 -0.5200 -0.5421
  634SOL     OW 3908   0.887   0.028  10.229  0.4793  0.0819 -0.7019
  634SOL    HW1 3909   0.950   0.060  10.164 -0.0159 -0.0122 -1.2364
  634SOL    HW2 3910   0.825  -0.024  10.178  0.5697 -0.7021 -0.0245
  635SOL     OW 3911   1.057   9.697   7.414 -0.6528 -0.0009 -0.0893
  635SOL    HW1 3912   1.145   9.659   7.420 -0.2128  0.9224 -0.4699
  635SOL    HW2 3913   1.072   9.792   7.413 -1.6465  0.1632 -0.2845
  636SOL     OW 3914   1.134   9.345   1.982 -0.2014  0.1808 -0.1917
  636SOL    HW1 3915   1.140   9.417   2.046 -0.6001  1.0996 -1.1477
  636SOL    HW2 3916   1.055   9.365   1.932  0.1670 -0.4573 -1.0430
  637SOL     OW 3917   9.493   3.247   6.017 -0.9310 -0.2542  0.1622
  637SOL    HW1 3918   9.543   3.184   5.965  1.0661 -0.0864  1.7451
  637SOL    HW2 3919   9.428   3.282   5.956  0.4991 -0.9126 -1.8645
  638SOL     OW 3920  10.045   8.097   0.958 -0.3782  0.0671  0.5703
  638SOL    HW1 3921  10.074   8.150   1.032 -2.7784  2.7682 -0.2468
  638SOL    HW2 3922   9.973   8.044   0.993 -0.2720 -0.0397  0.6223
  639SOL     OW 3923   8.696   2.508   8.556  0.0775 -0.2309  0.4535
  639SOL    HW1 3924   8.657   2.564   8.490  0.8295 -1.2234 -0.8852
  639SOL    HW2 3925   8.694   2.560   8.636  0.5419  1.5995 -0.6724
  640SOL     OW 3926   5.840   8.721   7.149  0.1592 -0.2262  0.8607
  640SOL    HW1 3927   5.874   8.639   7.113 -0.3072 -0.9171  1.9382
  640SOL    HW2 3928   5.888   8.733   7.231 -1.2947 -0.5834  1.8041
  641SOL     OW 3929   4.031  10.362   0.093 -0.1926 -0.5369  0.1458
  641SOL    HW1 3930   3.953  10.409   0.063 -1.8285 -1.5994  2.4067
  641SOL    HW2 3931   4.097  10.430   0.104 -1.8103  0.9589  1.1817
  642SOL     OW 3932   7.689   1.618  10.892 -0.3665 -0.3615  0.1439
  642SOL    HW1 3933   7.595   1.622  10.873 -0.0424  0.9208 -1.4309
  642SOL    HW2 3934   7.728   1.585  10.811  0.6261 -0.0493  0.4879
  643SOL     OW 3935   6.774   1.697   9.389  0.4309  0.2008 -0.2795
  643SOL    HW1 3936   6.857   1.702   9.438  0.6232  1.1780 -0.6780
  643SOL    HW2 3937   6.801   1.682   9.298  0.1724  0.4889 -0.4046
  644SOL     OW 3938   0.783   9.149   3.499  0.0152  0.6313 -0.1437
  644SOL    HW1 3939   0.693   9.182   3.488 -0.0543  1.2258  1.8514
  644SOL    HW2 3940   0.775   9.055   3.485 -1.2889  0.4264  1.6061
  645SOL     OW 3941   1.957   1.097   3.175  0.0916 -0.0795 -0.3568
  645SOL    HW1 3942   2.043   1.075   3.211  0.6999  0.3421 -1.4940
  645SOL    HW2 3943   1.938   1.025   3.115 -1.3252 -1.2518  1.3873
  646SOL     OW 3944   4.072   7.748   5.529 -0.3078 -0.8082  0.5263
  646SOL    HW1 3945   4.027   7.813   5.476  1.7129 -0.4604 -0.9165
  646SOL    HW2 3946   4.052   7.770   5.619 -1.2378  0.6029 -0.0085
  647SOL     OW 3947   8.836   1.954   3.067 -0.2597 -0.3852  0.2820
  647SOL    HW1 3948   8.777   2.029   3.062 -0.5341 -0.6682 -0.9949
  647SOL    HW2 3949   8.783   1.879   3.041  0.2751 -0.8763  0.5783
  648SOL     OW 3950   8.663   8.166   4.098  0.1263  0.3045  0.0335
  648SOL    HW1 3951   8.700   8.077   4.099 -2.2889 -0.7575  0.8681
  648SOL    HW2 3952   8.729   8.219   4.143  1.0947 -1.3065  0.6131
  649SOL     OW 3953   7.661   6.661  10.800 -0.3880 -0.2094  0.5504
  649SOL    HW1 3954   7.741   6.649  10.851 -0.2474  1.2707  0.7281
  649SOL    HW2 3955   7.690   6.699  10.717 -0.9007  0.5326  0.6930
  650SOL     OW 3956   2.902   8.555   9.737 -0.1462 -0.0184 -0.1069
  650SOL    HW1 3957   2.845   8.480   9.718  0.1365  0.0280 -1.1867
  650SOL    HW2 3958   2.971   8.519   9.793  0.9458 -0.9810 -1.9942
  651SOL     OW 3959   7.592  10.956   5.972 -0.3486 -0.2855 -0.4475
  651SOL    HW1 3960   7.539  10.884   5.938  3.9095 -2.7097 -2.8212
  651SOL    HW2 3961   7.629  10.922   6.054 -1.6056  1.0284  0.7190
  652SOL     OW 3962   8.858   4.158   7.524 -0.5362 -0.1047 -0.1642
  652SOL    HW1 3963   8.841   4.092   7.456  1.1160 -0.1188 -0.6005
  652SOL    HW2 3964   8.853   4.109   7.606 -0.8708 -0.4490 -0.3820
  653SOL     OW 3965   2.074   9.260   7.622  0.2129 -0.0715  0.3950
  653SOL    HW1 3966   2.115   9.253   7.708  0.4828  1.1161  0.3855
  653SOL    HW2 3967   2.003   9.195   7.623  1.7579 -1.8255  0.5903
  654SOL     OW 3968   5.488   6.369   6.158  0.0272 -0.0168  0.3307
  654SOL    HW1 3969   5.512   6.329   6.074 -0.7840 -1.4119  0.7289
  654SOL    HW2 3970   5.478   6.462   6.139 -0.3629 -0.3449 -1.1727
  655SOL     OW 3971   6.459   4.472   8.486 -0.3715 -0.1519 -0.1040
  655SOL    HW1 3972   6.427   4.560   8.506  0.8257  0.0046  1.2338
  655SOL    HW2 3973   6.379   4.422   8.465 -1.1879  0.9317  0.3146
  656SOL     OW 3974  10.874   4.206   1.929 -0.3167  0.4667 -0.7248
  656SOL    HW1 3975  10.931   4.215   2.005 -0.5675  0.5414 -0.5459
  656SOL    HW2 3976  10.923   4.246   1.857  0.6440 -1.0640 -0.9722
  657SOL     OW 3977   8.642   7.330   2.240  0.1468  0.3871 -0.1054
  657SOL    HW1 3978   8.657   7.421   2.216 -0.2912  0.6195  0.5113
  657SOL    HW2 3979   8.706   7.312   2.309  0.2005  0.2382 -0.1924
  658SOL     OW 3980   4.355   9.506   9.771  0.3292  0.5710  0.0740
  658SOL    HW1 3981   4.420   9.436   9.777  0.6227  0.7816 -0.5262
  658SOL    HW2 3982   4.318   9.496   9.683 -0.5177  0.4000  0.4397
  659SOL     OW 3983   1.433   7.877   9.861 -0.0005 -0.1927  0.2439
  659SOL    HW1 3984   1.497   7.917   9.920 -0.9365  1.8260 -0.0234
  659SOL    HW2 3985   1.449   7.919   9.776 -0.1306 -1.4219 -0.4061
  660SOL     OW 3986   6.530   1.346   3.234 -0.4575 -0.5483  0.1206
  660SOL    HW1 3987   6.611   1.347   3.286 -1.0257 -2.9733  1.1765
  660SOL    HW2 3988   6.472   1.407   3.280 -0.2497 -1.1285  1.1793
  661SOL     OW 3989   6.419   4.251   8.919  0.2479 -0.2636 -0.1647
  661SOL    HW1 3990   6.498   4.202   8.945  0.0715  0.3665  1.7471
  661SOL    HW2 3991   6.453   4.336   8.892  0.2859 -0.2808 -0.1725
  662SOL     OW 3992   3.522   4.868   4.972 -0.1286  0.1570  0.2051
  662SOL    HW1 3993   3.481   4.826   4.897 -0.6091  1.9665 -0.6010
  662SOL    HW2 3994   3.494   4.960   4.966  2.8758  1.1886  0.4383
  663SOL     OW 3995   2.235   9.165   9.960  0.7552  0.5391  0.2041
  663SOL    HW1 3996   2.179   9.089   9.946  2.2825 -0.4654 -0.8615
  663SOL    HW2 3997   2.324   9.128   9.964  1.3690  2.0464  1.8336
  664SOL     OW 3998  10.763  10.236   3.913 -0.1994  0.0637  0.3196
  664SOL    HW1 3999  10.735  10.327   3.917  0.5814  0.2960  0.6152
  664SOL    HW2 4000  10.768  10.216   3.820  1.3751  0.8807  0.2094
  665SOL     OW 4001   8.432   5.510  10.046  0.4658  0.4578  0.4601
  665SOL    HW1 4002   8.343   5.531  10.019  0.8668  2.3448  0.4496
  665SOL    HW2 4003   8.444   5.418  10.022 -1.8923 -0.2283  1.6782
  666SOL     OW 4004   3.373   4.723   5.904 -0.2128 -0.1678 -0.0709
  666SOL    HW1 4005   3.340   4.680   5.983 -0.8630  0.3253 -0.0562
  666SOL    HW2 4006   3.338   4.812   5.910  0.7096  0.2177 -0.3302
  667SOL     OW 4007   5.367   0.979   5.226 -0.0792  0.1968  0.4409
  667SOL    HW1 4008   5.281   1.008   5.196 -0.5145 -0.4662  1.0178
  667SOL    HW2 4009   5.364   0.990   5.321  0.1059 -0.7792  0.5631
  668SOL     OW 4010   2.173   5.064   7.333 -0.0618  0.1377 -0.4641
  668SOL    HW1 4011   2.095   5.070   7.278 -0.5982  0.7371  0.3447
  668SOL    HW2 4012   2.188   5.153   7.363  0.4915 -0.1066  0.0027
  669SOL     OW 4013   5.293   1.886  10.893  0.2383  0.0524 -0.5180
  669SOL    HW1 4014   5.205   1.849  10.886  0.3617 -0.5421  0.7469
  669SOL    HW2 4015   5.289   1.943  10.970  1.1246 -0.5367 -0.0155
  670SOL     OW 4016   8.783   2.556   6.549  0.5066 -0.5269 -0.3130
  670SOL    HW1 4017   8.810   2.566   6.458 -1.8990 -1.5968 -1.2306
  670SOL    HW2 4018   8.743   2.640   6.572  0.8134 -0.3702 -0.3535
  671SOL     OW 4019   2.261   8.996   4.189  0.7763  0.2553 -0.5920
  671SOL    HW1 4020   2.268   9.077   4.139 -1.0771 -0.4961 -2.2005
  671SOL    HW2 4021   2.227   9.024   4.274 -4.4050  0.9890 -2.5308
  672SOL     OW 4022   5.470   9.749   0.086  0.1409 -0.0992  0.0576
  672SOL    HW1 4023   5.430   9.791   0.161  0.2679  1.1312 -0.5450
  672SOL    HW2 4024   5.488   9.820   0.025 -0.7785 -1.1687 -1.5346
  673SOL     OW 4025   8.301   9.859   8.575  0.4412 -0.4640 -0.3062
  673SOL    HW1 4026   8.249   9.824   8.504  0.2127  1.1293 -0.9618
  673SOL    HW2 4027   8.310   9.952   8.555  1.9776 -0.3411  0.7534
  674SOL     OW 4028   6.696   7.742   3.573 -0.0684 -0.1881  0.0338
  674SOL    HW1 4029   6.662   7.677   3.512  2.1711 -0.7041 -0.7467
  674SOL    HW2 4030   6.659   7.825   3.542  0.2759 -0.5661 -1.4679
  675SOL     OW 4031  10.796  10.999   8.785  0.1338  0.3797  0.5403
  675SOL    HW1 4032  10.847  11.078   8.764  0.1489 -0.1056 -1.3531
  675SOL    HW2 4033  10.718  11.005   8.730  0.1746 -0.9624  0.3163
  676SOL     OW 4034   6.208   7.773  10.418  0.1707  0.6630  0.3930
  676SOL    HW1 4035   6.263   7.761  10.495 -0.7834  1.3495  1.2030
  676SOL    HW2 4036   6.133   7.823  10.449 -0.4650  0.5527 -0.8852
  677SOL     OW 4037   0.093   9.536   3.161 -0.1403  0.6221  0.4056
  677SOL    HW1 4038   0.169   9.583   3.195  0.2956 -0.7048  1.3176
  677SOL    HW2 4039   0.125   9.491   3.083 -0.2821  0.9332  0.1630
  678SOL     OW 4040   1.948   2.751   9.865 -0.0728  0.3385  0.4211
  678SOL    HW1 4041   1.879   2.763   9.930  0.2323 -0.2095  0.8538
  678SOL    HW2 4042   2.029   2.778   9.909  0.2725 -0.9355  0.6042
  679SOL     OW 4043   5.652   4.618  10.518  0.0590 -0.2011 -0.1462
  679SOL    HW1 4044   5.719   4.552  10.537  1.6322  0.7242 -2.1048
  679SOL    HW2 4045   5.678   4.694  10.570  0.7862  0.2764 -1.1746
  680SOL     OW 4046   8.034   7.363   4.746 -0.1077 -0.3417  0.4313
  680SOL    HW1 4047   8.035   7.459   4.752 -0.5501 -0.3258  0.2791
  680SOL    HW2 4048   7.964   7.343   4.684 -1.0280 -0.8081  1.5843
  681SOL     OW 4049   5.932   2.527  10.278 -0.1736 -0.0663 -0.7725
  681SOL    HW1 4050   5.907   2.435  10.279 -0.9996  0.1138  1.7439
  681SOL    HW2 4051   6.028   2.526  10.269 -0.2917 -1.0805 -2.1065
  682SOL     OW 4052   0.245   9.603   9.539 -0.2784 -0.2798 -0.5682
  682SOL    HW1 4053   0.256   9.632   9.448  1.2442  2.0928  0.2871
  682SOL    HW2 4054   0.333   9.579   9.567 -0.7454 -1.0318  0.2924
  683SOL     OW 4055  10.812  10.495   8.906  0.2056 -0.2565  0.3161
  683SOL    HW1 4056  10.871  10.571   8.901  1.1299 -1.0224 -1.7155
  683SOL    HW2 4057  10.749  10.517   8.974  0.5816  2.2367 -0.0626
  684SOL     OW 4058   4.272   2.238   5.479 -0.2555 -0.2259 -0.6373
  684SOL    HW1 4059   4.350   2.264   5.431  0.4172 -0.2564  0.4064
  684SOL    HW2 4060   4.290   2.262   5.570 -1.6940  0.2997 -0.4525
  685SOL     OW 4061   3.214   9.431   3.216 -0.0150 -0.2220  0.4318
  685SOL    HW1 4062   3.150   9.394   3.277 -0.6424 -0.5921 -0.4236
  685SOL    HW2 4063   3.183   9.520   3.200  0.3255 -0.0205  0.8954
  686SOL     OW 4064   1.466   2.013   8.550 -0.3322  0.2799 -0.0889
  686SOL    HW1 4065   1.440   2.003   8.459 -1.0235 -0.0374  0.1356
  686SOL    HW2 4066   1.384   2.027   8.597 -0.3279 -2.4119  0.8791
  687SOL     OW 4067   2.495   9.971   9.736  0.2470  0.2948 -0.3310
  687SOL    HW1 4068   2.448  10.003   9.659 -0.2160  0.1210 -0.1260
  687SOL    HW2 4069   2.431   9.917   9.783  1.4239 -2.3732 -1.5335
  688SOL     OW 4070   2.845   4.389   4.383  0.3519 -0.9768 -0.0112
  688SOL    HW1 4071   2.814   4.300   4.371 -1.1512 -0.3905 -0.8646
  688SOL    HW2 4072   2.770   4.444   4.358  1.5918  0.5267 -0.6364
  689SOL     OW 4073   1.768   0.628   8.214  0.5418 -0.7221  0.0125
  689SOL    HW1 4074   1.674   0.610   8.222  0.6655 -0.8710  1.4154
  689SOL    HW2 4075   1.777   0.679   8.134 -0.6515 -1.3007 -0.5049
  690SOL     OW 4076   8.568   9.005   2.739 -0.3284 -0.0633  0.3493
  690SOL    HW1 4077   8.583   8.918   2.775  1.4640 -0.9080 -2.1827
  690SOL    HW2 4078   8.638   9.059   2.776 -1.5617  0.4541  2.0848
  691SOL     OW 4079   2.940   2.084   4.977 -0.2815  0.3865  0.1582
  691SOL    HW1 4080   2.943   2.110   5.069  0.9913  0.7792  0.0339
  691SOL    HW2 4081   2.952   2.166   4.929  0.8872 -0.0237 -0.2977
  692SOL     OW 4082   4.942  10.718   6.173 -0.5460 -0.7124  0.3202
  692SOL    HW1 4083   4.873  10.712   6.107 -1.0503  0.7254  0.6784
  692SOL    HW2 4084   4.895  10.728   6.256  0.0874 -0.0457  0.6083
  693SOL     OW 4085   5.629   0.045   2.096  0.2840 -0.6885  0.0979
  693SOL    HW1 4086   5.608   0.039   2.003  0.1162 -0.2654  0.1047
  693SOL    HW2 4087   5.722   0.023   2.101  0.4337 -0.1624 -0.2440
  694SOL     OW 4088   0.895  10.429   1.746 -0.3304 -0.3278 -0.5333
  694SOL    HW1 4089   0.958  10.358   1.737  3.0466  2.3851 -0.5914
  694SOL    HW2 4090   0.851  10.433   1.661  1.4324 -0.6838 -1.5280
  695SOL     OW 4091   6.500   4.301   6.214 -0.2545 -0.1070  0.0732
  695SOL    HW1 4092   6.460   4.256   6.288 -0.8111 -0.3903 -0.3887
  695SOL    HW2 4093   6.426   4.330   6.160  0.1523 -0.8507 -0.9225
  696SOL     OW 4094   1.722   3.497  10.029  0.2873  0.2316  0.6401
  696SOL    HW1 4095   1.653   3.527  10.089 -0.2649 -0.1901  0.2199
  696SOL    HW2 4096   1.702   3.541   9.946  0.3598 -0.1107  0.4404
  697SOL     OW 4097   8.946   9.761   4.801 -0.0975 -0.1612 -0.0178
  697SOL    HW1 4098   8.899   9.769   4.884  0.3371  2.5858  0.0529
  697SOL    HW2 4099   8.877   9.759   4.734 -0.4217 -1.6934  0.3237
  698SOL     OW 4100   4.141   1.748   9.368  0.0348  0.2093 -0.4329
  698SOL    HW1 4101   4.164   1.838   9.392  0.8491  0.1036 -0.7926
  698SOL    HW2 4102   4.050   1.738   9.396  0.6386  0.3988  1.7043
  699SOL     OW 4103   0.611   7.154   8.494 -0.4404  0.1682  0.3186
  699SOL    HW1 4104   0.573   7.241   8.494 -0.4153  0.2455 -2.0310
  699SOL    HW2 4105   0.571   7.110   8.419  3.3508 -0.0138 -1.8887
  700SOL     OW 4106   9.281  10.322   2.720  0.8130  0.1477 -0.3181
  700SOL    HW1 4107   9.300  10.388   2.653 -0.4334  0.3548 -0.4839
  700SOL    HW2 4108   9.268  10.373   2.800 -0.4302  0.1475 -0.5048
  701SOL     OW 4109   9.445   4.406   8.967 -0.2347 -0.2660  0.3407
  701SOL    HW1 4110   9.497   4.419   8.888 -1.0827  0.4126 -0.1182
  701SOL    HW2 4111   9.507   4.369   9.030  0.8780  0.7495 -0.1114
  702SOL     OW 4112   7.977   3.514   7.744 -0.5477 -0.3620  0.3532
  702SOL    HW1 4113   7.974   3.463   7.825 -1.0851 -0.1127  0.4941
  702SOL    HW2 4114   8.042   3.469   7.690 -0.8349 -1.0567  0.5678
  703SOL     OW 4115   6.944   9.616  10.255 -0.4672  0.5882 -0.2576
  703SOL    HW1 4116   6.905   9.665  10.328 -0.6627  0.5615 -0.3412
  703SOL    HW2 4117   7.035   9.604  10.280 -0.3954  1.0689 -0.2703
  704SOL     OW 4118  10.408   2.881   0.039  0.0011 -0.3553  0.4864
  704SOL    HW1 4119  10.488   2.930   0.062 -0.3320 -0.8752  3.1625
  704SOL    HW2 4120  10.384   2.836   0.120 -2.0454 -1.6365 -0.7413
  705SOL     OW 4121   8.990   7.305   7.730  0.7879 -0.0267 -0.3100
  705SOL    HW1 4122   8.973   7.281   7.639 -0.3749 -0.3237 -0.0389
  705SOL    HW2 4123   8.942   7.239   7.781  2.9646 -1.0362  0.5675
  706SOL     OW 4124   5.067   6.327   9.909  0.0514 -0.1105  0.3911
  706SOL    HW1 4125   5.131   6.317   9.839  0.6248 -0.5941  0.9653
  706SOL    HW2 4126   4.990   6.364   9.867  0.7946  0.7145 -0.2786
  707SOL     OW 4127   9.483   7.573   1.503  0.0532  0.1602  0.4233
  707SOL    HW1 4128   9.564   7.600   1.459 -0.1690 -0.5279 -0.4644
  707SOL    HW2 4129   9.478   7.478   1.486 -1.0072  0.2187  0.3189
  708SOL     OW 4130   3.093   2.098   3.549  0.4929 -0.0278 -0.4809
  708SOL    HW1 4131   3.169   2.070   3.498  0.1903 -2.0421  0.0824
  708SOL    HW2 4132   3.041   2.018   3.561 -1.2989  1.1126 -0.1310
  709SOL     OW 4133   4.159   3.285   8.520  0.0802 -0.6736 -0.2303
  709SOL    HW1 4134   4.156   3.252   8.430  3.5071 -1.4267 -0.2168
  709SOL    HW2 4135   4.182   3.209   8.573  0.7678  0.2858  0.8961
  710SOL     OW 4136   3.182   7.665   1.279 -0.7914 -0.0082 -0.3736
  710SOL    HW1 4137   3.191   7.692   1.370 -1.5621 -0.3537 -0.1832
  710SOL    HW2 4138   3.162   7.572   1.284 -3.7301  0.5038 -0.7160
  711SOL     OW 4139   1.884   2.502   4.204 -0.1997  0.2488 -0.2547
  711SOL    HW1 4140   1.878   2.595   4.227 -2.2512  0.0929  0.0181
  711SOL    HW2 4141   1.967   2.474   4.241  0.1843  1.8344  0.1780
  712SOL     OW 4142   8.417   9.891   3.312 -0.2689  0.2344  0.4278
  712SOL    HW1 4143   8.363   9.949   3.366  1.2744  2.4057 -0.2419
  712SOL    HW2 4144   8.392   9.913   3.222 -0.6024 -1.1329  0.1661
  713SOL     OW 4145   6.505   2.786   1.737 -0.5656  0.3023  0.4606
  713SOL    HW1 4146   6.431   2.845   1.724 -0.7231  0.0429  0.1633
  713SOL    HW2 4147   6.487   2.711   1.679  0.4709  0.7329 -0.4571
  714SOL     OW 4148   7.688   2.657   7.035  0.5361  0.5022 -0.1388
  714SOL    HW1 4149   7.732   2.739   7.012  0.5070  0.5523 -0.0171
  714SOL    HW2 4150   7.696   2.652   7.130  1.8824 -0.3815 -0.2662
  715SOL     OW 4151  10.915  10.226   0.151 -0.1022 -0.5124  0.3752
  715SOL    HW1 4152  10.887  10.200   0.239 -0.7636  0.2102  0.3827
  715SOL    HW2 4153  10.903  10.146   0.098  1.1048 -1.2042  1.0950
  716SOL     OW 4154   8.354   4.337   6.904  0.6380  0.2334  0.3959
  716SOL    HW1 4155   8.340   4.243   6.907 -0.1143  0.3346  0.1392
  716SOL    HW2 4156   8.302   4.367   6.829  0.9456  0.8370  0.4188
  717SOL     OW 4157   4.004  10.047   3.299 -0.2900  0.1665  0.2096
  717SOL    HW1 4158   4.082  10.054   3.244 -0.2148 -0.2643  0.2552
  717SOL    HW2 4159   3.983   9.953   3.298 -0.8379  0.2832  0.1509
  718SOL     OW 4160   8.787  10.040   6.280 -0.4144 -0.4370 -0.6985
  718SOL    HW1 4161   8.765  10.105   6.214  0.1044  0.0333 -0.4162
  718SOL    HW2 4162   8.784  10.088   6.363 -0.7835 -0.9525 -0.4076
  719SOL     OW 4163   4.153   4.700   8.636 -0.1538  0.5158 -0.2336
  719SOL    HW1 4164   4.152   4.651   8.554  1.8916  0.2139 -0.1249
  719SOL    HW2 4165   4.168   4.633   8.703  0.6491  1.0453  0.1276
  720SOL     OW 4166   6.162   4.514   1.701  0.2252  0.0194  0.1761
  720SOL    HW1 4167   6.164   4.587   1.763  0.5091  0.6823 -0.5969
  720SOL    HW2 4168   6.246   4.469   1.715  1.0107  1.1189 -0.8236
  721SOL     OW 4169   0.341   8.373   0.348 -0.0380 -0.2814 -0.2817
  721SOL    HW1 4170   0.322   8.461   0.316  0.2097 -1.1176 -2.8910
  721SOL    HW2 4171   0.411   8.341   0.291  0.0914 -2.0751  0.8040
  722SOL     OW 4172   1.394  10.512  10.601 -0.4315 -0.9151 -0.2461
  722SOL    HW1 4173   1.362  10.530  10.689 -1.3659  0.7537 -0.8753
  722SOL    HW2 4174   1.317  10.479  10.554 -0.6386  0.6506 -1.0831
  723SOL     OW 4175  10.333  10.856   0.301 -0.7183  0.2452  0.0270
  723SOL    HW1 4176  10.407  10.797   0.289  0.2845  1.2112  1.1633
  723SOL    HW2 4177  10.257  10.808   0.268  0.3581 -0.9065 -0.8263
  724SOL     OW 4178   6.875   0.420   5.540 -0.2292 -0.3336 -0.6820
  724SOL    HW1 4179   6.836   0.440   5.455  1.0906  0.7424 -1.0721
  724SOL    HW2 4180   6.969   0.418   5.524  0.0402 -0.2750  0.7228
  725SOL     OW 4181   1.813   1.371  10.036  0.2139  0.0271 -0.6865
  725SOL    HW1 4182   1.894   1.379  10.088  1.0582  0.1461 -1.9772
  725SOL    HW2 4183   1.758   1.442  10.069  0.6131 -0.0577  0.2258
  726SOL     OW 4184   2.719   6.197   5.968  0.2545 -0.1249 -0.0087
  726SOL    HW1 4185   2.660   6.209   5.894  1.8327  0.1582 -1.2636
  726SOL    HW2 4186   2.666   6.152   6.034 -0.9860 -1.0157 -1.5656
  727SOL     OW 4187   6.328   4.231   2.568 -0.1751 -0.1296 -0.3026
  727SOL    HW1 4188   6.273   4.158   2.598  1.1291 -0.9262  0.2250
  727SOL    HW2 4189   6.322   4.297   2.637 -1.4054  0.3101 -0.8067
  728SOL     OW 4190   0.192   9.942   9.234  0.1343  0.0566 -0.2466
  728SOL    HW1 4191   0.241   9.961   9.153 -2.3472 -0.9587 -2.1212
  728SOL    HW2 4192   0.195   9.846   9.241 -0.5036  0.0746  0.3150
  729SOL     OW 4193   4.816   0.351   2.013  0.0075 -0.1303  0.1026
  729SOL    HW1 4194   4.894   0.406   2.005  0.8355 -1.4961 -2.3816
  729SOL    HW2 4195   4.826   0.307   2.097 -0.1162  2.5626  1.6188
  730SOL     OW 4196   0.777   9.730   5.844  0.4531 -0.1081  0.4895
  730SOL    HW1 4197   0.698   9.701   5.889 -0.7174 -0.5415 -1.7394
  730SOL    HW2 4198   0.783   9.824   5.864 -0.7060 -0.0467  0.5844
  731SOL     OW 4199   3.923   6.133   3.164 -0.8315 -0.5165 -0.4003
  731SOL    HW1 4200   3.891   6.087   3.241  0.3499  1.6523  1.4866
  731SOL    HW2 4201   3.982   6.071   3.121 -2.0427 -2.0049 -0.0323
  732SOL     OW 4202   9.744   1.341   8.405 -0.7254  0.4102 -0.2263
  732SOL    HW1 4203   9.829   1.365   8.368  0.4494 -1.1747  1.2573
  732SOL    HW2 4204   9.733   1.401   8.479  1.9568 -2.7432  3.1477
  733SOL     OW 4205   4.197  10.782   4.554 -0.0596 -0.2374 -0.7042
  733SOL    HW1 4206   4.149  10.764   4.473  1.8906 -3.7981 -1.2425
  733SOL    HW2 4207   4.136  10.761   4.624 -1.4647  2.0317 -1.1264
  734SOL     OW 4208   5.931   5.519   6.295 -0.3974  0.2301 -0.2199
  734SOL    HW1 4209   5.880   5.565   6.361  0.2592 -0.0645  0.5094
  734SOL    HW2 4210   5.921   5.426   6.317  2.0166  0.2245  1.1626
  735SOL     OW 4211   3.108   3.736   4.137  0.1047 -0.0608 -0.0453
  735SOL    HW1 4212   3.162   3.658   4.132  2.5489  1.6158 -1.3582
  735SOL    HW2 4213   3.164   3.802   4.179 -1.0483  1.6309 -1.0342
  736SOL     OW 4214   3.908   7.871   0.023 -0.1078  0.1642  0.5289
  736SOL    HW1 4215   3.959   7.808   0.075 -0.2812 -0.4870 -0.0749
  736SOL    HW2 4216   3.818   7.840   0.029  0.1915 -1.6530 -2.4766
  737SOL     OW 4217   8.167   2.054   6.330  0.2929 -0.5252 -0.2523
  737SOL    HW1 4218   8.190   2.137   6.290  1.2597  0.3875  2.0138
  737SOL    HW2 4219   8.161   2.073   6.424 -0.1955 -2.8589  0.2658
  738SOL     OW 4220   8.531  10.026   1.283  0.7767  0.2263 -1.1168
  738SOL    HW1 4221   8.568  10.112   1.261  0.5209  1.2797  2.1076
  738SOL    HW2 4222   8.441  10.045   1.311  0.0669 -1.3963 -2.1443
  739SOL     OW 4223   3.423   2.306   7.442 -0.0433 -0.2963  0.4484
  739SOL    HW1 4224   3.411   2.397   7.412  2.1734 -0.6656 -1.8566
  739SOL    HW2 4225   3.339   2.264   7.423 -1.5357  1.4244  2.6181
  740SOL     OW 4226   2.531   4.506   6.572 -0.6674 -0.0968 -0.3070
  740SOL    HW1 4227   2.493   4.555   6.644 -1.5523  0.9426 -1.4411
  740SOL    HW2 4228   2.603   4.457   6.611 -1.0523  0.5302  1.2424
  741SOL     OW 4229   0.120   6.693   1.599  0.3968 -0.0015 -0.5063
  741SOL    HW1 4230   0.163   6.683   1.514 -1.8715 -1.8243 -1.5602
  741SOL    HW2 4231   0.088   6.783   1.598 -0.0468 -0.1362 -1.8674
  742SOL     OW 4232   5.692   3.031   2.491  0.0179 -0.0578 -0.4952
  742SOL    HW1 4233   5.754   2.980   2.439  0.0254 -0.6002  0.0300
  742SOL    HW2 4234   5.659   2.969   2.556  1.1042  0.9479  1.0959
  743SOL     OW 4235   8.672   4.010   5.000 -0.0496  0.2497 -0.8426
  743SOL    HW1 4236   8.705   3.922   5.020  0.0869  0.4782  0.0049
  743SOL    HW2 4237   8.610   3.997   4.928 -0.4751 -0.6210 -0.3352
  744SOL     OW 4238   8.334   0.944   2.111 -0.0413  0.4249 -0.6987
  744SOL    HW1 4239   8.273   0.884   2.154  0.3523  1.0487  0.7692
  744SOL    HW2 4240   8.414   0.939   2.164  0.8317  0.4293 -1.9715
  745SOL     OW 4241   0.539   1.164   1.704 -0.0672 -0.3701  0.8855
  745SOL    HW1 4242   0.562   1.241   1.652 -3.2589  1.6955  2.2219
  745SOL    HW2 4243   0.612   1.154   1.765  1.3218  0.3331 -0.5935
  746SOL     OW 4244   7.250   2.524   7.725  0.4544  0.0962  0.0711
  746SOL    HW1 4245   7.320   2.459   7.733 -1.7521 -2.4786 -0.1939
  746SOL    HW2 4246   7.209   2.527   7.812 -0.9705 -0.7593 -0.5315
  747SOL     OW 4247   6.879   1.368   8.173  0.5617 -0.3351  0.0568
  747SOL    HW1 4248   6.866   1.302   8.241  2.6640 -1.0524 -0.1843
  747SOL    HW2 4249   6.903   1.318   8.095 -0.5462  0.5653 -0.8990
  748SOL     OW 4250   1.048   6.425   1.078  0.0231  0.4574 -0.1709
  748SOL    HW1 4251   0.987   6.493   1.049 -0.1236  1.7581  2.7947
  748SOL    HW2 4252   0.993   6.351   1.102 -0.1405  0.5763 -0.1767
  749SOL     OW 4253  10.430   5.322   3.351  0.5522  0.2577  0.6181
  749SOL    HW1 4254  10.421   5.227   3.359  1.5913  0.2410  1.8295
  749SOL    HW2 4255  10.478   5.348   3.429  1.8748  1.5650 -0.5798
  750SOL     OW 4256   1.054   6.322   3.574 -0.3875 -0.4689 -0.3594
  750SOL    HW1 4257   1.100   6.296   3.654 -3.4357 -1.4117  1.2348
  750SOL    HW2 4258   0.969   6.352   3.604 -0.3404  2.9069 -2.9854
  751SOL     OW 4259   8.954   8.538   2.751 -0.1764 -0.2893  0.0093
  751SOL    HW1 4260   8.994   8.546   2.664 -0.5585  0.5500 -0.1006
  751SOL    HW2 4261   8.900   8.459   2.745  0.2236 -0.5470 -0.3325
  752SOL     OW 4262   0.398   8.079   0.923  0.0586  0.6978 -0.3708
  752SOL    HW1 4263   0.459   8.029   0.868 -0.9922  0.6326 -1.5360
  752SOL    HW2 4264   0.312   8.040   0.905 -0.2381  0.0264  2.0957
  753SOL     OW 4265   4.228   1.746   4.148 -0.0710 -0.4768  0.0247
  753SOL    HW1 4266   4.172   1.700   4.210 -0.6158 -0.3570 -0.3686
  753SOL    HW2 4267   4.265   1.819   4.199  1.8169 -2.0292  1.0152
  754SOL     OW 4268   6.813   0.178   4.281  0.1008  0.2465 -0.0513
  754SOL    HW1 4269   6.803   0.159   4.374  0.6843 -0.4766 -0.1255
  754SOL    HW2 4270   6.900   0.219   4.275  2.4740 -4.2895 -0.8509
  755SOL     OW 4271   1.748  10.645   1.650 -0.6970  0.1559  0.0852
  755SOL    HW1 4272   1.798  10.700   1.589 -0.8196 -0.2028 -0.3471
  755SOL    HW2 4273   1.663  10.688   1.657 -1.2845 -0.7020 -1.3408
  756SOL     OW 4274   1.122  10.615   6.303  0.1132 -0.4197 -0.5082
  756SOL    HW1 4275   1.176  10.544   6.270  2.3251  0.6090  0.6941
  756SOL    HW2 4276   1.133  10.612   6.398 -2.8903 -0.8293 -0.0537
  757SOL     OW 4277   2.203   9.746   4.959  0.8250 -0.6626  0.0603
  757SOL    HW1 4278   2.157   9.717   5.037  0.2981  1.3916  0.5707
  757SOL    HW2 4279   2.285   9.698   4.960  1.3769  0.1808  2.5747
  758SOL     OW 4280   0.574   3.675   2.659  0.5558 -0.7249 -0.1215
  758SOL    HW1 4281   0.507   3.609   2.642  0.3412 -0.3950 -0.6067
  758SOL    HW2 4282   0.554   3.745   2.596 -0.7305  0.9091  1.9440
  759SOL     OW 4283  10.999   6.192   6.601 -0.0521 -0.3949 -0.3388
  759SOL    HW1 4284  11.001   6.277   6.645  1.6881 -0.3274 -0.4935
  759SOL    HW2 4285  10.907   6.180   6.578 -0.6366  0.5895  1.3161
  760SOL     OW 4286   7.693  10.500   4.056 -0.2972  0.5952  0.3303
  760SOL    HW1 4287   7.656  10.441   3.990 -0.9622  0.7580  0.5458
  760SOL    HW2 4288   7.652  10.473   4.138 -2.0398  2.4859  0.1648
  761SOL     OW 4289   3.899   2.025   5.271 -0.4071  0.4208  0.4653
  761SOL    HW1 4290   3.830   2.071   5.320  0.7457 -0.1115  2.7487
  761SOL    HW2 4291   3.960   1.995   5.339  2.0260  0.7543 -1.4369
  762SOL     OW 4292   2.979   1.276  10.265  0.2947 -0.0321 -0.3280
  762SOL    HW1 4293   2.972   1.350  10.204  0.1781  1.1508  1.0486
  762SOL    HW2 4294   3.061   1.232  10.240  0.1281  0.2819 -1.4648
  763SOL     OW 4295   2.300   0.866   6.183 -0.3232 -0.8348  0.3030
  763SOL    HW1 4296   2.296   0.776   6.151 -1.3046 -0.2439 -1.3340
  763SOL    HW2 4297   2.232   0.912   6.135 -0.1188  0.7120  1.4124
  764SOL     OW 4298   4.423  10.298   9.832  0.3135 -0.0377 -0.0836
  764SOL    HW1 4299   4.423  10.257   9.745 -0.4782  0.2098 -0.2115
  764SOL    HW2 4300   4.483  10.372   9.824 -0.7441  0.7873 -0.8340
  765SOL     OW 4301   5.017   9.768   6.594  0.1023  0.3865  0.4503
  765SOL    HW1 4302   4.978   9.837   6.541 -1.0851 -0.0567  0.7235
  765SOL    HW2 4303   5.095   9.741   6.544 -0.8225  0.1871 -0.9325
  766SOL     OW 4304   9.427   6.419   3.609 -1.0916  0.2322 -0.1052
  766SOL    HW1 4305   9.411   6.460   3.524  0.6262  0.9762 -0.1019
  766SOL    HW2 4306   9.422   6.492   3.671  1.1296  0.3334  0.0026
  767SOL     OW 4307   6.784   3.903   0.891 -0.6609  0.1606 -0.1713
  767SOL    HW1 4308   6.717   3.895   0.959 -1.8539 -2.0297 -1.4834
  767SOL    HW2 4309   6.776   3.993   0.861 -1.0232  0.7793  1.6443
  768SOL     OW 4310   9.259   6.366   4.758  0.2520 -0.6608 -0.3380
  768SOL    HW1 4311   9.239   6.359   4.851 -0.5368 -0.7207 -0.5087
  768SOL    HW2 4312   9.321   6.440   4.753 -1.5884  0.9922 -0.0158
  769SOL     OW 4313   4.909   4.495   3.615 -0.0078 -0.2375  0.1058
  769SOL    HW1 4314   4.894   4.400   3.612 -2.3607  0.0164  1.2889
  769SOL    HW2 4315   4.871   4.522   3.699  0.0832  1.8478 -0.4816
  770SOL     OW 4316   6.831  10.813   2.150  0.0979  0.4075  0.5111
  770SOL    HW1 4317   6.820  10.852   2.237  0.0278  2.1592 -0.2264
  770SOL    HW2 4318   6.840  10.889   2.091  1.5911 -0.7353 -0.8308
  771SOL     OW 4319   6.063   8.098   3.299 -0.1305 -0.1675 -0.1233
  771SOL    HW1 4320   6.099   8.184   3.322 -1.2087  0.1503  0.4470
  771SOL    HW2 4321   5.971   8.104   3.324  0.1237 -2.0529  1.5236
  772SOL     OW 4322   7.470   1.516   5.035  0.4047 -0.2483  0.7048
  772SOL    HW1 4323   7.490   1.489   4.945 -0.3374 -0.0133  0.4623
  772SOL    HW2 4324   7.380   1.548   5.031  0.8033  0.9965  1.2610
  773SOL     OW 4325   5.662   7.934   0.956  0.2662 -0.3258  0.1054
  773SOL    HW1 4326   5.599   7.992   0.998  0.8446  0.0416  0.4784
  773SOL    HW2 4327   5.650   7.849   1.000 -0.7162 -0.5548 -0.5799
  774SOL     OW 4328   8.152   2.195   9.237 -0.6473  0.0799 -0.6514
  774SOL    HW1 4329   8.090   2.132   9.274  0.5713 -0.4771  0.5646
  774SOL    HW2 4330   8.133   2.277   9.282  0.7061 -0.5513  1.2272
  775SOL     OW 4331  10.887   0.968   2.245  0.0957 -0.3705  0.1436
  775SOL    HW1 4332  10.846   0.936   2.325  0.5514 -0.2652  0.4211
  775SOL    HW2 4333  10.814   0.987   2.186 -0.3255  1.2660  1.1618
  776SOL     OW 4334  10.783   6.362   9.902 -0.2085  0.1270  0.3214
  776SOL    HW1 4335  10.689   6.354   9.885 -0.0979  1.5138 -1.1850
  776SOL    HW2 4336  10.792   6.343   9.996 -2.0805  0.6475  0.6489
  777SOL     OW 4337   8.352   9.578   7.331  0.1002  0.3134 -0.3767
  777SOL    HW1 4338   8.398   9.496   7.311 -0.5187  0.1461 -1.1492
  777SOL    HW2 4339   8.289   9.554   7.399 -1.5239 -0.3398 -2.0561
  778SOL     OW 4340   6.376   6.555   9.507 -0.1368 -0.1466 -0.6383
  778SOL    HW1 4341   6.284   6.548   9.480  0.3330  0.4558 -2.5342
  778SOL    HW2 4342   6.373   6.600   9.591 -1.6043 -0.6941 -0.3613
  779SOL     OW 4343   9.558  10.415   1.748 -0.3684  0.4064  0.1310
  779SOL    HW1 4344   9.469  10.410   1.782 -0.3579  1.4433  0.3454
  779SOL    HW2 4345   9.603  10.340   1.787 -0.8766  0.4596  0.8406
  780SOL     OW 4346   9.237   9.229   4.352 -0.1997 -0.3065 -0.2193
  780SOL    HW1 4347   9.275   9.162   4.409 -2.1722 -1.4438 -0.1422
  780SOL    HW2 4348   9.228   9.186   4.267 -1.6292 -0.2347 -0.1297
  781SOL     OW 4349   8.825   4.439   3.159  0.9236  0.3072  0.0163
  781SOL    HW1 4350   8.820   4.448   3.064  2.7145 -0.8271 -0.2392
  781SOL    HW2 4351   8.839   4.345   3.174 -3.9456 -0.4318  1.7299
  782SOL     OW 4352   7.074   9.476   1.097 -0.1170  0.1042  0.2892
  782SOL    HW1 4353   6.989   9.442   1.126  1.0876 -2.5235  0.9587
  782SOL    HW2 4354   7.090   9.551   1.155 -0.9225 -0.8104  1.7496
  783SOL     OW 4355   3.110   8.345  10.720  0.0121  0.3817  0.3500
  783SOL    HW1 4356   3.148   8.279  10.661 -1.5485 -1.9695  1.8284
  783SOL    HW2 4357   3.050   8.395  10.664  0.3854 -0.1763 -0.5817
  784SOL     OW 4358   1.776   1.289   0.264 -0.8453  0.4740  0.3653
  784SOL    HW1 4359   1.757   1.284   0.357  1.6485 -0.1273  0.9281
  784SOL    HW2 4360   1.706   1.239   0.222  0.7068 -3.9401  2.3977
  785SOL     OW 4361   3.042  10.780  10.150  0.5345 -0.1991  0.2153
  785SOL    HW1 4362   3.091  10.858  10.124 -0.8817  0.4020 -0.7774
  785SOL    HW2 4363   3.047  10.722  10.074 -1.3420  0.4299 -0.4552
  786SOL     OW 4364   7.341   1.724   2.909  0.6836  0.2916 -0.0888
  786SOL    HW1 4365   7.248   1.741   2.917  0.4775 -0.1160 -1.3380
  786SOL    HW2 4366   7.349   1.629   2.914  1.1653  0.3700  1.0378
  787SOL     OW 4367   2.673   2.521   4.207  0.4026  0.0368  0.4341
  787SOL    HW1 4368   2.682   2.614   4.224  0.3250 -0.1835  1.7749
  787SOL    HW2 4369   2.758   2.484   4.228  0.6471 -0.1192 -0.7591
  788SOL     OW 4370   4.799   3.980   9.978 -0.1741  0.1470  0.2110
  788SOL    HW1 4371   4.731   3.982   9.911  1.2475 -0.6112 -1.3292
  788SOL    HW2 4372   4.867   3.923   9.942  1.5565  1.3312  1.4245
  789SOL     OW 4373   1.483   6.678   5.447  0.2664 -0.0989 -0.6717
  789SOL    HW1 4374   1.466   6.587   5.424  1.5424 -0.3059 -0.8754
  789SOL    HW2 4375   1.480   6.725   5.364  0.8852 -0.1858 -0.7535
  790SOL     OW 4376  10.120   8.498   0.898 -0.3985  0.2275  0.5880
  790SOL    HW1 4377  10.171   8.543   0.966 -1.4824  1.3898  0.6857
  790SOL    HW2 4378  10.122   8.558   0.824 -1.2311  0.0919  0.4492
  791SOL     OW 4379   4.373   7.599   4.889  0.2560 -0.0462  0.3892
  791SOL    HW1 4380   4.410   7.601   4.978 -0.4868  2.6991  0.7276
  791SOL    HW2 4381   4.394   7.685   4.853 -0.8765 -0.5210 -1.5314
  792SOL     OW 4382   3.856   7.122  10.039  0.6613 -0.6339  0.6542
  792SOL    HW1 4383   3.838   7.031  10.061 -0.1262 -0.4591  0.7565
  792SOL    HW2 4384   3.847   7.126   9.944 -0.1635 -0.4851  0.7320
  793SOL     OW 4385   7.170   9.170   6.387  0.1337 -0.5813  0.3916
  793SOL    HW1 4386   7.249   9.141   6.341 -0.9448 -1.7223 -0.8011
  793SOL    HW2 4387   7.121   9.220   6.322 -0.9378 -1.3503  0.5732
  794SOL     OW 4388   1.152   4.127   1.977 -0.5000  0.2507 -0.8382
  794SOL    HW1 4389   1.147   4.197   2.042 -0.1679  1.1556 -1.7702
  794SOL    HW2 4390   1.227   4.074   2.006 -0.9328  0.0842  0.0336
  795SOL     OW 4391   4.420  10.889   4.681  0.2707 -0.2085  0.2617
  795SOL    HW1 4392   4.349  10.838   4.643  0.3929 -2.2767  2.5800
  795SOL    HW2 4393   4.384  10.924   4.763  0.9629  1.4837 -0.1030
  796SOL     OW 4394   7.503   0.460  10.559 -0.7846 -0.4427 -0.1699
  796SOL    HW1 4395   7.437   0.401  10.596 -0.1030 -0.5188  0.9872
  796SOL    HW2 4396   7.580   0.405  10.545 -0.4961 -0.0613 -0.1069
  797SOL     OW 4397   1.210   6.996   8.275 -0.2704 -0.3002 -0.3281
  797SOL    HW1 4398   1.207   6.947   8.356 -0.6514 -0.5711 -0.5045
  797SOL    HW2 4399   1.200   6.930   8.206  0.2946 -0.1055 -0.6051
  798SOL     OW 4400   8.036   0.034   4.488 -0.0569  0.3762  0.0516
  798SOL    HW1 4401   7.989   0.090   4.426 -1.6860 -2.3119 -1.3419
  798SOL    HW2 4402   7.968  -0.009   4.539  1.0900 -0.5950  0.8329
  799SOL     OW 4403   4.332   3.534   7.621  0.0452 -0.1864  0.2375
  799SOL    HW1 4404   4.263   3.517   7.557  0.4606 -0.6439 -0.0945
  799SOL    HW2 4405   4.331   3.457   7.678  0.2777 -0.1977  0.2288
  800SOL     OW 4406   8.559   3.571  10.803 -0.1191  0.0890 -0.2808
  800SOL    HW1 4407   8.467   3.588  10.786 -0.0344 -0.5025 -1.4279
  800SOL    HW2 4408   8.564   3.555  10.897 -1.2204 -0.1146 -0.2495
  801SOL     OW 4409   2.501   0.686  10.997  0.3128 -0.1303 -0.1800
  801SOL    HW1 4410   2.451   0.715  10.920  1.0669  0.4995 -0.4478
  801SOL    HW2 4411   2.560   0.759  11.016  0.0584 -0.2210  1.0830
  802SOL     OW 4412   0.394   3.364   5.743 -0.3338  0.0161  0.3907
  802SOL    HW1 4413   0.488   3.371   5.762  0.0677 -0.4317 -1.2402
  802SOL    HW2 4414   0.352   3.421   5.807  0.9881 -0.3836  1.6595
  803SOL     OW 4415   8.310   7.716   1.063  0.1724 -0.8965 -0.1699
  803SOL    HW1 4416   8.272   7.703   0.976  0.5426 -1.3634 -0.2691
  803SOL    HW2 4417   8.346   7.630   1.086  2.0199 -0.2488 -0.4967
  804SOL     OW 4418   8.281   1.989   8.572  0.3666 -0.4606 -0.6921
  804SOL    HW1 4419   8.225   2.008   8.497 -0.3752 -0.2211 -0.0934
  804SOL    HW2 4420   8.369   2.013   8.543  0.0086  0.1886 -1.2775
  805SOL     OW 4421   6.631   7.015  10.528  0.3082  0.3365 -0.9238
  805SOL    HW1 4422   6.619   7.048  10.439  1.2155 -0.3552 -1.3191
  805SOL    HW2 4423   6.694   7.075  10.567 -1.0349  1.3955 -0.2994
  806SOL     OW 4424   7.471   0.121   3.284  0.2240 -0.1422 -0.2771
  806SOL    HW1 4425   7.486   0.152   3.373 -0.0872  1.0453 -0.6189
  806SOL    HW2 4426   7.554   0.080   3.259  0.3819 -0.2998  0.4819
  807SOL     OW 4427   9.472   2.446   1.574  0.1281  0.2271 -0.0154
  807SOL    HW1 4428   9.455   2.532   1.612 -0.1680 -0.2899  1.0848
  807SOL    HW2 4429   9.461   2.458   1.480  0.1211  1.3938  0.1209
  808SOL     OW 4430   9.705   6.789   9.049  0.0796  0.0971 -0.6122
  808SOL    HW1 4431   9.656   6.787   9.131  0.5992  1.5483 -0.2368
  808SOL    HW2 4432   9.746   6.702   9.044  0.5305  0.1783  0.9903
  809SOL     OW 4433   6.641   2.466   5.609  0.9447 -0.5354 -0.1826
  809SOL    HW1 4434   6.664   2.497   5.521  0.5462  1.2620  0.3081
  809SOL    HW2 4435   6.555   2.426   5.598 -0.0725  1.5354 -0.3045
  810SOL     OW 4436   9.696  10.950  10.350  0.5502  0.4089  0.3255
  810SOL    HW1 4437   9.771  10.891  10.356  1.2607  1.0854 -1.4764
  810SOL    HW2 4438   9.734  11.035  10.332 -0.6538  0.7780 -0.5543
  811SOL     OW 4439   3.317   8.739   9.786  0.2003  0.2647 -0.1667
  811SOL    HW1 4440   3.394   8.783   9.751  1.0836 -0.5987  0.6556
  811SOL    HW2 4441   3.268   8.809   9.831  1.4087  0.4954  0.8278
  812SOL     OW 4442   0.322   1.869  10.711 -0.2975  0.1456  0.1293
  812SOL    HW1 4443   0.353   1.812  10.782 -0.5145 -0.4673 -0.2553
  812SOL    HW2 4444   0.279   1.942  10.756 -0.9861 -0.5432  0.6396
  813SOL     OW 4445   4.855   4.033  10.484  0.5605  0.1473  0.2590
  813SOL    HW1 4446   4.838   4.042  10.577  1.0812 -1.9156  0.6084
  813SOL    HW2 4447   4.770   4.051  10.442 -0.1286 -0.6770  1.2637
  814SOL     OW 4448   1.485   9.142   6.317 -0.1130 -0.0741 -1.0593
  814SOL    HW1 4449   1.555   9.156   6.381 -1.8437  2.7083  0.4319
  814SOL    HW2 4450   1.428   9.076   6.358  0.9115 -1.3946 -1.6985
  815SOL     OW 4451   2.845   3.526   9.700  0.5353 -0.3250 -0.5821
  815SOL    HW1 4452   2.845   3.607   9.750 -1.1659 -0.3172 -0.5382
  815SOL    HW2 4453   2.790   3.466   9.750 -0.8770 -0.4452 -2.1600
  816SOL     OW 4454   6.077   6.485   4.601 -0.3336 -0.0343 -0.3557
  816SOL    HW1 4455   6.166   6.514   4.622  0.2593 -1.1944 -1.1958
  816SOL    HW2 4456   6.068   6.500   4.507 -0.8570 -0.3870 -0.3650
  817SOL     OW 4457   2.270   6.108   8.734 -0.0290  0.7678 -0.3513
  817SOL    HW1 4458   2.358   6.140   8.713 -0.0149  1.2665  0.4322
  817SOL    HW2 4459   2.239   6.067   8.653  1.1583  0.0484 -0.4702
  818SOL     OW 4460   2.449   7.393   2.972  0.0546  0.9261  0.3281
  818SOL    HW1 4461   2.443   7.300   2.991  0.3273  0.7600 -0.3614
  818SOL    HW2 4462   2.422   7.400   2.880  0.5449  1.4557  0.2201
  819SOL     OW 4463   2.595   4.540   5.697  0.0902 -0.0492  0.0068
  819SOL    HW1 4464   2.666   4.538   5.762  1.1221 -2.0436 -1.0982
  819SOL    HW2 4465   2.584   4.449   5.671 -1.6262  0.4674 -1.2237
  820SOL     OW 4466   5.971   7.520   4.449  0.5533 -0.3026  0.5932
  820SOL    HW1 4467   6.005   7.596   4.495 -0.0156  0.5155 -0.2958
  820SOL    HW2 4468   5.884   7.548   4.418  0.1815 -1.4367  0.5705
  821SOL     OW 4469   7.513   1.078   0.799  0.2103 -0.2360  0.4382
  821SOL    HW1 4470   7.451   1.084   0.871 -0.0258  2.0204  0.1165
  821SOL    HW2 4471   7.548   1.166   0.790  1.1586 -0.7475 -1.4003
  822SOL     OW 4472   6.538   0.980   5.659  0.2176 -0.1868  0.7832
  822SOL    HW1 4473   6.473   0.930   5.609 -0.5206  0.8932  0.6376
  822SOL    HW2 4474   6.531   0.945   5.748  0.4875 -1.0870  0.4640
  823SOL     OW 4475   4.942   3.097  10.091 -0.4079  0.3030 -0.1028
  823SOL    HW1 4476   4.979   3.059  10.012 -0.0732 -0.1737  0.2765
  823SOL    HW2 4477   4.981   3.047  10.162 -2.7288 -1.1282  0.2950
  824SOL     OW 4478  10.514   9.398   0.952 -0.5747 -0.3484  0.6868
  824SOL    HW1 4479  10.561   9.427   1.029 -2.0319  0.4354  1.3258
  824SOL    HW2 4480  10.473   9.478   0.917 -0.2588 -0.7507 -0.6855
  825SOL     OW 4481   4.283   2.750   0.386  0.4369 -0.2552  0.3800
  825SOL    HW1 4482   4.329   2.833   0.379  1.6401 -0.6516  2.4432
  825SOL    HW2 4483   4.213   2.766   0.449  0.7714 -0.8024  0.9113
  826SOL     OW 4484   8.698   3.791   8.595  0.5143  0.4203  0.0953
  826SOL    HW1 4485   8.692   3.702   8.631  1.2092  0.2793 -0.1058
  826SOL    HW2 4486   8.704   3.848   8.672  0.6976  0.2375  0.2178
  827SOL     OW 4487   0.489   3.270  10.322 -0.5496 -0.0845  0.1677
  827SOL    HW1 4488   0.401   3.254  10.287 -0.2024 -0.7378 -0.4276
  827SOL    HW2 4489   0.548   3.245  10.251  0.1091  1.2839  0.2010
  828SOL     OW 4490   1.829  10.765   5.304 -0.3944  0.5532  0.3285
  828SOL    HW1 4491   1.779  10.746   5.224 -1.4457  1.7925  0.6690
  828SOL    HW2 4492   1.811  10.857   5.322 -0.7642  0.1201  2.4077
  829SOL     OW 4493   6.113   8.916   8.328 -0.0275 -0.2634 -0.2619
  829SOL    HW1 4494   6.115   8.952   8.417 -0.8341  1.3329 -0.8605
  829SOL    HW2 4495   6.190   8.952   8.286  1.4081 -2.4848  0.2619
  830SOL     OW 4496   4.931   4.486   8.683  0.4288 -0.2120  0.0781
  830SOL    HW1 4497   4.945   4.572   8.723 -0.3128 -0.5292  1.0453
  830SOL    HW2 4498   4.992   4.428   8.729 -1.1142 -0.7788  1.4977
  831SOL     OW 4499   3.402   5.355   1.181 -0.0614 -0.5041  0.4856
  831SOL    HW1 4500   3.422   5.354   1.087 -0.4716  0.9582  0.3643
  831SOL    HW2 4501   3.395   5.447   1.203  1.0053 -0.7815  2.1799
  832SOL     OW 4502   7.755   1.414   9.431  0.0714 -0.2398  0.0370
  832SOL    HW1 4503   7.804   1.448   9.356  2.1667 -0.8263  1.0620
  832SOL    HW2 4504   7.751   1.320   9.416 -0.4585 -0.2334  0.1374
  833SOL     OW 4505   5.797   3.330   5.712  0.2573  0.6799  0.0203
  833SOL    HW1 4506   5.703   3.343   5.712  0.0654 -0.6021  0.3035
  833SOL    HW2 4507   5.813   3.263   5.645  0.7022 -0.7062  1.4574
  834SOL     OW 4508   3.966   0.871   1.870 -0.1368  0.0906  0.0712
  834SOL    HW1 4509   3.897   0.915   1.921  0.5499  0.4999  0.6716
  834SOL    HW2 4510   4.034   0.852   1.934  0.8313  0.7796 -0.7360
  835SOL     OW 4511   9.811   3.917  10.298 -0.4708 -0.0031 -0.6943
  835SOL    HW1 4512   9.774   3.871  10.223  0.7112  0.1376 -1.3931
  835SOL    HW2 4513   9.847   3.997  10.261 -0.5196  0.4185  0.1528
  836SOL     OW 4514   5.229   8.097   0.981 -0.1584  0.0592  0.3794
  836SOL    HW1 4515   5.134   8.094   0.968 -0.0651  1.8388 -1.1272
  836SOL    HW2 4516   5.249   8.190   0.989  1.3570 -0.3337  1.7714
  837SOL     OW 4517   9.179   8.721   3.375 -0.1389 -0.3993  0.0323
  837SOL    HW1 4518   9.182   8.721   3.279  0.5790  1.6430  0.0206
  837SOL    HW2 4519   9.173   8.628   3.398 -1.0000 -0.8976 -1.9884
  838SOL     OW 4520   2.265   9.458   7.902 -0.4086 -0.5807 -0.2870
  838SOL    HW1 4521   2.227   9.471   7.989 -0.5715 -0.8310 -0.3185
  838SOL    HW2 4522   2.211   9.510   7.843 -0.2218 -0.3094 -0.2236
  839SOL     OW 4523   4.757   3.783   5.604  0.0611  0.2213  0.1095
  839SOL    HW1 4524   4.679   3.819   5.560  0.6287  0.6901 -0.5285
  839SOL    HW2 4525   4.815   3.858   5.615  1.5734 -0.5648 -1.8775
  840SOL     OW 4526   3.988  10.897   3.049  0.5076  0.4386 -0.2809
  840SOL    HW1 4527   3.934  10.853   3.115  0.6580  1.7897  0.8030
  840SOL    HW2 4528   4.075  10.904   3.090  0.6077  1.2781 -0.6093
  841SOL     OW 4529   0.302   1.461   4.385  0.1946 -0.1277 -0.7626
  841SOL    HW1 4530   0.242   1.434   4.315 -2.2860  2.0162  0.3632
  841SOL    HW2 4531   0.287   1.555   4.393  2.2663  0.1123  0.9966
  842SOL     OW 4532   6.316   8.348   6.955  0.1061 -0.0048 -0.2323
  842SOL    HW1 4533   6.317   8.428   6.902  1.9398 -0.7883 -1.4640
  842SOL    HW2 4534   6.394   8.300   6.928 -0.8266 -2.1318  0.6340
  843SOL     OW 4535  10.116   3.328   0.038  0.1675 -0.0179 -0.0605
  843SOL    HW1 4536  10.106   3.238   0.070  0.4820 -0.7164 -1.7750
  843SOL    HW2 4537  10.208   3.332   0.010  0.1602  0.8546  0.0330
  844SOL     OW 4538   8.807   4.114   8.284  0.3908 -0.0771 -0.0332
  844SOL    HW1 4539   8.757   4.171   8.344  0.2672 -0.4956  0.2631
  844SOL    HW2 4540   8.876   4.076   8.339  1.1449  0.6194 -0.4746
  845SOL     OW 4541   6.610   5.409   3.971 -0.8500 -0.7425  0.4226
  845SOL    HW1 4542   6.577   5.376   4.055  0.3621 -0.0847  1.1835
  845SOL    HW2 4543   6.702   5.428   3.987 -0.8076  0.2096 -0.8259
  846SOL     OW 4544   5.094   3.317  10.193  0.4506 -0.3058  1.0364
  846SOL    HW1 4545   5.055   3.255  10.131  0.6355 -0.7484  1.3591
  846SOL    HW2 4546   5.185   3.326  10.164  0.0677  0.9090  0.1404
  847SOL     OW 4547   2.435   2.745   2.961  0.1856 -0.4856  0.6051
  847SOL    HW1 4548   2.523   2.783   2.959 -1.0962  2.7830  0.3652
  847SOL    HW2 4549   2.430   2.695   2.880  2.1123 -1.6086  1.1054
  848SOL     OW 4550   5.775   8.051   8.712 -0.1250 -0.0427 -0.6922
  848SOL    HW1 4551   5.733   7.971   8.681 -1.5825 -0.6065  2.3417
  848SOL    HW2 4552   5.849   8.021   8.765 -0.5713  0.5762  0.3218
  849SOL     OW 4553  10.286   3.321   1.714 -0.0373 -0.1926  0.0612
  849SOL    HW1 4554  10.335   3.279   1.644  1.5877  1.9327 -0.1967
  849SOL    HW2 4555  10.195   3.298   1.696  0.1763  1.0017 -3.3902
  850SOL     OW 4556   8.656   5.051   2.122 -0.0682 -0.6172 -0.1414
  850SOL    HW1 4557   8.565   5.025   2.139  0.4634 -0.8739  2.7072
  850SOL    HW2 4558   8.664   5.138   2.161  0.4668  0.2845 -2.1020
  851SOL     OW 4559   2.363   0.484   4.374  0.2970  0.5528  0.0727
  851SOL    HW1 4560   2.361   0.447   4.286  0.1287 -0.8184  0.6379
  851SOL    HW2 4561   2.279   0.459   4.413  0.4426  0.9992  0.6861
  852SOL     OW 4562   7.528   1.570   6.577  0.5140 -0.0077  0.3980
  852SOL    HW1 4563   7.605   1.512   6.582  0.5724  0.1709  2.5272
  852SOL    HW2 4564   7.454   1.513   6.600  0.5374  0.6373  2.2178
  853SOL     OW 4565   4.892   1.383   2.496 -0.8533 -0.2809 -0.4198
  853SOL    HW1 4566   4.798   1.398   2.493 -0.5329  2.4909  0.3674
  853SOL    HW2 4567   4.927   1.434   2.423  0.2382  1.8119  1.4108
  854SOL     OW 4568  10.091   5.366   8.426  0.3868  0.9620 -0.0837
  854SOL    HW1 4569  10.111   5.460   8.424  0.1910  1.0121  0.2311
  854SOL    HW2 4570  10.009   5.360   8.475  0.6439  0.5860  0.3157
  855SOL     OW 4571   6.020   4.247   7.079 -0.2015  0.2682 -0.5587
  855SOL    HW1 4572   5.939   4.216   7.040 -0.1932  0.6249 -0.8655
  855SOL    HW2 4573   6.075   4.271   7.005  0.0796  0.2882 -0.3452
  856SOL     OW 4574   9.905  10.419   0.461  0.5166 -0.2548  0.3619
  856SOL    HW1 4575   9.861  10.469   0.392  0.8576  1.4481  1.3075
  856SOL    HW2 4576   9.833  10.379   0.510  0.0949  0.8462  0.6769
  857SOL     OW 4577   7.646   0.051   2.963  0.1685 -0.0757  0.4887
  857SOL    HW1 4578   7.664   0.070   2.871 -0.2205 -0.1889  0.3853
  857SOL    HW2 4579   7.627   0.136   3.002 -3.0384 -0.2738 -0.2952
  858SOL     OW 4580   3.967  10.213   2.928 -0.4360  0.4870  0.3613
  858SOL    HW1 4581   4.002  10.233   2.841  0.2762 -0.5777  0.3861
  858SOL    HW2 4582   4.038  10.236   2.988 -0.6661  0.5511  0.6118
  859SOL     OW 4583   3.461   7.927   4.104 -0.2144 -0.0917  0.3822
  859SOL    HW1 4584   3.428   7.901   4.017  1.1895  0.3103 -0.3066
  859SOL    HW2 4585   3.505   7.849   4.137 -0.7537 -0.2459  0.7498
  860SOL     OW 4586   1.779   9.608   5.290 -1.0354  0.1224  0.4532
  860SOL    HW1 4587   1.694   9.568   5.275 -0.1840 -1.1714 -1.2502
  860SOL    HW2 4588   1.842   9.547   5.251  0.6909  1.0152  1.6749
  861SOL     OW 4589   5.419   8.695  10.072 -0.7753  0.0637 -0.2323
  861SOL    HW1 4590   5.426   8.722   9.980  0.0072  1.4019  0.1958
  861SOL    HW2 4591   5.489   8.631  10.084  1.5286  2.5362  0.2918
  862SOL     OW 4592   5.377   7.532   5.695 -0.5043  0.2981 -0.5467
  862SOL    HW1 4593   5.436   7.467   5.734 -0.2303  1.0751  0.3789
  862SOL    HW2 4594   5.363   7.596   5.764  0.0993  1.8095 -1.7735
  863SOL     OW 4595   4.030   9.257   1.455  0.0879  0.6156  0.4262
  863SOL    HW1 4596   4.000   9.268   1.546 -1.6662  0.3316 -0.0825
  863SOL    HW2 4597   3.962   9.300   1.402 -0.1933 -1.3374 -0.8749
  864SOL     OW 4598   6.233   7.232   2.222  0.1119  0.3332 -0.3754
  864SOL    HW1 4599   6.274   7.227   2.309  0.8984  0.6769 -0.7218
  864SOL    HW2 4600   6.306   7.234   2.161 -0.4301 -1.7552 -1.1828
  865SOL     OW 4601  10.714   5.106   4.413 -0.2936  0.0363 -0.0128
  865SOL    HW1 4602  10.667   5.047   4.472 -0.9025  0.8082  0.2931
  865SOL    HW2 4603  10.774   5.050   4.365 -0.6065 -0.7746  0.5329
  866SOL     OW 4604   2.405   7.478   3.883  0.0109  0.0676 -0.7052
  866SOL    HW1 4605   2.484   7.428   3.863  0.1978  0.5602 -1.2140
  866SOL    HW2 4606   2.395   7.538   3.809  2.3104  4.0156  1.8756
  867SOL     OW 4607   3.066   9.349   4.466  0.6479  0.4748 -0.1529
  867SOL    HW1 4608   3.055   9.414   4.397 -1.7142  0.4062  0.0710
  867SOL    HW2 4609   2.990   9.361   4.523  0.7814 -1.6618  0.5922
  868SOL     OW 4610   3.201   5.840   0.416 -0.4612 -0.5435  0.0527
  868SOL    HW1 4611   3.169   5.798   0.495  0.4607 -2.5914 -0.5900
  868SOL    HW2 4612   3.226   5.767   0.358  0.6866  0.8919 -1.3658
  869SOL     OW 4613   9.429   1.578   0.909  0.8123 -0.5290  0.3529
  869SOL    HW1 4614   9.426   1.577   1.005 -1.3370  0.9634  0.3722
  869SOL    HW2 4615   9.337   1.578   0.882  1.2955  1.7890 -1.5911
  870SOL     OW 4616   6.334   7.680   1.550  0.2154 -0.9035  0.0014
  870SOL    HW1 4617   6.253   7.724   1.574  0.5065 -0.5573  0.3638
  870SOL    HW2 4618   6.343   7.694   1.456  1.4218  1.7579  0.4092
  871SOL     OW 4619   7.643  10.905   3.175 -0.7622  0.3667 -0.2034
  871SOL    HW1 4620   7.660  10.918   3.082  1.5479 -1.2570 -0.1080
  871SOL    HW2 4621   7.723  10.862   3.208 -2.5426 -1.5709  1.9498
  872SOL     OW 4622   5.534   7.414   7.768  0.6967 -0.3297 -0.8436
  872SOL    HW1 4623   5.524   7.349   7.698 -1.0433 -0.2860 -0.6988
  872SOL    HW2 4624   5.445   7.448   7.781  1.2908  0.9004  0.2147
  873SOL     OW 4625  10.968  10.232   4.500 -0.6663 -0.1839 -0.5407
  873SOL    HW1 4626  11.044  10.271   4.542 -0.5183 -0.8656 -0.1621
  873SOL    HW2 4627  10.894  10.256   4.556 -0.5415 -0.6566 -0.1722
  874SOL     OW 4628   9.844   6.883   1.134  0.2652 -0.1715 -0.4859
  874SOL    HW1 4629   9.795   6.873   1.216 -0.8991 -1.6676 -1.3197
  874SOL    HW2 4630   9.794   6.834   1.069  0.6893  1.7048 -2.3394
  875SOL     OW 4631   9.879   6.043   7.958  0.5354  0.3780 -0.2288
  875SOL    HW1 4632   9.804   6.053   7.900  0.2475 -0.5196 -0.0401
  875SOL    HW2 4633   9.869   6.112   8.023  0.3810  0.8405 -0.7405
  876SOL     OW 4634   7.961   3.436   7.989 -0.0438 -0.1455  0.3854
  876SOL    HW1 4635   7.958   3.341   8.005  1.8049  0.1292  2.9294
  876SOL    HW2 4636   7.887   3.471   8.039 -1.6015 -0.2754 -1.6874
  877SOL     OW 4637   1.825   9.775   0.536 -0.2864 -0.0399  0.1453
  877SOL    HW1 4638   1.740   9.770   0.579 -0.5083  1.9487  0.0564
  877SOL    HW2 4639   1.863   9.858   0.567  1.6596 -0.9114  0.2292
  878SOL     OW 4640   8.842   5.185   1.981  0.4122  0.2200  0.1011
  878SOL    HW1 4641   8.809   5.129   2.051  1.4694 -0.5548  0.0117
  878SOL    HW2 4642   8.791   5.159   1.904  1.8522 -1.7434 -0.2929
  879SOL     OW 4643   6.608   6.539   4.254  0.0091  0.1931  0.8169
  879SOL    HW1 4644   6.704   6.544   4.257 -0.0215  0.7480  0.8527
  879SOL    HW2 4645   6.585   6.489   4.333  0.3913 -1.9177 -0.3268
  880SOL     OW 4646   9.122   5.411   1.276  0.4941  0.4869  0.5961
  880SOL    HW1 4647   9.117   5.393   1.370  1.6889  0.5533  0.6825
  880SOL    HW2 4648   9.034   5.441   1.253 -0.1785 -0.7653  1.4271
  881SOL     OW 4649   7.724   2.925   3.254  0.8086 -1.0295 -0.2678
  881SOL    HW1 4650   7.687   2.976   3.327 -1.4474  1.0041 -2.6525
  881SOL    HW2 4651   7.817   2.917   3.276  0.8309  2.1458  1.4022
  882SOL     OW 4652   5.810   4.670   3.533 -0.1182 -0.2824  0.4487
  882SOL    HW1 4653   5.751   4.701   3.464 -0.7750 -0.6640  0.8219
  882SOL    HW2 4654   5.853   4.593   3.495  0.0808 -0.0497  0.2013
  883SOL     OW 4655   3.132   9.459  10.981 -0.0779  0.7233  0.0732
  883SOL    HW1 4656   3.111   9.376  11.024  0.9002 -1.0159 -2.5269
  883SOL    HW2 4657   3.048   9.491  10.949 -0.3711  0.3305  0.4381
  884SOL     OW 4658   6.692   7.772   7.484  0.4335 -0.2525 -0.2208
  884SOL    HW1 4659   6.726   7.794   7.571  1.6245 -1.4463 -0.3498
  884SOL    HW2 4660   6.598   7.790   7.490  0.6268  0.4825  1.0393
  885SOL     OW 4661   7.615   2.079  10.204 -0.2733  0.0491  0.4102
  885SOL    HW1 4662   7.624   1.989  10.171  1.3275  0.3175  0.0136
  885SOL    HW2 4663   7.667   2.080  10.285  2.3803  1.3457 -1.1831
  886SOL     OW 4664   8.070   6.653  10.563  0.6142  0.0613  0.2469
  886SOL    HW1 4665   7.987   6.663  10.516  1.0355 -0.0018 -0.5168
  886SOL    HW2 4666   8.078   6.733  10.615  1.8023  1.8351 -2.4192
  887SOL     OW 4667   5.009   2.360   1.371 -0.1613 -0.0539  0.1531
  887SOL    HW1 4668   4.939   2.350   1.435  1.3175  0.7348  1.9720
  887SOL    HW2 4669   4.970   2.413   1.301 -1.5477 -0.1550  0.8178
  888SOL     OW 4670   3.567   9.615   6.196  0.6487  0.4561  0.3995
  888SOL    HW1 4671   3.593   9.680   6.131 -0.8438  0.7857  0.0955
  888SOL    HW2 4672   3.471   9.620   6.198  0.4835 -1.7318  0.3713
  889SOL     OW 4673   7.574   2.455   8.657  0.3109  0.5108 -0.5846
  889SOL    HW1 4674   7.487   2.416   8.659  0.3025  0.5412 -0.2615
  889SOL    HW2 4675   7.576   2.507   8.577  0.5932 -0.7646 -1.4241
  890SOL     OW 4676   9.439   4.384   8.132  0.0864 -0.5417 -0.1755
  890SOL    HW1 4677   9.436   4.480   8.137  4.4156 -0.2778  2.8710
  890SOL    HW2 4678   9.425   4.365   8.039 -3.0253  2.7489 -0.6136
  891SOL     OW 4679   3.983   8.939   2.198  0.4313 -0.2798  0.1056
  891SOL    HW1 4680   3.937   8.854   2.196  1.0384 -0.6000 -1.3587
  891SOL    HW2 4681   4.015   8.946   2.288 -0.0618 -1.3757  0.3913
  892SOL     OW 4682   2.317   5.592   1.799  0.2919  1.1749  0.0516
  892SOL    HW1 4683   2.303   5.605   1.893  1.8786 -0.0546  0.5131
  892SOL    HW2 4684   2.376   5.663   1.774  1.8174  0.1371  0.5675
  893SOL     OW 4685   3.440   2.340   9.536 -0.0207  0.1565  0.4050
  893SOL    HW1 4686   3.464   2.297   9.454 -0.0415  0.5883  0.1699
  893SOL    HW2 4687   3.416   2.429   9.511  0.1717  0.3546  0.9065
  894SOL     OW 4688   7.305   8.094   2.873  0.3568 -0.1895  0.1547
  894SOL    HW1 4689   7.370   8.120   2.939 -0.3713 -1.5729  1.4940
  894SOL    HW2 4690   7.257   8.023   2.914 -1.4041  0.1626 -1.1630
  895SOL     OW 4691   6.961   3.569   1.155  0.6691 -0.3391  0.4125
  895SOL    HW1 4692   6.904   3.530   1.221  0.4932 -0.4093  0.2188
  895SOL    HW2 4693   7.025   3.619   1.205  0.5356 -0.3924  0.6362
  896SOL     OW 4694   4.958   1.751   9.027 -0.2451 -0.5929 -0.6376
  896SOL    HW1 4695   4.956   1.707   8.942 -1.8718 -0.9207 -0.4732
  896SOL    HW2 4696   4.926   1.840   9.009  2.9274  0.5956 -0.9496
  897SOL     OW 4697   5.583   9.557   3.673 -0.3734 -0.7826 -0.2147
  897SOL    HW1 4698   5.562   9.635   3.724 -0.2262 -0.1921 -1.0562
  897SOL    HW2 4699   5.667   9.576   3.632 -1.1700 -0.6491 -1.8643
  898SOL     OW 4700   1.152   6.295  10.662 -0.4091  0.2519  0.0423
  898SOL    HW1 4701   1.161   6.230  10.593  0.6480  0.5264 -0.0973
  898SOL    HW2 4702   1.131   6.377  10.616  1.7514  0.7672 -0.1405
  899SOL     OW 4703   9.062   8.988   4.285  0.2177  0.3109 -0.2187
  899SOL    HW1 4704   9.124   8.922   4.254 -1.2491 -0.4029 -1.7518
  899SOL    HW2 4705   9.078   8.993   4.380  1.4040 -1.1180 -0.3151
  900SOL     OW 4706   0.216   7.462   2.003  0.1867 -0.3501 -0.4117
  900SOL    HW1 4707   0.297   7.420   2.033 -0.7606 -2.3029 -0.4463
  900SOL    HW2 4708   0.155   7.390   1.990 -1.5874  1.0717 -0.3841
  901SOL     OW 4709   2.003   4.688   7.412  0.0113  0.1776  0.2723
  901SOL    HW1 4710   1.929   4.640   7.374  0.9173 -0.6868 -0.4392
  901SOL    HW2 4711   2.013   4.651   7.500 -0.4503  0.3649  0.4090
  902SOL     OW 4712   9.550   0.076   2.022  0.1137  0.2084 -0.0273
  902SOL    HW1 4713   9.646   0.073   2.024  0.1537  1.3963  2.0951
  902SOL    HW2 4714   9.527   0.142   2.087 -2.1818 -0.5902  0.0368
  903SOL     OW 4715   3.891   6.485   1.986 -0.2650 -0.4660  0.1928
  903SOL    HW1 4716   3.960   6.463   1.922 -1.3609  3.9479 -3.0338
  903SOL    HW2 4717   3.933   6.546   2.046 -0.6684  0.1955 -0.1808
  904SOL     OW 4718   2.329   1.058   0.322  0.0177 -0.2715  0.5205
  904SOL    HW1 4719   2.257   1.045   0.260  1.0041  1.3586 -1.0597
  904SOL    HW2 4720   2.290   1.040   0.407 -1.4531 -2.4075 -0.4975
  905SOL     OW 4721   6.219   2.676   1.763 -0.1989 -0.1300 -0.0405
  905SOL    HW1 4722   6.154   2.686   1.833  0.2922  0.0893  0.3863
  905SOL    HW2 4723   6.167   2.680   1.682 -0.5610  1.8053  0.2271
  906SOL     OW 4724   2.826   8.236  10.774 -0.5963  0.5121  0.0327
  906SOL    HW1 4725   2.837   8.226  10.679  0.5500  1.7640  0.0067
  906SOL    HW2 4726   2.895   8.297  10.800 -0.0357 -0.8264  1.8970
  907SOL     OW 4727   4.910   9.258   8.381  0.5395 -0.1401 -0.1728
  907SOL    HW1 4728   4.930   9.289   8.293  0.3172  0.3806 -0.0438
  907SOL    HW2 4729   4.970   9.306   8.438 -0.6647  1.0608  0.1611
  908SOL     OW 4730   9.535   4.749  10.670 -0.4867  0.2247  0.0965
  908SOL    HW1 4731   9.628   4.732  10.684  0.3381  2.1782 -2.3302
  908SOL    HW2 4732   9.500   4.764  10.758  1.6179  0.0334  1.0153
  909SOL     OW 4733   4.842   1.750   9.864 -0.2800 -0.3686 -0.2810
  909SOL    HW1 4734   4.797   1.772   9.946 -0.8963 -2.0707 -0.1086
  909SOL    HW2 4735   4.777   1.702   9.813  1.0023 -2.0370 -0.4484
  910SOL     OW 4736   5.648   6.716   9.422  0.5708  0.1978  0.3706
  910SOL    HW1 4737   5.742   6.709   9.405  0.5973 -0.5769  0.7795
  910SOL    HW2 4738   5.614   6.766   9.349  1.5047  1.6769  0.9054
  911SOL     OW 4739   6.117   2.262  10.347  0.4918  0.4644 -0.0375
  911SOL    HW1 4740   6.205   2.233  10.370  0.8133  1.7544  0.4453
  911SOL    HW2 4741   6.063   2.235  10.422  0.7392  0.8285  0.2826
  912SOL     OW 4742   7.521   8.429   6.388  0.4068 -0.0979  0.5660
  912SOL    HW1 4743   7.501   8.426   6.295 -0.2022  0.7229  0.6569
  912SOL    HW2 4744   7.486   8.513   6.418 -0.0742 -0.6709  1.6825
  913SOL     OW 4745   8.343   7.268   7.471  0.5021  0.2465 -0.3152
  913SOL    HW1 4746   8.438   7.278   7.467  0.7916 -0.4116  2.7022
  913SOL    HW2 4747   8.309   7.357   7.480  1.0336  0.3506  0.7843
  914SOL     OW 4748   1.307   1.689   9.937  0.2350  0.1711 -1.1757
  914SOL    HW1 4749   1.240   1.718   9.998 -1.7116 -0.5544 -2.8199
  914SOL    HW2 4750   1.365   1.764   9.925 -1.0737  1.2766 -0.6958
  915SOL     OW 4751   9.434   1.715   0.539  0.3904  0.5829 -0.4514
  915SOL    HW1 4752   9.342   1.701   0.559  0.5895  1.0949  0.9513
  915SOL    HW2 4753   9.463   1.634   0.497  0.1115 -0.9645  2.1624
  916SOL     OW 4754   6.357   5.209   7.829  0.5433 -0.0830 -0.4794
  916SOL    HW1 4755   6.444   5.226   7.792  0.0320  0.0850 -1.6382
  916SOL    HW2 4756   6.313   5.155   7.763  0.2486 -1.4043  0.7303
  917SOL     OW 4757   8.133   6.468   9.452 -0.6301 -0.2045 -0.1538
  917SOL    HW1 4758   8.228   6.464   9.440 -0.6795 -0.9770 -0.3703
  917SOL    HW2 4759   8.107   6.551   9.412 -0.3512 -1.1119 -2.3473
  918SOL     OW 4760   7.089   1.008   0.986 -0.1722 -0.1955  0.2303
  918SOL    HW1 4761   7.044   1.076   1.037 -0.4141 -0.4281  0.3286
  918SOL    HW2 4762   7.028   0.987   0.915 -0.3731 -0.7605  0.5651
  919SOL     OW 4763   0.453   8.006   6.625 -0.2628  0.9106 -0.1148
  919SOL    HW1 4764   0.411   7.929   6.662  1.8425 -0.0224  0.5124
  919SOL    HW2 4765   0.421   8.079   6.678 -0.4798  0.1415  0.8326
  920SOL     OW 4766   5.723   9.545  10.853 -0.2996 -0.3962 -0.0190
  920SOL    HW1 4767   5.640   9.496  10.856 -0.1118 -0.8065 -1.1982
  920SOL    HW2 4768   5.774   9.501  10.786  1.6507 -1.3352  1.9461
  921SOL     OW 4769   4.016   2.908   9.633  0.7870 -0.1384  0.2192
  921SOL    HW1 4770   3.967   2.973   9.684  1.0292 -0.6022  1.0658
  921SOL    HW2 4771   3.968   2.827   9.645 -0.5659  0.1997 -2.3365
  922SOL     OW 4772   8.556   8.741   6.109  0.0375 -0.5087  0.2753
  922SOL    HW1 4773   8.531   8.766   6.020  0.1971  1.5626  0.7604
  922SOL    HW2 4774   8.651   8.725   6.104  0.3199  1.0155  0.3257
  923SOL     OW 4775   3.694   3.386   1.301  0.1976 -0.2383 -0.3312
  923SOL    HW1 4776   3.705   3.394   1.206 -1.0749  0.0336 -0.4828
  923SOL    HW2 4777   3.665   3.296   1.315  1.5514 -0.6484 -0.0552
  924SOL     OW 4778   8.852   4.868   3.968 -0.2979 -0.4616  0.3404
  924SOL    HW1 4779   8.921   4.923   3.930 -1.2653  0.5282 -0.0459
  924SOL    HW2 4780   8.792   4.930   4.010 -1.7592 -1.1496 -0.6472
  925SOL     OW 4781   3.417   8.977  10.391  0.2164  0.4965 -0.3783
  925SOL    HW1 4782   3.460   8.921  10.456  0.7747  0.4734 -0.7593
  925SOL    HW2 4783   3.340   8.928  10.363 -0.7057  1.0170  1.1364
  926SOL     OW 4784   0.297   1.121   7.391  0.1729 -0.0426 -0.2523
  926SOL    HW1 4785   0.341   1.167   7.463 -0.0917  0.1821 -0.2348
  926SOL    HW2 4786   0.207   1.152   7.394  0.1765  0.0135 -0.7259
  927SOL     OW 4787   9.157   7.955  10.196 -0.0197  0.2609 -0.0632
  927SOL    HW1 4788   9.119   8.039  10.223 -3.1744 -1.0496  0.0707
  927SOL    HW2 4789   9.123   7.942  10.108  2.1739  0.0079 -0.9296
  928SOL     OW 4790   5.449  10.060   7.838  0.5000 -0.2203  0.5159
  928SOL    HW1 4791   5.385  10.046   7.908  0.6183  1.5677  1.0391
  928SOL    HW2 4792   5.496   9.977   7.831 -1.1755 -1.2539  0.8126
  929SOL     OW 4793   6.905   1.231   0.627 -0.1638  0.5616 -0.1077
  929SOL    HW1 4794   6.959   1.258   0.701  0.3070 -1.0401  0.1658
  929SOL    HW2 4795   6.946   1.274   0.551 -0.3685  1.8261  0.4815
  930SOL     OW 4796   0.169   2.984   6.368 -0.4393 -0.1199  0.3950
  930SOL    HW1 4797   0.102   2.945   6.311 -0.9320  0.3666  0.6317
  930SOL    HW2 4798   0.237   3.015   6.308 -0.5645 -0.3588  0.1311
  931SOL     OW 4799   9.675   5.029   6.435  0.2048 -0.2504  0.4806
  931SOL    HW1 4800   9.731   4.989   6.368  0.0590 -1.0367  0.8265
  931SOL    HW2 4801   9.733   5.040   6.511  0.9856  2.6208 -0.4006
  932SOL     OW 4802   8.616   0.142  10.410  0.1668 -0.3632  0.4347
  932SOL    HW1 4803   8.670   0.207  10.455 -0.6881  1.3201 -0.8588
  932SOL    HW2 4804   8.678   0.075  10.380  1.3017  0.6426  0.4863
  933SOL     OW 4805   6.272   2.526   4.471 -0.0021  0.1207 -0.4095
  933SOL    HW1 4806   6.360   2.489   4.464 -0.4683 -1.1446  0.2008
  933SOL    HW2 4807   6.213   2.452   4.454 -0.9526  1.0399 -1.2259
  934SOL     OW 4808   7.959   3.190   8.123  0.6367  1.0550  0.2883
  934SOL    HW1 4809   7.978   3.098   8.140 -2.0641  0.4118  0.2207
  934SOL    HW2 4810   8.005   3.237   8.193 -1.5088 -0.7189  3.1207
  935SOL     OW 4811   0.110   3.863   9.976  0.1629  0.1794  0.5037
  935SOL    HW1 4812   0.203   3.853   9.997 -0.0699 -0.1692  1.4160
  935SOL    HW2 4813   0.105   3.850   9.882  0.9824 -0.2781  0.5160
  936SOL     OW 4814   1.462   1.125   6.613  0.3075  0.6584  0.1629
  936SOL    HW1 4815   1.501   1.201   6.572  1.1535 -0.0020 -0.2970
  936SOL    HW2 4816   1.381   1.110   6.565 -0.0286  1.4597  0.4768
  937SOL     OW 4817  10.648   1.001   8.763 -0.3251  0.1760 -0.2927
  937SOL    HW1 4818  10.729   1.023   8.718 -0.0860  1.5858  0.7711
  937SOL    HW2 4819  10.601   1.084   8.772 -0.1596  0.0589  2.3782
  938SOL     OW 4820   3.555   3.907   4.220 -0.5124  0.1308 -0.2166
  938SOL    HW1 4821   3.512   3.960   4.287 -0.0281 -0.3182  0.4589
  938SOL    HW2 4822   3.487   3.889   4.155 -1.5119 -1.0906  1.1343
  939SOL     OW 4823   7.410   8.450   2.962 -0.0488  0.0006 -0.5439
  939SOL    HW1 4824   7.430   8.481   2.874 -0.8294 -1.1701 -1.1468
  939SOL    HW2 4825   7.442   8.360   2.964 -1.0628 -0.3647 -0.0163
  940SOL     OW 4826   3.768   4.416   3.357  0.6332  0.3996  0.1862
  940SOL    HW1 4827   3.857   4.434   3.325  0.0776 -0.7255 -2.1771
  940SOL    HW2 4828   3.715   4.410   3.278 -1.5072  0.6727  1.5398
  941SOL     OW 4829   0.418   4.270   5.714  0.5836  0.4794  0.6642
  941SOL    HW1 4830   0.361   4.347   5.702  1.6930  1.2470  0.1846
  941SOL    HW2 4831   0.494   4.287   5.659  1.9546  0.1376  2.3565
  942SOL     OW 4832   3.885   7.654   2.031  0.2328  0.0287 -0.5169
  942SOL    HW1 4833   3.958   7.661   1.970  1.3498  3.7414  0.9773
  942SOL    HW2 4834   3.883   7.737   2.077 -3.4843 -0.7998  1.2785
  943SOL     OW 4835   7.566   4.042   4.503  0.2597 -0.1537  0.4799
  943SOL    HW1 4836   7.565   3.953   4.537  1.5430 -0.2641  0.2764
  943SOL    HW2 4837   7.475   4.060   4.479  0.2670 -2.1018 -1.3007
  944SOL     OW 4838   0.977   5.987   8.536 -0.1913  0.1577  0.6138
  944SOL    HW1 4839   0.953   5.958   8.624 -1.7915 -0.7662 -0.0787
  944SOL    HW2 4840   1.070   5.969   8.529 -0.4492 -1.7371  1.4084
  945SOL     OW 4841   7.132   4.768   6.386 -0.2008  0.4915 -0.7191
  945SOL    HW1 4842   7.198   4.732   6.328 -1.3074 -0.6622 -1.3136
  945SOL    HW2 4843   7.080   4.827   6.331  0.4651  1.6058 -0.1929
  946SOL     OW 4844   2.792   1.926   9.687 -0.0811 -0.5238  0.0043
  946SOL    HW1 4845   2.730   1.856   9.667 -1.7886  1.3357 -1.5967
  946SOL    HW2 4846   2.783   1.988   9.615  1.9263  1.0111  0.9576
  947SOL     OW 4847  10.401  10.476   1.129 -0.4693  0.4399  0.2762
  947SOL    HW1 4848  10.346  10.554   1.127 -0.8216  0.2079 -1.8306
  947SOL    HW2 4849  10.342  10.406   1.157 -0.8773  0.4597 -0.5099
  948SOL     OW 4850   9.205   2.498   5.758 -0.2704  0.2409 -0.5124
  948SOL    HW1 4851   9.158   2.455   5.687  2.7076 -0.0262 -2.4893
  948SOL    HW2 4852   9.220   2.429   5.822 -1.5222  0.0855 -0.3561
  949SOL     OW 4853   8.217   8.951   7.328 -0.0645 -0.3957  0.0543
  949SOL    HW1 4854   8.189   8.914   7.411 -1.7755  0.1053 -0.2647
  949SOL    HW2 4855   8.258   9.035   7.351  0.4496 -0.7475  0.4551
  950SOL     OW 4856   3.247   3.011   7.494 -0.1523 -0.1154 -0.3117
  950SOL    HW1 4857   3.342   3.023   7.496 -0.2794  1.0275  1.1813
  950SOL    HW2 4858   3.234   2.925   7.455  1.4940 -0.2752 -0.5845
  951SOL     OW 4859   0.635   6.244  10.811 -0.2364  0.2201  0.0310
  951SOL    HW1 4860   0.573   6.204  10.750  1.1043 -1.4774 -0.3168
  951SOL    HW2 4861   0.666   6.170  10.864 -0.1325  1.3926  1.6748
  952SOL     OW 4862   9.979   0.297   9.372 -0.0442 -0.2647  0.5524
  952SOL    HW1 4863  10.013   0.318   9.285  0.8238  0.0813  0.9622
  952SOL    HW2 4864   9.886   0.278   9.357 -0.2769  1.2966 -0.2275
  953SOL     OW 4865   4.136   6.112   0.313 -0.0898  0.6546 -0.0999
  953SOL    HW1 4866   4.190   6.132   0.389 -2.8960  1.1201  1.9398
  953SOL    HW2 4867   4.151   6.018   0.297  0.6412  0.5736  0.9509
  954SOL     OW 4868   0.145   6.029   9.485 -0.4244 -0.3260  0.6945
  954SOL    HW1 4869   0.234   6.057   9.463 -0.3637 -0.7350  0.4253
  954SOL    HW2 4870   0.114   5.983   9.408 -1.8327  2.0291 -0.2416
  955SOL     OW 4871   3.333   0.023   0.439 -0.1781 -0.2335  0.5735
  955SOL    HW1 4872   3.272   0.066   0.500 -0.3773  1.3644 -0.6736
  955SOL    HW2 4873   3.328  -0.070   0.462 -1.6918  0.0812  1.7160
  956SOL     OW 4874   7.350   2.807   5.097  0.4733  1.0374 -0.0850
  956SOL    HW1 4875   7.427   2.864   5.095  1.4098 -0.1721  0.6969
  956SOL    HW2 4876   7.279   2.862   5.061  1.7897  1.9832 -1.3597
  957SOL     OW 4877   4.957   6.334   1.394 -0.3367 -0.2532  0.0093
  957SOL    HW1 4878   4.917   6.402   1.340  0.0348 -1.6269 -2.1029
  957SOL    HW2 4879   4.979   6.264   1.333  2.4573 -0.8646  1.5294
  958SOL     OW 4880   4.563  10.867   8.809 -0.5876  0.0676  0.4958
  958SOL    HW1 4881   4.523  10.789   8.770  1.7242 -2.6809  3.1435
  958SOL    HW2 4882   4.537  10.864   8.901  1.9089  0.7025  1.2983
  959SOL     OW 4883   4.900   3.520   2.956  0.6906  0.1854  0.2645
  959SOL    HW1 4884   4.894   3.428   2.980 -1.8500  0.7525  2.1848
  959SOL    HW2 4885   4.964   3.557   3.018  0.6196 -0.0195  0.4599
  960SOL     OW 4886   3.247   8.218   6.774 -0.3517 -1.0162  0.1313
  960SOL    HW1 4887   3.211   8.189   6.690  1.1725 -1.4889 -0.3975
  960SOL    HW2 4888   3.314   8.282   6.751 -0.5858 -0.4168  1.0565
  961SOL     OW 4889   6.612   7.575   1.548  0.1053  0.0279 -0.2230
  961SOL    HW1 4890   6.521   7.562   1.520 -0.3601  0.1752  1.1191
  961SOL    HW2 4891   6.604   7.622   1.631  1.3744 -0.8312  0.4094
  962SOL     OW 4892   3.598   1.203   4.455  0.2851 -0.5408 -0.2100
  962SOL    HW1 4893   3.567   1.226   4.542 -2.0779 -0.1235 -1.0837
  962SOL    HW2 4894   3.591   1.107   4.451  0.9677 -0.6141  0.2376
  963SOL     OW 4895   8.906   7.783   2.314  0.1168  0.6507 -0.2439
  963SOL    HW1 4896   8.914   7.821   2.401  4.5356  3.5879 -1.5780
  963SOL    HW2 4897   8.967   7.709   2.314 -0.5303  0.1063 -0.6166
  964SOL     OW 4898   9.863   2.669   5.578 -0.8133  0.2313 -0.5140
  964SOL    HW1 4899   9.878   2.670   5.484 -1.8825  1.3310 -0.7046
  964SOL    HW2 4900   9.775   2.706   5.589 -1.4047 -1.4321  0.8142
  965SOL     OW 4901   1.083   3.493   3.147  0.3551  0.7539 -0.2805
  965SOL    HW1 4902   1.052   3.425   3.206  0.4885  0.9759  0.0467
  965SOL    HW2 4903   1.022   3.491   3.074 -0.5820  1.3495  0.4654
  966SOL     OW 4904   7.432   5.535   9.533  0.3569  0.1389 -0.5609
  966SOL    HW1 4905   7.462   5.444   9.527  0.7380  0.1288  1.1211
  966SOL    HW2 4906   7.458   5.574   9.449  1.2099 -0.9973 -0.8569
  967SOL     OW 4907   6.333   0.440   7.566 -0.1527 -0.5169 -0.3618
  967SOL    HW1 4908   6.276   0.390   7.507 -0.4113  0.9035 -1.3494
  967SOL    HW2 4909   6.273   0.485   7.625 -0.0487  0.6165 -1.1049
  968SOL     OW 4910   9.677   3.753   7.445 -0.3833  0.2812 -0.1696
  968SOL    HW1 4911   9.711   3.839   7.420  0.0701  0.0874 -0.2311
  968SOL    HW2 4912   9.608   3.735   7.381  1.4763 -0.6889 -2.0496
  969SOL     OW 4913   1.233   5.174   2.255  0.0867  0.5779  0.5685
  969SOL    HW1 4914   1.222   5.089   2.298  0.1721  0.7672  0.9712
  969SOL    HW2 4915   1.177   5.169   2.178  1.9681 -0.7825 -0.8067
  970SOL     OW 4916   6.775   2.595  10.955 -0.0916 -0.9078  0.2093
  970SOL    HW1 4917   6.727   2.565  11.033 -0.1591  0.2417  0.6244
  970SOL    HW2 4918   6.734   2.679  10.933  1.2081 -0.2849  0.0983
  971SOL     OW 4919   0.434   7.926  10.839  0.4889 -0.4145 -0.0242
  971SOL    HW1 4920   0.522   7.961  10.829  0.1445  0.1299 -1.2611
  971SOL    HW2 4921   0.381   8.001  10.867  0.3888 -0.7228  0.6441
  972SOL     OW 4922   9.069   1.797   5.100 -0.1658  0.9124  0.4219
  972SOL    HW1 4923   9.034   1.729   5.043  0.0979  0.5898  0.6429
  972SOL    HW2 4924   9.004   1.807   5.169 -0.9646  1.9919 -0.4478
  973SOL     OW 4925   0.713   6.553   2.607  0.2249 -0.4143 -0.2352
  973SOL    HW1 4926   0.795   6.507   2.625  0.6798 -0.7700 -2.7774
  973SOL    HW2 4927   0.645   6.487   2.619  0.4563 -0.5359  0.4141
  974SOL     OW 4928   4.685   1.568  10.114 -0.0487  0.0441 -0.0674
  974SOL    HW1 4929   4.599   1.531  10.132  0.2767  0.2180  2.1231
  974SOL    HW2 4930   4.694   1.640  10.176  1.9920 -0.5065  0.3775
  975SOL     OW 4931   3.058   3.823  10.767  0.0798 -0.0937  0.6313
  975SOL    HW1 4932   3.018   3.736  10.760  0.6284 -0.2465 -0.7368
  975SOL    HW2 4933   3.138   3.817  10.716  1.1812  0.6347  2.1798
  976SOL     OW 4934   1.871  10.807   6.142  0.1760 -0.0872  0.4930
  976SOL    HW1 4935   1.832  10.722   6.127 -1.7750  0.5999  1.3868
  976SOL    HW2 4936   1.862  10.854   6.059  0.2070 -0.3387  0.3486
  977SOL     OW 4937   0.684  10.504   3.689 -0.8014 -0.1963 -0.7069
  977SOL    HW1 4938   0.604  10.556   3.687 -1.3307 -0.6990  2.5284
  977SOL    HW2 4939   0.654  10.415   3.707  0.3759 -0.8640 -1.8551
  978SOL     OW 4940   4.251   2.940   3.023 -0.6883  0.1701 -0.1516
  978SOL    HW1 4941   4.177   2.922   2.965 -0.5216 -0.8904 -0.0440
  978SOL    HW2 4942   4.284   3.025   2.993 -1.4750  0.2990 -0.6895
  979SOL     OW 4943   1.592   4.330  10.212 -0.2182 -0.6517  0.3758
  979SOL    HW1 4944   1.562   4.386  10.141  1.9346  0.5019  0.2842
  979SOL    HW2 4945   1.539   4.354  10.287 -0.9399 -0.2291 -0.2583
  980SOL     OW 4946   8.712   0.040   1.856  0.1870 -0.4504 -0.7128
  980SOL    HW1 4947   8.704   0.078   1.768  0.9990 -0.4251 -0.7848
  980SOL    HW2 4948   8.772  -0.033   1.845 -1.4091 -1.8382 -0.5807
  981SOL     OW 4949  10.041   1.960   3.080 -0.9329 -0.2696 -0.0593
  981SOL    HW1 4950  10.082   1.896   3.021  0.1017 -1.0659  1.4376
  981SOL    HW2 4951  10.090   2.041   3.064 -0.2591 -0.6317  0.0894
  982SOL     OW 4952   6.471   3.109   6.338  0.3889  0.7725 -0.1281
  982SOL    HW1 4953   6.441   3.188   6.382  1.2996  1.7116 -1.1126
  982SOL    HW2 4954   6.446   3.122   6.246  0.5023 -0.1209 -0.2989
  983SOL     OW 4955   8.213   0.344   9.532 -0.1143 -0.1414 -0.0965
  983SOL    HW1 4956   8.261   0.317   9.610 -0.1734  1.5284  0.5549
  983SOL    HW2 4957   8.275   0.396   9.482 -1.3177  2.5950  1.0670
  984SOL     OW 4958   1.601   7.369   0.207 -0.4359 -0.6541  0.8411
  984SOL    HW1 4959   1.645   7.400   0.286  0.0659  1.6520 -0.2747
  984SOL    HW2 4960   1.649   7.289   0.183  0.1671 -0.7252  2.1678
  985SOL     OW 4961   5.900  10.083   5.266  0.2673  0.0563 -0.5052
  985SOL    HW1 4962   5.945  10.126   5.339 -0.2946 -1.1077  0.5406
  985SOL    HW2 4963   5.878  10.155   5.207  1.3513  0.9348  0.1240
  986SOL     OW 4964   1.118   1.084   0.296  0.3323  0.0864  0.4205
  986SOL    HW1 4965   1.077   1.036   0.369 -1.4640 -0.0623 -0.6335
  986SOL    HW2 4966   1.161   1.158   0.338 -0.9384  0.1842  1.6292
  987SOL     OW 4967   3.447   8.972   8.896  0.5811 -0.1418  0.4027
  987SOL    HW1 4968   3.449   8.877   8.907  0.1622 -0.2217 -0.1287
  987SOL    HW2 4969   3.506   8.989   8.822  1.0234  0.0621  0.8004
  988SOL     OW 4970   0.196  10.695   2.050  0.2701  0.1842  0.1214
  988SOL    HW1 4971   0.236  10.779   2.070  3.8555 -0.8721 -1.6773
  988SOL    HW2 4972   0.171  10.701   1.958 -0.7090 -0.3193  0.3370
  989SOL     OW 4973   4.221  10.071   2.563  0.0571 -0.2528  0.2532
  989SOL    HW1 4974   4.131  10.064   2.532 -0.2936  1.6551  0.7606
  989SOL    HW2 4975   4.271  10.096   2.486 -0.0610 -0.0896  0.2285
  990SOL     OW 4976   5.456   4.577   6.350  0.8375 -0.0917  0.1131
  990SOL    HW1 4977   5.452   4.553   6.257 -0.9957  0.3825  0.0329
  990SOL    HW2 4978   5.395   4.517   6.393 -0.1838  1.2622  0.6152
  991SOL     OW 4979   2.843  10.919   2.372 -0.3636 -0.0966  0.1326
  991SOL    HW1 4980   2.923  10.905   2.322 -1.2143 -1.2766 -0.9743
  991SOL    HW2 4981   2.783  10.963   2.310 -0.1287  2.1826  1.3988
  992SOL     OW 4982   4.066   8.199   4.364 -0.4235  0.0748 -0.4252
  992SOL    HW1 4983   3.981   8.188   4.407 -0.3921  1.1597 -0.0564
  992SOL    HW2 4984   4.128   8.208   4.436 -0.1897  0.6210 -0.6951
  993SOL     OW 4985   1.069   6.175   2.219 -0.2367  0.3834  0.1660
  993SOL    HW1 4986   1.027   6.172   2.133  4.5260 -0.9556 -2.4661
  993SOL    HW2 4987   1.042   6.094   2.262 -1.6511  0.4448 -0.5489
  994SOL     OW 4988   9.106   6.104   2.000 -0.1238 -0.1866  0.3176
  994SOL    HW1 4989   9.112   6.199   1.991 -1.3936 -0.2327 -2.2422
  994SOL    HW2 4990   9.182   6.071   1.953  0.1621 -0.4332  0.9566
  995SOL     OW 4991  10.408   2.163   1.335 -0.1975  0.2398 -0.1343
  995SOL    HW1 4992  10.501   2.184   1.339  0.7467 -3.3458  0.0330
  995SOL    HW2 4993  10.385   2.171   1.243  0.7248 -0.3939 -0.4324
  996SOL     OW 4994   9.413   4.687   4.818 -0.3921 -0.2161  0.2819
  996SOL    HW1 4995   9.438   4.601   4.785  0.1250  0.2112 -0.5025
  996SOL    HW2 4996   9.335   4.710   4.767 -0.5230 -0.2135  0.4828
  997SOL     OW 4997   3.187  10.509   6.136 -0.5148 -0.0913  0.2134
  997SOL    HW1 4998   3.190  10.523   6.042  0.4021 -2.1010 -0.1185
  997SOL    HW2 4999   3.269  10.547   6.169 -0.1229 -0.6984 -0.0387
  998SOL     OW 5000   1.103   1.386   1.816  0.4582 -0.0001  0.0227
  998SOL    HW1 5001   1.169   1.428   1.872  0.3949 -0.6865  0.6221
  998SOL    HW2 5002   1.058   1.324   1.873  0.6544 -1.0055 -0.8796
  999SOL     OW 5003   3.023   2.166   1.651 -0.2317 -0.1429  0.1445
  999SOL    HW1 5004   3.067   2.191   1.733 -1.3498  1.7993  0.2116
  999SOL    HW2 5005   3.061   2.081   1.629  1.1351 -0.0638  1.9211
 1000SOL     OW 5006   9.172   1.142   2.271 -0.3365  0.2027  0.2902
 1000SOL    HW1 5007   9.242   1.155   2.207 -0.8495 -0.0612 -0.3360
 1000SOL    HW2 5008   9.210   1.082   2.336  0.4074  0.9866  0.6061
 1001SOL     OW 5009   6.694   8.121   3.914  0.1140  0.3075 -0.4712
 1001SOL    HW1 5010   6.737   8.184   3.856 -1.6664  1.0398 -1.0554
 1001SOL    HW2 5011   6.603   8.151   3.919 -0.3167 -1.0971  0.8408
 1002SOL     OW 5012   6.422   4.975   5.934 -0.1299 -0.4511  0.3783
 1002SOL    HW1 5013   6.355   4.907   5.925 -0.6813  0.1722 -0.3310
 1002SOL    HW2 5014   6.379   5.045   5.983 -1.8196  2.1354 -4.1567
 1003SOL     OW 5015   7.520  11.034   3.620  0.1143 -0.1595 -0.3438
 1003SOL    HW1 5016   7.460  11.095   3.576  0.5094 -0.1962 -0.9537
 1003SOL    HW2 5017   7.500  11.043   3.713 -2.3981 -1.7959 -0.6322
 1004SOL     OW 5018   4.574   4.954   6.557 -0.0861 -0.0508 -0.2586
 1004SOL    HW1 5019   4.642   4.974   6.492 -0.3469 -1.2865 -0.9488
 1004SOL    HW2 5020   4.497   5.002   6.526 -0.0786 -0.2554 -0.5973
 1005SOL     OW 5021   4.048   2.577   2.326  0.9884  0.2575  0.1749
 1005SOL    HW1 5022   4.090   2.542   2.247  2.0276  2.9829 -0.5895
 1005SOL    HW2 5023   3.959   2.599   2.298  1.6010  1.9747 -0.5259
 1006SOL     OW 5024   9.029   4.238   5.268 -0.1036 -0.5656  0.4502
 1006SOL    HW1 5025   9.021   4.144   5.256 -2.3991 -1.0038  3.9639
 1006SOL    HW2 5026   8.942   4.272   5.250  0.7432  1.0119 -0.9923
 1007SOL     OW 5027   0.615   1.730   6.386  0.0108  0.2308  0.1001
 1007SOL    HW1 5028   0.607   1.697   6.476  1.3186 -1.3745 -0.3369
 1007SOL    HW2 5029   0.706   1.713   6.362 -0.8503 -1.4641 -2.3148
 1008SOL     OW 5030   5.263  10.376   6.742  0.6540 -0.1966 -0.1406
 1008SOL    HW1 5031   5.334  10.312   6.744  1.2624  0.4706  1.5523
 1008SOL    HW2 5032   5.280  10.433   6.817 -1.5269  0.1463  0.1614
 1009SOL     OW 5033   4.103   2.658   2.598  0.0162 -0.3251  0.7220
 1009SOL    HW1 5034   4.090   2.634   2.506 -0.3364  0.7407  0.4829
 1009SOL    HW2 5035   4.130   2.577   2.640  3.1784 -0.2748 -0.8907
 1010SOL     OW 5036   2.618   3.582   8.637 -0.0256 -0.3529  0.1403
 1010SOL    HW1 5037   2.647   3.579   8.546  0.6394 -0.9683  0.3632
 1010SOL    HW2 5038   2.649   3.499   8.675  1.6280  0.8222  1.4985
 1011SOL     OW 5039   2.342   7.994   5.815  0.5518  0.4224  0.4695
 1011SOL    HW1 5040   2.326   7.981   5.908  1.1552 -1.3629  0.3573
 1011SOL    HW2 5041   2.437   8.002   5.808  0.7673 -1.8627 -0.1928
 1012SOL     OW 5042   6.788   7.043   9.144 -0.3157 -0.0187 -0.0290
 1012SOL    HW1 5043   6.703   7.063   9.184 -1.7686  0.6344 -3.1636
 1012SOL    HW2 5044   6.770   6.968   9.086  1.5848 -0.7102  0.2137
 1013SOL     OW 5045   6.177   2.352   8.588  0.0497 -0.0919  0.4405
 1013SOL    HW1 5046   6.233   2.313   8.521  0.1087  1.9990 -0.8175
 1013SOL    HW2 5047   6.211   2.441   8.598 -2.3100  0.8681  0.4781
 1014SOL     OW 5048   0.896   1.507   2.877  0.1662  0.0539 -0.0163
 1014SOL    HW1 5049   0.876   1.414   2.868 -0.9723  0.3034 -0.3471
 1014SOL    HW2 5050   0.935   1.532   2.793  1.1658 -0.2774  0.3446
 1015SOL     OW 5051   2.197   6.194   0.253  0.3965 -0.3896  0.2059
 1015SOL    HW1 5052   2.172   6.168   0.165  0.1457  1.5307 -0.3363
 1015SOL    HW2 5053   2.114   6.207   0.299  0.5192 -0.8946  0.5808
 1016SOL     OW 5054   9.081   8.329   1.665  0.2541  0.1251 -0.1220
 1016SOL    HW1 5055   9.103   8.414   1.705 -0.2616  0.2594 -0.1180
 1016SOL    HW2 5056   9.061   8.272   1.739  0.1584  0.1294 -0.1435
 1017SOL     OW 5057   3.790   4.693   0.285  0.0947 -0.1858  0.1033
 1017SOL    HW1 5058   3.809   4.769   0.230  0.6457 -1.7745 -2.0532
 1017SOL    HW2 5059   3.810   4.722   0.374  0.7021  2.0462 -0.7014
 1018SOL     OW 5060   3.799   6.655   5.879  0.4540 -0.0528 -0.1399
 1018SOL    HW1 5061   3.754   6.718   5.936  0.8171 -0.3100  0.4490
 1018SOL    HW2 5062   3.892   6.672   5.892  0.5415  0.5391 -1.4269
 1019SOL     OW 5063   4.040   7.978   8.807 -0.6456 -0.2438 -0.2298
 1019SOL    HW1 5064   4.117   8.031   8.825 -0.1954 -1.2723  1.0268
 1019SOL    HW2 5065   4.051   7.900   8.862 -0.4293 -2.4894 -3.1735
 1020SOL     OW 5066   1.882   4.802   7.074 -0.2266  0.0774 -0.0328
 1020SOL    HW1 5067   1.959   4.751   7.047  0.9300  0.8802  1.5322
 1020SOL    HW2 5068   1.863   4.859   6.999  0.6183 -0.2428 -0.5050
 1021SOL     OW 5069   2.933   4.416   0.258 -0.4501  0.3025  0.1046
 1021SOL    HW1 5070   2.845   4.389   0.281 -0.3399  0.9752  1.4306
 1021SOL    HW2 5071   2.990   4.367   0.318 -0.0417  0.9396  0.2594
 1022SOL     OW 5072   6.552   6.379   1.632 -0.7364 -0.5401 -0.0354
 1022SOL    HW1 5073   6.492   6.436   1.680 -0.5884 -0.2959 -0.1419
 1022SOL    HW2 5074   6.614   6.349   1.698  0.4806  1.1069 -0.3585
 1023SOL     OW 5075   3.542   1.187   0.292 -0.5558  0.2441  0.0703
 1023SOL    HW1 5076   3.540   1.272   0.337 -1.4670  1.0628 -1.4087
 1023SOL    HW2 5077   3.518   1.208   0.201  0.1417 -1.4822 -0.5514
 1024SOL     OW 5078   8.728   8.049   4.534  0.4403 -0.2114 -0.8057
 1024SOL    HW1 5079   8.777   8.119   4.491  1.5556  0.0482  0.8096
 1024SOL    HW2 5080   8.766   8.043   4.622  1.9267 -4.2345 -1.4707
 1025SOL     OW 5081   4.811   0.353   9.545 -0.6966 -0.2328  0.5164
 1025SOL    HW1 5082   4.871   0.280   9.527 -0.4733  0.2286 -0.6865
 1025SOL    HW2 5083   4.751   0.354   9.471 -1.9715 -0.4348  1.5198
 1026SOL     OW 5084   6.235   2.554   4.959 -0.3015 -0.4527  0.5172
 1026SOL    HW1 5085   6.271   2.643   4.959  0.7561 -0.8668  1.1461
 1026SOL    HW2 5086   6.312   2.497   4.962 -0.8716 -1.4521 -1.7634
 1027SOL     OW 5087  10.359   1.449   9.589 -0.4388 -0.0556  0.0639
 1027SOL    HW1 5088  10.347   1.544   9.599 -0.6943  0.0182 -0.8579
 1027SOL    HW2 5089  10.270   1.415   9.577 -0.2082 -0.1379 -1.7093
 1028SOL     OW 5090   3.503   3.551   7.187 -0.4296 -0.0676  0.4100
 1028SOL    HW1 5091   3.423   3.502   7.206 -0.6363  0.8670  2.1197
 1028SOL    HW2 5092   3.473   3.639   7.166 -0.0919 -0.6493 -3.0848
 1029SOL     OW 5093   9.096   1.078   0.679  0.3207  0.4199 -0.0777
 1029SOL    HW1 5094   9.138   1.079   0.593  2.2134  0.1867  0.8001
 1029SOL    HW2 5095   9.072   1.169   0.695 -2.9994  0.0924 -2.1355
 1030SOL     OW 5096   2.360   8.477   3.294  0.3666 -0.2632  0.1311
 1030SOL    HW1 5097   2.403   8.507   3.375 -0.0789 -1.2266  0.7376
 1030SOL    HW2 5098   2.268   8.497   3.307  0.0929 -1.6327  0.4448
 1031SOL     OW 5099   6.453   2.508   7.292  0.5268  0.0626 -0.1385
 1031SOL    HW1 5100   6.502   2.434   7.327  0.9318  0.8055  0.9085
 1031SOL    HW2 5101   6.371   2.509   7.342  0.0071 -0.3843 -0.9708
 1032SOL     OW 5102  10.985   9.151   0.826 -0.0851 -0.0003  0.1440
 1032SOL    HW1 5103  10.941   9.073   0.857  0.2441  0.3183  1.4779
 1032SOL    HW2 5104  11.078   9.129   0.829 -0.0478  0.0064 -0.7333
 1033SOL     OW 5105   3.023   8.556   0.648  0.1317  0.0187  0.6555
 1033SOL    HW1 5106   3.060   8.474   0.617  1.6923  1.3938 -1.4183
 1033SOL    HW2 5107   3.078   8.624   0.608 -2.4463  2.1301  0.4329
 1034SOL     OW 5108   6.874   8.283   6.532 -0.2905  0.2401  0.3256
 1034SOL    HW1 5109   6.920   8.301   6.449  0.8380 -0.0733  0.8589
 1034SOL    HW2 5110   6.880   8.364   6.581 -2.9005  1.1711 -0.7278
 1035SOL     OW 5111   3.417   9.751   2.373  0.0324  0.1080 -0.1074
 1035SOL    HW1 5112   3.444   9.833   2.331 -1.7534 -0.1692 -1.9654
 1035SOL    HW2 5113   3.341   9.776   2.426  1.3156  0.1540  1.7957
 1036SOL     OW 5114   3.093  10.896   2.248  0.1772 -0.8384  0.0490
 1036SOL    HW1 5115   3.170  10.861   2.295  0.2575 -0.0592  0.5216
 1036SOL    HW2 5116   3.130  10.950   2.179  0.1011  0.7442  1.1810
 1037SOL     OW 5117   8.157   6.579   7.606  0.0105  0.6347  0.0605
 1037SOL    HW1 5118   8.173   6.579   7.701  0.3192 -2.2376  0.0963
 1037SOL    HW2 5119   8.231   6.531   7.569 -0.6527  0.7828 -1.5327
 1038SOL     OW 5120   0.193   1.052   6.905 -0.6629  0.4230 -0.0958
 1038SOL    HW1 5121   0.166   0.993   6.834 -1.6228  1.4288 -0.5935
 1038SOL    HW2 5122   0.258   1.109   6.866  0.3068 -0.3058  0.4024
 1039SOL     OW 5123   1.033   0.187   3.383  0.1831  0.5229  0.1812
 1039SOL    HW1 5124   1.078   0.115   3.426 -0.1341 -0.1994 -0.6541
 1039SOL    HW2 5125   1.099   0.225   3.324 -0.0931 -0.1186 -0.5593
 1040SOL     OW 5126   0.494  10.278   6.262 -0.6554 -0.2793 -0.2078
 1040SOL    HW1 5127   0.457  10.331   6.192  0.4005  0.3722 -0.2886
 1040SOL    HW2 5128   0.578  10.247   6.228  1.1148  2.1294  1.6146
 1041SOL     OW 5129   4.339   8.248   0.001  0.3227  0.0046  0.1732
 1041SOL    HW1 5130   4.374   8.337   0.005  0.4626 -0.0538  0.2217
 1041SOL    HW2 5131   4.244   8.260  -0.004  0.3271  0.1484  0.4614
 1042SOL     OW 5132   2.485   6.937   9.001 -0.3219  0.3983 -0.0644
 1042SOL    HW1 5133   2.400   6.948   8.959  0.0139  0.3620 -0.7744
 1042SOL    HW2 5134   2.469   6.875   9.072 -0.6488 -0.6413 -1.0098
 1043SOL     OW 5135   6.091   4.119   0.946  0.3089  0.3112  0.5851
 1043SOL    HW1 5136   6.184   4.125   0.965  0.7980 -0.8121 -1.2931
 1043SOL    HW2 5137   6.072   4.026   0.944 -0.2784  0.4179 -1.4393
 1044SOL     OW 5138   9.524   4.765   8.562 -0.2692  0.3047  0.7497
 1044SOL    HW1 5139   9.437   4.739   8.531 -0.7953  1.4168  1.2338
 1044SOL    HW2 5140   9.536   4.716   8.643  0.2785 -1.0973 -0.1230
 1045SOL     OW 5141   0.972   1.172   1.647 -0.1573  0.2005 -0.0014
 1045SOL    HW1 5142   1.031   1.243   1.672  2.1801 -0.6993 -2.5576
 1045SOL    HW2 5143   1.002   1.097   1.699  1.3507 -0.3736 -1.6287
 1046SOL     OW 5144   7.763   8.329   0.793 -0.5420  0.0871 -0.2360
 1046SOL    HW1 5145   7.737   8.399   0.853  3.4151  0.2512  1.6473
 1046SOL    HW2 5146   7.777   8.373   0.709 -3.1505  0.4270 -0.5836
 1047SOL     OW 5147   4.952   2.005   1.602  0.3040  0.3619  0.5221
 1047SOL    HW1 5148   4.966   1.922   1.648 -0.6551 -0.0644  0.0694
 1047SOL    HW2 5149   4.951   2.070   1.672  1.3547  0.0512  0.8581
 1048SOL     OW 5150   0.935   8.340   5.552  0.1625 -0.9796  0.3533
 1048SOL    HW1 5151   0.868   8.406   5.534 -0.4409 -1.7332 -0.2414
 1048SOL    HW2 5152   0.984   8.375   5.626  0.3477  0.5001 -0.4261
 1049SOL     OW 5153   4.791   2.211   8.504  0.9743  0.3386 -0.1415
 1049SOL    HW1 5154   4.862   2.199   8.568  0.0437 -3.2198  0.4702
 1049SOL    HW2 5155   4.796   2.132   8.449 -1.0953  1.1094 -1.5420
 1050SOL     OW 5156   2.697   7.754   0.894 -0.6162  0.3218  0.2928
 1050SOL    HW1 5157   2.777   7.771   0.943 -0.3112  0.4863 -0.2482
 1050SOL    HW2 5158   2.626   7.782   0.952 -0.3473 -0.8170  1.2095
 1051SOL     OW 5159   3.201   7.457  10.708  0.4237 -0.3405 -0.0690
 1051SOL    HW1 5160   3.209   7.547  10.740 -0.6978 -0.1597 -0.2598
 1051SOL    HW2 5161   3.286   7.417  10.728  0.5513  0.4321  1.0405
 1052SOL     OW 5162  10.437   5.182   3.940 -0.2793 -0.3041 -0.5583
 1052SOL    HW1 5163  10.491   5.195   4.018 -3.0890  3.0642  1.0976
 1052SOL    HW2 5164  10.374   5.115   3.965 -2.4944  2.2125  1.0370
 1053SOL     OW 5165   5.778   3.191   7.347  0.0111  0.5299  0.1934
 1053SOL    HW1 5166   5.746   3.276   7.376 -0.1432  0.4829  0.1598
 1053SOL    HW2 5167   5.873   3.197   7.358 -0.0693  0.3864  1.0680
 1054SOL     OW 5168   1.940   6.722   9.584  0.3140  0.1943  0.7096
 1054SOL    HW1 5169   1.899   6.643   9.548  1.9232  0.8665 -3.0034
 1054SOL    HW2 5170   2.010   6.688   9.640  0.7386 -1.0467 -0.5073
 1055SOL     OW 5171   1.124   3.086   6.715 -0.1842  0.4885  0.3096
 1055SOL    HW1 5172   1.062   3.027   6.758 -0.3522 -0.2962 -0.9581
 1055SOL    HW2 5173   1.210   3.046   6.728 -0.2074  0.3773  0.1231
 1056SOL     OW 5174   9.217   9.831   5.100 -0.4146  0.2512  0.1994
 1056SOL    HW1 5175   9.261   9.909   5.066 -0.3423  0.4292  0.6888
 1056SOL    HW2 5176   9.165   9.864   5.173 -0.2847 -0.1805  0.4880
 1057SOL     OW 5177   7.960   1.364   5.762  0.0708  0.3927 -0.5382
 1057SOL    HW1 5178   7.988   1.390   5.674  2.1663 -0.6807 -0.2752
 1057SOL    HW2 5179   7.952   1.268   5.757  3.2150 -0.0946  1.0750
 1058SOL     OW 5180   2.202   3.493   4.780 -0.2629 -0.5600  0.6241
 1058SOL    HW1 5181   2.115   3.486   4.819 -0.5048 -0.1660  0.1730
 1058SOL    HW2 5182   2.251   3.549   4.841 -0.7654  0.4045  0.1714
 1059SOL     OW 5183  10.090   7.440   6.976  0.1159 -0.2213 -0.4366
 1059SOL    HW1 5184  10.160   7.421   6.913  0.5843 -4.0597  0.9168
 1059SOL    HW2 5185  10.013   7.395   6.940 -0.2823 -0.2629  0.4382
 1060SOL     OW 5186   5.379   0.196   3.491  0.1575  0.0476 -0.2730
 1060SOL    HW1 5187   5.430   0.256   3.437  1.8191 -1.4453 -0.4427
 1060SOL    HW2 5188   5.434   0.181   3.568 -0.6224 -0.6009  0.1757
 1061SOL     OW 5189   7.609   4.662   7.772 -0.5552 -0.3256 -0.3446
 1061SOL    HW1 5190   7.670   4.701   7.708  0.4604 -0.5946  0.4306
 1061SOL    HW2 5191   7.555   4.602   7.720 -0.4166  0.2000 -1.1123
 1062SOL     OW 5192   0.204   6.088   0.951  0.4843  0.0757 -0.2715
 1062SOL    HW1 5193   0.138   6.075   1.020  1.8448 -1.3301  0.8450
 1062SOL    HW2 5194   0.180   6.171   0.910 -1.3171  0.1595  0.8260
 1063SOL     OW 5195   8.597   6.091   0.357 -0.4459  0.1126  0.2329
 1063SOL    HW1 5196   8.670   6.080   0.418  0.8710  0.0152 -1.2772
 1063SOL    HW2 5197   8.596   6.009   0.306 -0.7374  0.6445 -0.6386
 1064SOL     OW 5198   8.415   0.315   5.086  0.5998 -0.3281  0.2163
 1064SOL    HW1 5199   8.386   0.338   4.998 -0.0262  0.1160  0.5355
 1064SOL    HW2 5200   8.361   0.239   5.110  0.9312 -0.5947  0.1335
 1065SOL     OW 5201  10.898   0.542   3.618 -0.2427  0.3897  0.2096
 1065SOL    HW1 5202  10.836   0.605   3.656 -0.0944  0.6268  0.0643
 1065SOL    HW2 5203  10.922   0.485   3.691 -1.2878 -0.2430  0.0767
 1066SOL     OW 5204  10.756   0.368   5.889  0.0872 -0.0620  0.1906
 1066SOL    HW1 5205  10.687   0.431   5.907  2.0233  1.7698  1.5614
 1066SOL    HW2 5206  10.787   0.339   5.975  1.2525 -0.5798 -0.3730
 1067SOL     OW 5207   3.877   1.882   5.017  0.2302 -0.0927  0.0035
 1067SOL    HW1 5208   3.851   1.926   5.098  0.1818 -0.9877  0.4962
 1067SOL    HW2 5209   3.794   1.860   4.974  0.2597  1.2385 -0.7959
 1068SOL     OW 5210   7.957   5.928   8.301 -0.0607 -0.2563  0.0537
 1068SOL    HW1 5211   7.909   5.974   8.233  0.8988 -0.4109 -0.7410
 1068SOL    HW2 5212   7.956   5.987   8.376  2.0989  1.5957 -1.2726
 1069SOL     OW 5213   9.569   7.546   0.508  0.8801 -0.4347  0.0154
 1069SOL    HW1 5214   9.580   7.614   0.442 -0.5750 -0.5754 -0.4022
 1069SOL    HW2 5215   9.651   7.497   0.507  2.2358  1.6639  0.7735
 1070SOL     OW 5216   3.382   2.836   3.872  0.1031  0.3613 -0.0191
 1070SOL    HW1 5217   3.323   2.838   3.948  0.8514 -1.5647  0.6810
 1070SOL    HW2 5218   3.404   2.928   3.857 -0.5278  0.8570  1.7409
 1071SOL     OW 5219   2.525   7.198   1.594 -0.9224 -0.2275  0.1926
 1071SOL    HW1 5220   2.493   7.153   1.516 -1.3738 -1.4501  1.0477
 1071SOL    HW2 5221   2.503   7.139   1.666  0.3696  0.4133  1.1484
 1072SOL     OW 5222   6.273   9.056   1.401  0.1749 -0.4243 -0.1826
 1072SOL    HW1 5223   6.206   9.086   1.340 -1.0079 -0.1602  1.1746
 1072SOL    HW2 5224   6.224   9.034   1.481  1.7662  0.4243  1.0840
 1073SOL     OW 5225   9.289   2.281   5.931  0.2844 -0.0948  0.1823
 1073SOL    HW1 5226   9.287   2.333   6.011 -0.6523  0.6397 -0.2908
 1073SOL    HW2 5227   9.357   2.216   5.945  0.8092  0.6569  1.1828
 1074SOL     OW 5228   8.796   4.548   9.746  0.2231 -0.2274 -0.4274
 1074SOL    HW1 5229   8.838   4.632   9.728 -1.1918  0.1167 -2.5023
 1074SOL    HW2 5230   8.836   4.487   9.685  1.4184 -1.1892  1.2361
 1075SOL     OW 5231   6.095   2.703   6.140  0.1686 -0.3064  0.5242
 1075SOL    HW1 5232   6.148   2.624   6.149  0.7512  0.0959  0.6402
 1075SOL    HW2 5233   6.033   2.682   6.069 -1.2375 -1.7185  2.0875
 1076SOL     OW 5234   3.601   3.625   1.915 -0.2674  0.1416 -1.0608
 1076SOL    HW1 5235   3.604   3.647   1.822  2.3650 -0.1566 -1.1090
 1076SOL    HW2 5236   3.606   3.530   1.917 -0.2694  0.1492 -0.6012
 1077SOL     OW 5237   8.368   1.693   9.823 -0.2478  0.4509  0.6190
 1077SOL    HW1 5238   8.319   1.766   9.787 -1.6766 -0.9225 -0.3721
 1077SOL    HW2 5239   8.307   1.619   9.820  1.3580 -0.9549  0.9095
 1078SOL     OW 5240   3.711   8.970   6.500 -0.1628  0.2830  0.2906
 1078SOL    HW1 5241   3.663   9.047   6.532  0.2173 -0.2465  2.2512
 1078SOL    HW2 5242   3.789   8.966   6.555  1.0474 -0.1585 -1.3727
 1079SOL     OW 5243   6.838   6.355   4.115  0.2094 -0.1543  0.3346
 1079SOL    HW1 5244   6.878   6.403   4.187  0.1280 -0.0008  0.2785
 1079SOL    HW2 5245   6.886   6.383   4.037 -0.6927  0.8409  0.1148
 1080SOL     OW 5246   6.712   4.101   9.367 -0.3093  0.8143 -0.1695
 1080SOL    HW1 5247   6.723   4.194   9.347 -1.0581  0.3726 -3.1007
 1080SOL    HW2 5248   6.798   4.062   9.350 -0.7031  0.5856 -1.7587
 1081SOL     OW 5249   7.494   9.217   4.552 -0.2590  0.4771 -0.3058
 1081SOL    HW1 5250   7.428   9.255   4.494  1.3346  0.4345 -2.2454
 1081SOL    HW2 5251   7.454   9.137   4.585 -0.9425  0.0820 -2.0150
 1082SOL     OW 5252   1.863   4.740   6.422  0.3804  0.1884  0.0230
 1082SOL    HW1 5253   1.852   4.823   6.468  0.5526 -1.0447  2.4275
 1082SOL    HW2 5254   1.953   4.713   6.440  0.8368  0.1481 -2.0158
 1083SOL     OW 5255  10.233   3.312   5.973 -0.0819  0.4250  0.0144
 1083SOL    HW1 5256  10.176   3.237   5.994  0.3411  1.1643  5.0979
 1083SOL    HW2 5257  10.173   3.376   5.934 -2.0378 -0.1231  1.8910
 1084SOL     OW 5258   0.017   7.596   5.282 -0.3240 -0.3949 -0.1693
 1084SOL    HW1 5259   0.105   7.628   5.264 -0.3213 -0.0223  0.5099
 1084SOL    HW2 5260  -0.039   7.640   5.217  0.0342 -0.8999 -0.8270
 1085SOL     OW 5261   7.175   0.684  10.927  0.0337  0.2606  0.1384
 1085SOL    HW1 5262   7.183   0.775  10.954 -1.0911  0.8434 -1.3017
 1085SOL    HW2 5263   7.177   0.688  10.831 -0.5181 -1.1713  0.0488
 1086SOL     OW 5264   7.435   9.065   7.484  0.0878 -0.8464  0.4913
 1086SOL    HW1 5265   7.457   8.992   7.542  0.5678 -0.8911  0.2566
 1086SOL    HW2 5266   7.482   9.046   7.403 -0.3285 -0.6217  0.1950
 1087SOL     OW 5267   3.187   4.147   4.425  0.5109  0.4782 -0.0906
 1087SOL    HW1 5268   3.255   4.081   4.437  0.4068  0.5339  0.8821
 1087SOL    HW2 5269   3.122   4.105   4.368  0.3632 -0.3224  0.6458
 1088SOL     OW 5270   3.563   4.288   4.631  0.1035  0.0141 -1.1417
 1088SOL    HW1 5271   3.639   4.284   4.689  1.5897  0.4905 -2.9434
 1088SOL    HW2 5272   3.489   4.307   4.689  1.7162  1.9839  0.4495
 1089SOL     OW 5273   3.747   9.467   8.235 -0.6317 -0.9153  0.1444
 1089SOL    HW1 5274   3.737   9.552   8.193 -0.4571 -0.5519  0.8165
 1089SOL    HW2 5275   3.743   9.403   8.164  1.1803 -0.2472 -0.5968
 1090SOL     OW 5276   0.450   5.696   5.068  0.2039 -0.0292  0.3373
 1090SOL    HW1 5277   0.530   5.683   5.017  0.4494  1.1474  0.3971
 1090SOL    HW2 5278   0.379   5.687   5.005  0.4582  0.4473 -0.0172
 1091SOL     OW 5279   2.183   9.934   3.561  0.0673 -0.3684 -0.1042
 1091SOL    HW1 5280   2.136   9.881   3.497 -0.6389  1.2759 -1.0048
 1091SOL    HW2 5281   2.115   9.969   3.618  0.4776 -0.1592  0.2633
 1092SOL     OW 5282   8.065   7.262   1.581  0.1939  0.1263 -0.1933
 1092SOL    HW1 5283   8.111   7.180   1.599  1.4065  0.1199 -2.8504
 1092SOL    HW2 5284   8.127   7.331   1.606  1.2002  0.1229 -2.4251
 1093SOL     OW 5285   8.672   1.701   9.798  0.3457  0.2155 -0.7168
 1093SOL    HW1 5286   8.694   1.731   9.710 -0.9143  0.6389 -0.9162
 1093SOL    HW2 5287   8.578   1.683   9.794  0.0769  1.1038  0.7889
 1094SOL     OW 5288   3.193   9.793  10.338 -0.0966  0.3595  0.2433
 1094SOL    HW1 5289   3.222   9.716  10.387 -0.4485 -0.1260 -0.3047
 1094SOL    HW2 5290   3.124   9.831  10.392  0.2139  0.4054  0.6111
 1095SOL     OW 5291  10.178  10.618   3.576 -0.1216  0.0946 -0.6632
 1095SOL    HW1 5292  10.103  10.678   3.576  0.8799  1.3980 -1.5070
 1095SOL    HW2 5293  10.196  10.603   3.483  0.9783  0.2085 -0.4761
 1096SOL     OW 5294   2.081   8.983   3.461  0.0684  0.0632 -0.2183
 1096SOL    HW1 5295   2.001   8.936   3.486 -0.1059 -1.0261 -2.5444
 1096SOL    HW2 5296   2.117   9.014   3.544 -1.6402 -1.2573  1.1074
 1097SOL     OW 5297   1.672   5.947  10.298 -0.7447 -0.2490  0.1087
 1097SOL    HW1 5298   1.756   5.982  10.267 -1.2586  0.4873 -0.4903
 1097SOL    HW2 5299   1.696   5.887  10.369  0.3343 -0.5698 -0.5029
 1098SOL     OW 5300   5.277  10.664   5.097  0.6059  0.0195 -0.7490
 1098SOL    HW1 5301   5.333  10.603   5.144 -0.3804  0.7007  1.4796
 1098SOL    HW2 5302   5.305  10.751   5.128 -0.7490  0.4429 -0.6408
 1099SOL     OW 5303   5.706   2.951   5.738 -0.1044  0.7456 -0.6048
 1099SOL    HW1 5304   5.744   2.994   5.662 -0.5356  1.8131 -0.2322
 1099SOL    HW2 5305   5.678   2.865   5.706 -1.4199  1.6424 -1.9721
 1100SOL     OW 5306   7.379   4.637   1.825 -0.9850 -0.0757  0.2040
 1100SOL    HW1 5307   7.360   4.578   1.898  0.8221 -0.4549  0.4079
 1100SOL    HW2 5308   7.459   4.683   1.852 -0.6773  0.2785 -1.2377
 1101SOL     OW 5309  10.232   0.109   0.440 -0.3611 -0.6033  0.3160
 1101SOL    HW1 5310  10.150   0.095   0.487 -0.3930  1.3185  0.8978
 1101SOL    HW2 5311  10.209   0.101   0.347 -1.5877  1.5524  0.3879
 1102SOL     OW 5312   4.787   8.756   6.657  0.1673  0.3038  0.3154
 1102SOL    HW1 5313   4.738   8.786   6.734 -2.3328 -2.3730 -0.0784
 1102SOL    HW2 5314   4.722   8.749   6.588  1.7684 -0.3575 -1.2074
 1103SOL     OW 5315   4.723   3.826  10.651  0.0773  0.7162 -0.2470
 1103SOL    HW1 5316   4.663   3.870  10.592 -2.5123 -0.4033  1.3815
 1103SOL    HW2 5317   4.701   3.861  10.738 -1.1654 -2.5770  0.9376
 1104SOL     OW 5318   8.288   5.090  10.210  0.1242  0.1418 -0.2109
 1104SOL    HW1 5319   8.203   5.132  10.222 -0.2875 -0.7781  0.1828
 1104SOL    HW2 5320   8.301   5.037  10.288  1.0844  0.3006 -0.2498
 1105SOL     OW 5321   8.313   4.243   7.432  0.0793 -0.1985  0.3415
 1105SOL    HW1 5322   8.219   4.232   7.415 -0.1630 -0.5957  1.7752
 1105SOL    HW2 5323   8.336   4.169   7.487  1.1850  0.0570  0.2505
 1106SOL     OW 5324   4.819   1.792   9.302  0.4078 -0.1867 -0.6009
 1106SOL    HW1 5325   4.887   1.744   9.255 -0.4925 -0.5208 -1.5833
 1106SOL    HW2 5326   4.865   1.867   9.340  1.2879 -0.2794 -1.4447
 1107SOL     OW 5327   5.476   3.861   4.766 -0.1513 -0.1782  0.1249
 1107SOL    HW1 5328   5.442   3.853   4.677 -0.4521  0.4897  0.1768
 1107SOL    HW2 5329   5.398   3.852   4.822 -0.0104 -0.2626  0.3082
 1108SOL     OW 5330   6.548   6.375   8.000 -0.2988 -0.4872 -0.0138
 1108SOL    HW1 5331   6.568   6.468   7.995 -1.6804 -0.0801  1.1924
 1108SOL    HW2 5332   6.512   6.354   7.913 -1.1747  0.4246  0.1104
 1109SOL     OW 5333   2.720   6.874  10.188  0.1753 -0.1122  0.0882
 1109SOL    HW1 5334   2.776   6.806  10.224  2.3835  1.3866 -0.3354
 1109SOL    HW2 5335   2.674   6.910  10.264 -2.6536 -3.2838  0.1198
 1110SOL     OW 5336   1.757  10.636   1.345 -0.2068 -0.4006 -0.4179
 1110SOL    HW1 5337   1.718  10.722   1.358  2.8573  1.0132  0.5882
 1110SOL    HW2 5338   1.847  10.655   1.318  0.7061 -3.2630  0.2807
 1111SOL     OW 5339   7.913   5.049   7.645 -0.0827  0.0546  0.6244
 1111SOL    HW1 5340   7.898   5.010   7.559 -2.4783 -1.2986  1.5549
 1111SOL    HW2 5341   7.903   5.143   7.630  2.6936  0.2158 -1.0716
 1112SOL     OW 5342  10.829   4.553   6.419 -0.0202 -0.1368  0.2761
 1112SOL    HW1 5343  10.825   4.511   6.505 -0.8462  1.1478  0.8918
 1112SOL    HW2 5344  10.754   4.517   6.371 -1.7099  1.7262  1.3631
 1113SOL     OW 5345   6.988   1.700   7.455 -0.3854 -0.5630  0.0571
 1113SOL    HW1 5346   6.947   1.713   7.540 -1.9949 -0.8648 -0.6427
 1113SOL    HW2 5347   7.068   1.650   7.474  0.3021  1.0578  1.5661
 1114SOL     OW 5348   7.224   5.928   7.035 -0.2344 -0.5371 -0.1491
 1114SOL    HW1 5349   7.138   5.915   6.994  0.1823  0.7229 -1.5401
 1114SOL    HW2 5350   7.286   5.918   6.962  0.5719  1.4381  0.2136
 1115SOL     OW 5351   5.737  10.270   0.892  0.1736  0.1501 -0.0942
 1115SOL    HW1 5352   5.817  10.281   0.842  1.9290 -1.7358  2.0965
 1115SOL    HW2 5353   5.704  10.184   0.866 -2.5467  1.7678 -2.6446
 1116SOL     OW 5354   8.122   3.452   2.417  0.0386 -0.1725 -0.3839
 1116SOL    HW1 5355   8.069   3.430   2.494 -0.4978  2.2672  0.0269
 1116SOL    HW2 5356   8.209   3.472   2.452 -0.2194  0.9880 -0.3774
 1117SOL     OW 5357   4.630   9.186   5.449  0.3993  0.4769  0.6223
 1117SOL    HW1 5358   4.569   9.250   5.412 -1.4404 -1.0027  0.9440
 1117SOL    HW2 5359   4.599   9.172   5.539  0.7520 -0.8507  0.5561
 1118SOL     OW 5360   1.525   2.360   8.033  0.0631 -0.1010 -0.2493
 1118SOL    HW1 5361   1.556   2.295   8.096  0.6568  0.1166 -0.3204
 1118SOL    HW2 5362   1.531   2.316   7.948 -0.8399 -0.4333 -0.1615
 1119SOL     OW 5363   7.582   0.698  10.928 -0.8087 -0.5055  0.2214
 1119SOL    HW1 5364   7.646   0.630  10.946 -0.9668 -0.5121  0.7741
 1119SOL    HW2 5365   7.581   0.752  11.007 -1.9848 -0.9097  0.5099
 1120SOL     OW 5366   9.340   5.970   2.358  0.0161 -0.0406 -0.1935
 1120SOL    HW1 5367   9.255   5.990   2.399 -0.2025 -1.2581 -0.0128
 1120SOL    HW2 5368   9.397   6.042   2.384 -0.6426  0.1810  0.6721
 1121SOL     OW 5369   1.263   9.091   4.673 -0.1775 -0.2625  0.2987
 1121SOL    HW1 5370   1.241   9.184   4.680  0.3674 -0.0281 -0.9893
 1121SOL    HW2 5371   1.179   9.047   4.661 -0.3650  0.1493  0.1040
 1122SOL     OW 5372   5.658   0.404   5.552  0.4887 -0.1915 -0.2791
 1122SOL    HW1 5373   5.750   0.377   5.557  0.8149  0.8167 -0.4748
 1122SOL    HW2 5374   5.609   0.323   5.554  1.3215 -0.7158  1.3243
 1123SOL     OW 5375   8.861   7.285   5.184  0.1885  0.0214 -0.3861
 1123SOL    HW1 5376   8.778   7.257   5.143 -0.0385 -0.6962  0.5180
 1123SOL    HW2 5377   8.847   7.376   5.207  0.5056  0.6045 -2.3350
 1124SOL     OW 5378  10.133   7.531   7.772 -0.1010  0.1821  0.2763
 1124SOL    HW1 5379  10.196   7.522   7.844 -1.1905 -1.7455  1.0460
 1124SOL    HW2 5380  10.146   7.621   7.741  1.0768  0.7538  2.2274
 1125SOL     OW 5381   7.527   9.252   6.500  0.2146  0.7839 -0.0383
 1125SOL    HW1 5382   7.465   9.263   6.572 -0.6458  1.2662 -0.8306
 1125SOL    HW2 5383   7.602   9.307   6.523  0.7026 -0.3931  1.2928
 1126SOL     OW 5384   4.021   1.235   6.602 -0.1403 -0.0744 -0.0897
 1126SOL    HW1 5385   4.051   1.234   6.693 -0.2260  1.7603  0.0015
 1126SOL    HW2 5386   4.072   1.167   6.558  0.2996 -0.5983  1.2022
 1127SOL     OW 5387   6.757   4.408   6.507  0.0805 -0.2566  0.5358
 1127SOL    HW1 5388   6.689   4.348   6.480 -0.5642  1.1161 -1.0987
 1127SOL    HW2 5389   6.748   4.415   6.602  0.6245 -3.1603  0.8848
 1128SOL     OW 5390   3.730   7.671   2.511 -0.4878  0.0728  0.3337
 1128SOL    HW1 5391   3.709   7.755   2.469 -1.6883 -0.1125  0.5250
 1128SOL    HW2 5392   3.697   7.680   2.600  0.6460 -0.1040  0.7790
 1129SOL     OW 5393   6.872   4.686   4.304 -0.2359  0.2209  0.1921
 1129SOL    HW1 5394   6.866   4.696   4.399  0.1973  1.7694  0.0856
 1129SOL    HW2 5395   6.784   4.661   4.277 -0.1774 -1.0130  1.0612
 1130SOL     OW 5396   4.462   2.491   3.580  0.4090  0.8788  0.0001
 1130SOL    HW1 5397   4.474   2.429   3.652 -2.5633  0.9648  0.6814
 1130SOL    HW2 5398   4.422   2.440   3.510 -0.0517  1.5607 -0.2454
 1131SOL     OW 5399   1.405  10.785   8.285 -0.0573 -0.4718 -0.7461
 1131SOL    HW1 5400   1.483  10.776   8.341 -1.4510 -0.3779  1.3115
 1131SOL    HW2 5401   1.421  10.723   8.214  2.1700  0.0025 -0.7519
 1132SOL     OW 5402   6.938   5.789   0.981  0.3610 -0.4389  0.5390
 1132SOL    HW1 5403   7.031   5.765   0.987  0.2668 -1.3885 -1.2971
 1132SOL    HW2 5404   6.894   5.726   1.038  0.7925 -0.2274  1.1196
 1133SOL     OW 5405   0.346   5.928  10.817 -0.3971  0.1893  0.5110
 1133SOL    HW1 5406   0.261   5.932  10.773 -1.6575  0.9642  2.8992
 1133SOL    HW2 5407   0.353   6.010  10.865  0.3695 -1.0429  2.6519
 1134SOL     OW 5408   5.572   6.114   1.510  0.6774  0.1194  0.3645
 1134SOL    HW1 5409   5.604   6.027   1.535 -2.6973 -1.0476  1.0333
 1134SOL    HW2 5410   5.647   6.155   1.467  3.2101 -2.1206  2.2855
 1135SOL     OW 5411   1.096   2.235   8.869 -0.1556  0.4435 -0.0827
 1135SOL    HW1 5412   1.119   2.193   8.951  1.2142  1.6338  0.1955
 1135SOL    HW2 5413   1.003   2.256   8.877 -0.4143 -0.8625  0.4943
 1136SOL     OW 5414   6.563   8.035   1.532 -0.4448  0.6370  0.5811
 1136SOL    HW1 5415   6.572   8.049   1.626  0.2016 -1.1384  0.8057
 1136SOL    HW2 5416   6.651   8.051   1.497 -0.3871  0.0387  0.4504
 1137SOL     OW 5417   4.739   8.884   5.444  0.0713 -0.1938 -0.3477
 1137SOL    HW1 5418   4.784   8.870   5.360  0.9281 -2.6171  0.4286
 1137SOL    HW2 5419   4.792   8.949   5.489  0.4548  0.0219 -1.0942
 1138SOL     OW 5420   1.928   4.391   6.914  0.0383 -0.1332  0.2654
 1138SOL    HW1 5421   1.986   4.330   6.959  1.2617  0.0512 -0.9961
 1138SOL    HW2 5422   1.964   4.478   6.935 -0.7715  0.0884  0.7923
 1139SOL     OW 5423  10.146   3.247   5.706  0.0260  1.0246 -0.0327
 1139SOL    HW1 5424  10.132   3.328   5.755  1.7872  1.0297  0.5651
 1139SOL    HW2 5425  10.224   3.265   5.653  0.4875 -0.2942  0.1705
 1140SOL     OW 5426   5.560   7.650   1.772  0.0737  0.4574 -0.2578
 1140SOL    HW1 5427   5.486   7.710   1.785  0.1306  0.2422  1.1478
 1140SOL    HW2 5428   5.606   7.650   1.855  1.6293  0.5105 -1.0955
 1141SOL     OW 5429   7.205   7.813   7.648  0.4278  1.0044  0.2485
 1141SOL    HW1 5430   7.182   7.724   7.622 -0.5190  1.3209 -0.0419
 1141SOL    HW2 5431   7.301   7.815   7.645  0.4371  0.7856 -2.5608
 1142SOL     OW 5432   6.791   4.785   9.217  0.3138  0.1126 -0.1445
 1142SOL    HW1 5433   6.752   4.847   9.156 -0.7845  0.3736  0.7803
 1142SOL    HW2 5434   6.838   4.840   9.280  0.8710 -0.1111 -0.3603
 1143SOL     OW 5435   7.189   0.596   4.359 -0.4778  0.2112 -0.1872
 1143SOL    HW1 5436   7.167   0.680   4.401  0.1635  0.4196 -0.2469
 1143SOL    HW2 5437   7.149   0.602   4.272  1.3580  1.4048 -1.0349
 1144SOL     OW 5438   3.323   4.583   8.701 -0.5876 -0.2144  0.2673
 1144SOL    HW1 5439   3.348   4.502   8.655 -0.6675 -0.8211  1.2684
 1144SOL    HW2 5440   3.232   4.597   8.677 -0.6608 -0.5874  0.3201
 1145SOL     OW 5441   9.165   5.219   0.846 -0.2795 -0.0359  0.1448
 1145SOL    HW1 5442   9.095   5.155   0.830 -1.0028  0.8779 -0.3945
 1145SOL    HW2 5443   9.119   5.301   0.862  0.6537  0.3985  0.6402
 1146SOL     OW 5444   8.137   5.085   2.481  0.0034 -0.0876  0.0794
 1146SOL    HW1 5445   8.093   5.052   2.559  1.5213  0.0641  1.0393
 1146SOL    HW2 5446   8.081   5.058   2.408 -0.6842 -1.5204  1.1021
 1147SOL     OW 5447   2.948   6.994   2.721 -0.0278 -0.3895  0.1902
 1147SOL    HW1 5448   2.913   6.980   2.633 -0.2312 -1.4322  0.4208
 1147SOL    HW2 5449   2.912   7.079   2.748  0.9251  0.4844 -1.1352
 1148SOL     OW 5450   8.065   5.639   9.010  0.0060  0.5512 -0.0563
 1148SOL    HW1 5451   8.161   5.640   9.010  0.0659  0.0469  1.9109
 1148SOL    HW2 5452   8.041   5.728   9.039 -0.2156  1.2164 -2.1161
 1149SOL     OW 5453   4.171   0.026   1.305 -0.0889  0.0218  0.4657
 1149SOL    HW1 5454   4.237   0.088   1.337  1.0537 -1.2890  0.7625
 1149SOL    HW2 5455   4.180  -0.051   1.361 -1.9740 -0.1690  0.5729
 1150SOL     OW 5456   9.671   1.923   7.108 -0.1342  0.4267  0.3011
 1150SOL    HW1 5457   9.683   1.830   7.092  0.3600  0.6047 -0.4123
 1150SOL    HW2 5458   9.589   1.929   7.158 -0.3837 -0.3508 -0.0031
 1151SOL     OW 5459  10.139   5.875   8.465 -0.1341 -0.5894  0.5472
 1151SOL    HW1 5460  10.073   5.944   8.460  1.6886  1.2268 -1.6298
 1151SOL    HW2 5461  10.216   5.919   8.503  1.2145 -1.1676 -1.3104
 1152SOL     OW 5462   8.340   6.554  10.158  0.0568 -0.4116  0.0286
 1152SOL    HW1 5463   8.337   6.647  10.182  0.2918 -0.8220  1.8358
 1152SOL    HW2 5464   8.425   6.543  10.116  0.2341  0.0965  0.2445
 1153SOL     OW 5465   7.306  10.314   1.046  0.0484  0.0898  0.3391
 1153SOL    HW1 5466   7.370  10.259   1.092 -0.9166 -1.6194 -0.2728
 1153SOL    HW2 5467   7.230  10.315   1.104  0.2669  1.3770  0.6471
 1154SOL     OW 5468   6.674   3.997   3.725  0.2791 -0.1683  0.5786
 1154SOL    HW1 5469   6.697   4.025   3.637 -1.8619  2.3150  0.6866
 1154SOL    HW2 5470   6.759   3.991   3.771  1.2866  0.4158 -1.1204
 1155SOL     OW 5471   4.831   6.459   6.658  0.0211 -0.4732 -0.3214
 1155SOL    HW1 5472   4.916   6.490   6.628 -0.5114 -0.3013 -1.7499
 1155SOL    HW2 5473   4.816   6.378   6.609 -1.7384  0.8472 -2.1430
 1156SOL     OW 5474   8.395   2.395   2.406  0.3382 -0.0469  0.1416
 1156SOL    HW1 5475   8.467   2.444   2.445  2.4544 -0.2080 -3.2206
 1156SOL    HW2 5476   8.436   2.332   2.348 -2.5063 -1.1072 -0.9275
 1157SOL     OW 5477   5.729   6.266   8.646 -0.1350  0.7018 -0.2328
 1157SOL    HW1 5478   5.793   6.334   8.623 -0.1583  0.7417 -0.1794
 1157SOL    HW2 5479   5.680   6.251   8.565  1.3851 -0.8995 -0.9197
 1158SOL     OW 5480   3.484   6.356   3.510 -0.2437 -0.2911  0.1879
 1158SOL    HW1 5481   3.575   6.350   3.540 -0.2208 -0.7368  0.0370
 1158SOL    HW2 5482   3.452   6.437   3.549 -0.1191 -0.7053  1.1821
 1159SOL     OW 5483   1.879   2.186   9.239  0.2038 -0.4700  0.0833
 1159SOL    HW1 5484   1.855   2.181   9.146 -1.8385 -1.6168  0.5956
 1159SOL    HW2 5485   1.852   2.273   9.266 -1.2035 -0.8654  0.0479
 1160SOL     OW 5486   4.335   8.018   1.873  0.2526  0.5062  0.1040
 1160SOL    HW1 5487   4.367   7.928   1.866 -0.0372  0.3928  0.2296
 1160SOL    HW2 5488   4.414   8.072   1.870  0.3477  0.3335 -1.4081
 1161SOL     OW 5489   9.406   3.331   7.800 -0.1451  0.0384  0.2145
 1161SOL    HW1 5490   9.327   3.347   7.749  0.0881  0.4190 -0.0326
 1161SOL    HW2 5491   9.377   3.331   7.891 -0.0673  2.5333  0.2895
 1162SOL     OW 5492   2.155   5.808   5.419  0.2898  0.0405 -0.2477
 1162SOL    HW1 5493   2.112   5.892   5.435  1.6272  0.9808 -1.3181
 1162SOL    HW2 5494   2.102   5.744   5.467  0.3913  1.7430  2.3013
 1163SOL     OW 5495   1.280   5.426   4.292  0.2843 -0.1659  0.3730
 1163SOL    HW1 5496   1.346   5.467   4.235 -1.3530  1.8257 -0.2029
 1163SOL    HW2 5497   1.203   5.416   4.236 -1.1645  1.2360  2.0236
 1164SOL     OW 5498   0.204   8.546   4.303 -0.0293  0.6217  0.1544
 1164SOL    HW1 5499   0.187   8.472   4.362 -0.7734  0.6722  0.0134
 1164SOL    HW2 5500   0.150   8.617   4.337 -0.4222  0.6666 -0.5591
 1165SOL     OW 5501   4.752   1.164   9.103  0.5588 -0.5813 -0.3590
 1165SOL    HW1 5502   4.735   1.257   9.114  1.0590 -0.6713  1.5801
 1165SOL    HW2 5503   4.733   1.146   9.011 -1.1205  1.0888 -0.3858
 1166SOL     OW 5504   1.107   6.766   1.625  0.1380 -0.2569 -0.1667
 1166SOL    HW1 5505   1.193   6.751   1.584 -0.8113 -0.3940 -2.2231
 1166SOL    HW2 5506   1.091   6.859   1.614  1.0832  0.3229  2.5470
 1167SOL     OW 5507   8.017   9.018   5.190 -0.5301 -0.2234 -0.1672
 1167SOL    HW1 5508   8.020   8.962   5.267 -1.7774 -0.3009 -0.1562
 1167SOL    HW2 5509   8.108   9.039   5.172 -0.1799 -0.7152  0.9537
 1168SOL     OW 5510   5.478   4.485   7.822  0.6656  0.0200  0.0613
 1168SOL    HW1 5511   5.520   4.535   7.752 -0.3926 -1.5050 -1.7561
 1168SOL    HW2 5512   5.545   4.423   7.850  1.8935  2.1300  2.1413
 1169SOL     OW 5513   3.026   2.659   9.492 -1.1143  0.6050  0.3415
 1169SOL    HW1 5514   3.085   2.720   9.537 -0.5760  0.6669 -0.4332
 1169SOL    HW2 5515   2.985   2.712   9.423 -1.4923  0.3629  0.3761
 1170SOL     OW 5516   0.471   6.446   4.465 -0.1272  0.0440 -0.2343
 1170SOL    HW1 5517   0.425   6.484   4.391  0.9066 -1.4594 -1.7357
 1170SOL    HW2 5518   0.412   6.380   4.500  0.0374 -0.4305 -0.8327
 1171SOL     OW 5519   9.639   5.194   4.672  0.1741  0.3355  0.3276
 1171SOL    HW1 5520   9.615   5.227   4.758  1.4416 -1.8074  1.6134
 1171SOL    HW2 5521   9.576   5.124   4.655  0.3164  0.3320 -0.2094
 1172SOL     OW 5522   5.062   0.413  10.507  0.0102  0.1854 -0.0232
 1172SOL    HW1 5523   5.151   0.447  10.494  0.7141 -1.0701  1.1214
 1172SOL    HW2 5524   5.038   0.443  10.595 -0.3096 -0.2525  0.0435
 1173SOL     OW 5525   0.909   8.591   5.086 -0.5776  0.3677 -0.2039
 1173SOL    HW1 5526   0.893   8.497   5.098 -0.6330  0.2996 -0.8104
 1173SOL    HW2 5527   0.986   8.595   5.029  0.0837  0.6969  0.6745
 1174SOL     OW 5528   3.384   9.305   1.063  0.6921 -0.7994 -0.0531
 1174SOL    HW1 5529   3.371   9.328   1.155  0.2926 -0.5444 -0.1706
 1174SOL    HW2 5530   3.386   9.209   1.062  0.1206 -0.8155  0.1451
 1175SOL     OW 5531   1.587   3.411   1.750 -0.2696 -0.5710  0.3228
 1175SOL    HW1 5532   1.591   3.336   1.810  0.9666 -0.5769  0.2569
 1175SOL    HW2 5533   1.510   3.460   1.777  0.6809 -0.1419  2.4554
 1176SOL     OW 5534   3.319   2.700   9.829  0.4307  0.1495  0.3609
 1176SOL    HW1 5535   3.395   2.696   9.887  0.8627  1.1794 -0.1240
 1176SOL    HW2 5536   3.244   2.679   9.886  1.1181 -1.6734  0.6850
 1177SOL     OW 5537   3.594   8.385   1.830  0.3433  0.0067 -0.0078
 1177SOL    HW1 5538   3.568   8.473   1.856 -0.4077  0.0427 -0.8484
 1177SOL    HW2 5539   3.673   8.398   1.777  0.0808  0.1956 -0.3516
 1178SOL     OW 5540   8.806   1.804   1.632 -0.0973 -0.5130 -0.3000
 1178SOL    HW1 5541   8.902   1.804   1.636  0.0562 -0.4414 -2.6205
 1178SOL    HW2 5542   8.779   1.755   1.710  1.7431  0.5203  1.0792
 1179SOL     OW 5543   7.475   0.274   3.049  0.5656  0.2061 -0.2560
 1179SOL    HW1 5544   7.476   0.224   3.131 -1.0175 -1.3394 -1.1050
 1179SOL    HW2 5545   7.539   0.344   3.062  3.7240 -2.5877  0.6866
 1180SOL     OW 5546   8.069   6.813   4.538 -0.1997 -0.0926  0.4024
 1180SOL    HW1 5547   8.149   6.823   4.590  0.8212  1.6059 -1.3219
 1180SOL    HW2 5548   8.078   6.728   4.495 -0.0804 -0.5915  1.3910
 1181SOL     OW 5549  10.818  10.958   6.269  0.7698 -0.0324 -0.2697
 1181SOL    HW1 5550  10.809  11.007   6.187  0.4968 -0.6375 -0.6009
 1181SOL    HW2 5551  10.776  10.874   6.253  1.4637 -0.4889  0.2130
 1182SOL     OW 5552   1.178   4.339   5.893  0.1022 -0.2996 -0.3139
 1182SOL    HW1 5553   1.194   4.306   5.804  1.7344 -1.4089  0.3282
 1182SOL    HW2 5554   1.202   4.431   5.889 -1.4995  0.1019 -1.4121
 1183SOL     OW 5555   4.079  11.009   1.077 -0.4652 -0.3720  0.0567
 1183SOL    HW1 5556   3.999  11.058   1.061  0.0070  0.6507  0.7475
 1183SOL    HW2 5557   4.110  11.041   1.162 -0.1651 -1.8986  0.5524
 1184SOL     OW 5558   2.163   3.691   0.853 -0.2155 -0.1054 -0.1301
 1184SOL    HW1 5559   2.240   3.666   0.905 -1.1335  1.0335  1.9096
 1184SOL    HW2 5560   2.127   3.608   0.823  2.2365 -0.6573 -1.9207
 1185SOL     OW 5561   6.505   5.875   3.600  0.2856 -0.0732  0.2765
 1185SOL    HW1 5562   6.582   5.867   3.656  0.4844  2.2245  0.4550
 1185SOL    HW2 5563   6.531   5.836   3.517  1.0654 -0.7910  0.8449
 1186SOL     OW 5564   9.819   7.294   6.858  0.3002 -0.2342  0.2150
 1186SOL    HW1 5565   9.758   7.366   6.874  0.7601  0.0688  0.6296
 1186SOL    HW2 5566   9.767   7.215   6.869  0.1061  0.0096  1.1322
 1187SOL     OW 5567   1.246   8.211   1.095 -0.2879  0.0280 -0.1457
 1187SOL    HW1 5568   1.339   8.233   1.100 -0.3885  0.7971 -1.2300
 1187SOL    HW2 5569   1.225   8.217   1.001 -1.3862 -0.3144  0.0633
 1188SOL     OW 5570   6.777   8.827   7.814  0.2926  0.1866 -0.3541
 1188SOL    HW1 5571   6.848   8.883   7.782 -0.0439  0.0898 -1.3051
 1188SOL    HW2 5572   6.733   8.880   7.881  0.6268  0.6394 -0.4829
 1189SOL     OW 5573  10.144   8.577   8.989 -0.0652 -0.0282  0.0650
 1189SOL    HW1 5574  10.223   8.627   9.010  0.2078 -0.6830  0.6497
 1189SOL    HW2 5575  10.136   8.515   9.061 -1.6314  0.6321  0.4924
 1190SOL     OW 5576   6.870   7.184   0.025  0.8372 -0.0186  0.2708
 1190SOL    HW1 5577   6.880   7.166   0.118 -1.1670  0.0375  0.5425
 1190SOL    HW2 5578   6.831   7.271   0.021 -0.3977 -0.5716 -0.5297
 1191SOL     OW 5579   7.546   7.153   7.584 -0.1232 -0.3761 -0.0288
 1191SOL    HW1 5580   7.546   7.059   7.568 -1.4025 -0.4899  0.5679
 1191SOL    HW2 5581   7.637   7.180   7.569  0.5469 -1.9239  1.0377
 1192SOL     OW 5582   9.798   8.333   5.215  0.0066  0.4692 -0.0518
 1192SOL    HW1 5583   9.726   8.374   5.261  0.9093  0.7277  1.1752
 1192SOL    HW2 5584   9.856   8.301   5.284  0.9586  0.0937 -0.9979
 1193SOL     OW 5585   1.540   8.937   8.010  0.0355 -0.2810  0.2334
 1193SOL    HW1 5586   1.480   8.898   8.074  0.2914  2.0878  2.0716
 1193SOL    HW2 5587   1.627   8.925   8.050  0.3435  0.0434 -0.3395
 1194SOL     OW 5588   9.603   3.949   8.750  0.1883  0.8747 -0.4685
 1194SOL    HW1 5589   9.619   4.034   8.790  0.7081  0.4855  0.1809
 1194SOL    HW2 5590   9.598   3.888   8.825 -1.6869  0.5492 -0.7932
 1195SOL     OW 5591   3.164   7.926   1.779  0.2922 -0.0776  0.1606
 1195SOL    HW1 5592   3.129   8.012   1.802  0.3002 -0.1103  0.2928
 1195SOL    HW2 5593   3.112   7.864   1.830  0.1006 -0.1718 -0.1429
 1196SOL     OW 5594   4.622   6.816   3.815  0.1957 -0.2776  0.2649
 1196SOL    HW1 5595   4.555   6.787   3.753 -0.6604  0.4989  0.7959
 1196SOL    HW2 5596   4.619   6.750   3.885 -0.2475 -0.0897  0.4327
 1197SOL     OW 5597   0.566   8.234   1.355 -0.1474  0.3395 -0.5758
 1197SOL    HW1 5598   0.502   8.212   1.287 -1.6166 -0.3390  0.9619
 1197SOL    HW2 5599   0.590   8.325   1.337 -2.6221  1.0830 -0.4086
 1198SOL     OW 5600   0.665  10.296  10.960 -0.4064 -0.6972  0.4267
 1198SOL    HW1 5601   0.708  10.381  10.958  1.4273 -1.5870 -0.3848
 1198SOL    HW2 5602   0.593  10.303  10.897  0.3003 -0.0127 -0.3265
 1199SOL     OW 5603   1.771   9.761   8.621  0.6669 -0.7106  0.3636
 1199SOL    HW1 5604   1.678   9.779   8.614  0.7572  0.1025  0.9679
 1199SOL    HW2 5605   1.801   9.822   8.689  2.0981  0.8496 -1.5351
 1200SOL     OW 5606   4.699   4.416   4.439  0.2485  0.6536  0.3228
 1200SOL    HW1 5607   4.760   4.433   4.367 -1.2088  1.0922 -0.8660
 1200SOL    HW2 5608   4.638   4.352   4.404 -0.4954  0.8729  1.1745
 1201SOL     OW 5609   1.603   7.817   0.329 -0.0217 -0.6596  0.4722
 1201SOL    HW1 5610   1.685   7.801   0.376 -0.1044 -0.0496  0.8463
 1201SOL    HW2 5611   1.625   7.808   0.237  1.3308  2.7646  0.2899
 1202SOL     OW 5612   2.633   8.009   9.778  0.0485 -0.6147  0.4235
 1202SOL    HW1 5613   2.663   7.919   9.760 -1.1102 -0.4396 -3.0001
 1202SOL    HW2 5614   2.569   7.999   9.848  0.5232 -2.3675  0.6582
 1203SOL     OW 5615   7.637   6.514   1.135 -0.1153 -0.3982  0.0352
 1203SOL    HW1 5616   7.551   6.546   1.110  0.5583  0.5611 -1.1311
 1203SOL    HW2 5617   7.621   6.425   1.167 -1.7488  0.3632  1.4701
 1204SOL     OW 5618   4.431   6.606   3.041 -0.6125 -0.1168 -0.2011
 1204SOL    HW1 5619   4.431   6.602   2.945  0.8158 -1.8187 -0.1878
 1204SOL    HW2 5620   4.515   6.648   3.063  0.1877 -1.8918  0.2939
 1205SOL     OW 5621   7.731   4.694   4.784  0.2502 -0.5530  0.1075
 1205SOL    HW1 5622   7.695   4.738   4.861  0.9214 -0.8555  0.6152
 1205SOL    HW2 5623   7.672   4.620   4.769 -0.2520 -0.1151 -0.0655
 1206SOL     OW 5624   2.892  10.822   5.467 -0.3982 -0.1039 -0.4028
 1206SOL    HW1 5625   2.945  10.836   5.389  0.7689 -0.5496  0.2881
 1206SOL    HW2 5626   2.908  10.900   5.521 -3.1603  1.4544 -1.6180
 1207SOL     OW 5627   8.145   7.113   0.618  0.3938  0.6018 -0.3492
 1207SOL    HW1 5628   8.097   7.139   0.540 -0.6113  1.5227  0.5275
 1207SOL    HW2 5629   8.234   7.145   0.605  0.3178  0.4668 -1.2288
 1208SOL     OW 5630   8.414   8.923   6.231  0.0629 -0.0969  0.5898
 1208SOL    HW1 5631   8.457   8.847   6.192  0.8414 -0.1160  1.4553
 1208SOL    HW2 5632   8.430   8.994   6.169  0.3552 -0.3608  0.3564
 1209SOL     OW 5633   3.783   2.359   4.898 -0.0834 -0.5792 -0.2776
 1209SOL    HW1 5634   3.833   2.440   4.899 -1.5760  0.3740 -0.5355
 1209SOL    HW2 5635   3.830   2.302   4.837  1.8290 -0.5146  1.0189
 1210SOL     OW 5636   1.055   3.419   0.206  0.1183 -0.3078 -0.2589
 1210SOL    HW1 5637   1.010   3.394   0.125  0.8968  0.5697 -0.9897
 1210SOL    HW2 5638   1.016   3.503   0.230  0.6916 -0.0021 -0.3772
 1211SOL     OW 5639   6.293   9.837   6.147 -0.0465 -0.1782  0.3510
 1211SOL    HW1 5640   6.277   9.749   6.181 -3.5024  0.3491  0.4974
 1211SOL    HW2 5641   6.300   9.892   6.225  4.0855 -0.4205  0.3441
 1212SOL     OW 5642   5.213  10.068   8.493  0.0483  0.0866  0.6626
 1212SOL    HW1 5643   5.200  10.023   8.577 -0.4558 -0.0589  0.5087
 1212SOL    HW2 5644   5.131  10.115   8.478  0.2846  0.4360  0.4399
 1213SOL     OW 5645  10.498   3.381   8.853 -0.1318 -0.2156  0.1422
 1213SOL    HW1 5646  10.520   3.295   8.818 -0.8588  0.1662 -1.3128
 1213SOL    HW2 5647  10.489   3.437   8.776 -0.1314  1.0653  1.0358
 1214SOL     OW 5648   1.862   7.700   1.843  0.5056 -0.0040 -0.4724
 1214SOL    HW1 5649   1.936   7.754   1.816  1.1557  0.4079  1.9028
 1214SOL    HW2 5650   1.901   7.616   1.866  1.1801  1.4167  4.8890
 1215SOL     OW 5651  10.116   5.953   0.345 -0.2020  0.6685 -0.4849
 1215SOL    HW1 5652  10.163   6.012   0.404 -1.2650  1.6672 -0.5936
 1215SOL    HW2 5653  10.129   5.866   0.383  1.2374  0.9796 -0.2076
 1216SOL     OW 5654   4.985   3.031   7.300 -0.1585 -0.0992  0.3956
 1216SOL    HW1 5655   4.898   3.034   7.341  0.0292  0.3158  0.7685
 1216SOL    HW2 5656   5.044   3.064   7.368  0.2447 -0.0574  0.0230
 1217SOL     OW 5657   4.026   3.664   3.207  0.0792  0.2459  0.2701
 1217SOL    HW1 5658   3.989   3.724   3.271 -0.3391 -0.4414  0.6840
 1217SOL    HW2 5659   3.991   3.693   3.123  0.5303  1.0753  0.3674
 1218SOL     OW 5660   5.985   7.259   8.212 -0.0663 -0.3601 -0.3511
 1218SOL    HW1 5661   5.904   7.210   8.202 -1.2037  1.4987 -0.7000
 1218SOL    HW2 5662   5.974   7.337   8.157  1.8918  0.0401 -0.2796
 1219SOL     OW 5663   3.081   3.106   8.594 -0.0875 -0.1455  0.3683
 1219SOL    HW1 5664   3.004   3.162   8.593  0.1693  0.2288 -1.6762
 1219SOL    HW2 5665   3.100   3.093   8.687  0.0395  3.4361  0.9920
 1220SOL     OW 5666   5.418  10.082   9.104 -0.0741 -0.1272 -0.0278
 1220SOL    HW1 5667   5.363  10.060   9.179 -0.3647  0.7050  0.0071
 1220SOL    HW2 5668   5.357  10.111   9.037  0.0555 -2.0379 -1.0509
 1221SOL     OW 5669   3.885   6.012   5.864 -0.2877  0.4460  0.2087
 1221SOL    HW1 5670   3.946   5.946   5.833  0.6597  1.3925  0.0176
 1221SOL    HW2 5671   3.802   5.965   5.875  0.0733 -0.5137 -1.0336
 1222SOL     OW 5672   1.034   8.677   1.191  0.4611 -0.2211  0.3296
 1222SOL    HW1 5673   1.097   8.628   1.245  0.0129 -0.3588  0.7332
 1222SOL    HW2 5674   0.968   8.612   1.167 -0.1954  0.2102  0.9558
 1223SOL     OW 5675   3.884   2.711   5.870 -0.2802  0.4730  0.0362
 1223SOL    HW1 5676   3.964   2.760   5.890 -0.1519  0.5596 -0.6974
 1223SOL    HW2 5677   3.828   2.726   5.947 -0.2797  1.8421 -0.2025
 1224SOL     OW 5678   7.559  10.712   1.048 -0.0545 -0.1262  0.4292
 1224SOL    HW1 5679   7.647  10.683   1.024  0.3586  2.7265 -2.0544
 1224SOL    HW2 5680   7.572  10.793   1.097 -1.3035  0.1662  0.3305
 1225SOL     OW 5681  10.023   3.938   8.061  0.3886  0.0027  0.7705
 1225SOL    HW1 5682  10.047   4.023   8.100 -2.9955  1.4465  0.1131
 1225SOL    HW2 5683  10.008   3.881   8.137 -0.2067  0.9558  1.4055
 1226SOL     OW 5684   2.059   0.001   4.741 -0.0518  0.1510  0.2388
 1226SOL    HW1 5685   2.067   0.010   4.646 -1.7932 -2.6175 -0.3101
 1226SOL    HW2 5686   1.993   0.066   4.766 -0.3041  0.2339 -0.6124
 1227SOL     OW 5687   3.521   5.514   7.083 -0.1877  0.2775 -0.3396
 1227SOL    HW1 5688   3.511   5.595   7.134  2.1230 -0.5960  1.7135
 1227SOL    HW2 5689   3.444   5.512   7.026 -0.7143  3.5081  0.0697
 1228SOL     OW 5690  10.221   6.308  10.456  0.2238 -0.1460  0.6739
 1228SOL    HW1 5691  10.201   6.386  10.404  0.0871 -1.3720 -1.2126
 1228SOL    HW2 5692  10.316   6.300  10.453  0.1533 -0.7774 -0.2950
 1229SOL     OW 5693   8.897   7.886   7.971  0.7129 -0.6460 -0.1623
 1229SOL    HW1 5694   8.817   7.847   7.935  1.3324  0.6372 -3.3525
 1229SOL    HW2 5695   8.955   7.811   7.987  0.1535 -1.3886 -1.4037
 1230SOL     OW 5696   7.764   9.369   6.600 -0.6107  0.5646  0.0589
 1230SOL    HW1 5697   7.855   9.338   6.604 -0.5527  0.3266 -2.1127
 1230SOL    HW2 5698   7.771   9.464   6.598 -0.3566  0.5382 -0.6317
 1231SOL     OW 5699   3.562   6.473   6.280  0.2908 -0.1049  0.4830
 1231SOL    HW1 5700   3.553   6.431   6.194 -1.3556 -0.1067  0.6409
 1231SOL    HW2 5701   3.638   6.430   6.320  0.1852 -1.1225 -0.3817
 1232SOL     OW 5702   0.465   0.050   4.881  0.3595  0.8346  0.6718
 1232SOL    HW1 5703   0.494   0.078   4.968  1.4048  1.8103  0.0419
 1232SOL    HW2 5704   0.486  -0.043   4.877  0.7554  0.8946  1.2877
 1233SOL     OW 5705   5.559   2.090   3.622 -0.0271 -0.3336  0.1348
 1233SOL    HW1 5706   5.610   2.168   3.645 -0.1962 -0.2737  0.3112
 1233SOL    HW2 5707   5.487   2.090   3.685 -0.1801 -0.4810 -0.0411
 1234SOL     OW 5708   2.347   8.057   2.791 -0.2262  0.1829 -0.3490
 1234SOL    HW1 5709   2.437   8.048   2.821  0.6758 -0.9816 -3.0927
 1234SOL    HW2 5710   2.307   7.972   2.809 -1.2079  1.0242  1.8473
 1235SOL     OW 5711   5.465   6.662  10.804  0.2751  0.6284 -0.0524
 1235SOL    HW1 5712   5.548   6.638  10.762 -0.0392 -0.6557  0.0187
 1235SOL    HW2 5713   5.485   6.664  10.897  0.3432  0.7758 -0.0711
 1236SOL     OW 5714   4.913   7.992   4.203  0.0402 -0.3098  0.1498
 1236SOL    HW1 5715   4.916   8.087   4.218 -2.6988  0.3273 -2.3785
 1236SOL    HW2 5716   4.857   7.959   4.272  0.3991  0.0256  0.6086
 1237SOL     OW 5717   4.924   7.941   5.098  0.2685 -0.3053 -0.2324
 1237SOL    HW1 5718   4.864   7.996   5.148  1.7671 -0.2421  1.6001
 1237SOL    HW2 5719   4.993   7.917   5.160  1.9246 -0.7427 -2.1234
 1238SOL     OW 5720   2.893   1.843   6.705 -1.0144  0.5505  0.4731
 1238SOL    HW1 5721   2.924   1.809   6.789  1.1415 -0.0279 -0.4837
 1238SOL    HW2 5722   2.860   1.931   6.726 -0.7552  0.3159  1.9686
 1239SOL     OW 5723   9.809   6.260   3.073 -0.7950  0.2982 -0.1376
 1239SOL    HW1 5724   9.774   6.230   3.157 -1.0278  1.7070  0.2979
 1239SOL    HW2 5725   9.896   6.221   3.068 -0.3424  1.0454  1.2882
 1240SOL     OW 5726   8.856   3.035   4.612  0.2796 -0.6642  0.2416
 1240SOL    HW1 5727   8.826   3.067   4.527  1.5111  1.5873  0.5577
 1240SOL    HW2 5728   8.856   2.940   4.604  0.4249 -0.5211 -2.3148
 1241SOL     OW 5729   7.566   1.881   4.143 -0.2855  0.0885 -0.1460
 1241SOL    HW1 5730   7.609   1.949   4.091 -0.5837  2.6090  2.6295
 1241SOL    HW2 5731   7.503   1.929   4.197 -0.5278 -2.3914  1.9563
 1242SOL     OW 5732   9.116   7.026  10.782 -0.2615  0.4194  0.2381
 1242SOL    HW1 5733   9.128   7.011  10.689 -1.6086  0.2723  0.0655
 1242SOL    HW2 5734   9.034   6.982  10.803 -0.9341  1.9831  1.1022
 1243SOL     OW 5735   0.784   0.457   4.706  0.4407 -0.6076  0.5705
 1243SOL    HW1 5736   0.803   0.405   4.785 -1.6646 -1.2273  0.7280
 1243SOL    HW2 5737   0.722   0.524   4.735  0.6865  0.0202 -0.2997
 1244SOL     OW 5738   7.615   4.881  11.016  0.5167  0.1465 -0.4913
 1244SOL    HW1 5739   7.705   4.913  11.022 -0.2668  2.3863  0.2122
 1244SOL    HW2 5740   7.563   4.945  11.063 -1.5631 -0.6810 -1.5176
 1245SOL     OW 5741   4.350   7.128   8.061 -0.2069 -0.1868  0.2209
 1245SOL    HW1 5742   4.284   7.065   8.032  0.1229  0.6585 -2.6172
 1245SOL    HW2 5743   4.397   7.152   7.981  0.3163  2.9434  1.3453
 1246SOL     OW 5744   2.157   2.274   7.095  0.0399 -0.0676 -0.0504
 1246SOL    HW1 5745   2.120   2.328   7.165  1.2655  0.6266  0.0976
 1246SOL    HW2 5746   2.157   2.331   7.018 -0.1429 -0.4035 -0.3008
 1247SOL     OW 5747   0.664   2.069   6.371 -0.0520 -0.0625  0.9800
 1247SOL    HW1 5748   0.686   2.110   6.455 -1.1619  1.5244  0.5450
 1247SOL    HW2 5749   0.604   1.998   6.394 -0.1568  0.2031  1.5487
 1248SOL     OW 5750   2.795   2.550   8.280  0.1312 -0.2380  0.0219
 1248SOL    HW1 5751   2.868   2.611   8.271  0.4097 -0.5670  0.0162
 1248SOL    HW2 5752   2.716   2.605   8.277  0.3936  0.1574  0.4067
 1249SOL     OW 5753   0.856   2.446   2.659  0.6096 -0.5126 -0.6066
 1249SOL    HW1 5754   0.893   2.534   2.666  1.6690 -0.7052 -2.7117
 1249SOL    HW2 5755   0.931   2.388   2.672 -0.0394 -1.1160  0.5494
 1250SOL     OW 5756   6.504   3.677   7.558 -0.0102  0.1910 -0.1138
 1250SOL    HW1 5757   6.483   3.605   7.499  2.3253  0.3282 -1.2315
 1250SOL    HW2 5758   6.544   3.636   7.633 -0.0164  0.2356 -0.0861
 1251SOL     OW 5759   1.548   4.386   7.243  0.1757 -0.0522 -0.1172
 1251SOL    HW1 5760   1.461   4.399   7.207 -0.6902 -3.2954  0.4877
 1251SOL    HW2 5761   1.603   4.364   7.167 -0.3725 -1.3988 -0.1512
 1252SOL     OW 5762   0.803   5.733   5.731  0.0054 -0.2056 -0.0046
 1252SOL    HW1 5763   0.803   5.759   5.639 -1.9290 -0.9738 -0.2739
 1252SOL    HW2 5764   0.876   5.781   5.770  1.0853 -0.1395 -2.0025
 1253SOL     OW 5765   2.933   0.624   9.665 -0.4362  0.5514  0.1795
 1253SOL    HW1 5766   2.866   0.689   9.643 -1.0764 -0.2068 -0.1486
 1253SOL    HW2 5767   3.004   0.641   9.603 -0.2803  1.4030  0.5727
 1254SOL     OW 5768   1.697   4.229   7.701  0.2526  0.4126 -0.1560
 1254SOL    HW1 5769   1.701   4.195   7.612 -2.2435  3.2242 -1.5465
 1254SOL    HW2 5770   1.647   4.164   7.750  0.4371 -0.5155 -1.1835
 1255SOL     OW 5771   4.252   2.160   0.382  0.3441  0.3690 -0.5225
 1255SOL    HW1 5772   4.206   2.243   0.366  1.2413  1.0677  0.4249
 1255SOL    HW2 5773   4.208   2.122   0.458  1.3511  1.0837  0.4445
 1256SOL     OW 5774   8.486   4.527   6.387 -0.0678 -0.0373  0.1099
 1256SOL    HW1 5775   8.415   4.463   6.394 -0.0786 -0.3144 -1.9696
 1256SOL    HW2 5776   8.565   4.477   6.406 -0.1103 -0.6468 -1.1581
 1257SOL     OW 5777   1.006  10.796   6.126 -0.2308  0.2989 -0.1378
 1257SOL    HW1 5778   1.087  10.799   6.075  0.3357  0.1809  0.7354
 1257SOL    HW2 5779   1.030  10.751   6.207 -0.9286  1.1287  0.5546
 1258SOL     OW 5780   7.210   6.748   8.256  0.5782 -0.0500  0.3365
 1258SOL    HW1 5781   7.156   6.711   8.186 -0.3023 -0.3659  1.1607
 1258SOL    HW2 5782   7.166   6.721   8.336  0.2974  2.2144  0.9998
 1259SOL     OW 5783   9.938   9.697   2.423  0.1205  0.4123 -0.2155
 1259SOL    HW1 5784  10.018   9.696   2.475  0.0624  0.1503 -0.1299
 1259SOL    HW2 5785   9.870   9.726   2.484 -0.2192 -1.2925  0.2608
 1260SOL     OW 5786  10.690   2.321   5.382  0.0855  0.0336  1.0227
 1260SOL    HW1 5787  10.673   2.228   5.365  1.7913 -0.2329  0.5758
 1260SOL    HW2 5788  10.661   2.335   5.472 -1.5705 -0.5439  0.6144
 1261SOL     OW 5789   3.635   9.754   5.935  0.1367  0.2836 -0.5877
 1261SOL    HW1 5790   3.606   9.829   5.884  0.1330  0.2296 -0.6645
 1261SOL    HW2 5791   3.719   9.729   5.897  0.5724  0.8100  0.0127
 1262SOL     OW 5792   4.757   9.944   2.450  0.3621  0.3744  0.3030
 1262SOL    HW1 5793   4.750  10.040   2.450  0.7090  0.5039  3.4161
 1262SOL    HW2 5794   4.748   9.920   2.542 -1.9340 -2.8118 -0.5803
 1263SOL     OW 5795   1.799   0.688   0.838 -0.1649  0.0264  0.0884
 1263SOL    HW1 5796   1.752   0.768   0.816  1.1412  1.0092  0.8181
 1263SOL    HW2 5797   1.875   0.687   0.781 -0.5750 -1.1337 -0.4885
 1264SOL     OW 5798   3.394   8.872   1.730  0.6247  0.2848 -0.1087
 1264SOL    HW1 5799   3.453   8.946   1.743 -0.6862  0.9770  3.1254
 1264SOL    HW2 5800   3.308   8.906   1.756 -0.6416 -1.5258 -1.6638
 1265SOL     OW 5801   0.576   2.029   4.180 -0.0114 -0.5029  0.1025
 1265SOL    HW1 5802   0.662   2.036   4.140  0.6740  2.6202  1.7280
 1265SOL    HW2 5803   0.594   2.005   4.271 -0.8788 -0.2902  0.3424
 1266SOL     OW 5804   4.348   9.546   8.731 -0.1683 -0.3868  0.2462
 1266SOL    HW1 5805   4.277   9.484   8.749 -0.5344 -0.1545 -0.3629
 1266SOL    HW2 5806   4.334   9.572   8.640  0.4134  0.0381  0.2743
 1267SOL     OW 5807   0.860  10.364   8.995 -0.3298 -0.1359  0.2218
 1267SOL    HW1 5808   0.938  10.416   9.012  0.7575 -1.5295 -0.2460
 1267SOL    HW2 5809   0.853  10.306   9.071 -1.5387  0.6772  0.7523
 1268SOL     OW 5810   5.107   9.521  10.927  0.3471 -0.3706  0.5240
 1268SOL    HW1 5811   5.103   9.465  11.004 -2.2936 -0.3246  0.5055
 1268SOL    HW2 5812   5.134   9.607  10.962  0.9937 -0.7875  1.0796
 1269SOL     OW 5813   9.823   1.650   6.606  0.1444 -0.8398  0.3232
 1269SOL    HW1 5814   9.738   1.634   6.648 -0.5222 -0.4681 -0.8355
 1269SOL    HW2 5815   9.879   1.679   6.678 -0.1510 -2.8531  1.4730
 1270SOL     OW 5816   4.134   9.233   0.117 -0.2684 -0.1117  0.7735
 1270SOL    HW1 5817   4.141   9.327   0.132  0.2750 -0.2131  1.1760
 1270SOL    HW2 5818   4.040   9.216   0.111 -0.3593  0.5121  0.3279
 1271SOL     OW 5819   0.350   9.847   3.518 -0.2158  0.0414  0.0986
 1271SOL    HW1 5820   0.351   9.943   3.519  3.0735  0.1157 -0.2799
 1271SOL    HW2 5821   0.310   9.824   3.434  0.2589  1.1317 -0.4479
 1272SOL     OW 5822   6.842   2.902   2.960  0.0465 -0.4810 -0.1049
 1272SOL    HW1 5823   6.796   2.971   3.009 -0.0639  0.3018 -1.2866
 1272SOL    HW2 5824   6.809   2.820   2.998 -0.6588  0.0999  0.5679
 1273SOL     OW 5825   9.026   8.426   7.150  0.8097 -0.0195 -0.1062
 1273SOL    HW1 5826   8.935   8.449   7.167  1.2752 -0.1597  3.1537
 1273SOL    HW2 5827   9.057   8.494   7.091 -0.9732  0.9466  0.0099
 1274SOL     OW 5828   6.213   7.253   5.747  0.3996 -0.1923  0.4771
 1274SOL    HW1 5829   6.164   7.241   5.666  0.7699  0.1171  0.2088
 1274SOL    HW2 5830   6.234   7.164   5.776  1.3036 -0.2675 -0.3936
 1275SOL     OW 5831   3.646   5.024   5.463  0.2231 -0.0078  0.0198
 1275SOL    HW1 5832   3.653   4.931   5.482 -1.3562 -0.1625  0.0220
 1275SOL    HW2 5833   3.610   5.027   5.374  2.1184  0.6438 -0.7836
 1276SOL     OW 5834   4.933  10.402   4.627 -0.2721  0.2179  0.2395
 1276SOL    HW1 5835   4.843  10.370   4.620 -0.6117  1.0208  0.7742
 1276SOL    HW2 5836   4.965  10.400   4.537 -0.1436 -1.9075  0.2859
 1277SOL     OW 5837   4.101   3.163   7.295 -0.2167  0.8803  0.0270
 1277SOL    HW1 5838   4.053   3.233   7.252 -0.0945  0.9161 -0.0518
 1277SOL    HW2 5839   4.094   3.088   7.236 -2.4577  0.0559  1.2454
 1278SOL     OW 5840  10.443   4.840   0.750  0.2426 -0.0542 -0.0968
 1278SOL    HW1 5841  10.533   4.856   0.780  0.2802  1.4932 -0.9576
 1278SOL    HW2 5842  10.423   4.752   0.780  0.8627  0.7633  3.0196
 1279SOL     OW 5843   4.668   6.783   6.063 -0.0286 -0.2693  0.0349
 1279SOL    HW1 5844   4.661   6.807   6.155 -2.0841 -0.3208 -0.0535
 1279SOL    HW2 5845   4.625   6.854   6.016 -0.3290 -0.9537 -0.7546
 1280SOL     OW 5846   0.675   1.331   1.146  0.1922  0.0341 -0.2251
 1280SOL    HW1 5847   0.721   1.292   1.220 -1.6642 -0.1230  0.9197
 1280SOL    HW2 5848   0.641   1.257   1.097  0.8225  0.1551 -0.8614
 1281SOL     OW 5849   4.553   5.078   1.850 -0.3401  0.1042 -0.3831
 1281SOL    HW1 5850   4.551   5.083   1.945 -0.7178  0.9599 -0.4246
 1281SOL    HW2 5851   4.642   5.104   1.826 -0.5650  0.9952 -0.3029
 1282SOL     OW 5852   0.250   0.017   7.614  0.2307 -0.1893 -0.3118
 1282SOL    HW1 5853   0.280   0.013   7.523 -0.5492 -0.1505 -0.5788
 1282SOL    HW2 5854   0.170   0.070   7.611 -0.9175 -1.8166  0.0851
 1283SOL     OW 5855   5.912   9.189   0.925  0.2043  0.5499 -0.7933
 1283SOL    HW1 5856   5.889   9.261   0.983 -0.9461  1.2789 -2.0893
 1283SOL    HW2 5857   5.827   9.151   0.900  0.5016  1.2806 -3.2063
 1284SOL     OW 5858   0.901   8.101   0.238 -0.7653  0.2157 -0.3462
 1284SOL    HW1 5859   0.819   8.138   0.206 -0.2651 -0.1243 -2.1066
 1284SOL    HW2 5860   0.954   8.088   0.160  0.6576 -0.3580  0.6693
 1285SOL     OW 5861   9.564   8.234   7.985  0.5012 -0.4038 -0.2375
 1285SOL    HW1 5862   9.498   8.254   8.050 -0.7929  0.2839 -1.6945
 1285SOL    HW2 5863   9.593   8.319   7.953  1.2302 -0.7235 -0.4588
 1286SOL     OW 5864   7.080   0.177   0.644 -0.3999 -0.4031 -0.3501
 1286SOL    HW1 5865   7.096   0.180   0.738 -0.3322 -0.0541 -0.3745
 1286SOL    HW2 5866   7.026   0.099   0.632 -0.2996 -0.5227 -0.0392
 1287SOL     OW 5867   7.765   9.193   3.591  0.0687  0.7008  0.5972
 1287SOL    HW1 5868   7.804   9.203   3.678  1.4280  1.6197 -0.0707
 1287SOL    HW2 5869   7.795   9.270   3.543 -2.4653  1.3957 -0.0587
 1288SOL     OW 5870   7.887   7.516   9.873  0.0894  0.2919  0.4927
 1288SOL    HW1 5871   7.797   7.490   9.890 -0.5967  1.6017 -0.9366
 1288SOL    HW2 5872   7.892   7.526   9.778  1.4157  1.3495  0.6440
 1289SOL     OW 5873   1.293   3.790   6.239  0.6085 -0.2894  0.0080
 1289SOL    HW1 5874   1.321   3.699   6.247  0.1784 -0.3782  0.6156
 1289SOL    HW2 5875   1.372   3.841   6.253  1.2227 -0.5718 -2.0807
 1290SOL     OW 5876   6.945   5.088   8.520 -0.0137 -0.7201 -0.2697
 1290SOL    HW1 5877   7.013   5.154   8.501  0.3994 -1.4959 -1.6433
 1290SOL    HW2 5878   6.911   5.113   8.606  2.9127 -1.0520  1.1063
 1291SOL     OW 5879   8.059   9.205   3.380  0.2828  0.1651  0.0158
 1291SOL    HW1 5880   8.021   9.289   3.353  1.2846  0.2542 -1.2103
 1291SOL    HW2 5881   8.153   9.219   3.375  0.4916 -1.4573 -1.6968
 1292SOL     OW 5882   1.377   3.680   2.498  0.1003  0.2679 -0.0054
 1292SOL    HW1 5883   1.471   3.660   2.498  0.5199  1.7510 -2.4199
 1292SOL    HW2 5884   1.336   3.604   2.457  0.3942  0.0738  0.0596
 1293SOL     OW 5885   4.037   7.011   0.999  0.0576 -0.4629 -0.0323
 1293SOL    HW1 5886   4.011   7.051   1.081 -1.7229 -1.1055 -0.2391
 1293SOL    HW2 5887   4.130   7.033   0.990 -0.4364  2.2389  0.6002
 1294SOL     OW 5888   9.635   0.568  10.871 -0.3372  0.4073  0.1158
 1294SOL    HW1 5889   9.624   0.553  10.965 -0.2439 -1.3832 -0.1234
 1294SOL    HW2 5890   9.557   0.530  10.832  0.2028 -0.0089 -0.5955
 1295SOL     OW 5891   3.481   8.653   1.872 -0.0677 -0.2470  0.2789
 1295SOL    HW1 5892   3.395   8.622   1.902 -1.5815  3.9201  0.8495
 1295SOL    HW2 5893   3.461   8.717   1.804  2.3973  2.2656  1.7249
 1296SOL     OW 5894   4.066  10.272   9.087  0.0367  0.0135  0.1217
 1296SOL    HW1 5895   4.082  10.178   9.094  2.9563  0.5338  2.5192
 1296SOL    HW2 5896   4.005  10.280   9.014  0.1857 -3.6673 -0.6284
 1297SOL     OW 5897   7.242   5.373   3.327 -0.2899  0.0716 -0.2412
 1297SOL    HW1 5898   7.311   5.332   3.274  0.2992  1.4381 -0.5946
 1297SOL    HW2 5899   7.287   5.445   3.372 -1.4138  0.7625 -0.1924
 1298SOL     OW 5900   0.306   2.546   0.786 -0.1295 -0.2253 -0.2107
 1298SOL    HW1 5901   0.295   2.456   0.757 -2.1782  0.1623 -0.8167
 1298SOL    HW2 5902   0.321   2.540   0.880  0.6962 -1.2242 -0.3940
 1299SOL     OW 5903   1.699   5.907   4.664 -0.3013  0.1184 -0.6207
 1299SOL    HW1 5904   1.683   5.857   4.743 -0.9707  0.8059 -0.3087
 1299SOL    HW2 5905   1.756   5.851   4.611  1.4409  0.2665  0.9854
 1300SOL     OW 5906   7.170   6.326   9.971 -0.2181  0.2092 -0.6232
 1300SOL    HW1 5907   7.219   6.409   9.973 -0.0001  0.1614  2.7854
 1300SOL    HW2 5908   7.101   6.339  10.037 -0.1004 -2.3330  0.0833
 1301SOL     OW 5909   4.805   5.148   9.766 -1.2380 -0.3593 -0.4284
 1301SOL    HW1 5910   4.808   5.208   9.840 -1.0704  0.9393 -1.4464
 1301SOL    HW2 5911   4.893   5.110   9.762 -1.4195 -0.8787  0.3734
 1302SOL     OW 5912  10.841   1.359   6.638 -0.1459  0.0236 -0.0914
 1302SOL    HW1 5913  10.888   1.421   6.693  0.2774  1.2377 -1.7211
 1302SOL    HW2 5914  10.860   1.388   6.548 -3.8227  0.5118 -0.8986
 1303SOL     OW 5915   0.002   8.973   0.209 -0.5344  0.0999 -0.0531
 1303SOL    HW1 5916  -0.005   8.878   0.214  0.0212  0.0244 -0.5240
 1303SOL    HW2 5917   0.035   9.000   0.295  0.2841 -0.2396 -0.2512
 1304SOL     OW 5918   6.154   0.326   0.161  0.1595 -0.3093 -0.2257
 1304SOL    HW1 5919   6.124   0.390   0.097 -0.4047 -0.1260  0.2127
 1304SOL    HW2 5920   6.228   0.368   0.204 -0.6519  0.3630  0.5569
 1305SOL     OW 5921   9.287   6.765   1.310  0.1570 -0.0785 -0.2616
 1305SOL    HW1 5922   9.311   6.837   1.252  1.3446 -0.6076 -0.4586
 1305SOL    HW2 5923   9.369   6.740   1.352 -0.6239  0.1493  1.5144
 1306SOL     OW 5924   3.154   2.831   4.074  0.0388 -0.5117  0.2653
 1306SOL    HW1 5925   3.064   2.801   4.069  0.2526 -1.3074  1.0151
 1306SOL    HW2 5926   3.148   2.926   4.078 -0.8013 -0.5916  1.0769
 1307SOL     OW 5927   0.277   8.982   6.219  0.3061  1.2531  0.6436
 1307SOL    HW1 5928   0.304   8.890   6.220  1.0013  1.3502 -2.1795
 1307SOL    HW2 5929   0.233   8.995   6.303  1.8588 -1.1324  1.9101
 1308SOL     OW 5930   2.799  10.953   6.038  0.2314  0.1836  0.7846
 1308SOL    HW1 5931   2.853  10.877   6.059 -1.1554 -1.1233 -0.2534
 1308SOL    HW2 5932   2.750  10.970   6.119 -0.5996 -1.0282  0.5652
 1309SOL     OW 5933   6.568   1.131   6.033 -0.6734 -0.3479  0.1774
 1309SOL    HW1 5934   6.518   1.159   6.110 -0.3781 -0.3616  0.3788
 1309SOL    HW2 5935   6.519   1.056   5.998 -1.5022  0.4493 -0.4058
 1310SOL     OW 5936   6.370   1.038   1.190  0.2175  0.1048  0.0527
 1310SOL    HW1 5937   6.350   1.011   1.280  1.1878  0.2545  0.3285
 1310SOL    HW2 5938   6.371   1.134   1.194  1.1728  0.1069  0.1125
 1311SOL     OW 5939   9.813  10.266   5.058 -0.0300 -0.0212 -0.3304
 1311SOL    HW1 5940   9.747  10.252   5.126 -1.0251  1.0176 -1.0532
 1311SOL    HW2 5941   9.890  10.297   5.105 -0.2415 -0.6682  0.4636
 1312SOL     OW 5942   5.419   4.215   1.249  0.3248  0.0672 -0.0428
 1312SOL    HW1 5943   5.444   4.123   1.251  0.1080 -0.0031  2.1965
 1312SOL    HW2 5944   5.470   4.255   1.319 -0.0650  1.5326 -0.5547
 1313SOL     OW 5945   6.955  10.616   5.200  0.6059 -0.1209  0.6891
 1313SOL    HW1 5946   6.937  10.611   5.106 -0.0543 -1.9837  0.8684
 1313SOL    HW2 5947   6.918  10.699   5.227 -1.6307 -0.7375 -0.2574
 1314SOL     OW 5948   6.052   9.347   2.432 -0.5773 -0.2711 -0.4245
 1314SOL    HW1 5949   6.079   9.337   2.341  0.7631  1.2663 -0.2490
 1314SOL    HW2 5950   6.002   9.428   2.433  2.0319  1.4655  0.6400
 1315SOL     OW 5951   5.599   0.720   9.800 -0.1369 -0.0037  0.1324
 1315SOL    HW1 5952   5.694   0.712   9.804 -0.1338 -1.7928 -1.8045
 1315SOL    HW2 5953   5.583   0.811   9.776  0.9747  0.7391  2.0449
 1316SOL     OW 5954   8.865   4.038   6.226  0.4806  0.1811  0.2553
 1316SOL    HW1 5955   8.859   3.943   6.239 -0.9318 -0.1901 -2.4464
 1316SOL    HW2 5956   8.917   4.069   6.300  0.4480 -2.6035  1.5621
 1317SOL     OW 5957   3.555  10.582   7.155  0.1437 -0.2312  0.6454
 1317SOL    HW1 5958   3.593  10.660   7.114  1.3579 -1.4264 -0.6339
 1317SOL    HW2 5959   3.479  10.561   7.101 -0.1797  0.0732  0.9862
 1318SOL     OW 5960   1.992   1.890   0.541  0.2382 -0.2122  0.2737
 1318SOL    HW1 5961   1.962   1.800   0.523  0.7219 -0.2815 -0.2149
 1318SOL    HW2 5962   2.063   1.879   0.604 -1.5933  0.0453  2.4874
 1319SOL     OW 5963   6.896   6.418  10.779 -0.1508 -0.1802 -0.1994
 1319SOL    HW1 5964   6.847   6.350  10.824 -0.0719 -0.0320  0.1126
 1319SOL    HW2 5965   6.987   6.402  10.803 -0.0759 -0.2812 -0.5466
 1320SOL     OW 5966   2.318   4.781   8.247 -0.1173 -0.1029  0.5071
 1320SOL    HW1 5967   2.399   4.829   8.260 -0.5391  0.4247  1.2557
 1320SOL    HW2 5968   2.268   4.795   8.328 -0.5920 -1.1275  0.4151
 1321SOL     OW 5969   0.601   5.384   5.030 -0.7312 -0.4535  0.9137
 1321SOL    HW1 5970   0.565   5.348   4.949 -2.3908 -3.1837  2.6568
 1321SOL    HW2 5971   0.524   5.399   5.085  0.4308 -1.7136  3.0296
 1322SOL     OW 5972   2.918   3.329   2.193  0.6466 -0.3157 -0.0714
 1322SOL    HW1 5973   2.890   3.238   2.197  0.3939 -0.1907  1.5438
 1322SOL    HW2 5974   2.865   3.367   2.122  1.6114 -1.6696 -1.5932
 1323SOL     OW 5975   6.026   7.426   2.189  0.5697  0.4091 -0.2360
 1323SOL    HW1 5976   6.074   7.506   2.209 -0.5786  1.0883 -0.1103
 1323SOL    HW2 5977   6.091   7.356   2.197  1.1953  1.1262  1.4838
 1324SOL     OW 5978   8.043   3.121   8.945  0.0706  0.2039 -0.0591
 1324SOL    HW1 5979   8.122   3.159   8.985  2.3287 -3.5239 -0.4833
 1324SOL    HW2 5980   7.971   3.169   8.984  2.4491  2.4946  1.9339
 1325SOL     OW 5981   9.943   1.655   1.723 -0.2510 -0.3768 -0.2644
 1325SOL    HW1 5982   9.917   1.723   1.785  2.2998  0.4188  0.0688
 1325SOL    HW2 5983   9.997   1.701   1.658 -0.7280 -1.6453 -1.6314
 1326SOL     OW 5984   5.870   1.046   2.883 -0.6114 -0.2481 -0.1713
 1326SOL    HW1 5985   5.965   1.039   2.898 -0.7715  1.4806  2.2111
 1326SOL    HW2 5986   5.834   0.967   2.924 -0.2877 -0.3901 -0.1540
 1327SOL     OW 5987   9.331   8.974  10.461  0.1398 -0.1990  0.6477
 1327SOL    HW1 5988   9.412   9.016  10.489 -1.1877  3.0345  0.1533
 1327SOL    HW2 5989   9.289   8.946  10.542  0.8959 -0.1499  1.0597
 1328SOL     OW 5990   9.436   5.724   2.677 -0.7466 -0.2334 -0.1740
 1328SOL    HW1 5991   9.435   5.629   2.684  2.4258 -0.4924 -1.6535
 1328SOL    HW2 5992   9.436   5.742   2.583 -1.5098  1.2833  0.0731
 1329SOL     OW 5993   3.432   4.890   4.475  0.1465 -0.4380 -0.6447
 1329SOL    HW1 5994   3.477   4.970   4.448  0.1412  0.2801  1.3445
 1329SOL    HW2 5995   3.496   4.820   4.460  1.4192  0.3789  0.7398
 1330SOL     OW 5996   1.687   0.305  10.701 -0.4406 -0.4074  0.3898
 1330SOL    HW1 5997   1.660   0.358  10.775 -1.2854  1.0892 -0.9342
 1330SOL    HW2 5998   1.621   0.321  10.634  2.1059  1.1428 -1.9670
 1331SOL     OW 5999   9.631   1.892   9.545  0.4746  0.2519 -0.1719
 1331SOL    HW1 6000   9.561   1.957   9.555  0.1073 -0.0750 -0.5871
 1331SOL    HW2 6001   9.604   1.819   9.600 -0.5378 -0.7079 -1.8552
 1332SOL     OW 6002   3.444   4.838   0.394  0.0879 -0.2522 -0.3392
 1332SOL    HW1 6003   3.496   4.772   0.439 -1.1347 -0.3702  0.9574
 1332SOL    HW2 6004   3.356   4.801   0.391 -0.9736  1.8427  1.7316
 1333SOL     OW 6005   8.094   2.835   2.008  0.4005  0.3217  0.1993
 1333SOL    HW1 6006   8.128   2.923   1.988  1.5801  0.1222  1.1877
 1333SOL    HW2 6007   8.171   2.785   2.035 -0.4703 -0.5961  1.0645
 1334SOL     OW 6008   8.751   8.618   0.146 -0.3704 -0.2475  0.1022
 1334SOL    HW1 6009   8.662   8.589   0.164  0.1313 -1.3668  0.9089
 1334SOL    HW2 6010   8.754   8.628   0.051 -1.3373 -0.2695  0.0619
 1335SOL     OW 6011   4.536   3.912   8.576 -0.3315 -0.2143 -0.2503
 1335SOL    HW1 6012   4.587   3.870   8.645  0.1478  1.4709  0.4927
 1335SOL    HW2 6013   4.456   3.860   8.569  0.5976 -1.7200 -0.0012
 1336SOL     OW 6014   6.868   9.250   7.936  0.0613  0.1718 -0.7716
 1336SOL    HW1 6015   6.915   9.273   8.016  0.5562  1.0944 -1.3021
 1336SOL    HW2 6016   6.877   9.155   7.929 -0.8310 -0.0435  0.7658
 1337SOL     OW 6017  10.294   8.072   0.301  0.2941 -0.8704 -0.1190
 1337SOL    HW1 6018  10.245   7.991   0.292  0.2838 -1.1411  2.0177
 1337SOL    HW2 6019  10.230   8.135   0.334  0.7791 -0.5391  0.1946
 1338SOL     OW 6020   6.427   2.009   0.801  0.5254 -0.6528 -0.4009
 1338SOL    HW1 6021   6.508   2.055   0.780  1.1227 -1.8982 -0.8938
 1338SOL    HW2 6022   6.438   1.982   0.892 -0.3345  1.1630  0.2946
 1339SOL     OW 6023   7.659   0.133   7.114 -0.1012 -0.1047  0.0632
 1339SOL    HW1 6024   7.752   0.110   7.116 -0.0852 -0.0994  2.4294
 1339SOL    HW2 6025   7.614   0.050   7.097  0.2954 -0.0281 -1.5827
 1340SOL     OW 6026   8.023   5.760   9.887 -0.3784 -0.3186 -0.5561
 1340SOL    HW1 6027   8.055   5.850   9.880 -0.4750 -0.3034 -0.8380
 1340SOL    HW2 6028   7.940   5.767   9.933 -0.4684 -0.2444 -0.7302
 1341SOL     OW 6029   6.041   8.777   2.101  0.3790  0.8420  0.2544
 1341SOL    HW1 6030   5.992   8.762   2.021  1.2882  1.1041 -0.3677
 1341SOL    HW2 6031   6.132   8.789   2.072  0.9925 -0.6407  1.4548
 1342SOL     OW 6032   5.496   3.687   9.789 -0.2148  0.0021  0.0889
 1342SOL    HW1 6033   5.547   3.606   9.788 -0.0303  0.0862  1.0304
 1342SOL    HW2 6034   5.405   3.659   9.782 -0.0454 -0.1132 -2.2676
 1343SOL     OW 6035   5.946  10.752   8.702  0.5205 -0.0347 -0.0614
 1343SOL    HW1 6036   5.881  10.682   8.700  0.2852  0.1976 -0.8649
 1343SOL    HW2 6037   5.992  10.745   8.618 -1.0914  2.2321 -1.2160
 1344SOL     OW 6038   7.732   4.213   8.324 -0.1178 -0.0547  0.4628
 1344SOL    HW1 6039   7.640   4.227   8.303  0.3202  1.3896 -0.6099
 1344SOL    HW2 6040   7.757   4.289   8.376  1.2044  1.1107 -1.7638
 1345SOL     OW 6041   2.400   6.874   2.258  0.0360 -0.2931  0.5970
 1345SOL    HW1 6042   2.379   6.963   2.230  2.1962  0.1026  0.0513
 1345SOL    HW2 6043   2.349   6.818   2.200 -1.0234  0.5717  0.6619
 1346SOL     OW 6044   6.058   5.348   1.525 -0.0139  0.6971 -0.8035
 1346SOL    HW1 6045   5.974   5.381   1.493 -0.7586 -0.2754  0.0825
 1346SOL    HW2 6046   6.089   5.290   1.455 -0.5772  0.2811 -0.7185
 1347SOL     OW 6047   9.951   9.292   7.429  0.2417  0.3065 -0.5305
 1347SOL    HW1 6048   9.926   9.341   7.351 -3.2107  0.7612  0.6862
 1347SOL    HW2 6049   9.915   9.342   7.502 -0.2707 -2.1456  1.0248
 1348SOL     OW 6050   0.656  10.434   8.065 -0.3657  0.4496  0.3650
 1348SOL    HW1 6051   0.585  10.414   8.127 -0.6088 -2.1606 -0.6121
 1348SOL    HW2 6052   0.622  10.405   7.980  0.8203  1.8280 -0.6257
 1349SOL     OW 6053   1.326   1.400   8.616  0.3826 -0.0629 -0.0613
 1349SOL    HW1 6054   1.395   1.336   8.598  1.5857  1.6406 -1.7568
 1349SOL    HW2 6055   1.333   1.465   8.546 -2.9707  0.2001 -0.3276
 1350SOL     OW 6056   6.506   4.737   3.738 -0.0358  0.2034 -0.1202
 1350SOL    HW1 6057   6.413   4.737   3.764  0.6249  1.7711  2.6153
 1350SOL    HW2 6058   6.549   4.681   3.803  0.8403 -1.5407 -2.0990
 1351SOL     OW 6059   4.629   8.891   9.375  0.2623  0.1504  0.3394
 1351SOL    HW1 6060   4.687   8.964   9.394  0.2394  0.0436  0.8204
 1351SOL    HW2 6061   4.669   8.847   9.300 -0.3016  1.2983 -0.6715
 1352SOL     OW 6062   8.166   7.128   4.693  0.6699  0.0833  0.1783
 1352SOL    HW1 6063   8.175   7.164   4.605 -2.9702 -0.2557 -0.4927
 1352SOL    HW2 6064   8.108   7.189   4.738 -0.4040 -1.5831  1.1456
 1353SOL     OW 6065   4.788  10.667   4.571  0.4079 -0.8559  0.7088
 1353SOL    HW1 6066   4.774  10.720   4.650 -3.5344  0.2568 -0.5007
 1353SOL    HW2 6067   4.739  10.587   4.588 -2.2223  0.2144 -1.1950
 1354SOL     OW 6068   5.221   5.778   9.326 -0.4358 -0.5228 -0.0894
 1354SOL    HW1 6069   5.177   5.751   9.245 -1.0723 -0.1855  0.1402
 1354SOL    HW2 6070   5.218   5.874   9.324  0.6794 -0.4791 -0.2805
 1355SOL     OW 6071   4.002   5.748   4.261  0.1092 -0.0093  0.4231
 1355SOL    HW1 6072   4.032   5.837   4.278 -1.9071  1.1349 -1.5086
 1355SOL    HW2 6073   3.910   5.758   4.236 -0.2656 -2.6797  0.4827
 1356SOL     OW 6074   3.600   6.983   3.825  0.1139 -0.2874 -0.1566
 1356SOL    HW1 6075   3.607   7.043   3.899  4.3963 -1.6488  0.7844
 1356SOL    HW2 6076   3.666   7.015   3.762 -1.1436 -1.0723 -1.9643
 1357SOL     OW 6077   2.760   3.930   0.175  0.4053 -0.0396  0.2561
 1357SOL    HW1 6078   2.679   3.931   0.122  0.0854  0.8551  0.7495
 1357SOL    HW2 6079   2.745   3.860   0.239 -0.1871  0.4237  0.6422
 1358SOL     OW 6080   2.209   8.819   0.391 -0.2941 -0.1254  0.5853
 1358SOL    HW1 6081   2.152   8.865   0.330  0.5260 -1.2716 -1.1237
 1358SOL    HW2 6082   2.204   8.727   0.364  0.4287 -0.6076  1.9867
 1359SOL     OW 6083   5.799   9.969   1.831 -0.2840 -0.5576  0.1664
 1359SOL    HW1 6084   5.735  10.031   1.865 -1.5539 -2.1318  0.7811
 1359SOL    HW2 6085   5.844  10.017   1.762 -0.8037  1.2174  0.9974
 1360SOL     OW 6086   3.415   1.813   2.612  0.2814  0.0166  0.1400
 1360SOL    HW1 6087   3.498   1.771   2.636  0.3574 -0.7538 -1.3493
 1360SOL    HW2 6088   3.428   1.842   2.522 -0.8057  0.6076  0.1573
 1361SOL     OW 6089   7.255   4.353   7.184  0.3946  0.5224  0.2595
 1361SOL    HW1 6090   7.216   4.401   7.111  2.1570  0.7065 -0.6166
 1361SOL    HW2 6091   7.281   4.269   7.146  0.8244  0.4008  0.8089
 1362SOL     OW 6092  10.170  10.758   1.790  0.0606 -0.2395  0.1968
 1362SOL    HW1 6093  10.103  10.770   1.722 -0.1932 -0.2533  0.4460
 1362SOL    HW2 6094  10.251  10.788   1.749 -0.2775  0.7641  0.2525
 1363SOL     OW 6095   7.632   9.841   5.557  0.2206 -0.0118 -0.0338
 1363SOL    HW1 6096   7.557   9.890   5.591 -0.6763 -0.7238 -0.9093
 1363SOL    HW2 6097   7.595   9.757   5.530  1.7137 -1.1598  1.3511
 1364SOL     OW 6098   3.232  10.277  10.123  0.0307 -0.0312  0.0680
 1364SOL    HW1 6099   3.138  10.281  10.144 -0.2808  0.2242 -1.2877
 1364SOL    HW2 6100   3.236  10.298  10.030  1.4571  0.0547  0.1386
 1365SOL     OW 6101   2.591   9.621   8.982  0.1403  0.1995 -0.8164
 1365SOL    HW1 6102   2.516   9.567   9.007 -1.1719  1.7725 -1.1732
 1365SOL    HW2 6103   2.639   9.634   9.064  0.4173 -1.3801 -0.7100
 1366SOL     OW 6104   7.933   6.494   7.358 -0.2406  0.3588  0.0274
 1366SOL    HW1 6105   8.019   6.514   7.321  0.3928 -0.1992  1.1656
 1366SOL    HW2 6106   7.924   6.552   7.433 -0.2375 -0.5554  0.7561
 1367SOL     OW 6107   8.764   0.657   5.250 -0.5343 -0.2365  0.4352
 1367SOL    HW1 6108   8.694   0.598   5.222 -0.7383 -0.3181  1.0875
 1367SOL    HW2 6109   8.842   0.603   5.252 -0.6436 -0.3912  0.6341
 1368SOL     OW 6110   4.436   7.447   5.409 -0.3192 -0.3278 -0.1646
 1368SOL    HW1 6111   4.531   7.457   5.407 -0.3444  0.0964  0.5468
 1368SOL    HW2 6112   4.421   7.353   5.407  0.2205 -0.5491  2.8711
 1369SOL     OW 6113   8.320   8.317  10.007 -0.1024 -0.0945  0.0661
 1369SOL    HW1 6114   8.321   8.336  10.100  1.4902  0.8843 -0.1241
 1369SOL    HW2 6115   8.237   8.272   9.993 -0.6599  0.3146  1.8297
 1370SOL     OW 6116   4.141   5.469   0.967  0.1210  0.2139 -0.3456
 1370SOL    HW1 6117   4.153   5.530   1.039 -1.1826  0.1178 -0.0265
 1370SOL    HW2 6118   4.077   5.406   0.999  0.2389 -0.3831 -1.2492
 1371SOL     OW 6119   4.259   2.534   0.204 -0.3263 -0.1788 -0.4579
 1371SOL    HW1 6120   4.289   2.601   0.266  0.2541 -1.9025  1.2425
 1371SOL    HW2 6121   4.182   2.495   0.246 -1.3291  0.1471 -1.9460
 1372SOL     OW 6122   7.738   1.165   9.856  0.3516  0.0727 -0.6144
 1372SOL    HW1 6123   7.772   1.153   9.767  0.7992 -0.5735 -0.3673
 1372SOL    HW2 6124   7.644   1.146   9.848  0.6812 -1.7632 -0.6414
 1373SOL     OW 6125  10.491   1.643   6.317 -0.5588 -0.2704 -0.3844
 1373SOL    HW1 6126  10.441   1.572   6.277  0.3875 -0.9233 -0.4123
 1373SOL    HW2 6127  10.576   1.640   6.275 -1.0055  1.9584 -1.6474
 1374SOL     OW 6128   7.928   5.537   8.182  0.0511  0.4835  0.1616
 1374SOL    HW1 6129   7.978   5.575   8.109 -0.5724  0.7510 -0.1298
 1374SOL    HW2 6130   7.868   5.607   8.208 -0.5243 -0.0114  0.1737
 1375SOL     OW 6131   1.942   5.331   0.211 -0.5263 -0.0078  0.0864
 1375SOL    HW1 6132   1.937   5.252   0.266 -1.2009  0.7204  1.1153
 1375SOL    HW2 6133   2.034   5.336   0.185 -0.7102 -1.8173 -1.0683
 1376SOL     OW 6134   7.229   4.955   2.437  0.3181  0.0294 -0.0135
 1376SOL    HW1 6135   7.253   4.917   2.353 -0.6354 -0.7482  0.0388
 1376SOL    HW2 6136   7.137   4.928   2.450  0.8951 -1.2461  1.9935
 1377SOL     OW 6137   9.232   9.832   3.579  0.0524  0.4239  0.1192
 1377SOL    HW1 6138   9.276   9.747   3.573 -0.4220  0.2352 -1.1857
 1377SOL    HW2 6139   9.240   9.857   3.670  1.1356 -0.5268  0.3123
 1378SOL     OW 6140   3.243   8.361   1.753  0.4967  0.2132  0.3993
 1378SOL    HW1 6141   3.325   8.313   1.764  0.8002  0.8516  1.0342
 1378SOL    HW2 6142   3.255   8.411   1.672 -0.5314 -2.1193 -1.3144
 1379SOL     OW 6143   0.844   7.588   8.046  0.0377 -0.2141 -0.1457
 1379SOL    HW1 6144   0.928   7.577   8.089 -0.3429  0.6367  0.8687
 1379SOL    HW2 6145   0.863   7.584   7.953  1.1854 -0.1177  0.0790
 1380SOL     OW 6146   6.047   3.584   7.455 -0.1571  0.0181  0.5321
 1380SOL    HW1 6147   6.047   3.509   7.513 -0.1370 -0.4875 -0.1132
 1380SOL    HW2 6148   6.138   3.614   7.454 -0.2060  0.1850  0.9545
 1381SOL     OW 6149   6.736   3.066   3.695 -0.1641  0.1477  0.2802
 1381SOL    HW1 6150   6.734   2.971   3.689  0.1166  0.2066 -1.5558
 1381SOL    HW2 6151   6.672   3.088   3.763 -0.1187 -1.3446  0.8386
 1382SOL     OW 6152   0.822   5.827   8.380 -0.2103 -0.2831  0.3537
 1382SOL    HW1 6153   0.878   5.754   8.352 -0.2974  0.8438 -3.2095
 1382SOL    HW2 6154   0.879   5.882   8.434  1.3295 -0.5756 -0.9081
 1383SOL     OW 6155   2.301   2.863   2.056 -0.2354  0.5353 -0.9756
 1383SOL    HW1 6156   2.247   2.929   2.098  0.3774  1.0716 -1.0062
 1383SOL    HW2 6157   2.273   2.780   2.095 -0.1220  0.9524  0.0183
 1384SOL     OW 6158   5.256   1.313   7.042 -0.0431 -0.1609 -0.1486
 1384SOL    HW1 6159   5.193   1.276   7.103 -0.0031  1.0144  0.6357
 1384SOL    HW2 6160   5.306   1.238   7.010  0.0197 -0.7926  1.3603
 1385SOL     OW 6161   6.313   8.790   2.044 -0.6504  0.2280 -0.8729
 1385SOL    HW1 6162   6.389   8.839   2.013 -0.7085  0.2110 -1.0405
 1385SOL    HW2 6163   6.338   8.698   2.034 -0.1138  0.2045  0.4551
 1386SOL     OW 6164   2.751   7.737   6.717 -0.3098  0.5519 -0.8753
 1386SOL    HW1 6165   2.846   7.731   6.718 -0.2492  1.2348  0.8194
 1386SOL    HW2 6166   2.720   7.653   6.751 -0.3941 -0.1415 -2.5518
 1387SOL     OW 6167  10.454   1.134   0.070 -0.1727 -0.4527  0.0787
 1387SOL    HW1 6168  10.401   1.067   0.027 -0.6878  0.1837 -0.2874
 1387SOL    HW2 6169  10.544   1.106   0.053 -0.3644 -1.8361  1.1678
 1388SOL     OW 6170   2.214   8.373  10.382 -1.0252  0.0247  0.3203
 1388SOL    HW1 6171   2.162   8.432  10.328 -2.2137 -0.3746  1.0020
 1388SOL    HW2 6172   2.284   8.343  10.323 -1.8741  0.1383 -0.7912
 1389SOL     OW 6173   2.007  10.358   6.081 -0.7188  0.7721  0.1382
 1389SOL    HW1 6174   2.058  10.373   6.001 -0.4102  1.1774  0.4084
 1389SOL    HW2 6175   1.920  10.393   6.061 -0.5402  1.2031  0.1032
 1390SOL     OW 6176   3.440   5.820   1.603 -0.3908 -0.3114  0.3206
 1390SOL    HW1 6177   3.506   5.752   1.617  0.4915  0.6740  1.1808
 1390SOL    HW2 6178   3.373   5.778   1.550  1.5070 -1.0185 -1.6667
 1391SOL     OW 6179   8.631   7.795   0.503 -0.2302  0.1863 -0.3543
 1391SOL    HW1 6180   8.652   7.792   0.410 -0.4517  0.5350 -0.4162
 1391SOL    HW2 6181   8.541   7.764   0.510 -0.1788  0.0594 -0.2438
 1392SOL     OW 6182   8.212   6.350   0.110 -0.0119  0.0469 -0.3095
 1392SOL    HW1 6183   8.280   6.411   0.083  0.7454 -0.8484 -0.4652
 1392SOL    HW2 6184   8.255   6.291   0.171 -0.5285 -0.7884 -0.7316
 1393SOL     OW 6185   4.863  11.014   4.189 -0.5269  0.4797 -0.2202
 1393SOL    HW1 6186   4.898  11.084   4.133  1.2303 -1.0966 -1.1943
 1393SOL    HW2 6187   4.938  10.987   4.243 -0.9435 -1.1788 -0.4266
 1394SOL     OW 6188   3.118   5.503   8.023 -0.2575  0.1598  0.1310
 1394SOL    HW1 6189   3.078   5.588   8.009  2.5280  1.2327 -2.3204
 1394SOL    HW2 6190   3.051   5.440   7.995 -0.6583  1.8018 -3.0305
 1395SOL     OW 6191   6.349   2.112   6.019 -0.0097  0.2638  0.6358
 1395SOL    HW1 6192   6.324   2.089   5.930  0.6228  2.4753 -0.1733
 1395SOL    HW2 6193   6.268   2.143   6.060 -0.4994 -1.5874  1.1969
 1396SOL     OW 6194   5.512   1.878   9.766  0.5014 -0.2991  0.0110
 1396SOL    HW1 6195   5.579   1.945   9.756 -0.7066  0.8375 -0.8616
 1396SOL    HW2 6196   5.546   1.802   9.718  2.0721 -0.4834  1.3611
 1397SOL     OW 6197   0.601   4.621   0.142 -0.0591 -0.0171 -0.0167
 1397SOL    HW1 6198   0.608   4.654   0.232 -0.0148 -0.5261  0.1702
 1397SOL    HW2 6199   0.553   4.690   0.096  1.4882  1.0786 -0.0493
 1398SOL     OW 6200   2.848   7.686   8.511 -0.8130 -0.1058 -1.2798
 1398SOL    HW1 6201   2.818   7.609   8.558  0.5964  0.2388  0.2653
 1398SOL    HW2 6202   2.873   7.654   8.425  1.6408 -1.8211 -0.0540
 1399SOL     OW 6203   6.182   3.941   8.649  0.1476  0.0754  0.8135
 1399SOL    HW1 6204   6.196   4.031   8.675 -1.0502  0.0437  1.6740
 1399SOL    HW2 6205   6.262   3.895   8.673  0.8015  0.9145  0.2740
 1400SOL     OW 6206  10.812   9.143   0.229 -0.3701  0.4369 -0.6188
 1400SOL    HW1 6207  10.877   9.076   0.211  0.2098  0.6281  0.6505
 1400SOL    HW2 6208  10.845   9.221   0.184 -0.3632  0.2136 -1.0013
 1401SOL     OW 6209   3.732   8.665   2.462 -0.4209 -0.1797 -0.5969
 1401SOL    HW1 6210   3.728   8.750   2.507  1.7094 -0.4358  0.1998
 1401SOL    HW2 6211   3.732   8.601   2.533 -2.0423 -0.8812 -1.1945
 1402SOL     OW 6212   7.749   3.463   8.171  0.0965 -0.1656 -0.0524
 1402SOL    HW1 6213   7.764   3.398   8.239 -2.7224 -0.3944  0.4730
 1402SOL    HW2 6214   7.663   3.440   8.134 -1.8567  4.0658  1.2384
 1403SOL     OW 6215   4.818   3.455   1.301  0.1791  0.6577 -0.5253
 1403SOL    HW1 6216   4.722   3.458   1.295  0.0301 -0.7607  0.6527
 1403SOL    HW2 6217   4.837   3.466   1.394  1.1185  0.1149 -0.6381
 1404SOL     OW 6218  10.089   7.338   9.067 -0.2842 -0.1249 -0.5017
 1404SOL    HW1 6219  10.041   7.287   9.133  0.1022 -0.3845 -0.4157
 1404SOL    HW2 6220  10.108   7.421   9.110 -1.3855  0.3081 -0.8274
 1405SOL     OW 6221   4.447   1.735   4.881 -0.3108 -0.1419  1.1101
 1405SOL    HW1 6222   4.468   1.734   4.975 -0.2441  1.6438  1.1483
 1405SOL    HW2 6223   4.362   1.779   4.876 -0.3029 -0.2087  0.3141
 1406SOL     OW 6224   4.654   2.429   7.612 -0.0984  0.1971  0.3383
 1406SOL    HW1 6225   4.631   2.481   7.535  0.2070  0.2226  0.2653
 1406SOL    HW2 6226   4.703   2.490   7.668 -1.1101  0.4633  0.9822
 1407SOL     OW 6227   8.072  10.477   9.102 -0.1941 -0.4783  0.0378
 1407SOL    HW1 6228   8.068  10.537   9.028 -0.6289 -1.9984 -1.2246
 1407SOL    HW2 6229   7.989  10.430   9.100 -0.4806 -0.1423  1.8879
 1408SOL     OW 6230  10.838   3.514   6.351  1.0244 -0.4251 -0.5922
 1408SOL    HW1 6231  10.898   3.440   6.342  1.4493 -0.0689 -0.7772
 1408SOL    HW2 6232  10.844   3.560   6.267 -0.3543 -0.9898 -1.0221
 1409SOL     OW 6233   8.048   2.697   5.483  0.7568  0.0676 -0.2290
 1409SOL    HW1 6234   7.966   2.678   5.437 -0.5884  1.5335  1.4026
 1409SOL    HW2 6235   8.087   2.769   5.433 -0.7000  1.6591  0.8061
 1410SOL     OW 6236   4.366   5.507   2.035 -0.5786  0.6236  0.2232
 1410SOL    HW1 6237   4.372   5.456   1.954 -2.4671  0.4133  0.1892
 1410SOL    HW2 6238   4.391   5.446   2.104  0.1763  0.5580 -0.0936
 1411SOL     OW 6239  10.236   8.881   5.025 -0.0339 -0.8681  0.0970
 1411SOL    HW1 6240  10.228   8.800   4.975  1.6034 -1.4357  0.6724
 1411SOL    HW2 6241  10.187   8.946   4.974  0.7402 -1.6434 -1.7211
 1412SOL     OW 6242   7.916   6.327  10.805  0.1180  0.0217  0.4301
 1412SOL    HW1 6243   7.877   6.389  10.866  0.3891  2.6001 -1.8409
 1412SOL    HW2 6244   7.841   6.287  10.760 -0.0349  1.1855 -0.3820
 1413SOL     OW 6245   9.873   1.289  10.754  0.5160  0.7073  0.4621
 1413SOL    HW1 6246   9.892   1.231  10.680 -0.0317  1.2508 -0.1161
 1413SOL    HW2 6247   9.800   1.246  10.799  0.9420  0.3031  0.7863
 1414SOL     OW 6248   7.814   5.697   5.510  0.3021 -0.5626 -0.2452
 1414SOL    HW1 6249   7.803   5.792   5.510  1.2906 -0.4316 -1.2596
 1414SOL    HW2 6250   7.790   5.670   5.422 -1.5930 -1.4889  0.4995
 1415SOL     OW 6251   7.989  10.713   7.733 -0.3588  0.1507  0.1430
 1415SOL    HW1 6252   7.987  10.622   7.764  0.3858  0.1297  0.1545
 1415SOL    HW2 6253   8.082  10.735   7.730 -0.5512  1.1180  0.7374
 1416SOL     OW 6254   1.606   2.290   9.463 -0.0993  0.0593  0.2137
 1416SOL    HW1 6255   1.570   2.245   9.387 -0.5343  1.1458 -0.2342
 1416SOL    HW2 6256   1.548   2.365   9.477  1.3282  1.2226  0.1523
 1417SOL     OW 6257   3.874   6.815   1.133 -0.3466 -0.3867 -0.2900
 1417SOL    HW1 6258   3.916   6.885   1.084  0.7437 -0.9543 -0.1905
 1417SOL    HW2 6259   3.784   6.846   1.147  0.0019  0.8090 -0.5845
 1418SOL     OW 6260   0.269   9.206   5.224  0.6604 -0.0605  0.0121
 1418SOL    HW1 6261   0.195   9.179   5.170  1.6497  0.3021 -1.5957
 1418SOL    HW2 6262   0.280   9.135   5.287 -1.7466  0.4060  1.0644
 1419SOL     OW 6263   4.187   2.591   6.129  0.2134 -0.2249  0.5052
 1419SOL    HW1 6264   4.144   2.526   6.185 -0.0176  0.1725  0.8031
 1419SOL    HW2 6265   4.146   2.674   6.155 -1.0016 -0.2138 -1.3224
 1420SOL     OW 6266   2.997   3.942   3.444 -0.4083 -0.1182 -0.2040
 1420SOL    HW1 6267   2.954   4.010   3.392 -0.1840 -0.2868 -0.6122
 1420SOL    HW2 6268   3.084   3.978   3.464 -0.5697  0.0366  0.2436
 1421SOL     OW 6269   3.586   7.695   4.166  0.0407 -0.2149 -0.1575
 1421SOL    HW1 6270   3.621   7.670   4.252  2.4438 -0.1933 -1.0750
 1421SOL    HW2 6271   3.553   7.612   4.130  0.0887 -0.4405  0.2987
 1422SOL     OW 6272  10.733   7.271   5.159  0.3628  0.7354  0.2001
 1422SOL    HW1 6273  10.703   7.343   5.103 -1.7793  0.3073  0.7174
 1422SOL    HW2 6274  10.828   7.284   5.166  0.3200  2.2721 -1.4185
 1423SOL     OW 6275   2.151   3.762   6.859 -0.3367 -0.0892 -0.2159
 1423SOL    HW1 6276   2.115   3.848   6.837 -0.6398 -0.8071 -2.9254
 1423SOL    HW2 6277   2.093   3.728   6.927 -0.1471  1.8327  0.9826
 1424SOL     OW 6278   3.040   6.971   4.228  0.3694  0.0702  0.1010
 1424SOL    HW1 6279   3.037   6.947   4.321  1.7916 -1.2692 -0.1617
 1424SOL    HW2 6280   2.976   6.914   4.187  1.5984 -1.2378 -0.0811
 1425SOL     OW 6281   6.241   4.930   6.806 -0.2693  0.2863  0.1722
 1425SOL    HW1 6282   6.211   4.867   6.741  0.6213  1.0013 -0.9627
 1425SOL    HW2 6283   6.192   4.908   6.885 -1.6522 -0.3633 -0.8304
 1426SOL     OW 6284   2.106   6.182  11.026  0.1023  0.4473 -0.3328
 1426SOL    HW1 6285   2.121   6.229  10.944  0.1925  0.6200 -0.2173
 1426SOL    HW2 6286   2.034   6.122  11.006  1.3845 -0.8844 -1.0820
 1427SOL     OW 6287   2.813  10.987  10.859  0.4829  0.9730 -0.0434
 1427SOL    HW1 6288   2.896  10.966  10.817 -0.4960  2.1165 -2.7316
 1427SOL    HW2 6289   2.833  11.061  10.916  1.8444 -0.6363  1.6965
 1428SOL     OW 6290   0.137  10.406   3.863  0.0393 -0.3548  0.1629
 1428SOL    HW1 6291   0.103  10.351   3.793 -0.5461  0.3741 -0.1458
 1428SOL    HW2 6292   0.097  10.492   3.848  0.4584  0.0019  0.9767
 1429SOL     OW 6293   6.476   8.905   1.687 -0.5115 -0.4023 -0.9161
 1429SOL    HW1 6294   6.400   8.851   1.667 -0.2178  0.1881 -4.2887
 1429SOL    HW2 6295   6.543   8.843   1.714 -1.4478 -1.2162 -0.4057
 1430SOL     OW 6296  10.728   4.089   9.512  0.7125  0.3966 -0.0306
 1430SOL    HW1 6297  10.648   4.124   9.474  0.6386 -1.1649 -1.4412
 1430SOL    HW2 6298  10.721   4.108   9.606 -2.0524 -1.0458  0.1469
 1431SOL     OW 6299  10.924   9.261   2.472 -0.4249 -0.0348 -0.6218
 1431SOL    HW1 6300  10.844   9.216   2.445  0.7614 -2.1302 -0.8090
 1431SOL    HW2 6301  10.945   9.224   2.558  0.4934  0.3058 -0.6861
 1432SOL     OW 6302   9.606   8.620   2.512 -0.2341 -0.5516  0.3801
 1432SOL    HW1 6303   9.514   8.641   2.530 -0.2733  0.3491 -0.7853
 1432SOL    HW2 6304   9.604   8.569   2.431  0.3598  0.3279 -0.1997
 1433SOL     OW 6305   9.632   4.857   9.289 -0.0057 -0.0040 -0.2083
 1433SOL    HW1 6306   9.625   4.851   9.194 -0.7658 -1.5914 -0.0823
 1433SOL    HW2 6307   9.711   4.910   9.304  0.6147 -0.4464 -1.7122
 1434SOL     OW 6308   9.921   1.860  10.494  0.1491  0.0989 -0.1628
 1434SOL    HW1 6309   9.928   1.941  10.444  0.6829 -0.1239 -0.4508
 1434SOL    HW2 6310   9.920   1.888  10.585 -3.0816  0.7096 -0.2447
 1435SOL     OW 6311   1.872   6.571   6.976 -0.0274 -0.5149  0.0631
 1435SOL    HW1 6312   1.939   6.529   6.921  0.6795 -1.7623  1.7818
 1435SOL    HW2 6313   1.846   6.648   6.926  0.7578 -1.4215 -1.8909
 1436SOL     OW 6314   1.922   4.937   9.390  0.6480 -0.2588 -0.0036
 1436SOL    HW1 6315   1.919   5.020   9.343  0.2964 -0.5538 -0.5087
 1436SOL    HW2 6316   1.833   4.902   9.384  0.6597 -0.4209  0.6632
 1437SOL     OW 6317   5.799   4.591   8.478  0.3551  0.4777  0.2790
 1437SOL    HW1 6318   5.786   4.591   8.573 -1.1228 -1.1457  0.1276
 1437SOL    HW2 6319   5.835   4.678   8.459  1.8481  0.4042  2.4393
 1438SOL     OW 6320   2.674   6.908   2.580  0.0082  0.5698 -0.1248
 1438SOL    HW1 6321   2.646   6.834   2.525 -0.3375  1.0875 -0.6564
 1438SOL    HW2 6322   2.746   6.947   2.532  2.3856 -1.2900  1.6544
 1439SOL     OW 6323   3.073   9.279   6.288  0.6400 -0.3776  0.0677
 1439SOL    HW1 6324   3.141   9.267   6.354 -0.5717 -1.1754  1.2142
 1439SOL    HW2 6325   2.998   9.314   6.335  0.5734  1.6190 -1.3813
 1440SOL     OW 6326   1.429   6.924   3.382  0.1933 -0.3430 -0.1144
 1440SOL    HW1 6327   1.368   6.851   3.391 -1.2362  1.0395  2.3531
 1440SOL    HW2 6328   1.420   6.974   3.463  2.6441  1.4622 -0.8203
 1441SOL     OW 6329  10.149   0.885   3.316 -0.4710  0.1206 -1.0438
 1441SOL    HW1 6330  10.137   0.864   3.409 -0.3948 -3.1539 -1.6639
 1441SOL    HW2 6331  10.089   0.827   3.270  1.7132 -0.6021 -3.1829
 1442SOL     OW 6332   2.150   7.004   7.738  0.2404 -0.0457  0.6607
 1442SOL    HW1 6333   2.167   7.092   7.772 -0.0141  0.6931 -1.0218
 1442SOL    HW2 6334   2.164   6.947   7.813  0.9826  1.3688  1.6613
 1443SOL     OW 6335  10.053  10.386   5.124  0.5841 -0.1827 -0.2832
 1443SOL    HW1 6336  10.069  10.390   5.219  1.2608 -0.0590 -0.4003
 1443SOL    HW2 6337  10.040  10.478   5.099  0.4171 -0.2147 -0.3124
 1444SOL     OW 6338   9.358   7.091   2.946 -0.1594  0.6705 -0.2033
 1444SOL    HW1 6339   9.417   7.036   2.894  0.5443  1.4433 -0.2453
 1444SOL    HW2 6340   9.359   7.052   3.033 -0.6722 -0.1295 -0.5439
 1445SOL     OW 6341   3.426   1.754   8.839  0.4168  0.1246  0.0350
 1445SOL    HW1 6342   3.512   1.728   8.807 -0.3821 -0.6600 -1.6421
 1445SOL    HW2 6343   3.424   1.849   8.828  1.2576  0.2116  0.6047
 1446SOL     OW 6344   6.141   0.097   6.736  0.3805 -0.2914  0.2471
 1446SOL    HW1 6345   6.216   0.068   6.786  0.3844  1.6439  1.4717
 1446SOL    HW2 6346   6.067   0.048   6.772  0.7628 -0.7894  0.3620
 1447SOL     OW 6347  10.718  10.473   3.445 -0.2222 -0.3189  0.1590
 1447SOL    HW1 6348  10.728  10.568   3.439 -0.0500 -0.3141  0.5174
 1447SOL    HW2 6349  10.642  10.454   3.389  0.0628 -0.0359 -0.3333
 1448SOL     OW 6350   3.600   3.969   9.846  0.2105  0.7231  0.3473
 1448SOL    HW1 6351   3.643   4.020   9.915 -0.4295 -0.1233  1.4105
 1448SOL    HW2 6352   3.648   3.887   9.844  0.1733  0.7135 -0.1668
 1449SOL     OW 6353   8.361   0.733   6.389  0.1475  0.2503  0.6229
 1449SOL    HW1 6354   8.383   0.645   6.419  0.2167 -0.4961 -1.4773
 1449SOL    HW2 6355   8.273   0.725   6.352  0.3590  0.9484 -0.0646
 1450SOL     OW 6356   9.673   7.873   8.127 -0.0413 -0.0674 -0.0394
 1450SOL    HW1 6357   9.760   7.834   8.118 -0.7109 -1.5628 -0.3669
 1450SOL    HW2 6358   9.681   7.934   8.200  0.8308 -1.5036  1.1073
 1451SOL     OW 6359   9.066   8.265  10.124 -0.2398  0.0135  0.2236
 1451SOL    HW1 6360   9.064   8.186  10.070 -3.0919  0.3195 -0.2500
 1451SOL    HW2 6361   9.076   8.337  10.061  0.8075  0.1625  0.5314
 1452SOL     OW 6362   4.362   8.876   3.477 -0.2214  0.2259  0.6648
 1452SOL    HW1 6363   4.374   8.960   3.521  0.4301  0.7759 -0.5037
 1452SOL    HW2 6364   4.443   8.864   3.427 -1.0284 -0.2498 -0.5599
 1453SOL     OW 6365   3.264   0.428   5.007  0.5214  0.3687 -0.4079
 1453SOL    HW1 6366   3.303   0.343   5.028  0.8253  0.7351  0.5516
 1453SOL    HW2 6367   3.338   0.487   4.997  0.2889  0.6329 -0.5901
 1454SOL     OW 6368   0.664   1.990   2.491  1.1742  0.4175  0.4380
 1454SOL    HW1 6369   0.599   2.016   2.557  1.4949  1.6655  0.2850
 1454SOL    HW2 6370   0.640   2.040   2.413  0.2291 -1.7267 -0.7591
 1455SOL     OW 6371   6.150   7.439   9.174 -0.0839 -0.1505 -0.2048
 1455SOL    HW1 6372   6.065   7.397   9.188 -1.5635  2.7777  0.1944
 1455SOL    HW2 6373   6.179   7.407   9.089 -1.1145 -1.8907  0.0503
 1456SOL     OW 6374   2.828   2.595   4.741 -0.3815  0.3086 -0.6827
 1456SOL    HW1 6375   2.893   2.622   4.806 -1.3554 -0.2170  0.5552
 1456SOL    HW2 6376   2.772   2.672   4.728 -0.2634  0.3740 -0.8055
 1457SOL     OW 6377   8.265   4.038   5.897  0.0544 -0.2695  0.0894
 1457SOL    HW1 6378   8.284   4.084   5.815 -0.0379 -1.8147 -0.8539
 1457SOL    HW2 6379   8.272   3.945   5.874  0.7642 -0.7366  2.0329
 1458SOL     OW 6380  10.253   1.056   3.975 -0.2366 -0.2400 -0.1034
 1458SOL    HW1 6381  10.286   1.092   4.058  0.3608 -1.2835  0.1182
 1458SOL    HW2 6382  10.196   0.984   4.001  1.1986 -1.6244 -0.6016
 1459SOL     OW 6383   3.962   9.029   4.701  0.0175 -0.2064 -0.4781
 1459SOL    HW1 6384   3.880   8.982   4.687 -1.6339  0.8667  3.9375
 1459SOL    HW2 6385   3.937   9.121   4.699  1.9070  0.3286 -2.5165
 1460SOL     OW 6386   7.377   3.799   8.189 -0.1993 -0.0178 -0.0646
 1460SOL    HW1 6387   7.419   3.758   8.113  2.4320  0.5318  0.9932
 1460SOL    HW2 6388   7.364   3.890   8.163 -1.0276 -0.2529 -0.4960
 1461SOL     OW 6389   5.005   2.146   7.288  0.6352 -0.0961  0.3862
 1461SOL    HW1 6390   4.944   2.220   7.287  0.3797 -0.3012  0.6747
 1461SOL    HW2 6391   4.960   2.078   7.237  0.8294 -0.0837  0.1997
 1462SOL     OW 6392   8.653  10.422   7.638  0.2179  0.7821  0.1929
 1462SOL    HW1 6393   8.633  10.455   7.726 -3.1114  1.9634 -0.8368
 1462SOL    HW2 6394   8.684  10.333   7.652 -0.0065  1.0182  2.5782
 1463SOL     OW 6395   9.163   6.919   3.947  0.2181  0.2134  0.2002
 1463SOL    HW1 6396   9.126   6.882   4.027  0.5591  0.1185  0.3172
 1463SOL    HW2 6397   9.092   6.969   3.908 -0.1273 -0.2223  0.2611
 1464SOL     OW 6398   5.421   5.572   4.691 -0.3094  0.8077 -0.5930
 1464SOL    HW1 6399   5.396   5.507   4.625  1.3674  0.1117 -0.5936
 1464SOL    HW2 6400   5.477   5.634   4.644 -0.7110  1.4493 -0.2494
 1465SOL     OW 6401   5.816   2.344   3.414  0.6130 -0.5525  0.2742
 1465SOL    HW1 6402   5.780   2.281   3.351 -0.6377 -0.3890  0.7901
 1465SOL    HW2 6403   5.906   2.358   3.385  0.8707 -2.4281  0.0220
 1466SOL     OW 6404  10.603   5.046   1.514 -0.5593  0.0381  0.0632
 1466SOL    HW1 6405  10.565   5.089   1.591  0.6834  0.3634  0.5240
 1466SOL    HW2 6406  10.632   4.961   1.546  0.5609  0.4294  0.1447
 1467SOL     OW 6407  10.535   9.124   8.324  0.1287 -0.1379  0.3432
 1467SOL    HW1 6408  10.604   9.187   8.306  1.4437 -1.7888 -0.6418
 1467SOL    HW2 6409  10.557   9.089   8.411  0.0352 -0.0632  0.3977
 1468SOL     OW 6410   9.040   6.850   4.655  0.3400 -0.0989 -0.0999
 1468SOL    HW1 6411   9.129   6.882   4.642  0.5021 -0.3292  0.4064
 1468SOL    HW2 6412   8.990   6.888   4.583  0.1667  2.5973  1.3130
 1469SOL     OW 6413   6.822   0.319   8.069  0.0915  0.0231  0.3376
 1469SOL    HW1 6414   6.782   0.236   8.046  0.4145 -0.4955  1.5215
 1469SOL    HW2 6415   6.814   0.324   8.164  0.2016  1.2861  0.3019
 1470SOL     OW 6416   8.671   1.031   1.682  0.0441 -0.1677 -0.0511
 1470SOL    HW1 6417   8.754   0.993   1.653  1.4123  2.8763 -0.5375
 1470SOL    HW2 6418   8.675   1.028   1.777  0.8629  0.1633 -0.0655
 1471SOL     OW 6419   2.955   9.256  10.049 -0.3660 -0.9177 -0.4380
 1471SOL    HW1 6420   3.000   9.200  10.112  1.4869  0.8925 -0.0238
 1471SOL    HW2 6421   2.870   9.273  10.089 -0.0853 -1.6050  0.4960
 1472SOL     OW 6422   9.617   6.601   8.729  0.1274  0.5506  0.4896
 1472SOL    HW1 6423   9.678   6.648   8.672  1.0062 -0.6918  0.3675
 1472SOL    HW2 6424   9.672   6.542   8.780 -1.0363 -1.5417 -0.5190
 1473SOL     OW 6425   9.487   4.056   6.682 -0.4982 -0.6041 -0.2404
 1473SOL    HW1 6426   9.528   4.030   6.764 -0.7287  1.0904  0.4565
 1473SOL    HW2 6427   9.393   4.054   6.701 -0.6001 -1.3062 -0.8131
 1474SOL     OW 6428   8.933   1.072   9.785 -0.0280 -0.3174  0.5126
 1474SOL    HW1 6429   8.845   1.040   9.802 -1.3346  2.6459  0.0364
 1474SOL    HW2 6430   8.923   1.133   9.712  2.1772  1.0540  1.2356
 1475SOL     OW 6431   7.277   3.732   2.279 -0.0057  0.2143  0.2674
 1475SOL    HW1 6432   7.301   3.734   2.186  1.6227  0.9116  0.6655
 1475SOL    HW2 6433   7.313   3.650   2.312  1.2530  0.9264  0.7142
 1476SOL     OW 6434   1.233   9.716  10.936 -0.1243 -0.1827  0.2095
 1476SOL    HW1 6435   1.253   9.693  10.846 -0.9588  0.1786 -0.0765
 1476SOL    HW2 6436   1.218   9.811  10.934 -3.6496 -0.5977  0.0034
 1477SOL     OW 6437   4.119   5.858   5.341 -0.2708 -0.1705 -0.9125
 1477SOL    HW1 6438   4.111   5.780   5.286 -0.3967 -0.5999 -0.2961
 1477SOL    HW2 6439   4.074   5.927   5.293  1.0719 -0.1019 -2.1563
 1478SOL     OW 6440   0.948   5.734   7.528 -0.1936  0.3646  0.8272
 1478SOL    HW1 6441   1.024   5.756   7.582  0.2152  0.9661  0.0154
 1478SOL    HW2 6442   0.985   5.691   7.451 -0.5864  1.5160 -0.0321
 1479SOL     OW 6443   7.747   9.097   9.223  0.0709  0.3501 -0.2867
 1479SOL    HW1 6444   7.747   9.191   9.244  1.6817  0.0817  1.1231
 1479SOL    HW2 6445   7.829   9.084   9.175  1.5562 -0.8319  2.3606
 1480SOL     OW 6446   7.410   9.662   5.114 -0.1010  0.4615 -0.4417
 1480SOL    HW1 6447   7.498   9.625   5.101  1.1598  2.8823  0.4408
 1480SOL    HW2 6448   7.417   9.750   5.078 -2.1410  0.7746 -0.1494
 1481SOL     OW 6449   5.393   3.019   5.302 -0.2591  0.3501 -0.2685
 1481SOL    HW1 6450   5.484   2.994   5.317  1.0485  2.2803 -3.8096
 1481SOL    HW2 6451   5.352   2.942   5.261  0.1717 -0.0496  0.0487
 1482SOL     OW 6452   9.475  10.905   1.865  0.1981 -0.2590 -0.1554
 1482SOL    HW1 6453   9.566  10.875   1.863  0.1481 -0.3857 -0.7381
 1482SOL    HW2 6454   9.475  10.978   1.926  0.7410 -0.0997 -0.3443
 1483SOL     OW 6455   9.810   3.169  10.544 -0.6121 -0.4296  0.4455
 1483SOL    HW1 6456   9.783   3.145  10.633 -0.0065 -0.9459  0.4932
 1483SOL    HW2 6457   9.847   3.089  10.507 -0.2755 -0.0534 -0.0497
 1484SOL     OW 6458   1.340   2.754   0.113 -0.2930 -0.0056 -0.1819
 1484SOL    HW1 6459   1.420   2.711   0.083  0.2022  1.3280 -0.8186
 1484SOL    HW2 6460   1.352   2.762   0.208  1.0504  1.5714 -0.4493
 1485SOL     OW 6461  10.282   1.662   5.956  0.4212 -0.6283  0.5903
 1485SOL    HW1 6462  10.255   1.635   6.044  2.8580  0.3671  1.7335
 1485SOL    HW2 6463  10.215   1.725   5.929 -0.5713 -1.2365  1.5432
 1486SOL     OW 6464   3.674   0.379   6.219 -0.1922 -0.0962  0.3189
 1486SOL    HW1 6465   3.711   0.332   6.294 -0.2384  0.2107  0.5351
 1486SOL    HW2 6466   3.609   0.319   6.184 -0.4640 -0.0772  0.7777
 1487SOL     OW 6467   1.677   6.193   5.803  0.1968  0.0756  0.0358
 1487SOL    HW1 6468   1.611   6.244   5.757 -0.2723 -1.5463 -1.1980
 1487SOL    HW2 6469   1.758   6.211   5.755  0.3951  0.9575  0.6713
 1488SOL     OW 6470   6.515   5.686   6.553 -0.3149  0.6676  0.2647
 1488SOL    HW1 6471   6.576   5.621   6.518  0.2425  0.5112  1.4716
 1488SOL    HW2 6472   6.554   5.770   6.530 -1.3217  0.6493 -1.8009
 1489SOL     OW 6473   2.976   7.172   7.647 -0.2686  0.0901 -0.7335
 1489SOL    HW1 6474   2.923   7.196   7.572  1.1993  2.2337 -1.1599
 1489SOL    HW2 6475   3.031   7.248   7.664  2.1764 -1.7316  0.1264
 1490SOL     OW 6476   3.201   4.400   5.663 -0.0102 -0.2485  0.0662
 1490SOL    HW1 6477   3.263   4.384   5.734  1.2436  1.2257 -0.6093
 1490SOL    HW2 6478   3.139   4.464   5.699 -0.1370 -0.4692  0.2362
 1491SOL     OW 6479   2.645   0.270   3.038 -0.1718  0.4031 -0.2142
 1491SOL    HW1 6480   2.612   0.185   3.009 -2.3169  1.0605  0.1336
 1491SOL    HW2 6481   2.735   0.274   3.005  0.5638 -2.6223  1.0720
 1492SOL     OW 6482   2.112   5.604   0.609 -0.5443 -0.1904  0.9220
 1492SOL    HW1 6483   2.041   5.597   0.545 -0.0044 -0.1916  0.3133
 1492SOL    HW2 6484   2.107   5.524   0.660  0.0850 -1.0013 -0.2448
 1493SOL     OW 6485   6.963   5.504   0.043  0.2445 -0.1649 -0.2811
 1493SOL    HW1 6486   6.873   5.485   0.071  0.1123  1.2036  0.2442
 1493SOL    HW2 6487   6.987   5.427  -0.009 -1.8187  0.1275 -1.8132
 1494SOL     OW 6488   8.246   7.320  10.053 -0.6570  0.2366  0.3692
 1494SOL    HW1 6489   8.173   7.272  10.013  0.4028 -2.1821  1.1401
 1494SOL    HW2 6490   8.208   7.360  10.131 -1.2917 -0.6655  0.5516
 1495SOL     OW 6491   2.135   8.616   7.129  0.4656 -0.5187  0.1104
 1495SOL    HW1 6492   2.196   8.685   7.154  1.4293 -0.5150 -2.0424
 1495SOL    HW2 6493   2.191   8.543   7.105 -0.4429 -0.9921 -0.6027
 1496SOL     OW 6494   2.781   5.400   1.430  0.1417 -0.3810  0.4799
 1496SOL    HW1 6495   2.809   5.312   1.455  0.4620 -0.7896 -1.1689
 1496SOL    HW2 6496   2.806   5.408   1.338 -1.7433  0.6577 -0.0158
 1497SOL     OW 6497   2.159   0.708   2.701 -0.8094  0.5481 -0.4711
 1497SOL    HW1 6498   2.079   0.757   2.719 -2.0178 -1.9020  1.6419
 1497SOL    HW2 6499   2.197   0.692   2.787 -0.4330 -1.9828 -1.0209
 1498SOL     OW 6500   8.926   1.429   9.251  0.1849  0.3004  0.0327
 1498SOL    HW1 6501   8.956   1.339   9.265 -4.3165 -1.2956  1.1539
 1498SOL    HW2 6502   8.935   1.472   9.336 -0.2716 -0.0072  0.2370
 1499SOL     OW 6503   1.217  10.542  10.830 -0.0337 -0.7084  0.1735
 1499SOL    HW1 6504   1.241  10.490  10.906  0.0227 -0.5878  0.2396
 1499SOL    HW2 6505   1.125  10.522  10.815 -0.1888 -0.3392  0.5947
 1500SOL     OW 6506   3.187  10.062   5.011  0.0344 -0.3426  0.1854
 1500SOL    HW1 6507   3.208  10.151   5.039  0.0877  0.0560 -1.0714
 1500SOL    HW2 6508   3.094  10.065   4.989  0.0008 -0.6422  0.2833
 1501SOL     OW 6509   4.111   5.351   4.429  0.2164  0.6268 -0.0249
 1501SOL    HW1 6510   4.104   5.446   4.431  0.9556  0.7970 -2.4750
 1501SOL    HW2 6511   4.149   5.327   4.514  1.9161  2.7018 -0.1396
 1502SOL     OW 6512  10.352   9.726   2.223 -0.0192 -0.8439  0.3983
 1502SOL    HW1 6513  10.441   9.717   2.257  0.2079  0.1975  0.1178
 1502SOL    HW2 6514  10.350   9.814   2.184 -1.6624 -0.1683  1.8811
 1503SOL     OW 6515   8.983   8.357   6.052  0.5968 -0.2471 -0.2801
 1503SOL    HW1 6516   8.955   8.275   6.011  0.0972 -1.1041  1.6583
 1503SOL    HW2 6517   8.902   8.407   6.064  0.8100  0.2417 -0.8270
 1504SOL     OW 6518   2.379   0.312   5.762  0.0116 -0.2771  0.0382
 1504SOL    HW1 6519   2.387   0.266   5.679  1.1141  0.5928 -0.3682
 1504SOL    HW2 6520   2.345   0.398   5.738  1.0963  0.2610  0.3680
 1505SOL     OW 6521   7.338   1.936   1.085 -0.8838 -0.5458  0.0293
 1505SOL    HW1 6522   7.316   1.917   0.994 -2.3553 -0.1891  0.2836
 1505SOL    HW2 6523   7.349   2.031   1.087 -0.2862 -0.6161  0.1131
 1506SOL     OW 6524   3.887   3.458   6.857  0.0613  0.9294 -0.3332
 1506SOL    HW1 6525   3.846   3.451   6.771  0.3491 -0.1871 -0.3997
 1506SOL    HW2 6526   3.814   3.461   6.918 -0.1530 -0.0305 -0.5186
 1507SOL     OW 6527  10.584   2.129   7.913 -0.1480 -0.5677  0.3654
 1507SOL    HW1 6528  10.564   2.141   7.820 -2.0824 -1.3358  0.6463
 1507SOL    HW2 6529  10.605   2.217   7.943 -0.5521 -0.1293 -0.5732
 1508SOL     OW 6530  10.938   8.644   2.076  0.6771 -0.0451  0.2195
 1508SOL    HW1 6531  10.969   8.718   2.127  2.5405 -0.6184  0.0132
 1508SOL    HW2 6532  11.007   8.578   2.085 -0.6266 -1.5274 -0.1118
 1509SOL     OW 6533   4.881   7.483   3.574 -0.3576 -0.2721  0.3668
 1509SOL    HW1 6534   4.926   7.506   3.655  4.0445 -1.1382 -1.5378
 1509SOL    HW2 6535   4.874   7.387   3.576  0.0612 -0.3316 -0.3122
 1510SOL     OW 6536   7.068   7.804   5.830 -0.0864  0.3541 -0.1136
 1510SOL    HW1 6537   6.988   7.753   5.843 -0.6034  1.2533  0.3550
 1510SOL    HW2 6538   7.131   7.742   5.793 -1.2824 -0.1384 -1.3906
 1511SOL     OW 6539  10.984   4.481   8.310 -0.1407  0.0120  0.2813
 1511SOL    HW1 6540  11.026   4.495   8.225 -1.3119  0.1936 -0.2788
 1511SOL    HW2 6541  11.008   4.391   8.334  0.0221 -0.1119 -0.3423
 1512SOL     OW 6542   7.467   6.185   3.066 -0.1243  0.0503  0.2589
 1512SOL    HW1 6543   7.417   6.186   2.984 -0.8866 -3.0628  0.5413
 1512SOL    HW2 6544   7.404   6.209   3.134  0.0312  0.8235  0.1355
 1513SOL     OW 6545   0.177   9.719   7.664 -0.1410 -0.2000 -0.5216
 1513SOL    HW1 6546   0.259   9.739   7.709 -0.2375  0.5401 -0.6585
 1513SOL    HW2 6547   0.168   9.789   7.600 -2.0239  1.0706  1.0299
 1514SOL     OW 6548   4.225   9.085   9.432  0.0212  0.1389 -0.2893
 1514SOL    HW1 6549   4.224   9.020   9.362 -0.9248  1.1476 -1.2327
 1514SOL    HW2 6550   4.249   9.167   9.389  0.9906  0.4946  0.8483
 1515SOL     OW 6551   3.360   3.045   6.429  0.2310  0.2828 -0.1708
 1515SOL    HW1 6552   3.406   3.117   6.471  0.9425 -0.5054  0.4301
 1515SOL    HW2 6553   3.287   3.025   6.488  0.0970  0.4415 -0.2829
 1516SOL     OW 6554   4.144   4.743   1.191  0.4712  0.0912 -0.1139
 1516SOL    HW1 6555   4.127   4.745   1.096  0.5533 -0.3768 -0.1433
 1516SOL    HW2 6556   4.228   4.786   1.201  0.4350  0.1962 -0.2482
 1517SOL     OW 6557   8.802   4.439   4.491 -0.5864 -0.5739  0.6551
 1517SOL    HW1 6558   8.775   4.404   4.576 -0.2568 -1.7327  0.2942
 1517SOL    HW2 6559   8.827   4.363   4.440 -0.3724  0.1475 -0.3508
 1518SOL     OW 6560   1.200   6.047   9.340  0.6758  0.1478 -0.2121
 1518SOL    HW1 6561   1.279   6.035   9.392  0.7757  2.7119  0.3790
 1518SOL    HW2 6562   1.228   6.102   9.266 -0.5190  1.0569 -0.0216
 1519SOL     OW 6563   9.459  10.299   6.415 -0.2692 -0.2770 -0.4427
 1519SOL    HW1 6564   9.367  10.325   6.415 -0.0823  0.4874  0.8726
 1519SOL    HW2 6565   9.468  10.244   6.493  0.3218 -0.6334 -0.7570
 1520SOL     OW 6566   2.149   7.460   6.581 -0.3384  0.3243  0.5038
 1520SOL    HW1 6567   2.113   7.383   6.536  1.2867  0.5097 -1.2013
 1520SOL    HW2 6568   2.072   7.512   6.603 -1.2815 -0.1030 -1.5158
 1521SOL     OW 6569   1.761   0.290   7.579 -0.0750  0.1660 -0.5135
 1521SOL    HW1 6570   1.722   0.225   7.637 -0.7771 -0.0859 -1.2493
 1521SOL    HW2 6571   1.779   0.365   7.635  1.8398 -1.0588  0.6025
 1522SOL     OW 6572   2.059   3.428   8.023 -0.2895 -0.2542  0.6864
 1522SOL    HW1 6573   2.027   3.364   7.960 -0.3210 -1.1073  1.5344
 1522SOL    HW2 6574   2.056   3.382   8.107 -0.3538  0.8789  1.3285
 1523SOL     OW 6575   7.191   7.825   6.784  0.4033  0.1301 -0.3801
 1523SOL    HW1 6576   7.174   7.760   6.717  1.3319 -0.0779 -0.4201
 1523SOL    HW2 6577   7.109   7.829   6.834  1.2095 -3.2379  1.4922
 1524SOL     OW 6578   9.191   5.209   5.952  0.1691 -0.4097  0.2159
 1524SOL    HW1 6579   9.112   5.240   5.996 -0.6883  1.5232 -2.4306
 1524SOL    HW2 6580   9.244   5.287   5.941  1.0775 -1.1428 -0.7182
 1525SOL     OW 6581   0.225   3.750   0.340 -0.2027  0.1792  0.3690
 1525SOL    HW1 6582   0.178   3.744   0.257  1.2141 -0.7075 -0.4045
 1525SOL    HW2 6583   0.178   3.689   0.398 -0.2152 -0.4574 -0.2947
 1526SOL     OW 6584   1.952   6.606   0.811  0.3064 -0.0446  0.3010
 1526SOL    HW1 6585   1.954   6.526   0.758  1.2644 -0.4775  0.9709
 1526SOL    HW2 6586   1.938   6.576   0.900 -3.9192  0.8237  0.1178
 1527SOL     OW 6587   0.098   5.197   1.273  0.2455 -0.3863  0.1687
 1527SOL    HW1 6588   0.054   5.120   1.309 -1.2490  0.0960 -0.5871
 1527SOL    HW2 6589   0.065   5.270   1.325 -0.9601  0.1529 -1.2963
 1528SOL     OW 6590  10.067   8.619   9.829  0.4838 -0.6721  0.6573
 1528SOL    HW1 6591  10.099   8.653   9.912  0.2272  1.6409 -0.1251
 1528SOL    HW2 6592  10.114   8.670   9.763 -3.2090  1.4893 -0.5663
 1529SOL     OW 6593   4.312   7.304   2.338 -0.0155 -0.2253  0.8082
 1529SOL    HW1 6594   4.231   7.353   2.327 -0.3086 -1.0093 -0.8072
 1529SOL    HW2 6595   4.377   7.355   2.290 -0.1414 -0.9373 -0.1527
 1530SOL     OW 6596   5.457   7.932   6.116 -0.3212 -0.3899 -0.8779
 1530SOL    HW1 6597   5.541   7.948   6.072 -0.4308 -0.0137 -0.9615
 1530SOL    HW2 6598   5.391   7.954   6.050 -0.5142  1.7397 -0.0599
 1531SOL     OW 6599   8.720  10.837   4.019 -0.3107  0.0395 -0.1211
 1531SOL    HW1 6600   8.626  10.821   4.031 -0.7465  1.2716 -1.4664
 1531SOL    HW2 6601   8.723  10.914   3.961  1.5499  1.1795  1.3982
 1532SOL     OW 6602   8.748   4.248   0.086  0.3442 -0.6419 -0.7663
 1532SOL    HW1 6603   8.713   4.163   0.112  0.7165  0.0818  2.6084
 1532SOL    HW2 6604   8.671   4.304   0.074  0.1657 -0.8723 -0.7004
 1533SOL     OW 6605   1.566  10.544   8.255 -0.1452 -0.1171  0.5683
 1533SOL    HW1 6606   1.575  10.451   8.234  0.1158 -0.2890  1.4284
 1533SOL    HW2 6607   1.655  10.578   8.254  0.1761 -0.6201  3.5419
 1534SOL     OW 6608   5.298   7.851   0.431  0.0030 -0.8224 -0.2531
 1534SOL    HW1 6609   5.213   7.826   0.467  0.0442 -1.7357 -0.7672
 1534SOL    HW2 6610   5.336   7.769   0.400  1.2676 -0.4888  0.3720
 1535SOL     OW 6611   3.079   6.039   8.070 -0.1723 -1.1789 -0.1753
 1535SOL    HW1 6612   3.033   6.054   8.152  0.4347  0.4091 -0.0893
 1535SOL    HW2 6613   3.015   5.995   8.014 -1.1615 -0.7071  0.5597
 1536SOL     OW 6614   4.020   7.399   8.540 -0.2653  0.4070 -0.4887
 1536SOL    HW1 6615   4.016   7.305   8.519 -3.4877  0.4141 -0.4948
 1536SOL    HW2 6616   4.050   7.402   8.631 -0.4201 -0.6801 -0.3875
 1537SOL     OW 6617   8.379   0.160   5.844 -0.3728 -0.3090 -0.1370
 1537SOL    HW1 6618   8.368   0.198   5.757 -0.0651  1.1755  0.4529
 1537SOL    HW2 6619   8.325   0.080   5.841 -0.9130  0.0669 -1.4555
 1538SOL     OW 6620   0.503   9.077   6.848 -0.6682 -0.2481  0.3838
 1538SOL    HW1 6621   0.483   9.134   6.922 -1.5683 -0.7461  0.5332
 1538SOL    HW2 6622   0.521   9.137   6.776  0.3173  0.2437  1.0143
 1539SOL     OW 6623   4.688   0.284   9.302 -0.0287 -0.2231 -0.0341
 1539SOL    HW1 6624   4.616   0.221   9.304 -0.9740  0.8347  2.0317
 1539SOL    HW2 6625   4.664   0.343   9.230 -0.9675 -0.1877  0.2883
 1540SOL     OW 6626   5.735   8.859   8.159  0.1197  0.1047  0.6437
 1540SOL    HW1 6627   5.790   8.788   8.127 -2.3667 -1.4540 -0.5201
 1540SOL    HW2 6628   5.766   8.936   8.112  0.2172 -1.0520 -1.3089
 1541SOL     OW 6629   7.118   2.127   9.072  0.0428  0.2090 -0.0280
 1541SOL    HW1 6630   7.066   2.079   9.137 -1.3330  1.2988 -0.2871
 1541SOL    HW2 6631   7.114   2.072   8.993 -0.2245  0.0074  0.1221
 1542SOL     OW 6632  10.755   5.864   0.042 -0.0477 -0.6588  0.4374
 1542SOL    HW1 6633  10.835   5.816   0.020 -0.9348 -2.2225  0.4704
 1542SOL    HW2 6634  10.782   5.928   0.109  1.3457 -0.4765 -0.2729
 1543SOL     OW 6635   7.398   3.064   1.557 -0.5282  0.8568 -0.2824
 1543SOL    HW1 6636   7.307   3.049   1.583 -0.0077  0.6243  1.5918
 1543SOL    HW2 6637   7.446   2.990   1.596  0.3834  0.5765 -1.8566
 1544SOL     OW 6638  10.714   4.480   7.730  0.1076 -0.1584  0.3130
 1544SOL    HW1 6639  10.776   4.553   7.724  2.6598 -2.2652 -0.8352
 1544SOL    HW2 6640  10.692   4.475   7.823  1.0188  1.1516  0.6321
 1545SOL     OW 6641   8.814   5.977   5.705 -0.0779 -0.2347  0.2718
 1545SOL    HW1 6642   8.754   5.939   5.769  0.1129 -1.4658 -0.2547
 1545SOL    HW2 6643   8.901   5.952   5.736  0.1056  0.5563  0.4048
 1546SOL     OW 6644   1.586  10.772   7.446 -0.1073  0.3363  0.0766
 1546SOL    HW1 6645   1.643  10.846   7.426 -0.3148  0.5191  0.1541
 1546SOL    HW2 6646   1.599  10.756   7.539  1.4398 -1.0047 -0.3096
 1547SOL     OW 6647  10.552   8.782   8.928 -0.2775 -0.2867 -0.4195
 1547SOL    HW1 6648  10.493   8.798   8.855  1.0182  0.6648 -1.3036
 1547SOL    HW2 6649  10.634   8.752   8.888 -0.0574 -1.3503  0.7520
 1548SOL     OW 6650   6.403   4.733   7.574  0.2676  0.4344 -0.2030
 1548SOL    HW1 6651   6.382   4.750   7.482  1.9713  0.0050 -0.7133
 1548SOL    HW2 6652   6.453   4.810   7.601  1.1383 -0.1451 -0.1325
 1549SOL     OW 6653   8.872   1.573   5.750 -0.0222  0.5191 -0.3469
 1549SOL    HW1 6654   8.953   1.556   5.798 -0.3394 -0.6683 -0.2014
 1549SOL    HW2 6655   8.851   1.664   5.770  0.3830  0.3434  0.9685
 1550SOL     OW 6656   9.725   8.017   4.755  0.0672 -0.2192 -0.8603
 1550SOL    HW1 6657   9.747   8.052   4.842 -0.4441 -1.5631 -0.1555
 1550SOL    HW2 6658   9.752   8.086   4.694  1.8335  0.1565  0.2548
 1551SOL     OW 6659   8.496  10.661  10.634 -0.1063  0.1714  0.2933
 1551SOL    HW1 6660   8.464  10.618  10.713  1.7843 -1.8155  0.0807
 1551SOL    HW2 6661   8.569  10.606  10.605  2.2950  3.3830 -0.2395
 1552SOL     OW 6662   8.654   7.861   0.252 -0.0403  0.8144 -0.1039
 1552SOL    HW1 6663   8.580   7.821   0.205  0.5610 -0.6373  0.1582
 1552SOL    HW2 6664   8.720   7.875   0.185  0.2640  0.0994  0.0435
 1553SOL     OW 6665   9.803   9.575   0.503  0.2134  0.1943 -0.4242
 1553SOL    HW1 6666   9.800   9.527   0.586  1.1025  0.3455 -0.2951
 1553SOL    HW2 6667   9.712   9.598   0.486 -0.0816 -0.5117  0.1145
 1554SOL     OW 6668   3.121   8.153   4.699 -0.3729 -0.3771  0.1904
 1554SOL    HW1 6669   3.141   8.063   4.726 -1.0021 -0.6520 -0.2364
 1554SOL    HW2 6670   3.026   8.159   4.704 -0.3271  0.2997  0.3027
 1555SOL     OW 6671   9.837   9.140  10.591  0.1872 -0.4826  0.3346
 1555SOL    HW1 6672   9.879   9.174  10.671  0.6705  1.3448 -0.6600
 1555SOL    HW2 6673   9.846   9.210  10.527  1.3526 -2.5194 -1.9000
 1556SOL     OW 6674   5.938  10.763   5.452  0.5343  0.4054 -0.1902
 1556SOL    HW1 6675   6.010  10.797   5.399 -0.2042 -0.0558 -1.5373
 1556SOL    HW2 6676   5.859  10.804   5.416 -0.2109 -1.5318 -0.8986
 1557SOL     OW 6677   8.583   4.799   9.949 -0.1068  0.0333  0.4740
 1557SOL    HW1 6678   8.488   4.802   9.963 -0.3427  0.3695 -1.0234
 1557SOL    HW2 6679   8.595   4.833   9.861  1.4864  0.6603  0.8999
 1558SOL     OW 6680   0.874   7.157   3.570 -0.2088 -0.2086  0.1297
 1558SOL    HW1 6681   0.860   7.203   3.487 -0.6098  0.5170  0.5846
 1558SOL    HW2 6682   0.929   7.082   3.547 -0.5554 -0.1872 -0.8392
 1559SOL     OW 6683   4.656   7.975  10.078 -0.7339 -0.1067  0.1365
 1559SOL    HW1 6684   4.608   7.978  10.161  0.2412  1.1996  0.6631
 1559SOL    HW2 6685   4.591   7.942  10.015 -1.8341  0.0396  1.1597
 1560SOL     OW 6686   4.981   7.535   7.103 -0.2443 -0.1092 -0.2549
 1560SOL    HW1 6687   4.939   7.554   7.018 -0.4251 -0.7833 -0.3227
 1560SOL    HW2 6688   5.011   7.621   7.134 -3.1443  0.7208  0.5954
 1561SOL     OW 6689   8.263  10.283   1.353 -0.3240  0.1232 -0.6753
 1561SOL    HW1 6690   8.224  10.210   1.306  0.5798 -0.1079 -1.0651
 1561SOL    HW2 6691   8.300  10.339   1.285  1.1228 -0.2884 -0.2455
 1562SOL     OW 6692   2.004   5.986   3.239  0.3753 -0.7999 -0.4643
 1562SOL    HW1 6693   1.999   6.024   3.327  1.2309 -0.7424 -0.4389
 1562SOL    HW2 6694   1.913   5.984   3.209  0.1525 -0.1771  0.1472
 1563SOL     OW 6695   5.353   7.606   3.303 -0.2395 -0.4234  0.3699
 1563SOL    HW1 6696   5.285   7.599   3.370  0.3236 -0.4590  0.9517
 1563SOL    HW2 6697   5.405   7.681   3.330 -0.1027 -0.3402 -0.1220
 1564SOL     OW 6698   4.858   3.985   0.833  0.0393 -0.1403  0.3651
 1564SOL    HW1 6699   4.939   4.004   0.785  0.8533 -2.1356  0.8487
 1564SOL    HW2 6700   4.849   4.057   0.895  0.6608  0.8425 -0.6462
 1565SOL     OW 6701   7.855   2.536  10.399 -0.4860 -0.0172  0.2196
 1565SOL    HW1 6702   7.882   2.627  10.401  0.4882 -0.2992  0.8625
 1565SOL    HW2 6703   7.917   2.493  10.341 -1.6873 -0.0812 -1.0915
 1566SOL     OW 6704   4.727   3.274   5.417 -0.2235 -0.3659 -0.1789
 1566SOL    HW1 6705   4.802   3.325   5.447 -0.7521  0.4570 -0.2215
 1566SOL    HW2 6706   4.731   3.282   5.321 -1.8036  1.8696 -0.1329
 1567SOL     OW 6707  10.333   3.200   8.418 -0.0129  0.0103  0.4880
 1567SOL    HW1 6708  10.266   3.258   8.454 -1.2289 -1.4155  0.6611
 1567SOL    HW2 6709  10.285   3.143   8.357  1.3906  0.1223 -0.8034
 1568SOL     OW 6710   4.097   9.821   6.440 -0.2162 -0.3103 -0.5916
 1568SOL    HW1 6711   4.084   9.740   6.391 -0.3721  0.6293 -2.1806
 1568SOL    HW2 6712   4.110   9.888   6.372 -2.3086  1.4028  0.5737
 1569SOL     OW 6713   6.929   7.626   8.996 -0.2095 -0.1783  0.2146
 1569SOL    HW1 6714   6.867   7.598   8.928 -0.6958  1.1226  0.1105
 1569SOL    HW2 6715   6.879   7.684   9.053  1.0698  1.4942 -0.2935
 1570SOL     OW 6716  10.375   8.092   3.541 -0.4167 -0.3780  0.2351
 1570SOL    HW1 6717  10.316   8.133   3.478 -1.2905 -0.0351  1.2405
 1570SOL    HW2 6718  10.456   8.076   3.492 -0.2780  1.9269 -0.3841
 1571SOL     OW 6719   8.536   0.315   9.104 -0.5927 -0.4145 -0.2164
 1571SOL    HW1 6720   8.563   0.358   9.024 -2.0500 -1.7481 -1.5022
 1571SOL    HW2 6721   8.504   0.385   9.161 -1.2635  0.3900 -1.5480
 1572SOL     OW 6722   2.653   4.907   6.877 -0.1250  0.6101  0.0821
 1572SOL    HW1 6723   2.592   4.962   6.829 -1.1980 -0.2857  0.3651
 1572SOL    HW2 6724   2.602   4.875   6.952  0.1162 -1.5315 -0.6027
 1573SOL     OW 6725  10.431   8.263   6.247 -0.1337 -0.8695 -0.7598
 1573SOL    HW1 6726  10.337   8.278   6.247 -0.3054 -1.6080 -2.9047
 1573SOL    HW2 6727  10.453   8.245   6.155  2.2903  0.4098 -0.5276
 1574SOL     OW 6728   5.187  10.189   7.742  0.0987  0.3792 -0.3950
 1574SOL    HW1 6729   5.164  10.225   7.828 -1.3705 -0.7984 -0.2567
 1574SOL    HW2 6730   5.278  10.160   7.752 -0.1913 -0.1529  0.9252
 1575SOL     OW 6731   7.873   3.851  10.735 -0.0755 -0.3102  0.3200
 1575SOL    HW1 6732   7.787   3.811  10.747 -0.7773  0.5608 -1.4589
 1575SOL    HW2 6733   7.896   3.833  10.644  0.9155  0.7817  0.3244
 1576SOL     OW 6734   9.035  10.633   4.666  0.0888  0.1499  0.4366
 1576SOL    HW1 6735   9.123  10.595   4.669  0.0451  0.0893  0.9683
 1576SOL    HW2 6736   8.994  10.593   4.589  1.3696  2.0368 -1.3253
 1577SOL     OW 6737   7.740   6.676   5.282 -0.0496 -0.5097 -0.6648
 1577SOL    HW1 6738   7.802   6.730   5.233 -0.5834 -0.5635 -1.4185
 1577SOL    HW2 6739   7.767   6.586   5.263  1.1251 -0.5383  0.9606
 1578SOL     OW 6740   2.699   1.203   9.587  0.0446 -0.2127  0.0864
 1578SOL    HW1 6741   2.763   1.156   9.534 -0.7001 -0.3091 -0.7522
 1578SOL    HW2 6742   2.642   1.246   9.523  0.3540  1.3540  0.8245
 1579SOL     OW 6743  10.364   5.272   6.774  0.0160  0.0008  0.5664
 1579SOL    HW1 6744  10.396   5.273   6.684 -1.7356  1.0582 -0.0960
 1579SOL    HW2 6745  10.303   5.346   6.779 -2.4961 -1.9594  1.6009
 1580SOL     OW 6746   7.527   8.141   4.547 -0.1872 -0.6264 -0.1297
 1580SOL    HW1 6747   7.549   8.092   4.468  1.9759 -0.5466  0.3582
 1580SOL    HW2 6748   7.612   8.160   4.588 -1.2027 -0.1301  1.8886
 1581SOL     OW 6749   4.131   1.139   8.392 -0.4085 -0.0559 -0.1801
 1581SOL    HW1 6750   4.128   1.234   8.404 -0.0608  0.0465 -0.8712
 1581SOL    HW2 6751   4.195   1.109   8.456  0.9667  0.4153 -1.2899
 1582SOL     OW 6752   4.015   8.491  10.269 -0.1061  0.2065 -0.1641
 1582SOL    HW1 6753   4.101   8.504  10.310 -0.9440  1.9405  1.1674
 1582SOL    HW2 6754   4.009   8.558  10.202 -1.4656  2.0111  1.6401
 1583SOL     OW 6755   5.138   0.280   5.341 -0.4941  0.0738  0.1820
 1583SOL    HW1 6756   5.048   0.247   5.336 -0.9550  1.1016  1.1178
 1583SOL    HW2 6757   5.128   0.374   5.356  0.7157  0.0473  1.3554
 1584SOL     OW 6758   1.050   5.260   8.281  0.1146  0.3053  0.5987
 1584SOL    HW1 6759   0.984   5.311   8.234  1.6310 -0.0937 -2.1963
 1584SOL    HW2 6760   1.104   5.324   8.326 -0.0355  0.9208 -0.0836
 1585SOL     OW 6761   3.721   2.222   5.373 -0.3886  0.4448  0.1708
 1585SOL    HW1 6762   3.675   2.170   5.439 -0.9760  0.0439 -0.5337
 1585SOL    HW2 6763   3.787   2.271   5.422 -1.0486  0.4307  1.0976
 1586SOL     OW 6764   9.120  10.761   1.487 -0.6084  0.5389 -0.3842
 1586SOL    HW1 6765   9.033  10.723   1.500  0.1796 -1.7172 -1.2012
 1586SOL    HW2 6766   9.178  10.706   1.540  0.3835  1.8264 -0.0967
 1587SOL     OW 6767   2.620   0.493   0.868 -0.2178 -0.5993 -0.4184
 1587SOL    HW1 6768   2.541   0.487   0.814 -0.3204 -0.0371 -0.3422
 1587SOL    HW2 6769   2.621   0.584   0.897 -0.0415 -0.8345  0.3374
 1588SOL     OW 6770   0.837   6.518   7.481 -0.5005  0.1872  0.4266
 1588SOL    HW1 6771   0.765   6.512   7.419  0.0714  0.9051 -0.3342
 1588SOL    HW2 6772   0.836   6.435   7.528 -1.1925 -0.2031 -0.2718
 1589SOL     OW 6773   8.384   3.491   8.729  0.3166  0.1576  0.9243
 1589SOL    HW1 6774   8.462   3.492   8.784 -0.6202  1.0961  2.2873
 1589SOL    HW2 6775   8.354   3.582   8.728  0.3475  0.2060 -1.2430
 1590SOL     OW 6776  10.583   9.534   0.602  0.6462  0.0654 -0.0789
 1590SOL    HW1 6777  10.591   9.453   0.654  1.9820  0.3890  0.2532
 1590SOL    HW2 6778  10.522   9.588   0.652 -1.3539 -1.2110 -0.9756
 1591SOL     OW 6779   3.107   3.815   5.002  0.2593  0.5479  0.3766
 1591SOL    HW1 6780   3.121   3.777   5.088  0.1837  0.3639  0.3083
 1591SOL    HW2 6781   3.030   3.872   5.013  1.3638  2.0064  0.8926
 1592SOL     OW 6782   1.951   5.756   3.922  0.1147 -0.2774 -0.4799
 1592SOL    HW1 6783   1.949   5.809   4.002 -0.1583 -0.1952 -0.5415
 1592SOL    HW2 6784   1.918   5.814   3.854  1.5972  0.0911 -0.9124
 1593SOL     OW 6785   3.726   6.832   4.938  0.1925 -0.0992 -0.1589
 1593SOL    HW1 6786   3.757   6.743   4.918  1.9075  0.5753 -0.7135
 1593SOL    HW2 6787   3.787   6.865   5.004 -0.7794  0.4700  0.4767
 1594SOL     OW 6788   8.086   0.353   5.343 -0.1502  0.5498  0.2899
 1594SOL    HW1 6789   8.095   0.261   5.318 -2.5853  0.5937 -1.0905
 1594SOL    HW2 6790   8.118   0.402   5.268 -2.0899  0.7404 -0.4695
 1595SOL     OW 6791   8.781   5.372  10.889 -0.2156 -0.4399 -0.0165
 1595SOL    HW1 6792   8.845   5.333  10.949  0.5999  0.6532 -0.1468
 1595SOL    HW2 6793   8.827   5.378  10.805 -0.6088  0.0410 -0.1984
 1596SOL     OW 6794   8.455   5.939  10.065  0.2683  0.1394 -0.1016
 1596SOL    HW1 6795   8.427   5.872  10.003 -0.5342  0.9419 -0.6262
 1596SOL    HW2 6796   8.548   5.952  10.046  1.1906 -2.7217  1.8152
 1597SOL     OW 6797   7.660   1.665   7.608 -0.3345  0.3840 -0.4380
 1597SOL    HW1 6798   7.576   1.673   7.653  0.3804  3.1535  0.5595
 1597SOL    HW2 6799   7.699   1.752   7.612  1.7561 -0.3241 -2.5972
 1598SOL     OW 6800   0.481   5.325   2.662  0.2142  0.5378 -0.0938
 1598SOL    HW1 6801   0.525   5.401   2.625  0.8057  0.5780  0.6424
 1598SOL    HW2 6802   0.489   5.257   2.595  0.2411  0.9433 -0.5003
 1599SOL     OW 6803   7.621   2.016   8.746  0.6377  0.3536  0.6914
 1599SOL    HW1 6804   7.542   1.977   8.784  1.0327  1.1102  2.3849
 1599SOL    HW2 6805   7.664   1.944   8.699 -1.7141  0.2352 -1.4990
 1600SOL     OW 6806   9.348   4.704   5.070 -0.1360  0.0139  0.0663
 1600SOL    HW1 6807   9.405   4.627   5.077 -0.5361 -0.5665 -2.1863
 1600SOL    HW2 6808   9.342   4.721   4.976 -1.4969  1.7266  0.4090
 1601SOL     OW 6809   4.725   2.687   6.139  0.8675 -0.1688  0.5749
 1601SOL    HW1 6810   4.746   2.779   6.152  0.4007 -0.0751  0.7017
 1601SOL    HW2 6811   4.638   2.677   6.178  0.9565 -0.6828  0.6430
 1602SOL     OW 6812   8.037   8.713   6.714 -0.1940  0.2082 -0.4247
 1602SOL    HW1 6813   7.976   8.671   6.774  1.2237 -0.4565  0.6056
 1602SOL    HW2 6814   8.035   8.806   6.737 -0.5158  0.1291 -0.1346
 1603SOL     OW 6815   4.634   9.753   3.051 -0.4099  0.0329  0.2291
 1603SOL    HW1 6816   4.678   9.831   3.019  1.1003 -0.5339  0.8162
 1603SOL    HW2 6817   4.572   9.729   2.981 -0.6127  1.4971 -0.1172
 1604SOL     OW 6818   3.150   8.126   9.903  0.2480 -0.0980  0.6845
 1604SOL    HW1 6819   3.117   8.209   9.870  2.4755  0.5565 -0.0914
 1604SOL    HW2 6820   3.073   8.083   9.942 -1.5093  1.1615 -1.1819
 1605SOL     OW 6821   7.648  10.015   1.802  0.4806  0.6204 -0.4299
 1605SOL    HW1 6822   7.740  10.007   1.828  0.8565  2.7997 -0.9441
 1605SOL    HW2 6823   7.607  10.064   1.873  0.1443  1.2691 -1.0602
 1606SOL     OW 6824   8.771   0.559   2.617  0.1240 -0.0225 -0.1353
 1606SOL    HW1 6825   8.705   0.493   2.642 -0.1040  0.7420  1.3760
 1606SOL    HW2 6826   8.775   0.553   2.521 -1.1958 -0.9961 -0.1637
 1607SOL     OW 6827   9.903   3.036   7.395 -0.3819  0.3143 -0.7753
 1607SOL    HW1 6828   9.808   3.028   7.386 -0.6517 -0.6467  2.0170
 1607SOL    HW2 6829   9.931   2.953   7.433  1.2336  1.3809  0.5480
 1608SOL     OW 6830   8.372   0.122   1.621 -0.7354 -0.2497  0.0156
 1608SOL    HW1 6831   8.411   0.203   1.653 -1.9423 -0.0689  1.1392
 1608SOL    HW2 6832   8.444   0.058   1.622 -0.6601 -0.3175  3.4397
 1609SOL     OW 6833   0.881  10.499   0.049 -0.1157 -0.2422  0.3743
 1609SOL    HW1 6834   0.824  10.461   0.116 -0.8917 -0.7573 -0.5422
 1609SOL    HW2 6835   0.957  10.441   0.048 -0.7982 -1.1592 -0.2445
 1610SOL     OW 6836   3.598   2.890   3.082  0.4044 -0.2250 -0.8743
 1610SOL    HW1 6837   3.526   2.834   3.112 -0.1467 -0.1054 -1.9409
 1610SOL    HW2 6838   3.676   2.851   3.123 -0.1190 -1.0300 -0.6053
 1611SOL     OW 6839   3.607   3.675   0.700  0.2299 -0.3272  0.2942
 1611SOL    HW1 6840   3.653   3.593   0.684  1.0486  0.2353 -0.2877
 1611SOL    HW2 6841   3.514   3.653   0.691  0.5111 -0.7028 -2.2619
 1612SOL     OW 6842   6.678   4.937   9.031  0.1996  0.0059  0.0960
 1612SOL    HW1 6843   6.718   4.864   8.985  1.0215  0.1803  0.5216
 1612SOL    HW2 6844   6.702   5.014   8.980 -0.5108  0.0153 -0.2486
 1613SOL     OW 6845   3.628   0.056   2.727 -0.3627 -0.0343  0.4304
 1613SOL    HW1 6846   3.692   0.007   2.779  0.1969 -0.2209 -0.4023
 1613SOL    HW2 6847   3.682   0.113   2.671 -0.9169 -0.2912 -0.3806
 1614SOL     OW 6848   3.398   6.572   0.552 -0.0740 -0.0592 -0.3206
 1614SOL    HW1 6849   3.352   6.489   0.540  2.2342 -1.3268 -1.0308
 1614SOL    HW2 6850   3.443   6.587   0.468  1.1543  0.8501  0.4628
 1615SOL     OW 6851   1.333   3.302   1.214 -0.3480 -0.0194 -0.3434
 1615SOL    HW1 6852   1.243   3.313   1.245 -0.4030 -2.4034  0.5477
 1615SOL    HW2 6853   1.382   3.279   1.293  0.6701 -0.5959 -1.1193
 1616SOL     OW 6854   0.631   5.664   6.746 -0.1750  0.0886 -0.6023
 1616SOL    HW1 6855   0.717   5.705   6.738  0.6473 -1.1473  1.2747
 1616SOL    HW2 6856   0.582   5.721   6.806  0.6376 -1.0351  1.2281
 1617SOL     OW 6857  10.987   5.387   7.625  0.1045 -0.6369 -0.2207
 1617SOL    HW1 6858  11.064   5.329   7.628  1.3402  0.9288 -0.5731
 1617SOL    HW2 6859  10.994   5.440   7.704  0.5646  0.9307 -1.2760
 1618SOL     OW 6860  10.233   7.450   0.135 -0.7012  0.5292 -0.8184
 1618SOL    HW1 6861  10.154   7.499   0.159  0.5925  2.0384  0.5625
 1618SOL    HW2 6862  10.260   7.487   0.052 -0.8303  0.7766 -0.7512
 1619SOL     OW 6863   0.362  10.627   7.779  0.5782 -0.6278  0.4576
 1619SOL    HW1 6864   0.453  10.602   7.766  0.4840 -0.6849 -0.1312
 1619SOL    HW2 6865   0.358  10.718   7.751  0.4456 -0.6415  0.4297
 1620SOL     OW 6866   4.377   2.769   7.354 -0.0707  0.2453 -0.0239
 1620SOL    HW1 6867   4.399   2.755   7.262 -1.4969  1.1327 -0.5313
 1620SOL    HW2 6868   4.369   2.864   7.363  0.6287  0.2086  1.1733
 1621SOL     OW 6869   8.396   6.345   7.513  0.2727 -0.2733  0.1167
 1621SOL    HW1 6870   8.408   6.391   7.596  0.0650 -1.1012  0.6196
 1621SOL    HW2 6871   8.407   6.253   7.535  0.3391 -0.4941 -0.8042
 1622SOL     OW 6872   5.410   5.655   9.726  0.7629 -0.1608  0.0281
 1622SOL    HW1 6873   5.413   5.582   9.788 -0.8492 -1.4175 -1.2842
 1622SOL    HW2 6874   5.497   5.656   9.686  0.6556 -1.7511 -0.3206
 1623SOL     OW 6875   6.616   3.599   7.039 -0.5941  0.1699 -0.5515
 1623SOL    HW1 6876   6.682   3.578   7.105 -0.5526 -0.5477 -0.8189
 1623SOL    HW2 6877   6.592   3.690   7.058  0.9486  0.6769 -0.8464
 1624SOL     OW 6878   6.782   7.097   1.141  0.2817 -0.1039  0.0564
 1624SOL    HW1 6879   6.761   7.039   1.068  0.7550  0.5666 -0.6224
 1624SOL    HW2 6880   6.867   7.067   1.172  0.1667 -0.2684  0.2157
 1625SOL     OW 6881   2.035   1.666   4.920 -0.3649 -0.3833  0.6216
 1625SOL    HW1 6882   2.110   1.700   4.871 -0.0247 -0.9230  0.7703
 1625SOL    HW2 6883   1.962   1.721   4.891 -0.4030 -1.3823 -1.3480
 1626SOL     OW 6884   5.144  10.682  10.381 -0.0007  0.0619  0.2927
 1626SOL    HW1 6885   5.152  10.753  10.317 -2.4008  0.7369  0.6268
 1626SOL    HW2 6886   5.086  10.717  10.449  1.3241 -1.1435  2.1298
 1627SOL     OW 6887   9.114   9.472   7.816  0.5562  0.1075  1.2882
 1627SOL    HW1 6888   9.049   9.530   7.855  0.0790 -0.2516  1.0474
 1627SOL    HW2 6889   9.109   9.392   7.868  1.4827  0.4029  1.8635
 1628SOL     OW 6890   0.388   4.299   0.381 -0.0013 -0.0543 -0.2107
 1628SOL    HW1 6891   0.434   4.230   0.428  1.7144 -0.6551 -2.5641
 1628SOL    HW2 6892   0.314   4.255   0.340  0.0964 -0.1213 -0.3147
 1629SOL     OW 6893   1.877   3.421   6.835  0.4346 -0.4414  0.2217
 1629SOL    HW1 6894   1.920   3.457   6.757  2.5380  0.0496  1.5366
 1629SOL    HW2 6895   1.891   3.327   6.829  1.8635 -0.2848  0.6687
 1630SOL     OW 6896   2.305   3.343   4.310  0.1206 -0.1775  0.1387
 1630SOL    HW1 6897   2.277   3.310   4.224  0.2150  1.0856 -0.3901
 1630SOL    HW2 6898   2.400   3.355   4.301  0.3107 -1.0707  0.7854
 1631SOL     OW 6899   8.567   8.820   3.035 -0.2737 -0.1492 -0.0696
 1631SOL    HW1 6900   8.539   8.741   3.081 -1.7475  0.5164  0.2313
 1631SOL    HW2 6901   8.646   8.847   3.080 -0.6580 -0.5526  0.8735
 1632SOL     OW 6902   0.376  10.453   6.084 -0.5212  0.0198 -0.0426
 1632SOL    HW1 6903   0.393  10.540   6.121 -1.9279  0.5557 -0.6013
 1632SOL    HW2 6904   0.382  10.465   5.990 -0.0368 -0.6636 -0.1094
 1633SOL     OW 6905   7.779   2.914   7.012 -0.1237  0.0748 -0.0767
 1633SOL    HW1 6906   7.689   2.916   6.978 -0.5190  2.2081  0.9386
 1633SOL    HW2 6907   7.820   2.993   6.976  0.5650  0.4278  1.4055
 1634SOL     OW 6908   1.888   2.164   3.123  0.1154  0.1453 -0.1300
 1634SOL    HW1 6909   1.799   2.201   3.124 -0.0906 -0.3425  1.2566
 1634SOL    HW2 6910   1.925   2.196   3.040 -1.2668  0.5322 -0.6441
 1635SOL     OW 6911  10.910   6.842   9.104 -0.1739 -0.0037 -0.2219
 1635SOL    HW1 6912  10.994   6.874   9.073  0.9740 -1.1305  1.5716
 1635SOL    HW2 6913  10.869   6.805   9.026  0.5400  1.4239 -1.3191
 1636SOL     OW 6914   6.075   1.081   9.551 -0.7482 -0.9189 -0.1904
 1636SOL    HW1 6915   6.000   1.117   9.504 -1.1018  0.9132  1.6404
 1636SOL    HW2 6916   6.150   1.132   9.520 -1.2214  1.5094  2.2620
 1637SOL     OW 6917   6.832   8.990   0.523  0.3694  0.0287 -0.4049
 1637SOL    HW1 6918   6.850   8.956   0.611 -1.9107 -0.9967 -0.2680
 1637SOL    HW2 6919   6.855   8.917   0.464 -1.5474 -0.7068 -0.3322
 1638SOL     OW 6920   7.493   7.242   5.392 -0.3198  0.4636 -0.3291
 1638SOL    HW1 6921   7.474   7.312   5.330 -0.5221  0.2062 -0.5615
 1638SOL    HW2 6922   7.504   7.164   5.338 -0.8111  0.1723 -0.0245
 1639SOL     OW 6923   3.279   7.164   1.634  0.1105  0.1865  0.2180
 1639SOL    HW1 6924   3.216   7.235   1.617  0.2562  0.3128  0.2024
 1639SOL    HW2 6925   3.263   7.140   1.726 -1.4252 -1.2377 -0.3579
 1640SOL     OW 6926   4.043   8.691   8.135  0.0102  0.3108 -0.3175
 1640SOL    HW1 6927   4.130   8.703   8.171 -0.4511  1.3110  0.5162
 1640SOL    HW2 6928   4.000   8.775   8.149 -0.8625  0.0540 -1.3459
 1641SOL     OW 6929   1.971   7.792  10.414 -0.3360 -0.0770  0.0474
 1641SOL    HW1 6930   1.947   7.699  10.416  0.0241 -0.2567 -2.1315
 1641SOL    HW2 6931   2.065   7.792  10.430 -0.0665 -0.2398 -1.4429
 1642SOL     OW 6932   4.380   2.651   8.272  0.6972 -0.4369 -0.0036
 1642SOL    HW1 6933   4.420   2.708   8.338  1.7612 -0.8098 -0.3057
 1642SOL    HW2 6934   4.395   2.697   8.189 -0.6797  0.0558 -0.0076
 1643SOL     OW 6935  10.367   6.157   8.490  0.3256 -0.1343  0.4609
 1643SOL    HW1 6936  10.397   6.093   8.424  1.2417  1.2188 -0.5071
 1643SOL    HW2 6937  10.417   6.237   8.469 -0.6784  0.8537  1.7141
 1644SOL     OW 6938   5.945   6.116   5.870  0.1462 -0.3898 -0.0300
 1644SOL    HW1 6939   5.962   6.198   5.825 -0.0522 -0.4507 -0.2174
 1644SOL    HW2 6940   6.024   6.063   5.855  1.4386  0.7192  2.3077
 1645SOL     OW 6941   0.160   3.335   7.356 -0.1293 -0.6658  0.4821
 1645SOL    HW1 6942   0.169   3.346   7.261  0.7371  1.3597  0.7475
 1645SOL    HW2 6943   0.068   3.313   7.369 -1.3284  2.8976 -0.6368
 1646SOL     OW 6944   0.677   2.639   6.517  0.0307  0.1490 -0.2172
 1646SOL    HW1 6945   0.589   2.603   6.508 -0.4648  1.2585 -0.0100
 1646SOL    HW2 6946   0.731   2.584   6.460 -1.0482  0.3084 -1.4506
 1647SOL     OW 6947   1.799   2.916   6.040 -0.1344  0.0269 -0.2110
 1647SOL    HW1 6948   1.772   2.899   5.949  0.4444 -0.9872 -0.2047
 1647SOL    HW2 6949   1.872   2.977   6.032 -0.8145  0.8445 -0.3547
 1648SOL     OW 6950   7.883  10.965  10.623 -0.1289  0.1454  0.7353
 1648SOL    HW1 6951   7.978  10.975  10.615 -0.2799  0.9529 -0.2632
 1648SOL    HW2 6952   7.861  10.895  10.562 -0.0166 -1.1156  2.0847
 1649SOL     OW 6953   1.928  10.016   8.445  0.4494  0.0649 -0.3183
 1649SOL    HW1 6954   1.944   9.923   8.460  1.5955  0.0238 -1.6138
 1649SOL    HW2 6955   2.002  10.045   8.392  0.4514  1.8739  0.5927
 1650SOL     OW 6956   0.566   4.965   2.771 -0.3468 -0.0430  0.1386
 1650SOL    HW1 6957   0.491   4.966   2.712  0.5414  2.0683 -1.0500
 1650SOL    HW2 6958   0.551   4.889   2.827 -2.8561 -0.2485 -0.6863
 1651SOL     OW 6959   5.287   0.713   4.438  0.3907 -0.4358  0.0252
 1651SOL    HW1 6960   5.287   0.699   4.344  2.0052  0.3782 -0.1420
 1651SOL    HW2 6961   5.343   0.644   4.473 -1.3114 -1.6000  0.5971
 1652SOL     OW 6962   6.997   3.914   6.331 -0.3987 -0.2956  0.1723
 1652SOL    HW1 6963   7.091   3.903   6.342 -0.5154  0.2068  1.8025
 1652SOL    HW2 6964   6.983   4.008   6.330 -1.2803 -0.2061  4.4333
 1653SOL     OW 6965   3.988   6.608   3.715  0.1394 -0.1232  0.1701
 1653SOL    HW1 6966   4.078   6.577   3.725  1.0305  2.1384 -0.1996
 1653SOL    HW2 6967   3.935   6.538   3.752  2.0973 -1.1118  1.3200
 1654SOL     OW 6968   8.934   1.403   0.538 -0.0562 -0.0337  0.2449
 1654SOL    HW1 6969   8.942   1.497   0.551 -0.9618  0.0999 -0.1026
 1654SOL    HW2 6970   9.015   1.367   0.573 -0.0459  0.7996  1.1079
 1655SOL     OW 6971   5.016   4.417   5.492 -0.0534 -0.2028 -0.3260
 1655SOL    HW1 6972   5.052   4.385   5.410 -0.0788 -1.2295  0.0557
 1655SOL    HW2 6973   4.953   4.351   5.518 -0.8738  0.6703 -0.0440
 1656SOL     OW 6974   1.663   4.056  10.137 -0.2593  0.3476  0.5644
 1656SOL    HW1 6975   1.690   4.034  10.227 -1.1609 -0.2246  0.7088
 1656SOL    HW2 6976   1.649   4.150  10.139 -0.5371  0.3023  1.1004
 1657SOL     OW 6977   4.845   3.960   4.364  0.0598  0.2933  0.0127
 1657SOL    HW1 6978   4.915   3.946   4.428 -0.8681  1.9400  1.4812
 1657SOL    HW2 6979   4.805   3.873   4.352  2.5151 -0.7587 -1.1516
 1658SOL     OW 6980   0.629  10.787   0.594 -0.2608  1.0741 -0.3138
 1658SOL    HW1 6981   0.609  10.794   0.501 -1.0398  0.6201 -0.1929
 1658SOL    HW2 6982   0.719  10.754   0.597 -0.4327  0.5304 -0.9149
 1659SOL     OW 6983  10.734   1.861   6.585  0.1344 -0.2221  0.2825
 1659SOL    HW1 6984  10.722   1.956   6.590 -0.2565 -0.3144  1.3298
 1659SOL    HW2 6985  10.792   1.848   6.509  0.4934  0.8722  0.3535
 1660SOL     OW 6986   0.863   3.611   9.540  0.2184 -0.2350  0.5239
 1660SOL    HW1 6987   0.775   3.650   9.541  0.4614  0.3259  0.2674
 1660SOL    HW2 6988   0.847   3.516   9.538 -0.3908 -0.1293 -0.6584
 1661SOL     OW 6989   7.271  10.958   6.878  0.3323  0.0368  0.4672
 1661SOL    HW1 6990   7.255  10.976   6.971  1.3043 -1.4661  0.9550
 1661SOL    HW2 6991   7.345  11.013   6.855 -0.7242  1.4119  0.1870
 1662SOL     OW 6992   9.187   3.563  10.906 -0.4431 -0.1175  0.0087
 1662SOL    HW1 6993   9.269   3.523  10.934  0.9037  1.4548 -1.4836
 1662SOL    HW2 6994   9.120   3.519  10.958  1.2014 -2.3041  0.4009
 1663SOL     OW 6995   5.119   3.876   3.055  0.0827  0.4977  0.2115
 1663SOL    HW1 6996   5.205   3.837   3.039 -1.0729 -2.0222 -0.4348
 1663SOL    HW2 6997   5.128   3.966   3.026  1.8578 -0.3366 -2.2078
 1664SOL     OW 6998   1.861   7.642   1.294 -0.5361 -0.2255 -0.3015
 1664SOL    HW1 6999   1.793   7.708   1.283  0.2555  0.4509 -1.2622
 1664SOL    HW2 7000   1.855   7.618   1.387 -2.5731 -0.7590 -0.5237
 1665SOL     OW 7001   0.641   0.599  10.348  0.6238 -0.6744  0.1760
 1665SOL    HW1 7002   0.609   0.509  10.335 -0.5142 -0.5587  1.9125
 1665SOL    HW2 7003   0.569   0.654  10.319  1.9521 -0.1994 -2.5422
 1666SOL     OW 7004   8.580   9.917   8.190 -0.0339  0.0949 -0.2764
 1666SOL    HW1 7005   8.531   9.999   8.184 -0.5202  0.0259  2.0844
 1666SOL    HW2 7006   8.514   9.851   8.212  0.0918 -1.3026 -3.4522
 1667SOL     OW 7007   0.584   9.322   1.894 -0.1393 -0.5070 -0.3593
 1667SOL    HW1 7008   0.626   9.353   1.974 -2.0071  2.2289 -0.2754
 1667SOL    HW2 7009   0.625   9.238   1.875  2.8417  0.3892  1.5087
 1668SOL     OW 7010   8.242   1.631   4.256  0.0163  0.0083  0.4873
 1668SOL    HW1 7011   8.153   1.610   4.286 -0.7161  0.7280 -1.0698
 1668SOL    HW2 7012   8.276   1.691   4.322 -1.7402  1.9585 -0.2713
 1669SOL     OW 7013   4.029   3.246   2.437  0.1870 -0.2096 -0.0112
 1669SOL    HW1 7014   3.947   3.250   2.387  0.6687 -0.1377 -0.8201
 1669SOL    HW2 7015   4.028   3.159   2.477 -0.9104  0.2847  1.1094
 1670SOL     OW 7016   0.561   5.424   3.784  0.3424 -0.1169 -0.2587
 1670SOL    HW1 7017   0.566   5.403   3.691 -1.1113 -0.0441 -0.3701
 1670SOL    HW2 7018   0.651   5.413   3.815  1.4296  2.3045 -2.1828
 1671SOL     OW 7019   0.768   1.390   1.832 -0.2080  0.5552 -0.1371
 1671SOL    HW1 7020   0.748   1.360   1.744 -2.2277  0.9027  0.1558
 1671SOL    HW2 7021   0.799   1.312   1.878 -1.5871 -0.2095 -0.4729
 1672SOL     OW 7022   9.141   9.736   8.972 -0.6238 -0.4302  0.2440
 1672SOL    HW1 7023   9.213   9.719   8.912  0.5145  1.8781  0.8565
 1672SOL    HW2 7024   9.063   9.739   8.917  0.2799  0.7871 -1.0147
 1673SOL     OW 7025   0.071  10.465   9.259  0.1765  0.5824 -0.2169
 1673SOL    HW1 7026   0.134  10.506   9.201 -0.8645 -0.7396 -2.4052
 1673SOL    HW2 7027   0.059  10.377   9.223 -0.0567 -0.5569  2.3951
 1674SOL     OW 7028  10.930   7.991   2.606  0.0164  0.0107  0.5138
 1674SOL    HW1 7029  10.916   8.085   2.595 -1.9409 -0.1001  1.6278
 1674SOL    HW2 7030  10.987   7.984   2.683 -0.4665  0.2876  0.9065
 1675SOL     OW 7031   0.774   9.993   7.078 -0.2372 -0.3157  0.3536
 1675SOL    HW1 7032   0.693   9.951   7.105 -0.3166  0.0906  0.7589
 1675SOL    HW2 7033   0.754  10.033   6.993 -0.0053 -1.5479 -0.3070
 1676SOL     OW 7034   0.941   4.233  10.871  0.2988  0.2727  0.2646
 1676SOL    HW1 7035   1.017   4.191  10.829 -1.2918 -0.9832 -1.5333
 1676SOL    HW2 7036   0.937   4.320  10.832 -0.9920 -0.7768 -2.1854
 1677SOL     OW 7037   4.825   9.529   3.500 -0.2472  0.4290  0.2382
 1677SOL    HW1 7038   4.908   9.576   3.511 -0.5428  1.3615 -1.1973
 1677SOL    HW2 7039   4.785   9.570   3.423 -1.4066 -0.9351  0.0852
 1678SOL     OW 7040   8.805   0.912   6.160  0.0581  0.4979  0.2252
 1678SOL    HW1 7041   8.822   1.005   6.178  0.6759  0.6769 -1.1940
 1678SOL    HW2 7042   8.716   0.910   6.127  0.8046  0.9445 -1.9798
 1679SOL     OW 7043   6.941   5.348   3.557 -0.3098 -0.3944 -0.0451
 1679SOL    HW1 7044   6.863   5.310   3.598 -0.1475 -1.5581 -0.7788
 1679SOL    HW2 7045   6.985   5.395   3.628  0.6497 -3.4277  1.5323
 1680SOL     OW 7046   7.821   4.028  10.327  0.1703 -0.2553 -0.2020
 1680SOL    HW1 7047   7.849   4.102  10.381  1.3520 -0.8322  0.0086
 1680SOL    HW2 7048   7.839   4.056  10.237  0.0168 -0.0437 -0.1673
 1681SOL     OW 7049   7.226   7.711   6.523  0.7317 -0.9289 -0.2473
 1681SOL    HW1 7050   7.273   7.788   6.493 -1.6072  1.1621  0.9824
 1681SOL    HW2 7051   7.150   7.705   6.465 -0.4844 -0.6473  1.2396
 1682SOL     OW 7052   3.991  10.023   2.424 -0.3417 -0.4222 -0.0609
 1682SOL    HW1 7053   3.931  10.010   2.351  1.1777 -0.6401 -1.3342
 1682SOL    HW2 7054   3.981   9.944   2.477 -0.1724 -1.1157 -1.0267
 1683SOL     OW 7055   0.405   1.390   3.922  0.2135 -0.1981 -0.1728
 1683SOL    HW1 7056   0.460   1.336   3.980 -0.3627  0.9112  1.4879
 1683SOL    HW2 7057   0.425   1.480   3.948  0.2351  0.3686 -2.0355
 1684SOL     OW 7058   7.109   0.936   5.975  0.3603  0.0082  0.2023
 1684SOL    HW1 7059   7.021   0.906   5.999 -0.2665  3.3215  2.7033
 1684SOL    HW2 7060   7.114   0.922   5.881 -2.2104 -1.7049  0.2141
 1685SOL     OW 7061   3.671   2.788   7.570  0.1886 -0.0491 -0.1763
 1685SOL    HW1 7062   3.761   2.811   7.548 -0.2907 -0.1405 -2.4882
 1685SOL    HW2 7063   3.630   2.871   7.593  0.5112  0.1990 -0.4929
 1686SOL     OW 7064   2.986   9.093   1.069 -0.6074 -0.3761 -0.5687
 1686SOL    HW1 7065   3.041   9.021   1.038  0.2054  0.4157 -1.0340
 1686SOL    HW2 7066   2.917   9.101   1.003 -1.3286 -1.4050  0.0408
 1687SOL     OW 7067   0.167   4.741   1.160 -0.5820  0.0739 -0.2256
 1687SOL    HW1 7068   0.240   4.739   1.221  0.9509 -0.0529 -1.9587
 1687SOL    HW2 7069   0.114   4.664   1.182  0.4850 -0.5312  0.3024
 1688SOL     OW 7070   0.137   2.550   7.200 -0.3997 -0.0976 -0.5804
 1688SOL    HW1 7071   0.215   2.518   7.246 -0.4928 -0.3039 -0.5661
 1688SOL    HW2 7072   0.084   2.589   7.269 -0.1683  0.3231 -0.6361
 1689SOL     OW 7073   0.445   5.012   2.208 -0.0140 -0.6787  0.2923
 1689SOL    HW1 7074   0.445   4.930   2.157  1.3079 -1.0211  0.8134
 1689SOL    HW2 7075   0.354   5.041   2.206 -0.2965 -1.5704 -0.8534
 1690SOL     OW 7076   2.511   2.457   2.402 -0.6570 -0.3182  0.2005
 1690SOL    HW1 7077   2.593   2.506   2.409 -0.7243 -0.2445  0.4601
 1690SOL    HW2 7078   2.513   2.395   2.475 -1.2993  0.3722  0.8246
 1691SOL     OW 7079   2.739   9.980   0.090  0.5734 -0.4909  0.6380
 1691SOL    HW1 7080   2.812  10.035   0.117  0.0525  0.4586  0.1551
 1691SOL    HW2 7081   2.769   9.940   0.008  0.3804  0.2818  0.1786
 1692SOL     OW 7082  10.162   3.701   9.519 -0.7448 -0.9470 -0.1607
 1692SOL    HW1 7083  10.100   3.684   9.590  0.9689 -0.3654  1.5502
 1692SOL    HW2 7084  10.125   3.654   9.444 -2.2616 -2.1790  1.2722
 1693SOL     OW 7085   8.816   4.564   0.048 -0.2099  0.4728  0.1972
 1693SOL    HW1 7086   8.794   4.556   0.141  1.0136  0.7799  0.5339
 1693SOL    HW2 7087   8.796   4.478   0.011  0.4858 -0.0619  1.0218
 1694SOL     OW 7088   1.613   8.031   8.818 -0.3079  0.8491 -0.9078
 1694SOL    HW1 7089   1.672   7.988   8.756  0.5298  1.8927 -0.8709
 1694SOL    HW2 7090   1.525   8.009   8.788  0.0847 -0.7269 -0.9831
 1695SOL     OW 7091   0.903   3.457   6.164  0.0635  0.1661  0.4189
 1695SOL    HW1 7092   0.856   3.530   6.204  1.4218  0.7762  0.9261
 1695SOL    HW2 7093   0.861   3.447   6.078 -0.8050  0.8607  0.7434
 1696SOL     OW 7094   9.235   8.160   6.258 -0.0250  0.5524  0.0055
 1696SOL    HW1 7095   9.285   8.082   6.231  1.4133  0.9029  1.4592
 1696SOL    HW2 7096   9.152   8.125   6.289  0.6921 -0.4747  0.8780
 1697SOL     OW 7097   2.530   0.608   3.279 -0.7178 -0.4117 -0.1180
 1697SOL    HW1 7098   2.516   0.566   3.194  1.7437 -1.1881 -0.2155
 1697SOL    HW2 7099   2.474   0.558   3.340  0.3658 -2.3507 -0.6534
 1698SOL     OW 7100   4.966   1.854   4.136  0.1503  0.0709  0.0686
 1698SOL    HW1 7101   5.018   1.912   4.193 -0.1678  0.3150  0.1174
 1698SOL    HW2 7102   4.876   1.866   4.167  0.2890 -2.1215  1.5679
 1699SOL     OW 7103   6.715   6.999   4.471 -0.1599 -0.4344 -0.1895
 1699SOL    HW1 7104   6.690   7.079   4.517  1.2574 -0.2578  0.3232
 1699SOL    HW2 7105   6.653   6.933   4.502  1.6061 -0.7259  3.2989
 1700SOL     OW 7106   0.143   2.522  10.740  0.2280  0.3825  0.1381
 1700SOL    HW1 7107   0.161   2.429  10.727  0.9896  0.5350  0.0739
 1700SOL    HW2 7108   0.177   2.565  10.662  0.4901  0.7809  0.4621
 1701SOL     OW 7109   2.900  10.554   1.852  0.1636  0.8073  0.6798
 1701SOL    HW1 7110   2.968  10.502   1.810 -0.5013 -1.0624  1.7671
 1701SOL    HW2 7111   2.928  10.561   1.943 -0.9375  0.2296  1.0817
 1702SOL     OW 7112   8.290   8.640   2.057 -0.8180 -0.2384  0.4333
 1702SOL    HW1 7113   8.266   8.696   2.131  0.1520 -0.8425  1.2315
 1702SOL    HW2 7114   8.384   8.626   2.067  0.3487  3.1342 -3.3256
 1703SOL     OW 7115   6.313   8.554   2.854 -0.0911  0.1639 -0.1143
 1703SOL    HW1 7116   6.346   8.512   2.933 -1.9362  0.2181  0.7308
 1703SOL    HW2 7117   6.300   8.481   2.793 -0.5550 -0.1491  0.3463
 1704SOL     OW 7118   4.369   6.036   1.691  0.1641 -0.3669  0.6689
 1704SOL    HW1 7119   4.295   6.077   1.736 -0.8350  0.6604 -1.7543
 1704SOL    HW2 7120   4.331   5.964   1.641  0.4568  0.9946 -1.6859
 1705SOL     OW 7121   9.784   9.575   7.015  0.0857  0.2152  0.2208
 1705SOL    HW1 7122   9.719   9.629   6.970 -0.9716 -1.0875  0.1425
 1705SOL    HW2 7123   9.868   9.609   6.984 -0.5764  0.2544 -1.6803
 1706SOL     OW 7124   4.501   3.627   8.978 -0.1976 -0.5793  0.4861
 1706SOL    HW1 7125   4.413   3.651   8.952 -0.2810 -1.8608 -0.5226
 1706SOL    HW2 7126   4.556   3.650   8.903  0.2159 -0.4776  0.8140
 1707SOL     OW 7127   2.156   9.379   5.335  0.2824  0.7378  0.0278
 1707SOL    HW1 7128   2.133   9.463   5.373  0.2560  0.1194  1.4351
 1707SOL    HW2 7129   2.151   9.317   5.408 -0.5848 -0.6490 -1.1435
 1708SOL     OW 7130   4.530   3.254   0.074  0.3796  0.6017 -0.0855
 1708SOL    HW1 7131   4.495   3.203   0.001 -3.1252 -0.5579  2.1324
 1708SOL    HW2 7132   4.555   3.188   0.139  2.0220  1.6460  0.4086
 1709SOL     OW 7133   9.332   5.595   8.272 -0.2586  0.0795 -0.5249
 1709SOL    HW1 7134   9.262   5.582   8.208 -1.8718  2.5159  0.5670
 1709SOL    HW2 7135   9.289   5.580   8.357  0.6089  1.3317  0.1573
 1710SOL     OW 7136   3.539   5.757   3.948  0.0250 -0.3134 -0.1252
 1710SOL    HW1 7137   3.481   5.682   3.939  1.9433 -2.2316  2.1025
 1710SOL    HW2 7138   3.613   5.738   3.891  0.9984 -0.7035  1.2067
 1711SOL     OW 7139   3.808  10.482   9.220  0.0967  0.3623  0.4885
 1711SOL    HW1 7140   3.744  10.422   9.183  2.0582 -0.5946 -1.5994
 1711SOL    HW2 7141   3.863  10.428   9.277  0.1770  0.7692  0.8091
 1712SOL     OW 7142   8.952   6.381  10.830 -0.4671 -0.6012 -0.0748
 1712SOL    HW1 7143   9.011   6.451  10.858 -0.9605 -0.4446  0.5965
 1712SOL    HW2 7144   9.009   6.305  10.817 -0.2958 -0.9362  2.2371
 1713SOL     OW 7145   1.357   9.526   3.277  0.1393  0.3213 -0.7765
 1713SOL    HW1 7146   1.448   9.549   3.293  0.6075 -1.0554 -1.3249
 1713SOL    HW2 7147   1.359   9.473   3.198 -1.2526  0.9803 -1.2906
 1714SOL     OW 7148   6.981   6.383  10.159 -0.5319  0.1759  0.5207
 1714SOL    HW1 7149   6.900   6.419  10.122 -0.8379  1.0058  1.9155
 1714SOL    HW2 7150   6.952   6.321  10.225 -0.0740  1.2964  1.8154
 1715SOL     OW 7151   5.542   5.763   3.905 -0.2673 -0.5605 -0.4887
 1715SOL    HW1 7152   5.633   5.780   3.931 -0.0847  0.0312 -1.4596
 1715SOL    HW2 7153   5.490   5.821   3.962  0.2016  1.6471 -2.1706
 1716SOL     OW 7154   3.870  10.225   8.904  0.1831 -0.1062 -0.7021
 1716SOL    HW1 7155   3.849  10.171   8.828  2.1827 -0.7153 -0.8905
 1716SOL    HW2 7156   3.785  10.250   8.940 -0.8082 -1.5936 -1.8683
 1717SOL     OW 7157   8.660   1.764   1.339  0.3569  0.7235 -0.9039
 1717SOL    HW1 7158   8.663   1.816   1.419 -1.0450  0.5044 -0.6678
 1717SOL    HW2 7159   8.724   1.694   1.353  0.7934  1.2271 -0.3715
 1718SOL     OW 7160   7.797   4.282   3.145  0.1650  0.2443 -0.4595
 1718SOL    HW1 7161   7.883   4.281   3.103  0.7268 -1.2125  0.6641
 1718SOL    HW2 7162   7.736   4.299   3.073  1.2619 -0.1775 -1.5270
 1719SOL     OW 7163   2.850  10.599   8.505 -0.2514 -0.2175 -0.0350
 1719SOL    HW1 7164   2.791  10.657   8.553  0.2620  1.3982 -1.2390
 1719SOL    HW2 7165   2.800  10.519   8.491 -0.7383 -0.3683  2.2916
 1720SOL     OW 7166   2.222   7.294   1.705 -0.3326 -0.0479  0.0892
 1720SOL    HW1 7167   2.250   7.336   1.623  1.7276 -2.7807 -0.7232
 1720SOL    HW2 7168   2.211   7.202   1.682 -2.5263 -0.4237  2.3063
 1721SOL     OW 7169   4.800   2.600   5.465 -0.3061 -0.6746  0.3875
 1721SOL    HW1 7170   4.729   2.662   5.484 -1.5197 -1.6470 -0.7796
 1721SOL    HW2 7171   4.768   2.516   5.496  1.1941 -0.8368  1.6460
 1722SOL     OW 7172   3.491  10.450   8.812 -0.0215 -0.0721  0.7415
 1722SOL    HW1 7173   3.574  10.483   8.777  0.9345 -1.6648  1.3941
 1722SOL    HW2 7174   3.517  10.393   8.884 -1.6201 -1.5900  0.1749
 1723SOL     OW 7175   2.502   5.104   9.987  0.1499  0.1747 -0.9203
 1723SOL    HW1 7176   2.592   5.087  10.015  0.4980 -0.0876 -2.1496
 1723SOL    HW2 7177   2.471   5.020   9.953 -0.7481  0.1303 -0.0234
 1724SOL     OW 7178   3.179   5.242   2.843  0.1890 -0.0686 -0.2340
 1724SOL    HW1 7179   3.178   5.210   2.933  0.2712  0.1483 -0.1556
 1724SOL    HW2 7180   3.234   5.320   2.846  1.2934 -0.8022 -0.7327
 1725SOL     OW 7181   8.565   8.569  10.709  0.6684  0.3010  0.5377
 1725SOL    HW1 7182   8.488   8.581  10.653  1.4156  1.2774 -0.3220
 1725SOL    HW2 7183   8.639   8.580  10.650  1.4814 -0.8988  1.2944
 1726SOL     OW 7184   8.780   9.677   9.549 -0.6430  0.5108  0.0501
 1726SOL    HW1 7185   8.869   9.645   9.542 -0.7525  0.2712 -0.2606
 1726SOL    HW2 7186   8.731   9.604   9.588 -0.7966  0.4746 -0.2113
 1727SOL     OW 7187   3.774  10.625   5.013 -0.9530 -0.3739  0.0888
 1727SOL    HW1 7188   3.832  10.549   5.009  0.3146  0.5626 -0.1350
 1727SOL    HW2 7189   3.687  10.589   5.032 -0.2758 -1.8132  0.5795
 1728SOL     OW 7190  10.315   7.768  10.969  0.2369  0.6883 -0.2582
 1728SOL    HW1 7191  10.286   7.677  10.962  2.0579  0.1411 -1.3759
 1728SOL    HW2 7192  10.355   7.787  10.884  2.3795  1.6064  0.8847
 1729SOL     OW 7193   5.493   6.841   6.628 -0.0476 -0.1106  0.5242
 1729SOL    HW1 7194   5.407   6.801   6.627 -1.1087  2.0416  0.5393
 1729SOL    HW2 7195   5.476   6.935   6.626  2.3260  0.3664 -1.1485
 1730SOL     OW 7196   1.838   0.463   3.529  0.6695 -0.1291  0.1743
 1730SOL    HW1 7197   1.818   0.523   3.456  2.9945  0.3657 -0.1237
 1730SOL    HW2 7198   1.825   0.516   3.607 -0.9025 -0.3803  0.1179
 1731SOL     OW 7199   4.468   6.167   7.849  0.5225  0.4253 -0.3225
 1731SOL    HW1 7200   4.387   6.166   7.901 -0.4581  1.1692 -1.7625
 1731SOL    HW2 7201   4.457   6.095   7.787  1.8190 -0.6512  0.6352
 1732SOL     OW 7202   4.379   3.866   3.935 -0.5076  0.1143  0.5917
 1732SOL    HW1 7203   4.351   3.818   3.857  0.3508 -0.1842  0.4584
 1732SOL    HW2 7204   4.461   3.825   3.961 -0.2637  0.8723  1.0613
 1733SOL     OW 7205   9.980   6.444   1.120 -0.5540 -0.0571  0.1681
 1733SOL    HW1 7206  10.050   6.389   1.154 -0.3338  0.2952  0.2935
 1733SOL    HW2 7207   9.914   6.383   1.089 -0.0791 -0.3947 -0.1921
 1734SOL     OW 7208   3.134   3.676   7.288  0.0449 -0.3266  0.1237
 1734SOL    HW1 7209   3.216   3.711   7.323 -0.6698  1.7758 -0.1874
 1734SOL    HW2 7210   3.097   3.626   7.361  0.8094  0.0875  0.8098
 1735SOL     OW 7211   5.005   9.079   1.678  0.0798  0.5904  0.1160
 1735SOL    HW1 7212   5.079   9.096   1.619 -0.6391 -0.7909 -1.2598
 1735SOL    HW2 7213   4.984   9.165   1.716  2.2438  1.0546  0.4261
 1736SOL     OW 7214   9.702   0.324   4.047  0.1091  0.2399 -0.1410
 1736SOL    HW1 7215   9.711   0.405   4.098  2.1946 -0.2526  0.3975
 1736SOL    HW2 7216   9.641   0.271   4.098 -0.6555  1.1422 -0.0817
 1737SOL     OW 7217  10.202   3.027  10.975  0.6722 -0.1677 -0.4492
 1737SOL    HW1 7218  10.171   3.038  11.065 -2.5669 -2.9215 -1.0166
 1737SOL    HW2 7219  10.266   2.956  10.981  4.8059  3.2205  0.2169
 1738SOL     OW 7220   5.674  10.876  10.318  0.2359 -0.3872  0.7450
 1738SOL    HW1 7221   5.713  10.835  10.241  1.5904  0.1173  1.1513
 1738SOL    HW2 7222   5.717  10.960  10.326 -0.6301  0.0041  1.4719
 1739SOL     OW 7223   9.164   5.001   7.028  0.4452  0.0991  0.6027
 1739SOL    HW1 7224   9.073   5.024   7.047  0.1358 -1.4157  1.0548
 1739SOL    HW2 7225   9.160   4.955   6.944  0.9293  0.8176  0.1754
 1740SOL     OW 7226   1.836  10.749   6.668 -0.0159  0.0989 -0.1930
 1740SOL    HW1 7227   1.847  10.656   6.650  0.0522 -0.4254  2.1720
 1740SOL    HW2 7228   1.873  10.794   6.592  1.5995 -1.7943 -0.5958
 1741SOL     OW 7229   2.091   0.209   2.042  0.4134 -0.2188 -0.5090
 1741SOL    HW1 7230   2.085   0.188   2.136  0.7716 -1.4279 -0.7278
 1741SOL    HW2 7231   2.044   0.291   2.032 -0.4978 -0.5857  0.5741
 1742SOL     OW 7232   1.456   1.963   6.951 -0.2709 -0.3911  0.0789
 1742SOL    HW1 7233   1.432   2.036   6.894 -0.2425  0.4790  1.1404
 1742SOL    HW2 7234   1.546   1.943   6.928  0.0091  0.4922  0.3519
 1743SOL     OW 7235   6.298   0.300   0.696 -0.3816  0.0298  0.2209
 1743SOL    HW1 7236   6.380   0.344   0.671  0.5017 -0.4096  2.2038
 1743SOL    HW2 7237   6.235   0.328   0.629  1.1044  1.2541 -0.7346
 1744SOL     OW 7238  10.154   3.664   1.621  0.1106  0.4824  0.1649
 1744SOL    HW1 7239  10.230   3.721   1.637 -0.1829  1.1443 -0.6938
 1744SOL    HW2 7240  10.120   3.693   1.536 -1.7698  0.9585  1.0202
 1745SOL     OW 7241  10.473   8.891   0.611  0.1427 -0.3807 -0.0052
 1745SOL    HW1 7242  10.479   8.981   0.581  2.6995  0.2209  1.9529
 1745SOL    HW2 7243  10.463   8.898   0.706  0.3765 -2.1514  0.1861
 1746SOL     OW 7244   7.386   1.264   6.790 -0.5213  0.5535 -0.3574
 1746SOL    HW1 7245   7.480   1.273   6.809 -0.6716  0.5356  0.4324
 1746SOL    HW2 7246   7.357   1.354   6.772 -0.2744  0.5077 -0.9933
 1747SOL     OW 7247   4.660   5.367   6.577 -0.1345 -0.4701  0.8781
 1747SOL    HW1 7248   4.670   5.302   6.646 -0.2591 -1.4865 -0.0394
 1747SOL    HW2 7249   4.747   5.375   6.538  0.4095  1.5126  2.3306
 1748SOL     OW 7250   1.673   6.171   2.335 -0.7365 -0.1440  0.2442
 1748SOL    HW1 7251   1.630   6.097   2.292 -1.6459 -0.2001  1.1855
 1748SOL    HW2 7252   1.601   6.230   2.357 -0.2026  0.2557  0.9477
 1749SOL     OW 7253   5.220   5.276   0.069 -0.1997 -0.0964  0.1710
 1749SOL    HW1 7254   5.192   5.274   0.160  0.8813  1.0781  0.5428
 1749SOL    HW2 7255   5.141   5.298   0.020 -0.4190  0.9993  0.9951
 1750SOL     OW 7256   6.472   2.611   2.157  0.2637  0.5754 -0.1733
 1750SOL    HW1 7257   6.446   2.593   2.067 -0.4234 -0.2280  0.1772
 1750SOL    HW2 7258   6.395   2.651   2.198 -0.4444 -1.6225  0.8049
 1751SOL     OW 7259   7.519   6.999   6.409  0.0098  0.5895 -0.6288
 1751SOL    HW1 7260   7.535   7.094   6.402  0.8152  0.3513 -2.6227
 1751SOL    HW2 7261   7.544   6.978   6.499  3.1073  1.7589 -1.0871
 1752SOL     OW 7262   5.144   4.038   2.342 -0.6807  0.0288  0.0772
 1752SOL    HW1 7263   5.123   4.091   2.265 -1.0144 -3.5364 -2.5338
 1752SOL    HW2 7264   5.226   4.074   2.375  0.8030  0.2593 -3.5074
 1753SOL     OW 7265   5.587   1.901   4.693 -0.0933 -0.0652 -0.7297
 1753SOL    HW1 7266   5.642   1.867   4.623  1.0943  1.3772 -0.5360
 1753SOL    HW2 7267   5.649   1.932   4.759 -1.1764 -0.8747  0.7327
 1754SOL     OW 7268   7.039  11.012   0.368  0.1417 -0.7463  0.2148
 1754SOL    HW1 7269   7.046  10.964   0.286  0.8600 -2.5238  1.2586
 1754SOL    HW2 7270   6.974  10.964   0.419 -0.8651  0.7770  0.4218
 1755SOL     OW 7271   5.373   7.470   2.830  0.1617 -0.3806 -0.2870
 1755SOL    HW1 7272   5.405   7.457   2.741 -0.4833 -0.4418 -0.5179
 1755SOL    HW2 7273   5.451   7.468   2.884  0.7847  1.3852 -1.0289
 1756SOL     OW 7274   1.341   9.510   1.534 -0.0502 -0.0939  0.2669
 1756SOL    HW1 7275   1.294   9.580   1.580  0.4422 -0.4297  1.3127
 1756SOL    HW2 7276   1.397   9.556   1.471 -1.0684  0.3513 -0.3381
 1757SOL     OW 7277   2.077   0.876   8.668 -0.2469 -0.4195  0.1234
 1757SOL    HW1 7278   2.025   0.921   8.734  0.1489  1.9926 -1.1164
 1757SOL    HW2 7279   2.165   0.912   8.679 -0.3855  0.8935 -2.3425
 1758SOL     OW 7280   9.128   9.190   7.332  0.4626  0.3677  0.9638
 1758SOL    HW1 7281   9.142   9.270   7.281  0.0703  0.4595  0.9966
 1758SOL    HW2 7282   9.033   9.184   7.341  0.4012 -0.7827 -0.1204
 1759SOL     OW 7283   8.623   7.095   0.468 -0.0020  0.1388 -0.3284
 1759SOL    HW1 7284   8.706   7.047   0.474 -0.0316  0.1689  0.5141
 1759SOL    HW2 7285   8.578   7.057   0.393  0.8112  0.1888 -0.8613
 1760SOL     OW 7286   7.738   6.613   1.899 -0.7865  0.2654 -0.1554
 1760SOL    HW1 7287   7.813   6.601   1.957 -0.3303 -0.5125 -0.8729
 1760SOL    HW2 7288   7.776   6.610   1.811 -1.0539  4.0519 -0.5563
 1761SOL     OW 7289   3.127   7.785   4.142 -0.2065  0.5517 -0.1866
 1761SOL    HW1 7290   3.159   7.695   4.134 -0.0472  0.4205  1.5445
 1761SOL    HW2 7291   3.103   7.810   4.053  0.6780 -0.8543 -0.8521
 1762SOL     OW 7292   9.276   3.539   1.968  0.6108 -0.5828  0.4767
 1762SOL    HW1 7293   9.370   3.521   1.958  0.5757 -0.6891  0.3250
 1762SOL    HW2 7294   9.250   3.486   2.043  0.1463 -2.6235 -1.0123
 1763SOL     OW 7295   2.869   2.982   6.744  0.3153  0.2079 -0.1278
 1763SOL    HW1 7296   2.780   2.973   6.710  0.8057 -0.1850 -1.3506
 1763SOL    HW2 7297   2.901   3.063   6.706  0.5371  0.2824  0.2118
 1764SOL     OW 7298   5.066  11.000   3.041  0.7796 -0.0042 -0.1007
 1764SOL    HW1 7299   5.039  10.971   3.128 -1.3141  1.2788 -0.2552
 1764SOL    HW2 7300   5.020  10.942   2.981  0.7586  0.2907 -0.3710
 1765SOL     OW 7301  10.720   2.908   4.098 -0.2024 -0.2016 -0.3582
 1765SOL    HW1 7302  10.795   2.942   4.147 -0.4844  0.3456 -0.2996
 1765SOL    HW2 7303  10.644   2.951   4.138 -0.4159  0.4778 -1.4439
 1766SOL     OW 7304   7.030   3.275   4.431 -0.3448  0.4091  0.2213
 1766SOL    HW1 7305   7.107   3.300   4.482  1.7842 -1.1440 -1.9972
 1766SOL    HW2 7306   6.991   3.203   4.480 -0.6208  1.4046  1.5193
 1767SOL     OW 7307   3.033   1.460   3.051 -0.0529 -0.1790  0.4803
 1767SOL    HW1 7308   3.039   1.548   3.016  1.2877 -0.6012 -0.4265
 1767SOL    HW2 7309   2.939   1.444   3.061 -0.3338  1.0146 -0.1715
 1768SOL     OW 7310   9.247   6.630   0.529  0.8032 -0.0447  0.1699
 1768SOL    HW1 7311   9.305   6.597   0.598  1.2078  2.2722  1.0251
 1768SOL    HW2 7312   9.239   6.724   0.548 -0.5691  0.3002 -1.8848
 1769SOL     OW 7313  10.095   1.353  10.464  0.3665  0.4142 -0.3955
 1769SOL    HW1 7314  10.145   1.414  10.518 -0.2907 -1.0827  2.1054
 1769SOL    HW2 7315  10.115   1.267  10.502 -2.9197 -0.3745 -0.1861
 1770SOL     OW 7316   7.890   6.761   4.036  0.1010  0.3801 -0.0459
 1770SOL    HW1 7317   7.901   6.719   3.950 -0.2145  1.7627 -0.7923
 1770SOL    HW2 7318   7.797   6.753   4.055 -0.1729  1.7420 -0.7438
 1771SOL     OW 7319   3.348   4.363   7.520  0.1212 -0.6633 -0.1710
 1771SOL    HW1 7320   3.282   4.432   7.515 -0.6556 -1.3414  0.3677
 1771SOL    HW2 7321   3.358   4.333   7.430  2.1328  1.6237 -0.8016
 1772SOL     OW 7322   4.913   7.700   6.682  0.1367  0.4167 -0.0054
 1772SOL    HW1 7323   4.971   7.739   6.748  0.3005  0.2836 -0.0705
 1772SOL    HW2 7324   4.874   7.775   6.638  0.7413  0.5186 -0.3867
 1773SOL     OW 7325   3.429   8.590   8.771 -0.3843  0.0783  0.4145
 1773SOL    HW1 7326   3.516   8.629   8.765 -0.0988 -0.6998 -0.7694
 1773SOL    HW2 7327   3.434   8.510   8.719 -2.0251  0.4415 -0.4036
 1774SOL     OW 7328   4.938   1.586   8.431 -0.3887 -0.2484 -0.0942
 1774SOL    HW1 7329   4.958   1.575   8.338 -1.8753  0.2479 -0.5119
 1774SOL    HW2 7330   5.020   1.567   8.476  0.9422  1.4386 -1.6162
 1775SOL     OW 7331   2.542   1.842   7.155 -0.2245  0.0304 -0.0913
 1775SOL    HW1 7332   2.509   1.921   7.111  1.1802 -0.0109 -1.2634
 1775SOL    HW2 7333   2.489   1.771   7.119 -2.4832  0.5019  2.0009
 1776SOL     OW 7334   8.807   8.694   8.941 -0.4069  0.2040 -0.6234
 1776SOL    HW1 7335   8.885   8.650   8.907  0.8102  1.6016  0.2584
 1776SOL    HW2 7336   8.811   8.783   8.907 -0.6567  0.8127  0.8312
 1777SOL     OW 7337   9.358   2.530   9.471 -0.1626  0.0854  0.7640
 1777SOL    HW1 7338   9.279   2.514   9.418  0.5369 -0.2535 -0.2161
 1777SOL    HW2 7339   9.325   2.544   9.560 -1.2614 -1.0666  0.5716
 1778SOL     OW 7340   9.351   2.660  10.850 -0.0675 -0.1372  0.3335
 1778SOL    HW1 7341   9.379   2.571  10.866  2.3115  0.8271  2.0243
 1778SOL    HW2 7342   9.282   2.676  10.915 -1.8813 -1.2388 -1.2029
 1779SOL     OW 7343   8.180   4.947   8.825 -0.3826 -0.0316 -0.0379
 1779SOL    HW1 7344   8.226   5.018   8.870 -1.7300  1.4036 -0.7926
 1779SOL    HW2 7345   8.092   4.947   8.863 -0.6182 -0.8237 -0.5520
 1780SOL     OW 7346   4.170   4.313   7.278 -0.5531 -0.4427 -0.3585
 1780SOL    HW1 7347   4.180   4.365   7.198  1.5571  1.3719  0.9361
 1780SOL    HW2 7348   4.260   4.294   7.305 -1.2075 -1.1393  1.4867
 1781SOL     OW 7349   3.485   0.064   3.295  0.7783 -0.0668 -0.1304
 1781SOL    HW1 7350   3.493   0.093   3.204 -0.6520 -0.0404 -0.2705
 1781SOL    HW2 7351   3.446   0.139   3.340 -1.4587 -1.1145 -0.1738
 1782SOL     OW 7352   4.094   0.861   2.470  0.5126  0.1265  0.1316
 1782SOL    HW1 7353   4.091   0.898   2.558 -0.0597  0.9325 -0.2144
 1782SOL    HW2 7354   4.187   0.863   2.446  0.5634  0.7708  0.3654
 1783SOL     OW 7355   3.494   7.049   7.651 -0.5620 -0.9284  0.4648
 1783SOL    HW1 7356   3.419   7.061   7.709 -0.5212 -1.2095  0.5778
 1783SOL    HW2 7357   3.469   6.975   7.595 -0.3204 -1.0987  0.5827
 1784SOL     OW 7358  10.150   4.031   6.802  0.5596 -0.3041  0.0375
 1784SOL    HW1 7359  10.063   4.028   6.842  0.4616 -1.5928 -0.2341
 1784SOL    HW2 7360  10.136   4.006   6.710  1.1905 -0.3462 -0.0558
 1785SOL     OW 7361   1.288   9.527   5.536 -0.2492 -0.1111 -0.5325
 1785SOL    HW1 7362   1.308   9.618   5.516 -1.5626  0.3926  0.3252
 1785SOL    HW2 7363   1.321   9.514   5.625  0.7521 -0.7608 -0.9778
 1786SOL     OW 7364   9.535   7.093   6.202  0.0088  0.4409  0.2377
 1786SOL    HW1 7365   9.573   7.143   6.275  0.2650 -0.9383  1.0938
 1786SOL    HW2 7366   9.440   7.097   6.218  0.0170  0.7763  0.2133
 1787SOL     OW 7367   2.624   5.317   8.663 -0.1152  0.6136 -0.0470
 1787SOL    HW1 7368   2.610   5.408   8.640 -0.6860 -0.0362 -2.5548
 1787SOL    HW2 7369   2.695   5.288   8.606 -1.4193 -1.0517 -0.9303
 1788SOL     OW 7370   3.907   1.210   7.255  0.3486 -0.1279  0.2161
 1788SOL    HW1 7371   3.842   1.255   7.309 -0.1181 -0.0093 -0.4328
 1788SOL    HW2 7372   3.923   1.127   7.301  0.2255  0.1261  0.7207
 1789SOL     OW 7373   4.720   5.335   5.652  0.3763  0.0949 -0.3898
 1789SOL    HW1 7374   4.733   5.243   5.629  1.3877  0.7116 -2.5274
 1789SOL    HW2 7375   4.629   5.353   5.626 -0.3432 -0.6356  1.4532
 1790SOL     OW 7376   2.375   6.673   9.632 -0.0616 -0.4136  0.1531
 1790SOL    HW1 7377   2.399   6.664   9.540 -1.2360  1.2852 -0.3637
 1790SOL    HW2 7378   2.406   6.760   9.657 -0.2853 -0.6195  1.1892
 1791SOL     OW 7379   2.437  10.991   6.000 -0.5378  0.2352  0.9530
 1791SOL    HW1 7380   2.403  10.961   5.915 -0.2254 -1.7762  1.4958
 1791SOL    HW2 7381   2.501  11.059   5.977  0.2556 -0.9478 -0.4945
 1792SOL     OW 7382  10.696   0.345   1.141  0.0605  0.6256  0.2329
 1792SOL    HW1 7383  10.732   0.340   1.230  2.3859  0.4231 -0.6492
 1792SOL    HW2 7384  10.707   0.257   1.106 -0.7365  0.7307 -0.2996
 1793SOL     OW 7385   0.112   0.502   9.809  0.7177  0.0400 -0.2264
 1793SOL    HW1 7386   0.029   0.545   9.792  0.5628 -0.0091  0.3941
 1793SOL    HW2 7387   0.173   0.573   9.830  1.4423  0.3155 -2.9100
 1794SOL     OW 7388  10.604  11.020   6.669 -0.1924  0.5257 -0.1009
 1794SOL    HW1 7389  10.658  11.026   6.748 -0.2280 -3.3609  0.3914
 1794SOL    HW2 7390  10.531  10.964   6.694 -0.7235 -0.0088 -2.6358
 1795SOL     OW 7391   9.020   1.614   0.222 -0.3261  0.7479  0.3667
 1795SOL    HW1 7392   8.986   1.662   0.298  0.1283  0.6355  0.6419
 1795SOL    HW2 7393   9.115   1.623   0.228 -0.2982  1.0448 -0.3910
 1796SOL     OW 7394   5.266   1.552   6.924 -0.6249 -0.0966  0.3684
 1796SOL    HW1 7395   5.336   1.538   6.860 -0.3242  0.7183  0.5048
 1796SOL    HW2 7396   5.257   1.468   6.968  0.7799 -0.0348  0.8406
 1797SOL     OW 7397   5.568   6.355   3.853  0.2741  0.1373 -0.4128
 1797SOL    HW1 7398   5.578   6.441   3.813 -0.7567 -0.0129 -1.0173
 1797SOL    HW2 7399   5.491   6.364   3.909  1.6435  0.3303  1.5700
 1798SOL     OW 7400   4.053   0.826   8.608 -0.6697  0.0059 -0.2464
 1798SOL    HW1 7401   4.001   0.827   8.528 -0.1237  0.3139 -0.6036
 1798SOL    HW2 7402   4.120   0.893   8.594 -1.6832  1.3934  1.2051
 1799SOL     OW 7403   8.420   1.147   2.922  0.3053 -0.0365  0.0707
 1799SOL    HW1 7404   8.456   1.140   2.834  0.1018 -1.1943  0.0612
 1799SOL    HW2 7405   8.459   1.227   2.958  0.3648  0.4673 -1.0699
 1800SOL     OW 7406   5.374   9.749   9.791 -0.3126  0.1710  0.0586
 1800SOL    HW1 7407   5.329   9.701   9.860 -1.0942  0.3669 -0.2911
 1800SOL    HW2 7408   5.397   9.833   9.831 -0.5077  0.1731  0.1688
 1801SOL     OW 7409   0.569   5.010   5.149 -0.1985 -0.3049  0.2224
 1801SOL    HW1 7410   0.567   5.069   5.225  0.7556  1.7295 -1.2422
 1801SOL    HW2 7411   0.641   4.949   5.168  1.1142  1.2023  0.2699
 1802SOL     OW 7412   3.854   2.618   0.173 -0.8099 -0.4473 -0.4200
 1802SOL    HW1 7413   3.865   2.615   0.268 -2.6263  1.1270 -0.0843
 1802SOL    HW2 7414   3.832   2.710   0.154 -0.8840 -0.8085 -2.3030
 1803SOL     OW 7415   5.564   2.235   0.947  0.0225  0.4893 -0.0886
 1803SOL    HW1 7416   5.634   2.278   0.995  1.0630 -0.7215 -0.4703
 1803SOL    HW2 7417   5.584   2.250   0.855  1.1507 -1.8048 -0.2909
 1804SOL     OW 7418   8.509   4.165   5.173  0.1730  0.3506  0.6294
 1804SOL    HW1 7419   8.438   4.138   5.115  0.9231  2.7954 -1.5962
 1804SOL    HW2 7420   8.586   4.118   5.140  0.6039  1.7563 -0.4847
 1805SOL     OW 7421   0.242   6.970   8.097 -0.8332  0.3729 -0.1850
 1805SOL    HW1 7422   0.204   6.898   8.046 -2.5443  0.0573  1.3986
 1805SOL    HW2 7423   0.292   7.021   8.034 -0.3568 -1.6681 -1.5525
 1806SOL     OW 7424   2.116   2.435   3.025  0.7802 -0.4148 -0.6589
 1806SOL    HW1 7425   2.024   2.439   3.051  0.8536  0.3059 -0.4805
 1806SOL    HW2 7426   2.150   2.522   3.045  1.5587 -0.7474 -0.5123
 1807SOL     OW 7427   4.321   4.972   4.072  0.0035  0.2119  0.3534
 1807SOL    HW1 7428   4.308   5.067   4.071 -1.4808  0.0454  0.3122
 1807SOL    HW2 7429   4.251   4.939   4.129 -0.3904 -0.9467 -0.7468
 1808SOL     OW 7430   9.576   6.072   8.603 -0.0744  0.5886  0.1657
 1808SOL    HW1 7431   9.548   6.163   8.616 -1.0903  0.1993  0.8496
 1808SOL    HW2 7432   9.494   6.023   8.596  0.3901  0.0640 -3.0936
 1809SOL     OW 7433   9.775   4.541   3.491  0.4336 -0.1855  0.1977
 1809SOL    HW1 7434   9.857   4.507   3.454  1.9598  1.0945  2.2393
 1809SOL    HW2 7435   9.775   4.510   3.582 -1.9301 -1.0573 -0.0265
 1810SOL     OW 7436   3.398   9.480   7.260 -0.2659  0.3470 -0.4868
 1810SOL    HW1 7437   3.400   9.411   7.194  1.3227  0.6806 -0.8281
 1810SOL    HW2 7438   3.434   9.439   7.339  0.1110  0.6002 -0.5226
 1811SOL     OW 7439   7.742   5.276   8.347  0.3918  0.1771  0.1506
 1811SOL    HW1 7440   7.834   5.267   8.371  0.2392 -0.9693  0.3449
 1811SOL    HW2 7441   7.744   5.302   8.255  0.9151  1.5295  0.5162
 1812SOL     OW 7442   9.552   5.517   5.445  0.2744 -0.0023 -0.4416
 1812SOL    HW1 7443   9.640   5.494   5.475 -0.5858 -0.6016  1.8602
 1812SOL    HW2 7444   9.527   5.592   5.499 -1.5339 -1.4214  0.8494
 1813SOL     OW 7445   3.374   8.611  10.552 -0.3945  0.1958 -0.4140
 1813SOL    HW1 7446   3.426   8.583  10.627 -0.4686  1.3573  0.0954
 1813SOL    HW2 7447   3.432   8.668  10.501 -0.1199 -1.1205 -1.6369
 1814SOL     OW 7448   6.403   8.101   8.796 -0.2710  0.2631 -0.6650
 1814SOL    HW1 7449   6.420   8.007   8.789  0.0016  0.3510 -1.2697
 1814SOL    HW2 7450   6.335   8.118   8.731 -1.3158  0.2565  0.3930
 1815SOL     OW 7451   5.514   7.197  10.591 -0.4002  0.1940 -0.2415
 1815SOL    HW1 7452   5.490   7.178  10.682 -2.4502 -0.8703 -0.9567
 1815SOL    HW2 7453   5.594   7.146  10.577  0.4262  1.0229  1.1697
 1816SOL     OW 7454   8.290   8.847   6.971  0.2298  0.3542 -0.0462
 1816SOL    HW1 7455   8.255   8.898   7.045 -1.5384  0.1362 -0.6804
 1816SOL    HW2 7456   8.307   8.760   7.008 -0.8519  0.1823  0.0792
 1817SOL     OW 7457   1.946   2.094   4.282 -0.1423 -0.3975  0.8321
 1817SOL    HW1 7458   1.922   2.003   4.300 -3.2580  0.0581 -0.2937
 1817SOL    HW2 7459   1.882   2.123   4.217  2.2510  1.9169 -0.7102
 1818SOL     OW 7460   4.189   6.781   8.889  0.3699 -0.3603 -0.0212
 1818SOL    HW1 7461   4.099   6.755   8.907  0.8118 -2.3348 -0.3409
 1818SOL    HW2 7462   4.242   6.708   8.921  1.5698 -1.1081 -3.2999
 1819SOL     OW 7463   6.977   0.752  10.341  0.1971 -0.0791 -0.3479
 1819SOL    HW1 7464   6.909   0.741  10.408 -0.1222 -0.7271 -0.7606
 1819SOL    HW2 7465   6.979   0.667  10.296  1.6052 -0.2362 -0.0429
 1820SOL     OW 7466  10.635   5.146   7.979  0.3300 -0.0409 -0.1770
 1820SOL    HW1 7467  10.557   5.116   8.025 -1.3489  1.2622 -1.9608
 1820SOL    HW2 7468  10.674   5.212   8.036 -1.9615  1.8871 -0.6545
 1821SOL     OW 7469   9.064   0.622   7.260 -0.1674  0.6488  0.0820
 1821SOL    HW1 7470   9.151   0.662   7.261  0.0690  0.1430  0.1670
 1821SOL    HW2 7471   9.078   0.533   7.294 -0.8183  0.7623  0.6692
 1822SOL     OW 7472   6.517   2.608  10.645  0.4922 -0.1444  0.3971
 1822SOL    HW1 7473   6.612   2.602  10.640  0.3936 -1.1508 -0.7860
 1822SOL    HW2 7474   6.485   2.546  10.580 -0.9811  0.3537  0.5921
 1823SOL     OW 7475   7.833   2.196   7.433 -0.5891  0.1583  1.1239
 1823SOL    HW1 7476   7.807   2.220   7.344  1.6481 -0.7610  0.1655
 1823SOL    HW2 7477   7.835   2.101   7.433 -0.1624  0.1570  2.0438
 1824SOL     OW 7478   1.510   0.729   3.063 -0.3103 -0.1447 -0.1860
 1824SOL    HW1 7479   1.425   0.763   3.090  0.8477  0.9476  2.3556
 1824SOL    HW2 7480   1.489   0.664   2.995 -2.9776  1.6039 -1.1890
 1825SOL     OW 7481   7.523   3.332   3.480  0.0421  0.1087  0.1901
 1825SOL    HW1 7482   7.471   3.410   3.459 -0.7217 -0.1150  1.1480
 1825SOL    HW2 7483   7.517   3.325   3.576  1.1166 -0.4310  0.2272
 1826SOL     OW 7484  10.523   6.361   6.476 -0.2162  0.3023  0.2412
 1826SOL    HW1 7485  10.562   6.355   6.388  0.7954 -0.3430  0.7153
 1826SOL    HW2 7486  10.572   6.432   6.518 -0.1982  0.1244  0.5200
 1827SOL     OW 7487   7.632   8.577   8.421  0.3444 -0.5825  0.1564
 1827SOL    HW1 7488   7.621   8.483   8.406  2.9426 -1.0253  0.4643
 1827SOL    HW2 7489   7.700   8.583   8.488  0.5092  1.5222 -0.1134
 1828SOL     OW 7490   4.578   7.795   7.984 -0.0084 -0.4063  0.4507
 1828SOL    HW1 7491   4.523   7.822   8.057  1.4639  1.2187  1.0115
 1828SOL    HW2 7492   4.625   7.718   8.016 -0.3944 -0.5296  0.7177
 1829SOL     OW 7493   9.915   8.254   2.241  0.3371 -0.2664  0.3690
 1829SOL    HW1 7494   9.949   8.298   2.319 -2.4011  0.8947  1.0521
 1829SOL    HW2 7495   9.981   8.188   2.219  2.9272  1.7808  1.4730
 1830SOL     OW 7496   8.875   3.793   9.425 -0.0864  0.8625  0.2286
 1830SOL    HW1 7497   8.918   3.797   9.510 -0.2797 -0.5099  0.4152
 1830SOL    HW2 7498   8.944   3.766   9.364 -0.3467  0.0170  0.2901
 1831SOL     OW 7499   1.419   2.181   9.891  0.3248  0.1302 -0.0169
 1831SOL    HW1 7500   1.431   2.272   9.863 -0.3913  1.1340  2.6237
 1831SOL    HW2 7501   1.337   2.154   9.851 -0.0311  1.0553  0.0706
 1832SOL     OW 7502   4.645   6.682   6.685 -0.0477  0.0095  0.1553
 1832SOL    HW1 7503   4.684   6.597   6.662  0.7900  0.7700 -1.3908
 1832SOL    HW2 7504   4.706   6.747   6.649 -0.3469  1.3046  1.8280
 1833SOL     OW 7505   5.856   9.261   6.772 -0.3001  0.0099 -0.5977
 1833SOL    HW1 7506   5.929   9.294   6.719 -1.1634  0.1314 -1.7595
 1833SOL    HW2 7507   5.781   9.314   6.745 -1.3228 -1.6236 -1.1358
 1834SOL     OW 7508   4.890   5.548   0.701  0.7329  0.1574  0.4873
 1834SOL    HW1 7509   4.863   5.625   0.751  1.7825  0.8295  0.0575
 1834SOL    HW2 7510   4.841   5.554   0.619 -0.3865 -0.5196  1.0682
 1835SOL     OW 7511   7.135   1.774   6.105  0.5614  0.0085  0.3761
 1835SOL    HW1 7512   7.127   1.684   6.138 -1.1703 -0.6445 -1.5923
 1835SOL    HW2 7513   7.214   1.773   6.051 -1.4851 -1.5596 -2.8580
 1836SOL     OW 7514   2.798   1.412   5.932 -0.2211  0.8896 -0.1038
 1836SOL    HW1 7515   2.887   1.376   5.932 -0.6274 -0.1650 -0.6632
 1836SOL    HW2 7516   2.751   1.359   5.867 -0.9132  2.3061 -0.8059
 1837SOL     OW 7517   7.744   7.265   5.231 -0.6576 -0.0286  0.5229
 1837SOL    HW1 7518   7.803   7.237   5.161 -1.9223 -0.2291 -0.5083
 1837SOL    HW2 7519   7.683   7.193   5.242 -0.8979  0.2913  1.3564
 1838SOL     OW 7520   0.368   2.526  10.274  0.1273  0.3532  0.6086
 1838SOL    HW1 7521   0.409   2.539  10.360 -0.6120 -0.2669  1.0718
 1838SOL    HW2 7522   0.413   2.588  10.217  0.4338  0.9919  1.5056
 1839SOL     OW 7523   4.656   8.402   6.250  0.1628  0.1343  0.3459
 1839SOL    HW1 7524   4.596   8.328   6.263 -1.3577  1.2980  0.1150
 1839SOL    HW2 7525   4.678   8.400   6.157 -0.3160  0.3076  0.2307
 1840SOL     OW 7526   3.054   3.228   2.571 -0.1835 -0.0770  0.1224
 1840SOL    HW1 7527   3.074   3.320   2.554 -2.0537  0.3514 -0.0664
 1840SOL    HW2 7528   2.959   3.222   2.559 -0.0449 -2.1482 -0.3958
 1841SOL     OW 7529   3.510   9.081   4.833  0.0704 -0.2104  0.4536
 1841SOL    HW1 7530   3.475   9.043   4.914 -1.0044 -0.4046 -0.0819
 1841SOL    HW2 7531   3.596   9.114   4.857 -0.0332 -0.7076  1.5592
 1842SOL     OW 7532   1.304   0.008   7.209 -0.2753 -0.3363 -0.3408
 1842SOL    HW1 7533   1.247   0.085   7.202  0.8854  0.5468 -0.3181
 1842SOL    HW2 7534   1.382   0.031   7.159  0.9135 -0.7085  1.2579
 1843SOL     OW 7535   4.877   4.835   7.099 -0.1102 -0.1996  0.7850
 1843SOL    HW1 7536   4.895   4.763   7.161 -0.6964 -0.5931  0.5122
 1843SOL    HW2 7537   4.862   4.911   7.155 -2.4478 -0.9229  1.2961
 1844SOL     OW 7538  10.722   4.871   1.701 -0.0830 -0.1674 -0.0664
 1844SOL    HW1 7539  10.743   4.778   1.694 -1.7417 -0.4881 -1.3302
 1844SOL    HW2 7540  10.684   4.881   1.788  0.3722 -0.5899  0.1886
 1845SOL     OW 7541   1.476  10.205   3.228  0.8359  0.0270  0.4716
 1845SOL    HW1 7542   1.468  10.256   3.310 -0.1087  0.9333 -0.1563
 1845SOL    HW2 7543   1.559  10.234   3.191 -0.0834  1.8453 -0.3118
 1846SOL     OW 7544   0.026   4.729   8.404  0.6073 -0.3338  0.5201
 1846SOL    HW1 7545  -0.044   4.775   8.357 -0.3967 -2.6119 -0.3658
 1846SOL    HW2 7546   0.077   4.686   8.335  0.3507 -2.0629  1.3555
 1847SOL     OW 7547   6.085   0.921  10.805  0.1025 -0.1585  0.2575
 1847SOL    HW1 7548   6.010   0.884  10.759 -0.3355 -0.3474  1.1039
 1847SOL    HW2 7549   6.088   0.874  10.889  0.2854  0.8317  0.8293
 1848SOL     OW 7550   5.250   2.302   5.119 -0.0396 -0.4489  0.2998
 1848SOL    HW1 7551   5.160   2.332   5.110  0.9724  2.3896 -1.8718
 1848SOL    HW2 7552   5.247   2.210   5.096 -2.2635 -0.2054 -0.6841
 1849SOL     OW 7553   8.069   0.689   8.579 -0.0435  0.5042  0.1265
 1849SOL    HW1 7554   8.022   0.696   8.662  0.6459 -0.8156  0.6671
 1849SOL    HW2 7555   8.161   0.691   8.604  0.1831 -1.4858 -0.4053
 1850SOL     OW 7556   2.171   1.268   4.385 -0.1183 -0.5842 -0.3641
 1850SOL    HW1 7557   2.131   1.216   4.316  0.9008 -0.0979 -1.3521
 1850SOL    HW2 7558   2.260   1.234   4.392 -0.5836 -1.5974  1.7358
 1851SOL     OW 7559   7.435   8.887   4.512  0.8133 -0.2760 -0.2123
 1851SOL    HW1 7560   7.505   8.832   4.477  0.0971 -3.3251  2.6661
 1851SOL    HW2 7561   7.470   8.921   4.595 -0.6261 -0.8422  0.6605
 1852SOL     OW 7562   3.827   5.260   4.328  0.2837 -0.1307  0.1451
 1852SOL    HW1 7563   3.862   5.329   4.271  0.5807  0.9602  1.5931
 1852SOL    HW2 7564   3.877   5.268   4.409 -0.5844 -1.2047  0.8136
 1853SOL     OW 7565   1.901   6.441   5.444  0.8950 -0.1236 -0.3934
 1853SOL    HW1 7566   1.992   6.422   5.423  0.8504 -1.1732  0.3205
 1853SOL    HW2 7567   1.903   6.529   5.482  1.5211  0.1074 -0.9578
 1854SOL     OW 7568   0.709   8.388  10.370  0.3561 -0.1591 -0.2664
 1854SOL    HW1 7569   0.649   8.367  10.443  0.6404 -0.3126 -0.0736
 1854SOL    HW2 7570   0.759   8.462  10.402  1.1531 -0.8326  0.0824
 1855SOL     OW 7571   9.746   1.032   7.730  0.0443 -0.6052 -0.5413
 1855SOL    HW1 7572   9.695   1.111   7.712  1.3536  0.2331 -0.6846
 1855SOL    HW2 7573   9.706   0.995   7.809  0.6501  1.3177  0.7306
 1856SOL     OW 7574   8.221   4.393   4.422  0.4128 -0.0107  0.5186
 1856SOL    HW1 7575   8.175   4.318   4.385 -0.2477  0.2765  0.7431
 1856SOL    HW2 7576   8.160   4.430   4.486  0.8142  0.5873  0.5659
 1857SOL     OW 7577   8.593   1.433   1.862 -0.8029 -0.1565  0.0214
 1857SOL    HW1 7578   8.510   1.468   1.831 -0.1016  2.3700  0.7807
 1857SOL    HW2 7579   8.570   1.381   1.940 -1.7255 -0.1557 -0.2379
 1858SOL     OW 7580   6.903   7.119   3.286 -0.6617  0.1648 -0.6028
 1858SOL    HW1 7581   6.953   7.167   3.220  0.7108  0.6925  0.7680
 1858SOL    HW2 7582   6.963   7.049   3.315 -1.5319 -0.5300 -0.4383
 1859SOL     OW 7583   7.183  10.231   9.339 -0.4528 -0.4102 -0.5015
 1859SOL    HW1 7584   7.156  10.301   9.281  0.9172  0.0967 -0.5773
 1859SOL    HW2 7585   7.265  10.262   9.377  0.1420 -1.9201 -0.4693
 1860SOL     OW 7586   5.195   7.664   4.731 -0.3163 -0.0539  0.3150
 1860SOL    HW1 7587   5.167   7.621   4.650 -0.8360 -1.1321  1.0508
 1860SOL    HW2 7588   5.121   7.652   4.791 -0.8527  2.5580  0.3306
 1861SOL     OW 7589   2.504   8.585   7.200  0.4919 -0.0784  0.5732
 1861SOL    HW1 7590   2.553   8.606   7.279  1.3826  0.7543 -0.1746
 1861SOL    HW2 7591   2.570   8.572   7.132 -0.2495 -0.8168 -0.0422
 1862SOL     OW 7592   4.683   6.016   4.219  0.0781 -1.1698  0.2636
 1862SOL    HW1 7593   4.661   5.925   4.238 -0.4263 -1.7281 -2.5650
 1862SOL    HW2 7594   4.639   6.034   4.136  3.4836  0.3497 -1.3887
 1863SOL     OW 7595   0.583   3.053   8.820  0.0995 -0.0547 -0.3115
 1863SOL    HW1 7596   0.617   2.963   8.823 -0.7357 -0.3745 -0.1364
 1863SOL    HW2 7597   0.572   3.077   8.912 -0.8713 -0.2407 -0.3736
 1864SOL     OW 7598  10.495   8.175   7.133 -0.0364 -0.0881  0.4375
 1864SOL    HW1 7599  10.538   8.224   7.062  0.6489 -0.1083  0.8318
 1864SOL    HW2 7600  10.466   8.242   7.194 -2.9024  0.1660 -1.0153
 1865SOL     OW 7601   8.538   2.459   9.614 -0.1481  0.1545 -0.8746
 1865SOL    HW1 7602   8.523   2.365   9.617  2.4626 -0.3403  0.3554
 1865SOL    HW2 7603   8.584   2.474   9.531 -1.5217  0.5657 -1.5861
 1866SOL     OW 7604   3.714   5.960   6.906  0.4601 -0.0503 -0.1884
 1866SOL    HW1 7605   3.737   6.052   6.899  1.0428 -0.2730 -1.5962
 1866SOL    HW2 7606   3.768   5.927   6.978 -0.0475  0.7854  0.5834
 1867SOL     OW 7607   8.798   1.204  10.895 -0.1279 -0.4901 -0.6432
 1867SOL    HW1 7608   8.720   1.196  10.950  1.2556 -1.0558  1.3539
 1867SOL    HW2 7609   8.764   1.213  10.806 -2.4805  0.4477  0.2731
 1868SOL     OW 7610   9.460  10.998   3.990  0.0168 -0.2133  0.0619
 1868SOL    HW1 7611   9.381  11.018   4.041 -0.4357  0.4963 -0.8836
 1868SOL    HW2 7612   9.440  11.030   3.902  1.6593  0.7042 -0.0154
 1869SOL     OW 7613   9.747   9.927   1.483 -0.4124  0.3788  0.1235
 1869SOL    HW1 7614   9.665   9.891   1.450  0.4708 -1.5905 -0.0089
 1869SOL    HW2 7615   9.760   9.885   1.567  2.1107 -2.0113 -1.3321
 1870SOL     OW 7616   4.147   7.102   1.861  0.0528 -0.0256 -0.2111
 1870SOL    HW1 7617   4.242   7.095   1.855  0.2998  1.0683  1.7141
 1870SOL    HW2 7618   4.127   7.075   1.951 -1.3750  0.5375 -0.3414
 1871SOL     OW 7619  10.306   5.009  10.956 -0.1040  0.4815  0.2079
 1871SOL    HW1 7620  10.230   5.022  10.900 -0.0542 -0.7310 -0.1731
 1871SOL    HW2 7621  10.287   4.927  11.002  1.3367 -0.2981 -0.5299
 1872SOL     OW 7622  10.915   8.950   1.326 -0.0224  1.0434  0.6503
 1872SOL    HW1 7623  10.963   8.904   1.257  0.0552 -0.8504  1.8712
 1872SOL    HW2 7624  10.828   8.965   1.289  0.8363  2.7187 -0.8624
 1873SOL     OW 7625   8.629   1.166   9.589 -0.0018  0.3155  0.2492
 1873SOL    HW1 7626   8.614   1.168   9.494  1.8417 -0.3378 -0.1100
 1873SOL    HW2 7627   8.646   1.257   9.612  2.8756  0.1335 -0.7425
 1874SOL     OW 7628   8.944   3.691   5.960  0.5796 -0.2879 -0.2448
 1874SOL    HW1 7629   9.005   3.749   5.914  1.5082 -1.1251 -0.0783
 1874SOL    HW2 7630   8.974   3.603   5.941  0.0208 -0.6955  0.6666
 1875SOL     OW 7631  10.644   5.233   5.004 -0.3332  0.2409 -0.5041
 1875SOL    HW1 7632  10.668   5.246   4.913 -1.0172  1.7309 -0.5042
 1875SOL    HW2 7633  10.615   5.141   5.009  2.0408 -0.6184 -1.2066
 1876SOL     OW 7634   9.029   9.808   3.825 -0.3458  0.4980 -0.4195
 1876SOL    HW1 7635   9.004   9.842   3.739  0.3165  0.8133 -0.4912
 1876SOL    HW2 7636   9.118   9.840   3.838  0.2024 -0.9696 -0.3650
 1877SOL     OW 7637  10.981   7.865   1.033  0.5357  0.0478  0.2193
 1877SOL    HW1 7638  11.030   7.782   1.027  1.0994  0.1712  2.5182
 1877SOL    HW2 7639  10.917   7.851   1.102  0.0069  1.2500  0.0029
 1878SOL     OW 7640   6.935   3.811   4.893 -0.6120  0.3915  0.1119
 1878SOL    HW1 7641   6.876   3.884   4.912 -1.2644 -0.1014  0.0307
 1878SOL    HW2 7642   7.005   3.820   4.958 -2.1518 -0.5391  2.0197
 1879SOL     OW 7643   9.549   2.215   3.815 -0.4378 -0.5158 -0.5884
 1879SOL    HW1 7644   9.486   2.284   3.795  0.5363  0.2012 -1.3622
 1879SOL    HW2 7645   9.580   2.236   3.903 -1.7949 -1.2989  0.0859
 1880SOL     OW 7646   8.110   1.048   0.749  0.2648  0.2330 -0.0920
 1880SOL    HW1 7647   8.104   1.099   0.668 -0.7983  1.6283  0.7954
 1880SOL    HW2 7648   8.026   1.002   0.754  0.7363 -0.6543 -0.2799
 1881SOL     OW 7649   1.856   0.252   0.551 -0.3599 -0.0108 -0.1143
 1881SOL    HW1 7650   1.771   0.251   0.507  0.0725  0.0184 -0.9490
 1881SOL    HW2 7651   1.912   0.305   0.495  0.4480 -0.7431 -0.0083
 1882SOL     OW 7652   3.045   3.552   9.506 -0.2113 -0.5442 -0.0817
 1882SOL    HW1 7653   2.990   3.549   9.585  0.4562  0.6326  0.4499
 1882SOL    HW2 7654   2.983   3.566   9.434 -0.6943 -0.1764  0.3958
 1883SOL     OW 7655  10.505   1.728   6.579  0.4756 -0.1830 -0.0872
 1883SOL    HW1 7656  10.510   1.695   6.489  0.1187  0.2568 -0.2741
 1883SOL    HW2 7657  10.595   1.755   6.599  0.7228 -1.0367 -0.0133
 1884SOL     OW 7658   2.467   8.867   8.522 -0.2352 -0.4620 -0.0250
 1884SOL    HW1 7659   2.471   8.857   8.427  1.8637  1.6669 -0.2569
 1884SOL    HW2 7660   2.537   8.811   8.555 -0.1427 -0.2334  0.1677
 1885SOL     OW 7661   9.708   7.925   0.627  0.6386 -0.3669 -0.4085
 1885SOL    HW1 7662   9.739   7.835   0.641  2.1043 -0.0102 -1.2433
 1885SOL    HW2 7663   9.787   7.978   0.630 -0.2525  0.9739  0.4497
 1886SOL     OW 7664   7.791   1.757   6.150 -0.1388 -0.3181 -0.3523
 1886SOL    HW1 7665   7.827   1.823   6.091 -1.1173 -0.1375 -0.7838
 1886SOL    HW2 7666   7.829   1.777   6.235 -1.2848  1.5542 -0.2151
 1887SOL     OW 7667   5.206   6.829  10.085  0.5958 -0.4797  0.2962
 1887SOL    HW1 7668   5.256   6.791  10.012  0.0144 -1.5484  0.4345
 1887SOL    HW2 7669   5.266   6.826  10.159  0.1848 -2.3402  0.6190
 1888SOL     OW 7670   6.820   7.734   9.279 -0.3887 -0.0360 -0.6744
 1888SOL    HW1 7671   6.798   7.827   9.279 -2.9562 -0.5514 -1.1543
 1888SOL    HW2 7672   6.801   7.705   9.369  3.3255  0.3780  0.4185
 1889SOL     OW 7673   2.043  10.822   0.229 -0.6036 -1.0272 -0.4573
 1889SOL    HW1 7674   2.062  10.789   0.317  1.0765  0.9459 -0.0022
 1889SOL    HW2 7675   1.990  10.901   0.244 -0.7765 -0.9790 -1.2617
 1890SOL     OW 7676   9.241  10.720   2.878 -0.4783  0.2203  0.1091
 1890SOL    HW1 7677   9.269  10.629   2.889 -0.5658  0.2180  0.3234
 1890SOL    HW2 7678   9.317  10.764   2.842 -0.6380 -0.0738 -0.6040
 1891SOL     OW 7679   2.871   5.669   9.890 -0.1631 -0.0003  0.1003
 1891SOL    HW1 7680   2.844   5.757   9.862 -1.1533 -0.7317 -1.3536
 1891SOL    HW2 7681   2.888   5.622   9.809  1.0443 -0.9701  0.8810
 1892SOL     OW 7682   6.349   1.533   1.081  0.0698  0.5249  0.2248
 1892SOL    HW1 7683   6.355   1.450   1.128 -0.0167 -0.4980 -1.4874
 1892SOL    HW2 7684   6.333   1.598   1.149 -2.2819 -1.1527  1.4300
 1893SOL     OW 7685   7.388   9.289   2.665  0.3201 -0.6544 -0.3453
 1893SOL    HW1 7686   7.484   9.293   2.663  0.3089 -0.1459  0.1073
 1893SOL    HW2 7687   7.360   9.379   2.678 -0.2155 -0.8384 -0.1982
 1894SOL     OW 7688   4.834  10.883   7.247  0.1434  0.2723 -0.5292
 1894SOL    HW1 7689   4.809  10.797   7.212  1.2564  0.2848 -1.4572
 1894SOL    HW2 7690   4.772  10.901   7.317 -0.4187 -1.0660 -0.6650
 1895SOL     OW 7691   4.639   6.776   3.407 -0.0474  0.2581  0.1726
 1895SOL    HW1 7692   4.645   6.697   3.460  0.2780  0.9024  1.1055
 1895SOL    HW2 7693   4.675   6.846   3.461 -2.1000  1.4354  0.1527
 1896SOL     OW 7694   8.884   5.530   1.195  0.4947  0.1001  0.2367
 1896SOL    HW1 7695   8.847   5.517   1.108  0.5218  1.7701 -0.0592
 1896SOL    HW2 7696   8.854   5.617   1.221  0.7793 -0.2299  1.7541
 1897SOL     OW 7697   8.981   5.334   5.526 -0.0145 -0.0986 -0.0722
 1897SOL    HW1 7698   9.001   5.317   5.619  2.2476 -1.6882 -0.7494
 1897SOL    HW2 7699   9.051   5.393   5.498 -0.7256  0.4199 -0.7772
 1898SOL     OW 7700   1.861   7.477  10.887 -0.2910 -0.2144 -0.1677
 1898SOL    HW1 7701   1.923   7.409  10.913  0.8007  0.3884 -1.0999
 1898SOL    HW2 7702   1.800   7.433  10.828 -0.7202 -0.7942  0.6900
 1899SOL     OW 7703   5.385   1.065   5.489 -0.0966  0.4795 -0.2561
 1899SOL    HW1 7704   5.317   1.120   5.529 -0.4291 -0.7292  0.9409
 1899SOL    HW2 7705   5.422   1.016   5.562 -0.8563 -1.9873 -1.4091
 1900SOL     OW 7706   8.571   4.914   9.681  0.0510  0.1191  0.2862
 1900SOL    HW1 7707   8.595   4.912   9.588  1.8975  1.6509  0.6560
 1900SOL    HW2 7708   8.475   4.917   9.681  0.0081 -0.0985 -1.5604
 1901SOL     OW 7709   7.111  10.879   9.959 -0.3132 -0.2826 -0.3481
 1901SOL    HW1 7710   7.058  10.958   9.957  0.8333  0.5149 -0.1837
 1901SOL    HW2 7711   7.146  10.875  10.047  3.1586  1.5097 -1.4582
 1902SOL     OW 7712   6.673   1.083   3.929 -0.2383 -0.1010  0.1427
 1902SOL    HW1 7713   6.737   1.023   3.969 -1.3244 -1.1885  0.3249
 1902SOL    HW2 7714   6.631   1.126   4.003 -2.8901 -2.7774  0.4134
 1903SOL     OW 7715  10.512   7.304   0.506 -0.6930  0.2289 -0.4476
 1903SOL    HW1 7716  10.554   7.390   0.504  1.6960 -0.8278  0.1437
 1903SOL    HW2 7717  10.565   7.253   0.568 -2.7591 -1.3332  0.1586
 1904SOL     OW 7718   8.510   2.705  10.111  0.0544  0.1575 -0.4924
 1904SOL    HW1 7719   8.521   2.778  10.173  0.7754 -1.5839  1.5698
 1904SOL    HW2 7720   8.596   2.697  10.070 -0.0194  0.4461 -0.7074
 1905SOL     OW 7721  10.272   5.370   5.867 -0.0524  0.5146  0.5649
 1905SOL    HW1 7722  10.356   5.415   5.861 -0.5877  1.3393 -2.7588
 1905SOL    HW2 7723  10.229   5.410   5.942  2.3549  0.2498  2.2065
 1906SOL     OW 7724   4.591   6.040  10.582  0.4788 -0.1563 -0.6821
 1906SOL    HW1 7725   4.675   5.997  10.597  0.5544  0.1926 -0.0933
 1906SOL    HW2 7726   4.569   6.018  10.491  1.6135  0.4588 -1.1290
 1907SOL     OW 7727   0.150   3.124   6.818 -0.4719 -0.3481 -0.2399
 1907SOL    HW1 7728   0.152   3.155   6.727  2.2661 -0.9760 -0.4680
 1907SOL    HW2 7729   0.143   3.029   6.811 -1.8761 -0.3117  0.2980
 1908SOL     OW 7730   1.329   6.476   4.095  0.4530 -0.1956  0.2028
 1908SOL    HW1 7731   1.237   6.453   4.086 -0.4106  2.3242  1.5750
 1908SOL    HW2 7732   1.354   6.446   4.182  0.7384 -0.2895  0.0925
 1909SOL     OW 7733   0.037   3.477   6.050  0.5678 -0.1431  0.2263
 1909SOL    HW1 7734  -0.058   3.491   6.045  0.3451 -1.6416 -0.2202
 1909SOL    HW2 7735   0.047   3.405   6.112  1.4197  0.0689  0.3401
 1910SOL     OW 7736  11.017  10.680   8.618  0.1846  0.5960  0.1670
 1910SOL    HW1 7737  10.985  10.590   8.618  2.3948 -0.3263  2.6254
 1910SOL    HW2 7738  11.049  10.695   8.529  0.1308 -1.2000 -0.1907
 1911SOL     OW 7739   3.193   3.854   0.671  0.3115 -0.5335 -0.5173
 1911SOL    HW1 7740   3.257   3.861   0.600  1.8390 -1.8680  0.6535
 1911SOL    HW2 7741   3.221   3.777   0.721 -1.6279 -0.5470  0.6378
 1912SOL     OW 7742   8.301   1.005   4.448 -0.3844  0.2854 -0.1689
 1912SOL    HW1 7743   8.274   0.943   4.515 -0.3534 -0.1389 -0.5503
 1912SOL    HW2 7744   8.394   0.987   4.433 -1.0318 -1.6762 -2.4651
 1913SOL     OW 7745   2.167   0.416   9.521  0.6223  0.0550 -0.7083
 1913SOL    HW1 7746   2.103   0.346   9.536  0.6740  0.0882 -0.3336
 1913SOL    HW2 7747   2.128   0.493   9.563  1.0386  0.0074 -0.2308
 1914SOL     OW 7748   3.246   8.857   2.576 -0.1792 -0.7653  0.0364
 1914SOL    HW1 7749   3.292   8.790   2.626 -1.1289 -0.7596  0.9529
 1914SOL    HW2 7750   3.261   8.938   2.625  0.0938 -0.4853 -0.4954
 1915SOL     OW 7751   2.293  10.309   9.887 -0.1592  0.3275  0.0297
 1915SOL    HW1 7752   2.316  10.219   9.913  1.3058  0.5275 -0.4616
 1915SOL    HW2 7753   2.377  10.353   9.879 -0.8126  1.4769 -0.7392
 1916SOL     OW 7754   9.819   9.282   1.473  0.0625  0.2364 -0.1022
 1916SOL    HW1 7755   9.895   9.340   1.474 -0.3457  0.8241 -1.5021
 1916SOL    HW2 7756   9.823   9.239   1.388 -2.4667  2.0652 -1.2523
 1917SOL     OW 7757  10.628   6.198   2.395 -0.7127  0.3517 -0.4717
 1917SOL    HW1 7758  10.542   6.159   2.411  0.2610 -2.7229 -1.9704
 1917SOL    HW2 7759  10.671   6.197   2.481 -1.1920 -0.7564 -0.2243
 1918SOL     OW 7760   8.579  10.251   0.203 -0.3865  0.1855 -0.1225
 1918SOL    HW1 7761   8.592  10.207   0.120  0.4993 -0.5255  0.3796
 1918SOL    HW2 7762   8.484  10.245   0.219 -0.6202  0.7085 -1.2713
 1919SOL     OW 7763   9.182   6.545   1.189  0.1084  0.2279 -0.5055
 1919SOL    HW1 7764   9.195   6.603   1.264 -0.7575  1.1920 -1.0774
 1919SOL    HW2 7765   9.170   6.604   1.115  2.0296 -0.6927 -1.6354
 1920SOL     OW 7766   1.170   7.627   5.983 -0.0766  0.0486  0.4891
 1920SOL    HW1 7767   1.135   7.555   6.036  1.7649 -1.3680 -0.0856
 1920SOL    HW2 7768   1.161   7.597   5.893 -2.3860  2.0614 -0.0427
 1921SOL     OW 7769   2.421   9.669  10.268 -0.3270 -0.2110  0.0844
 1921SOL    HW1 7770   2.476   9.592  10.254 -1.8161 -1.7116  1.9268
 1921SOL    HW2 7771   2.331   9.637  10.257 -0.9333  1.8686 -1.5557
 1922SOL     OW 7772   5.297   3.772   3.400 -0.8582  0.0195  0.9552
 1922SOL    HW1 7773   5.272   3.733   3.484 -1.2127  1.4611  1.5601
 1922SOL    HW2 7774   5.283   3.866   3.413 -0.7172  0.2865 -0.6596
 1923SOL     OW 7775   5.785   2.453   8.038 -0.7522 -0.0397  0.1681
 1923SOL    HW1 7776   5.811   2.476   7.949  0.6373 -1.4484  0.1522
 1923SOL    HW2 7777   5.717   2.387   8.026 -0.6994 -0.0910  0.1501
 1924SOL     OW 7778   9.294   7.509   0.503  0.0702  0.3646  0.2254
 1924SOL    HW1 7779   9.389   7.516   0.503  0.0470  1.3215 -1.2899
 1924SOL    HW2 7780   9.263   7.596   0.527 -0.4534 -0.2428  1.8576
 1925SOL     OW 7781   1.817   7.559   3.093 -0.3236  0.1746 -0.0250
 1925SOL    HW1 7782   1.801   7.638   3.144 -0.6496  1.2131 -1.6586
 1925SOL    HW2 7783   1.843   7.494   3.158  1.5284  2.0267  1.2185
 1926SOL     OW 7784   1.202   2.126   3.788  0.3392 -0.0968  0.0397
 1926SOL    HW1 7785   1.153   2.136   3.707  0.6633 -1.1980 -0.3094
 1926SOL    HW2 7786   1.146   2.071   3.843  0.8289 -0.7016 -0.0586
 1927SOL     OW 7787   0.195   1.382   0.991 -0.4187 -0.0019 -0.2364
 1927SOL    HW1 7788   0.153   1.372   0.906 -2.4763 -1.5497  0.8905
 1927SOL    HW2 7789   0.249   1.304   1.000  0.7332  0.7299 -0.5740
 1928SOL     OW 7790   4.769   2.756   3.924  0.8636 -0.7033  0.2940
 1928SOL    HW1 7791   4.747   2.736   3.833 -1.2882 -0.3264  0.6545
 1928SOL    HW2 7792   4.769   2.852   3.928  0.2424 -0.7115  0.8037
 1929SOL     OW 7793   4.099   1.781   5.156  0.0744 -0.3948  0.7665
 1929SOL    HW1 7794   4.015   1.806   5.117  0.5919 -0.0370 -0.1265
 1929SOL    HW2 7795   4.082   1.780   5.251 -1.3372 -1.7588  0.5459
 1930SOL     OW 7796   7.739   5.922   2.864 -0.2687 -0.3556  0.1147
 1930SOL    HW1 7797   7.666   5.916   2.802 -0.2531 -2.8457  0.2330
 1930SOL    HW2 7798   7.714   5.864   2.936  0.8553  0.5157  1.2583
 1931SOL     OW 7799   6.244   5.901   2.040 -0.2771  0.0530  0.1929
 1931SOL    HW1 7800   6.182   5.830   2.051  0.2917 -0.2659  1.5872
 1931SOL    HW2 7801   6.293   5.879   1.961  0.6854 -1.7493  1.2250
 1932SOL     OW 7802   4.630  10.739   2.707 -0.0401 -0.1679 -0.3460
 1932SOL    HW1 7803   4.600  10.788   2.784 -0.1421  0.7705 -0.9676
 1932SOL    HW2 7804   4.691  10.799   2.663  0.5134 -0.9430 -0.6572
 1933SOL     OW 7805   1.819   1.768   4.797  0.2538 -0.4581  0.2242
 1933SOL    HW1 7806   1.851   1.850   4.836  0.0597 -0.9463  1.4419
 1933SOL    HW2 7807   1.771   1.796   4.719  1.2550  0.4923 -0.0627
 1934SOL     OW 7808  10.443  10.996   7.254  0.2773  0.1512  0.5428
 1934SOL    HW1 7809  10.509  11.019   7.320  0.1329 -0.3657  0.8781
 1934SOL    HW2 7810  10.477  10.915   7.214 -1.1269 -1.3276  2.1618
 1935SOL     OW 7811   2.969   7.445   2.980 -0.2984 -0.1170 -0.3498
 1935SOL    HW1 7812   2.905   7.429   3.050 -0.3320  0.0398 -0.3446
 1935SOL    HW2 7813   2.947   7.532   2.947  1.9791  1.4591  1.8965
 1936SOL     OW 7814   8.255   4.515   1.203  0.3081  0.4932  0.2574
 1936SOL    HW1 7815   8.267   4.537   1.111 -0.3212  3.3300  0.7744
 1936SOL    HW2 7816   8.336   4.468   1.226 -0.0860 -1.5054 -1.9827
 1937SOL     OW 7817   3.276   0.405   9.667  0.1971  0.1242  0.2285
 1937SOL    HW1 7818   3.223   0.432   9.742 -0.1476 -1.0010  0.4130
 1937SOL    HW2 7819   3.231   0.328   9.632  1.1878 -0.2855 -0.1966
 1938SOL     OW 7820   6.003   5.699   8.493 -0.0028  0.5057 -0.0443
 1938SOL    HW1 7821   6.035   5.681   8.581 -1.6303  0.0049  0.4768
 1938SOL    HW2 7822   6.018   5.618   8.445 -2.7152 -0.6982  0.9190
 1939SOL     OW 7823   6.217   3.261   4.573  0.2228  0.6086  0.1594
 1939SOL    HW1 7824   6.208   3.221   4.487  1.3457  2.4135 -0.8457
 1939SOL    HW2 7825   6.131   3.250   4.614  0.1777 -1.8550 -0.4265
 1940SOL     OW 7826   3.918   0.387   2.425 -0.2967  0.3433  0.6032
 1940SOL    HW1 7827   3.893   0.479   2.415 -0.6664  0.2470  0.6139
 1940SOL    HW2 7828   3.985   0.373   2.358 -1.6602  0.1077 -0.7830
 1941SOL     OW 7829   2.591   7.739   3.964  0.0926 -0.0548 -0.1577
 1941SOL    HW1 7830   2.558   7.650   3.950 -2.0090  0.4905  0.7644
 1941SOL    HW2 7831   2.551   7.790   3.894 -1.0251  0.6161  0.9275
 1942SOL     OW 7832   6.778   9.101   8.602 -0.3148  0.0191  0.4158
 1942SOL    HW1 7833   6.768   9.057   8.518  0.4253  0.3814  0.1286
 1942SOL    HW2 7834   6.769   9.194   8.582  0.0743  0.1218  0.7026
 1943SOL     OW 7835   2.499   4.678  10.111 -0.6332 -0.2131 -0.2425
 1943SOL    HW1 7836   2.556   4.684  10.188 -1.0337  2.7763 -0.0524
 1943SOL    HW2 7837   2.547   4.624  10.049  2.0367  1.4168  0.2654
 1944SOL     OW 7838   7.331   1.362   9.240 -0.1414  0.4006 -0.1268
 1944SOL    HW1 7839   7.403   1.423   9.248  1.3450 -1.1340 -1.1297
 1944SOL    HW2 7840   7.336   1.308   9.320 -1.7328  1.7777  0.9858
 1945SOL     OW 7841   4.504   3.100   9.949 -0.2076 -0.2549  0.3515
 1945SOL    HW1 7842   4.442   3.107  10.021 -1.8791  1.0893 -1.1093
 1945SOL    HW2 7843   4.588   3.126   9.987 -1.0971  0.6890  1.7629
 1946SOL     OW 7844  10.703   7.019   3.605  1.4238  0.4580 -0.0558
 1946SOL    HW1 7845  10.755   7.071   3.667  0.3656 -0.0632  1.3042
 1946SOL    HW2 7846  10.648   6.964   3.660 -1.0117  1.4083 -1.4239
 1947SOL     OW 7847   4.795   8.555   2.893 -0.0971 -0.5459 -0.2889
 1947SOL    HW1 7848   4.856   8.485   2.915  1.6298  1.2261  0.8719
 1947SOL    HW2 7849   4.812   8.573   2.800  0.3109 -0.8345 -0.2727
 1948SOL     OW 7850   2.724   2.205   6.134 -0.0581 -0.2041 -0.6544
 1948SOL    HW1 7851   2.708   2.133   6.195  1.9995 -0.7558 -0.6893
 1948SOL    HW2 7852   2.648   2.204   6.076 -0.6663 -1.5400  0.0970
 1949SOL     OW 7853   3.446   8.539   5.227  0.1097  0.1276 -0.0706
 1949SOL    HW1 7854   3.459   8.571   5.316 -1.2674  0.4339  0.0381
 1949SOL    HW2 7855   3.466   8.446   5.232 -0.4955  0.0296  0.6892
 1950SOL     OW 7856   2.354   6.946   3.644  0.1382  0.2067 -0.1466
 1950SOL    HW1 7857   2.397   6.875   3.596 -0.1602  0.6397 -1.0835
 1950SOL    HW2 7858   2.358   6.919   3.736 -0.6997 -1.4313 -0.5436
 1951SOL     OW 7859   0.177   5.925   5.010 -0.0427 -0.7107 -0.1446
 1951SOL    HW1 7860   0.172   6.013   5.048 -1.6274 -0.4359 -0.8959
 1951SOL    HW2 7861   0.196   5.941   4.917 -1.0033 -1.0972 -0.4215
 1952SOL     OW 7862   0.517  10.833   1.486  0.6567  0.1274  0.1154
 1952SOL    HW1 7863   0.553  10.918   1.511  0.6614  0.1203  0.1337
 1952SOL    HW2 7864   0.512  10.836   1.390 -1.7339  1.1317  0.2107
 1953SOL     OW 7865   3.155   5.473   6.692 -0.3534  0.7573  0.2664
 1953SOL    HW1 7866   3.133   5.555   6.647 -3.4617 -0.1883 -0.1630
 1953SOL    HW2 7867   3.102   5.407   6.649  1.6473 -1.4700  0.9770
 1954SOL     OW 7868   0.008   1.152   7.370  0.2535 -0.1170 -0.0557
 1954SOL    HW1 7869   0.043   1.104   7.295  1.1911  0.8394 -0.2631
 1954SOL    HW2 7870  -0.025   1.085   7.429 -0.1565 -0.9076 -1.1575
 1955SOL     OW 7871   1.073   4.589   9.617  0.4328  0.0561  0.1687
 1955SOL    HW1 7872   1.087   4.520   9.682  1.6164  0.5719  0.4775
 1955SOL    HW2 7873   1.001   4.641   9.653 -1.3685 -1.6837 -0.6635
 1956SOL     OW 7874   8.744   6.332   6.121  0.2756  0.3812  0.2815
 1956SOL    HW1 7875   8.816   6.384   6.084  1.5248 -1.8447 -0.6622
 1956SOL    HW2 7876   8.665   6.376   6.091  1.2639  1.2972 -1.1677
 1957SOL     OW 7877   7.331   5.522   6.142  0.0943 -0.0168  0.0894
 1957SOL    HW1 7878   7.302   5.587   6.207 -0.4155 -0.1917  0.0432
 1957SOL    HW2 7879   7.423   5.507   6.163 -0.2678 -0.6871  1.3006
 1958SOL     OW 7880   5.403   1.406  10.031 -0.0823  0.3517 -0.3398
 1958SOL    HW1 7881   5.357   1.463  10.093 -0.7246  0.1910 -0.6682
 1958SOL    HW2 7882   5.477   1.372  10.081 -1.2286 -0.6763  0.7190
 1959SOL     OW 7883   2.676   7.853   4.715  0.1461 -0.5121 -0.2951
 1959SOL    HW1 7884   2.604   7.791   4.705 -0.1872 -0.1270 -0.3168
 1959SOL    HW2 7885   2.715   7.831   4.800 -0.4027 -0.3064  0.0125
 1960SOL     OW 7886   5.814   0.146   3.412  0.0187 -0.4680  0.3653
 1960SOL    HW1 7887   5.767   0.196   3.345 -1.6560 -0.2873  1.6267
 1960SOL    HW2 7888   5.856   0.213   3.466  0.7182 -0.5841 -0.0251
 1961SOL     OW 7889   8.517   5.784   3.284  0.0044 -0.0086  0.2154
 1961SOL    HW1 7890   8.473   5.703   3.309  3.4380 -2.0446  0.2708
 1961SOL    HW2 7891   8.450   5.852   3.295 -2.3554 -2.4690  2.5234
 1962SOL     OW 7892   4.488   7.410  10.145  0.6000  0.0659 -0.7931
 1962SOL    HW1 7893   4.474   7.390  10.238 -0.8799 -0.0360 -1.0233
 1962SOL    HW2 7894   4.446   7.496  10.133 -1.4712 -1.0280 -1.8942
 1963SOL     OW 7895   6.911   9.670   4.922 -0.6439 -1.2291 -0.2583
 1963SOL    HW1 7896   6.997   9.694   4.887 -0.8016  1.2934  0.9029
 1963SOL    HW2 7897   6.848   9.710   4.862 -0.9389 -0.2557  0.6626
 1964SOL     OW 7898   4.012  10.541   5.974 -0.4683  0.3453 -0.0025
 1964SOL    HW1 7899   4.005  10.631   6.004  0.7842  1.5870 -3.0294
 1964SOL    HW2 7900   3.922  10.508   5.973 -0.7390  0.4725  3.6976
 1965SOL     OW 7901   6.241   7.755   1.293  0.2630  0.5744  0.2842
 1965SOL    HW1 7902   6.316   7.724   1.241 -1.0252  0.8837 -1.8978
 1965SOL    HW2 7903   6.170   7.694   1.272 -0.3848  0.8550  1.5435
 1966SOL     OW 7904   9.821   3.790   5.075 -0.2793 -0.1963  0.0950
 1966SOL    HW1 7905   9.891   3.736   5.041 -0.7399 -1.2709  0.7945
 1966SOL    HW2 7906   9.798   3.849   5.003  0.4173 -0.7449 -0.5872
 1967SOL     OW 7907   6.182   6.613   9.051 -0.5482  0.3643  0.1760
 1967SOL    HW1 7908   6.199   6.563   9.131 -1.0611 -0.8692 -0.4593
 1967SOL    HW2 7909   6.088   6.605   9.037 -0.2981 -0.4508 -1.1940
 1968SOL     OW 7910   1.996   9.018   6.130  0.0378 -0.0151 -0.5710
 1968SOL    HW1 7911   1.999   8.946   6.193 -0.7797 -0.0956 -0.6026
 1968SOL    HW2 7912   1.932   9.079   6.166 -1.0934 -0.4740 -1.7135
 1969SOL     OW 7913   6.121   3.298   5.339 -0.2202 -0.5871 -0.1491
 1969SOL    HW1 7914   6.124   3.267   5.429  1.6652 -0.5549 -0.1591
 1969SOL    HW2 7915   6.173   3.233   5.290 -3.3334 -2.0909 -1.7349
 1970SOL     OW 7916   5.905   4.452   8.870 -0.1148  0.0744 -0.1112
 1970SOL    HW1 7917   5.866   4.456   8.957  0.5682 -1.5646  0.3080
 1970SOL    HW2 7918   5.852   4.512   8.817 -1.2222  0.2695  1.1642
 1971SOL     OW 7919  10.375   0.766   8.988  0.0528  0.6810  0.0232
 1971SOL    HW1 7920  10.404   0.849   9.026  0.7426  0.3323  0.2739
 1971SOL    HW2 7921  10.455   0.724   8.957 -0.0724 -0.6203  1.3424
 1972SOL     OW 7922   9.617   7.643   6.347 -0.2042 -0.4449 -0.0346
 1972SOL    HW1 7923   9.602   7.562   6.299 -2.5310  0.4216 -0.8591
 1972SOL    HW2 7924   9.549   7.703   6.317  1.0739  1.6502  0.9901
 1973SOL     OW 7925   3.575   7.355   4.474 -0.2403  0.4647  0.3884
 1973SOL    HW1 7926   3.637   7.411   4.428  1.2119  0.5103  2.2686
 1973SOL    HW2 7927   3.507   7.336   4.410  0.4274  2.4601 -0.9975
 1974SOL     OW 7928   9.769   1.401   1.413  0.0557  0.2805  0.2300
 1974SOL    HW1 7929   9.767   1.493   1.438 -0.4927 -0.0911  1.6463
 1974SOL    HW2 7930   9.687   1.365   1.447 -0.0815 -0.5838 -0.9549
 1975SOL     OW 7931   2.067   0.011   6.543  0.2055 -0.6361  0.1275
 1975SOL    HW1 7932   2.064  -0.033   6.458 -0.0106 -0.9613  0.3009
 1975SOL    HW2 7933   2.093   0.101   6.523 -0.9077 -0.4111 -0.4060
 1976SOL     OW 7934   9.426   5.879   4.749  0.3477  0.2532  0.2274
 1976SOL    HW1 7935   9.383   5.806   4.704  1.1974  1.3781 -2.6857
 1976SOL    HW2 7936   9.365   5.952   4.741  1.4152  1.0420 -1.1720
 1977SOL     OW 7937  10.765   4.127   1.365 -0.6937  0.3568  0.1463
 1977SOL    HW1 7938  10.754   4.211   1.321  0.1308  0.8605  0.8612
 1977SOL    HW2 7939  10.734   4.142   1.454 -0.7398 -0.1613  0.2247
 1978SOL     OW 7940   1.928   0.237   4.677  0.2234 -0.4740  0.5094
 1978SOL    HW1 7941   1.870   0.165   4.653 -0.2367  0.8140 -2.8029
 1978SOL    HW2 7942   1.872   0.301   4.719 -0.2483 -0.3646 -0.2621
 1979SOL     OW 7943  10.488   7.041   6.332 -0.5165 -0.0221  0.0785
 1979SOL    HW1 7944  10.519   6.968   6.279  2.3732  0.4812  0.8797
 1979SOL    HW2 7945  10.457   7.001   6.413  2.4767 -0.4111  1.1549
 1980SOL     OW 7946   2.416   7.870   1.568  0.1413  0.2989 -0.6811
 1980SOL    HW1 7947   2.343   7.807   1.565  0.4291 -0.0187 -1.1394
 1980SOL    HW2 7948   2.464   7.847   1.648  0.1376  0.0526 -0.7472
 1981SOL     OW 7949   6.579   1.075   3.163 -0.0311 -0.1816  0.0068
 1981SOL    HW1 7950   6.593   1.038   3.250  1.0903 -1.8223 -0.8146
 1981SOL    HW2 7951   6.649   1.140   3.154 -0.4814  0.3838  0.5210
 1982SOL     OW 7952   4.870   2.382   9.478  0.0527 -0.2854 -0.4773
 1982SOL    HW1 7953   4.818   2.306   9.505  0.8648 -0.6570  0.0882
 1982SOL    HW2 7954   4.941   2.345   9.425  2.0316 -0.3134  1.9787
 1983SOL     OW 7955   2.388   4.487  10.528  0.4667  0.1699  1.0222
 1983SOL    HW1 7956   2.422   4.464  10.614 -2.2607  1.7784  2.6911
 1983SOL    HW2 7957   2.428   4.572  10.508  0.4286  0.2090  1.1135
 1984SOL     OW 7958   0.017   6.743   2.011  0.3403 -0.7209 -0.2502
 1984SOL    HW1 7959  -0.032   6.759   2.092  0.2741  0.0678 -0.4406
 1984SOL    HW2 7960  -0.049   6.709   1.951  0.1096 -0.0625 -0.3746
 1985SOL     OW 7961   2.373  10.850  10.434 -0.4491 -0.1074 -0.3633
 1985SOL    HW1 7962   2.343  10.809  10.515  3.2912  3.3409  3.2426
 1985SOL    HW2 7963   2.464  10.824  10.426  0.3936  2.7072 -1.1705
 1986SOL     OW 7964   8.018   1.065   4.889 -0.0288  0.1993 -0.1511
 1986SOL    HW1 7965   8.107   1.101   4.883 -0.0565  0.5058  0.9650
 1986SOL    HW2 7966   7.987   1.061   4.799 -0.0604  3.0790 -0.3606
 1987SOL     OW 7967   0.338   3.803   4.366  0.2012  0.0056  0.0784
 1987SOL    HW1 7968   0.339   3.715   4.404 -2.0757  0.7082  2.0232
 1987SOL    HW2 7969   0.313   3.791   4.275 -1.1175 -1.3150  0.5893
 1988SOL     OW 7970   1.101   5.926   0.258  0.0534 -0.2248  0.4052
 1988SOL    HW1 7971   1.120   6.006   0.208 -1.1436 -1.1653 -1.6623
 1988SOL    HW2 7972   1.153   5.935   0.338  1.2707  1.8222 -0.5409
 1989SOL     OW 7973   8.363   1.345   9.570  0.3111  0.5161  0.0072
 1989SOL    HW1 7974   8.350   1.437   9.546  0.2445  0.5192  0.0559
 1989SOL    HW2 7975   8.313   1.334   9.651  2.3263  1.0989  1.4000
 1990SOL     OW 7976   6.913   6.722   1.244 -0.7157  0.6877 -0.2549
 1990SOL    HW1 7977   6.871   6.807   1.230 -0.8831  0.9541  1.6440
 1990SOL    HW2 7978   6.898   6.702   1.336 -0.6339 -1.3972 -0.6287
 1991SOL     OW 7979   1.069   4.164   0.597  0.2220  0.0376 -0.1995
 1991SOL    HW1 7980   0.981   4.194   0.621 -0.2444 -0.3516 -1.3298
 1991SOL    HW2 7981   1.055   4.110   0.519  1.6936  1.7353 -1.7318
 1992SOL     OW 7982   6.313   2.732   1.246 -0.5659 -0.4397 -0.1853
 1992SOL    HW1 7983   6.259   2.733   1.167  0.8600 -0.3769 -1.1851
 1992SOL    HW2 7984   6.339   2.824   1.258  0.6035 -0.6977 -0.6354
 1993SOL     OW 7985   4.939   6.193   3.302 -0.0241  0.8393  0.4570
 1993SOL    HW1 7986   5.008   6.259   3.300  1.7192 -0.7843  2.1426
 1993SOL    HW2 7987   4.868   6.233   3.352  0.7441  1.6382  0.9271
 1994SOL     OW 7988   7.099  10.256   1.249  0.5072  0.3592 -0.2207
 1994SOL    HW1 7989   7.019  10.213   1.217  0.7297 -0.8498  0.8071
 1994SOL    HW2 7990   7.073  10.348   1.260 -1.3473 -0.3191  1.9130
 1995SOL     OW 7991   4.473   0.233   2.234 -0.0611  0.0212  0.7236
 1995SOL    HW1 7992   4.501   0.265   2.148 -0.8664 -0.0324  0.4339
 1995SOL    HW2 7993   4.521   0.151   2.246  0.0007 -0.0075  0.2922
 1996SOL     OW 7994   0.904   3.178   3.709  0.6033  0.0499 -0.0471
 1996SOL    HW1 7995   0.878   3.198   3.799 -1.6829 -0.8797 -0.4383
 1996SOL    HW2 7996   0.858   3.242   3.656 -0.0949 -0.9800 -0.7109
 1997SOL     OW 7997   3.201   1.985   5.614 -0.4592 -0.1060 -0.0821
 1997SOL    HW1 7998   3.156   1.959   5.535 -0.7811 -1.1383  0.4259
 1997SOL    HW2 7999   3.164   1.930   5.683 -0.6018  1.1608  0.9055
 1998SOL     OW 8000   7.770   5.945   2.314 -0.1770 -0.0692  0.2409
 1998SOL    HW1 8001   7.707   5.998   2.364 -2.8431 -2.5313 -0.2490
 1998SOL    HW2 8002   7.779   5.991   2.231 -0.7301  0.7147  0.5963
 1999SOL     OW 8003   3.192  10.505   4.040 -0.3070  0.6006  0.5406
 1999SOL    HW1 8004   3.206  10.580   4.097 -0.0158  0.0173  1.2427
 1999SOL    HW2 8005   3.190  10.429   4.099  0.9097 -0.1132 -0.3046
 2000SOL     OW 8006   4.113   4.915   7.364 -0.2749 -0.1831 -0.2219
 2000SOL    HW1 8007   4.041   4.908   7.426 -0.5119  3.6209  0.1692
 2000SOL    HW2 8008   4.187   4.872   7.407 -1.3439 -0.8011  1.0565
 2001SOL     OW 8009   0.160   5.562   5.233 -0.4422  0.0832 -0.1614
 2001SOL    HW1 8010   0.096   5.621   5.195 -0.4912 -0.0839 -0.3381
 2001SOL    HW2 8011   0.147   5.569   5.328  0.6030  1.5604 -0.0861
 2002SOL     OW 8012   0.911   7.473   1.244  0.6037  0.1430  0.5545
 2002SOL    HW1 8013   0.821   7.447   1.264  0.7545  0.1784  1.3470
 2002SOL    HW2 8014   0.955   7.391   1.222  0.8173 -0.1624  1.9906
 2003SOL     OW 8015  10.799   1.035   5.469  0.0081 -0.4850  0.0322
 2003SOL    HW1 8016  10.809   1.116   5.419 -2.1770  0.1841  0.6033
 2003SOL    HW2 8017  10.806   0.966   5.403  1.3077  0.1531 -0.5488
 2004SOL     OW 8018   5.791   5.137   4.189 -0.1681 -0.0790  0.3455
 2004SOL    HW1 8019   5.748   5.057   4.216 -0.2498 -0.0254  0.3742
 2004SOL    HW2 8020   5.724   5.186   4.142  0.3971 -0.8957 -1.4054
 2005SOL     OW 8021   5.152   2.637   9.894 -0.4304  0.6741 -0.1090
 2005SOL    HW1 8022   5.057   2.638   9.903 -0.4371 -1.2648  0.4273
 2005SOL    HW2 8023   5.171   2.553   9.852  0.9744  1.6266 -1.5281
 2006SOL     OW 8024   6.471  10.876   6.368 -0.5520 -0.3522  0.1735
 2006SOL    HW1 8025   6.540  10.932   6.332 -0.5440 -0.6856 -0.3537
 2006SOL    HW2 8026   6.449  10.915   6.452 -1.0227  0.8464 -0.4813
 2007SOL     OW 8027   7.490   5.902   5.401  0.3853  0.4744 -0.1488
 2007SOL    HW1 8028   7.477   5.953   5.321 -0.3742  1.8089  0.7962
 2007SOL    HW2 8029   7.481   5.810   5.373  1.1673  0.8596 -1.7677
 2008SOL     OW 8030   0.952   7.627   9.290 -0.1895 -0.4428 -0.0394
 2008SOL    HW1 8031   0.951   7.537   9.322 -2.8951 -0.2891  0.4794
 2008SOL    HW2 8032   1.041   7.639   9.255  0.0055 -3.5375 -0.8366
 2009SOL     OW 8033   8.634   9.795   2.438 -0.3228 -0.3543 -0.3894
 2009SOL    HW1 8034   8.556   9.754   2.473 -0.7950 -0.2707 -1.3145
 2009SOL    HW2 8035   8.680   9.829   2.515 -1.5218  0.1824  0.1146
 2010SOL     OW 8036   7.857  10.321   0.166 -0.0676 -0.3763 -0.2400
 2010SOL    HW1 8037   7.940  10.337   0.121 -1.2317 -0.0963 -2.4470
 2010SOL    HW2 8038   7.839  10.228   0.150 -0.4930 -0.2733 -0.3642
 2011SOL     OW 8039   6.064   3.776   6.798  0.5264 -0.0418  0.0081
 2011SOL    HW1 8040   5.988   3.834   6.801 -0.1706 -0.9281 -0.4196
 2011SOL    HW2 8041   6.123   3.811   6.866  0.1430  1.1795 -0.2519
 2012SOL     OW 8042   5.946   9.422   7.531  0.1774 -0.3819  0.2805
 2012SOL    HW1 8043   5.928   9.505   7.576 -1.7965 -0.0654 -0.9722
 2012SOL    HW2 8044   6.003   9.446   7.458  0.6239 -0.3628  0.6245
 2013SOL     OW 8045  10.916   8.472   9.094  0.4339 -0.3284  0.0431
 2013SOL    HW1 8046  10.842   8.432   9.141 -2.8988  1.1574 -3.3664
 2013SOL    HW2 8047  10.959   8.398   9.050 -0.8309 -1.0109 -0.1044
 2014SOL     OW 8048   5.882  10.285   1.119 -0.2593  0.3022 -0.3697
 2014SOL    HW1 8049   5.819  10.269   1.049  0.0458  1.3201 -0.8880
 2014SOL    HW2 8050   5.862  10.373   1.151  0.0627  0.1268  0.3510
 2015SOL     OW 8051   1.536   5.275   2.794 -0.3314  0.3735 -0.2002
 2015SOL    HW1 8052   1.605   5.338   2.773 -0.7623  1.2122  0.8428
 2015SOL    HW2 8053   1.583   5.200   2.832  0.3032 -0.5034 -2.5264
 2016SOL     OW 8054   0.920   3.506   2.910  0.5784  0.0782 -0.1327
 2016SOL    HW1 8055   0.863   3.430   2.904  0.4954  0.1089  0.2806
 2016SOL    HW2 8056   0.916   3.545   2.822 -1.6213  1.2300  0.4188
 2017SOL     OW 8057   2.893   4.647   8.337  0.3909 -0.1649 -0.1098
 2017SOL    HW1 8058   2.815   4.627   8.286  0.1857  1.6268 -0.5837
 2017SOL    HW2 8059   2.860   4.678   8.422  0.6450 -0.8518  0.2450
 2018SOL     OW 8060   4.491   5.702   3.588 -0.7883  0.1420 -0.0566
 2018SOL    HW1 8061   4.527   5.653   3.663 -0.2996 -2.5887 -1.9062
 2018SOL    HW2 8062   4.417   5.649   3.559 -1.3396  1.4683 -1.1514
 2019SOL     OW 8063   5.788   8.656   0.523 -0.3891 -0.0442  0.4887
 2019SOL    HW1 8064   5.824   8.692   0.605  0.7363 -0.9187  0.3938
 2019SOL    HW2 8065   5.696   8.685   0.523  0.0413  1.4374  1.2075
 2020SOL     OW 8066   3.293   7.179   3.499 -0.0578  0.3416  0.4838
 2020SOL    HW1 8067   3.250   7.192   3.415  0.3873 -1.5390 -0.0643
 2020SOL    HW2 8068   3.321   7.088   3.499 -0.7797  0.0395  3.0248
 2021SOL     OW 8069   1.096   6.999   0.790  0.0496 -0.4976 -0.4372
 2021SOL    HW1 8070   1.096   7.082   0.839 -0.9266 -0.3473 -0.6669
 2021SOL    HW2 8071   1.135   7.022   0.706  0.8565 -0.5423 -0.0841
 2022SOL     OW 8072   8.118   9.344   1.422 -0.2459 -0.0514  0.0651
 2022SOL    HW1 8073   8.043   9.353   1.364  0.0256 -1.0045 -0.4615
 2022SOL    HW2 8074   8.102   9.262   1.470  1.6856 -1.8256 -2.0288
 2023SOL     OW 8075   4.821   3.753   9.085 -0.0676 -0.5709 -0.3723
 2023SOL    HW1 8076   4.785   3.711   9.164  0.4516 -0.3018  0.0091
 2023SOL    HW2 8077   4.909   3.717   9.076  0.4848  0.6027  0.1063
 2024SOL     OW 8078   2.529   9.088   0.516  0.0608  0.4362 -0.2360
 2024SOL    HW1 8079   2.471   9.024   0.558  1.1898 -0.4127  0.0623
 2024SOL    HW2 8080   2.492   9.100   0.429 -1.1003  0.6323  0.2549
 2025SOL     OW 8081   8.274   8.365   0.554 -0.5828  0.6882  0.7722
 2025SOL    HW1 8082   8.260   8.332   0.643  2.0331  1.2934  1.4762
 2025SOL    HW2 8083   8.342   8.432   0.563 -1.3319  1.8640 -1.4995
 2026SOL     OW 8084   4.256   9.405   1.712 -0.0734  0.0940  0.0321
 2026SOL    HW1 8085   4.344   9.441   1.697  0.5109 -1.4644 -0.5432
 2026SOL    HW2 8086   4.201   9.447   1.646 -0.0014  1.7787  0.9832
 2027SOL     OW 8087   8.110   9.062   8.605 -0.2091 -0.8069 -0.0563
 2027SOL    HW1 8088   8.096   9.062   8.510 -0.7096 -1.4714  0.0132
 2027SOL    HW2 8089   8.065   9.141   8.635 -2.3016 -1.9158 -0.0768
 2028SOL     OW 8090   5.700   9.224  10.633 -0.3174 -0.3534 -0.0091
 2028SOL    HW1 8091   5.757   9.191  10.563 -1.2601 -0.2437 -0.8413
 2028SOL    HW2 8092   5.761   9.263  10.696  0.5103  0.1624 -1.0913
 2029SOL     OW 8093   3.332   8.023   8.412 -0.2379 -0.6079 -0.0803
 2029SOL    HW1 8094   3.340   8.099   8.355  1.6790 -1.1030 -0.5490
 2029SOL    HW2 8095   3.292   8.057   8.492  0.7747  0.9529 -0.1935
 2030SOL     OW 8096   4.581   1.452  10.480  0.3315  0.2843 -0.1324
 2030SOL    HW1 8097   4.671   1.482  10.485  0.9058 -1.2535 -0.6812
 2030SOL    HW2 8098   4.587   1.360  10.454 -1.2913 -0.5030  1.9408
 2031SOL     OW 8099   4.978   7.474   6.265 -0.3607  0.4066 -0.6169
 2031SOL    HW1 8100   4.894   7.518   6.254 -0.6620  0.0644  0.2657
 2031SOL    HW2 8101   5.003   7.491   6.355  0.6403  0.6907 -0.9279
 2032SOL     OW 8102   0.987   3.017  10.973 -0.2860 -0.7308 -0.4105
 2032SOL    HW1 8103   1.014   2.934  11.013 -0.2480  0.0499  1.2792
 2032SOL    HW2 8104   0.900   3.034  11.009  0.4740  0.8672  0.8349
 2033SOL     OW 8105   2.276   5.367   6.382 -0.8446 -0.0083  0.1167
 2033SOL    HW1 8106   2.292   5.279   6.348  0.0252  0.3426 -0.4275
 2033SOL    HW2 8107   2.192   5.392   6.343  0.1119  0.3738 -1.8675
 2034SOL     OW 8108   1.204   8.889   4.323  0.2503 -0.2366  0.1268
 2034SOL    HW1 8109   1.222   8.833   4.247 -0.4681 -0.6439  0.2554
 2034SOL    HW2 8110   1.156   8.833   4.384 -1.5890  0.8369 -0.2614
 2035SOL     OW 8111   6.165   6.349   8.389  0.1313  0.0142 -0.4570
 2035SOL    HW1 8112   6.250   6.393   8.378  1.0627 -1.3800  0.7375
 2035SOL    HW2 8113   6.107   6.393   8.327  1.6082  1.3132 -0.9868
 2036SOL     OW 8114   6.317   1.313   1.244  0.0848 -0.1781 -0.2695
 2036SOL    HW1 8115   6.229   1.278   1.262 -0.3990  0.7232 -0.8304
 2036SOL    HW2 8116   6.349   1.343   1.329  0.4040 -1.7020  0.1835
 2037SOL     OW 8117   1.518   8.672   1.866  0.4467 -0.3273 -0.2332
 2037SOL    HW1 8118   1.578   8.697   1.937 -0.4071  0.5982  0.1784
 2037SOL    HW2 8119   1.572   8.677   1.787  1.1651 -0.4592  0.2332
 2038SOL     OW 8120   1.313   4.220   5.615  0.3078  0.6810  0.2631
 2038SOL    HW1 8121   1.270   4.152   5.666 -1.3361  1.9398  0.6338
 2038SOL    HW2 8122   1.246   4.252   5.556  1.8491  0.0579 -1.9687
 2039SOL     OW 8123   6.366   2.486   7.578  0.6748  1.0951 -0.2474
 2039SOL    HW1 8124   6.441   2.438   7.614 -0.8056 -0.9421  0.3014
 2039SOL    HW2 8125   6.374   2.574   7.615  2.5211  0.7973  0.1710
 2040SOL     OW 8126   9.204   3.375   8.310  0.2120  0.3868 -0.2581
 2040SOL    HW1 8127   9.187   3.292   8.354 -1.6031  1.2273  0.7024
 2040SOL    HW2 8128   9.234   3.434   8.379  1.3506  0.6106 -0.9080
 2041SOL     OW 8129   8.585   8.874   3.494 -0.0390  0.0185  0.0109
 2041SOL    HW1 8130   8.504   8.831   3.520 -0.4540  0.9553  0.3111
 2041SOL    HW2 8131   8.639   8.875   3.573 -0.1506  0.3032  0.0866
 2042SOL     OW 8132   8.054   4.496   7.369  0.0300 -0.4339 -0.0109
 2042SOL    HW1 8133   8.084   4.503   7.278 -0.6211 -2.1132 -0.3750
 2042SOL    HW2 8134   8.050   4.402   7.386 -2.4815 -0.2319  0.8738
 2043SOL     OW 8135   4.178  10.356  10.001 -0.6813  0.1530  0.1613
 2043SOL    HW1 8136   4.261  10.320   9.969 -1.2154 -0.3119 -0.7663
 2043SOL    HW2 8137   4.202  10.414  10.073  0.4849  0.3861 -0.3999
 2044SOL     OW 8138   5.435   9.638  10.225 -0.0392 -0.1049  0.6856
 2044SOL    HW1 8139   5.524   9.658  10.254  0.7751  1.3538 -2.3766
 2044SOL    HW2 8140   5.404   9.570  10.285  3.8147 -2.0101  0.7704
 2045SOL     OW 8141   4.189   1.306   0.485 -0.6624 -0.4402 -0.0074
 2045SOL    HW1 8142   4.279   1.332   0.465 -1.0563  0.0339 -1.2830
 2045SOL    HW2 8143   4.159   1.260   0.406 -1.8794  0.3600 -0.0518
 2046SOL     OW 8144   6.694   6.816   2.199 -0.5650 -0.2031  0.1655
 2046SOL    HW1 8145   6.728   6.888   2.253 -1.2303 -0.0865  0.4331
 2046SOL    HW2 8146   6.773   6.770   2.169 -0.1195  0.7151 -0.1321
 2047SOL     OW 8147  10.613   4.425   0.075  0.0018  0.5850 -0.2398
 2047SOL    HW1 8148  10.537   4.442   0.019 -0.8098 -1.7881  0.0592
 2047SOL    HW2 8149  10.615   4.330   0.084  2.4230  0.6730  0.6187
 2048SOL     OW 8150   9.184   6.558   5.287  0.2379  0.0538  0.1360
 2048SOL    HW1 8151   9.110   6.618   5.291 -0.2288 -0.5008 -0.0167
 2048SOL    HW2 8152   9.261   6.615   5.281 -0.2290  0.6349 -0.5092
 2049SOL     OW 8153   5.548   6.876   9.603 -0.2608 -0.1544  0.2078
 2049SOL    HW1 8154   5.584   6.816   9.538  1.6091 -0.1709  1.2013
 2049SOL    HW2 8155   5.514   6.819   9.673 -0.8394 -0.0967 -0.0188
 2050SOL     OW 8156   8.339   6.313   0.543  0.0563  0.4021 -0.0063
 2050SOL    HW1 8157   8.400   6.296   0.615  0.5900  0.6037 -0.4059
 2050SOL    HW2 8158   8.255   6.280   0.575  0.7113 -1.4701 -0.0986
 2051SOL     OW 8159   2.381   8.649   0.907  0.1497  0.2938  0.2425
 2051SOL    HW1 8160   2.298   8.636   0.955 -0.2803 -1.4825 -0.9173
 2051SOL    HW2 8161   2.447   8.652   0.976 -0.4122 -2.5174  1.0427
 2052SOL     OW 8162   8.176   3.478   9.639 -0.8363 -0.5180 -0.0915
 2052SOL    HW1 8163   8.164   3.551   9.579  0.9286  0.6891  0.9360
 2052SOL    HW2 8164   8.268   3.483   9.666 -1.1100 -2.0798  1.3405
 2053SOL     OW 8165   8.785   8.125   0.374 -0.1302  0.0359  0.3602
 2053SOL    HW1 8166   8.691   8.131   0.394  0.0268  1.6815  0.7323
 2053SOL    HW2 8167   8.825   8.192   0.429  1.2562 -0.5055  0.0435
 2054SOL     OW 8168   7.260   8.865  10.800  0.2052  0.3946  0.7851
 2054SOL    HW1 8169   7.184   8.919  10.823  0.6294  2.5550 -2.2473
 2054SOL    HW2 8170   7.332   8.905  10.850  0.2123  1.7244 -0.2150
 2055SOL     OW 8171   0.631   6.145   8.275  0.2020 -0.9651 -0.1010
 2055SOL    HW1 8172   0.542   6.179   8.283  0.1512 -1.1423  0.0796
 2055SOL    HW2 8173   0.624   6.075   8.210  0.4807 -0.0138 -1.1906
 2056SOL     OW 8174  10.840   3.243   8.964 -0.2182  0.1510 -0.0686
 2056SOL    HW1 8175  10.782   3.249   9.040  0.3183 -0.4904  0.4056
 2056SOL    HW2 8176  10.903   3.175   8.987 -0.9399 -1.1536 -1.6908
 2057SOL     OW 8177   2.751   2.818   3.421 -0.4745 -0.5062 -0.2273
 2057SOL    HW1 8178   2.841   2.788   3.408  0.1642  0.8912  0.6852
 2057SOL    HW2 8179   2.729   2.790   3.510 -0.2397  0.7247  0.2465
 2058SOL     OW 8180   4.588   8.754   4.882 -0.1374 -0.3281 -0.2505
 2058SOL    HW1 8181   4.500   8.765   4.918 -0.3985  0.1313 -0.9978
 2058SOL    HW2 8182   4.574   8.714   4.796  0.3777 -0.1701 -0.4133
 2059SOL     OW 8183   9.082   1.527   7.212  0.3914  0.4942 -0.1100
 2059SOL    HW1 8184   9.157   1.481   7.176  0.3739 -1.1932  1.7977
 2059SOL    HW2 8185   9.119   1.580   7.283 -0.1413 -0.3212  0.8161
 2060SOL     OW 8186   0.314   5.897   0.743  0.0542 -0.4455  0.0515
 2060SOL    HW1 8187   0.292   5.944   0.823  0.7857 -0.4892  0.2853
 2060SOL    HW2 8188   0.294   5.959   0.672  0.4583  0.0108  0.3291
 2061SOL     OW 8189   6.887   8.255   2.272  0.1141 -0.6250 -0.0576
 2061SOL    HW1 8190   6.830   8.197   2.323 -0.2295 -0.2130  0.0226
 2061SOL    HW2 8191   6.947   8.195   2.228 -0.1763 -1.0411  0.1021
 2062SOL     OW 8192   4.219   7.221   5.742 -0.6303 -0.0169 -0.1593
 2062SOL    HW1 8193   4.177   7.247   5.824 -0.5694 -0.6373  0.0754
 2062SOL    HW2 8194   4.146   7.198   5.684 -0.6686  0.3024 -0.2396
 2063SOL     OW 8195   6.241   5.707   4.129  0.4628 -0.2526 -0.2610
 2063SOL    HW1 8196   6.168   5.648   4.144 -0.8045  1.4793  0.9279
 2063SOL    HW2 8197   6.307   5.655   4.083 -1.6112 -1.8020 -1.6261
 2064SOL     OW 8198   5.524   4.888   7.057 -0.0660 -0.1924 -0.1257
 2064SOL    HW1 8199   5.431   4.864   7.061 -0.5830  1.4673 -1.0718
 2064SOL    HW2 8200   5.524   4.983   7.065  1.7341 -0.2853  1.6712
 2065SOL     OW 8201   0.149   6.538   7.301 -0.6469  0.3241  0.3882
 2065SOL    HW1 8202   0.082   6.530   7.369  1.0856 -0.3365  2.1109
 2065SOL    HW2 8203   0.161   6.632   7.290 -2.0690  0.4646 -0.2247
 2066SOL     OW 8204   7.932   2.393   6.262  0.0962 -0.1115  0.0140
 2066SOL    HW1 8205   8.009   2.436   6.300  0.5246 -1.0614  0.2641
 2066SOL    HW2 8206   7.938   2.412   6.169  1.1372 -0.8904 -0.1045
 2067SOL     OW 8207   8.744  10.982   5.005  0.2816 -0.3654 -0.1434
 2067SOL    HW1 8208   8.804  11.009   4.935 -0.3116  0.9421 -0.1737
 2067SOL    HW2 8209   8.717  11.064   5.046 -0.3534 -1.0386  0.8194
 2068SOL     OW 8210   6.742   1.954   1.292 -0.1443  0.4822  0.2233
 2068SOL    HW1 8211   6.810   1.987   1.351 -0.6996  1.0767  0.5483
 2068SOL    HW2 8212   6.660   1.974   1.337 -0.5118 -1.4714  0.4847
 2069SOL     OW 8213   4.091   2.490   7.081  0.0144 -0.5904  0.2538
 2069SOL    HW1 8214   4.164   2.550   7.068 -0.4123  0.2189  1.4128
 2069SOL    HW2 8215   4.112   2.445   7.162  0.4557 -2.2421 -0.7364
 2070SOL     OW 8216   5.596   2.239   9.752 -0.1405  0.4583 -0.0288
 2070SOL    HW1 8217   5.650   2.202   9.821 -0.7554 -0.9323 -0.2526
 2070SOL    HW2 8218   5.566   2.323   9.787 -1.7986 -0.9189  2.1603
 2071SOL     OW 8219   8.931   6.999   5.168 -0.2012 -0.0483 -0.0919
 2071SOL    HW1 8220   8.895   7.081   5.200 -0.7196 -0.0872 -0.5724
 2071SOL    HW2 8221   9.023   7.001   5.195 -0.2395  0.6368 -0.0030
 2072SOL     OW 8222   6.318   3.598   2.424 -0.2312  0.1633 -0.0024
 2072SOL    HW1 8223   6.366   3.525   2.384  1.2166  1.2651 -0.3775
 2072SOL    HW2 8224   6.226   3.580   2.405  0.0633 -1.7141  0.2044
 2073SOL     OW 8225   1.086   4.245   7.326 -0.0130 -0.3991  0.6943
 2073SOL    HW1 8226   1.077   4.323   7.271  1.3786 -0.9006 -0.3125
 2073SOL    HW2 8227   1.147   4.271   7.395  0.5789 -0.6209  0.2654
 2074SOL     OW 8228   6.560   5.455   9.258 -0.2370  0.2872  0.3700
 2074SOL    HW1 8229   6.590   5.366   9.238  0.6727 -0.1374  3.2456
 2074SOL    HW2 8230   6.534   5.452   9.350  1.7731  3.4597  1.1803
 2075SOL     OW 8231   8.001   2.773   8.370  0.4267  0.5946 -0.1906
 2075SOL    HW1 8232   8.063   2.786   8.442 -0.2749  0.3738  0.4760
 2075SOL    HW2 8233   7.961   2.688   8.388  0.2283  0.5486 -0.8340
 2076SOL     OW 8234   7.619   3.954   2.990  0.3358 -0.7325  0.0585
 2076SOL    HW1 8235   7.635   3.901   3.068 -1.8978 -0.9101  0.4676
 2076SOL    HW2 8236   7.532   3.926   2.960 -0.2185  1.5641 -0.6474
 2077SOL     OW 8237   4.914   1.069   2.398 -0.0897  0.1359 -0.2465
 2077SOL    HW1 8238   4.886   1.120   2.322  2.1820  0.4309 -0.9603
 2077SOL    HW2 8239   4.919   1.132   2.470 -1.1410  0.0801 -0.1063
 2078SOL     OW 8240   5.564   6.786  10.488 -0.3598 -0.2208 -0.5661
 2078SOL    HW1 8241   5.473   6.774  10.517 -0.8995  0.4155 -1.9444
 2078SOL    HW2 8242   5.614   6.722  10.540 -1.5625 -0.4765  0.3154
 2079SOL     OW 8243   5.270   0.600   7.040  0.2064  0.1929 -0.0575
 2079SOL    HW1 8244   5.344   0.540   7.038  1.5429  1.7893 -1.1003
 2079SOL    HW2 8245   5.193   0.544   7.035  1.3601 -1.4700  0.2032
 2080SOL     OW 8246   7.719   4.885   8.178  0.0937  0.2122 -0.9155
 2080SOL    HW1 8247   7.789   4.931   8.130  0.6161 -0.4837 -0.8378
 2080SOL    HW2 8248   7.639   4.907   8.131  0.4378  0.5757 -1.3415
 2081SOL     OW 8249   3.361   3.141   7.877  0.3439  0.5243 -0.3793
 2081SOL    HW1 8250   3.455   3.155   7.868  0.2324  0.4990 -1.7616
 2081SOL    HW2 8251   3.354   3.070   7.942  1.2807  0.4201 -0.3783
 2082SOL     OW 8252   8.773   4.319   5.203  0.2077  0.0096 -0.1396
 2082SOL    HW1 8253   8.704   4.277   5.255 -0.8495 -1.8281 -2.8016
 2082SOL    HW2 8254   8.732   4.397   5.167 -0.9292 -1.5504 -2.4511
 2083SOL     OW 8255  11.020   5.145   7.946 -0.3274 -0.1406 -0.2952
 2083SOL    HW1 8256  11.004   5.111   8.034 -0.7055 -0.8736 -0.6319
 2083SOL    HW2 8257  10.953   5.212   7.933 -1.5007 -1.3307 -0.6935
 2084SOL     OW 8258   5.723   7.809   3.739 -0.2049  0.1654  0.3457
 2084SOL    HW1 8259   5.727   7.800   3.644  0.5693  0.9984  0.2859
 2084SOL    HW2 8260   5.635   7.842   3.755  0.0796  1.2383 -0.2058
 2085SOL     OW 8261   2.157   7.450   8.190  0.0685  0.0075 -0.0733
 2085SOL    HW1 8262   2.246   7.421   8.210  0.1640 -0.4332 -1.0892
 2085SOL    HW2 8263   2.168   7.527   8.136 -0.1460 -0.5084 -0.8704
 2086SOL     OW 8264   1.530   2.919   5.173 -0.0589  0.2274  0.4345
 2086SOL    HW1 8265   1.442   2.933   5.140 -0.0895 -2.4358 -0.8294
 2086SOL    HW2 8266   1.518   2.864   5.251  0.5236 -1.9160 -0.9235
 2087SOL     OW 8267   9.272   9.546   3.577 -0.3193 -0.1374  0.3201
 2087SOL    HW1 8268   9.178   9.531   3.588  0.0776 -1.9709  1.8233
 2087SOL    HW2 8269   9.299   9.481   3.512  0.4490 -2.1917  2.5560
 2088SOL     OW 8270   7.222   8.973   6.646  0.1612  0.4001 -0.1006
 2088SOL    HW1 8271   7.278   8.991   6.570  0.3489 -0.6436 -0.2226
 2088SOL    HW2 8272   7.172   8.896   6.620  1.2015 -0.8062  1.3321
 2089SOL     OW 8273   4.140   2.091   6.690  0.6017  0.2241 -0.0575
 2089SOL    HW1 8274   4.235   2.082   6.703  0.7428  0.7844 -0.6429
 2089SOL    HW2 8275   4.131   2.167   6.633 -0.2876  1.1497  1.2631
 2090SOL     OW 8276   9.270   4.589   3.038  0.1739  0.0638 -0.1816
 2090SOL    HW1 8277   9.225   4.532   2.975 -0.9593  0.6766  0.0466
 2090SOL    HW2 8278   9.285   4.671   2.990  0.1382  0.2147  0.0609
 2091SOL     OW 8279   6.180   3.728   5.080 -0.3416  0.5753  0.2296
 2091SOL    HW1 8280   6.153   3.661   5.143  1.3146 -0.5744 -0.2088
 2091SOL    HW2 8281   6.187   3.681   4.997  2.8258  0.7489  0.3009
 2092SOL     OW 8282  10.054   3.343   5.218  0.8126  0.5303  0.3310
 2092SOL    HW1 8283   9.974   3.336   5.167  1.1054  0.3521 -0.1061
 2092SOL    HW2 8284  10.089   3.254   5.221  2.0536  0.9144 -1.2121
 2093SOL     OW 8285   8.554   3.327   6.217 -0.0237 -0.6238  0.5830
 2093SOL    HW1 8286   8.551   3.256   6.281 -1.1755  0.4146  1.7254
 2093SOL    HW2 8287   8.638   3.315   6.172  0.1468 -2.2407  1.2587
 2094SOL     OW 8288   5.815  10.746   3.086 -0.1821  0.4079 -0.3894
 2094SOL    HW1 8289   5.818  10.834   3.124 -0.8279 -0.0082  0.6506
 2094SOL    HW2 8290   5.860  10.690   3.150 -0.6986 -0.2000 -0.5492
 2095SOL     OW 8291   8.182   8.887   3.779 -0.3227 -0.2973  0.0059
 2095SOL    HW1 8292   8.153   8.903   3.689  0.3960  0.8864 -0.0408
 2095SOL    HW2 8293   8.200   8.793   3.782 -0.7121 -0.4170 -0.9774
 2096SOL     OW 8294   7.206   3.439   2.223  0.0946 -0.0684 -0.0330
 2096SOL    HW1 8295   7.277   3.478   2.273  1.4761 -0.0300 -1.9200
 2096SOL    HW2 8296   7.131   3.440   2.283  0.9795  2.2759  1.1599
 2097SOL     OW 8297   0.243   7.590  10.217 -0.1228 -0.1055  0.5588
 2097SOL    HW1 8298   0.283   7.638  10.145 -1.9327  0.8142  0.0915
 2097SOL    HW2 8299   0.260   7.644  10.294 -3.6142  2.4905 -0.1907
 2098SOL     OW 8300   3.540   9.729   7.528 -0.0229  0.0354 -0.2789
 2098SOL    HW1 8301   3.459   9.780   7.527  0.2258  0.4753  0.6259
 2098SOL    HW2 8302   3.544   9.692   7.616 -0.0938 -1.4033 -0.8550
 2099SOL     OW 8303   0.203   6.437   9.355 -0.2099  0.0669 -0.0281
 2099SOL    HW1 8304   0.121   6.466   9.314 -0.6105 -1.3376 -0.2464
 2099SOL    HW2 8305   0.237   6.517   9.396  1.1928  2.1190 -4.5082
 2100SOL     OW 8306   1.470  10.202  10.578 -0.6065 -0.3635 -0.1895
 2100SOL    HW1 8307   1.514  10.130  10.533 -0.4795 -0.1773 -0.3655
 2100SOL    HW2 8308   1.513  10.281  10.545 -2.1351 -0.0670 -1.6082
 2101SOL     OW 8309   7.882  10.690  10.495 -0.0686 -0.4952  0.1648
 2101SOL    HW1 8310   7.972  10.700  10.467 -0.2328 -2.2923 -1.2525
 2101SOL    HW2 8311   7.830  10.712  10.418 -0.8082 -0.2714  0.7128
 2102SOL     OW 8312   1.800   9.295  10.123 -0.1459 -0.1571 -0.7432
 2102SOL    HW1 8313   1.874   9.256  10.170 -0.5099 -0.7156 -0.6207
 2102SOL    HW2 8314   1.724   9.247  10.156 -0.4728 -0.1209 -1.4387
 2103SOL     OW 8315   2.731   6.872   7.864  0.0400  0.0538  0.0047
 2103SOL    HW1 8316   2.655   6.900   7.915 -2.0064 -1.0025 -2.2589
 2103SOL    HW2 8317   2.802   6.929   7.893 -1.3557  0.5017  2.8549
 2104SOL     OW 8318   5.362   9.901   5.953  0.0415 -0.0764  0.3047
 2104SOL    HW1 8319   5.378   9.992   5.974  1.3412 -0.4928  1.2287
 2104SOL    HW2 8320   5.443   9.870   5.914  0.1101 -1.1741  1.2506
 2105SOL     OW 8321   0.601  10.615   2.869  0.4427 -0.2893 -0.3783
 2105SOL    HW1 8322   0.619  10.690   2.927  0.9152  0.0770 -0.9936
 2105SOL    HW2 8323   0.506  10.603   2.875  0.6816 -1.7984  2.3672
 2106SOL     OW 8324   4.085   0.887  10.161  0.3010 -0.2651  0.1718
 2106SOL    HW1 8325   4.055   0.975  10.183  1.8369  0.4125 -0.3251
 2106SOL    HW2 8326   4.145   0.900  10.087 -1.2196 -1.9810 -1.4762
 2107SOL     OW 8327   2.078   7.027   7.438 -0.5418  0.2695 -0.5996
 2107SOL    HW1 8328   2.076   6.967   7.512  4.4142 -4.7147 -3.7181
 2107SOL    HW2 8329   2.148   7.088   7.459 -1.0290  0.6823 -0.1387
 2108SOL     OW 8330  10.755   6.866   3.396  0.7598  0.1542 -0.0264
 2108SOL    HW1 8331  10.754   6.927   3.469  0.7033  0.5063 -0.3163
 2108SOL    HW2 8332  10.833   6.812   3.410  0.2554 -0.3855  0.7779
 2109SOL     OW 8333   6.343   7.119   1.159  0.0979  0.2249 -0.2145
 2109SOL    HW1 8334   6.336   7.209   1.191 -0.7773  0.4638 -1.0342
 2109SOL    HW2 8335   6.263   7.076   1.192 -0.1187  0.0999 -0.8918
 2110SOL     OW 8336   2.420  10.574   0.699 -0.5322  0.4160  0.0981
 2110SOL    HW1 8337   2.471  10.507   0.654 -0.9409 -0.5004  0.9689
 2110SOL    HW2 8338   2.362  10.526   0.757 -1.0223  1.5193  0.5623
 2111SOL     OW 8339   1.470   5.132   9.616 -0.0180  0.5262  0.2122
 2111SOL    HW1 8340   1.396   5.193   9.615  0.9531  1.7567  0.5614
 2111SOL    HW2 8341   1.432   5.047   9.594 -1.0342  1.6659 -2.9461
 2112SOL     OW 8342   5.953   3.416   1.981 -0.4844  0.5411 -0.5987
 2112SOL    HW1 8343   5.877   3.382   2.026 -0.3430  0.7808 -0.1756
 2112SOL    HW2 8344   5.925   3.425   1.890 -0.1981 -1.7053 -0.9552
 2113SOL     OW 8345   8.429   0.803   8.425 -0.6887  0.6419  0.1632
 2113SOL    HW1 8346   8.489   0.820   8.497  1.5563 -0.0797 -1.4222
 2113SOL    HW2 8347   8.347   0.846   8.450 -0.1872 -0.0724  3.3457
 2114SOL     OW 8348   7.007   4.718   2.975 -0.5133 -0.4395 -0.1466
 2114SOL    HW1 8349   6.962   4.793   2.936 -0.6761 -0.2295  0.4282
 2114SOL    HW2 8350   7.004   4.735   3.069  3.1249  0.9410 -0.1394
 2115SOL     OW 8351   2.686   3.494   1.029 -0.3232  0.2019 -0.1114
 2115SOL    HW1 8352   2.755   3.506   0.963  1.2669  0.3986  1.5196
 2115SOL    HW2 8353   2.680   3.578   1.074 -0.2861 -0.3778  1.0029
 2116SOL     OW 8354   0.841   4.921   1.298 -0.4633  0.0274  0.3578
 2116SOL    HW1 8355   0.868   4.914   1.390 -1.2376  2.3420  0.8329
 2116SOL    HW2 8356   0.746   4.931   1.302 -0.5626 -0.3582 -0.7477
 2117SOL     OW 8357   1.755   6.903   6.585 -0.5471 -0.4480 -0.2354
 2117SOL    HW1 8358   1.781   6.985   6.543  0.6117  0.4727  2.0877
 2117SOL    HW2 8359   1.670   6.882   6.546 -0.3452  1.2343 -1.7044
 2118SOL     OW 8360   4.031   1.423   2.151  0.1703  0.5196  0.3101
 2118SOL    HW1 8361   4.001   1.407   2.240 -1.7861  0.5112 -0.3087
 2118SOL    HW2 8362   3.980   1.362   2.097  0.6135  1.2061 -0.9234
 2119SOL     OW 8363   8.669  10.092   0.654 -0.3973 -0.1226 -0.4980
 2119SOL    HW1 8364   8.746  10.043   0.685 -0.1651  1.7439  2.2870
 2119SOL    HW2 8365   8.692  10.118   0.565  0.5133 -2.7827 -1.1442
 2120SOL     OW 8366   2.283   2.386   1.685 -0.1067 -0.6744 -0.3859
 2120SOL    HW1 8367   2.348   2.363   1.619  0.8529 -0.7912  0.5705
 2120SOL    HW2 8368   2.230   2.307   1.696 -0.5380 -0.5261 -1.2843
 2121SOL     OW 8369   9.284   8.560   5.390 -0.5023 -0.0963  0.1382
 2121SOL    HW1 8370   9.286   8.491   5.323 -1.0002  0.0839 -0.0704
 2121SOL    HW2 8371   9.200   8.549   5.434 -0.4470  0.1787  0.3169
 2122SOL     OW 8372   6.174   9.627   4.926 -0.5775 -0.2159  0.3826
 2122SOL    HW1 8373   6.204   9.577   5.001 -1.5940 -0.1404  0.8559
 2122SOL    HW2 8374   6.080   9.638   4.940 -0.5201  1.1640 -0.0928
 2123SOL     OW 8375   1.382   2.336   5.117  0.2127  0.0711  0.0504
 2123SOL    HW1 8376   1.427   2.402   5.170 -1.8940  0.0966  1.9454
 2123SOL    HW2 8377   1.450   2.301   5.060  2.4632  0.6088  2.2156
 2124SOL     OW 8378   5.345   6.000   4.851 -0.5860 -0.5000  0.1929
 2124SOL    HW1 8379   5.377   6.090   4.854 -0.2401 -0.6409  2.5910
 2124SOL    HW2 8380   5.257   6.005   4.890 -0.2369 -1.2795  1.1306
 2125SOL     OW 8381  10.374   5.700   3.193 -0.1866  0.2700 -0.7667
 2125SOL    HW1 8382  10.438   5.629   3.196  0.1567  0.5858  1.6605
 2125SOL    HW2 8383  10.427   5.779   3.193 -0.4756  0.5358  1.3242
 2126SOL     OW 8384   5.223   8.989   5.064  0.1490  0.4522  0.4190
 2126SOL    HW1 8385   5.279   8.952   4.995  0.3150 -1.5142  1.5280
 2126SOL    HW2 8386   5.284   9.018   5.132 -0.0836  0.3561  0.6703
 2127SOL     OW 8387   9.957  10.568   7.239 -0.0570  0.2457  0.2524
 2127SOL    HW1 8388   9.905  10.539   7.314 -1.3066 -1.2708 -1.1079
 2127SOL    HW2 8389   9.995  10.488   7.204  0.0256  0.8310 -1.0671
 2128SOL     OW 8390   4.940   2.619   1.970 -0.0798  0.0235  0.6072
 2128SOL    HW1 8391   5.006   2.671   2.016 -0.2546 -0.5004  1.4764
 2128SOL    HW2 8392   4.860   2.631   2.021 -0.1381 -1.0479  0.7909
 2129SOL     OW 8393   0.563   2.388   9.158  0.2036 -0.4837 -0.1607
 2129SOL    HW1 8394   0.490   2.327   9.167 -0.9790  0.6481 -1.4991
 2129SOL    HW2 8395   0.637   2.334   9.132 -0.6235 -1.4501 -0.5578
 2130SOL     OW 8396   1.449   3.972   7.335  0.6305 -0.1534 -0.1000
 2130SOL    HW1 8397   1.410   4.016   7.259 -1.0394 -0.0567  0.7541
 2130SOL    HW2 8398   1.451   3.880   7.310 -2.5798 -0.5740  0.6741
 2131SOL     OW 8399   9.402   5.840   6.902 -0.1178  0.4634  0.0290
 2131SOL    HW1 8400   9.313   5.820   6.930 -0.0677  1.7823  1.2706
 2131SOL    HW2 8401   9.396   5.847   6.806 -1.2085 -0.0447  0.0437
 2132SOL     OW 8402   4.888   0.780   4.979 -0.2530  0.4887 -0.0683
 2132SOL    HW1 8403   4.895   0.833   4.899 -0.8873  1.8413  0.7378
 2132SOL    HW2 8404   4.897   0.843   5.050 -1.1122 -0.4886  0.9309
 2133SOL     OW 8405   1.236   0.952  10.594 -0.1598  0.3570 -0.8250
 2133SOL    HW1 8406   1.169   0.900  10.549 -0.0273  0.0182 -0.6357
 2133SOL    HW2 8407   1.191   1.033  10.617 -0.7705 -0.2046  0.0596
 2134SOL     OW 8408   1.279   9.924   0.129  0.4989 -0.8109  0.3068
 2134SOL    HW1 8409   1.360   9.971   0.152  1.6975 -1.8422 -1.5209
 2134SOL    HW2 8410   1.255   9.958   0.043 -0.7694 -0.8637  0.6249
 2135SOL     OW 8411   0.749  10.672   6.714  0.6941 -0.4819  0.0005
 2135SOL    HW1 8412   0.780  10.666   6.624  1.4265 -0.2543  0.2299
 2135SOL    HW2 8413   0.722  10.763   6.725  1.0180 -0.3975  0.1314
 2136SOL     OW 8414   8.741  10.180   2.592 -0.0840  0.1431  0.3127
 2136SOL    HW1 8415   8.738  10.213   2.503  0.4169  1.9757  0.9266
 2136SOL    HW2 8416   8.811  10.115   2.591 -0.6460 -0.4689 -0.7974
 2137SOL     OW 8417   4.904   4.781   2.731 -0.0569 -0.4550 -0.1631
 2137SOL    HW1 8418   4.866   4.699   2.699  0.5334 -1.8163  2.3410
 2137SOL    HW2 8419   4.998   4.769   2.719 -0.0196  0.2924 -0.6557
 2138SOL     OW 8420  10.727   5.697   1.781 -0.0055  0.3447  0.0082
 2138SOL    HW1 8421  10.738   5.789   1.805  3.3662 -0.5595  2.6011
 2138SOL    HW2 8422  10.807   5.674   1.735 -1.5992 -0.9456 -2.3598
 2139SOL     OW 8423   8.180   6.395   2.182  0.4572 -0.1438  0.0481
 2139SOL    HW1 8424   8.231   6.473   2.202  1.1505 -0.4891 -0.3605
 2139SOL    HW2 8425   8.243   6.323   2.183 -0.2078 -0.7446  0.6545
 2140SOL     OW 8426   3.127   0.494  10.978  0.3249  0.2744 -0.5113
 2140SOL    HW1 8427   3.046   0.479  11.026 -0.3138  0.6874 -1.4308
 2140SOL    HW2 8428   3.099   0.515  10.889  1.4673 -0.3241 -1.0435
 2141SOL     OW 8429   4.799   6.602   8.754  0.1461 -0.3896 -0.0797
 2141SOL    HW1 8430   4.737   6.623   8.685 -0.3891  0.1004  0.5348
 2141SOL    HW2 8431   4.873   6.661   8.738  0.5729 -1.1535 -0.9624
 2142SOL     OW 8432   6.440   4.130   8.349  0.2224  0.1067  0.6947
 2142SOL    HW1 8433   6.502   4.195   8.317  0.1241 -0.6359 -1.1760
 2142SOL    HW2 8434   6.358   4.178   8.360  0.3010  0.4448 -0.0931
 2143SOL     OW 8435   2.333   6.152   5.223 -0.4009  0.2793 -0.8909
 2143SOL    HW1 8436   2.347   6.062   5.253 -0.4074 -0.1851 -2.1831
 2143SOL    HW2 8437   2.417   6.178   5.186 -0.0138  1.3076  0.6493
 2144SOL     OW 8438   5.940   5.871  10.678 -0.4971  0.2091 -0.0500
 2144SOL    HW1 8439   6.019   5.841  10.724  1.0935 -0.9112 -3.1890
 2144SOL    HW2 8440   5.956   5.963  10.660 -0.4576  0.2831  0.3599
 2145SOL     OW 8441   6.852   9.126   2.826 -0.1628 -0.0193  0.1621
 2145SOL    HW1 8442   6.779   9.180   2.794 -1.5179 -1.0147  1.4233
 2145SOL    HW2 8443   6.891   9.177   2.897 -0.4459 -0.0226  0.3209
 2146SOL     OW 8444   5.624   5.705   4.554  0.1760 -0.2515  0.0636
 2146SOL    HW1 8445   5.704   5.754   4.535 -0.7827  1.9738  1.3347
 2146SOL    HW2 8446   5.573   5.710   4.473 -0.0243  1.1571  0.2609
 2147SOL     OW 8447   6.773   0.947   8.590  0.0684 -0.3597  0.0870
 2147SOL    HW1 8448   6.759   0.921   8.681 -2.2614 -2.1194 -0.6651
 2147SOL    HW2 8449   6.841   0.887   8.558  1.4633  0.7774  0.8169
 2148SOL     OW 8450   3.725   8.473   9.358  0.3117 -0.0344 -0.1678
 2148SOL    HW1 8451   3.810   8.437   9.382  0.8485  1.5077  0.3487
 2148SOL    HW2 8452   3.712   8.547   9.418 -0.4685  0.9958 -1.5480
 2149SOL     OW 8453   7.697   7.339   0.515  0.0611  0.1513  0.4710
 2149SOL    HW1 8454   7.785   7.315   0.483  0.8113 -0.2198  2.6705
 2149SOL    HW2 8455   7.648   7.257   0.514 -0.7218  0.5484 -1.8551
 2150SOL     OW 8456   2.296   5.579   6.761  0.3047 -0.1134 -0.1594
 2150SOL    HW1 8457   2.230   5.544   6.701 -0.1945 -0.0734  0.3593
 2150SOL    HW2 8458   2.248   5.641   6.816  0.9291  0.4869 -0.2710
 2151SOL     OW 8459   6.926  10.312   8.250  0.0276 -0.7128  0.3054
 2151SOL    HW1 8460   6.999  10.282   8.304  0.2173  1.0656  1.1395
 2151SOL    HW2 8461   6.853  10.254   8.272  0.3437 -0.5599  1.8603
 2152SOL     OW 8462   7.608   0.375   1.101 -0.3066  0.4265 -0.3210
 2152SOL    HW1 8463   7.639   0.363   1.191 -1.5166  0.0884  0.0729
 2152SOL    HW2 8464   7.669   0.438   1.063  0.9148 -0.2876  0.3675
 2153SOL     OW 8465   0.941   1.809   1.516 -0.2239  0.1193 -0.1024
 2153SOL    HW1 8466   0.876   1.880   1.510  0.3428  0.6396 -0.1732
 2153SOL    HW2 8467   0.996   1.821   1.439  0.8546  0.5826  0.7170
 2154SOL     OW 8468   4.773   2.950   0.430  0.0054 -0.1479 -0.2216
 2154SOL    HW1 8469   4.858   2.920   0.397  0.5519  0.4841  0.5680
 2154SOL    HW2 8470   4.792   3.033   0.474 -0.9282 -0.2579  0.4227
 2155SOL     OW 8471  10.474   3.151   2.015 -1.1290 -0.3020  0.3229
 2155SOL    HW1 8472  10.522   3.068   2.002 -2.0115 -0.8089  0.2322
 2155SOL    HW2 8473  10.480   3.167   2.109  0.1875  0.2516  0.1710
 2156SOL     OW 8474   0.220   2.479   5.977 -0.2947 -0.5861 -0.2439
 2156SOL    HW1 8475   0.276   2.417   5.931 -0.7741 -1.4575  0.3224
 2156SOL    HW2 8476   0.180   2.428   6.047 -1.1650  0.2149 -0.1380
 2157SOL     OW 8477   2.554   3.182   6.067  0.5863  0.1397 -0.0340
 2157SOL    HW1 8478   2.483   3.245   6.078 -0.2722 -0.6854 -0.6761
 2157SOL    HW2 8479   2.544   3.150   5.978  2.8479  1.2666 -0.7757
 2158SOL     OW 8480   3.490   4.869   5.252  0.2134 -0.3548  0.1940
 2158SOL    HW1 8481   3.499   4.871   5.157  0.9809  0.8095  0.2668
 2158SOL    HW2 8482   3.441   4.949   5.273  1.9882  0.5806  0.9322
 2159SOL     OW 8483   4.523   8.825   8.213 -0.2196  0.3090  0.6384
 2159SOL    HW1 8484   4.511   8.889   8.142 -1.0098  0.2789  0.7347
 2159SOL    HW2 8485   4.604   8.780   8.190  0.1020  1.0205  0.3179
 2160SOL     OW 8486   4.872   5.521   8.736  0.3107 -0.0349  0.6389
 2160SOL    HW1 8487   4.851   5.431   8.709 -1.2156  0.3381  0.4987
 2160SOL    HW2 8488   4.882   5.568   8.653 -2.7609  0.7476  0.6083
 2161SOL     OW 8489   9.690   7.397   4.424  0.1250  0.0009 -0.6563
 2161SOL    HW1 8490   9.754   7.427   4.489  1.8577 -1.7686 -1.4558
 2161SOL    HW2 8491   9.669   7.476   4.373  0.8633  0.8285  0.2760
 2162SOL     OW 8492   0.846   6.883  10.379  0.1908  0.4053  0.5893
 2162SOL    HW1 8493   0.854   6.820  10.308  1.3889 -0.7144  1.6805
 2162SOL    HW2 8494   0.751   6.894  10.390 -0.2228 -3.2673  2.0689
 2163SOL     OW 8495   1.157   9.076   2.096 -0.4213 -0.0456  0.3052
 2163SOL    HW1 8496   1.147   9.028   2.015 -0.0841 -0.7562  0.6792
 2163SOL    HW2 8497   1.139   9.167   2.072 -2.1241 -0.4760 -0.1938
 2164SOL     OW 8498   6.748   5.340   8.347  0.0859 -0.2098 -0.1047
 2164SOL    HW1 8499   6.773   5.327   8.438  3.3117  1.0066 -0.6986
 2164SOL    HW2 8500   6.662   5.383   8.352 -0.2209 -0.9581  2.2877
 2165SOL     OW 8501   8.768   3.861  10.649 -0.0359  0.3226  0.3574
 2165SOL    HW1 8502   8.818   3.812  10.584  0.5860  1.6560 -0.1966
 2165SOL    HW2 8503   8.682   3.874  10.609  0.3647  1.1925 -0.2432
 2166SOL     OW 8504   6.194   7.737   9.147  0.4569  0.5469 -0.1719
 2166SOL    HW1 8505   6.208   7.819   9.194  0.5259 -1.0391  2.8647
 2166SOL    HW2 8506   6.281   7.702   9.133  0.3865  0.4076 -0.2612
 2167SOL     OW 8507   3.416   1.382   1.205 -0.1618  0.0141 -0.1827
 2167SOL    HW1 8508   3.486   1.326   1.171 -0.4961 -1.3159  1.2119
 2167SOL    HW2 8509   3.365   1.325   1.262 -2.2608  1.0193 -0.9613
 2168SOL     OW 8510   0.033   9.664  10.893  0.4502  0.6230 -0.2005
 2168SOL    HW1 8511   0.034   9.692  10.985  0.2057 -1.1814  0.3853
 2168SOL    HW2 8512  -0.052   9.622  10.882  1.7181 -2.1748 -0.2545
 2169SOL     OW 8513   2.196   9.035   4.670  0.2150 -0.0460 -0.0065
 2169SOL    HW1 8514   2.104   9.007   4.677  0.1161  0.3608  0.3579
 2169SOL    HW2 8515   2.207   9.099   4.740  0.2453  1.3634 -1.2507
 2170SOL     OW 8516   3.588   0.214   3.583  0.1506  0.5037  0.1764
 2170SOL    HW1 8517   3.521   0.186   3.645  0.5963  0.2826  0.5638
 2170SOL    HW2 8518   3.541   0.224   3.500 -0.2322 -0.3102  0.2810
 2171SOL     OW 8519   3.922   2.643   9.666 -0.1619 -0.2149 -0.3583
 2171SOL    HW1 8520   3.931   2.548   9.662 -1.9275 -0.4760  0.5797
 2171SOL    HW2 8521   3.892   2.660   9.756  0.7029  1.2933 -0.3230
 2172SOL     OW 8522   0.833   2.906   2.062 -0.6297 -0.2375 -0.0808
 2172SOL    HW1 8523   0.823   2.823   2.108  1.3085 -1.3763 -1.5331
 2172SOL    HW2 8524   0.757   2.910   2.004 -1.6413 -0.1166  1.2138
 2173SOL     OW 8525  10.486   2.975   7.845  0.2035 -0.1858 -0.5595
 2173SOL    HW1 8526  10.525   2.976   7.933  0.0613 -0.3192 -0.4941
 2173SOL    HW2 8527  10.417   3.040   7.848 -0.3207 -0.7435 -0.3306
 2174SOL     OW 8528   5.646   8.576   9.177  0.1072 -0.2182 -0.4396
 2174SOL    HW1 8529   5.556   8.545   9.162  0.3624 -0.9767 -0.4457
 2174SOL    HW2 8530   5.688   8.568   9.092 -0.2662  1.7225 -0.8458
 2175SOL     OW 8531   3.977   4.107   7.529  0.3324 -0.4890 -0.3756
 2175SOL    HW1 8532   4.014   4.178   7.477 -0.0497  0.0757  0.1223
 2175SOL    HW2 8533   3.947   4.148   7.609 -1.3321 -0.9309 -0.7369
 2176SOL     OW 8534   0.502   2.722   8.102 -0.3615 -0.2051  0.0426
 2176SOL    HW1 8535   0.454   2.673   8.035 -1.0922  1.0497 -0.3731
 2176SOL    HW2 8536   0.565   2.775   8.053 -1.6579  1.5818  0.1936
 2177SOL     OW 8537   6.377   7.857   7.483 -0.0765  0.9764  0.2422
 2177SOL    HW1 8538   6.285   7.838   7.503 -0.0968  0.0420 -0.6260
 2177SOL    HW2 8539   6.393   7.811   7.400  1.1163  1.2973  0.2804
 2178SOL     OW 8540   1.734   2.070   0.293  0.5353 -0.3149 -0.0380
 2178SOL    HW1 8541   1.782   2.078   0.376 -1.5544  1.0247  1.1352
 2178SOL    HW2 8542   1.763   2.145   0.241  0.8393 -0.3895  0.0187
 2179SOL     OW 8543   4.623   0.244   3.454 -0.1697  0.0475  0.5002
 2179SOL    HW1 8544   4.657   0.330   3.428 -1.2656  0.2703 -0.2740
 2179SOL    HW2 8545   4.700   0.197   3.487  0.5581  1.1137  0.3966
 2180SOL     OW 8546   3.130   3.215   1.887  0.2796 -0.9155 -0.1505
 2180SOL    HW1 8547   3.182   3.226   1.966  1.1877 -0.9466 -0.7377
 2180SOL    HW2 8548   3.132   3.121   1.869  1.8600 -0.6879 -1.3789
 2181SOL     OW 8549  10.493   3.581   9.467  0.0469  0.2581  0.0114
 2181SOL    HW1 8550  10.537   3.664   9.450  0.9496  0.1592  1.6071
 2181SOL    HW2 8551  10.403   3.604   9.488 -0.0580  0.6927 -0.8878
 2182SOL     OW 8552   4.795   8.423   7.099 -0.5043  0.5029 -0.4469
 2182SOL    HW1 8553   4.793   8.446   7.006 -0.5104 -2.0008 -1.1395
 2182SOL    HW2 8554   4.886   8.399   7.116 -1.2422 -3.2996 -1.0607
 2183SOL     OW 8555   8.960   6.495   6.374  0.5918  0.4655  0.2284
 2183SOL    HW1 8556   8.946   6.443   6.295 -0.0827  0.3603  0.4099
 2183SOL    HW2 8557   8.882   6.479   6.427  0.2057  1.9343  0.1411
 2184SOL     OW 8558   1.166   0.269   1.945  0.8424  0.1868  0.2377
 2184SOL    HW1 8559   1.214   0.325   2.006 -0.1391  0.4265  0.8297
 2184SOL    HW2 8560   1.084   0.316   1.930  0.1295 -0.9322  0.4900
 2185SOL     OW 8561   2.135   8.713   4.318 -0.0184  0.4763 -0.0222
 2185SOL    HW1 8562   2.098   8.652   4.254  1.7352 -1.2265  0.4959
 2185SOL    HW2 8563   2.230   8.703   4.310  0.3002  2.3803  0.8373
 2186SOL     OW 8564   8.889   3.815   3.934  0.5079  0.4048  1.1283
 2186SOL    HW1 8565   8.824   3.805   4.003 -0.5948  1.3591  0.2670
 2186SOL    HW2 8566   8.883   3.907   3.909  1.4703  0.2618  0.3308
 2187SOL     OW 8567   1.131   6.980   8.801 -0.0231 -0.1686  0.5349
 2187SOL    HW1 8568   1.066   6.927   8.848 -0.4454 -0.9052 -0.8004
 2187SOL    HW2 8569   1.114   7.069   8.829 -0.2446 -0.5832  1.7760
 2188SOL     OW 8570   8.674   5.145   7.261  0.0667  0.1911 -0.0623
 2188SOL    HW1 8571   8.608   5.077   7.273  0.0941  0.3574  1.2077
 2188SOL    HW2 8572   8.633   5.208   7.202  0.2083 -1.1032 -1.6195
 2189SOL     OW 8573   1.684   4.548   9.458  0.5198 -0.4035 -0.0786
 2189SOL    HW1 8574   1.747   4.525   9.527  0.2877 -0.1042  0.2399
 2189SOL    HW2 8575   1.647   4.464   9.431  0.1373 -0.4799  0.6305
 2190SOL     OW 8576   6.740   5.723   8.855  0.2659 -0.0334 -0.1826
 2190SOL    HW1 8577   6.716   5.813   8.834 -0.1329 -0.3050 -0.9775
 2190SOL    HW2 8578   6.681   5.698   8.926 -0.4484 -0.0334 -0.7535
 2191SOL     OW 8579   3.865   0.063   8.616 -0.0069 -0.4870  0.4072
 2191SOL    HW1 8580   3.945   0.116   8.610 -0.7662  0.6102 -0.3473
 2191SOL    HW2 8581   3.837   0.073   8.707 -0.4073  0.8589  0.1660
 2192SOL     OW 8582   1.375   1.402   1.928  0.4601 -0.0167 -0.5775
 2192SOL    HW1 8583   1.455   1.434   1.884 -0.5273  2.4150 -0.7485
 2192SOL    HW2 8584   1.407   1.352   2.002  2.1548 -0.9478 -1.8656
 2193SOL     OW 8585   2.942   2.079   2.509  0.2989 -0.0713 -0.4720
 2193SOL    HW1 8586   2.992   2.077   2.591  1.4240 -2.2025 -1.1292
 2193SOL    HW2 8587   2.881   2.006   2.516  0.1779 -0.0676 -1.4003
 2194SOL     OW 8588   7.566   9.305   5.806 -0.0098 -0.4526  0.3046
 2194SOL    HW1 8589   7.632   9.303   5.737  1.9281 -0.3859  2.0731
 2194SOL    HW2 8590   7.615   9.297   5.888 -2.3452 -2.9128  1.6709
 2195SOL     OW 8591   9.729   5.268   3.419 -0.1309 -0.8353  0.1130
 2195SOL    HW1 8592   9.680   5.196   3.380  1.0030 -0.7704 -1.5604
 2195SOL    HW2 8593   9.820   5.252   3.393  0.5181 -0.1327  1.8228
 2196SOL     OW 8594   5.926   0.274   5.411 -0.0431  0.3757  0.2591
 2196SOL    HW1 8595   5.928   0.340   5.480 -0.5275  1.2190 -0.5231
 2196SOL    HW2 8596   5.950   0.193   5.456  3.5285  1.5078  0.7198
 2197SOL     OW 8597   8.031   9.080   2.255 -0.1130 -0.2679 -0.6781
 2197SOL    HW1 8598   8.061   8.990   2.252  0.3729 -0.0960 -1.5018
 2197SOL    HW2 8599   8.078   9.123   2.183  0.5649  0.9219  0.4392
 2198SOL     OW 8600   3.734   4.795   5.678  0.4026 -0.4399 -0.1069
 2198SOL    HW1 8601   3.798   4.732   5.645  0.0264 -0.7371 -0.2779
 2198SOL    HW2 8602   3.671   4.805   5.607  0.6653  0.4313 -0.2308
 2199SOL     OW 8603  10.234   4.537   7.286  0.0932 -0.6063 -0.5173
 2199SOL    HW1 8604  10.178   4.580   7.351 -1.0382 -0.4819 -1.5456
 2199SOL    HW2 8605  10.317   4.586   7.290  0.3364 -1.0796  1.3522
 2200SOL     OW 8606   0.387   0.972   3.442  0.2106 -0.1009 -0.5822
 2200SOL    HW1 8607   0.355   0.929   3.522 -0.1862  0.2477 -0.5523
 2200SOL    HW2 8608   0.322   1.040   3.424  0.9672  0.6528 -0.4911
 2201SOL     OW 8609   1.061   9.973   7.455  0.6674  0.2206 -0.0640
 2201SOL    HW1 8610   0.986  10.016   7.414  0.6972 -1.2232 -1.7491
 2201SOL    HW2 8611   1.137  10.012   7.411  1.0009  1.9329  1.8818
 2202SOL     OW 8612   7.920   7.311   3.170  0.3377  0.3995  0.5461
 2202SOL    HW1 8613   7.925   7.296   3.265 -0.1091  1.4771  0.7547
 2202SOL    HW2 8614   7.996   7.364   3.150  0.0968  0.7010  0.4157
 2203SOL     OW 8615   4.686   6.008   9.255  0.0697 -0.4498 -0.1938
 2203SOL    HW1 8616   4.626   6.028   9.183 -0.1651 -1.7602 -0.3913
 2203SOL    HW2 8617   4.723   6.092   9.279 -1.6368  0.3785 -0.2667
 2204SOL     OW 8618   2.148   2.573   8.704  0.5376 -0.6511  0.0428
 2204SOL    HW1 8619   2.166   2.489   8.661 -2.3075 -0.9891 -0.6686
 2204SOL    HW2 8620   2.097   2.550   8.782 -1.0759  0.4089 -0.6472
 2205SOL     OW 8621   6.632   6.462   9.402 -0.0445 -0.2671  0.7234
 2205SOL    HW1 8622   6.564   6.477   9.467 -0.0886 -0.1325  0.6474
 2205SOL    HW2 8623   6.595   6.496   9.320 -0.9167 -2.4773  0.1206
 2206SOL     OW 8624   8.943   2.519   8.386  0.5467  0.5859  0.1536
 2206SOL    HW1 8625   9.008   2.567   8.437  0.4263 -0.5741  1.4541
 2206SOL    HW2 8626   8.863   2.523   8.439  1.0748 -2.8356  1.4650
 2207SOL     OW 8627   2.633   6.507   3.476 -0.3383 -0.0406 -0.2089
 2207SOL    HW1 8628   2.608   6.435   3.419 -1.8952  1.4348 -1.4910
 2207SOL    HW2 8629   2.728   6.498   3.487 -0.1025 -0.7789 -2.4635
 2208SOL     OW 8630   5.823   1.351   8.689 -0.1323 -0.1651  0.5171
 2208SOL    HW1 8631   5.794   1.276   8.637 -0.7956 -0.4144  1.2218
 2208SOL    HW2 8632   5.866   1.409   8.627 -0.1100 -0.8754 -0.1371
 2209SOL     OW 8633   2.201   0.276   3.098 -0.0584 -0.3992 -0.1886
 2209SOL    HW1 8634   2.186   0.352   3.155  0.2169 -1.8105  1.9147
 2209SOL    HW2 8635   2.141   0.210   3.131 -1.7632 -0.5704 -3.2736
 2210SOL     OW 8636   6.612   2.363   2.295 -0.4523 -0.1556 -0.3412
 2210SOL    HW1 8637   6.617   2.367   2.390  1.1173 -1.4412 -0.3418
 2210SOL    HW2 8638   6.567   2.444   2.270 -1.0240  0.1271  1.4791
 2211SOL     OW 8639   7.175   8.170   2.611 -0.5039  0.3713  0.1637
 2211SOL    HW1 8640   7.235   8.107   2.651 -0.4435 -0.0956 -0.6321
 2211SOL    HW2 8641   7.114   8.117   2.561  0.1608  0.9765 -1.3484
 2212SOL     OW 8642   3.184   6.926   8.378 -0.3656  0.2370  0.2701
 2212SOL    HW1 8643   3.233   6.900   8.300 -0.4384 -1.2140  0.6835
 2212SOL    HW2 8644   3.092   6.910   8.356 -0.2620 -2.5945  1.4337
 2213SOL     OW 8645   6.823   8.322   1.858 -0.3042 -0.2549 -0.3473
 2213SOL    HW1 8646   6.866   8.407   1.865  0.6020 -0.8191  1.4405
 2213SOL    HW2 8647   6.795   8.301   1.947  0.3247 -2.2159 -0.5519
 2214SOL     OW 8648   0.723   3.681   6.864  0.1625 -0.2543 -0.1396
 2214SOL    HW1 8649   0.633   3.707   6.883 -0.2461 -0.8476 -1.1713
 2214SOL    HW2 8650   0.729   3.590   6.895  0.3837 -0.2457 -0.1546
 2215SOL     OW 8651  10.233   4.655   3.447  0.3419  0.0638 -0.1888
 2215SOL    HW1 8652  10.158   4.704   3.480 -0.7388 -0.8219 -1.2141
 2215SOL    HW2 8653  10.263   4.706   3.371  0.2038 -0.0358 -0.3123
 2216SOL     OW 8654   4.623   2.511  10.315  0.4267  0.7372 -0.5365
 2216SOL    HW1 8655   4.718   2.511  10.326  0.2659 -0.0905  1.1960
 2216SOL    HW2 8656   4.592   2.436  10.366 -1.3377  2.3829  1.0285
 2217SOL     OW 8657  10.545   8.934   4.695 -0.3490 -0.5738  0.2410
 2217SOL    HW1 8658  10.517   8.858   4.644  0.2248 -0.7266  0.1460
 2217SOL    HW2 8659  10.464   8.982   4.712 -0.4201  0.3335 -2.1883
 2218SOL     OW 8660   3.289   6.628   1.179  0.1805 -0.3051  0.1125
 2218SOL    HW1 8661   3.218   6.691   1.189 -0.3388 -0.6469 -1.1960
 2218SOL    HW2 8662   3.365   6.671   1.218 -0.7187  0.0754  1.5279
 2219SOL     OW 8663   8.930  10.671   8.987  0.5778 -0.0638 -0.0873
 2219SOL    HW1 8664   8.876  10.615   9.043  0.6537 -0.2483 -0.1992
 2219SOL    HW2 8665   8.887  10.668   8.901  1.8965 -1.8773 -0.7508
 2220SOL     OW 8666   8.134   9.307   8.856 -0.3766 -0.5132 -0.0167
 2220SOL    HW1 8667   8.093   9.366   8.792 -0.3930  0.9383  1.2686
 2220SOL    HW2 8668   8.228   9.321   8.843 -0.2812 -1.9911 -1.2739
 2221SOL     OW 8669   7.026   5.491   0.434  0.1098 -0.1938 -0.2986
 2221SOL    HW1 8670   7.103   5.483   0.378 -0.0383 -0.9913 -0.3946
 2221SOL    HW2 8671   6.972   5.558   0.392 -0.3598 -1.3253 -1.5347
 2222SOL     OW 8672   4.235   2.534   5.617 -0.0910 -0.0871 -1.4154
 2222SOL    HW1 8673   4.147   2.570   5.605  0.1600  1.1066  0.0808
 2222SOL    HW2 8674   4.225   2.467   5.685  0.2210  0.4220 -0.8537
 2223SOL     OW 8675  10.676   3.969   5.582 -0.2687 -0.3712 -0.4236
 2223SOL    HW1 8676  10.626   3.905   5.532 -1.4770 -0.0943  0.3781
 2223SOL    HW2 8677  10.609   4.023   5.626  0.7218  0.7579 -0.2389
 2224SOL     OW 8678   2.630   3.833   7.330 -0.2675  0.5023  0.7617
 2224SOL    HW1 8679   2.724   3.845   7.317 -0.5891 -0.0287 -2.9932
 2224SOL    HW2 8680   2.618   3.738   7.328 -0.9756  0.5966  0.1863
 2225SOL     OW 8681   1.411   1.774   3.069  0.1717  0.3566  0.4092
 2225SOL    HW1 8682   1.474   1.724   3.017  0.7842  2.1021 -0.6416
 2225SOL    HW2 8683   1.335   1.783   3.011  0.1966  0.8879  0.4552
 2226SOL     OW 8684  10.005   0.653   4.155 -0.3725 -0.3117  0.2534
 2226SOL    HW1 8685  10.094   0.641   4.187 -0.0309 -0.5272 -0.7364
 2226SOL    HW2 8686   9.949   0.625   4.228  0.3836 -2.0865  0.1963
 2227SOL     OW 8687   6.244   9.467   8.859 -0.0810 -0.4701  0.2821
 2227SOL    HW1 8688   6.180   9.449   8.791 -0.5475  0.7845  0.3599
 2227SOL    HW2 8689   6.225   9.403   8.928 -0.8689 -0.4875  0.0530
 2228SOL     OW 8690   6.094   6.279   2.984  0.1630  0.9062  0.3975
 2228SOL    HW1 8691   6.063   6.228   2.909 -0.1303 -0.4282  1.3899
 2228SOL    HW2 8692   6.177   6.317   2.954  0.7095 -0.6581 -0.2158
 2229SOL     OW 8693   1.467  10.797   3.347 -0.5866 -0.2919  0.4407
 2229SOL    HW1 8694   1.508  10.739   3.411  1.2947 -0.3483 -0.7501
 2229SOL    HW2 8695   1.521  10.875   3.347  0.1105 -0.7025 -1.7846
 2230SOL     OW 8696   8.087   9.502   2.163  0.2529 -0.6229 -0.1491
 2230SOL    HW1 8697   7.994   9.524   2.159  0.2193 -0.5937  0.6724
 2230SOL    HW2 8698   8.131   9.577   2.123 -0.0659 -0.5929 -0.4488
 2231SOL     OW 8699   5.922   9.743   3.292 -0.5096  0.1708  0.0769
 2231SOL    HW1 8700   5.884   9.660   3.264 -0.5411  0.2363 -0.0779
 2231SOL    HW2 8701   6.003   9.751   3.243  0.5457 -0.7411  1.5983
 2232SOL     OW 8702   2.254   4.966   8.760 -0.3614  0.1626  0.3788
 2232SOL    HW1 8703   2.191   4.915   8.811  0.0589  0.8182  1.5896
 2232SOL    HW2 8704   2.223   5.056   8.767  0.6099  0.4706  0.8448
 2233SOL     OW 8705   4.821   4.472   9.404 -0.4787  0.0612 -0.0271
 2233SOL    HW1 8706   4.912   4.471   9.375 -0.5766 -0.3136 -0.3278
 2233SOL    HW2 8707   4.823   4.521   9.487 -0.2535  1.4647 -0.8211
 2234SOL     OW 8708   2.634   5.126   4.592 -0.4707 -0.0789 -0.3634
 2234SOL    HW1 8709   2.657   5.094   4.680  0.2747  2.3547  0.3991
 2234SOL    HW2 8710   2.717   5.127   4.545 -0.4341  0.8995 -0.2939
 2235SOL     OW 8711   0.189   9.652   7.333 -0.0228 -0.0027 -0.6707
 2235SOL    HW1 8712   0.185   9.662   7.238 -1.0480  0.0645 -0.6343
 2235SOL    HW2 8713   0.098   9.639   7.360  0.3672 -1.2595  0.1703
 2236SOL     OW 8714   8.970   8.973   6.529  0.2900 -0.6633  0.1268
 2236SOL    HW1 8715   8.889   9.006   6.568 -0.3667 -0.0438 -1.6291
 2236SOL    HW2 8716   9.031   8.966   6.602 -0.5979  1.1865  1.1253
 2237SOL     OW 8717   5.187   2.062   7.778 -0.1008 -0.0774  0.3772
 2237SOL    HW1 8718   5.169   2.141   7.828  0.3501  0.3423 -0.1178
 2237SOL    HW2 8719   5.210   2.093   7.690 -1.3086 -0.8154 -0.2316
 2238SOL     OW 8720   8.886   9.641   0.735 -0.4226  0.0955  0.1267
 2238SOL    HW1 8721   8.869   9.711   0.797 -0.0250 -0.3996  0.8065
 2238SOL    HW2 8722   8.966   9.599   0.767 -0.2835 -0.2521 -0.6447
 2239SOL     OW 8723   6.521   6.392   4.455  0.5897  0.3846  0.2094
 2239SOL    HW1 8724   6.439   6.347   4.435 -0.0272  1.2401  0.7452
 2239SOL    HW2 8725   6.528   6.386   4.551  0.5706  1.3041  0.2699
 2240SOL     OW 8726   3.965   8.758   7.226 -0.3663 -0.4861 -0.2490
 2240SOL    HW1 8727   4.009   8.693   7.171  0.9871 -0.0179  0.2567
 2240SOL    HW2 8728   3.921   8.705   7.293 -1.3832 -1.0118 -1.2951
 2241SOL     OW 8729   0.221   3.346   8.028  0.0990 -0.0134  0.4820
 2241SOL    HW1 8730   0.202   3.357   7.935  0.3418  1.4469  0.5878
 2241SOL    HW2 8731   0.311   3.375   8.038  0.0559 -0.1092  1.1838
 2242SOL     OW 8732  10.187   8.153   8.378  0.0989  0.0499 -0.5676
 2242SOL    HW1 8733  10.201   8.072   8.427  0.1411  0.8688  0.8429
 2242SOL    HW2 8734  10.101   8.143   8.339  0.8370 -1.4029 -1.9396
 2243SOL     OW 8735   4.143   3.958   8.330  0.0261  0.4072 -0.0947
 2243SOL    HW1 8736   4.192   3.877   8.343 -0.1839  0.3362  0.2651
 2243SOL    HW2 8737   4.052   3.931   8.320  0.1528  0.4749 -1.6058
 2244SOL     OW 8738   5.556   3.230   6.266 -0.1870 -0.2282  0.3088
 2244SOL    HW1 8739   5.649   3.212   6.280 -0.1250  0.4669  0.8638
 2244SOL    HW2 8740   5.544   3.320   6.298 -1.4944 -1.0628  2.3676
 2245SOL     OW 8741   9.053   1.242   9.567 -0.3216 -0.4929  0.4711
 2245SOL    HW1 8742   9.086   1.332   9.576 -2.4666  0.4735 -0.7532
 2245SOL    HW2 8743   9.022   1.237   9.477 -0.9574 -2.2373  0.7624
 2246SOL     OW 8744   0.949   4.802   2.430 -0.1787  0.4494  0.2025
 2246SOL    HW1 8745   0.886   4.866   2.463 -0.5307  2.3215 -3.5348
 2246SOL    HW2 8746   0.895   4.731   2.395 -0.0590  0.4959 -0.0812
 2247SOL     OW 8747   8.812   0.231   3.149  0.5602  0.5020  0.0348
 2247SOL    HW1 8748   8.855   0.158   3.103  1.2454  1.2620 -0.5634
 2247SOL    HW2 8749   8.881   0.296   3.161 -0.4028  1.8105 -1.0547
 2248SOL     OW 8750  10.522   2.674   7.852  0.3832  0.2374 -0.7750
 2248SOL    HW1 8751  10.448   2.703   7.798  1.5321  1.0660 -1.9519
 2248SOL    HW2 8752  10.554   2.754   7.893  0.1767 -0.2321  0.3369
 2249SOL     OW 8753   4.979   8.733   4.753 -0.6155 -0.8415  0.0332
 2249SOL    HW1 8754   5.068   8.705   4.731 -0.7564 -0.9849 -0.3761
 2249SOL    HW2 8755   4.951   8.783   4.676 -0.7582 -0.4897  0.3126
 2250SOL     OW 8756   5.297   7.207   8.637 -0.2408  0.1966 -0.0763
 2250SOL    HW1 8757   5.213   7.174   8.606 -0.2383 -0.5823  0.7248
 2250SOL    HW2 8758   5.285   7.302   8.643 -0.0746  0.4856 -2.9454
 2251SOL     OW 8759   9.080   0.599   4.012  0.4944 -0.4652 -0.2970
 2251SOL    HW1 8760   9.152   0.661   4.027 -0.6494  1.1203 -1.1115
 2251SOL    HW2 8761   9.110   0.546   3.938  0.1043  1.4342 -1.8874
 2252SOL     OW 8762   4.925   8.590   8.477 -0.3239  0.0444  0.5935
 2252SOL    HW1 8763   5.018   8.611   8.491 -0.0192 -1.0673  0.3205
 2252SOL    HW2 8764   4.915   8.589   8.382 -1.1758  2.4030  0.5864
 2253SOL     OW 8765  10.318   1.791   3.133 -0.2455  0.2197  0.1121
 2253SOL    HW1 8766  10.275   1.846   3.067  0.2802  0.2972 -0.1725
 2253SOL    HW2 8767  10.269   1.709   3.131 -0.0040  0.0809 -0.6536
 2254SOL     OW 8768   1.416   1.740   5.866 -0.0514  0.1147 -0.4517
 2254SOL    HW1 8769   1.452   1.665   5.914  1.8585  1.5084  0.3869
 2254SOL    HW2 8770   1.360   1.785   5.930  0.2605  0.4152 -0.3889
 2255SOL     OW 8771   7.697  10.638   7.372 -0.1318  0.2918  0.7905
 2255SOL    HW1 8772   7.747  10.581   7.315  0.9485  1.6896  0.2718
 2255SOL    HW2 8773   7.630  10.582   7.411  0.1701 -1.0423 -0.5565
 2256SOL     OW 8774   6.140   4.290   0.052  0.4790  0.5058 -1.1535
 2256SOL    HW1 8775   6.163   4.259   0.139 -2.1500 -2.0069 -1.1985
 2256SOL    HW2 8776   6.224   4.313   0.011  1.8311  1.0848  1.7141
 2257SOL     OW 8777   2.367  10.981   3.354  0.5551  0.3766  0.1103
 2257SOL    HW1 8778   2.387  11.074   3.361  1.8783  0.1385 -0.2615
 2257SOL    HW2 8779   2.381  10.960   3.261 -0.0616 -0.1287  0.1233
 2258SOL     OW 8780   8.506   6.488   9.757 -0.4963  0.4406 -0.0965
 2258SOL    HW1 8781   8.509   6.570   9.709 -1.2256  0.3064 -0.3914
 2258SOL    HW2 8782   8.414   6.461   9.753 -0.7760  0.8763  2.1415
 2259SOL     OW 8783   5.985  10.148   5.518 -0.2398  0.0826  0.0266
 2259SOL    HW1 8784   6.067  10.191   5.542 -1.0794  3.4684 -2.5424
 2259SOL    HW2 8785   5.917  10.208   5.547 -1.8072 -1.8519  0.5600
 2260SOL     OW 8786   7.679   9.807   7.713 -0.6170 -0.5733  0.5153
 2260SOL    HW1 8787   7.658   9.847   7.797 -2.5228 -0.5962  0.0936
 2260SOL    HW2 8788   7.605   9.830   7.656 -0.6403 -2.6834 -0.4084
 2261SOL     OW 8789   2.444   1.272   4.213  0.0081 -0.5728  0.0171
 2261SOL    HW1 8790   2.374   1.323   4.171 -0.3523 -1.4930 -0.5485
 2261SOL    HW2 8791   2.469   1.208   4.147 -0.4491 -1.9577  1.1376
 2262SOL     OW 8792   7.167  10.916   0.103 -0.0244 -0.4622  0.0882
 2262SOL    HW1 8793   7.099  10.961   0.053  1.1887 -0.1391 -1.3620
 2262SOL    HW2 8794   7.152  10.823   0.087 -0.1344 -0.3923 -0.2247
 2263SOL     OW 8795   9.025   1.105   7.173 -0.7404  0.5190  0.1216
 2263SOL    HW1 8796   8.977   1.184   7.196 -1.0009  0.3447  0.1861
 2263SOL    HW2 8797   9.024   1.102   7.077 -1.4962  0.1317  0.1375
 2264SOL     OW 8798   8.817   6.868   2.090 -0.0499 -0.1388 -0.0213
 2264SOL    HW1 8799   8.790   6.935   2.028  1.2776 -0.7712 -1.3162
 2264SOL    HW2 8800   8.858   6.799   2.037  0.7298 -0.9071  1.4909
 2265SOL     OW 8801   3.324  10.484   8.559 -0.4005 -0.3192 -0.6149
 2265SOL    HW1 8802   3.354  10.468   8.648 -0.2088 -1.7680 -0.9159
 2265SOL    HW2 8803   3.228  10.477   8.564 -0.4365  0.2359 -0.4194
 2266SOL     OW 8804   3.053   4.116   8.994  0.0225 -0.0679 -0.0736
 2266SOL    HW1 8805   3.062   4.200   9.039 -3.0335  1.4116 -1.8917
 2266SOL    HW2 8806   3.108   4.126   8.916 -0.2787  0.2531 -0.2512
 2267SOL     OW 8807  10.851   4.490   9.000 -0.0647  0.0203  0.2765
 2267SOL    HW1 8808  10.769   4.535   8.978  0.0389  0.4130  0.6847
 2267SOL    HW2 8809  10.907   4.558   9.038  0.6262 -0.1438 -0.4287
 2268SOL     OW 8810   2.939   9.276   2.268  0.2549  0.5062 -0.1276
 2268SOL    HW1 8811   3.005   9.316   2.212  2.6449 -1.1048  1.3828
 2268SOL    HW2 8812   2.979   9.272   2.355 -2.8803  1.8828  1.5688
 2269SOL     OW 8813   2.063   1.996   5.914 -0.0944  0.0934  0.4518
 2269SOL    HW1 8814   2.053   1.935   5.841 -2.5660 -0.3780  1.0646
 2269SOL    HW2 8815   2.150   1.977   5.950  0.3513 -1.0490 -1.1270
 2270SOL     OW 8816   2.428   7.061   6.498 -0.0047  0.1922 -0.3984
 2270SOL    HW1 8817   2.459   7.116   6.426  0.0967  4.0054  2.2053
 2270SOL    HW2 8818   2.506   7.047   6.552 -0.7271  0.8086  0.8612
 2271SOL     OW 8819   8.433   4.965   0.194 -0.3385  0.1061  0.6064
 2271SOL    HW1 8820   8.487   4.893   0.162  0.5470  0.6052  0.9338
 2271SOL    HW2 8821   8.429   4.953   0.288  1.2039  1.3733  0.8780
 2272SOL     OW 8822   1.241   0.078   9.342 -0.5100  0.2413 -0.1034
 2272SOL    HW1 8823   1.300   0.022   9.393 -2.5004 -1.1025  0.8707
 2272SOL    HW2 8824   1.204   0.138   9.406 -1.9474 -0.5085 -0.1880
 2273SOL     OW 8825   1.562   5.757   8.096 -0.2370  0.1817 -0.1507
 2273SOL    HW1 8826   1.581   5.670   8.131  0.2833  1.1758  2.2490
 2273SOL    HW2 8827   1.647   5.793   8.073 -0.5693 -0.4545 -2.6472
 2274SOL     OW 8828   0.610   3.719   5.173  0.1497  0.0681  0.2543
 2274SOL    HW1 8829   0.685   3.769   5.141 -0.8133  0.7829 -1.0042
 2274SOL    HW2 8830   0.545   3.785   5.195 -0.5702 -0.5723  0.0796
 2275SOL     OW 8831   4.690   3.479  10.208 -0.3749 -0.1154  0.4587
 2275SOL    HW1 8832   4.613   3.522  10.171  0.1520  1.0578  0.6431
 2275SOL    HW2 8833   4.764   3.527  10.170  0.2405 -0.8318  0.7368
 2276SOL     OW 8834  10.513   3.563   9.877 -0.3999  0.2219  0.3580
 2276SOL    HW1 8835  10.492   3.470   9.864  1.3326 -0.2665  0.7323
 2276SOL    HW2 8836  10.502   3.576   9.971 -1.4875  0.6465  0.1836
 2277SOL     OW 8837   8.303   0.581   2.419 -0.3104  0.0686 -0.2062
 2277SOL    HW1 8838   8.220   0.537   2.436  0.2184 -0.1578  2.1526
 2277SOL    HW2 8839   8.352   0.522   2.362 -0.3312 -1.5874  1.4189
 2278SOL     OW 8840   5.217   1.054   9.788  0.2604 -0.3848 -0.3981
 2278SOL    HW1 8841   5.232   1.079   9.879 -0.3745 -3.3364  0.6514
 2278SOL    HW2 8842   5.282   1.104   9.738  1.4609  0.4067  1.8094
 2279SOL     OW 8843   1.117   5.836   5.785  0.0227  0.6250  0.1589
 2279SOL    HW1 8844   1.109   5.774   5.712  1.2149 -0.1724  0.6710
 2279SOL    HW2 8845   1.185   5.897   5.757 -0.7823  1.4106 -0.1248
 2280SOL     OW 8846  10.585   6.612   3.565 -0.1471  0.6406  0.0554
 2280SOL    HW1 8847  10.602   6.701   3.597 -0.5688  0.8553 -0.3219
 2280SOL    HW2 8848  10.493   6.612   3.540 -0.2090  0.0280  0.2645
 2281SOL     OW 8849   4.413   7.757  10.859  0.0737 -0.0405  0.1631
 2281SOL    HW1 8850   4.452   7.844  10.867 -2.0812  1.1011 -0.8529
 2281SOL    HW2 8851   4.319   7.771  10.871 -0.5922 -1.8779 -2.1312
 2282SOL     OW 8852   9.791   4.757  10.784 -0.2848 -0.0942  0.1230
 2282SOL    HW1 8853   9.835   4.840  10.766 -1.4854  0.6619  0.5263
 2282SOL    HW2 8854   9.811   4.738  10.876 -0.2778 -0.0742  0.1254
 2283SOL     OW 8855   1.577   1.104   1.802 -0.6055 -0.0306  0.1975
 2283SOL    HW1 8856   1.618   1.168   1.860 -0.8287  0.5111 -0.2267
 2283SOL    HW2 8857   1.629   1.108   1.721 -1.2027  0.3299 -0.1797
 2284SOL     OW 8858   1.849   3.850   7.059 -0.7463 -0.2000  0.5613
 2284SOL    HW1 8859   1.901   3.770   7.068  1.3682  0.9793 -0.5223
 2284SOL    HW2 8860   1.842   3.884   7.149 -0.8561 -1.0910  0.9041
 2285SOL     OW 8861   6.935   3.405   4.216  0.4121 -0.4958 -0.5231
 2285SOL    HW1 8862   6.959   3.361   4.297  2.1861  0.3023 -0.5736
 2285SOL    HW2 8863   6.905   3.334   4.158  1.3883 -1.3898  0.0346
 2286SOL     OW 8864   3.441   3.532   4.042  0.2076  0.8362  0.1743
 2286SOL    HW1 8865   3.525   3.495   4.015 -1.0059 -1.0861 -1.2526
 2286SOL    HW2 8866   3.420   3.597   3.974  0.2604  0.8824  0.2021
 2287SOL     OW 8867   2.506   2.822   1.328 -0.4075  0.0655 -0.5689
 2287SOL    HW1 8868   2.422   2.775   1.327 -1.3135  1.6181  0.1203
 2287SOL    HW2 8869   2.535   2.821   1.237 -0.5273 -1.5746 -0.6190
 2288SOL     OW 8870   6.563   8.121   0.090 -0.3876  0.0915 -0.3905
 2288SOL    HW1 8871   6.533   8.063   0.161 -0.4105 -0.0470 -0.5116
 2288SOL    HW2 8872   6.567   8.208   0.130 -0.3483  0.0055 -0.2043
 2289SOL     OW 8873   2.458   1.258  10.866  0.7288  0.1716 -0.3485
 2289SOL    HW1 8874   2.435   1.214  10.785  0.5063 -0.1745 -0.0986
 2289SOL    HW2 8875   2.553   1.249  10.872  1.0100  1.7809 -1.4854
 2290SOL     OW 8876   9.289   7.965   0.721  0.3269  0.3775 -0.1677
 2290SOL    HW1 8877   9.208   8.017   0.726  0.6707  0.9099  0.0339
 2290SOL    HW2 8878   9.268   7.894   0.662  0.2803  1.5739 -1.6571
 2291SOL     OW 8879  10.492   8.453   1.497  0.1562 -0.0404 -0.3733
 2291SOL    HW1 8880  10.517   8.541   1.526  1.7519  0.1460 -2.1087
 2291SOL    HW2 8881  10.574   8.412   1.471 -0.7529 -1.4315 -1.2020
 2292SOL     OW 8882   3.192   2.572   0.700  0.1338 -0.5270 -0.3750
 2292SOL    HW1 8883   3.236   2.649   0.735  1.9652 -0.5429 -2.4420
 2292SOL    HW2 8884   3.127   2.607   0.639 -1.2374 -0.5811  0.9936
 2293SOL     OW 8885   1.669   0.945   6.419 -0.7256  0.4556  0.9286
 2293SOL    HW1 8886   1.657   1.007   6.491  1.6490 -0.0235  1.8225
 2293SOL    HW2 8887   1.629   0.863   6.450  1.7517 -0.2486  2.5271
 2294SOL     OW 8888   3.418  10.944  10.025 -0.2607 -0.0423  0.2344
 2294SOL    HW1 8889   3.463  11.015   9.980  1.1834  0.0078  1.6579
 2294SOL    HW2 8890   3.489  10.887  10.057 -1.3499 -1.7389 -0.2420
 2295SOL     OW 8891   7.666   4.333   1.748 -0.1377 -0.3160 -0.0485
 2295SOL    HW1 8892   7.749   4.298   1.715 -0.5090 -1.5599  0.2589
 2295SOL    HW2 8893   7.607   4.257   1.749 -1.2983  0.5496 -0.3061
 2296SOL     OW 8894   5.872  10.907   0.497  0.2709 -0.8646 -0.1261
 2296SOL    HW1 8895   5.964  10.879   0.507  0.3100 -0.1102  2.6132
 2296SOL    HW2 8896   5.859  10.969   0.569 -2.0007  0.1889 -1.3664
 2297SOL     OW 8897   4.060   7.104   7.571 -0.4961 -0.3729  0.3143
 2297SOL    HW1 8898   4.113   7.048   7.628  0.3671 -0.7619 -0.8442
 2297SOL    HW2 8899   4.083   7.078   7.482 -0.9058  1.0547 -0.2490
 2298SOL     OW 8900   8.343   6.022   3.308  0.2368  0.3227 -0.1052
 2298SOL    HW1 8901   8.315   6.110   3.335  0.8334  0.3446  0.4741
 2298SOL    HW2 8902   8.294   6.005   3.228 -1.8132  0.1639  1.0982
 2299SOL     OW 8903   9.825   6.861  10.137  0.1369 -0.1845 -0.0971
 2299SOL    HW1 8904   9.901   6.805  10.127  0.2028 -0.0380 -0.4203
 2299SOL    HW2 8905   9.768   6.838  10.064  0.7956  1.1711 -1.0820
 2300SOL     OW 8906   9.728   7.020   6.807 -1.0056  0.1098  0.5757
 2300SOL    HW1 8907   9.665   6.949   6.798 -2.6090  1.5483 -0.1731
 2300SOL    HW2 8908   9.755   7.041   6.717 -0.4552  0.3596  0.7922
 2301SOL     OW 8909   4.367   3.666   6.978 -0.2896  0.3782 -0.1115
 2301SOL    HW1 8910   4.359   3.690   7.071  0.6579  2.8546 -0.5792
 2301SOL    HW2 8911   4.333   3.742   6.931  0.3567 -0.3397 -1.8122
 2302SOL     OW 8912   0.688   8.675   5.289 -0.4446  0.2102  0.0420
 2302SOL    HW1 8913   0.688   8.598   5.233  2.7591  0.0383  0.0957
 2302SOL    HW2 8914   0.682   8.639   5.378 -1.2439  0.2205  0.0054
 2303SOL     OW 8915   3.630   8.928   7.089  0.0886 -0.0147  0.4870
 2303SOL    HW1 8916   3.717   8.953   7.122  0.0583  1.8796 -0.7142
 2303SOL    HW2 8917   3.647   8.857   7.028  0.6505 -0.4021  1.0780
 2304SOL     OW 8918   1.118   5.611   5.964  0.3170 -0.2118 -0.0453
 2304SOL    HW1 8919   1.133   5.650   6.050 -1.2647 -0.3983  0.3513
 2304SOL    HW2 8920   1.113   5.685   5.904  0.6883 -0.0337  0.1416
 2305SOL     OW 8921   5.233   2.266   6.971 -0.3531  0.0722  0.5686
 2305SOL    HW1 8922   5.238   2.325   6.896  0.0368  1.0299  1.3089
 2305SOL    HW2 8923   5.197   2.321   7.041 -1.4746 -1.0196  0.8760
 2306SOL     OW 8924   1.225  10.942   0.956 -0.2815 -0.2966  0.1120
 2306SOL    HW1 8925   1.254  11.033   0.958  1.4186 -0.7747 -0.4860
 2306SOL    HW2 8926   1.251  10.906   1.040  0.3802 -0.5862 -0.2089
 2307SOL     OW 8927   8.955   6.783   6.282 -0.4772 -0.5736  0.4910
 2307SOL    HW1 8928   8.995   6.696   6.276  2.5296  0.7866 -2.0968
 2307SOL    HW2 8929   8.996   6.823   6.359 -0.3668 -0.7629  0.5299
 2308SOL     OW 8930   2.856   4.682   1.226 -0.2815  0.1325  0.5409
 2308SOL    HW1 8931   2.776   4.694   1.175  0.3398  2.3595 -0.0239
 2308SOL    HW2 8932   2.850   4.592   1.260 -1.7691 -0.6570 -1.6056
 2309SOL     OW 8933   8.961   4.933   7.309 -0.3225 -0.1004 -0.0254
 2309SOL    HW1 8934   8.989   4.978   7.389  0.0423 -2.0976  1.0203
 2309SOL    HW2 8935   9.008   4.850   7.310 -1.6244 -0.9075 -1.4261
 2310SOL     OW 8936   1.277   9.683   1.808  0.4963  0.1024 -0.2144
 2310SOL    HW1 8937   1.186   9.706   1.792  0.5064 -0.6815 -1.4881
 2310SOL    HW2 8938   1.312   9.756   1.858 -0.2177  1.5163 -1.7082
 2311SOL     OW 8939   6.503   9.670   0.483  0.6512 -0.0856 -0.0308
 2311SOL    HW1 8940   6.529   9.606   0.549 -0.7977 -1.5802 -0.8302
 2311SOL    HW2 8941   6.499   9.621   0.401  0.2029  1.1988 -0.8227
 2312SOL     OW 8942  10.978   1.827   8.566  0.5043  0.0303  0.5731
 2312SOL    HW1 8943  11.002   1.796   8.653  0.9643  1.1318  0.8618
 2312SOL    HW2 8944  11.047   1.890   8.544  0.2691 -0.0756 -0.4939
 2313SOL     OW 8945   7.982   6.990   2.455 -0.2078 -0.0180 -0.2617
 2313SOL    HW1 8946   7.993   7.063   2.516  1.0345  0.0385 -0.5226
 2313SOL    HW2 8947   8.048   7.005   2.388 -1.3119 -0.2844 -1.4356
 2314SOL     OW 8948   0.359   9.945   6.995 -0.4025  0.0401  0.6550
 2314SOL    HW1 8949   0.423   9.874   7.005 -1.1496 -0.7074  0.2555
 2314SOL    HW2 8950   0.411  10.022   6.974  0.2868 -0.8639 -1.1822
 2315SOL     OW 8951  10.627   2.789   6.009  0.5325  0.3616 -0.1247
 2315SOL    HW1 8952  10.623   2.865   5.951 -0.8715  0.9042  0.6384
 2315SOL    HW2 8953  10.563   2.728   5.972 -0.2919  0.6670  0.7566
 2316SOL     OW 8954   6.419   0.514   2.258  0.0833  0.2867  0.0559
 2316SOL    HW1 8955   6.487   0.484   2.198  0.3906 -0.6894  0.8521
 2316SOL    HW2 8956   6.431   0.609   2.263  0.5070  0.2894 -0.8569
 2317SOL     OW 8957   2.620   8.739   3.698  0.4163  0.1656 -0.1661
 2317SOL    HW1 8958   2.558   8.665   3.692 -1.2297  1.4120  0.5620
 2317SOL    HW2 8959   2.569   8.809   3.738  2.2889  1.3391  0.2793
 2318SOL     OW 8960   7.283  10.799   9.566  0.1250 -0.1253  0.3257
 2318SOL    HW1 8961   7.343  10.758   9.628  1.4252  0.6949 -0.3522
 2318SOL    HW2 8962   7.211  10.833   9.620  0.1614 -1.2669  1.1275
 2319SOL     OW 8963   7.554   1.195   4.226  0.7428  0.1736  0.0436
 2319SOL    HW1 8964   7.527   1.275   4.271 -3.3752 -1.1297  0.3756
 2319SOL    HW2 8965   7.531   1.210   4.134  0.8911 -0.2595 -0.0675
 2320SOL     OW 8966   1.358   8.645   7.132  0.1182 -0.1426  0.0161
 2320SOL    HW1 8967   1.443   8.609   7.157  0.5262  0.3835 -0.5570
 2320SOL    HW2 8968   1.294   8.592   7.179  0.6799 -1.7914 -1.0014
 2321SOL     OW 8969   0.443   1.652   1.528 -0.5721 -0.1294  0.2551
 2321SOL    HW1 8970   0.513   1.605   1.574 -1.5796 -3.2310 -1.1530
 2321SOL    HW2 8971   0.482   1.678   1.445 -0.1125  1.3940  0.9046
 2322SOL     OW 8972   6.414   9.770   9.124  0.2618  0.0280 -0.1638
 2322SOL    HW1 8973   6.430   9.754   9.031 -1.7091  1.6886 -0.8631
 2322SOL    HW2 8974   6.468   9.846   9.145  0.2566  0.0164 -0.1074
 2323SOL     OW 8975   9.677   3.571   6.364  0.4130  0.1932 -0.2795
 2323SOL    HW1 8976   9.732   3.547   6.438 -2.4413 -1.9674  1.3376
 2323SOL    HW2 8977   9.636   3.654   6.391 -0.3818 -0.4291  0.4969
 2324SOL     OW 8978   1.862   8.514   2.818  0.3106  0.4928 -0.2589
 2324SOL    HW1 8979   1.857   8.578   2.748  2.4048  0.0615 -0.8797
 2324SOL    HW2 8980   1.844   8.564   2.898 -0.7862  1.2611 -0.9649
 2325SOL     OW 8981   4.032   5.607   6.383 -0.1368  0.1913  0.6374
 2325SOL    HW1 8982   3.969   5.540   6.358 -0.8795  1.1453 -0.1864
 2325SOL    HW2 8983   4.027   5.611   6.479  0.8262 -1.7416  0.7948
 2326SOL     OW 8984   6.266   9.690   0.654 -0.1379  0.5480  0.2177
 2326SOL    HW1 8985   6.350   9.713   0.695 -1.1777  1.4644  1.9760
 2326SOL    HW2 8986   6.218   9.772   0.650 -1.1569 -0.0526 -0.2662
 2327SOL     OW 8987   9.546   1.428   7.929 -0.0433 -0.1184  0.2611
 2327SOL    HW1 8988   9.608   1.420   8.002 -0.8491 -0.3264  0.9429
 2327SOL    HW2 8989   9.568   1.512   7.888 -0.5724  0.7629  1.7071
 2328SOL     OW 8990   7.824   4.996   9.663 -0.0689  0.9563 -0.1635
 2328SOL    HW1 8991   7.881   4.927   9.631 -0.0999 -0.5033  2.6357
 2328SOL    HW2 8992   7.879   5.075   9.662  1.1203  0.1552 -0.0911
 2329SOL     OW 8993   6.376   5.949   8.687 -0.3255  0.0760  0.5772
 2329SOL    HW1 8994   6.369   5.866   8.734 -0.6175 -0.3703 -0.2298
 2329SOL    HW2 8995   6.287   5.983   8.686 -0.3178  0.0918  0.3695
 2330SOL     OW 8996   1.584   6.590   3.218 -0.1099 -0.3621  1.0005
 2330SOL    HW1 8997   1.491   6.599   3.197 -0.2462 -1.6425  0.9820
 2330SOL    HW2 8998   1.629   6.595   3.134 -0.2496 -0.7040  0.9043
 2331SOL     OW 8999   7.951   6.472   0.037  0.1230 -0.2752  0.7895
 2331SOL    HW1 9000   7.873   6.464   0.092  0.1887 -1.6094  0.7262
 2331SOL    HW2 9001   8.024   6.454   0.097  0.2967 -0.1828  0.6056
 2332SOL     OW 9002   9.270   8.045   0.372  0.0933  0.2638 -0.4423
 2332SOL    HW1 9003   9.364   8.027   0.379 -0.1394 -0.8065  0.1986
 2332SOL    HW2 9004   9.239   8.046   0.463 -0.5581  0.3496 -0.6592
 2333SOL     OW 9005   6.336   8.006   3.263  0.2962 -0.0238  0.5964
 2333SOL    HW1 9006   6.265   8.038   3.207  1.5229 -1.1283 -1.7266
 2333SOL    HW2 9007   6.308   8.029   3.352 -1.5638  2.1948 -0.4486
 2334SOL     OW 9008   7.184   8.716   6.124 -0.3551  0.0131  0.3511
 2334SOL    HW1 9009   7.198   8.810   6.107 -1.7697  0.3149  0.6825
 2334SOL    HW2 9010   7.241   8.672   6.062 -1.0365  1.1091 -1.1395
 2335SOL     OW 9011   0.882   7.269   5.967 -0.1599  0.5585 -0.5098
 2335SOL    HW1 9012   0.933   7.211   6.024  0.5036  2.1355  0.5438
 2335SOL    HW2 9013   0.858   7.343   6.022  2.2986  3.2354 -2.7083
 2336SOL     OW 9014   5.938  10.313   9.626  0.0697  0.0531  0.3622
 2336SOL    HW1 9015   5.880  10.244   9.659 -1.8179  1.0774 -0.6122
 2336SOL    HW2 9016   5.904  10.333   9.538  2.5271  0.0609 -0.6609
 2337SOL     OW 9017   7.999   8.255   9.993  0.1265  0.3563 -0.5884
 2337SOL    HW1 9018   7.926   8.265  10.053 -0.4353  0.8492 -1.3501
 2337SOL    HW2 9019   7.959   8.236   9.908  0.9380 -2.1266 -0.5116
 2338SOL     OW 9020   7.933   6.891   7.145 -0.8102 -0.1893  0.6229
 2338SOL    HW1 9021   7.838   6.885   7.143 -0.7795 -0.6291 -0.3273
 2338SOL    HW2 9022   7.954   6.922   7.233 -1.7107 -2.4132  1.6939
 2339SOL     OW 9023   1.250  10.794   5.365 -0.2054 -0.3662  0.0342
 2339SOL    HW1 9024   1.299  10.763   5.441  1.3283 -0.1140 -0.8133
 2339SOL    HW2 9025   1.317  10.818   5.302 -1.3939 -2.1872 -2.0739
 2340SOL     OW 9026  10.703   5.534   8.506 -0.3673  0.5025  0.1543
 2340SOL    HW1 9027  10.682   5.558   8.596  0.4656  0.2526  0.4250
 2340SOL    HW2 9028  10.687   5.613   8.455  1.1494  1.2809  0.8379
 2341SOL     OW 9029   9.317   5.847   0.959 -0.0349  0.7025 -0.3624
 2341SOL    HW1 9030   9.243   5.792   0.931  0.0728  1.2728 -1.8736
 2341SOL    HW2 9031   9.388   5.785   0.976 -0.6977  0.1877  0.6118
 2342SOL     OW 9032   9.384  10.319   4.157 -0.1369  0.4797  0.4292
 2342SOL    HW1 9033   9.313  10.374   4.124 -1.5632 -0.4080  1.8887
 2342SOL    HW2 9034   9.457  10.379   4.169 -1.1355  1.7330  0.4289
 2343SOL     OW 9035   6.297   1.719   3.546  0.2864 -0.4681  0.2872
 2343SOL    HW1 9036   6.333   1.805   3.565 -1.8366  0.3099  1.0864
 2343SOL    HW2 9037   6.315   1.667   3.625  0.2836 -0.3022  0.3972
 2344SOL     OW 9038   2.398   5.400   3.561 -0.1189 -0.0065 -0.4547
 2344SOL    HW1 9039   2.445   5.405   3.644 -0.8324 -0.5860  0.0012
 2344SOL    HW2 9040   2.445   5.334   3.510  0.7856  0.9105 -0.8336
 2345SOL     OW 9041   3.128   5.807   4.850  0.5448 -0.2806 -0.0575
 2345SOL    HW1 9042   3.036   5.826   4.831  0.7579 -0.3150 -1.1845
 2345SOL    HW2 9043   3.125   5.725   4.899 -0.0268 -0.2936 -0.1026
 2346SOL     OW 9044   7.927   4.049   3.423 -0.3267  0.3425 -0.0615
 2346SOL    HW1 9045   7.971   4.048   3.508 -1.0940  1.2162  0.3629
 2346SOL    HW2 9046   7.844   4.094   3.439  0.0044  1.5721 -1.5194
 2347SOL     OW 9047   1.243   8.543   8.372 -0.7249  0.3196 -0.6862
 2347SOL    HW1 9048   1.180   8.587   8.429  0.1810  1.6425 -0.6445
 2347SOL    HW2 9049   1.201   8.544   8.286 -0.8569  1.0200 -0.6219
 2348SOL     OW 9050   2.789   6.330   0.200  0.0809 -0.9709 -0.0010
 2348SOL    HW1 9051   2.705   6.293   0.171  0.2487 -2.4505  1.2709
 2348SOL    HW2 9052   2.806   6.402   0.139 -2.6355  0.0797  0.3061
 2349SOL     OW 9053   2.037   3.762   3.055  0.1152  0.2179 -0.5332
 2349SOL    HW1 9054   2.003   3.677   3.083  0.0850  0.3353 -0.2014
 2349SOL    HW2 9055   2.092   3.791   3.128  1.4049 -0.2297 -1.2938
 2350SOL     OW 9056   4.610   4.154   8.286 -0.2064 -0.1442 -0.1802
 2350SOL    HW1 9057   4.590   4.076   8.234 -0.0163 -0.0280 -0.4255
 2350SOL    HW2 9058   4.647   4.118   8.367  0.1532 -0.3020 -0.4120
 2351SOL     OW 9059   6.377   1.396   1.492  0.4182 -0.0181  0.2496
 2351SOL    HW1 9060   6.458   1.361   1.529  0.9804 -0.4435 -1.2860
 2351SOL    HW2 9061   6.309   1.370   1.554  1.1328 -1.8688  0.3266
 2352SOL     OW 9062   3.077   1.228   5.994  0.3482  1.0303  0.1465
 2352SOL    HW1 9063   3.079   1.271   6.079  2.7624  0.6264  0.3438
 2352SOL    HW2 9064   3.169   1.218   5.969 -0.0785 -2.5925 -0.5947
 2353SOL     OW 9065   6.133  10.583   3.812 -0.1116  0.1775 -0.2117
 2353SOL    HW1 9066   6.204  10.569   3.874 -0.3496  1.7436  0.4750
 2353SOL    HW2 9067   6.158  10.532   3.735  1.4321  0.1653  0.2586
 2354SOL     OW 9068   4.844   7.745   4.936 -0.5773  0.7329  0.2065
 2354SOL    HW1 9069   4.866   7.789   4.854 -0.2368  4.1788  1.9518
 2354SOL    HW2 9070   4.858   7.812   5.004 -1.0718 -1.8379  3.0859
 2355SOL     OW 9071   8.033   6.035   4.423 -0.3602 -0.0615  0.2640
 2355SOL    HW1 9072   7.965   6.044   4.356 -0.7832 -0.4155  0.6413
 2355SOL    HW2 9073   8.023   5.946   4.456 -0.8893  0.4746  1.5849
 2356SOL     OW 9074   3.700   8.467   8.292  0.3838 -0.4963  0.1789
 2356SOL    HW1 9075   3.718   8.373   8.296 -2.8897 -1.2696 -0.3437
 2356SOL    HW2 9076   3.643   8.478   8.215  0.0034  1.7962  0.6990
 2357SOL     OW 9077   1.486   8.103   8.265 -0.3046 -0.1380  0.1860
 2357SOL    HW1 9078   1.434   8.178   8.294  0.6019  0.2926  0.7132
 2357SOL    HW2 9079   1.441   8.073   8.186 -1.2293  0.3598  0.5020
 2358SOL     OW 9080   4.272   0.378   3.779  0.2226  0.3519 -0.4562
 2358SOL    HW1 9081   4.303   0.374   3.870 -0.7770  1.6923 -0.0152
 2358SOL    HW2 9082   4.231   0.293   3.764  0.9974 -0.1359  0.1077
 2359SOL     OW 9083   4.639   7.694   7.617  0.3031 -0.0650  0.6149
 2359SOL    HW1 9084   4.690   7.774   7.602  1.1065 -0.6387  0.1669
 2359SOL    HW2 9085   4.676   7.657   7.697 -0.5137  0.3355  1.1936
 2360SOL     OW 9086   8.688   2.041   9.846  0.4460 -0.1874  0.1897
 2360SOL    HW1 9087   8.765   1.997   9.882  1.2133 -1.5009 -2.7556
 2360SOL    HW2 9088   8.723   2.118   9.802 -0.2941  0.7025  1.1208
 2361SOL     OW 9089   2.880   7.113   4.490  0.2461  0.1471 -0.2877
 2361SOL    HW1 9090   2.808   7.112   4.554 -0.6236 -3.0267 -1.1327
 2361SOL    HW2 9091   2.935   7.040   4.517  1.5553  0.6836 -1.4338
 2362SOL     OW 9092  10.512   6.279   2.646  0.0544  0.0892 -0.0526
 2362SOL    HW1 9093  10.602   6.302   2.670  0.7783 -0.1057 -2.3418
 2362SOL    HW2 9094  10.496   6.197   2.692  0.9229  0.2999  0.6602
 2363SOL     OW 9095  10.407   0.899   2.456 -0.5514 -0.4455  0.2019
 2363SOL    HW1 9096  10.370   0.981   2.489 -0.9716 -0.6852  0.3301
 2363SOL    HW2 9097  10.334   0.855   2.413 -0.5927 -1.2467  1.0701
 2364SOL     OW 9098   0.206   8.564   7.657  0.1408 -0.2985  0.4569
 2364SOL    HW1 9099   0.121   8.592   7.623 -0.2035  0.9076  2.1741
 2364SOL    HW2 9100   0.242   8.643   7.698  2.3814 -0.6180 -0.7201
 2365SOL     OW 9101   5.122   5.135   8.091 -0.2309  0.9910  0.3938
 2365SOL    HW1 9102   5.196   5.173   8.043  0.5464 -0.8828  0.0378
 2365SOL    HW2 9103   5.048   5.190   8.066  0.9547  2.7726  0.5703
 2366SOL     OW 9104   1.844  10.374   4.866 -0.9671 -0.3021  0.3671
 2366SOL    HW1 9105   1.756  10.412   4.865 -1.0680 -0.5184  0.8369
 2366SOL    HW2 9106   1.901  10.445   4.836 -1.2781 -0.0992  0.2551
 2367SOL     OW 9107   4.310   3.593   4.694  0.1984  0.3591  0.4751
 2367SOL    HW1 9108   4.264   3.654   4.752  0.0619  0.1213  0.6204
 2367SOL    HW2 9109   4.397   3.585   4.733  0.5919  1.3315 -0.1787
 2368SOL     OW 9110   3.944   2.572   3.380 -0.3245 -0.0328  0.9893
 2368SOL    HW1 9111   3.935   2.502   3.445  1.4093 -0.6268  0.6424
 2368SOL    HW2 9112   3.934   2.653   3.430  0.2389 -0.4918  1.8696
 2369SOL     OW 9113   1.974   4.203   7.203 -0.1168 -0.1942 -0.3919
 2369SOL    HW1 9114   1.933   4.129   7.248  2.5489 -0.6644  1.5090
 2369SOL    HW2 9115   2.044   4.163   7.150 -0.1373  0.7975 -1.1987
 2370SOL     OW 9116   5.663   5.784   7.945  0.0062 -0.4111 -0.0884
 2370SOL    HW1 9117   5.630   5.798   8.034  1.7739 -2.5364  1.0189
 2370SOL    HW2 9118   5.746   5.831   7.942  1.1843 -2.3425  0.3307
 2371SOL     OW 9119   2.545   0.564   0.348 -0.5901 -0.4233 -0.1806
 2371SOL    HW1 9120   2.621   0.619   0.369 -0.5174 -0.9563  1.0814
 2371SOL    HW2 9121   2.573   0.513   0.272  0.1438 -0.2830 -0.0142
 2372SOL     OW 9122  10.176   6.753   5.611 -0.0468 -0.1743  0.3486
 2372SOL    HW1 9123  10.185   6.791   5.698  1.2537 -1.1098  0.6435
 2372SOL    HW2 9124  10.266   6.737   5.582 -0.4883 -0.7443 -0.7764
 2373SOL     OW 9125   2.146   6.202   4.135  0.7209  0.1180 -0.6116
 2373SOL    HW1 9126   2.099   6.263   4.192 -1.1985  0.7337 -2.6852
 2373SOL    HW2 9127   2.228   6.247   4.115  0.3896  0.9299 -0.1927
 2374SOL     OW 9128   1.074   8.855   6.378 -0.1722  0.3720  0.3057
 2374SOL    HW1 9129   0.989   8.813   6.391 -0.2224  1.0137  2.5447
 2374SOL    HW2 9130   1.054   8.938   6.335 -0.3904 -0.4526 -1.2720
 2375SOL     OW 9131   3.387   5.870   6.080 -0.2310  0.0993 -0.1640
 2375SOL    HW1 9132   3.343   5.826   6.153  0.2489  0.1494  0.1586
 2375SOL    HW2 9133   3.480   5.850   6.092 -0.0585  0.7851 -0.2983
 2376SOL     OW 9134   5.443   1.665   4.735 -0.3986  0.2698  0.2342
 2376SOL    HW1 9135   5.513   1.599   4.730 -0.3575  0.1044  2.3750
 2376SOL    HW2 9136   5.485   1.746   4.704  0.6328  0.0684  1.0263
 2377SOL     OW 9137   6.114   4.626   9.224  0.4622 -0.0505 -0.2841
 2377SOL    HW1 9138   6.131   4.542   9.266 -1.4636 -1.1774 -1.5915
 2377SOL    HW2 9139   6.144   4.614   9.134  0.2706  0.7087 -0.4531
 2378SOL     OW 9140   5.371   5.884   0.624  0.2933  0.1923 -0.2286
 2378SOL    HW1 9141   5.306   5.954   0.618 -0.2233 -0.3092 -0.4965
 2378SOL    HW2 9142   5.443   5.914   0.567 -0.9755 -0.6049 -2.3551
 2379SOL     OW 9143   2.601   2.589   8.895  0.1843 -0.4269 -0.2074
 2379SOL    HW1 9144   2.661   2.545   8.835  0.4152  0.1356 -0.3956
 2379SOL    HW2 9145   2.526   2.613   8.841  0.8050  0.9427 -0.5223
 2380SOL     OW 9146   8.476   3.064   7.154  0.4945  0.0678  0.0269
 2380SOL    HW1 9147   8.500   3.089   7.064 -1.5617  1.6057 -0.1777
 2380SOL    HW2 9148   8.553   3.019   7.188  1.5544 -0.0305 -2.3041
 2381SOL     OW 9149   5.980   0.820   7.939  0.3317 -0.2471 -0.1887
 2381SOL    HW1 9150   5.915   0.811   8.009 -0.3328  1.6867 -0.4908
 2381SOL    HW2 9151   5.949   0.761   7.870 -0.4361 -0.2656  0.1651
 2382SOL     OW 9152   2.796   7.512   8.000 -0.1135 -0.0452 -0.4907
 2382SOL    HW1 9153   2.777   7.574   8.070  1.1388 -1.2055  0.9218
 2382SOL    HW2 9154   2.754   7.550   7.923 -1.9724  0.9998  0.9677
 2383SOL     OW 9155   6.128   4.022   4.643 -0.0346  0.0311  0.2648
 2383SOL    HW1 9156   6.101   4.103   4.601 -2.3085  0.9131  3.0590
 2383SOL    HW2 9157   6.050   3.967   4.643  0.2691 -0.4813  1.9518
 2384SOL     OW 9158   1.977   4.693   0.051 -0.8646 -0.0948  0.0739
 2384SOL    HW1 9159   1.959   4.600   0.067 -0.3253 -1.0427 -3.7404
 2384SOL    HW2 9160   1.891   4.734   0.049 -1.1302 -0.5235  1.5257
 2385SOL     OW 9161   4.629   9.587   0.455 -0.4019 -0.7210  0.7998
 2385SOL    HW1 9162   4.615   9.679   0.477  0.7227  0.0429 -1.3550
 2385SOL    HW2 9163   4.646   9.545   0.539 -1.8764  0.8165  1.9551
 2386SOL     OW 9164   9.041   1.855   1.502  0.0267  0.0323  0.3885
 2386SOL    HW1 9165   9.037   1.881   1.410 -1.6276 -0.0921  0.4091
 2386SOL    HW2 9166   9.133   1.867   1.526  0.3208  0.8292 -1.0552
 2387SOL     OW 9167   7.157   3.811   6.028  0.1242 -0.1124 -0.6513
 2387SOL    HW1 9168   7.232   3.841   5.976 -1.0039 -0.6989 -2.7649
 2387SOL    HW2 9169   7.173   3.717   6.040  1.3319  0.3322  1.8724
 2388SOL     OW 9170   8.829  10.356   1.366  0.4461  0.4349  0.1845
 2388SOL    HW1 9171   8.866  10.335   1.452  0.9719  1.7085  0.2939
 2388SOL    HW2 9172   8.887  10.423   1.331 -0.6377  1.0509 -0.4982
 2389SOL     OW 9173   9.660   4.093   7.327 -0.4258 -1.1324  0.2230
 2389SOL    HW1 9174   9.652   4.137   7.243 -2.1382 -0.4229  0.7032
 2389SOL    HW2 9175   9.572   4.059   7.345 -0.4285 -0.2581  2.2092
 2390SOL     OW 9176   4.462   7.114   6.860  0.7922 -0.3136 -0.0067
 2390SOL    HW1 9177   4.518   7.114   6.783 -0.9419  3.3434 -1.4936
 2390SOL    HW2 9178   4.520   7.091   6.932  3.7914  1.4185 -1.6899
 2391SOL     OW 9179   2.650   6.989   6.601  0.2709  0.2976 -0.1700
 2391SOL    HW1 9180   2.729   6.941   6.626 -0.6750 -0.9946  0.4344
 2391SOL    HW2 9181   2.599   6.996   6.681 -0.5209  0.5731 -0.6795
 2392SOL     OW 9182   2.429   6.411  10.469 -0.7541 -0.9525 -0.3528
 2392SOL    HW1 9183   2.483   6.368  10.403 -0.4640 -1.0587 -0.0517
 2392SOL    HW2 9184   2.339   6.391  10.443 -0.6920  0.0559 -1.4122
 2393SOL     OW 9185   9.510   8.714   3.391 -0.0373 -0.8132  0.0773
 2393SOL    HW1 9186   9.481   8.624   3.408  0.3616 -0.6007  2.1078
 2393SOL    HW2 9187   9.520   8.753   3.478  1.2143  0.7550 -0.7182
 2394SOL     OW 9188   9.138   7.999   4.945  0.2152  0.1258  0.5215
 2394SOL    HW1 9189   9.231   7.976   4.954  0.1921 -0.7706 -1.0824
 2394SOL    HW2 9190   9.137   8.066   4.877 -0.3737 -0.6170 -0.2268
 2395SOL     OW 9191   0.635   8.854  10.689 -0.0266  0.1501  0.1410
 2395SOL    HW1 9192   0.568   8.788  10.705 -0.0877 -0.0254 -0.7684
 2395SOL    HW2 9193   0.715   8.818  10.729  0.1655 -0.9336 -1.1658
 2396SOL     OW 9194   5.133  10.524   6.080  0.1929 -0.0707  0.4371
 2396SOL    HW1 9195   5.069  10.588   6.111 -0.7304 -0.2203 -1.0375
 2396SOL    HW2 9196   5.213  10.547   6.126 -0.3500  1.5592  0.6701
 2397SOL     OW 9197   9.475   5.017   4.565  0.0544 -0.4858  0.3849
 2397SOL    HW1 9198   9.443   4.946   4.621 -1.0068 -2.1269 -2.1541
 2397SOL    HW2 9199   9.399   5.043   4.514  1.4476 -0.5688 -1.8244
 2398SOL     OW 9200   4.574   6.630   0.450  0.8132  0.2904  0.2708
 2398SOL    HW1 9201   4.625   6.627   0.531 -0.7576  0.1474  1.2939
 2398SOL    HW2 9202   4.639   6.646   0.382  1.9503  2.8166  1.7993
 2399SOL     OW 9203   6.772  10.856   8.186 -0.2522  0.3269  0.5777
 2399SOL    HW1 9204   6.723  10.777   8.162 -0.5049  0.6117  0.1267
 2399SOL    HW2 9205   6.826  10.829   8.260  0.4544 -0.5558 -0.2336
 2400SOL     OW 9206   3.288   2.787   0.815 -0.0329  0.3128 -0.4005
 2400SOL    HW1 9207   3.316   2.825   0.732 -0.1045 -0.7592 -0.9339
 2400SOL    HW2 9208   3.217   2.843   0.845 -0.2048  0.5423 -1.2168
 2401SOL     OW 9209   7.376   5.754   3.094  0.1185 -0.2154  0.0535
 2401SOL    HW1 9210   7.344   5.844   3.099  0.1081 -0.2039 -0.2348
 2401SOL    HW2 9211   7.335   5.710   3.169 -0.3333 -0.1268 -0.1412
 2402SOL     OW 9212   9.258   7.331   1.844 -0.5650  0.1695 -0.6111
 2402SOL    HW1 9213   9.304   7.251   1.869 -0.7443  0.6144  1.2350
 2402SOL    HW2 9214   9.192   7.344   1.912 -1.8322  0.8755 -1.8949
 2403SOL     OW 9215   0.031   6.139   6.345  0.8236  0.0373 -0.2906
 2403SOL    HW1 9216   0.002   6.049   6.332  1.9573 -0.3446 -0.3041
 2403SOL    HW2 9217   0.027   6.151   6.440  2.2497 -0.6179 -0.1106
 2404SOL     OW 9218   9.886   2.508   4.410  0.0757  0.3110 -0.2164
 2404SOL    HW1 9219   9.791   2.518   4.411  0.0489  0.1695  1.4804
 2404SOL    HW2 9220   9.905   2.466   4.326 -1.3190  0.6626 -0.7290
 2405SOL     OW 9221   0.661  10.857  10.203  0.3400 -0.2715 -0.2067
 2405SOL    HW1 9222   0.629  10.768  10.216 -0.4167  0.0212 -0.0255
 2405SOL    HW2 9223   0.709  10.854  10.120 -0.3136 -0.6759 -0.5744
 2406SOL     OW 9224   9.903   8.901   3.452 -0.1508  0.1266  0.3079
 2406SOL    HW1 9225   9.869   8.815   3.475  0.9837 -0.1940  0.8628
 2406SOL    HW2 9226   9.993   8.885   3.426  0.0961  1.1580  0.4771
 2407SOL     OW 9227   8.911   1.388   6.594  0.9875  0.0570  0.3478
 2407SOL    HW1 9228   8.888   1.344   6.675 -0.6585  0.9325  0.3947
 2407SOL    HW2 9229   8.877   1.332   6.525 -0.3883  0.8057  0.3845
 2408SOL     OW 9230   6.835   8.857   5.866 -0.0026 -0.1443  0.0719
 2408SOL    HW1 9231   6.843   8.916   5.791  0.0972 -0.2164  0.0251
 2408SOL    HW2 9232   6.753   8.810   5.851 -0.2934  0.2772  0.3187
 2409SOL     OW 9233   9.624   2.087   2.449 -0.0739  0.0211 -0.5074
 2409SOL    HW1 9234   9.616   2.037   2.530 -0.4911 -0.6669 -0.9703
 2409SOL    HW2 9235   9.604   2.177   2.474  2.1901  0.2777  0.6652
 2410SOL     OW 9236   9.883   8.998   9.486  0.3631 -0.3915 -0.4196
 2410SOL    HW1 9237   9.928   8.962   9.410  0.5731  0.4153 -0.6914
 2410SOL    HW2 9238   9.947   9.055   9.527 -0.9956  2.5389 -2.0501
 2411SOL     OW 9239   9.612   6.820   1.369 -0.1469 -0.2149 -0.4789
 2411SOL    HW1 9240   9.544   6.837   1.304  0.9892 -1.9144 -2.2053
 2411SOL    HW2 9241   9.586   6.737   1.409  0.1183 -0.0916 -0.0449
 2412SOL     OW 9242   0.627   9.013   4.402 -0.2911 -0.0488  0.2907
 2412SOL    HW1 9243   0.558   8.947   4.402  0.8623 -1.3262 -1.5216
 2412SOL    HW2 9244   0.599   9.076   4.335  0.5495 -0.8976 -0.8938
 2413SOL     OW 9245   2.267   8.590   9.261 -0.2185  0.0978 -0.2084
 2413SOL    HW1 9246   2.223   8.512   9.293  3.0001 -0.4057  3.6898
 2413SOL    HW2 9247   2.331   8.557   9.198  0.1119 -0.2197  0.2910
 2414SOL     OW 9248   4.451   9.313  10.963 -0.1354  0.1012 -0.4177
 2414SOL    HW1 9249   4.515   9.356  11.020  0.9552 -1.3324 -0.4860
 2414SOL    HW2 9250   4.409   9.247  11.018  1.5954 -1.9478 -1.3998
 2415SOL     OW 9251   6.430  10.234   9.112 -0.3857  0.0049  0.0691
 2415SOL    HW1 9252   6.382  10.303   9.068 -0.9428  0.0938  0.7932
 2415SOL    HW2 9253   6.395  10.233   9.201  1.0506  0.1665  0.6729
 2416SOL     OW 9254   4.293  10.205   1.247 -0.2676  0.1887  0.7631
 2416SOL    HW1 9255   4.200  10.228   1.254  0.7005  4.4512  2.6688
 2416SOL    HW2 9256   4.327  10.265   1.181  0.9609 -2.6411 -1.3957
 2417SOL     OW 9257   1.978   8.869   3.795 -0.7145 -0.1157 -0.4160
 2417SOL    HW1 9258   2.038   8.794   3.798  2.6114  2.2364 -2.1852
 2417SOL    HW2 9259   1.961   8.890   3.886  0.1303 -1.6005  0.1209
 2418SOL     OW 9260   9.850   5.138   7.220 -0.5899  0.2436 -0.6350
 2418SOL    HW1 9261   9.884   5.187   7.145 -0.2558  2.5000  0.9169
 2418SOL    HW2 9262   9.790   5.198   7.263 -1.2021 -1.2045  0.6362
 2419SOL     OW 9263   9.912   6.093   7.233 -0.1499  0.6360 -0.3666
 2419SOL    HW1 9264   9.912   6.008   7.188 -0.5416  0.0300  0.7361
 2419SOL    HW2 9265  10.000   6.127   7.219  0.4206 -0.5381  0.2110
 2420SOL     OW 9266   5.252   1.760   9.718  0.3073  0.1681 -0.6911
 2420SOL    HW1 9267   5.192   1.803   9.780  0.1712  1.2163 -1.5138
 2420SOL    HW2 9268   5.336   1.804   9.732  0.7894 -0.9802  0.1339
 2421SOL     OW 9269   7.044   5.564   2.485  0.4042  0.5774  0.0060
 2421SOL    HW1 9270   6.964   5.515   2.504 -0.8963  1.8565 -1.8191
 2421SOL    HW2 9271   7.024   5.612   2.404  3.8046 -0.8114 -1.8781
 2422SOL     OW 9272  10.078   7.511   9.478  0.2444 -0.3719 -0.5644
 2422SOL    HW1 9273  10.029   7.537   9.556 -0.3950 -0.0079 -1.0753
 2422SOL    HW2 9274  10.061   7.417   9.469 -1.5120 -0.0112 -1.5038
 2423SOL     OW 9275   1.149   8.145   5.479  0.0501 -0.2927 -0.1483
 2423SOL    HW1 9276   1.175   8.128   5.570  2.1473 -1.4654 -0.9059
 2423SOL    HW2 9277   1.115   8.235   5.481  0.5442 -0.0960  1.6907
 2424SOL     OW 9278   6.552   1.451   0.133  1.0160 -0.4228 -0.5883
 2424SOL    HW1 9279   6.628   1.408   0.095  1.0805  0.3974 -1.4329
 2424SOL    HW2 9280   6.560   1.543   0.105  0.2842 -0.1029  0.1957
 2425SOL     OW 9281   6.386   1.022   8.882 -0.2605 -0.5402  0.1183
 2425SOL    HW1 9282   6.346   0.936   8.870  0.6230 -0.8662 -0.6649
 2425SOL    HW2 9283   6.313   1.080   8.904 -0.7690 -1.6242  1.4487
 2426SOL     OW 9284   1.364   8.785   6.235 -0.8967  0.7332 -0.1172
 2426SOL    HW1 9285   1.331   8.742   6.313 -0.0563  0.5176  0.1318
 2426SOL    HW2 9286   1.447   8.740   6.216  0.4166  2.7124  0.5978
 2427SOL     OW 9287   9.070   8.981   6.778  0.1922  0.1931 -0.1966
 2427SOL    HW1 9288   9.034   9.032   6.850  0.1698 -0.1822  0.0626
 2427SOL    HW2 9289   9.156   8.953   6.810 -0.1048 -0.5519 -0.0444
 2428SOL     OW 9290  10.553   7.650   3.552 -0.0914 -0.2381 -0.1812
 2428SOL    HW1 9291  10.581   7.695   3.632 -0.8624 -1.8659  1.0695
 2428SOL    HW2 9292  10.619   7.673   3.487  0.1186  1.7976  0.6721
 2429SOL     OW 9293  10.388   8.760   8.701 -0.1654 -0.2039  0.0626
 2429SOL    HW1 9294  10.357   8.779   8.613 -2.7177 -0.3110  0.8636
 2429SOL    HW2 9295  10.371   8.667   8.713 -0.4165 -0.0625  0.8743
 2430SOL     OW 9296   1.615   1.279   4.189  0.3579  0.4693 -0.3771
 2430SOL    HW1 9297   1.645   1.240   4.106 -0.9915 -1.1060 -0.1795
 2430SOL    HW2 9298   1.520   1.272   4.185  0.2926 -0.7991  1.8090
 2431SOL     OW 9299   1.498   6.550   0.088 -0.2624  0.2836 -0.6299
 2431SOL    HW1 9300   1.546   6.627   0.054  1.0034 -0.7519 -1.2796
 2431SOL    HW2 9301   1.465   6.506   0.010  2.8823 -2.2677 -0.7332
 2432SOL     OW 9302   4.239   2.125   6.363  0.3005 -0.6892  0.3386
 2432SOL    HW1 9303   4.274   2.197   6.416 -2.8777  0.1108  1.5975
 2432SOL    HW2 9304   4.210   2.167   6.282 -0.3089 -0.7910  0.5001
 2433SOL     OW 9305   8.465   5.609   9.747  0.1142  0.2666  0.0601
 2433SOL    HW1 9306   8.385   5.580   9.703  0.1872 -2.1222  1.3671
 2433SOL    HW2 9307   8.434   5.653   9.826  0.0704  2.4467 -1.0701
 2434SOL     OW 9308   2.385   4.129   7.546 -0.6684  0.3694  0.6334
 2434SOL    HW1 9309   2.312   4.182   7.515 -0.1292  0.8806  0.1967
 2434SOL    HW2 9310   2.457   4.191   7.557 -0.3067 -0.1152  1.0819
 2435SOL     OW 9311   6.138   8.798   5.481  0.3399  0.2850 -0.1041
 2435SOL    HW1 9312   6.175   8.878   5.519 -0.1232  0.5197 -0.1465
 2435SOL    HW2 9313   6.044   8.813   5.479  0.3408  0.2596 -1.2852
 2436SOL     OW 9314   1.654   0.639  10.187  0.1319  0.5664  1.0275
 2436SOL    HW1 9315   1.676   0.614  10.097  0.2431 -0.0602  1.2180
 2436SOL    HW2 9316   1.590   0.709  10.178 -0.5935 -0.1490  0.4522
 2437SOL     OW 9317   5.626   2.939   3.196  0.3870  0.0312 -0.0161
 2437SOL    HW1 9318   5.574   3.002   3.147 -0.2252  0.9730  1.7653
 2437SOL    HW2 9319   5.574   2.921   3.275  1.5598 -1.0239  0.5530
 2438SOL     OW 9320   3.883   8.457   4.816 -0.2463 -0.2591 -0.0225
 2438SOL    HW1 9321   3.942   8.477   4.889 -0.5129  0.1973  0.0683
 2438SOL    HW2 9322   3.930   8.486   4.738 -0.6212  0.7417  0.1044
 2439SOL     OW 9323   9.907   6.550  10.902  0.0042 -0.2070  0.0196
 2439SOL    HW1 9324   9.990   6.523  10.864 -1.1408 -1.9066 -1.4441
 2439SOL    HW2 9325   9.914   6.523  10.994  0.2388 -2.5703 -0.6108
 2440SOL     OW 9326   3.007   5.341   3.084  0.2983  0.1489  0.4382
 2440SOL    HW1 9327   2.976   5.289   3.158 -1.9417 -0.1319 -0.6028
 2440SOL    HW2 9328   3.024   5.428   3.122 -0.6340 -0.0371  1.3313
 2441SOL     OW 9329   8.183   2.528   9.110  0.0645 -0.3151  0.2843
 2441SOL    HW1 9330   8.094   2.523   9.147  0.0866 -0.5446  0.3069
 2441SOL    HW2 9331   8.229   2.454   9.150  0.2133 -0.3047  0.1302
 2442SOL     OW 9332  10.955   2.970   7.291 -0.1994  0.0963  0.7207
 2442SOL    HW1 9333  10.863   2.995   7.279 -0.1749 -0.7310 -1.5955
 2442SOL    HW2 9334  10.995   2.981   7.205  2.3351  1.9792  2.0113
 2443SOL     OW 9335   2.398   9.395   1.807 -0.5887 -0.0395  0.0554
 2443SOL    HW1 9336   2.336   9.450   1.759  0.8935  0.3446 -1.5210
 2443SOL    HW2 9337   2.445   9.456   1.864 -0.8529 -0.1626  0.4178
 2444SOL     OW 9338   1.827   2.372   6.017  0.4271 -0.3520  0.6445
 2444SOL    HW1 9339   1.903   2.362   5.959 -0.6303 -1.9368 -0.5376
 2444SOL    HW2 9340   1.783   2.451   5.986  1.4962  0.5201  1.2734
 2445SOL     OW 9341   5.884   8.316   5.973  0.3098  0.8042 -0.0022
 2445SOL    HW1 9342   5.809   8.309   5.914 -0.7186 -0.6994  1.3928
 2445SOL    HW2 9343   5.893   8.410   5.989 -0.0938  1.1459 -1.6367
 2446SOL     OW 9344   5.290   2.267  10.087 -1.0509  0.6059 -0.5714
 2446SOL    HW1 9345   5.324   2.324  10.156 -0.7431 -1.5852  1.1968
 2446SOL    HW2 9346   5.367   2.230  10.045 -1.1932 -0.8291  0.3671
 2447SOL     OW 9347   3.357   0.345   2.002 -0.1700 -0.3831 -0.5527
 2447SOL    HW1 9348   3.363   0.257   1.964 -0.0505 -0.5304 -0.1993
 2447SOL    HW2 9349   3.266   0.371   1.989 -0.3237 -0.7540 -0.2336
 2448SOL     OW 9350   5.549   9.570   4.183 -0.4341 -0.3323 -0.9068
 2448SOL    HW1 9351   5.536   9.641   4.246 -1.6107 -1.3982  0.1124
 2448SOL    HW2 9352   5.467   9.567   4.134 -1.6477 -2.7916  1.0287
 2449SOL     OW 9353   3.461   7.103   2.264  0.2400 -0.5012 -0.4020
 2449SOL    HW1 9354   3.539   7.159   2.264 -0.7298  0.9182  0.2708
 2449SOL    HW2 9355   3.453   7.074   2.173  0.9469  0.2259 -0.7139
 2450SOL     OW 9356   3.147   4.603   7.550  0.1845 -0.1895 -0.0104
 2450SOL    HW1 9357   3.152   4.641   7.638 -0.8765 -1.3166  0.5676
 2450SOL    HW2 9358   3.069   4.548   7.553  0.3404 -0.5185 -1.5617
 2451SOL     OW 9359   8.686   9.590   5.685  0.0670  0.0559 -0.2959
 2451SOL    HW1 9360   8.637   9.589   5.768 -0.3211  0.0481 -0.5232
 2451SOL    HW2 9361   8.741   9.668   5.691  1.0120 -0.6587  0.5242
 2452SOL     OW 9362   6.766   8.335  10.388  0.1887  0.5572  0.2361
 2452SOL    HW1 9363   6.805   8.249  10.402  0.1859  0.6028  0.5223
 2452SOL    HW2 9364   6.705   8.322  10.316  1.1621  0.6089 -0.6213
 2453SOL     OW 9365   3.309   1.264  10.757  0.5472  0.1694 -0.2444
 2453SOL    HW1 9366   3.266   1.243  10.674  2.0895 -2.8831 -0.4303
 2453SOL    HW2 9367   3.262   1.212  10.822  0.2084  1.4881  0.5950
 2454SOL     OW 9368   5.903   3.195   9.765  0.0257 -0.1827  0.1642
 2454SOL    HW1 9369   5.872   3.154   9.845 -0.4544  0.8102  0.5090
 2454SOL    HW2 9370   5.831   3.183   9.702  0.3897 -0.9345 -0.1133
 2455SOL     OW 9371   5.085   0.886   2.884 -0.2249  0.2194  0.1734
 2455SOL    HW1 9372   5.131   0.962   2.919  0.0105 -0.3393  1.0934
 2455SOL    HW2 9373   5.151   0.817   2.882 -0.2987  0.1649 -1.1496
 2456SOL     OW 9374  10.182   1.428   5.504 -0.1517 -0.0621  0.2374
 2456SOL    HW1 9375  10.179   1.356   5.440 -0.5828  0.5872 -0.4947
 2456SOL    HW2 9376  10.125   1.399   5.576 -0.0018 -0.6221  0.1320
 2457SOL     OW 9377   9.036   4.012  10.454 -0.3279 -0.4172  0.2364
 2457SOL    HW1 9378   9.085   4.005  10.372  0.6046 -0.1442  0.7522
 2457SOL    HW2 9379   9.104   4.019  10.522 -1.0604  1.5438  0.8392
 2458SOL     OW 9380   2.529   9.630   3.117 -0.4737 -0.2597  0.2957
 2458SOL    HW1 9381   2.437   9.654   3.122 -0.8324 -1.1945 -1.1188
 2458SOL    HW2 9382   2.546   9.621   3.023  0.8981 -0.6927  0.5688
 2459SOL     OW 9383   5.906   1.176   6.337 -0.5246  0.0449 -0.3087
 2459SOL    HW1 9384   5.925   1.139   6.423  1.8597 -0.3704 -0.9403
 2459SOL    HW2 9385   5.854   1.108   6.293  1.0959 -1.2197 -0.3326
 2460SOL     OW 9386   3.384   6.906   3.534 -0.2767  0.5367 -0.3682
 2460SOL    HW1 9387   3.328   6.865   3.467 -0.4733  2.0225 -1.1652
 2460SOL    HW2 9388   3.470   6.911   3.493 -0.0756  0.2288  0.0186
 2461SOL     OW 9389   5.915   8.439  10.972 -0.2919  0.1091 -0.5711
 2461SOL    HW1 9390   5.928   8.345  10.982  1.5447  0.2959 -0.8989
 2461SOL    HW2 9391   5.820   8.452  10.984 -0.5057 -1.7020 -0.0824
 2462SOL     OW 9392   6.971   6.525   1.572 -0.6636  0.5276 -0.1562
 2462SOL    HW1 9393   6.904   6.591   1.554  0.2019  2.2874  2.4466
 2462SOL    HW2 9394   7.045   6.549   1.517 -0.1782  2.1233  1.1155
 2463SOL     OW 9395   1.542   8.583   6.230 -0.1432  0.7403  0.1396
 2463SOL    HW1 9396   1.588   8.506   6.262 -1.6964 -0.0198  0.6318
 2463SOL    HW2 9397   1.589   8.607   6.150  1.1706  0.0998  0.6940
 2464SOL     OW 9398  10.403   1.172   8.557  0.3161  0.2430 -0.3711
 2464SOL    HW1 9399  10.406   1.082   8.524 -3.9373 -0.9699  1.7250
 2464SOL    HW2 9400  10.445   1.168   8.642 -1.2046 -0.2713  0.4014
 2465SOL     OW 9401   0.604   0.931   7.655  0.2144 -0.0696 -0.3082
 2465SOL    HW1 9402   0.550   0.852   7.647 -3.1917  1.7425  2.1743
 2465SOL    HW2 9403   0.596   0.975   7.570  0.3780 -1.3089 -0.9803
 2466SOL     OW 9404   4.907   4.216   3.534 -0.3781 -0.2633  0.2859
 2466SOL    HW1 9405   4.943   4.137   3.573  0.1063 -0.6601 -0.9125
 2466SOL    HW2 9406   4.866   4.186   3.453  2.6987  1.0508 -1.9688
 2467SOL     OW 9407   6.358   6.071   0.641  0.0481  0.1873 -0.4594
 2467SOL    HW1 9408   6.451   6.056   0.624  0.3065  2.1884 -1.0779
 2467SOL    HW2 9409   6.356   6.116   0.725 -0.5540 -1.6081  0.5380
 2468SOL     OW 9410   2.709   0.366   5.597 -0.4985 -0.5985  0.2620
 2468SOL    HW1 9411   2.683   0.276   5.617 -0.3073 -0.1276  2.9393
 2468SOL    HW2 9412   2.634   0.419   5.624 -0.1157  0.1438 -0.1127
 2469SOL     OW 9413   1.520   3.002   8.669  0.0397 -0.1382 -0.2668
 2469SOL    HW1 9414   1.460   3.070   8.700 -0.6414 -0.3753 -1.0437
 2469SOL    HW2 9415   1.541   3.028   8.579 -1.2938 -1.6367 -1.0514
 2470SOL     OW 9416  10.766   2.532  10.082  0.3308  0.3702 -0.1153
 2470SOL    HW1 9417  10.837   2.592  10.104  1.2489 -0.0993 -1.6292
 2470SOL    HW2 9418  10.808   2.463  10.030 -0.9738 -0.7582  0.2670
 2471SOL     OW 9419   3.883   6.747   8.888  0.0174  0.7572  0.5564
 2471SOL    HW1 9420   3.878   6.819   8.825 -2.5119  1.5688  1.5244
 2471SOL    HW2 9421   3.904   6.670   8.835  0.3512  1.8084 -0.8972
 2472SOL     OW 9422   9.490   6.625   9.379 -0.2944 -0.2579  0.4149
 2472SOL    HW1 9423   9.440   6.613   9.298 -0.9546 -1.9806  1.0308
 2472SOL    HW2 9424   9.554   6.554   9.378 -0.3747 -0.3519  1.4552
 2473SOL     OW 9425   0.808   4.150   1.836 -0.3941  0.4758 -0.0739
 2473SOL    HW1 9426   0.724   4.110   1.858 -1.4128  0.4102 -3.5920
 2473SOL    HW2 9427   0.799   4.241   1.864 -0.9404  0.0753  1.1204
 2474SOL     OW 9428   6.095   6.879   8.299  0.2149  0.0282 -0.2031
 2474SOL    HW1 9429   6.061   6.809   8.354 -0.9432  0.6929 -0.0364
 2474SOL    HW2 9430   6.023   6.900   8.239  0.0873  1.8424  0.5117
 2475SOL     OW 9431   8.822   8.286   7.349  0.0514  0.1634  0.0814
 2475SOL    HW1 9432   8.751   8.255   7.405 -0.0561  0.6656  0.2374
 2475SOL    HW2 9433   8.782   8.293   7.262  0.3027 -0.9095 -0.1296
 2476SOL     OW 9434   1.355   1.474   8.361  0.3227  0.6761 -0.2716
 2476SOL    HW1 9435   1.401   1.390   8.359  0.1202  0.5383  0.6286
 2476SOL    HW2 9436   1.323   1.486   8.272 -0.9431 -0.9158 -0.0604
 2477SOL     OW 9437  10.522   7.138   1.628  0.5446  0.1457  0.3557
 2477SOL    HW1 9438  10.474   7.220   1.620  0.0215 -0.1052  0.9023
 2477SOL    HW2 9439  10.554   7.136   1.718  2.7523  0.9355 -0.3377
 2478SOL     OW 9440   2.727   1.701   4.762  0.2493 -0.0786  0.3106
 2478SOL    HW1 9441   2.798   1.663   4.710  0.5307  0.8119  0.0214
 2478SOL    HW2 9442   2.747   1.795   4.764  0.8328 -0.1754  2.8789
 2479SOL     OW 9443   6.624   3.725   1.811 -0.3896  0.4314 -0.0752
 2479SOL    HW1 9444   6.530   3.743   1.812 -0.4408  0.3904 -1.9157
 2479SOL    HW2 9445   6.635   3.657   1.745  0.4734 -2.6124  2.8891
 2480SOL     OW 9446   8.111   2.947   6.930  0.0579  0.1221 -0.0384
 2480SOL    HW1 9447   8.047   3.018   6.941  1.0024  0.9941 -0.0598
 2480SOL    HW2 9448   8.169   2.955   7.005  0.4699 -0.3320 -0.3045
 2481SOL     OW 9449   2.624   0.545  10.214 -0.3323 -0.1543 -0.0245
 2481SOL    HW1 9450   2.605   0.630  10.174 -1.1708 -1.1664 -1.9085
 2481SOL    HW2 9451   2.714   0.525  10.188  0.3155  0.6777  1.4711
 2482SOL     OW 9452  10.397   3.491   2.509 -0.4060  0.4021  0.7600
 2482SOL    HW1 9453  10.310   3.478   2.546 -0.4914  1.7721  1.0824
 2482SOL    HW2 9454  10.401   3.584   2.487  1.0780  0.4225  1.0049
 2483SOL     OW 9455   9.926   5.124   0.460 -0.4230  0.2350 -0.1434
 2483SOL    HW1 9456   9.941   5.107   0.553  0.9517  0.8367 -0.2319
 2483SOL    HW2 9457   9.975   5.204   0.443  1.7129 -1.3588 -2.0031
 2484SOL     OW 9458   1.529   6.206  10.599 -0.4040 -0.3302 -0.0515
 2484SOL    HW1 9459   1.519   6.193  10.694  1.4497 -1.0193  0.0981
 2484SOL    HW2 9460   1.554   6.298  10.590 -3.3638  0.5660 -0.1842
 2485SOL     OW 9461   8.581   3.194  10.382  0.1044 -0.4539  0.3283
 2485SOL    HW1 9462   8.499   3.238  10.402 -0.1078 -1.1490  1.0660
 2485SOL    HW2 9463   8.634   3.202  10.462  0.6875 -0.1625 -0.0786
 2486SOL     OW 9464   0.753   5.503   9.521  0.2182  0.4033 -0.6945
 2486SOL    HW1 9465   0.660   5.486   9.535  0.0048  1.3148 -0.9331
 2486SOL    HW2 9466   0.783   5.540   9.604  0.2244  0.6433 -0.8003
 2487SOL     OW 9467   0.826   4.881   6.897  0.2467  0.3236 -0.1220
 2487SOL    HW1 9468   0.874   4.937   6.836 -1.2874  1.0751 -0.7160
 2487SOL    HW2 9469   0.780   4.943   6.955 -0.9419 -0.3028 -0.3572
 2488SOL     OW 9470  10.500   3.446   5.917  0.3380 -0.1458  0.0078
 2488SOL    HW1 9471  10.411   3.444   5.882  0.3130  2.2399 -0.2001
 2488SOL    HW2 9472  10.490   3.476   6.007  0.8926 -0.6261  0.2372
 2489SOL     OW 9473   5.176   3.293   1.289 -0.3256 -1.0712 -0.1499
 2489SOL    HW1 9474   5.169   3.388   1.297 -1.2309 -0.8471 -2.6182
 2489SOL    HW2 9475   5.269   3.274   1.304  0.4243  0.6000 -2.1534
 2490SOL     OW 9476   5.913   9.793   6.227 -0.6605 -0.1857  0.1061
 2490SOL    HW1 9477   5.932   9.840   6.308 -0.8978  0.1230 -0.0156
 2490SOL    HW2 9478   5.979   9.825   6.165 -1.1917  0.4484 -0.1494
 2491SOL     OW 9479   8.387   1.623   9.520  0.1124  0.3013  0.3223
 2491SOL    HW1 9480   8.387   1.672   9.602 -0.7946  0.4753  0.2277
 2491SOL    HW2 9481   8.440   1.676   9.460 -2.3242  2.1828 -0.3355
 2492SOL     OW 9482   8.366   1.110   0.873 -0.2052 -0.2833  0.2761
 2492SOL    HW1 9483   8.282   1.080   0.838  0.0919 -1.4419  0.5381
 2492SOL    HW2 9484   8.341   1.160   0.951 -0.6103 -1.7822  1.1556
 2493SOL     OW 9485   1.700   2.920   8.860  0.2609 -0.0757 -0.4039
 2493SOL    HW1 9486   1.615   2.929   8.818 -1.1250  1.8175  2.4638
 2493SOL    HW2 9487   1.745   3.003   8.841 -0.8707  1.3409  2.5721
 2494SOL     OW 9488   8.442   6.964   4.332  0.0669 -0.4469 -0.2562
 2494SOL    HW1 9489   8.358   6.920   4.328 -0.5119  0.6676 -0.9425
 2494SOL    HW2 9490   8.424   7.054   4.303  1.7743 -0.6208 -2.1607
 2495SOL     OW 9491   0.312   8.783   4.882 -0.1940 -0.6654  0.4135
 2495SOL    HW1 9492   0.289   8.867   4.843 -0.6846 -0.7217  0.5783
 2495SOL    HW2 9493   0.346   8.804   4.969  1.8151 -0.4552 -0.3748
 2496SOL     OW 9494   5.280   0.831   7.965 -0.0059 -0.6431  0.1164
 2496SOL    HW1 9495   5.256   0.863   8.053  0.7370 -0.4600  0.2592
 2496SOL    HW2 9496   5.234   0.748   7.957 -1.9655  0.3899 -0.2391
 2497SOL     OW 9497   2.391  10.005   2.621  0.4048 -0.0847 -0.0071
 2497SOL    HW1 9498   2.385  10.095   2.653 -0.9716 -0.4596  0.8909
 2497SOL    HW2 9499   2.356  10.009   2.532 -0.1892  0.1870  0.2314
 2498SOL     OW 9500  10.514   3.330   0.319  0.0452  0.5457 -0.3762
 2498SOL    HW1 9501  10.558   3.251   0.351  1.5925  0.7856 -1.8143
 2498SOL    HW2 9502  10.438   3.297   0.271 -1.6093  0.1396  2.3437
 2499SOL     OW 9503   0.676   1.400   6.257 -0.1069 -0.0105 -0.0815
 2499SOL    HW1 9504   0.673   1.373   6.349  0.8233 -0.9299 -0.3033
 2499SOL    HW2 9505   0.586   1.426   6.237 -0.4492 -0.3616  0.9220
 2500SOL     OW 9506   1.225   4.096   6.775 -0.3883 -0.0873  0.4842
 2500SOL    HW1 9507   1.158   4.086   6.842 -1.4831 -0.7894 -0.6660
 2500SOL    HW2 9508   1.307   4.102   6.824 -1.0566 -1.4216  1.8552
 2501SOL     OW 9509   4.814  10.721   9.049  0.2429 -0.3927 -0.0016
 2501SOL    HW1 9510   4.786  10.812   9.037 -1.1656 -0.6240  1.2375
 2501SOL    HW2 9511   4.829  10.713   9.144 -0.5311 -1.6694  0.0386
 2502SOL     OW 9512   9.509   2.286   4.623  0.6229  0.2834 -0.4751
 2502SOL    HW1 9513   9.571   2.261   4.692  1.7883  2.8589 -0.4823
 2502SOL    HW2 9514   9.489   2.378   4.641 -0.1436  0.6246 -2.7646
 2503SOL     OW 9515   3.644   1.087   5.998 -0.1163  0.7387 -0.4466
 2503SOL    HW1 9516   3.586   1.012   6.009  1.3824 -0.6391 -1.5107
 2503SOL    HW2 9517   3.709   1.078   6.067  2.2581 -1.1591 -2.7290
 2504SOL     OW 9518   5.994   2.584   9.597 -0.0439  0.1313  0.1612
 2504SOL    HW1 9519   6.016   2.494   9.621  1.6896  0.1143 -1.3316
 2504SOL    HW2 9520   5.910   2.600   9.641  1.3411 -0.9208  3.5736
 2505SOL     OW 9521   0.887   7.608   9.016  0.5009  0.1739  0.3581
 2505SOL    HW1 9522   0.840   7.686   8.986  0.2210 -0.3344 -0.5755
 2505SOL    HW2 9523   0.860   7.598   9.107 -3.2898 -1.5055 -0.7252
 2506SOL     OW 9524  10.170   7.459   1.434 -0.1708  0.1691  0.4236
 2506SOL    HW1 9525  10.095   7.401   1.422 -0.9413  0.8069  1.8433
 2506SOL    HW2 9526  10.132   7.547   1.436  1.0022  0.8047 -1.9528
 2507SOL     OW 9527   1.844   4.082   4.228  0.2430 -0.3031 -0.3980
 2507SOL    HW1 9528   1.897   4.127   4.162  0.1163 -1.4285 -1.2934
 2507SOL    HW2 9529   1.896   4.088   4.308 -0.1530  2.1615 -0.2497
 2508SOL     OW 9530   0.984   7.213   1.884  0.0001  0.0612 -0.4109
 2508SOL    HW1 9531   1.051   7.180   1.823  0.5011 -0.5636  0.4433
 2508SOL    HW2 9532   0.903   7.173   1.855  0.2558 -0.3098 -0.6238
 2509SOL     OW 9533   6.534   6.037   9.179  0.3420 -0.0647 -0.6869
 2509SOL    HW1 9534   6.565   5.951   9.150  1.7049  0.3521 -0.5645
 2509SOL    HW2 9535   6.603   6.098   9.152 -0.3357  0.9196 -0.2770
 2510SOL     OW 9536   4.408   1.567   7.185  0.1081 -0.3710  0.0338
 2510SOL    HW1 9537   4.341   1.558   7.117 -0.7976 -0.2748  0.9018
 2510SOL    HW2 9538   4.487   1.531   7.145 -0.5787 -0.9615 -0.8259
 2511SOL     OW 9539   4.646   8.992   9.762  0.2661  0.0268  0.1586
 2511SOL    HW1 9540   4.594   9.025   9.690  0.1914  0.6709  0.4937
 2511SOL    HW2 9541   4.737   9.009   9.736  0.3176 -0.9830 -0.3712
 2512SOL     OW 9542   2.891   3.346   9.013  0.1944 -0.2894  0.0129
 2512SOL    HW1 9543   2.841   3.365   8.934 -0.5157 -1.2669  0.2096
 2512SOL    HW2 9544   2.959   3.413   9.015  0.8334 -0.8113 -1.9457
 2513SOL     OW 9545   9.126   7.567   8.158 -0.0115 -0.2160  0.0522
 2513SOL    HW1 9546   9.205   7.588   8.107 -0.5868  0.9304 -0.4189
 2513SOL    HW2 9547   9.054   7.582   8.097 -0.5951 -1.8613  0.2813
 2514SOL     OW 9548   5.836   2.712   7.430  0.3083  0.0855  0.5703
 2514SOL    HW1 9549   5.785   2.777   7.382  1.9995  0.1007 -1.3823
 2514SOL    HW2 9550   5.772   2.664   7.482 -1.5006  0.8913 -0.8018
 2515SOL     OW 9551   0.704   3.166   4.953 -0.2087 -0.2101  0.2001
 2515SOL    HW1 9552   0.638   3.226   4.986 -1.0326 -0.0550 -1.6402
 2515SOL    HW2 9553   0.743   3.211   4.878 -1.2330 -2.1326 -1.5804
 2516SOL     OW 9554   7.881   0.743  10.121 -0.1709 -0.1395 -0.0480
 2516SOL    HW1 9555   7.946   0.674  10.111  1.0253  0.4688  2.6088
 2516SOL    HW2 9556   7.921   0.821  10.084 -0.2376 -0.2080 -0.2633
 2517SOL     OW 9557  10.925   6.471  10.637 -0.6188  0.0775 -0.3940
 2517SOL    HW1 9558  10.878   6.554  10.631 -1.0291 -0.0527  0.7854
 2517SOL    HW2 9559  10.865   6.412  10.682  0.1598 -0.4829 -0.0557
 2518SOL     OW 9560   4.618   1.652   0.987 -0.1344 -0.0544  0.5171
 2518SOL    HW1 9561   4.537   1.605   1.006 -0.2647  0.2727  0.7849
 2518SOL    HW2 9562   4.637   1.632   0.896 -1.6525  1.5200 -0.2146
 2519SOL     OW 9563   9.518   8.763   3.655 -0.2880 -0.1938 -0.9514
 2519SOL    HW1 9564   9.439   8.814   3.638  1.2226  2.2099 -1.3932
 2519SOL    HW2 9565   9.568   8.816   3.717 -0.2608 -3.0568  1.7194
 2520SOL     OW 9566   2.681   0.124   4.287 -0.0654 -0.5067  0.0671
 2520SOL    HW1 9567   2.709   0.198   4.233  2.7569 -1.0218  0.6395
 2520SOL    HW2 9568   2.682   0.158   4.376  0.8705 -1.0794  0.2945
 2521SOL     OW 9569   1.558   3.433   9.662 -0.6054  0.0466 -0.2283
 2521SOL    HW1 9570   1.635   3.387   9.694  0.0238 -0.4176 -2.2467
 2521SOL    HW2 9571   1.484   3.377   9.686 -0.3917  0.5743  1.8585
 2522SOL     OW 9572   0.877   6.206   5.840 -0.4907  0.2277  0.0726
 2522SOL    HW1 9573   0.935   6.136   5.870 -1.3899  0.2012  1.8457
 2522SOL    HW2 9574   0.827   6.167   5.769  0.8813 -0.0650 -0.7882
 2523SOL     OW 9575   5.270   9.827   1.020 -0.0679 -0.2500  0.1037
 2523SOL    HW1 9576   5.210   9.850   0.949 -0.0284 -1.6663 -0.4256
 2523SOL    HW2 9577   5.357   9.836   0.981  0.0824  1.3573  0.7352
 2524SOL     OW 9578   7.621   2.305   1.346  0.8377 -0.3515  0.0253
 2524SOL    HW1 9579   7.580   2.369   1.404  0.1418 -0.4083 -0.3958
 2524SOL    HW2 9580   7.684   2.259   1.402  0.8165  0.1912  0.5099
 2525SOL     OW 9581   2.195   6.886   6.935 -0.3770 -0.1643  0.1099
 2525SOL    HW1 9582   2.180   6.962   6.878  0.3055 -0.5619 -0.6175
 2525SOL    HW2 9583   2.153   6.910   7.017 -1.2500  0.4911 -0.5016
 2526SOL     OW 9584   1.360   8.684  10.224  0.2076 -0.1580 -0.0696
 2526SOL    HW1 9585   1.443   8.687  10.177  1.2045  0.8775  1.6646
 2526SOL    HW2 9586   1.334   8.775  10.233  1.0893 -0.1161  3.0432
 2527SOL     OW 9587   0.992   9.313   8.142  0.5341 -0.0514  0.4341
 2527SOL    HW1 9588   0.968   9.290   8.052  0.2386 -0.2386  0.5603
 2527SOL    HW2 9589   1.059   9.381   8.132  0.2573  0.1722  0.0755
 2528SOL     OW 9590   8.130   8.023  10.038 -0.2037  0.2799 -0.4921
 2528SOL    HW1 9591   8.100   8.105   9.998  0.7216 -0.1361 -2.1037
 2528SOL    HW2 9592   8.158   7.969   9.965  0.7084 -0.8873  0.6724
 2529SOL     OW 9593   9.359   9.707   8.800 -0.2971 -0.0333 -0.2487
 2529SOL    HW1 9594   9.414   9.683   8.725 -0.0639  1.0261 -0.4442
 2529SOL    HW2 9595   9.421   9.716   8.872 -0.1314  1.4770 -0.5423
 2530SOL     OW 9596   1.299   2.404   8.354 -0.2941 -0.0375 -0.1719
 2530SOL    HW1 9597   1.272   2.407   8.262 -1.4441  1.3066  0.1656
 2530SOL    HW2 9598   1.256   2.326   8.390 -0.9265  0.1621 -0.4769
 2531SOL     OW 9599   9.856   4.373   2.928  0.1317 -0.6964  0.3835
 2531SOL    HW1 9600   9.805   4.326   2.995 -0.4882  0.3807  0.6996
 2531SOL    HW2 9601   9.800   4.371   2.850  0.7426 -1.7248 -0.0517
 2532SOL     OW 9602   9.754  10.046   6.158 -0.2727 -0.4076 -0.4126
 2532SOL    HW1 9603   9.832  10.018   6.206  0.7468  1.3740 -0.9227
 2532SOL    HW2 9604   9.733  10.131   6.196 -1.0523 -0.1901 -1.3129
 2533SOL     OW 9605   4.577   5.603   4.650  0.3988 -0.4933  0.1818
 2533SOL    HW1 9606   4.627   5.639   4.723  2.5979 -0.1934 -1.3725
 2533SOL    HW2 9607   4.551   5.679   4.599  0.3355 -0.7845 -0.2240
 2534SOL     OW 9608   6.921   4.980   2.186 -0.3029  0.3006  0.3725
 2534SOL    HW1 9609   6.977   4.940   2.119  1.5955  0.3766  1.8139
 2534SOL    HW2 9610   6.906   5.069   2.155  2.0520  0.9250  0.8087
 2535SOL     OW 9611   4.957  10.818   2.831  0.6328  0.8234 -0.0604
 2535SOL    HW1 9612   5.036  10.799   2.780 -0.9755 -2.3134 -1.6465
 2535SOL    HW2 9613   4.909  10.882   2.779  0.6577  0.3224 -0.7125
 2536SOL     OW 9614  10.123   1.824   9.802 -0.1222  0.3574  0.1458
 2536SOL    HW1 9615  10.030   1.825   9.782 -0.2641  0.5072  0.7811
 2536SOL    HW2 9616  10.147   1.916   9.815 -0.3410  0.1989  1.9277
 2537SOL     OW 9617   0.845   5.398   5.193 -0.8994 -0.1398  0.1664
 2537SOL    HW1 9618   0.812   5.367   5.277 -0.6798 -1.5856 -0.2422
 2537SOL    HW2 9619   0.767   5.414   5.141 -1.0241 -0.0637  0.3780
 2538SOL     OW 9620   3.343  10.755   0.992 -0.2516 -0.2584 -0.4545
 2538SOL    HW1 9621   3.324  10.843   0.959 -0.1017  0.2433  0.7602
 2538SOL    HW2 9622   3.283  10.698   0.944 -1.5632  0.7166 -0.0371
 2539SOL     OW 9623   0.389   9.627   2.013 -0.3898  0.7518  0.4825
 2539SOL    HW1 9624   0.438   9.644   1.933  0.7356  1.6867  1.3308
 2539SOL    HW2 9625   0.413   9.699   2.071 -1.4919  0.3097  1.5238
 2540SOL     OW 9626   4.284   0.891   9.968 -0.4813 -0.1647  0.0259
 2540SOL    HW1 9627   4.253   0.810   9.928  1.5365 -0.4463 -1.1079
 2540SOL    HW2 9628   4.379   0.889   9.956 -0.2331  1.7181  1.2262
 2541SOL     OW 9629   6.652   7.504   9.854  0.1265 -0.5709 -0.2716
 2541SOL    HW1 9630   6.662   7.430   9.914  0.7295 -0.3738 -0.1254
 2541SOL    HW2 9631   6.603   7.468   9.780 -1.1610 -0.6728  0.5835
 2542SOL     OW 9632   6.518   3.408   3.727  0.1099 -0.6091 -0.0177
 2542SOL    HW1 9633   6.528   3.323   3.684  1.1327 -0.8621  0.6987
 2542SOL    HW2 9634   6.450   3.395   3.792 -1.5986 -0.1761 -1.6137
 2543SOL     OW 9635  10.951   1.882   3.003 -0.2055 -0.0375 -0.2558
 2543SOL    HW1 9636  10.859   1.878   2.976 -0.3760 -0.4701  0.3556
 2543SOL    HW2 9637  10.980   1.969   2.976 -0.0729 -0.7645 -2.6892
 2544SOL     OW 9638   0.284   6.946   3.614  0.2816 -0.6433 -0.4005
 2544SOL    HW1 9639   0.322   7.033   3.625 -0.0461 -0.4799 -0.5375
 2544SOL    HW2 9640   0.214   6.958   3.550 -1.8640 -0.3794  1.8588
 2545SOL     OW 9641   0.588   5.168   7.571  0.2627  0.2931  0.3262
 2545SOL    HW1 9642   0.552   5.160   7.483  0.6549  1.9419 -0.0232
 2545SOL    HW2 9643   0.512   5.183   7.627  0.0588 -0.2386  0.1944
 2546SOL     OW 9644   9.068   4.711   2.731 -0.0596 -0.0915  0.1498
 2546SOL    HW1 9645   9.071   4.724   2.637 -3.2156  0.9168  0.0789
 2546SOL    HW2 9646   9.159   4.723   2.760  0.9673 -0.3180 -2.6843
 2547SOL     OW 9647   5.571   1.609   7.002 -0.7166  0.0265 -0.1125
 2547SOL    HW1 9648   5.542   1.599   6.912 -0.9181  0.1087 -0.0573
 2547SOL    HW2 9649   5.543   1.697   7.027  1.6411  1.0553 -0.8179
 2548SOL     OW 9650   4.266  10.674   2.594  0.1762 -0.1143 -0.2611
 2548SOL    HW1 9651   4.294  10.765   2.588  1.7748 -0.5893 -0.4302
 2548SOL    HW2 9652   4.235  10.665   2.684  0.4119  0.4839 -0.1133
 2549SOL     OW 9653   6.353   7.500   4.331 -0.5001 -0.5592  0.2900
 2549SOL    HW1 9654   6.432   7.452   4.309  0.9956  1.3640  1.1147
 2549SOL    HW2 9655   6.330   7.469   4.419  0.0364 -0.3194  0.5232
 2550SOL     OW 9656   0.786   5.348   3.961 -0.6090 -0.3582 -0.6282
 2550SOL    HW1 9657   0.829   5.306   3.887 -1.1532  1.1987 -1.8849
 2550SOL    HW2 9658   0.786   5.281   4.030  1.9782 -1.0994 -1.2171
 2551SOL     OW 9659   9.519   4.501   3.355  0.0792 -0.6392 -0.1505
 2551SOL    HW1 9660   9.538   4.535   3.442  0.2083 -0.3236 -0.3030
 2551SOL    HW2 9661   9.566   4.558   3.295 -0.4049 -0.5543 -0.4597
 2552SOL     OW 9662   7.049   5.379   1.169 -0.3959  0.6060  0.0216
 2552SOL    HW1 9663   7.133   5.415   1.197  0.0249  0.2280 -0.7076
 2552SOL    HW2 9664   6.985   5.447   1.190  0.0520  0.8000  0.8021
 2553SOL     OW 9665   0.018   2.642   3.986  0.0116 -0.2339  0.6391
 2553SOL    HW1 9666   0.034   2.718   4.042  0.4656 -0.5371  0.9298
 2553SOL    HW2 9667   0.103   2.625   3.945 -0.6443  0.8785 -1.2937
 2554SOL     OW 9668   4.168   9.265   7.567 -0.2955 -0.3106  0.0979
 2554SOL    HW1 9669   4.134   9.293   7.482  0.2331 -2.2278 -0.8071
 2554SOL    HW2 9670   4.125   9.181   7.583  0.9332 -0.8082  0.8861
 2555SOL     OW 9671   4.750   2.545   9.080 -0.3548  0.5135  0.0330
 2555SOL    HW1 9672   4.761   2.462   9.034 -1.1578  0.1627  0.4522
 2555SOL    HW2 9673   4.717   2.521   9.166  0.4765  1.2025  0.5764
 2556SOL     OW 9674   9.397   6.577   9.932 -0.6175  0.1870  0.3073
 2556SOL    HW1 9675   9.413   6.583   9.838  0.0505 -3.4354  0.0531
 2556SOL    HW2 9676   9.343   6.499   9.943  0.1175 -0.0507  3.0245
 2557SOL     OW 9677   9.798   4.757   8.498 -0.5776 -0.5669 -0.6035
 2557SOL    HW1 9678   9.810   4.824   8.430  0.4019  0.1638  0.2488
 2557SOL    HW2 9679   9.709   4.773   8.531 -0.1478  0.7491  0.0076
 2558SOL     OW 9680   1.394   8.182   6.627 -0.1858  0.0854  0.4942
 2558SOL    HW1 9681   1.384   8.231   6.546 -1.5018 -1.7532 -0.5202
 2558SOL    HW2 9682   1.307   8.146   6.645  0.6098 -1.5320  1.3952
 2559SOL     OW 9683   1.042   8.447   6.233 -0.0185 -0.2474  0.7733
 2559SOL    HW1 9684   1.136   8.460   6.227  0.2399 -1.9463  0.6765
 2559SOL    HW2 9685   1.019   8.398   6.154 -0.8642 -0.4659  1.1394
 2560SOL     OW 9686  10.000   5.081  10.530 -0.6876  0.9201  0.2218
 2560SOL    HW1 9687   9.999   5.138  10.453 -1.2959 -0.1784 -0.6071
 2560SOL    HW2 9688   9.936   5.013  10.510  0.5951 -0.5204  0.8197
 2561SOL     OW 9689   6.108   8.172   6.952  0.1735 -0.2142 -0.3039
 2561SOL    HW1 9690   6.180   8.234   6.960 -0.7592  0.8604  0.0137
 2561SOL    HW2 9691   6.128   8.103   7.016  1.2927 -0.3344 -0.7638
 2562SOL     OW 9692   3.869   1.951   7.364  0.1086 -0.1163  0.8662
 2562SOL    HW1 9693   3.901   1.868   7.399 -2.4525 -0.9402  1.4613
 2562SOL    HW2 9694   3.789   1.928   7.317  0.6739  1.7090 -1.1276
 2563SOL     OW 9695   0.439   1.977  10.458  0.3653  0.1331  0.3525
 2563SOL    HW1 9696   0.407   1.957  10.546  2.0197 -1.5272  0.6477
 2563SOL    HW2 9697   0.514   2.035  10.472  0.8556 -0.4205  0.0960
 2564SOL     OW 9698   7.015   5.696   3.020  0.2694 -0.0689  0.4464
 2564SOL    HW1 9699   6.919   5.692   3.024  0.1062  2.1238  0.0986
 2564SOL    HW2 9700   7.044   5.662   3.105 -0.7605 -1.2180  0.3773
 2565SOL     OW 9701   1.074   1.455   4.679  0.4112  0.1255 -0.3168
 2565SOL    HW1 9702   1.147   1.438   4.739 -1.6550  0.7663  2.6054
 2565SOL    HW2 9703   1.061   1.373   4.632  0.9040 -1.1028  1.5865
 2566SOL     OW 9704   1.064   2.505   5.592  0.5800 -0.3162  0.1837
 2566SOL    HW1 9705   1.104   2.553   5.520 -0.4208 -0.0635 -0.2168
 2566SOL    HW2 9706   1.026   2.427   5.552 -0.5435  0.1434  0.3119
 2567SOL     OW 9707  10.238   8.677   5.731 -0.7878 -0.0600 -0.3085
 2567SOL    HW1 9708  10.189   8.737   5.675 -0.6868 -0.0512 -0.3890
 2567SOL    HW2 9709  10.236   8.593   5.685  1.0857  0.4349 -1.4002
 2568SOL     OW 9710   2.753   0.364   9.892  0.4890 -0.4389  0.3625
 2568SOL    HW1 9711   2.738   0.276   9.858  0.1732  1.0640 -3.9525
 2568SOL    HW2 9712   2.848   0.369   9.906  0.6153 -1.2002 -0.1969
 2569SOL     OW 9713   1.299   7.278   5.775  0.2994  0.1115  0.0027
 2569SOL    HW1 9714   1.210   7.298   5.746 -0.1277 -0.0290  1.1459
 2569SOL    HW2 9715   1.347   7.360   5.763  0.5430 -0.3248 -2.3980
 2570SOL     OW 9716   8.128   2.636   1.174 -0.5635  0.5318 -0.1542
 2570SOL    HW1 9717   8.170   2.716   1.204  0.8108 -1.1352  2.6918
 2570SOL    HW2 9718   8.059   2.619   1.238  0.4552 -1.5671  0.4589
 2571SOL     OW 9719   5.905   0.125  10.952 -0.5022  0.3674  0.4013
 2571SOL    HW1 9720   5.824   0.142  10.999 -0.0358  0.1572  1.3094
 2571SOL    HW2 9721   5.968   0.101  11.020  0.2157  0.1264 -0.3241
 2572SOL     OW 9722   6.688   0.298   1.358  0.1552 -0.0197  0.1241
 2572SOL    HW1 9723   6.779   0.324   1.343  0.3893 -0.5637  0.5828
 2572SOL    HW2 9724   6.654   0.277   1.271  1.3328 -2.6324  0.1994
 2573SOL     OW 9725   3.018   8.750   5.197 -0.3330 -0.0862 -0.2150
 2573SOL    HW1 9726   3.101   8.731   5.153 -0.7962  0.5334 -1.3973
 2573SOL    HW2 9727   3.043   8.796   5.277  0.5318 -1.2723  0.2230
 2574SOL     OW 9728  10.823   4.625   1.750 -0.9068 -0.1579  0.0042
 2574SOL    HW1 9729  10.875   4.628   1.830 -0.6729  1.5645 -0.1743
 2574SOL    HW2 9730  10.764   4.551   1.762  0.2543 -0.9537  1.0428
 2575SOL     OW 9731   2.864   0.448   0.125 -0.7252  0.3440  0.1070
 2575SOL    HW1 9732   2.861   0.544   0.117 -0.2094  0.4081  0.6195
 2575SOL    HW2 9733   2.893   0.432   0.215  2.3154 -0.2264 -0.8287
 2576SOL     OW 9734   6.662   9.707   2.387  0.0491  0.0555 -0.1930
 2576SOL    HW1 9735   6.729   9.643   2.363 -0.0019 -0.2813  0.5536
 2576SOL    HW2 9736   6.708   9.772   2.440 -0.0009  0.3736 -0.5383
 2577SOL     OW 9737  10.179  10.711   5.262  0.5644  0.1939 -0.0325
 2577SOL    HW1 9738  10.182  10.805   5.244  0.5304  0.5015  1.4919
 2577SOL    HW2 9739  10.086  10.693   5.276  0.4774 -0.2353 -1.0817
 2578SOL     OW 9740   0.503   0.971   2.163  0.0896 -0.4876 -0.1389
 2578SOL    HW1 9741   0.557   0.903   2.124 -0.4922 -0.9607 -0.1320
 2578SOL    HW2 9742   0.544   0.989   2.248  2.2521  1.5988 -1.4858
 2579SOL     OW 9743   4.011   2.130   4.852  0.2671 -0.3446 -0.7858
 2579SOL    HW1 9744   3.964   2.151   4.771  0.6578 -0.0487 -0.9383
 2579SOL    HW2 9745   3.967   2.052   4.886 -0.5752  0.1452 -0.7275
 2580SOL     OW 9746   7.310  10.407   5.373  0.0581  0.0070 -0.0610
 2580SOL    HW1 9747   7.308  10.357   5.292  1.0635 -1.3821  0.7176
 2580SOL    HW2 9748   7.316  10.341   5.442 -0.4930  1.1513  1.1506
 2581SOL     OW 9749   3.652   3.254   8.943 -0.2562 -0.0863  0.5585
 2581SOL    HW1 9750   3.731   3.291   8.904  0.4289 -1.3707  0.6548
 2581SOL    HW2 9751   3.665   3.159   8.937 -2.1852 -0.3469 -0.2241
 2582SOL     OW 9752   7.786   0.770   4.052 -0.0550  0.0180  0.0726
 2582SOL    HW1 9753   7.770   0.777   3.958 -0.7200  0.9009  0.2376
 2582SOL    HW2 9754   7.786   0.676   4.070 -3.8184 -0.1809 -0.1932
 2583SOL     OW 9755   3.298   9.383   8.836  0.4459  0.5583  0.4874
 2583SOL    HW1 9756   3.339   9.350   8.756 -1.1927  0.4593 -0.3474
 2583SOL    HW2 9757   3.354   9.350   8.907  2.3565  1.2763 -0.6092
 2584SOL     OW 9758   5.576   3.276  10.701 -0.0711 -0.0340  0.4004
 2584SOL    HW1 9759   5.625   3.267  10.783 -0.1754  0.0892  0.4772
 2584SOL    HW2 9760   5.485   3.259  10.726 -0.1417  0.2932  0.3657
 2585SOL     OW 9761   6.646   1.656  10.153  0.2572  0.3276  0.1879
 2585SOL    HW1 9762   6.614   1.595  10.087  0.6327 -1.0092  1.2157
 2585SOL    HW2 9763   6.566   1.695  10.190 -0.1108 -1.1918  1.0580
 2586SOL     OW 9764   7.184   1.513   7.493  0.0755 -0.1362  0.5318
 2586SOL    HW1 9765   7.112   1.451   7.483  0.4265 -0.3724 -0.7569
 2586SOL    HW2 9766   7.263   1.459   7.484  0.4502  0.7418 -3.6442
 2587SOL     OW 9767   1.023   9.305   3.020 -0.5037 -0.2908 -0.1467
 2587SOL    HW1 9768   0.937   9.289   2.981 -0.8502 -0.5463  0.7081
 2587SOL    HW2 9769   1.077   9.233   2.987 -1.2919 -1.6211  1.3307
 2588SOL     OW 9770   8.681   0.989   9.791  0.3412  0.3823  0.4236
 2588SOL    HW1 9771   8.639   1.060   9.743  0.8847  1.7279  1.8830
 2588SOL    HW2 9772   8.656   0.910   9.742 -0.3949  1.5267 -1.1505
 2589SOL     OW 9773   1.983   6.179   8.070  0.2193  0.0112  0.1075
 2589SOL    HW1 9774   1.991   6.152   8.161  0.0305 -1.5640 -0.3111
 2589SOL    HW2 9775   1.890   6.204   8.061  0.4496  1.0946  0.5558
 2590SOL     OW 9776   5.146   4.192  10.646 -0.4072 -0.2247  0.3334
 2590SOL    HW1 9777   5.059   4.159  10.626  0.6873 -4.5367  1.6407
 2590SOL    HW2 9778   5.160   4.169  10.738  1.7625  1.2938  0.4648
 2591SOL     OW 9779   8.721   7.037   3.694  0.2083 -0.2101 -0.6475
 2591SOL    HW1 9780   8.762   6.962   3.736 -0.2693 -0.0108  0.2109
 2591SOL    HW2 9781   8.746   7.030   3.602 -1.7456 -2.7823 -1.1232
 2592SOL     OW 9782   7.263   5.709   6.329  0.9078  0.1841  0.0424
 2592SOL    HW1 9783   7.322   5.717   6.404  0.4840 -1.6236  0.6243
 2592SOL    HW2 9784   7.175   5.719   6.367  0.7691  1.7747 -0.6413
 2593SOL     OW 9785   4.767   3.979   8.017 -0.8938  0.1460 -0.3329
 2593SOL    HW1 9786   4.847   4.005   8.064 -1.8558  2.5538  0.1542
 2593SOL    HW2 9787   4.757   3.886   8.035 -0.6440  0.6980  3.4605
 2594SOL     OW 9788   3.882   7.782   1.664  0.4333  0.4236  0.2813
 2594SOL    HW1 9789   3.811   7.802   1.725 -0.3231  2.0601 -1.0642
 2594SOL    HW2 9790   3.839   7.746   1.587  1.0800  1.0179 -0.3800
 2595SOL     OW 9791   0.058   7.374   8.941  0.2138 -0.4274  0.1905
 2595SOL    HW1 9792  -0.002   7.362   9.015  0.3482  0.1613  0.4008
 2595SOL    HW2 9793   0.003   7.413   8.873  0.3377  0.0728  0.3690
 2596SOL     OW 9794   8.897  10.221   9.775 -0.2052  0.4858  0.2709
 2596SOL    HW1 9795   8.843  10.174   9.839  2.5958 -1.5117  1.3404
 2596SOL    HW2 9796   8.847  10.215   9.693 -1.8825 -0.6724  1.3121
 2597SOL     OW 9797   3.717   8.495   2.685  0.6217 -0.6325  0.0444
 2597SOL    HW1 9798   3.662   8.417   2.688  1.9962 -1.6568 -0.1414
 2597SOL    HW2 9799   3.767   8.492   2.767 -0.4321  0.9383  0.7799
 2598SOL     OW 9800   2.794   4.377   6.144 -1.0328 -0.2252 -0.1951
 2598SOL    HW1 9801   2.708   4.374   6.184 -0.1340  0.3817  1.9277
 2598SOL    HW2 9802   2.841   4.303   6.183 -0.0916  0.4502 -0.0097
 2599SOL     OW 9803   8.654   1.400   0.468 -0.4387  0.3962 -0.2611
 2599SOL    HW1 9804   8.745   1.421   0.487 -0.1559 -0.3527 -0.7329
 2599SOL    HW2 9805   8.636   1.323   0.520 -1.0974  1.0794  0.5429
 2600SOL     OW 9806   3.627   5.762   2.274 -0.1077  0.1239 -0.6014
 2600SOL    HW1 9807   3.561   5.808   2.221 -0.7605 -1.3237 -1.1141
 2600SOL    HW2 9808   3.655   5.826   2.339 -2.5914  0.5912  0.1242
 2601SOL     OW 9809   7.244   1.311   6.390  0.4579 -0.0570 -0.4152
 2601SOL    HW1 9810   7.281   1.378   6.332 -0.3810 -0.4898 -1.4935
 2601SOL    HW2 9811   7.175   1.356   6.438  0.1693 -0.0301 -0.8428
 2602SOL     OW 9812   9.375   5.259   8.212 -0.0291 -0.3300  0.5133
 2602SOL    HW1 9813   9.281   5.270   8.201  0.1558  0.1141 -0.9301
 2602SOL    HW2 9814   9.396   5.308   8.291 -1.3439 -2.5590  2.3622
 2603SOL     OW 9815   4.793   7.360   4.552 -0.1844  0.1676  0.0363
 2603SOL    HW1 9816   4.777   7.451   4.579  0.0361 -0.1253  1.1983
 2603SOL    HW2 9817   4.824   7.367   4.461 -1.4518  1.1465 -0.3565
 2604SOL     OW 9818   9.124  10.713   6.115  0.4759 -0.2416 -0.9280
 2604SOL    HW1 9819   9.162  10.797   6.092 -4.3206  2.5810  0.1069
 2604SOL    HW2 9820   9.102  10.672   6.031  1.5726  0.1752 -1.4301
 2605SOL     OW 9821   4.907   3.159   7.948 -0.2961  0.2747 -0.3234
 2605SOL    HW1 9822   4.902   3.077   7.997 -1.8154 -0.7914 -2.1089
 2605SOL    HW2 9823   4.825   3.204   7.968  0.2366  1.0653  0.1267
 2606SOL     OW 9824   1.111   8.471   7.565  0.0631 -0.6518 -0.2042
 2606SOL    HW1 9825   1.076   8.540   7.509  0.8244  0.9364  1.2003
 2606SOL    HW2 9826   1.089   8.499   7.654  1.5710 -1.5478  0.4794
 2607SOL     OW 9827   7.198   7.570   1.956 -0.2609  0.1156  0.0114
 2607SOL    HW1 9828   7.220   7.648   1.905 -0.1240 -0.8243 -1.4325
 2607SOL    HW2 9829   7.281   7.543   1.995 -0.2583  0.5297  0.3032
 2608SOL     OW 9830   0.555   7.683   1.863  0.1802  0.1014  0.0066
 2608SOL    HW1 9831   0.481   7.703   1.806  0.2770 -1.7284 -0.8288
 2608SOL    HW2 9832   0.615   7.757   1.850 -0.1350  0.1071 -1.6938
 2609SOL     OW 9833   2.473   5.086   6.774 -0.0702  0.5920  0.4457
 2609SOL    HW1 9834   2.539   5.151   6.797 -0.0823  1.0368 -0.6904
 2609SOL    HW2 9835   2.392   5.119   6.812  0.0349  0.9400  0.3679
 2610SOL     OW 9836   8.194   1.888   8.809 -0.7128  0.1314  0.2040
 2610SOL    HW1 9837   8.210   1.938   8.729 -1.1337 -0.2324 -0.1120
 2610SOL    HW2 9838   8.264   1.822   8.809 -0.3499  0.5124  0.4553
 2611SOL     OW 9839   9.168   6.734   2.620 -0.3415  0.1358  0.3849
 2611SOL    HW1 9840   9.176   6.640   2.603  1.2200  0.4471 -0.9440
 2611SOL    HW2 9841   9.189   6.744   2.713  2.8396 -0.5788 -0.1133
 2612SOL     OW 9842   2.457   9.205   4.881 -0.3958  0.3200  0.3552
 2612SOL    HW1 9843   2.509   9.131   4.849  0.0375 -0.1648  2.0966
 2612SOL    HW2 9844   2.392   9.165   4.939  0.1081  1.3268  1.6464
 2613SOL     OW 9845   6.544   8.967   6.088 -0.2704 -0.1550  0.0247
 2613SOL    HW1 9846   6.479   9.017   6.039 -1.4714 -1.3114  0.3733
 2613SOL    HW2 9847   6.492   8.910   6.145  1.0723  0.6315  2.1527
 2614SOL     OW 9848   7.843   4.223  10.514 -0.0032 -0.3061 -0.4242
 2614SOL    HW1 9849   7.887   4.240  10.598  0.3375  0.2671 -0.7106
 2614SOL    HW2 9850   7.753   4.250  10.528 -0.4952 -2.1885  0.4064
 2615SOL     OW 9851   3.440   6.523  11.019  0.5380  0.4768  0.7516
 2615SOL    HW1 9852   3.429   6.584  10.946  0.0354 -1.4127 -0.8760
 2615SOL    HW2 9853   3.532   6.532  11.044  1.0880  0.3277 -1.0148
 2616SOL     OW 9854   0.337   8.946   0.381  0.1143  0.0471  0.0863
 2616SOL    HW1 9855   0.355   8.929   0.474  0.5539  0.4824  0.0823
 2616SOL    HW2 9856   0.260   9.004   0.382  0.3458  0.3541  0.1915
 2617SOL     OW 9857   7.408   1.912   5.812  0.0807  0.5159  0.0170
 2617SOL    HW1 9858   7.331   1.923   5.756  0.3556 -1.5164 -0.8302
 2617SOL    HW2 9859   7.432   2.001   5.838 -2.0059  1.2505 -0.4287
 2618SOL     OW 9860   0.103   7.676   4.678  0.1708 -0.0962 -0.2296
 2618SOL    HW1 9861   0.174   7.618   4.651  0.9956  0.8547 -0.1610
 2618SOL    HW2 9862   0.142   7.763   4.680 -0.5195  0.2211  1.5346
 2619SOL     OW 9863   6.444   2.244  11.008  0.1968  0.1662 -0.3008
 2619SOL    HW1 9864   6.535   2.230  11.034 -0.1788 -2.0002  0.0490
 2619SOL    HW2 9865   6.450   2.278  10.919  1.3632  0.4620 -0.1208
 2620SOL     OW 9866   5.123   7.628   3.130 -0.2585  0.1976 -0.1009
 2620SOL    HW1 9867   5.048   7.620   3.189  0.8091  2.3195  1.7081
 2620SOL    HW2 9868   5.192   7.575   3.170 -0.5947 -1.4408 -1.5593
 2621SOL     OW 9869   6.614   3.945   0.348 -0.3223  0.2443  0.0925
 2621SOL    HW1 9870   6.640   3.862   0.308 -1.5866  0.1649 -0.5859
 2621SOL    HW2 9871   6.658   4.012   0.295  0.6927  0.0235  0.6364
 2622SOL     OW 9872   0.986   4.064   5.125  0.3163  0.2293  0.3059
 2622SOL    HW1 9873   0.919   4.114   5.172 -0.1130  1.7724 -1.8162
 2622SOL    HW2 9874   1.025   4.127   5.065  2.7477 -0.9900  0.4996
 2623SOL     OW 9875   4.834   7.969   7.952 -0.7155  0.3463 -0.4001
 2623SOL    HW1 9876   4.754   7.939   7.994 -0.5425  0.0033 -0.3187
 2623SOL    HW2 9877   4.805   8.001   7.866 -0.8545 -0.3062 -0.5965
 2624SOL     OW 9878   9.108   8.300   4.033 -0.5984  0.4039 -0.0201
 2624SOL    HW1 9879   9.049   8.231   4.003 -0.4845  0.7296 -1.0100
 2624SOL    HW2 9880   9.196   8.262   4.023 -0.5417  0.6406 -0.4554
 2625SOL     OW 9881   4.818   9.980   6.167  0.3178 -0.0490 -0.1760
 2625SOL    HW1 9882   4.868  10.000   6.247  0.0097  0.3410 -0.0734
 2625SOL    HW2 9883   4.727   9.993   6.193 -0.0586 -3.0141  0.3169
 2626SOL     OW 9884   2.362   9.414   7.368 -0.4212 -0.0139 -0.2259
 2626SOL    HW1 9885   2.443   9.375   7.336 -0.9239 -0.5430 -0.8844
 2626SOL    HW2 9886   2.373   9.419   7.463  0.7508  0.7854 -0.3882
 2627SOL     OW 9887   1.479  10.207   7.147 -0.4289 -0.0802  0.2146
 2627SOL    HW1 9888   1.521  10.170   7.069  1.5648 -0.8204  1.5363
 2627SOL    HW2 9889   1.502  10.300   7.145  1.1326 -0.4317  0.7887
 2628SOL     OW 9890   9.124   7.287   9.576  0.1913 -0.3490 -0.0961
 2628SOL    HW1 9891   9.156   7.288   9.485  0.6205  0.6198  0.0507
 2628SOL    HW2 9892   9.202   7.307   9.628 -0.5758  1.9582  0.2875
 2629SOL     OW 9893   0.286   5.457   2.248  0.8081 -0.2389  0.2207
 2629SOL    HW1 9894   0.353   5.505   2.200  0.9463 -0.9915 -0.3611
 2629SOL    HW2 9895   0.262   5.515   2.320 -0.3928  1.5449 -1.5129
 2630SOL     OW 9896   7.827   5.642   4.022  0.2028  0.3317  0.7905
 2630SOL    HW1 9897   7.890   5.602   4.083 -0.3730 -1.4412  0.2728
 2630SOL    HW2 9898   7.821   5.733   4.051  3.0101  0.5948  0.8532
 2631SOL     OW 9899   8.216   3.019   0.387  0.1444  0.3511  0.4073
 2631SOL    HW1 9900   8.236   2.980   0.301  0.3878 -0.2477  0.7322
 2631SOL    HW2 9901   8.302   3.030   0.428  0.0083  0.4475  0.6655
 2632SOL     OW 9902   8.788   8.241   0.050 -0.5908  0.6612  0.1063
 2632SOL    HW1 9903   8.789   8.146   0.064 -1.0011  0.7314  0.6680
 2632SOL    HW2 9904   8.870   8.272   0.089 -0.9335  0.6515  0.8581
 2633SOL     OW 9905   5.876   6.945   3.627 -0.5722  0.4013  0.2351
 2633SOL    HW1 9906   5.899   7.037   3.618  0.9264 -0.0602 -1.1933
 2633SOL    HW2 9907   5.958   6.902   3.652 -1.0364 -0.6555  0.0134
 2634SOL     OW 9908   6.305   3.307  10.044  0.1059 -0.1577  0.3130
 2634SOL    HW1 9909   6.347   3.392  10.032  0.4339 -0.3744 -0.1083
 2634SOL    HW2 9910   6.339   3.253   9.973  0.9127 -1.0325  1.3143
 2635SOL     OW 9911   3.786   6.152   9.144  0.1273  0.1987  0.3269
 2635SOL    HW1 9912   3.744   6.080   9.191  0.2812  1.5451  2.7044
 2635SOL    HW2 9913   3.859   6.112   9.098 -0.9342 -1.4389  0.0052
 2636SOL     OW 9914   2.161   5.937   2.720  0.0405  0.2261 -0.6802
 2636SOL    HW1 9915   2.207   5.992   2.656 -1.4390  1.9753 -0.3099
 2636SOL    HW2 9916   2.071   5.934   2.689 -0.6708  0.9395  1.1521
 2637SOL     OW 9917  10.268   8.215   9.078  0.2649 -0.2922  1.0546
 2637SOL    HW1 9918  10.200   8.281   9.088  0.1684 -0.1546 -0.4050
 2637SOL    HW2 9919  10.345   8.254   9.120  1.1040  2.1857 -2.3638
 2638SOL     OW 9920   7.611  10.615   8.652  0.9500  0.2587 -0.3222
 2638SOL    HW1 9921   7.602  10.682   8.720 -2.0446  0.2786 -0.5796
 2638SOL    HW2 9922   7.667  10.548   8.691 -0.3335  0.4488  2.0861
 2639SOL     OW 9923   9.321   4.935   3.381  0.1720  0.2907 -0.1315
 2639SOL    HW1 9924   9.275   4.951   3.298 -1.3825  0.1629  0.6590
 2639SOL    HW2 9925   9.251   4.911   3.442  1.2096  0.9955  1.3780
 2640SOL     OW 9926   2.823   8.647   6.576 -0.0183 -0.1516 -0.1171
 2640SOL    HW1 9927   2.888   8.579   6.595  0.1721 -0.1713 -0.8224
 2640SOL    HW2 9928   2.743   8.615   6.617  0.0932 -0.7595 -0.3676
 2641SOL     OW 9929   3.934   0.619   8.972 -0.9385  0.1858  0.1202
 2641SOL    HW1 9930   3.838   0.616   8.974 -1.0083  1.6465 -0.1341
 2641SOL    HW2 9931   3.958   0.661   9.055 -0.3479 -2.3473  1.3457
 2642SOL     OW 9932   5.333   7.802   9.813 -0.0345  0.7556 -0.1284
 2642SOL    HW1 9933   5.286   7.720   9.829 -1.7003  1.4368 -1.1840
 2642SOL    HW2 9934   5.407   7.776   9.758 -1.1695  0.0560 -1.4082
 2643SOL     OW 9935   1.396  10.293   3.474  0.3075 -0.4378 -0.1932
 2643SOL    HW1 9936   1.453  10.249   3.537 -1.3268 -1.1130  0.8825
 2643SOL    HW2 9937   1.394  10.384   3.503  0.5544 -0.4783 -0.0422
 2644SOL     OW 9938   8.267   0.849   4.661  0.0242 -0.1574  0.2926
 2644SOL    HW1 9939   8.225   0.788   4.722 -0.5056 -0.6274 -0.5175
 2644SOL    HW2 9940   8.359   0.850   4.686  0.6977 -3.6002 -1.4717
 2645SOL     OW 9941   1.771   1.551   3.082 -0.3881 -0.0253 -0.2352
 2645SOL    HW1 9942   1.741   1.631   3.040  0.3691  1.2809  1.5773
 2645SOL    HW2 9943   1.717   1.482   3.043 -1.2302  1.3782 -1.6701
 2646SOL     OW 9944   8.445  10.020   1.975  0.5653 -0.0442  0.4279
 2646SOL    HW1 9945   8.476   9.992   2.061  0.9743 -0.1280  0.2557
 2646SOL    HW2 9946   8.442   9.940   1.924  0.1118 -0.0267  0.4264
 2647SOL     OW 9947   3.032   6.370   8.800 -0.0128  0.0799 -0.2903
 2647SOL    HW1 9948   3.027   6.277   8.775 -0.6769 -0.6475  2.2568
 2647SOL    HW2 9949   3.123   6.395   8.784  1.3339 -2.2714  2.8139
 2648SOL     OW 9950   6.692   8.664   3.815 -0.5381  0.5656  0.0011
 2648SOL    HW1 9951   6.733   8.750   3.825  2.7618 -0.9687  0.9280
 2648SOL    HW2 9952   6.646   8.649   3.898 -1.4036  1.5015 -0.2852
 2649SOL     OW 9953   6.789   8.998   1.403  0.1316  0.2672  0.1579
 2649SOL    HW1 9954   6.841   8.921   1.379  0.8662  0.6397  0.5359
 2649SOL    HW2 9955   6.842   9.044   1.468 -0.1148  1.3178 -0.3648
 2650SOL     OW 9956   3.627   2.770   6.696  0.6357 -0.1121 -0.4413
 2650SOL    HW1 9957   3.711   2.745   6.734 -0.3624  0.0146  1.9815
 2650SOL    HW2 9958   3.616   2.710   6.622  2.5988 -0.4710 -0.4880
 2651SOL     OW 9959   3.545   2.023   6.381  0.3079  0.2012  0.1487
 2651SOL    HW1 9960   3.627   1.976   6.366  0.5180  0.4216  0.6003
 2651SOL    HW2 9961   3.496   1.969   6.443  0.6440  0.6716  0.8414
 2652SOL     OW 9962  10.323   8.699   9.708 -0.1337  0.1536  0.4151
 2652SOL    HW1 9963  10.333   8.657   9.793 -1.1503  1.3791  1.1825
 2652SOL    HW2 9964  10.404   8.748   9.695 -0.7053  1.4834  1.5928
 2653SOL     OW 9965   1.162  10.050   4.154 -0.2904 -0.1193 -0.4811
 2653SOL    HW1 9966   1.241  10.012   4.116 -0.6305  0.2683 -1.6104
 2653SOL    HW2 9967   1.104   9.975   4.171 -0.2106 -0.2851 -0.9266
 2654SOL     OW 9968   2.929   6.220   2.139 -0.1715 -0.1911 -0.5960
 2654SOL    HW1 9969   2.852   6.255   2.095  0.5687  1.5157 -0.6085
 2654SOL    HW2 9970   2.922   6.125   2.128 -1.4104  0.0280 -1.9977
 2655SOL     OW 9971   5.134   3.328   0.928 -0.8660  0.4200 -0.0419
 2655SOL    HW1 9972   5.199   3.334   0.998 -0.5901 -1.4943 -0.0777
 2655SOL    HW2 9973   5.052   3.359   0.969 -0.4001  0.7384  0.6724
 2656SOL     OW 9974  10.339   7.269   8.239  0.1471 -0.1771  0.0921
 2656SOL    HW1 9975  10.310   7.317   8.317  0.7497  0.5739 -0.1316
 2656SOL    HW2 9976  10.261   7.263   8.184  0.1213  0.8237 -0.0060
 2657SOL     OW 9977   7.473   9.959   5.268 -0.3879 -0.1723  0.2265
 2657SOL    HW1 9978   7.543   9.959   5.333  1.3234 -0.7383 -1.5473
 2657SOL    HW2 9979   7.514   9.989   5.187 -2.3410  0.0372 -0.7529
 2658SOL     OW 9980   2.453   8.684  10.225 -0.0910 -0.0989  0.0463
 2658SOL    HW1 9981   2.428   8.595  10.248  0.0818  0.0335  0.7806
 2658SOL    HW2 9982   2.404   8.703  10.145 -0.4707 -0.6921  0.1301
 2659SOL     OW 9983   2.242   3.146  10.097  0.2705  0.1059 -0.0594
 2659SOL    HW1 9984   2.181   3.148  10.171 -0.1935 -0.4174 -0.4168
 2659SOL    HW2 9985   2.328   3.129  10.136 -0.4163 -3.8407  0.1632
 2660SOL     OW 9986   9.306   5.821   3.994  0.1300 -0.2597  0.9697
 2660SOL    HW1 9987   9.260   5.891   3.948  0.5999  1.6222  3.1942
 2660SOL    HW2 9988   9.241   5.750   3.999 -0.0699 -0.4107 -2.0672
 2661SOL     OW 9989   5.992   4.225   2.409 -0.2712  0.2624  0.4875
 2661SOL    HW1 9990   5.935   4.248   2.483  0.3251  0.8768  0.7684
 2661SOL    HW2 9991   6.034   4.307   2.385 -0.9548  0.2118 -0.9835
 2662SOL     OW 9992  10.007   1.862   3.636 -1.0976 -0.2085 -0.0054
 2662SOL    HW1 9993   9.996   1.882   3.543 -0.7063 -1.0103 -0.2370
 2662SOL    HW2 9994   9.969   1.937   3.682  0.3522  1.0596 -0.7954
 2663SOL     OW 9995   1.282   7.699   1.479  0.2321 -0.0319 -0.1911
 2663SOL    HW1 9996   1.199   7.650   1.475 -0.6418  1.3270  0.3764
 2663SOL    HW2 9997   1.255   7.791   1.476  1.7841  0.4409 -0.6999
 2664SOL     OW 9998   8.727   2.405  10.141  0.3011 -0.5995 -0.2664
 2664SOL    HW1 9999   8.699   2.439  10.056  0.8402  0.7567  0.0861
 2664SOL    HW210000   8.649   2.361  10.175 -0.4003  0.2150 -0.7780
 2665SOL     OW10001   1.834   8.496   5.903  0.5254  0.1551  0.1253
 2665SOL    HW110002   1.888   8.540   5.969  2.0398  0.4399 -1.2246
 2665SOL    HW210003   1.898   8.456   5.843 -0.7731  0.1799 -1.3386
 2666SOL     OW10004   1.326   3.176   3.196 -1.0895  0.0480 -0.4010
 2666SOL    HW110005   1.325   3.239   3.124 -0.9569 -0.7395 -1.1061
 2666SOL    HW210006   1.333   3.091   3.154 -0.9023 -0.4276  0.5502
 2667SOL     OW10007   9.129   4.764   6.288  0.4174  0.1049 -0.0387
 2667SOL    HW110008   9.190   4.789   6.219  0.6677 -1.7620 -0.5523
 2667SOL    HW210009   9.128   4.838   6.348  1.3228  1.1592 -1.2865
 2668SOL     OW10010   2.051   9.709   2.103 -0.0228  0.4133  0.2178
 2668SOL    HW110011   1.976   9.677   2.154  0.3490  0.1873  0.6350
 2668SOL    HW210012   2.036   9.803   2.096 -0.4540  0.3398  0.1187
 2669SOL     OW10013   1.463   4.824   5.667 -0.2042  0.4078 -0.3904
 2669SOL    HW110014   1.401   4.769   5.618  0.0551  1.9610 -2.6057
 2669SOL    HW210015   1.409   4.868   5.732 -0.8676 -0.5262 -0.2785
 2670SOL     OW10016  10.600   1.419   4.193 -0.4076 -0.1788  0.3043
 2670SOL    HW110017  10.664   1.374   4.140 -1.5610  0.1728 -1.4750
 2670SOL    HW210018  10.588   1.504   4.150 -3.4870 -0.9852 -0.6721
 2671SOL     OW10019   8.678   7.686   9.491  0.2730 -0.1546  0.2784
 2671SOL    HW110020   8.682   7.733   9.574 -1.0576 -0.3269  0.4510
 2671SOL    HW210021   8.756   7.631   9.491  0.1769 -0.3172  1.5131
 2672SOL     OW10022   3.480   7.926   9.228  0.3979 -0.3019 -0.1771
 2672SOL    HW110023   3.483   7.848   9.172  0.4302 -0.8020  0.5053
 2672SOL    HW210024   3.440   7.895   9.309  2.1772 -0.0756  0.8263
 2673SOL     OW10025   9.743   9.404   6.006  0.5124 -0.0330  0.2336
 2673SOL    HW110026   9.752   9.495   5.976 -0.2973 -0.7288 -2.2888
 2673SOL    HW210027   9.650   9.393   6.023  0.7230 -0.1828  1.4119
 2674SOL     OW10028   6.883  10.299   1.857 -0.3574 -0.4651 -0.2173
 2674SOL    HW110029   6.861  10.206   1.855 -0.6863 -0.3853 -0.2401
 2674SOL    HW210030   6.896  10.318   1.950  0.2251 -0.6531 -0.2525
 2675SOL     OW10031   4.851   7.090   2.508 -0.1370 -0.5044 -0.0611
 2675SOL    HW110032   4.836   7.114   2.416 -2.6094  2.1624  0.8734
 2675SOL    HW210033   4.831   6.997   2.513 -2.8700 -0.1112 -1.7698
 2676SOL     OW10034   2.708   4.614   1.843 -0.2741 -0.3631 -0.5478
 2676SOL    HW110035   2.647   4.687   1.829 -0.1332 -0.3485 -1.1240
 2676SOL    HW210036   2.740   4.625   1.932 -2.1604 -1.1445  0.2839
 2677SOL     OW10037   1.101   5.656   8.399  0.1718 -0.1135  0.2522
 2677SOL    HW110038   1.125   5.617   8.315  2.3843  1.3850  0.1099
 2677SOL    HW210039   1.106   5.582   8.461  1.5811 -0.6566 -0.4469
 2678SOL     OW10040   4.282   3.204   4.401 -0.0879  0.4076  0.2556
 2678SOL    HW110041   4.302   3.124   4.351 -0.3275  0.7112 -0.3355
 2678SOL    HW210042   4.240   3.261   4.338  2.9459  2.3139 -0.2572
 2679SOL     OW10043  10.601  10.611   9.055  1.1049  0.0711  0.0998
 2679SOL    HW110044  10.582  10.691   9.006  2.1074  1.0919  1.3008
 2679SOL    HW210045  10.596  10.637   9.146  1.5349 -1.2316  0.5220
 2680SOL     OW10046   0.732   0.903   4.712  0.7902  0.0657  0.0665
 2680SOL    HW110047   0.637   0.894   4.718  0.9462 -2.3509  0.1595
 2680SOL    HW210048   0.758   0.834   4.651  2.5592  0.1189  0.7018
 2681SOL     OW10049   9.227   1.704   2.788  0.0111  0.3739  0.3757
 2681SOL    HW110050   9.259   1.750   2.710  0.3793 -0.9895 -0.3076
 2681SOL    HW210051   9.143   1.745   2.808 -1.7890 -1.3936 -2.7869
 2682SOL     OW10052   9.448   1.472  10.628 -0.3162 -0.3123 -0.3147
 2682SOL    HW110053   9.463   1.486  10.721 -1.5199 -1.4472  0.0776
 2682SOL    HW210054   9.508   1.400  10.604  0.9675  0.8573 -0.7623
 2683SOL     OW10055  10.280   3.518   9.722 -0.3333 -0.0744  0.2296
 2683SOL    HW110056  10.194   3.561   9.720  0.1545  1.0357  1.6587
 2683SOL    HW210057  10.333   3.573   9.780  1.7606 -0.0006 -1.6302
 2684SOL     OW10058   3.505   8.457   4.590 -0.2570  0.0104 -0.1133
 2684SOL    HW110059   3.506   8.365   4.616  0.7272 -0.0850 -0.4404
 2684SOL    HW210060   3.413   8.475   4.567 -0.4753 -0.8533  0.0666
 2685SOL     OW10061  10.321  10.998  10.790  0.5998 -0.3533 -0.2413
 2685SOL    HW110062  10.363  11.084  10.793  0.9179 -0.5358  1.7727
 2685SOL    HW210063  10.378  10.945  10.733  1.6843  0.1335  0.3753
 2686SOL     OW10064   6.040   5.834   8.940 -0.2584 -0.5107 -0.1957
 2686SOL    HW110065   6.081   5.828   9.026  1.5133  1.8648 -0.7567
 2686SOL    HW210066   5.950   5.862   8.957  0.0280 -0.2282  0.8919
 2687SOL     OW10067   2.821   6.434   3.140 -0.0311 -0.2684 -0.1078
 2687SOL    HW110068   2.791   6.344   3.129  0.3349 -0.4181  0.0911
 2687SOL    HW210069   2.848   6.462   3.053 -1.3110  0.0800 -0.4066
 2688SOL     OW10070   5.229   4.625   5.773 -1.4824  0.4136 -0.1484
 2688SOL    HW110071   5.279   4.636   5.853 -1.8965  0.1212  0.1552
 2688SOL    HW210072   5.276   4.677   5.707 -0.2639 -0.5905 -0.1010
 2689SOL     OW10073   6.220  10.000   5.719 -0.1084  0.0142 -0.4890
 2689SOL    HW110074   6.142   9.945   5.728  0.2916 -0.4968 -0.0603
 2689SOL    HW210075   6.186  10.087   5.698 -0.7858 -0.2319 -0.4372
 2690SOL     OW10076   4.954   6.181   5.811 -0.2769 -0.1019  0.5533
 2690SOL    HW110077   4.881   6.243   5.817  0.2796  0.6785 -0.4442
 2690SOL    HW210078   5.029   6.229   5.845  0.0670 -0.3924  0.2148
 2691SOL     OW10079   0.837   9.806  10.133 -0.6619 -0.2533  0.7598
 2691SOL    HW110080   0.760   9.783  10.185 -1.1114 -1.0233 -0.2244
 2691SOL    HW210081   0.802   9.861  10.063 -0.1293  0.3503  0.9549
 2692SOL     OW10082   6.539  10.418   9.719  0.8905  0.1681 -0.1899
 2692SOL    HW110083   6.625  10.377   9.725  0.2460 -1.2436 -0.2891
 2692SOL    HW210084   6.482  10.360   9.770 -0.3103  0.2048 -1.4522
 2693SOL     OW10085   0.323   0.201   0.039  0.0544  0.0701  0.2669
 2693SOL    HW110086   0.302   0.114   0.071 -0.6161 -0.2869 -1.0412
 2693SOL    HW210087   0.294   0.200  -0.053  1.5170  1.1322 -0.2493
 2694SOL     OW10088   1.645   8.388   9.823  0.6139 -0.2472 -0.0282
 2694SOL    HW110089   1.718   8.449   9.831 -0.8730  1.4167  1.4376
 2694SOL    HW210090   1.674   8.309   9.870  2.7472 -0.9906 -2.3653
 2695SOL     OW10091   6.863   9.973   7.173  0.1793 -0.0258  0.3886
 2695SOL    HW110092   6.821   9.918   7.238  0.0245 -0.1026  0.2259
 2695SOL    HW210093   6.926   9.915   7.129 -0.1056 -0.1240  0.1006
 2696SOL     OW10094  10.585   1.287   8.743 -0.4326 -0.1214  0.1219
 2696SOL    HW110095  10.509   1.331   8.705  0.0361 -1.0864 -2.1096
 2696SOL    HW210096  10.658   1.347   8.728 -0.3167 -0.3164 -0.0964
 2697SOL     OW10097   8.390   1.864   5.181  0.2810 -0.1050 -0.3687
 2697SOL    HW110098   8.296   1.860   5.196 -0.1701  1.2284 -2.4181
 2697SOL    HW210099   8.402   1.824   5.095  1.1811  2.0023 -1.3028
 2698SOL     OW10100   6.424   0.237   2.482 -0.3770  0.0852 -0.2831
 2698SOL    HW110101   6.372   0.198   2.412 -0.6303  1.9859 -1.2060
 2698SOL    HW210102   6.375   0.216   2.562 -1.8710  0.6646 -1.0009
 2699SOL     OW10103   4.631   6.531   3.495 -0.3600  0.4998 -0.3050
 2699SOL    HW110104   4.687   6.455   3.480  0.2892  1.1057 -1.0217
 2699SOL    HW210105   4.547   6.494   3.522  0.4253 -0.4215  0.9901
 2700SOL     OW10106   6.348   1.911   8.208 -0.0087 -0.2235 -0.6420
 2700SOL    HW110107   6.413   1.906   8.278  1.0437  1.5883 -1.4436
 2700SOL    HW210108   6.286   1.978   8.238 -0.8755 -1.0866 -0.4344
 2701SOL     OW10109   2.514   3.957  10.023  0.1459  0.7865  0.2125
 2701SOL    HW110110   2.584   3.929   9.964  1.4225  0.9948  1.5537
 2701SOL    HW210111   2.476   4.033   9.980  0.2949  0.2842 -0.8526
 2702SOL     OW10112   9.801   9.126   2.415  0.1033 -0.2964 -0.0310
 2702SOL    HW110113   9.756   9.184   2.476  1.0797 -0.2544  0.6667
 2702SOL    HW210114   9.747   9.047   2.414 -0.3572  0.0048  0.2664
 2703SOL     OW10115   7.992  10.702   9.305 -0.1998  0.0403 -0.2181
 2703SOL    HW110116   8.001  10.608   9.288  1.5546  0.3574 -1.2176
 2703SOL    HW210117   7.933  10.733   9.237 -0.2332 -0.2134 -0.3054
 2704SOL     OW10118   4.731   2.026   5.151  0.4436 -0.1702  0.0628
 2704SOL    HW110119   4.796   1.985   5.209 -0.8201  0.0250  1.7125
 2704SOL    HW210120   4.750   2.119   5.157  1.0501 -0.2269 -0.8106
 2705SOL     OW10121   1.541   4.106   9.126  0.0253  0.2269  0.2946
 2705SOL    HW110122   1.506   4.022   9.157  0.4192  0.5131  1.5560
 2705SOL    HW210123   1.576   4.148   9.205  1.0317  1.0017 -0.5417
 2706SOL     OW10124   2.701   5.254   2.821  0.4094  0.1639  0.6778
 2706SOL    HW110125   2.671   5.314   2.889 -3.0501  0.6553 -1.0401
 2706SOL    HW210126   2.683   5.167   2.855  2.0281  0.2020  1.7229
 2707SOL     OW10127   2.657   7.084   1.105 -0.3129 -0.5925 -0.6615
 2707SOL    HW110128   2.663   7.109   1.012  2.0803 -1.5324 -0.8155
 2707SOL    HW210129   2.702   7.154   1.152  2.1223 -2.0795 -0.6487
 2708SOL     OW10130   6.504   1.994   4.841 -0.0777  0.4143  0.3587
 2708SOL    HW110131   6.506   1.899   4.832  0.7912  0.3202  1.4187
 2708SOL    HW210132   6.413   2.017   4.822  0.0242 -0.4450 -1.4112
 2709SOL     OW10133   5.151   0.014   5.522  0.1076  0.0140  0.3601
 2709SOL    HW110134   5.071   0.020   5.470  1.0023  0.2177 -1.0477
 2709SOL    HW210135   5.144   0.085   5.586 -0.4667  0.5258 -0.2674
 2710SOL     OW10136   2.772   4.141   8.030  0.2235  0.1896  0.1139
 2710SOL    HW110137   2.829   4.099   8.095  1.3274  0.1693 -0.8122
 2710SOL    HW210138   2.694   4.086   8.026  1.0971 -1.0783 -0.1491
 2711SOL     OW10139   3.707   1.043   4.067 -0.2268 -0.4396 -0.3292
 2711SOL    HW110140   3.699   1.085   3.981  2.6416  0.7067 -0.1419
 2711SOL    HW210141   3.667   0.957   4.056  1.3332 -0.9092 -3.2677
 2712SOL     OW10142   8.472   6.719  10.872 -0.2322  0.0476 -0.1037
 2712SOL    HW110143   8.471   6.812  10.897  0.4141  0.0620 -0.1197
 2712SOL    HW210144   8.508   6.718  10.784  1.2863 -0.3443  0.4865
 2713SOL     OW10145   6.327   9.799   8.018 -0.0959  0.0644  0.3225
 2713SOL    HW110146   6.264   9.864   8.047  0.6768  0.6880  0.6454
 2713SOL    HW210147   6.378   9.778   8.096  1.2021  0.8372 -0.2792
 2714SOL     OW10148   4.016   7.449   1.503  0.4588  0.0197  0.0163
 2714SOL    HW110149   3.986   7.369   1.461 -0.6064  0.2541  0.2966
 2714SOL    HW210150   3.942   7.478   1.556  1.0925  0.7799  0.5185
 2715SOL     OW10151   8.047   6.466   1.557 -0.1085  0.3963 -0.3050
 2715SOL    HW110152   8.075   6.499   1.472 -3.0015 -0.6533 -1.8300
 2715SOL    HW210153   8.127   6.434   1.599  1.3575  0.5485 -2.8226
 2716SOL     OW10154   6.461   5.844   9.646 -0.6761 -0.2283  0.3004
 2716SOL    HW110155   6.524   5.820   9.714 -0.6371 -0.2269  0.2646
 2716SOL    HW210156   6.448   5.763   9.596 -0.7803 -0.2544  0.3710
 2717SOL     OW10157   1.384   5.387   1.269  0.3390  0.3563 -0.5544
 2717SOL    HW110158   1.300   5.431   1.253  0.4944  1.5350  1.4092
 2717SOL    HW210159   1.445   5.428   1.208 -0.3895 -0.1587 -1.6572
 2718SOL     OW10160   1.649   1.542   5.741  0.2659  0.2094  0.1954
 2718SOL    HW110161   1.632   1.508   5.828 -0.0683 -1.7950 -0.5909
 2718SOL    HW210162   1.744   1.553   5.737  0.3199 -0.1119  0.6595
 2719SOL     OW10163   7.814   0.863   7.020 -0.7182 -0.1101 -0.0190
 2719SOL    HW110164   7.875   0.917   6.970 -1.3286 -0.3163 -1.0254
 2719SOL    HW210165   7.848   0.864   7.109 -0.4679  1.5811 -0.0937
 2720SOL     OW10166   0.117   7.589   3.973 -0.2867  0.1126  0.1347
 2720SOL    HW110167   0.052   7.562   3.908  0.0997 -0.5340  0.0162
 2720SOL    HW210168   0.077   7.665   4.016 -0.8476  0.1124 -0.3699
 2721SOL     OW10169   9.693  10.624   0.859 -0.4179  0.2655  0.3894
 2721SOL    HW110170   9.621  10.611   0.920 -0.3856  0.3264  0.4413
 2721SOL    HW210171   9.652  10.659   0.780 -0.5548 -0.5424  0.0989
 2722SOL     OW10172   8.571   2.945  10.284  0.6682  0.3853 -0.2802
 2722SOL    HW110173   8.582   3.033  10.318  1.9506  0.1287  0.0359
 2722SOL    HW210174   8.496   2.909  10.331 -0.3304  1.5483 -0.9481
 2723SOL     OW10175   9.644   8.997   1.867 -0.0985 -0.1510  0.0953
 2723SOL    HW110176   9.660   9.070   1.927 -0.0789 -1.8643  2.3109
 2723SOL    HW210177   9.550   8.999   1.852  0.1247  1.3962 -1.4032
 2724SOL     OW10178  10.532   7.980   9.047 -0.0834  0.3247  1.1227
 2724SOL    HW110179  10.613   7.994   9.096  1.1564  0.4101 -0.8481
 2724SOL    HW210180  10.488   8.065   9.048  1.1935  1.0369 -0.0477
 2725SOL     OW10181   6.472   2.725   6.808 -0.3699  0.7259  0.1432
 2725SOL    HW110182   6.407   2.681   6.753 -2.4980  0.8277  2.3763
 2725SOL    HW210183   6.556   2.704   6.768 -1.5542 -2.0147 -1.1719
 2726SOL     OW10184   6.806   9.199   1.207 -0.3171  0.2876 -0.1654
 2726SOL    HW110185   6.757   9.135   1.258  0.3659  0.5924  0.9129
 2726SOL    HW210186   6.785   9.284   1.247 -0.0283  0.5739 -0.6039
 2727SOL     OW10187   2.033   1.540   4.269 -0.2911  0.7084 -0.4621
 2727SOL    HW110188   2.088   1.476   4.314  1.0727  1.1063 -1.4790
 2727SOL    HW210189   1.946   1.501   4.268  0.1291 -0.3136  0.5012
 2728SOL     OW10190   7.635   8.418   0.033 -0.2458  0.1413 -0.0456
 2728SOL    HW110191   7.613   8.330   0.062 -2.5927  0.2427 -1.2736
 2728SOL    HW210192   7.690   8.453   0.103 -0.7517 -1.6632  1.3366
 2729SOL     OW10193  10.700   0.707   3.744  0.2474  0.3087  0.7800
 2729SOL    HW110194  10.686   0.793   3.705 -2.8519 -1.0126 -1.3558
 2729SOL    HW210195  10.707   0.725   3.838  1.4225  2.9929  0.2728
 2730SOL     OW10196   5.234   5.639   1.909  0.4465  0.3709 -0.1858
 2730SOL    HW110197   5.189   5.683   1.981  0.7786  0.7968 -0.2300
 2730SOL    HW210198   5.167   5.631   1.841 -0.2899 -1.4042  0.7038
 2731SOL     OW10199   3.078   3.235   2.834  0.3564  0.4942  0.4106
 2731SOL    HW110200   2.992   3.265   2.865  0.2015 -1.6459  2.3097
 2731SOL    HW210201   3.069   3.228   2.739 -1.7598 -0.1660  0.6183
 2732SOL     OW10202   3.886   8.126   9.092 -0.1403  0.5379 -0.2601
 2732SOL    HW110203   3.887   8.040   9.135  2.0142  0.2600 -0.7320
 2732SOL    HW210204   3.860   8.107   9.002 -3.4328  0.9589  0.4848
 2733SOL     OW10205   9.870   0.987   0.079  0.8242  0.3092 -0.2175
 2733SOL    HW110206   9.851   0.897   0.052 -0.3463  0.5048 -0.1050
 2733SOL    HW210207   9.876   0.983   0.174  1.0116  0.3116 -0.2285
 2734SOL     OW10208   4.360   5.964   9.594  0.2723  0.8148 -0.4964
 2734SOL    HW110209   4.283   6.019   9.578  0.2118  0.6444 -0.8018
 2734SOL    HW210210   4.384   5.983   9.685 -2.0351 -1.4287  0.7361
 2735SOL     OW10211   3.406   7.331   1.865 -0.7278 -0.0302 -0.0195
 2735SOL    HW110212   3.407   7.237   1.882  1.3867 -0.5499 -2.4506
 2735SOL    HW210213   3.498   7.357   1.865 -1.1772  1.7454 -0.7446
 2736SOL     OW10214   3.710   0.832   7.792 -0.1927 -0.4043  0.0431
 2736SOL    HW110215   3.780   0.892   7.819  0.0815 -0.7552  0.1206
 2736SOL    HW210216   3.748   0.783   7.719 -1.1599  1.0382 -1.5313
 2737SOL     OW10217   2.615   6.798   1.820  0.2725  0.0705 -0.3288
 2737SOL    HW110218   2.643   6.816   1.730  0.9932  0.3905 -0.0524
 2737SOL    HW210219   2.615   6.703   1.826  2.4779  0.0180 -0.0364
 2738SOL     OW10220   1.307   0.853   0.459  0.1675  0.2209 -0.2547
 2738SOL    HW110221   1.384   0.909   0.463  0.6776 -0.5101  0.2949
 2738SOL    HW210222   1.320   0.800   0.380 -0.7671  1.4821 -1.3170
 2739SOL     OW10223   0.078   6.885   5.613 -0.3613 -0.8775 -0.3509
 2739SOL    HW110224   0.152   6.917   5.665 -1.8267 -0.2183  1.4409
 2739SOL    HW210225   0.095   6.791   5.602 -0.0753 -1.0915  1.5420
 2740SOL     OW10226   4.227   0.927   3.866  0.2900 -0.6885 -0.3390
 2740SOL    HW110227   4.167   0.909   3.938  0.7450 -0.7209  0.0377
 2740SOL    HW210228   4.314   0.930   3.907  0.8289 -2.8259 -1.1810
 2741SOL     OW10229   2.512   3.505   2.255 -0.0705 -0.4571  0.1353
 2741SOL    HW110230   2.419   3.520   2.272  0.1009  0.9307 -0.0540
 2741SOL    HW210231   2.555   3.586   2.282  1.2183 -1.4370  1.1684
 2742SOL     OW10232   8.370   3.294   5.178 -0.6457  0.5541  0.4899
 2742SOL    HW110233   8.300   3.341   5.224 -1.3593  0.6533 -0.6510
 2742SOL    HW210234   8.450   3.341   5.203 -1.1652  1.4161  0.5874
 2743SOL     OW10235  10.602   5.424   3.909 -0.0884 -0.5156  0.3088
 2743SOL    HW110236  10.571   5.489   3.846 -0.7849  1.8131  2.8299
 2743SOL    HW210237  10.522   5.394   3.954  0.5118 -0.9321  1.1311
 2744SOL     OW10238   7.810   0.416   3.486 -0.3621 -0.1284 -0.0282
 2744SOL    HW110239   7.897   0.378   3.499 -0.0416 -0.0363 -1.6659
 2744SOL    HW210240   7.754   0.369   3.548  1.1076  0.9080  2.2104
 2745SOL     OW10241   4.334   5.837   9.197  0.4000  0.2541 -0.1095
 2745SOL    HW110242   4.424   5.811   9.216  0.5524  0.1612 -0.9144
 2745SOL    HW210243   4.286   5.754   9.189  0.4025  0.2821 -0.4227
 2746SOL     OW10244   7.881  10.440   0.417  0.3901 -0.6371  0.0842
 2746SOL    HW110245   7.847  10.379   0.351  0.4109  0.1219 -0.6452
 2746SOL    HW210246   7.833  10.522   0.401  0.0285 -0.5861  1.3516
 2747SOL     OW10247   2.546  10.808   0.563  0.0935  0.7453  0.3350
 2747SOL    HW110248   2.528  10.724   0.605  0.3153 -0.0236 -1.0336
 2747SOL    HW210249   2.641  10.807   0.548 -0.1797  0.1268 -1.8152
 2748SOL     OW10250   9.755   6.777   0.876  0.2948 -0.6590 -0.2228
 2748SOL    HW110251   9.773   6.695   0.829 -1.9959 -0.8387 -0.9457
 2748SOL    HW210252   9.828   6.834   0.854  0.5585 -1.6004 -1.9887
 2749SOL     OW10253   0.795   8.054   8.766 -0.3997 -0.2609  0.1883
 2749SOL    HW110254   0.736   8.102   8.824 -0.8614 -0.8194  0.1937
 2749SOL    HW210255   0.875   8.043   8.817 -1.7913 -3.4311  2.0071
 2750SOL     OW10256   5.817   5.042   7.933 -0.1845  0.9865  0.0129
 2750SOL    HW110257   5.891   4.990   7.901 -0.0283  0.6063  0.9566
 2750SOL    HW210258   5.853   5.131   7.942  0.3143  0.7194  0.8920
 2751SOL     OW10259   7.705   7.902   1.095  0.7245  0.1934 -0.1836
 2751SOL    HW110260   7.797   7.883   1.114  0.7189  2.5946  3.0320
 2751SOL    HW210261   7.708   7.979   1.038  0.7481  0.8377  0.6703
 2752SOL     OW10262   4.659   5.037   5.797  0.3433 -0.0681 -0.0965
 2752SOL    HW110263   4.594   5.041   5.727  0.7096  1.0537 -0.3895
 2752SOL    HW210264   4.742   5.017   5.752  0.8462  2.0720 -0.1941
 2753SOL     OW10265   4.039   3.975   8.662  0.2448 -0.3727  0.0538
 2753SOL    HW110266   4.043   4.039   8.591  1.1370  0.8397  1.1398
 2753SOL    HW210267   3.968   3.916   8.638  0.1943  0.3110 -1.5839
 2754SOL     OW10268   6.991   0.809   2.369  0.1791 -0.0165 -0.1941
 2754SOL    HW110269   6.897   0.795   2.369  0.4664 -2.3116  0.0206
 2754SOL    HW210270   7.023   0.763   2.447  1.6278 -0.7791 -1.1686
 2755SOL     OW10271   5.518   9.303   5.091  0.1675  0.3099  0.5126
 2755SOL    HW110272   5.611   9.325   5.087  0.5878 -0.7816  2.6399
 2755SOL    HW210273   5.480   9.369   5.149  0.2316 -0.8228  1.9209
 2756SOL     OW10274   8.523  10.903   1.627 -0.1104 -0.3584  0.4758
 2756SOL    HW110275   8.537  10.945   1.542  0.3941  2.0684  1.6569
 2756SOL    HW210276   8.590  10.836   1.633 -1.3320 -1.9085 -1.7685
 2757SOL     OW10277   9.881   4.186   6.896 -0.1429 -0.5070 -0.2053
 2757SOL    HW110278   9.892   4.235   6.814 -1.8783  0.5951  0.1559
 2757SOL    HW210279   9.802   4.134   6.882 -0.0228 -0.8920  0.5100
 2758SOL     OW10280   8.899   0.675   4.456 -0.1057 -0.0975 -0.4743
 2758SOL    HW110281   8.965   0.709   4.396  0.8425 -0.2210  0.4801
 2758SOL    HW210282   8.831   0.639   4.398  1.5502 -1.7472 -1.5007
 2759SOL     OW10283  10.503   3.831   4.548  0.3926  0.2601 -0.0210
 2759SOL    HW110284  10.482   3.745   4.585 -0.4382  0.8894  1.0311
 2759SOL    HW210285  10.421   3.861   4.508  1.1353 -0.1771 -1.9979
 2760SOL     OW10286   2.884   3.981   0.865 -0.2921 -0.1133 -0.2016
 2760SOL    HW110287   2.972   3.989   0.829  0.0368  2.1651  0.9222
 2760SOL    HW210288   2.826   3.975   0.789  0.7360 -0.2042 -0.9842
 2761SOL     OW10289   0.262   1.909   2.858 -0.7497 -0.2845  0.0811
 2761SOL    HW110290   0.229   1.947   2.939  0.9496  0.9978  0.2473
 2761SOL    HW210291   0.206   1.945   2.789 -1.3160 -0.2419  0.5640
 2762SOL     OW10292   8.637   1.959   1.159  0.7107 -0.0448 -0.3562
 2762SOL    HW110293   8.554   1.928   1.122  1.4003 -0.8427 -1.2944
 2762SOL    HW210294   8.655   1.898   1.231 -0.7528  1.6518  1.5525
 2763SOL     OW10295  10.356   8.077   1.689 -0.4927 -0.0448 -0.1824
 2763SOL    HW110296  10.286   8.123   1.642 -0.0786  1.0532  0.2465
 2763SOL    HW210297  10.433   8.086   1.633 -0.3569 -0.0216  0.0067
 2764SOL     OW10298   1.576   9.076   6.750 -0.2959 -0.0088 -0.0094
 2764SOL    HW110299   1.623   8.995   6.729 -1.6690 -0.3974 -1.7799
 2764SOL    HW210300   1.628   9.144   6.707  1.3126  0.2189  2.1532
 2765SOL     OW10301   0.106   5.859   3.287 -0.3370  0.3580  0.3447
 2765SOL    HW110302   0.138   5.841   3.376 -0.4646 -1.9777 -0.0282
 2765SOL    HW210303   0.028   5.804   3.278  0.7625 -0.9641 -1.8411
 2766SOL     OW10304   1.776   1.411   7.857  0.1259  0.6649  0.4087
 2766SOL    HW110305   1.776   1.446   7.769  0.5570  0.8727  0.4877
 2766SOL    HW210306   1.848   1.456   7.901  0.0070  0.4599  0.8228
 2767SOL     OW10307   8.125   6.641   5.879 -0.3378 -0.0090 -0.1524
 2767SOL    HW110308   8.062   6.656   5.809  0.0532  2.3777 -0.0692
 2767SOL    HW210309   8.087   6.685   5.955  1.0130  0.7563  0.1060
 2768SOL     OW10310   1.814  10.579   0.267  0.6139  0.7483 -0.3040
 2768SOL    HW110311   1.847  10.546   0.184  0.2797 -0.2616 -0.0400
 2768SOL    HW210312   1.814  10.675   0.256  3.3065  0.7986 -0.4221
 2769SOL     OW10313   8.224   5.166   5.909  0.2605 -0.0063 -0.5019
 2769SOL    HW110314   8.133   5.156   5.880 -0.9020 -0.8331  2.9473
 2769SOL    HW210315   8.240   5.092   5.966  2.3624  1.3059  0.7730
 2770SOL     OW10316   2.500   9.321   2.317 -0.6396 -0.1394 -0.6869
 2770SOL    HW110317   2.526   9.336   2.408 -0.6927 -0.1839 -0.6640
 2770SOL    HW210318   2.421   9.267   2.324 -0.8618  0.1756 -0.7480
 2771SOL     OW10319   7.357   4.566   9.343  0.6000 -0.1740 -0.0974
 2771SOL    HW110320   7.356   4.660   9.326 -1.0338  0.1865  1.6471
 2771SOL    HW210321   7.357   4.525   9.256 -1.2799  1.4548 -0.9274
 2772SOL     OW10322   6.845   3.666  10.140  0.2120 -0.1754 -0.6801
 2772SOL    HW110323   6.760   3.632  10.170 -0.4742 -0.2404 -2.5881
 2772SOL    HW210324   6.909   3.605  10.177 -0.4121  0.5588  1.8158
 2773SOL     OW10325   9.617   8.771   6.340 -0.0798 -0.9344  0.4376
 2773SOL    HW110326   9.651   8.855   6.371 -2.4105 -0.0069  0.6677
 2773SOL    HW210327   9.601   8.785   6.247 -0.0188 -1.2903  0.3730
 2774SOL     OW10328   6.728   4.764   8.646  0.0706  0.3529 -0.4493
 2774SOL    HW110329   6.672   4.816   8.703 -0.7734 -0.1461 -0.8071
 2774SOL    HW210330   6.734   4.679   8.689  0.6100  0.4140 -0.3868
 2775SOL     OW10331   6.519   0.166  10.995  0.0768 -0.2852  0.1356
 2775SOL    HW110332   6.453   0.231  10.971 -0.6193 -1.0553 -0.0375
 2775SOL    HW210333   6.556   0.137  10.912  1.1508  0.6370  0.2489
 2776SOL     OW10334   6.615   1.480   1.290  0.0752  0.2487 -0.2809
 2776SOL    HW110335   6.588   1.502   1.201 -1.2677 -0.0891  0.0146
 2776SOL    HW210336   6.566   1.541   1.345 -0.0809 -0.3799  0.2877
 2777SOL     OW10337   3.922   2.203   1.182 -0.0073 -0.3615 -0.3038
 2777SOL    HW110338   3.896   2.111   1.191 -1.4404  0.1263  0.6600
 2777SOL    HW210339   3.867   2.251   1.243  1.5038  1.0347  0.0393
 2778SOL     OW10340   8.668   4.245   5.508  0.0471  0.2196 -0.3855
 2778SOL    HW110341   8.630   4.157   5.516 -0.2611  0.4187  0.3950
 2778SOL    HW210342   8.760   4.233   5.533  0.0743  0.0715 -0.5504
 2779SOL     OW10343   2.365   4.040   6.970  0.6899 -0.0217 -0.0846
 2779SOL    HW110344   2.425   4.087   6.913 -0.5909  0.9673 -0.6456
 2779SOL    HW210345   2.396   4.060   7.059  0.6921  1.1695 -0.3434
 2780SOL     OW10346   5.458   9.056   9.787  0.0286 -0.1900  0.1184
 2780SOL    HW110347   5.370   9.067   9.752  0.0008 -1.1366 -0.1537
 2780SOL    HW210348   5.477   9.138   9.832 -1.2231 -0.1980  0.6992
 2781SOL     OW10349   7.542   5.222   2.203  0.0193  0.1260  0.0148
 2781SOL    HW110350   7.467   5.229   2.261 -1.0884  0.4798 -1.4044
 2781SOL    HW210351   7.552   5.309   2.164  0.1740 -0.3122 -0.9734
 2782SOL     OW10352   0.718   3.293   2.943 -0.6101 -0.3985 -0.0481
 2782SOL    HW110353   0.637   3.328   2.906 -0.1483  0.7781  0.0049
 2782SOL    HW210354   0.690   3.236   3.015 -1.3607  0.6168  0.4776
 2783SOL     OW10355   1.513   4.438   7.514  0.3929 -0.1208 -0.3417
 2783SOL    HW110356   1.435   4.389   7.539  0.6562 -0.9551 -1.0929
 2783SOL    HW210357   1.515   4.433   7.418 -0.5155  2.8426 -0.6245
 2784SOL     OW10358   8.773   8.407   5.572  0.1391  0.1446  0.8817
 2784SOL    HW110359   8.757   8.378   5.482  1.0305  0.9341  0.4527
 2784SOL    HW210360   8.768   8.327   5.624 -1.8998 -0.1411  0.3695
 2785SOL     OW10361   0.756   4.372   4.720 -0.2122  0.1053 -0.2446
 2785SOL    HW110362   0.662   4.384   4.709 -0.1550 -0.3354 -1.3900
 2785SOL    HW210363   0.772   4.281   4.695  0.3025 -0.3386  1.5733
 2786SOL     OW10364   3.238   1.468   4.797  0.9050  0.0636  0.2485
 2786SOL    HW110365   3.203   1.540   4.850  0.3905 -0.0124  0.0210
 2786SOL    HW210366   3.280   1.510   4.722  2.3431  0.2130  1.1003
 2787SOL     OW10367   7.974   0.066   2.855  0.2380 -0.2834 -0.1148
 2787SOL    HW110368   7.973   0.101   2.944  0.2972 -1.8462  0.5328
 2787SOL    HW210369   8.066   0.048   2.837  0.2333  0.0652 -0.5241
 2788SOL     OW10370   5.542   0.556   0.388  0.1860 -0.2985 -0.1602
 2788SOL    HW110371   5.556   0.466   0.419 -1.4386 -0.6503 -0.3803
 2788SOL    HW210372   5.474   0.591   0.445 -1.0067 -0.0855 -1.6394
 2789SOL     OW10373   2.374  10.309   7.638 -0.1705 -0.3149 -0.0470
 2789SOL    HW110374   2.305  10.263   7.686  0.7341 -2.5326 -0.7512
 2789SOL    HW210375   2.362  10.282   7.547  3.1055 -2.9329  0.1162
 2790SOL     OW10376   9.092   8.794   8.220  0.2293  0.0521 -0.1073
 2790SOL    HW110377   9.102   8.856   8.291 -0.9505  0.1379  0.0088
 2790SOL    HW210378   9.050   8.844   8.150 -1.1469 -0.6859  0.1509
 2791SOL     OW10379   1.608  10.146   1.266 -0.3202  0.6862 -0.2333
 2791SOL    HW110380   1.563  10.148   1.182  0.4137 -0.6523 -0.7002
 2791SOL    HW210381   1.698  10.171   1.246 -0.1801  0.5279  0.1842
 2792SOL     OW10382   5.685   7.780   7.789  0.2247  0.4298 -0.1947
 2792SOL    HW110383   5.768   7.798   7.833  0.5460 -1.5032  0.0855
 2792SOL    HW210384   5.708   7.715   7.722 -1.0008  0.1172 -0.3243
 2793SOL     OW10385   1.624   9.336   1.359 -0.2703  0.4247  0.3084
 2793SOL    HW110386   1.617   9.376   1.446 -0.2721 -1.3954  1.1864
 2793SOL    HW210387   1.580   9.251   1.368 -0.4680  0.2999 -1.5472
 2794SOL     OW10388   7.941  10.507   4.465 -0.0350  0.5439  0.3501
 2794SOL    HW110389   8.005  10.572   4.437  1.0898 -0.8916 -0.5192
 2794SOL    HW210390   7.856  10.546   4.443  0.7039  0.5685 -2.8503
 2795SOL     OW10391  10.664   0.855  10.009 -0.0301 -0.5757  0.1077
 2795SOL    HW110392  10.711   0.851   9.926 -0.6748 -0.7277 -0.2562
 2795SOL    HW210393  10.579   0.813   9.991  0.3680 -1.9493  1.2191
 2796SOL     OW10394  10.772   9.787  10.450  0.3135  0.3306  0.4457
 2796SOL    HW110395  10.788   9.813  10.541 -2.8253  1.8067  0.6730
 2796SOL    HW210396  10.740   9.866  10.407  0.8627 -0.5745 -1.7510
 2797SOL     OW10397   7.139   7.306  10.066  0.1490  0.9111 -0.1065
 2797SOL    HW110398   7.100   7.391  10.046  1.4446  1.5057 -0.1922
 2797SOL    HW210399   7.232   7.317  10.046  0.3335 -0.5332 -0.1273
 2798SOL     OW10400   0.055   0.940   8.301  0.7742 -0.1280 -0.0611
 2798SOL    HW110401   0.063   0.967   8.393  1.5128 -1.8122  0.4203
 2798SOL    HW210402  -0.035   0.911   8.292  0.6841  0.0952  0.1113
 2799SOL     OW10403   2.817   0.564   8.220 -0.1529 -0.1921 -0.1883
 2799SOL    HW110404   2.823   0.471   8.242  0.6296 -0.3724 -1.1378
 2799SOL    HW210405   2.747   0.597   8.277  0.2850 -1.1229  0.9350
 2800SOL     OW10406   5.494   5.537   8.130  0.0507  0.3129 -0.0859
 2800SOL    HW110407   5.485   5.632   8.127 -1.3409  0.2879  1.2796
 2800SOL    HW210408   5.582   5.519   8.098  0.3354  2.0554 -0.3680
 2801SOL     OW10409   0.243   2.413   6.676 -0.3763  0.5030  0.0222
 2801SOL    HW110410   0.158   2.441   6.644 -1.0898 -1.1617  0.3608
 2801SOL    HW210411   0.226   2.379   6.764  0.9275  1.6595  0.7708
 2802SOL     OW10412  10.443   8.667   7.576 -0.0210 -0.3557 -0.3314
 2802SOL    HW110413  10.356   8.630   7.594 -0.7320  0.3523 -2.0700
 2802SOL    HW210414  10.499   8.630   7.644 -0.9232 -3.6313 -1.1942
 2803SOL     OW10415   1.623   9.817   9.143 -0.0439 -0.1785 -0.0776
 2803SOL    HW110416   1.679   9.797   9.218  0.8200  0.6828 -0.4693
 2803SOL    HW210417   1.630   9.912   9.133 -0.7505 -0.1908 -0.7885
 2804SOL     OW10418   4.786   7.298   2.854 -0.4689  0.3367  0.3772
 2804SOL    HW110419   4.723   7.293   2.782  1.1719  0.6702 -1.1665
 2804SOL    HW210420   4.746   7.247   2.925 -2.2804  0.2405 -0.6441
 2805SOL     OW10421   3.442   0.300   1.683 -0.2844  0.0059 -0.4381
 2805SOL    HW110422   3.404   0.235   1.742 -0.0487  0.1805 -0.0926
 2805SOL    HW210423   3.535   0.278   1.679 -0.2860  0.0367 -0.6940
 2806SOL     OW10424   7.471   1.974   1.381  0.2490 -0.5126  0.2152
 2806SOL    HW110425   7.459   2.038   1.450 -1.8119  0.6634 -1.1209
 2806SOL    HW210426   7.544   2.007   1.329 -0.4745  0.5444 -0.1704
 2807SOL     OW10427   7.820  11.021   9.838 -0.3285  0.0364 -0.2777
 2807SOL    HW110428   7.837  11.089   9.903  0.3244 -0.1466 -0.2555
 2807SOL    HW210429   7.886  11.034   9.771 -0.5301 -0.2504 -0.5342
 2808SOL     OW10430   4.619  10.301   2.497  0.3237  0.0671 -0.2598
 2808SOL    HW110431   4.579  10.373   2.545  0.3275 -0.9390  1.3102
 2808SOL    HW210432   4.565  10.292   2.418 -1.0093  0.3644  0.5869
 2809SOL     OW10433   9.287   1.934   7.561 -0.6360 -0.2360 -0.4674
 2809SOL    HW110434   9.243   1.902   7.640  0.7793 -0.6901  0.1742
 2809SOL    HW210435   9.242   1.891   7.489 -1.2760 -0.6376  0.1631
 2810SOL     OW10436   2.381   6.846   9.377 -0.2542  0.2033  0.9688
 2810SOL    HW110437   2.455   6.904   9.359 -0.3322 -0.2857 -1.1988
 2810SOL    HW210438   2.420   6.758   9.378 -0.3521  0.1273  2.9194
 2811SOL     OW10439   2.314   5.884   8.939  0.1177 -0.3839 -0.1508
 2811SOL    HW110440   2.270   5.833   8.871 -0.5637  0.3130 -0.2537
 2811SOL    HW210441   2.330   5.969   8.899  1.5646 -0.6200 -0.0953
 2812SOL     OW10442   3.435   0.289   8.122  0.3867 -0.1227 -0.6382
 2812SOL    HW110443   3.399   0.368   8.081  0.1396 -0.6695 -1.4868
 2812SOL    HW210444   3.524   0.283   8.090  0.3734 -0.2495 -0.6514
 2813SOL     OW10445   7.776   0.867   3.005 -0.0639 -0.3303  0.4831
 2813SOL    HW110446   7.791   0.830   2.917 -1.9343 -0.7628  0.3025
 2813SOL    HW210447   7.851   0.837   3.056  1.2759  0.2405 -1.0378
 2814SOL     OW10448   5.889   0.097   6.241 -0.2361 -0.3788  0.0064
 2814SOL    HW110449   5.819   0.153   6.275 -0.5634 -0.9169  0.2416
 2814SOL    HW210450   5.885   0.019   6.296 -0.7341 -1.2451 -1.2227
 2815SOL     OW10451   4.759   3.159   0.610  0.2669 -0.2432 -0.2934
 2815SOL    HW110452   4.667   3.183   0.609 -0.1125 -1.5813  0.1153
 2815SOL    HW210453   4.806   3.241   0.594 -0.9777  0.4883 -0.2919
 2816SOL     OW10454   8.988   1.893   2.192  0.6869 -0.0089 -0.1031
 2816SOL    HW110455   9.084   1.890   2.199  0.8353  0.8769 -1.4610
 2816SOL    HW210456   8.964   1.804   2.165  1.2261 -0.0102 -0.6178
 2817SOL     OW10457   5.027   9.617   2.354 -0.3384 -0.0080  0.0392
 2817SOL    HW110458   5.096   9.646   2.414 -0.0526 -0.6595  0.0366
 2817SOL    HW210459   4.965   9.571   2.410  0.1492 -1.0014 -0.2160
 2818SOL     OW10460   9.464   4.034   6.338 -0.5256 -0.1389  0.1889
 2818SOL    HW110461   9.415   4.114   6.355 -1.0218 -0.4307  0.1406
 2818SOL    HW210462   9.455   4.020   6.244  1.0565  0.7162 -0.1333
 2819SOL     OW10463   9.935   5.803   0.698  0.6123 -0.3597 -0.4514
 2819SOL    HW110464   9.990   5.764   0.765  2.1735  1.4913 -0.5513
 2819SOL    HW210465   9.846   5.793   0.731  1.2444 -0.6704  1.2578
 2820SOL     OW10466   1.076  10.196   5.511 -0.1673 -0.2456 -0.3270
 2820SOL    HW110467   1.029  10.145   5.577 -1.2088 -1.5653 -1.9804
 2820SOL    HW210468   1.079  10.138   5.435 -1.4640  2.1562 -2.3514
 2821SOL     OW10469   3.926   3.168   0.020 -0.0725  0.1938  0.1310
 2821SOL    HW110470   3.957   3.247  -0.024  0.8913 -0.1033  0.2378
 2821SOL    HW210471   3.835   3.158  -0.008 -0.1473  1.2269 -0.0339
 2822SOL     OW10472   0.647   8.433   1.940 -0.2433 -0.0599 -0.0861
 2822SOL    HW110473   0.580   8.437   2.008 -1.4339 -0.0483 -1.2260
 2822SOL    HW210474   0.606   8.384   1.869  1.2263 -0.6869 -0.5274
 2823SOL     OW10475   9.463  10.061   3.648  0.6969 -0.0347 -0.2032
 2823SOL    HW110476   9.437   9.990   3.707  0.6724  0.5029  0.4454
 2823SOL    HW210477   9.545  10.094   3.686  2.5261 -1.8120 -2.2971
 2824SOL     OW10478   6.841   1.984   6.762  0.0253 -0.1569 -0.7310
 2824SOL    HW110479   6.835   2.074   6.733  1.9086 -0.9033 -4.0163
 2824SOL    HW210480   6.899   1.987   6.838 -0.3304  1.4205 -0.4931
 2825SOL     OW10481  10.420   1.130   0.737 -0.0965  0.2245  0.3324
 2825SOL    HW110482  10.512   1.129   0.763  0.1723  0.2155 -0.6008
 2825SOL    HW210483  10.380   1.059   0.787  0.7650 -0.9061 -0.5488
 2826SOL     OW10484   4.631  10.435   4.568  0.1506 -0.4840  0.3811
 2826SOL    HW110485   4.605  10.388   4.647 -1.3421 -0.6260 -0.1722
 2826SOL    HW210486   4.567  10.506   4.559  0.3549 -0.4096 -0.6475
 2827SOL     OW10487   1.121   8.857  10.449 -0.0640 -0.7648  0.2325
 2827SOL    HW110488   1.197   8.821  10.496  0.0040  0.6101  1.2134
 2827SOL    HW210489   1.158   8.893  10.369 -0.0263 -2.1230 -0.3939
 2828SOL     OW10490  10.221   0.578   9.333  0.1622  0.1002 -0.0081
 2828SOL    HW110491  10.131   0.583   9.364 -0.0486 -1.0653 -0.3481
 2828SOL    HW210492  10.238   0.663   9.293 -0.1341  1.0055  1.7436
 2829SOL     OW10493  10.134   1.599   6.182  0.1504  0.0607 -0.3898
 2829SOL    HW110494  10.060   1.538   6.179 -0.1228  0.3865 -0.3529
 2829SOL    HW210495  10.110   1.663   6.249  1.0519 -0.5670  0.5495
 2830SOL     OW10496  10.736  10.224  10.153  0.8832  0.6959 -0.0462
 2830SOL    HW110497  10.641  10.238  10.156  0.6917 -0.5688  0.7523
 2830SOL    HW210498  10.756  10.216  10.060  0.2193  1.0790 -0.2273
 2831SOL     OW10499   8.026   4.046   6.077  0.3282  0.0402 -0.2062
 2831SOL    HW110500   7.958   4.081   6.021 -0.3099 -3.3760 -1.8081
 2831SOL    HW210501   8.103   4.039   6.021  1.2267  1.2800  0.8185
 2832SOL     OW10502   1.055   6.521   6.991 -0.1540 -0.0850  0.2716
 2832SOL    HW110503   1.112   6.514   7.068 -1.0189  0.6788  1.0108
 2832SOL    HW210504   1.011   6.436   6.986  1.3600 -0.8666 -0.6014
 2833SOL     OW10505   4.005   3.655   9.116  0.1761  0.1679 -0.1921
 2833SOL    HW110506   3.926   3.685   9.162 -0.2599 -1.4501  0.1761
 2833SOL    HW210507   4.057   3.611   9.184  2.4150  2.9097  0.0512
 2834SOL     OW10508   9.702   5.475   0.334  0.0763  0.2098 -0.0715
 2834SOL    HW110509   9.682   5.453   0.243 -2.8670 -0.6894  0.6669
 2834SOL    HW210510   9.690   5.393   0.382  0.1153  0.9750  1.3123
 2835SOL     OW10511   2.797   2.420   2.506  0.2522  0.3843  0.5369
 2835SOL    HW110512   2.778   2.504   2.465  2.1366  1.5224  1.8451
 2835SOL    HW210513   2.861   2.379   2.447  2.6761  1.8585  1.9592
 2836SOL     OW10514   3.233   7.529   6.469 -0.3795 -0.4890  0.1805
 2836SOL    HW110515   3.198   7.472   6.537 -0.1560 -1.6578 -0.6685
 2836SOL    HW210516   3.191   7.499   6.388 -2.0133  2.0078 -0.0215
 2837SOL     OW10517   2.199   6.259  10.772  0.4210 -0.1963  0.0659
 2837SOL    HW110518   2.287   6.297  10.780  0.4360 -0.3951  0.8491
 2837SOL    HW210519   2.212   6.166  10.785  0.0929 -0.2346  0.1229
 2838SOL     OW10520   4.146  10.402   5.331  0.0721  0.2428 -0.3219
 2838SOL    HW110521   4.131  10.454   5.410 -0.4674 -0.6465  0.1935
 2838SOL    HW210522   4.228  10.435   5.294  0.7193  0.2084  1.0188
 2839SOL     OW10523   1.347   3.047   7.783 -0.0832  0.3932 -0.8224
 2839SOL    HW110524   1.324   3.092   7.702  1.7226 -1.6087 -2.5634
 2839SOL    HW210525   1.387   2.965   7.755  1.3152 -0.0597  2.0806
 2840SOL     OW10526   9.600   7.662   7.818 -0.2039  0.1197  0.6133
 2840SOL    HW110527   9.549   7.593   7.777 -0.6665 -0.8140  2.6354
 2840SOL    HW210528   9.539   7.705   7.878  0.7033  0.7276  1.1382
 2841SOL     OW10529   8.070   3.997  10.876  0.1987 -0.4361  0.1099
 2841SOL    HW110530   8.031   3.928  10.822  0.3260 -1.3156  1.1214
 2841SOL    HW210531   8.153   3.961  10.906  0.0374 -0.0548  1.0608
 2842SOL     OW10532   1.254   4.977   9.928 -0.4947  0.3077 -0.2677
 2842SOL    HW110533   1.178   4.961   9.873  0.7032 -0.3537 -1.7820
 2842SOL    HW210534   1.324   4.924   9.890  1.0926  1.9191  0.2612
 2843SOL     OW10535  10.536   2.250   6.796  0.1323 -0.0484 -0.0248
 2843SOL    HW110536  10.442   2.251   6.778  0.2396 -0.2742 -0.6085
 2843SOL    HW210537  10.558   2.342   6.813  0.1470  0.2859 -1.7205
 2844SOL     OW10538   8.460   9.990   4.277 -0.4074 -0.1794  0.4024
 2844SOL    HW110539   8.417   9.905   4.291 -2.5001  0.8187  0.3835
 2844SOL    HW210540   8.527   9.972   4.212 -2.1062 -1.4852 -1.0875
 2845SOL     OW10541   3.856   5.600   0.826  0.4638  0.2287  0.4391
 2845SOL    HW110542   3.946   5.571   0.808  0.8311  1.3151  0.4668
 2845SOL    HW210543   3.856   5.693   0.804 -0.2315  0.6075  1.8950
 2846SOL     OW10544   2.351   2.995   1.780  0.7711 -0.4048  0.1928
 2846SOL    HW110545   2.264   2.990   1.819  1.1082  1.9216  1.4247
 2846SOL    HW210546   2.377   2.904   1.766 -1.3163 -1.1725  0.9902
 2847SOL     OW10547   5.063   4.860   9.450  0.0188 -0.1087  0.2794
 2847SOL    HW110548   5.079   4.781   9.399 -0.9466 -0.9649  1.2480
 2847SOL    HW210549   5.002   4.911   9.398 -1.1179 -1.0669  0.6035
 2848SOL     OW10550   2.505  10.484   5.706  0.0196 -0.4863 -0.8563
 2848SOL    HW110551   2.572  10.460   5.770 -1.2057  0.5149  0.9105
 2848SOL    HW210552   2.546  10.551   5.652  0.3897  0.3491  0.4033
 2849SOL     OW10553   3.545   4.577   0.954 -0.1858  0.2771 -0.2178
 2849SOL    HW110554   3.506   4.664   0.951 -0.3931  0.2461  1.1247
 2849SOL    HW210555   3.599   4.577   1.033  1.2580 -0.2222 -1.1623
 2850SOL     OW10556   2.998   4.892   3.554 -0.1826 -0.2136 -0.2980
 2850SOL    HW110557   2.960   4.818   3.600  0.0357 -0.9508 -1.2815
 2850SOL    HW210558   3.013   4.861   3.465  1.3072  0.5375 -0.3405
 2851SOL     OW10559   5.648   2.657   7.623 -0.0943  0.4570 -0.0783
 2851SOL    HW110560   5.633   2.730   7.683 -0.1334  0.7893 -0.4829
 2851SOL    HW210561   5.563   2.612   7.619 -0.3072  0.8803 -0.4606
 2852SOL     OW10562   3.174  10.833   3.097 -0.1606 -0.4544 -0.0811
 2852SOL    HW110563   3.124  10.768   3.145 -1.1644 -1.5272 -2.4297
 2852SOL    HW210564   3.260  10.835   3.140 -0.8002 -1.7534  1.3241
 2853SOL     OW10565   9.296   7.816   4.507  0.1704 -0.0978  0.4411
 2853SOL    HW110566   9.361   7.881   4.532  0.1313 -0.2858  1.0437
 2853SOL    HW210567   9.345   7.752   4.454  0.4033 -0.0544  0.6026
 2854SOL     OW10568   2.104  10.975   8.700  0.5014 -0.2864 -0.3388
 2854SOL    HW110569   2.041  10.910   8.667  0.1764  0.5654 -1.4635
 2854SOL    HW210570   2.140  10.935   8.779 -1.0287 -1.0568  0.0218
 2855SOL     OW10571   4.015  10.557   3.194 -0.8963 -0.4600  0.2609
 2855SOL    HW110572   3.997  10.594   3.108 -1.8242  0.0238  0.6497
 2855SOL    HW210573   4.090  10.606   3.226  0.3045 -1.5238 -0.7860
 2856SOL     OW10574   4.069   7.498  10.077 -0.2470  0.2405  0.0398
 2856SOL    HW110575   4.156   7.469  10.051 -0.5859 -1.0820  0.2995
 2856SOL    HW210576   4.067   7.484  10.172 -1.0147 -0.5570 -0.0790
 2857SOL     OW10577  10.931   8.502   3.563  0.0912 -0.3744 -0.0248
 2857SOL    HW110578  11.023   8.478   3.552 -0.0660 -1.7289  1.2643
 2857SOL    HW210579  10.900   8.520   3.475  1.0670 -1.9264 -0.7269
 2858SOL     OW10580   9.950   5.655   7.491  0.0716 -0.4441 -0.0981
 2858SOL    HW110581   9.875   5.595   7.491 -0.9339  0.7357 -1.3494
 2858SOL    HW210582   9.962   5.678   7.583 -1.6265 -0.0821  0.0840
 2859SOL     OW10583   3.300   6.271   0.175  0.4277  0.0011 -0.3542
 2859SOL    HW110584   3.317   6.271   0.081  1.9811 -0.2629 -0.1026
 2859SOL    HW210585   3.246   6.194   0.190 -0.3330  0.3802 -1.1065
 2860SOL     OW10586   6.333   5.808   6.772 -0.1323 -0.2417  0.0323
 2860SOL    HW110587   6.258   5.829   6.828 -1.0436 -0.9406 -0.9018
 2860SOL    HW210588   6.406   5.856   6.812 -1.1652  0.8505  0.6797
 2861SOL     OW10589   8.987   4.096   6.509  0.3452  0.1720  0.2287
 2861SOL    HW110590   8.923   4.145   6.561 -0.4113 -1.5800  1.0600
 2861SOL    HW210591   9.072   4.123   6.543 -0.1243 -0.6826  2.2350
 2862SOL     OW10592   8.584   9.659  10.341 -0.2243 -0.0458 -0.0325
 2862SOL    HW110593   8.511   9.605  10.311  0.1169  0.0240 -1.0038
 2862SOL    HW210594   8.638   9.672  10.264  0.3112  0.7209  0.4566
 2863SOL     OW10595   4.137   5.606   3.209  0.2014  0.0742  0.7443
 2863SOL    HW110596   4.227   5.599   3.177 -0.8498  0.9645 -2.9914
 2863SOL    HW210597   4.119   5.523   3.253  2.6415 -0.3236  1.0902
 2864SOL     OW10598   3.396   4.544   4.320  0.1037 -0.2419  0.1765
 2864SOL    HW110599   3.310   4.585   4.318  0.7151  1.1982 -3.0139
 2864SOL    HW210600   3.398   4.488   4.242  2.0032 -0.3754  0.2706
 2865SOL     OW10601   9.052   4.464   6.764 -0.1403  0.1777  0.2755
 2865SOL    HW110602   9.041   4.559   6.758 -0.1380  0.0908 -3.0074
 2865SOL    HW210603   9.131   4.452   6.816  0.6496  2.0492 -0.4158
 2866SOL     OW10604   5.524   0.043   2.542  0.3669 -0.3950  0.0812
 2866SOL    HW110605   5.492  -0.015   2.611 -0.5187  0.8082  0.7154
 2866SOL    HW210606   5.620   0.035   2.546  0.2597 -2.1631 -0.1804
 2867SOL     OW10607   0.796   6.939   8.254 -0.0014  0.0007  0.2505
 2867SOL    HW110608   0.796   6.896   8.168  1.5224 -1.1266  0.7662
 2867SOL    HW210609   0.865   7.005   8.247 -0.5395  0.5697  0.3013
 2868SOL     OW10610   9.186   7.757   0.556 -0.5314  0.3644  0.3240
 2868SOL    HW110611   9.131   7.768   0.633 -0.2716 -0.8487  0.7083
 2868SOL    HW210612   9.138   7.801   0.486 -2.3385 -1.1664  0.5016
 2869SOL     OW10613   2.199   8.150   7.458  0.4134 -0.6509  0.1350
 2869SOL    HW110614   2.259   8.098   7.511  0.6128 -1.8866 -1.2453
 2869SOL    HW210615   2.210   8.117   7.369 -0.7927  0.5351 -0.4945
 2870SOL     OW10616   1.102   1.626   4.046 -0.1555  0.1729  0.6541
 2870SOL    HW110617   1.053   1.567   3.989 -0.1356  0.5781  0.2056
 2870SOL    HW210618   1.180   1.650   3.995 -0.8462  1.6745  0.2464
 2871SOL     OW10619  10.495   0.142   5.981 -0.5501  0.0343 -0.5903
 2871SOL    HW110620  10.474   0.095   6.062  1.6719 -0.4991 -0.2591
 2871SOL    HW210621  10.478   0.234   6.002 -0.6117 -0.1638  0.2817
 2872SOL     OW10622   8.946   1.911   4.231 -0.1735  0.1344  0.3507
 2872SOL    HW110623   9.003   1.906   4.154  1.4223  1.1056  1.3972
 2872SOL    HW210624   8.896   1.992   4.219  0.1763  0.3595  0.3771
 2873SOL     OW10625   5.407   5.480   4.971  0.2992  0.4952  0.2593
 2873SOL    HW110626   5.314   5.460   4.964  0.2777  0.7371 -0.2596
 2873SOL    HW210627   5.428   5.524   4.888  0.5700  1.6612  0.9258
 2874SOL     OW10628   2.876   5.955   7.939 -0.4902 -0.4021 -0.1856
 2874SOL    HW110629   2.823   6.035   7.951 -0.4378 -0.2624 -0.8576
 2874SOL    HW210630   2.890   5.950   7.844  0.4426 -0.6086 -0.0437
 2875SOL     OW10631   1.963   9.837   4.546  0.1778  0.3887 -0.0247
 2875SOL    HW110632   2.044   9.886   4.530 -1.5229  3.7682  0.7066
 2875SOL    HW210633   1.979   9.788   4.626  2.3334 -1.2527 -1.3614
 2876SOL     OW10634   2.002   1.248   7.368 -0.6805  0.0188  0.5167
 2876SOL    HW110635   2.050   1.170   7.343  0.2865  0.6337  0.4138
 2876SOL    HW210636   1.944   1.266   7.293  0.6372  0.6106 -0.3963
 2877SOL     OW10637   3.111   1.479   0.872  0.3776  0.0156  0.2074
 2877SOL    HW110638   3.025   1.438   0.883 -0.6644  2.1675  0.5339
 2877SOL    HW210639   3.135   1.461   0.781 -0.4200 -0.5998  0.1077
 2878SOL     OW10640   6.745   8.193  10.953 -0.0783  0.7316 -0.2746
 2878SOL    HW110641   6.678   8.167  11.016  1.2172 -2.2421  0.0100
 2878SOL    HW210642   6.823   8.211  11.006  0.5261 -0.0405 -0.8844
 2879SOL     OW10643   1.285  10.056   7.606 -0.1861 -0.0225 -0.1517
 2879SOL    HW110644   1.316  10.009   7.683 -1.1336  1.1655  1.0002
 2879SOL    HW210645   1.193  10.029   7.596 -0.1351 -0.0048 -0.7534
 2880SOL     OW10646   8.048  10.982   5.924  0.0335 -0.1550 -0.1059
 2880SOL    HW110647   8.127  11.033   5.907  0.8015 -1.6280 -1.1361
 2880SOL    HW210648   8.030  10.998   6.017  1.1049  0.7914 -0.0300
 2881SOL     OW10649   2.684   4.997   8.592 -0.2083  0.1493 -0.1067
 2881SOL    HW110650   2.617   5.023   8.654 -1.8642 -0.0879 -1.6864
 2881SOL    HW210651   2.712   5.079   8.551  2.6435  0.6354  2.4670
 2882SOL     OW10652   6.550   1.483   9.956  0.0939  0.3342 -0.5247
 2882SOL    HW110653   6.601   1.465   9.878  2.9512 -0.0009  1.2649
 2882SOL    HW210654   6.532   1.397   9.993 -1.2593  0.4876 -0.7840
 2883SOL     OW10655   4.967   2.459   6.915  0.0987  0.7851  0.1128
 2883SOL    HW110656   5.014   2.512   6.980 -1.9642 -0.1386  2.5082
 2883SOL    HW210657   4.882   2.441   6.955 -0.7225 -1.1416 -2.2478
 2884SOL     OW10658   4.529   9.300   9.771 -0.0913 -0.3614  0.4002
 2884SOL    HW110659   4.497   9.217   9.806  0.3882 -0.1566  1.3647
 2884SOL    HW210660   4.620   9.305   9.801 -0.7670  1.5909  2.3979
 2885SOL     OW10661   5.311   8.671   1.121  0.2816  0.6812  0.0246
 2885SOL    HW110662   5.298   8.604   1.188  0.2012  0.0971 -0.5718
 2885SOL    HW210663   5.358   8.741   1.167 -0.2190  0.5125  0.8190
 2886SOL     OW10664   7.941   3.680   9.714  0.8414 -0.5911 -0.0404
 2886SOL    HW110665   7.887   3.611   9.677 -0.3959  0.3373 -0.0039
 2886SOL    HW210666   7.931   3.754   9.654  0.2275  0.3430  1.1576
 2887SOL     OW10667   8.960   1.151   8.108 -0.1851 -0.1489  0.2097
 2887SOL    HW110668   8.919   1.238   8.104 -0.3273 -0.2198  0.1362
 2887SOL    HW210669   8.890   1.093   8.137 -0.6926 -0.6307 -1.8525
 2888SOL     OW10670   9.545  10.806   4.156  0.2167 -0.3292  0.6833
 2888SOL    HW110671   9.547  10.879   4.094  0.5637 -1.0838 -0.2217
 2888SOL    HW210672   9.609  10.830   4.223  1.4938 -0.5000 -0.4395
 2889SOL     OW10673   4.952   7.518   7.597 -0.2739  0.5742 -0.5364
 2889SOL    HW110674   4.885   7.556   7.540 -0.2112  1.8465  0.1854
 2889SOL    HW210675   4.954   7.576   7.673  1.7262  0.6369 -0.5826
 2890SOL     OW10676   5.164   5.695   7.855 -0.1860  0.0394  0.2981
 2890SOL    HW110677   5.076   5.724   7.880 -0.3237  0.3814 -0.5811
 2890SOL    HW210678   5.219   5.773   7.864  0.1293 -0.2781  1.2761
 2891SOL     OW10679   3.776  10.807   4.684 -0.4755  0.6771  0.2335
 2891SOL    HW110680   3.700  10.751   4.696 -2.7327  3.6726  1.2347
 2891SOL    HW210681   3.779  10.823   4.589  0.7006 -1.6159 -0.1789
 2892SOL     OW10682   9.390   1.960   8.073 -0.0695  0.6239 -0.3738
 2892SOL    HW110683   9.295   1.968   8.064  0.0984  0.4200 -3.3258
 2892SOL    HW210684   9.423   2.050   8.068  0.1009  0.5084 -4.8560
 2893SOL     OW10685   7.488   3.328   8.612 -0.3396  0.4473  0.1205
 2893SOL    HW110686   7.546   3.390   8.567 -1.9917  1.3959 -0.8050
 2893SOL    HW210687   7.436   3.383   8.670 -0.2936 -0.4045  0.9933
 2894SOL     OW10688   1.658   5.362   3.349  0.3539  0.1355  0.1136
 2894SOL    HW110689   1.626   5.421   3.281 -0.7831 -0.3813  0.1837
 2894SOL    HW210690   1.729   5.313   3.306  0.4348  0.6331 -0.3366
 2895SOL     OW10691   4.075  10.476   6.819  0.9989  0.7620  0.0372
 2895SOL    HW110692   4.040  10.426   6.745 -0.1318  0.7276  0.5801
 2895SOL    HW210693   4.080  10.566   6.786  0.0896  0.8248  0.0410
 2896SOL     OW10694   0.819   0.883   1.819  0.1610  0.1850 -0.2501
 2896SOL    HW110695   0.907   0.886   1.781 -0.3312  0.3936 -1.3852
 2896SOL    HW210696   0.781   0.801   1.786 -0.2721  0.3665 -0.2060
 2897SOL     OW10697   2.909   4.853   3.096 -0.1780  0.5199  0.2425
 2897SOL    HW110698   2.952   4.902   3.026 -0.4055 -0.8807 -0.9408
 2897SOL    HW210699   2.816   4.874   3.086 -0.0870  1.2744  0.9263
 2898SOL     OW10700   4.982   0.418   8.372  0.0826  0.5756 -0.0130
 2898SOL    HW110701   5.052   0.385   8.315  1.9005  0.3652  2.1980
 2898SOL    HW210702   4.941   0.489   8.322  1.4216  0.2354 -1.6632
 2899SOL     OW10703   7.141  10.509   3.703  0.2944  0.4466  0.6608
 2899SOL    HW110704   7.188  10.502   3.620 -0.2124 -1.9918  0.4816
 2899SOL    HW210705   7.210  10.511   3.770  0.6935  0.7279  0.2450
 2900SOL     OW10706   7.358   5.878   8.781  0.9019 -0.2327  0.0188
 2900SOL    HW110707   7.384   5.969   8.762 -0.0681 -0.3091 -1.8857
 2900SOL    HW210708   7.376   5.831   8.700 -1.3277 -1.1128 -0.0263
 2901SOL     OW10709   8.823   1.861   5.798 -0.2817 -0.0555  0.1883
 2901SOL    HW110710   8.845   1.905   5.716 -1.4167 -1.8006 -1.1180
 2901SOL    HW210711   8.896   1.881   5.856  0.0993  2.0111 -0.9095
 2902SOL     OW10712   4.567   3.436   1.351  0.2889 -0.2925  0.2367
 2902SOL    HW110713   4.512   3.515   1.353  0.6417 -0.0385 -0.1198
 2902SOL    HW210714   4.552   3.395   1.437  0.4155  0.3720  0.5828
 2903SOL     OW10715   5.172   1.545   4.709  0.3136 -0.6516 -0.2786
 2903SOL    HW110716   5.169   1.463   4.661 -0.8907  0.4275 -2.1773
 2903SOL    HW210717   5.265   1.563   4.720  0.6305 -2.9221  1.4826
 2904SOL     OW10718   9.630   5.304   1.596  0.7701  0.7707  0.8134
 2904SOL    HW110719   9.704   5.249   1.621 -0.3246 -0.7715  0.7633
 2904SOL    HW210720   9.553   5.256   1.625 -0.2305  2.4090  0.9965
 2905SOL     OW10721   7.195   4.815   7.655 -0.1800  0.1909  0.5100
 2905SOL    HW110722   7.189   4.910   7.660  1.9963  0.4534 -0.7315
 2905SOL    HW210723   7.120   4.784   7.706 -0.0412  2.5419  2.3216
 2906SOL     OW10724   6.257   5.922   7.064 -0.0820 -0.9887 -0.8943
 2906SOL    HW110725   6.269   5.846   7.120 -2.4173 -0.9580 -0.2657
 2906SOL    HW210726   6.266   5.997   7.123  2.7120 -0.6426 -1.5944
 2907SOL     OW10727   2.188   2.808   5.068 -0.2954 -0.0363 -0.1364
 2907SOL    HW110728   2.160   2.897   5.046 -0.8659  0.0714  0.9880
 2907SOL    HW210729   2.160   2.795   5.158 -1.1460 -1.7404 -0.5967
 2908SOL     OW10730  10.722   6.983   8.600 -0.1800  0.1821 -0.4836
 2908SOL    HW110731  10.629   6.968   8.583 -0.3044 -0.2590  0.5370
 2908SOL    HW210732  10.740   6.936   8.681  0.5777  1.5487  0.1753
 2909SOL     OW10733   1.722   6.064   3.316 -0.2812 -0.3369 -0.2571
 2909SOL    HW110734   1.675   6.051   3.398  1.6973 -0.3335  0.9439
 2909SOL    HW210735   1.740   5.975   3.285  0.5702 -0.3642  0.2962
 2910SOL     OW10736   8.818   8.644   5.756  0.0994  0.3904 -0.4773
 2910SOL    HW110737   8.797   8.564   5.706 -0.4372 -1.1759  2.0493
 2910SOL    HW210738   8.911   8.659   5.739  0.4139 -1.2504 -0.4076
 2911SOL     OW10739   2.324  10.426   3.186 -0.0024  0.0316 -0.2080
 2911SOL    HW110740   2.284  10.507   3.152 -2.1665 -0.8604  0.0515
 2911SOL    HW210741   2.322  10.437   3.281 -1.5708 -0.8284 -0.1047
 2912SOL     OW10742  10.777   4.612   4.583 -0.4263  0.0359 -0.1300
 2912SOL    HW110743  10.805   4.704   4.586  0.4975 -0.2559  0.8498
 2912SOL    HW210744  10.845   4.567   4.534  0.3292 -0.4978  1.3555
 2913SOL     OW10745   3.521   6.669   6.713 -0.1457  0.0458  0.5834
 2913SOL    HW110746   3.607   6.676   6.754  0.1461 -1.0451  0.1907
 2913SOL    HW210747   3.497   6.760   6.694  0.3203  0.4642  1.8815
 2914SOL     OW10748   7.408   1.582   7.025 -0.4780 -0.2917  0.1628
 2914SOL    HW110749   7.446   1.610   6.941  0.9086 -1.1610  0.4617
 2914SOL    HW210750   7.314   1.574   7.007 -0.5399  1.7073 -0.6873
 2915SOL     OW10751   0.940   6.253   1.407 -0.1344  0.2099  0.5314
 2915SOL    HW110752   0.898   6.339   1.403 -0.1298  0.1820 -0.3903
 2915SOL    HW210753   0.978   6.241   1.320  0.6330 -0.3458  0.9331
 2916SOL     OW10754   9.549   3.978   8.098 -0.3271 -0.3304  0.3871
 2916SOL    HW110755   9.544   3.963   8.004 -2.6310  0.8210  0.2477
 2916SOL    HW210756   9.559   4.073   8.107 -1.2840 -0.2829  1.2642
 2917SOL     OW10757   1.424   5.295  10.388 -0.3576  0.4973  0.1398
 2917SOL    HW110758   1.381   5.209  10.377  0.3482  0.1922 -0.3357
 2917SOL    HW210759   1.412   5.316  10.481 -1.0863  0.1859  0.1278
 2918SOL     OW10760   2.096   9.593   4.023  0.0041 -0.6357  0.7181
 2918SOL    HW110761   2.146   9.568   3.945 -0.9168 -2.3993  0.6545
 2918SOL    HW210762   2.050   9.673   3.997  1.1913 -0.1374  0.1092
 2919SOL     OW10763   5.249   8.192   2.314 -0.0906 -0.5333 -0.2178
 2919SOL    HW110764   5.339   8.163   2.300  0.3350  1.4040 -2.2300
 2919SOL    HW210765   5.254   8.288   2.311 -2.3648 -0.3537 -2.1013
 2920SOL     OW10766   3.789   7.961   4.774  0.4906 -0.4571 -0.3686
 2920SOL    HW110767   3.769   7.936   4.864  1.2867 -0.5085 -0.2032
 2920SOL    HW210768   3.715   7.928   4.723 -0.9971  1.3406  0.5140
 2921SOL     OW10769   7.282  10.800   9.293 -0.2028 -0.0377 -0.2080
 2921SOL    HW110770   7.374  10.774   9.285 -0.3236 -0.5865  0.1182
 2921SOL    HW210771   7.270  10.818   9.386 -0.5693 -0.5381 -0.1543
 2922SOL     OW10772   0.466   1.981   1.217 -0.1239 -0.1786  0.2257
 2922SOL    HW110773   0.521   2.050   1.179 -0.3054 -0.8285 -1.2871
 2922SOL    HW210774   0.528   1.917   1.251  0.0486 -0.2556 -0.2326
 2923SOL     OW10775   5.120   3.156   7.529  0.4786  0.0393 -0.4649
 2923SOL    HW110776   5.071   3.219   7.581  0.2066 -1.3028  0.9776
 2923SOL    HW210777   5.174   3.209   7.471 -3.3122  1.6247 -2.8914
 2924SOL     OW10778  10.630   0.054   5.322 -0.0026  0.0559  0.1487
 2924SOL    HW110779  10.644  -0.028   5.369 -1.1774 -0.4198 -0.2792
 2924SOL    HW210780  10.542   0.082   5.350  0.2271  0.9695 -0.0127
 2925SOL     OW10781   8.317   2.645   6.713  0.9727 -0.5484  0.4564
 2925SOL    HW110782   8.225   2.622   6.705  0.6152  0.6161  0.9759
 2925SOL    HW210783   8.329   2.718   6.653  1.6857 -1.0174  0.0177
 2926SOL     OW10784   9.713   6.488   8.126 -0.5624  0.3765 -0.3715
 2926SOL    HW110785   9.624   6.511   8.153 -0.1706  3.8815 -1.5638
 2926SOL    HW210786   9.769   6.554   8.169  1.4942 -1.6286  0.2159
 2927SOL     OW10787   1.834   4.284   1.064  0.0254  0.0949 -0.9169
 2927SOL    HW110788   1.769   4.354   1.055 -0.6032 -0.2981  0.3557
 2927SOL    HW210789   1.903   4.322   1.118 -0.6914 -0.4858  0.4482
 2928SOL     OW10790   4.443   3.362   3.110  0.0489 -0.6826 -0.3078
 2928SOL    HW110791   4.485   3.295   3.055  0.5992 -0.9801  0.4506
 2928SOL    HW210792   4.477   3.445   3.078  1.3506 -0.9241  0.3670
 2929SOL     OW10793   2.708   3.314   9.400 -0.0262  0.2174  0.3694
 2929SOL    HW110794   2.664   3.306   9.315 -0.2167  0.1958  0.4719
 2929SOL    HW210795   2.672   3.244   9.453  1.3131 -0.8590 -0.0660
 2930SOL     OW10796   9.767   1.967   2.265  0.5244 -0.0720  0.2387
 2930SOL    HW110797   9.833   2.028   2.232 -0.4322 -0.3843 -2.5917
 2930SOL    HW210798   9.730   2.011   2.341  2.9891  0.7210  1.0682
 2931SOL     OW10799   8.166   9.926   1.698  0.3504  0.1429  0.0359
 2931SOL    HW110800   8.176   9.856   1.633  0.5638 -0.4036  0.6365
 2931SOL    HW210801   8.138   9.879   1.778  0.6646  0.7279  0.4922
 2932SOL     OW10802   3.065   9.210   1.352 -0.2150 -0.3607 -0.1953
 2932SOL    HW110803   3.101   9.162   1.426  0.3014  1.1952  0.6048
 2932SOL    HW210804   3.002   9.150   1.313  0.6458 -1.7973  0.5424
 2933SOL     OW10805   2.559   4.774  10.549 -0.4984  0.8332 -0.2423
 2933SOL    HW110806   2.583   4.866  10.543 -0.0687  0.6984 -0.5892
 2933SOL    HW210807   2.577   4.750  10.639  0.7924  0.6999 -0.5265
 2934SOL     OW10808   6.504   8.682   7.841  0.5964 -0.0298 -0.5221
 2934SOL    HW110809   6.497   8.650   7.931  0.7658 -1.0798 -0.8666
 2934SOL    HW210810   6.589   8.727   7.837  0.3339  0.5204 -0.0155
 2935SOL     OW10811   9.530   4.160   5.927 -0.7670 -0.8059 -0.2025
 2935SOL    HW110812   9.512   4.081   5.978 -1.1164 -0.6880 -0.1371
 2935SOL    HW210813   9.588   4.212   5.983  0.8474 -1.7478 -0.9313
 2936SOL     OW10814   8.281   1.522   9.034 -0.2438 -0.3077 -0.4385
 2936SOL    HW110815   8.320   1.435   9.022  0.1304 -0.1781 -0.1796
 2936SOL    HW210816   8.330   1.579   8.974 -0.1735 -0.1833 -0.2622
 2937SOL     OW10817   7.744   4.960   3.758  0.3188 -0.3865  0.5689
 2937SOL    HW110818   7.671   4.905   3.728 -1.6400  2.5578 -0.6247
 2937SOL    HW210819   7.719   4.985   3.847 -0.7001  1.3118 -0.1378
 2938SOL     OW10820   6.811   5.818   8.135 -0.0975  0.2058  0.8363
 2938SOL    HW110821   6.736   5.761   8.155  0.4857 -0.6252  0.7055
 2938SOL    HW210822   6.880   5.758   8.107  0.4658  1.0032  0.4684
 2939SOL     OW10823   3.968   5.609   4.557  0.3789 -0.2871  0.4985
 2939SOL    HW110824   3.931   5.524   4.529  0.4576  0.2405 -1.3426
 2939SOL    HW210825   3.895   5.670   4.547  0.8248  0.1762  0.0954
 2940SOL     OW10826   1.161   4.647  10.416 -0.1134  0.2220 -0.0677
 2940SOL    HW110827   1.212   4.665  10.496 -1.8215  1.0683  0.8873
 2940SOL    HW210828   1.197   4.709  10.352  1.2291 -0.4105  0.0350
 2941SOL     OW10829   8.163   5.496   1.252  0.3313 -0.4532  0.1714
 2941SOL    HW110830   8.192   5.466   1.167 -0.2952  0.2987 -0.3226
 2941SOL    HW210831   8.189   5.588   1.256  0.6426 -0.5667  0.9228
 2942SOL     OW10832   3.144  10.682   0.157 -0.1313  0.4448 -0.2280
 2942SOL    HW110833   3.226  10.638   0.137 -0.1075  0.3985 -0.0353
 2942SOL    HW210834   3.096  10.683   0.075 -0.1774 -0.0395 -0.2111
 2943SOL     OW10835   0.625   5.174  10.829  0.2008  0.4620  0.4128
 2943SOL    HW110836   0.671   5.226  10.895 -2.1183  3.7032 -0.2704
 2943SOL    HW210837   0.681   5.179  10.751  1.0663 -0.0706  0.9744
 2944SOL     OW10838   0.801   2.952   6.753 -0.0639 -0.3516  0.6679
 2944SOL    HW110839   0.801   2.953   6.657 -0.0130  1.4752  0.6465
 2944SOL    HW210840   0.735   2.888   6.777  1.0254 -2.0128 -0.5664
 2945SOL     OW10841   8.407   2.073   2.453 -0.2544 -0.1243 -0.1583
 2945SOL    HW110842   8.471   2.077   2.524  0.1152 -1.9998 -0.3205
 2945SOL    HW210843   8.323   2.059   2.496 -0.7220  2.7954  0.0842
 2946SOL     OW10844   1.193   8.027  10.203  0.1860 -0.1075 -0.2762
 2946SOL    HW110845   1.220   7.951  10.152  1.4394 -0.4235  0.8223
 2946SOL    HW210846   1.157   7.990  10.284  0.5969  0.4625  0.1699
 2947SOL     OW10847  10.279   4.524   3.810 -0.6336 -0.3571 -0.5182
 2947SOL    HW110848  10.308   4.449   3.861  0.4236  1.1566  1.2490
 2947SOL    HW210849  10.227   4.577   3.871  2.0835  2.3806 -0.3050
 2948SOL     OW10850   2.632   3.582   9.426  0.0769  0.8496  0.1098
 2948SOL    HW110851   2.683   3.501   9.435 -1.5505 -0.4502 -1.5326
 2948SOL    HW210852   2.593   3.595   9.512 -0.8018 -0.9848  0.0397
 2949SOL     OW10853  10.112   3.728   9.997  0.5959  0.3770 -0.6851
 2949SOL    HW110854  10.108   3.750  10.090  0.1238 -2.1135 -0.0575
 2949SOL    HW210855  10.184   3.782   9.963  0.5603  1.5705  1.0239
 2950SOL     OW10856   2.925   2.281   6.422  0.5020 -0.3720 -0.4077
 2950SOL    HW110857   2.991   2.319   6.480  0.0453 -0.9697  0.5398
 2950SOL    HW210858   2.925   2.337   6.345  2.1772 -0.4152 -0.4728
 2951SOL     OW10859   0.037  10.493   3.506  0.1293 -0.8410  0.1720
 2951SOL    HW110860   0.128  10.465   3.512 -0.3625 -2.3847  1.1494
 2951SOL    HW210861   0.015  10.484   3.413  0.9213 -0.6029 -0.0453
 2952SOL     OW10862   9.078   3.857   9.863  0.5416 -0.2559  0.1426
 2952SOL    HW110863   9.137   3.919   9.904  0.4729 -0.8543  1.1865
 2952SOL    HW210864   9.085   3.778   9.916 -0.1394 -0.8055 -0.5469
 2953SOL     OW10865   7.898  10.788   4.222 -0.1062  0.0315 -0.2610
 2953SOL    HW110866   7.912  10.862   4.163 -0.3810  2.1750  2.1613
 2953SOL    HW210867   7.983  10.774   4.264 -0.0534 -1.0833 -0.6988
 2954SOL     OW10868   5.674   8.418   0.787  0.3696  0.3242 -0.1501
 2954SOL    HW110869   5.596   8.422   0.730 -0.7641  0.1987  1.3379
 2954SOL    HW210870   5.727   8.492   0.758 -0.8704  1.1512 -0.4256
 2955SOL     OW10871   3.164   9.222   2.467  0.9195  0.2259 -0.1555
 2955SOL    HW110872   3.174   9.164   2.543  0.3766  1.2018  0.6793
 2955SOL    HW210873   3.218   9.181   2.399  0.3864 -1.3754  0.3379
 2956SOL     OW10874   9.519   0.528   0.460  0.2466  0.5336  0.3782
 2956SOL    HW110875   9.596   0.480   0.429  0.1311 -0.0589  0.9723
 2956SOL    HW210876   9.551   0.615   0.481  0.2280  1.1206 -1.8713
 2957SOL     OW10877   6.433  10.263   2.978 -0.2219 -0.7752 -0.5897
 2957SOL    HW110878   6.349  10.291   2.941  0.1456 -0.5432 -1.2732
 2957SOL    HW210879   6.473  10.211   2.909 -0.0297 -1.3268 -0.0661
 2958SOL     OW10880   7.187   9.486   0.816 -0.3098  0.2902  0.0362
 2958SOL    HW110881   7.146   9.488   0.902  0.0410  1.5419  0.1988
 2958SOL    HW210882   7.241   9.565   0.813  0.8110 -0.4630 -0.7920
 2959SOL     OW10883   9.156   3.451   6.507 -0.2747 -0.0682  0.0334
 2959SOL    HW110884   9.219   3.521   6.523  0.6552 -0.3799 -1.9681
 2959SOL    HW210885   9.206   3.371   6.524 -1.3011 -0.3312  2.2096
 2960SOL     OW10886   8.075   8.200   6.794 -0.1975 -0.0258  0.2557
 2960SOL    HW110887   8.109   8.276   6.747 -0.7836  0.0495 -0.0440
 2960SOL    HW210888   7.985   8.222   6.815 -0.3920 -0.6543  0.1188
 2961SOL     OW10889   4.905   5.366  11.004 -0.0632 -0.5219  0.1955
 2961SOL    HW110890   4.860   5.379  10.921 -0.0614 -0.2009  0.2434
 2961SOL    HW210891   4.873   5.281  11.036  0.0683 -0.7270 -0.2126
 2962SOL     OW10892  10.316   3.536  10.874  0.4963 -0.0290 -0.0350
 2962SOL    HW110893  10.363   3.574  10.949  0.6875 -1.4624  0.6146
 2962SOL    HW210894  10.383   3.528  10.806  1.2207 -1.9133  0.8350
 2963SOL     OW10895   8.079   2.941   1.473  0.3964  0.0364 -0.2794
 2963SOL    HW110896   8.034   2.971   1.394  0.8525 -0.6816 -0.8212
 2963SOL    HW210897   8.133   3.016   1.500 -1.2970  1.0284  0.5594
 2964SOL     OW10898   4.542  10.154   7.205 -0.7563 -0.6078  0.1487
 2964SOL    HW110899   4.527  10.136   7.298 -1.6279  0.6306  0.2814
 2964SOL    HW210900   4.487  10.091   7.159 -0.4689 -1.1012  0.4669
 2965SOL     OW10901   7.565   5.890   9.034  0.0774  0.1353 -0.3107
 2965SOL    HW110902   7.516   5.808   9.022  0.8360 -0.2062 -1.1495
 2965SOL    HW210903   7.501   5.959   9.013 -0.4677 -0.2479  0.0637
 2966SOL     OW10904   6.296   1.022   5.408  0.4374 -0.5954 -0.5237
 2966SOL    HW110905   6.305   1.114   5.433  2.6147 -1.4002  2.1628
 2966SOL    HW210906   6.212   0.995   5.447  0.5382 -0.1256  0.0414
 2967SOL     OW10907   2.194   8.349   9.035  0.1496 -0.0741  0.3380
 2967SOL    HW110908   2.152   8.263   9.040 -0.5067  0.3118  2.5060
 2967SOL    HW210909   2.125   8.412   9.053  0.5299  1.0007 -1.6434
 2968SOL     OW10910  11.032  10.642   0.532  0.5758 -0.6003 -0.0472
 2968SOL    HW110911  11.004  10.702   0.463  1.1917 -0.7587 -0.4373
 2968SOL    HW210912  11.059  10.700   0.604 -1.4934 -0.4468  0.6616
 2969SOL     OW10913   9.349   8.941   7.472 -0.2581 -0.1599 -0.4838
 2969SOL    HW110914   9.256   8.920   7.475 -0.1553 -0.6573  2.1761
 2969SOL    HW210915   9.380   8.901   7.391 -2.1120 -1.1644 -0.7544
 2970SOL     OW10916   7.365  10.621   2.879  0.0253  0.3209 -0.3616
 2970SOL    HW110917   7.282  10.583   2.851  0.0540  0.5899 -0.8279
 2970SOL    HW210918   7.378  10.589   2.968 -0.8790  0.7784 -0.0597
 2971SOL     OW10919   1.094  10.592   3.876 -0.2998  0.4173 -0.4360
 2971SOL    HW110920   1.008  10.633   3.867 -0.3377  0.1852 -1.1841
 2971SOL    HW210921   1.079  10.499   3.860  0.0336  0.3223 -0.2192
 2972SOL     OW10922   0.231   6.447   8.052 -0.4040 -0.3945 -0.3075
 2972SOL    HW110923   0.313   6.469   8.096 -0.0583 -0.1741 -1.0376
 2972SOL    HW210924   0.174   6.522   8.070 -0.5252 -0.6523  0.3937
 2973SOL     OW10925   8.981  10.482   0.771 -0.4068 -0.0446 -0.1311
 2973SOL    HW110926   8.969  10.430   0.691 -1.8520  1.1281 -0.7349
 2973SOL    HW210927   8.906  10.458   0.825 -0.4202  0.5123  0.0937
 2974SOL     OW10928   0.620   1.421   8.927 -0.1760 -0.2794  0.0095
 2974SOL    HW110929   0.684   1.357   8.896  0.6229  0.8579 -0.7626
 2974SOL    HW210930   0.535   1.382   8.906  0.3019 -0.9632 -0.7070
 2975SOL     OW10931   9.815   1.303   2.136  0.3580 -0.3903 -0.2594
 2975SOL    HW110932   9.877   1.240   2.173 -0.1089 -1.2481 -0.9255
 2975SOL    HW210933   9.861   1.387   2.141  0.7984 -0.6902  1.0825
 2976SOL     OW10934   9.017   7.081   1.859  0.2361  0.4734 -0.1397
 2976SOL    HW110935   9.007   7.161   1.806  1.4265  0.1134 -0.9445
 2976SOL    HW210936   8.933   7.072   1.904 -0.6651  1.0497 -1.6215
 2977SOL     OW10937   0.453   7.707   5.374 -0.3248  0.2129  0.3160
 2977SOL    HW110938   0.401   7.627   5.363 -0.9263  0.8363 -1.9036
 2977SOL    HW210939   0.543   7.679   5.354 -0.0451 -0.4505  2.2761
 2978SOL     OW10940  10.980   5.683   9.092 -0.5177  0.6854  0.7810
 2978SOL    HW110941  10.911   5.718   9.149  0.1286  2.4861  0.5254
 2978SOL    HW210942  11.048   5.654   9.153 -0.1844  1.8295  0.9798
 2979SOL     OW10943   8.302   2.999   0.744  0.1902 -0.2283 -0.2653
 2979SOL    HW110944   8.379   3.032   0.791 -1.1093  1.2768  0.8923
 2979SOL    HW210945   8.318   3.023   0.653 -0.4161  3.2872  0.4126
 2980SOL     OW10946   4.130   8.475   9.823 -0.1678  0.4359 -0.0867
 2980SOL    HW110947   4.146   8.389   9.861 -0.1226  0.4484 -0.0770
 2980SOL    HW210948   4.215   8.502   9.787  0.5511  1.6991  2.3595
 2981SOL     OW10949   9.931   9.091   5.524 -0.4539  0.0066 -0.3127
 2981SOL    HW110950   9.911   9.184   5.520 -0.5792  0.0523  0.9309
 2981SOL    HW210951   9.847   9.047   5.511 -0.4505  0.0748 -0.5642
 2982SOL     OW10952   7.413   6.586   2.854 -0.3718 -0.2453 -0.4975
 2982SOL    HW110953   7.447   6.673   2.830 -2.7169  1.0390  0.4965
 2982SOL    HW210954   7.490   6.540   2.889  0.7884  1.7405 -0.2511
 2983SOL     OW10955   6.256   9.986   3.848 -0.2927  0.0177 -0.8463
 2983SOL    HW110956   6.309   9.925   3.900 -0.6023 -0.2087 -0.7933
 2983SOL    HW210957   6.261   9.952   3.759  0.9900  0.9222 -1.1435
 2984SOL     OW10958   3.754   2.483   8.390  0.2272 -0.2088 -0.4834
 2984SOL    HW110959   3.800   2.541   8.330 -0.4638  0.4670 -0.3658
 2984SOL    HW210960   3.789   2.396   8.370  2.0764  0.3407  0.0748
 2985SOL     OW10961   4.234   0.160   3.488  0.5678 -0.6355  0.0974
 2985SOL    HW110962   4.237   0.081   3.434 -1.7931 -1.6316  1.2534
 2985SOL    HW210963   4.211   0.128   3.575 -1.9827  1.3865  0.2776
 2986SOL     OW10964   4.654   3.735   8.761  0.1609 -0.0709 -0.1287
 2986SOL    HW110965   4.678   3.675   8.690 -0.2285  0.1768 -0.4778
 2986SOL    HW210966   4.737   3.764   8.798  0.3735  0.0042 -0.6595
 2987SOL     OW10967   6.815   4.028   8.056 -0.3759 -0.2863 -0.1233
 2987SOL    HW110968   6.879   4.029   8.127 -0.8641 -0.2943  0.3217
 2987SOL    HW210969   6.795   3.935   8.043 -0.4089 -0.2741 -0.1606
 2988SOL     OW10970   3.024   6.937   6.972  0.1609 -0.0645 -0.7143
 2988SOL    HW110971   3.039   6.948   7.066  0.0126  0.0834 -0.7080
 2988SOL    HW210972   2.978   7.017   6.946 -0.7325 -0.5631 -0.7162
 2989SOL     OW10973   7.621   9.188   0.073  0.9252  0.1572  0.4996
 2989SOL    HW110974   7.663   9.273   0.063  0.9920  0.2537  1.4712
 2989SOL    HW210975   7.649   9.158   0.160 -1.0839  0.2688  1.2261
 2990SOL     OW10976   2.716   3.099   3.593 -0.9935 -0.3355 -0.5471
 2990SOL    HW110977   2.620   3.101   3.588 -1.0934 -0.0451  0.8386
 2990SOL    HW210978   2.745   3.102   3.503 -2.2803  0.6804 -0.9592
 2991SOL     OW10979   5.813  11.029   3.164  0.5633 -0.0528 -0.1175
 2991SOL    HW110980   5.872  11.072   3.102  0.2423 -0.4898 -0.7329
 2991SOL    HW210981   5.845  11.057   3.250  1.0886  0.4615 -0.4677
 2992SOL     OW10982   1.928   2.786   4.316  0.0446 -0.2591 -0.1901
 2992SOL    HW110983   1.921   2.873   4.275 -0.4575 -0.4169 -0.4435
 2992SOL    HW210984   2.019   2.781   4.344 -0.5038  1.4111  2.1789
 2993SOL     OW10985   6.206   5.514   0.464  0.5454  0.0333 -0.5011
 2993SOL    HW110986   6.243   5.465   0.390  1.7034  1.2510 -0.7716
 2993SOL    HW210987   6.283   5.537   0.517 -0.2856 -1.1461  1.3231
 2994SOL     OW10988  10.250   7.833   0.724  0.0742 -0.1536  0.2250
 2994SOL    HW110989  10.341   7.861   0.737 -0.3965  0.9370  1.2910
 2994SOL    HW210990  10.246   7.746   0.764  0.7283 -0.3507 -0.1246
 2995SOL     OW10991   6.971   4.880   1.673  0.0263 -0.5019  0.0943
 2995SOL    HW110992   7.039   4.925   1.623  1.2086 -0.3649  1.7290
 2995SOL    HW210993   6.935   4.815   1.612  2.2755 -1.2149 -0.5776
 2996SOL     OW10994   5.757  10.962   8.686 -0.1744 -0.3304 -0.0290
 2996SOL    HW110995   5.835  10.907   8.682  1.1374  1.4688 -0.3230
 2996SOL    HW210996   5.722  10.959   8.597  0.4020  0.0131 -0.2713
 2997SOL     OW10997   6.343   9.192   2.697 -0.2325  0.0763  0.2691
 2997SOL    HW110998   6.376   9.119   2.645  0.4557  0.0612  0.7136
 2997SOL    HW210999   6.291   9.150   2.766  0.1204  0.0037  0.4943
 2998SOL     OW11000  10.837   0.147   5.684  0.5344  0.2873  0.3228
 2998SOL    HW111001  10.744   0.125   5.685  0.2644  1.1772 -1.4149
 2998SOL    HW211002  10.843   0.232   5.728  0.9865 -1.0854  3.1127
 2999SOL     OW11003   8.008   7.611   1.518 -0.4694 -0.3808 -0.8207
 2999SOL    HW111004   8.043   7.693   1.482  0.1227 -0.8034 -1.2317
 2999SOL    HW211005   8.083   7.552   1.519 -1.0733 -1.1635 -1.2813
 3000SOL     OW11006   6.119   8.961   7.584  0.0880  0.0051 -0.5779
 3000SOL    HW111007   6.127   8.927   7.674 -0.8322 -0.2620 -0.5789
 3000SOL    HW211008   6.187   9.027   7.577  0.9850 -0.8322 -0.0909
 3001SOL     OW11009   5.469   3.899   1.753  0.3919  0.3994 -0.3462
 3001SOL    HW111010   5.391   3.867   1.707  0.8193  0.1433 -0.9081
 3001SOL    HW211011   5.542   3.879   1.694  1.0082 -0.2937  0.6103
 3002SOL     OW11012   6.176   5.905   3.143 -0.0818 -0.8415  0.7657
 3002SOL    HW111013   6.167   5.942   3.055 -0.9404  0.8819  1.5169
 3002SOL    HW211014   6.089   5.872   3.164 -0.2308 -0.0526  1.4441
 3003SOL     OW11015   2.550   2.999   6.430  0.6623  0.0291 -0.2436
 3003SOL    HW111016   2.479   3.061   6.416  0.3587 -0.1188  0.5987
 3003SOL    HW211017   2.621   3.031   6.374  0.5645  1.2246  0.2752
 3004SOL     OW11018   3.227   7.514   5.657 -0.0154 -0.0557 -0.1975
 3004SOL    HW111019   3.174   7.437   5.637  1.0684 -0.8878  0.0385
 3004SOL    HW211020   3.280   7.527   5.579 -0.1740  0.4478 -0.2242
 3005SOL     OW11021   7.135   5.962   6.232  0.8148  0.1245  0.3796
 3005SOL    HW111022   7.201   5.902   6.266  1.5287  0.9637  0.5000
 3005SOL    HW211023   7.134   6.035   6.293 -0.5470 -0.0624  0.6179
 3006SOL     OW11024   8.696   6.023   2.781  0.1930  0.1112  0.6490
 3006SOL    HW111025   8.638   5.958   2.742  1.7752 -0.6256 -0.5440
 3006SOL    HW211026   8.695   6.096   2.719  1.0361 -0.1718  0.2972
 3007SOL     OW11027   7.133   7.357   3.211  0.2326 -0.3950 -0.0437
 3007SOL    HW111028   7.183   7.347   3.292 -1.4190 -1.2008  0.9399
 3007SOL    HW211029   7.198   7.350   3.141  1.4241 -2.0338  1.1376
 3008SOL     OW11030   9.805   0.349   2.411  0.2160 -0.1305 -0.4697
 3008SOL    HW111031   9.751   0.346   2.332  0.3405 -1.4702 -0.5256
 3008SOL    HW211032   9.894   0.360   2.379 -0.0142  2.7880 -0.3541
 3009SOL     OW11033   8.074   8.547   0.373 -0.0025  0.1518  0.2341
 3009SOL    HW111034   8.012   8.578   0.306 -0.5713 -1.2041  0.1012
 3009SOL    HW211035   8.127   8.482   0.328  1.7857  1.5203  0.2653
 3010SOL     OW11036   3.045   7.400   8.003 -0.3278 -0.3463  0.6992
 3010SOL    HW111037   3.042   7.361   8.090 -0.2568  2.4686  2.0948
 3010SOL    HW211038   2.960   7.444   7.993 -0.1329 -0.1940 -0.4102
 3011SOL     OW11039   3.706   2.328   6.643 -0.3863 -0.6179 -0.0153
 3011SOL    HW111040   3.725   2.262   6.576  0.8883  0.1278 -0.4049
 3011SOL    HW211041   3.790   2.346   6.684 -0.7251  0.7332  0.1267
 3012SOL     OW11042   6.649   4.855  10.440  0.3482  0.1023  0.3985
 3012SOL    HW111043   6.681   4.945  10.442  1.4543 -0.1999 -1.1980
 3012SOL    HW211044   6.558   4.862  10.411  0.3768  0.7043  0.4402
 3013SOL     OW11045   2.764   0.853   5.308 -0.3339 -0.1014  0.2416
 3013SOL    HW111046   2.723   0.852   5.394 -0.1245 -1.1004  0.3447
 3013SOL    HW211047   2.774   0.761   5.285 -0.8543  0.1472 -1.0858
 3014SOL     OW11048   0.248  10.022   2.560 -0.2732 -0.1966 -0.3001
 3014SOL    HW111049   0.214  10.083   2.493  1.4048  1.1492 -0.0069
 3014SOL    HW211050   0.233  10.067   2.643  0.2844 -0.5317 -0.0113
 3015SOL     OW11051   1.571   3.135   7.967 -0.7003  0.4213 -0.7285
 3015SOL    HW111052   1.494   3.117   7.913 -1.8436  1.2966  0.5208
 3015SOL    HW211053   1.538   3.128   8.057  0.2374  2.4673 -0.1606
 3016SOL     OW11054   3.479   1.980   0.672 -0.0405 -0.3173 -1.0832
 3016SOL    HW111055   3.569   1.959   0.646  0.4768  1.8727 -1.2074
 3016SOL    HW211056   3.428   1.970   0.592  0.2848 -0.5160 -1.2708
 3017SOL     OW11057   1.674   2.127   2.800 -0.2610 -0.1484 -0.7397
 3017SOL    HW111058   1.723   2.049   2.827  0.3880  0.7672  0.9108
 3017SOL    HW211059   1.583   2.098   2.796 -0.0864 -0.9101  0.2599
 3018SOL     OW11060   2.068   4.489   0.516  0.4105  0.0005 -0.2847
 3018SOL    HW111061   1.973   4.473   0.518  0.6957 -1.8817  0.3982
 3018SOL    HW211062   2.076   4.584   0.527 -1.3887  0.1665  0.0057
 3019SOL     OW11063   0.452  10.821   6.877  0.1187 -0.1598  0.0413
 3019SOL    HW111064   0.379  10.882   6.889 -0.5084 -1.1834  1.7107
 3019SOL    HW211065   0.523  10.875   6.842 -0.4213  1.5245  1.4223
 3020SOL     OW11066   8.622   1.778   2.721 -0.1286  0.3493 -0.0013
 3020SOL    HW111067   8.575   1.843   2.773 -0.2807 -0.1432  0.4855
 3020SOL    HW211068   8.554   1.730   2.675 -0.1522 -0.7148  1.1137
 3021SOL     OW11069   8.731   2.841   9.195  0.6424  0.1271 -0.2946
 3021SOL    HW111070   8.805   2.879   9.242  0.7195 -2.0432  1.4841
 3021SOL    HW211071   8.656   2.853   9.254  0.3109 -0.7949 -0.5108
 3022SOL     OW11072   7.243   4.754  10.342  0.0474  0.1311 -0.4859
 3022SOL    HW111073   7.337   4.742  10.352  0.0755  0.6171 -0.1333
 3022SOL    HW211074   7.211   4.669  10.310  0.7013  0.1985 -1.3543
 3023SOL     OW11075  10.400   2.492   9.009 -0.3029  0.0445 -0.0942
 3023SOL    HW111076  10.449   2.478   9.089 -2.1455  0.0860  1.1081
 3023SOL    HW211077  10.393   2.587   9.001  0.6875  0.0631 -0.8425
 3024SOL     OW11078   6.914   5.256   2.445 -0.4938 -0.3593 -0.2940
 3024SOL    HW111079   6.908   5.176   2.498 -1.1513  1.4643  2.6376
 3024SOL    HW211080   7.006   5.259   2.417 -0.2061 -1.6262  0.4257
 3025SOL     OW11081  10.460   7.009   4.079 -0.6960 -0.2449  0.0984
 3025SOL    HW111082  10.436   6.959   4.002  1.2367 -0.5987 -0.3254
 3025SOL    HW211083  10.478   7.097   4.046  3.0491 -1.0682 -0.5038
 3026SOL     OW11084   6.659   9.766   1.066 -0.2085 -0.2687  0.3502
 3026SOL    HW111085   6.638   9.730   1.153 -0.8263 -0.2534  0.2161
 3026SOL    HW211086   6.752   9.787   1.070 -0.4819  0.8816  1.4290
 3027SOL     OW11087   2.073   7.619   9.631 -0.0379 -0.2745  0.1020
 3027SOL    HW111088   2.081   7.714   9.624  0.3110 -0.2344  1.0108
 3027SOL    HW211089   2.077   7.589   9.540  0.3210  0.5411 -0.1626
 3028SOL     OW11090   6.083   5.969   9.714 -0.1255 -0.1841 -0.4746
 3028SOL    HW111091   6.075   5.879   9.746 -1.5816  0.4565  1.1302
 3028SOL    HW211092   6.158   6.005   9.762 -0.3023 -0.1931 -0.1862
 3029SOL     OW11093   4.920   1.775   1.825 -0.7785  0.0363  0.5463
 3029SOL    HW111094   4.877   1.748   1.744 -0.1964 -1.2696  0.6567
 3029SOL    HW211095   4.973   1.700   1.851  0.4422  1.0850  1.1840
 3030SOL     OW11096   7.396   2.720   9.654 -0.1685  0.2311  0.6266
 3030SOL    HW111097   7.326   2.775   9.689 -3.1506 -1.8571 -1.4729
 3030SOL    HW211098   7.354   2.669   9.585  2.5417 -3.8373  1.6060
 3031SOL     OW11099  10.335   8.701   5.189  0.8593  0.1426  0.5464
 3031SOL    HW111100  10.410   8.757   5.213 -0.0826  0.5083  2.8464
 3031SOL    HW211101  10.279   8.759   5.137  2.1604 -0.1738 -1.3284
 3032SOL     OW11102   7.062   8.070   7.697 -0.2198 -0.1265  0.0012
 3032SOL    HW111103   7.114   8.136   7.744 -0.4936  0.3237 -0.3229
 3032SOL    HW211104   7.128   8.011   7.660  0.0166 -0.2098  0.5410
 3033SOL     OW11105   1.664   9.647   2.642  0.4398  0.1586  0.3920
 3033SOL    HW111106   1.606   9.581   2.605  0.1276  1.3802 -1.4516
 3033SOL    HW211107   1.644   9.647   2.736 -0.5787 -1.3313  0.2066
 3034SOL     OW11108   6.054   5.341   0.779  0.2971  0.3232 -0.3903
 3034SOL    HW111109   5.999   5.362   0.704 -1.4124  0.2772  0.7965
 3034SOL    HW211110   6.133   5.394   0.767  0.4442 -0.2905 -2.6086
 3035SOL     OW11111   9.440   1.398   9.806  0.0418 -0.4795  0.0077
 3035SOL    HW111112   9.378   1.447   9.861 -1.5760 -2.4856  0.0767
 3035SOL    HW211113   9.499   1.465   9.771 -0.8488  1.2434  1.6505
 3036SOL     OW11114   3.084   2.230   0.212 -0.6754  0.0867 -0.2237
 3036SOL    HW111115   3.008   2.272   0.172  0.3762  1.0181 -1.3078
 3036SOL    HW211116   3.151   2.298   0.216 -0.1093 -0.5086  1.3944
 3037SOL     OW11117   4.872   3.324   2.415  0.0599  0.4191 -0.0161
 3037SOL    HW111118   4.884   3.392   2.481  0.4240  1.2605 -0.9229
 3037SOL    HW211119   4.960   3.292   2.398 -0.1478 -0.5703  0.6802
 3038SOL     OW11120   1.614   4.600   8.562  0.3765  0.5747  0.7528
 3038SOL    HW111121   1.587   4.553   8.641 -1.0608  1.2494  0.6941
 3038SOL    HW211122   1.612   4.535   8.493 -1.3649  0.6438  0.7151
 3039SOL     OW11123  10.466  10.836   4.938  0.6176  0.0603 -0.2131
 3039SOL    HW111124  10.385  10.796   4.971  0.1109 -0.0025 -1.4543
 3039SOL    HW211125  10.485  10.786   4.858  0.0488  2.1665 -1.7514
 3040SOL     OW11126  10.598   0.659   6.930 -0.6318  0.0966 -0.1286
 3040SOL    HW111127  10.567   0.725   6.991 -0.4320 -0.0988  0.1895
 3040SOL    HW211128  10.607   0.705   6.847 -2.2483  0.0397 -0.3562
 3041SOL     OW11129   6.913   4.992   7.433 -0.2664 -0.0372 -0.2454
 3041SOL    HW111130   6.965   5.047   7.375  0.2594  0.5197  0.7229
 3041SOL    HW211131   6.943   4.903   7.415 -0.4461  0.0729 -1.1447
 3042SOL     OW11132   7.565   7.942   8.021 -0.2609  0.0646 -0.0336
 3042SOL    HW111133   7.472   7.948   7.999 -0.0985 -1.0870 -1.1633
 3042SOL    HW211134   7.573   7.859   8.069  0.0688  0.5286  0.7248
 3043SOL     OW11135  10.989   4.981   1.366  0.2507  0.1739 -0.1099
 3043SOL    HW111136  10.986   4.887   1.350  1.9285 -0.0447  0.5546
 3043SOL    HW211137  10.996   4.988   1.461  0.8888  0.9206 -0.2019
 3044SOL     OW11138   4.129   5.321   2.135 -0.0770  0.9685  0.2217
 3044SOL    HW111139   4.178   5.380   2.191  0.4478  1.0365 -0.3046
 3044SOL    HW211140   4.115   5.243   2.189  1.4574  0.5583  0.0711
 3045SOL     OW11141   8.590   4.300   8.094 -0.3295 -0.3051 -0.1623
 3045SOL    HW111142   8.682   4.304   8.121 -0.5567  0.4158  0.5434
 3045SOL    HW211143   8.593   4.292   7.998  0.4646 -0.3417 -0.1392
 3046SOL     OW11144   1.855   4.709   0.839  0.2625  0.6030 -0.2174
 3046SOL    HW111145   1.889   4.762   0.767  0.8624  0.4750 -0.0325
 3046SOL    HW211146   1.895   4.623   0.827  2.0271  1.1247  1.4296
 3047SOL     OW11147   8.276   4.093   4.995  0.2405 -0.4842  0.0300
 3047SOL    HW111148   8.226   4.171   4.972  0.9474  0.0574  0.2853
 3047SOL    HW211149   8.214   4.038   5.042  0.5438  1.4712  3.0597
 3048SOL     OW11150   5.092   4.155   0.845  0.1149  0.3586 -0.3238
 3048SOL    HW111151   5.053   4.200   0.770 -0.6601 -0.9154 -0.7254
 3048SOL    HW211152   5.152   4.091   0.806 -0.9465 -0.9229  0.0468
 3049SOL     OW11153   2.979  10.573   9.418  0.4679 -0.2949 -0.2341
 3049SOL    HW111154   3.039  10.587   9.345  1.9823 -2.1316  0.5902
 3049SOL    HW211155   2.958  10.661   9.449  2.4521  0.4071 -0.7682
 3050SOL     OW11156   8.377   8.740   0.970  0.3158  0.1071  0.3992
 3050SOL    HW111157   8.343   8.676   0.907  0.1081  2.0466 -1.5495
 3050SOL    HW211158   8.317   8.733   1.045 -0.5311 -0.9998 -0.3454
 3051SOL     OW11159   9.527   3.801   6.465  0.2726  0.1169  0.8991
 3051SOL    HW111160   9.541   3.886   6.423  1.3023 -0.6957 -0.4970
 3051SOL    HW211161   9.434   3.784   6.454  0.2765  0.5438  0.1247
 3052SOL     OW11162   1.049   6.992   1.473 -0.4982 -0.3996  0.7979
 3052SOL    HW111163   1.030   6.932   1.401 -1.1898 -2.2904  2.4442
 3052SOL    HW211164   0.976   7.054   1.472 -0.4585 -0.3504 -0.1581
 3053SOL     OW11165   8.868   1.841   2.597  0.5863  0.6850  0.8697
 3053SOL    HW111166   8.788   1.829   2.648 -1.1900  0.0802 -1.8608
 3053SOL    HW211167   8.878   1.936   2.591  0.5085  0.7657  1.7964
 3054SOL     OW11168   2.226   4.331   3.383 -0.2100 -0.4643  0.4775
 3054SOL    HW111169   2.165   4.299   3.317  0.8650  1.3216 -1.5163
 3054SOL    HW211170   2.173   4.343   3.462 -1.8978 -1.1430 -0.5084
 3055SOL     OW11171   5.753   5.918   8.194 -0.8768 -0.1944 -0.1976
 3055SOL    HW111172   5.736   5.825   8.208 -0.3394 -0.7837 -2.9518
 3055SOL    HW211173   5.845   5.930   8.217 -1.4542  0.1987  2.2056
 3056SOL     OW11174   5.824   0.469  10.863  0.3022 -0.3478  0.6311
 3056SOL    HW111175   5.802   0.544  10.808 -0.7258 -1.6741 -0.8508
 3056SOL    HW211176   5.740   0.433  10.890  0.7847 -0.6737  1.7412
 3057SOL     OW11177   2.688   4.927   0.174  0.1633  0.1838  0.2775
 3057SOL    HW111178   2.673   5.022   0.170  0.3153  0.1742 -2.2127
 3057SOL    HW211179   2.695   4.908   0.267 -0.6801  2.4878  0.8840
 3058SOL     OW11180   2.367   3.762   6.460 -0.2868 -0.1210  0.6008
 3058SOL    HW111181   2.432   3.695   6.480 -0.6311 -0.5471  0.3163
 3058SOL    HW211182   2.306   3.758   6.534 -0.5889 -0.4858  0.3428
 3059SOL     OW11183   8.110   1.146   3.512  0.4417 -0.3168  0.5806
 3059SOL    HW111184   8.107   1.163   3.418  1.9558  0.9316  0.7176
 3059SOL    HW211185   8.171   1.073   3.521  1.4369  0.5064  0.6737
 3060SOL     OW11186   5.775   9.485   0.689 -0.5717 -0.0483  0.2710
 3060SOL    HW111187   5.784   9.578   0.669  1.0453 -0.1224  0.5168
 3060SOL    HW211188   5.864   9.450   0.681 -0.9966 -1.3895  1.0716
 3061SOL     OW11189   6.133   3.070  10.593 -0.8733  0.1721  0.2689
 3061SOL    HW111190   6.202   3.137  10.599 -1.6399  0.9233  0.9464
 3061SOL    HW211191   6.174   2.991  10.629 -0.7080  0.9065  1.7727
 3062SOL     OW11192   0.899   3.006   2.721 -0.3372 -0.3734  0.1133
 3062SOL    HW111193   0.804   3.001   2.735 -0.3910 -0.2289 -0.1819
 3062SOL    HW211194   0.933   3.047   2.800 -0.3590 -1.6646  0.8103
 3063SOL     OW11195   0.532   2.872   0.400  0.4955  0.2973  0.2396
 3063SOL    HW111196   0.584   2.805   0.357 -1.6266 -0.4824 -1.3060
 3063SOL    HW211197   0.520   2.841   0.489  2.9217  0.7235  0.7967
 3064SOL     OW11198   0.867  10.001   1.478 -0.2792  0.2351 -0.4140
 3064SOL    HW111199   0.954   9.982   1.444  0.1852  0.5822  0.5362
 3064SOL    HW211200   0.823  10.048   1.408  0.6069  0.8300 -0.5867
 3065SOL     OW11201  10.660   3.895   6.333  0.5234 -0.9452  0.6633
 3065SOL    HW111202  10.728   3.959   6.315 -0.7968  0.4992  0.5984
 3065SOL    HW211203  10.633   3.864   6.247 -1.0874  0.8998  0.4439
 3066SOL     OW11204  10.348   3.785   2.465  0.3540 -0.7405 -0.0692
 3066SOL    HW111205  10.271   3.841   2.459 -0.6160 -1.8910  1.0218
 3066SOL    HW211206  10.420   3.838   2.431 -0.3706  1.4266  1.5687
 3067SOL     OW11207   8.285   8.866   6.518 -0.6930  0.5719  0.6191
 3067SOL    HW111208   8.245   8.924   6.584 -0.8235  2.0414 -0.6870
 3067SOL    HW211209   8.212   8.835   6.466 -0.3968  1.3836 -0.3181
 3068SOL     OW11210   7.661   7.688   0.679  0.0555 -0.3784 -0.0272
 3068SOL    HW111211   7.606   7.623   0.723 -1.4447  0.4475 -0.6040
 3068SOL    HW211212   7.627   7.692   0.590  2.1377 -0.9926 -0.8976
 3069SOL     OW11213  10.546   7.420   4.587  0.9606  0.0908  0.2648
 3069SOL    HW111214  10.524   7.328   4.572  1.4509 -0.2526  1.4923
 3069SOL    HW211215  10.582   7.450   4.503 -1.0852 -0.2268 -0.7921
 3070SOL     OW11216   3.172   0.951   0.663  0.5095  0.4089 -0.5397
 3070SOL    HW111217   3.181   0.857   0.647  0.5364  0.5565 -1.4736
 3070SOL    HW211218   3.225   0.968   0.740 -0.5289 -0.5550  0.4258
 3071SOL     OW11219   5.839   5.109   1.185  0.1368  0.5276 -0.3076
 3071SOL    HW111220   5.812   5.164   1.112 -0.1594  0.8431  0.0326
 3071SOL    HW211221   5.790   5.028   1.173  0.5066  0.3681 -0.7599
 3072SOL     OW11222  10.762   4.082   5.271 -0.6336  0.5162  0.3271
 3072SOL    HW111223  10.785   4.024   5.343 -2.7918  0.5630  1.1355
 3072SOL    HW211224  10.736   4.023   5.200 -4.1205  0.2876  1.5763
 3073SOL     OW11225   7.883  10.575   2.003 -0.3977 -0.0006  0.3478
 3073SOL    HW111226   7.836  10.658   2.005 -0.8793 -0.2622  0.1036
 3073SOL    HW211227   7.905  10.558   2.095  1.0684  1.1433  0.2459
 3074SOL     OW11228   6.200   4.563   3.549  0.0797  0.0612  0.4873
 3074SOL    HW111229   6.167   4.612   3.625  0.1470 -0.5156  0.8988
 3074SOL    HW211230   6.250   4.491   3.588  0.3157 -0.1011 -0.1151
 3075SOL     OW11231   8.400   0.411   1.734  0.0367  0.3516  0.0634
 3075SOL    HW111232   8.433   0.400   1.823  1.1111 -0.7278 -0.4421
 3075SOL    HW211233   8.354   0.495   1.736  1.3547  1.0895  1.2355
 3076SOL     OW11234   2.828   4.906   1.476 -0.0017 -0.3674  0.2115
 3076SOL    HW111235   2.843   4.811   1.485 -1.8483 -0.6570  0.5143
 3076SOL    HW211236   2.750   4.913   1.422 -1.2438  0.9172  2.0822
 3077SOL     OW11237   7.412   6.087   4.532 -0.2960 -0.3879 -0.3155
 3077SOL    HW111238   7.426   6.182   4.531 -0.0978 -0.4175 -0.9356
 3077SOL    HW211239   7.430   6.061   4.622 -0.2847  0.1565 -0.1583
 3078SOL     OW11240   0.428   4.769   8.393  0.5953 -0.2605 -0.2412
 3078SOL    HW111241   0.458   4.749   8.482 -0.6373  1.5483  0.6339
 3078SOL    HW211242   0.370   4.696   8.370  0.1292 -0.2579  0.8636
 3079SOL     OW11243   0.547   6.653   5.175  0.7337 -0.0037 -0.1885
 3079SOL    HW111244   0.594   6.572   5.154  1.5293  1.0361 -2.9138
 3079SOL    HW211245   0.456   6.634   5.150  0.8090 -0.2300 -0.2970
 3080SOL     OW11246   2.880   3.564   2.367 -0.7040 -0.1239 -0.5789
 3080SOL    HW111247   2.881   3.483   2.317 -0.8597  0.4376 -1.5197
 3080SOL    HW211248   2.942   3.549   2.438  0.0287 -0.7081 -1.3221
 3081SOL     OW11249  10.004   0.772  10.839 -0.4084  0.1264 -0.2557
 3081SOL    HW111250   9.979   0.725  10.919 -0.4318  0.3652 -0.1223
 3081SOL    HW211251   9.940   0.844  10.832  1.0834  1.6463  0.8963
 3082SOL     OW11252   8.797   5.281   9.189  0.0338 -0.1083  0.1609
 3082SOL    HW111253   8.753   5.359   9.224  1.0331 -0.0674  1.4157
 3082SOL    HW211254   8.800   5.295   9.095 -0.4874  1.0079  0.2959
 3083SOL     OW11255   2.927   3.517   8.713 -0.4771  0.1150  0.4783
 3083SOL    HW111256   2.989   3.519   8.786  1.6824 -1.0043 -1.2396
 3083SOL    HW211257   2.865   3.588   8.733  0.9312  0.8510  2.6089
 3084SOL     OW11258   2.838  10.244  10.510 -0.5355  0.0151  0.0640
 3084SOL    HW111259   2.806  10.329  10.541  0.1089  0.2258  0.1658
 3084SOL    HW211260   2.784  10.225  10.433 -1.1337  0.1978  0.4265
 3085SOL     OW11261   5.696   6.281   4.255  0.1627  0.5713  0.1778
 3085SOL    HW111262   5.663   6.200   4.296  1.1791  0.7723  1.4685
 3085SOL    HW211263   5.738   6.251   4.174 -1.8289  0.1504 -0.7675
 3086SOL     OW11264   6.414   5.436   6.749 -0.0563  0.1165  0.0704
 3086SOL    HW111265   6.413   5.365   6.684 -2.1522  0.5567 -0.4418
 3086SOL    HW211266   6.357   5.406   6.819  0.9928  0.2995  1.0436
 3087SOL     OW11267   1.738   5.576   9.249 -1.0497 -0.2263  0.1404
 3087SOL    HW111268   1.747   5.488   9.286 -2.2958  0.2706  1.7113
 3087SOL    HW211269   1.797   5.630   9.301 -0.8299  0.0224 -0.3565
 3088SOL     OW11270   5.940   0.787   7.100  0.2066  0.1190  0.2341
 3088SOL    HW111271   5.894   0.849   7.044 -1.2405 -0.2599  0.9563
 3088SOL    HW211272   6.003   0.841   7.149 -1.9541  1.3256  1.8570
 3089SOL     OW11273   9.774   1.574  10.685 -0.2205  0.0420  0.6303
 3089SOL    HW111274   9.810   1.487  10.700  2.6974  0.5632 -2.0776
 3089SOL    HW211275   9.819   1.630  10.749 -1.6310 -0.2794  1.9524
 3090SOL     OW11276   5.769   3.533   7.004 -0.0928 -0.0565  0.6785
 3090SOL    HW111277   5.770   3.438   7.002 -0.1637 -0.0550  0.5623
 3090SOL    HW211278   5.812   3.556   7.087 -1.1703 -0.2218  1.3037
 3091SOL     OW11279   7.522   7.437   7.141  0.6617  0.0824 -0.0259
 3091SOL    HW111280   7.487   7.398   7.221  0.1911  1.2663  0.3570
 3091SOL    HW211281   7.562   7.363   7.094 -3.7621 -1.8856 -1.3112
 3092SOL     OW11282   0.687   7.929   2.172  0.2170 -0.5450  0.1365
 3092SOL    HW111283   0.694   7.925   2.076 -0.5532 -0.4312  0.0724
 3092SOL    HW211284   0.703   8.021   2.193 -4.2652  0.5320 -0.3180
 3093SOL     OW11285   0.377   3.459   6.480  0.7671 -0.0128  0.7097
 3093SOL    HW111286   0.368   3.551   6.503  0.4973 -0.0090  0.5865
 3093SOL    HW211287   0.421   3.419   6.556  1.4703  0.3392  0.4954
 3094SOL     OW11288   9.925   2.374   9.824  0.2770 -0.3045 -0.1490
 3094SOL    HW111289   9.837   2.357   9.790  0.5086  1.7620 -2.0713
 3094SOL    HW211290   9.983   2.334   9.759  0.7544 -0.1960  0.2092
 3095SOL     OW11291   0.016   6.819   0.531  0.6767  0.0176  0.2873
 3095SOL    HW111292   0.046   6.909   0.518  2.6996 -0.4885  1.0949
 3095SOL    HW211293   0.013   6.808   0.626 -1.5204 -0.2054  0.2529
 3096SOL     OW11294   9.585   9.802   9.518 -0.3432  0.0080  0.1799
 3096SOL    HW111295   9.491   9.807   9.537 -0.4353  2.1661 -0.4776
 3096SOL    HW211296   9.620   9.743   9.584 -2.1109 -0.6464  0.6075
 3097SOL     OW11297   8.973  10.274   8.681  0.1704 -0.3701 -0.2435
 3097SOL    HW111298   9.020  10.225   8.749  0.3957 -0.1716 -0.2523
 3097SOL    HW211299   8.996  10.365   8.697  1.5945 -0.4445 -1.5995
 3098SOL     OW11300   5.485   0.050   7.369  0.1222  0.1462  0.2692
 3098SOL    HW111301   5.440   0.098   7.439 -0.9960  0.1815 -0.4534
 3098SOL    HW211302   5.449  -0.039   7.374 -0.0337  0.1732 -0.3142
 3099SOL     OW11303   2.311   3.145   0.647 -0.1201 -0.6920 -0.0989
 3099SOL    HW111304   2.249   3.210   0.679  0.6300  0.5500 -1.0630
 3099SOL    HW211305   2.381   3.144   0.713 -0.4759 -1.0598  0.2773
 3100SOL     OW11306   1.331   7.737   6.164 -0.0913  0.3259  0.2855
 3100SOL    HW111307   1.266   7.704   6.102 -0.4975 -0.2385  0.9955
 3100SOL    HW211308   1.390   7.663   6.178  1.2760  1.1151 -1.0637
 3101SOL     OW11309   9.631   2.546   4.711 -0.4007  0.3775 -0.1590
 3101SOL    HW111310   9.646   2.538   4.616  0.3914  0.5595 -0.0544
 3101SOL    HW211311   9.589   2.632   4.720 -0.8341  0.1948 -0.3788
 3102SOL     OW11312   5.375   0.607  10.719  0.3914  0.7985 -0.0671
 3102SOL    HW111313   5.413   0.687  10.682 -0.4963  0.6220 -1.4441
 3102SOL    HW211314   5.323   0.637  10.794  2.3434  1.1544  1.2042
 3103SOL     OW11315   2.078   0.701   0.028  0.1573  0.8418 -0.6812
 3103SOL    HW111316   2.155   0.645   0.021 -0.0459  0.6573 -1.6418
 3103SOL    HW211317   2.006   0.646  -0.005 -0.3665  1.0475  0.0970
 3104SOL     OW11318   5.542   2.884   7.745  0.0072 -0.3864 -0.2059
 3104SOL    HW111319   5.590   2.952   7.792  1.8674 -2.6085  1.3623
 3104SOL    HW211320   5.457   2.923   7.726  0.2192  1.6599  2.4555
 3105SOL     OW11321   2.649   4.098   9.510  0.4290  0.1987 -0.6353
 3105SOL    HW111322   2.594   4.019   9.506  1.6539 -0.6432 -1.7509
 3105SOL    HW211323   2.590   4.169   9.485 -0.8297 -0.2556  0.8789
 3106SOL     OW11324   0.050  10.439   6.008  0.2122 -0.4708  0.4314
 3106SOL    HW111325   0.117  10.408   6.069  0.5578 -1.9733 -0.6320
 3106SOL    HW211326   0.076  10.400   5.924 -0.1971  1.5860 -0.6969
 3107SOL     OW11327   1.019   3.312   5.741  1.1273 -0.4004  0.1464
 3107SOL    HW111328   1.036   3.326   5.648  2.2447  0.1069  0.4140
 3107SOL    HW211329   1.024   3.399   5.780 -0.1788 -0.4942  0.5696
 3108SOL     OW11330  10.933   7.118   1.066 -0.2365 -0.0862 -0.4315
 3108SOL    HW111331  11.009   7.175   1.067  0.8742 -1.5059  0.6937
 3108SOL    HW211332  10.954   7.048   1.129 -2.1678 -0.8971 -0.6029
 3109SOL     OW11333   2.008   4.815   3.823  1.0732  0.1275 -0.6213
 3109SOL    HW111334   1.915   4.793   3.823  1.3211 -1.0588 -1.6946
 3109SOL    HW211335   2.016   4.887   3.885 -0.3554 -0.6039  0.4715
 3110SOL     OW11336   9.882   0.649   3.857  0.5071 -0.2843 -0.2043
 3110SOL    HW111337   9.872   0.676   3.949  4.4567  0.1552  0.2719
 3110SOL    HW211338   9.911   0.728   3.812 -1.0558 -0.5914 -1.8429
 3111SOL     OW11339   5.526   2.718   1.697 -0.3281 -0.0867 -0.2147
 3111SOL    HW111340   5.467   2.665   1.750  0.7098 -0.9550  0.1006
 3111SOL    HW211341   5.545   2.794   1.751  0.8750 -1.0532  0.7776
 3112SOL     OW11342   9.249   0.277   9.968  0.3679  0.3741  0.0737
 3112SOL    HW111343   9.261   0.331  10.046  1.1719 -1.5866  1.4060
 3112SOL    HW211344   9.332   0.285   9.921 -0.5234  2.4714 -1.2691
 3113SOL     OW11345   6.664   1.820   4.159  0.3655  0.3401  0.0361
 3113SOL    HW111346   6.661   1.763   4.082  0.8430 -0.5039  0.6249
 3113SOL    HW211347   6.608   1.776   4.224  1.4780  0.0397  0.8142
 3114SOL     OW11348   2.958   6.110   0.197 -0.2309  0.2356  0.3759
 3114SOL    HW111349   2.915   6.192   0.222 -2.0329 -0.5436 -0.0041
 3114SOL    HW211350   2.903   6.042   0.234  0.7237 -0.8287 -0.1052
 3115SOL     OW11351   6.642   5.552   9.666  0.1325  0.2922  0.9188
 3115SOL    HW111352   6.564   5.543   9.611  1.3523 -3.6247 -0.5069
 3115SOL    HW211353   6.676   5.463   9.673  2.8673  1.4070  3.9657
 3116SOL     OW11354   0.665  10.647   9.397 -0.5472  0.0486  0.5457
 3116SOL    HW111355   0.697  10.671   9.484 -0.3190 -0.3922  0.5851
 3116SOL    HW211356   0.691  10.556   9.386 -1.3834 -0.1804  0.3836
 3117SOL     OW11357   6.221   4.024   3.649  0.7492  0.4396 -0.2538
 3117SOL    HW111358   6.253   3.949   3.599  1.7841  0.5013  0.2854
 3117SOL    HW211359   6.257   4.010   3.737  0.1389  1.0639  0.0984
 3118SOL     OW11360   1.125  10.946   6.455 -0.3338  0.2374 -0.3650
 3118SOL    HW111361   1.121  11.003   6.531 -1.6770  2.6495 -2.0998
 3118SOL    HW211362   1.091  10.999   6.383  0.4615 -2.0447 -2.5925
 3119SOL     OW11363   5.253   7.214   0.562 -0.4221 -0.4007  0.3257
 3119SOL    HW111364   5.258   7.196   0.656 -0.4067 -1.4729  0.1327
 3119SOL    HW211365   5.338   7.186   0.528 -0.3093  0.2831  0.0416
 3120SOL     OW11366   7.210  10.649   2.584 -0.2985  0.2529 -0.1959
 3120SOL    HW111367   7.279  10.619   2.524  2.4412  2.6833  1.4524
 3120SOL    HW211368   7.212  10.586   2.656 -0.4090 -0.1707 -0.5622
 3121SOL     OW11369   5.350   8.961   3.748  0.2412  0.3310 -0.2755
 3121SOL    HW111370   5.389   8.927   3.829  0.7593 -0.6649 -0.9218
 3121SOL    HW211371   5.425   8.981   3.692 -0.0737  2.1419 -0.0982
 3122SOL     OW11372   1.781   4.624   2.070  0.2707 -0.0811 -0.3897
 3122SOL    HW111373   1.792   4.673   2.151 -1.1593  2.1386 -1.4404
 3122SOL    HW211374   1.705   4.664   2.028 -0.4321 -2.6690 -1.7798
 3123SOL     OW11375   9.197   8.983  10.933  0.0623 -0.1564  0.6577
 3123SOL    HW111376   9.258   9.055  10.950 -0.6880  0.0080  2.9014
 3123SOL    HW211377   9.216   8.918  11.001 -1.9433 -0.2969  1.1415
 3124SOL     OW11378  10.111   8.821   2.029  0.0608  0.0889 -0.0573
 3124SOL    HW111379  10.038   8.761   2.015  0.5721 -0.7900  0.9181
 3124SOL    HW211380  10.073   8.894   2.079 -0.0317 -0.6876  1.0431
 3125SOL     OW11381   0.902   4.582   3.227  0.3000  0.2687 -0.1136
 3125SOL    HW111382   0.990   4.574   3.190 -0.4613  0.5057 -2.1227
 3125SOL    HW211383   0.885   4.676   3.229 -0.2316  0.1952 -0.6349
 3126SOL     OW11384   9.529   1.779   5.653 -0.1817  0.5880 -0.4858
 3126SOL    HW111385   9.593   1.850   5.647 -0.4109  0.8116 -0.3073
 3126SOL    HW211386   9.452   1.813   5.608 -0.9969  1.2461  1.3113
 3127SOL     OW11387  10.779   3.558  10.733 -0.3998  0.6051 -0.1536
 3127SOL    HW111388  10.782   3.518  10.820 -0.3101  0.9658  0.0118
 3127SOL    HW211389  10.808   3.648  10.747  1.8864  0.0621 -0.8975
 3128SOL     OW11390   5.683   6.596  10.685 -0.0584  0.5924  0.3439
 3128SOL    HW111391   5.633   6.527  10.640  2.1289  0.5609 -2.2118
 3128SOL    HW211392   5.773   6.564  10.686  0.8789  3.0338 -0.1326
 3129SOL     OW11393   5.018   2.308   6.426  0.2945  0.0550  0.2319
 3129SOL    HW111394   5.042   2.254   6.350  0.2058  1.1223 -0.5835
 3129SOL    HW211395   4.940   2.266   6.462 -0.0046 -0.1505 -0.6268
 3130SOL     OW11396   1.658  10.829   8.741  0.1102 -0.4437  0.1711
 3130SOL    HW111397   1.564  10.822   8.753  0.2094 -0.9620  0.6924
 3130SOL    HW211398   1.676  10.923   8.740 -0.4231 -0.3439 -0.0365
 3131SOL     OW11399   2.334   3.662   5.794 -0.3567  0.0948 -0.0722
 3131SOL    HW111400   2.308   3.698   5.709  0.1999  1.0589  0.1438
 3131SOL    HW211401   2.404   3.600   5.773  0.6463  1.2275 -0.2513
 3132SOL     OW11402   8.154   7.471   7.265 -0.0794  0.1457  0.0755
 3132SOL    HW111403   8.133   7.391   7.215  0.5908 -0.3287  0.5340
 3132SOL    HW211404   8.104   7.540   7.222 -0.1107 -0.3948 -0.7784
 3133SOL     OW11405  10.287   9.530   3.495 -0.1891  0.0564 -0.1892
 3133SOL    HW111406  10.343   9.458   3.523 -1.9942 -0.5473  2.2530
 3133SOL    HW211407  10.307   9.601   3.555  0.6127  1.1996 -1.7363
 3134SOL     OW11408  10.177   2.085   9.852  0.5033  0.2056  0.1074
 3134SOL    HW111409  10.128   2.130   9.785  1.5568  2.6963  0.8987
 3134SOL    HW211410  10.184   2.148   9.924  0.0195 -2.0784  2.2964
 3135SOL     OW11411   8.887   2.205  10.258  0.3795 -0.1397 -0.5659
 3135SOL    HW111412   8.844   2.253  10.187  0.9811 -0.6821 -1.3168
 3135SOL    HW211413   8.906   2.119  10.220  1.9930  0.0319 -0.2191
 3136SOL     OW11414   2.997   8.219   2.331 -0.4470 -0.3113 -0.3388
 3136SOL    HW111415   2.965   8.129   2.337 -0.3571 -0.5870 -2.8110
 3136SOL    HW211416   2.923   8.272   2.359 -0.3738 -1.1084  1.5518
 3137SOL     OW11417   0.502   6.483   1.540  0.2735 -0.0878 -0.5735
 3137SOL    HW111418   0.506   6.425   1.617  0.4422  1.1935  0.4248
 3137SOL    HW211419   0.481   6.569   1.576 -2.3065  0.0839 -2.2459
 3138SOL     OW11420   6.466   1.243   9.283  0.2524 -0.2652  0.3520
 3138SOL    HW111421   6.554   1.214   9.259  0.7414  1.6644 -0.4134
 3138SOL    HW211422   6.410   1.211   9.213  0.6581  0.0420 -0.1161
 3139SOL     OW11423   7.999   3.114   0.952 -0.0102 -0.2750  0.4194
 3139SOL    HW111424   8.049   3.165   1.015 -0.9416 -1.1960  1.9658
 3139SOL    HW211425   7.943   3.177   0.907  0.0564  0.2791  1.1149
 3140SOL     OW11426   3.387   4.361   2.110  0.0761  0.0244 -0.3556
 3140SOL    HW111427   3.311   4.310   2.139 -0.0768  1.1513  1.4307
 3140SOL    HW211428   3.350   4.442   2.076  0.4433  0.4085  0.1443
 3141SOL     OW11429   4.512   2.735   2.884  0.0278  0.1523 -0.2506
 3141SOL    HW111430   4.583   2.678   2.913  0.2350 -0.4251 -1.8061
 3141SOL    HW211431   4.448   2.732   2.956  0.0178 -2.0720 -0.2637
 3142SOL     OW11432   0.781   8.761   7.528 -0.3542 -0.0685  0.5088
 3142SOL    HW111433   0.724   8.784   7.456 -1.4097 -1.2779  0.9203
 3142SOL    HW211434   0.850   8.707   7.489 -0.7695 -0.4913  0.3584
 3143SOL     OW11435   3.897   0.573   7.192 -0.0106  0.0203 -0.8498
 3143SOL    HW111436   3.862   0.489   7.164  1.1446 -0.8160  0.1339
 3143SOL    HW211437   3.943   0.606   7.115 -1.7136  0.5016 -1.7240
 3144SOL     OW11438   0.118   8.270   0.500  0.1756 -0.4214  0.5865
 3144SOL    HW111439   0.038   8.293   0.453 -0.7918  0.6963  2.6234
 3144SOL    HW211440   0.188   8.318   0.457 -0.3355 -0.8981 -0.8181
 3145SOL     OW11441   7.757  10.803  10.837 -0.1151 -0.0031 -0.7424
 3145SOL    HW111442   7.790  10.822  10.749  1.1807 -1.0764 -0.5192
 3145SOL    HW211443   7.789  10.714  10.856  0.4625  0.5722  1.1835
 3146SOL     OW11444   9.807   3.221   9.173  0.5047  0.1037 -0.3494
 3146SOL    HW111445   9.808   3.292   9.237 -0.6887  0.3014 -0.5328
 3146SOL    HW211446   9.765   3.148   9.219 -0.1301  0.1687 -0.8195
 3147SOL     OW11447   9.194   8.603   8.025  0.1333 -0.2201 -0.0388
 3147SOL    HW111448   9.155   8.662   8.090  0.4977 -1.7695  1.6810
 3147SOL    HW211449   9.283   8.587   8.058  1.3702  1.1203 -2.4446
 3148SOL     OW11450   4.462   3.179   2.530  0.2310 -0.3639 -0.2290
 3148SOL    HW111451   4.395   3.221   2.476 -0.3757 -1.5902 -0.4725
 3148SOL    HW211452   4.524   3.143   2.467  0.7333  0.1248 -0.0224
 3149SOL     OW11453   7.108  10.726   2.191 -0.1252  0.5831 -0.6549
 3149SOL    HW111454   7.109  10.631   2.197 -0.2040  0.6390  0.5191
 3149SOL    HW211455   7.018  10.749   2.167 -0.6978  0.4377  1.1915
 3150SOL     OW11456   3.829   8.349   2.107 -0.1701 -1.0225 -0.4108
 3150SOL    HW111457   3.748   8.391   2.135 -0.6272 -1.6351 -0.7680
 3150SOL    HW211458   3.866   8.408   2.042 -0.8460 -1.2055 -0.9686
 3151SOL     OW11459   6.454   0.612   7.178  0.3235 -0.2866 -0.3723
 3151SOL    HW111460   6.528   0.556   7.200 -0.4364 -0.7259  1.2337
 3151SOL    HW211461   6.461   0.687   7.238  0.5288  0.6368 -1.5186
 3152SOL     OW11462   4.217   7.235   4.653 -0.2635  0.6342 -0.5183
 3152SOL    HW111463   4.304   7.274   4.642 -0.4030  0.6078 -1.8967
 3152SOL    HW211464   4.160   7.290   4.600 -0.8125 -0.2558 -0.8713
 3153SOL     OW11465  10.503   5.498   5.818 -0.8961 -0.0040 -0.0754
 3153SOL    HW111466  10.503   5.580   5.769  0.1500  0.6381  0.9555
 3153SOL    HW211467  10.555   5.438   5.766 -0.3626  0.4694 -0.1000
 3154SOL     OW11468   6.633   7.281   4.593 -0.1634 -0.4018 -0.4854
 3154SOL    HW111469   6.656   7.239   4.676 -0.3874  0.9136  0.2554
 3154SOL    HW211470   6.538   7.293   4.598 -0.0467  0.5715 -0.5063
 3155SOL     OW11471   2.610   3.161   5.532 -0.7762 -0.1420 -0.1261
 3155SOL    HW111472   2.611   3.218   5.609 -0.8216 -0.0826 -0.1692
 3155SOL    HW211473   2.612   3.221   5.458  0.8136 -0.2279 -0.1825
 3156SOL     OW11474   4.761   8.274  11.013 -0.6925 -0.0307 -0.0241
 3156SOL    HW111475   4.741   8.224  10.933  1.5388 -1.6854  0.3628
 3156SOL    HW211476   4.851   8.304  11.000 -1.3889  2.4612  0.5406
 3157SOL     OW11477   5.219   8.225   7.043 -0.2342  0.0399  0.7224
 3157SOL    HW111478   5.245   8.136   7.068 -0.1501  0.1189  0.9211
 3157SOL    HW211479   5.155   8.213   6.974 -1.2174 -0.2167  1.6516
 3158SOL     OW11480   8.397   6.466   4.409  0.3331  0.1080  0.6264
 3158SOL    HW111481   8.387   6.555   4.443 -0.6554  0.4370 -0.4907
 3158SOL    HW211482   8.469   6.429   4.461  0.4894  1.4093  1.3813
 3159SOL     OW11483   9.652   1.287   7.694  0.1265 -0.0940  0.0237
 3159SOL    HW111484   9.730   1.322   7.652 -0.0441  0.5369  0.2167
 3159SOL    HW211485   9.641   1.341   7.773  0.7064 -1.5296  1.1466
 3160SOL     OW11486   8.203   0.378   2.117 -0.1015 -0.5890  0.1396
 3160SOL    HW111487   8.122   0.329   2.102 -0.3239 -0.1289 -0.1423
 3160SOL    HW211488   8.176   0.470   2.118  0.5481 -0.3740 -0.8395
 3161SOL     OW11489   9.024   9.604   7.199 -0.5183  0.1442  0.2526
 3161SOL    HW111490   9.079   9.682   7.212  1.0868 -0.8924  0.0689
 3161SOL    HW211491   8.979   9.619   7.116  0.1268  0.6977 -0.0048
 3162SOL     OW11492   7.306   3.990   1.879 -0.8466 -0.0247 -0.5154
 3162SOL    HW111493   7.272   3.922   1.821 -3.0507 -0.5203  1.2238
 3162SOL    HW211494   7.234   4.009   1.940 -0.7364  4.6102 -1.4606
 3163SOL     OW11495   8.758   1.773  10.054  0.0102 -0.2965 -0.2845
 3163SOL    HW111496   8.718   1.755   9.969 -1.5127 -0.9333  0.5149
 3163SOL    HW211497   8.684   1.782  10.114  1.0314  0.5156  0.9161
 3164SOL     OW11498   0.101   2.489   5.691 -0.1602 -0.4592  0.2228
 3164SOL    HW111499   0.059   2.406   5.668  0.9430 -1.2445  0.8878
 3164SOL    HW211500   0.106   2.487   5.786  2.4225 -1.0182  0.1728
 3165SOL     OW11501  10.001   8.199   7.022  0.4135 -0.1661  0.5003
 3165SOL    HW111502   9.932   8.232   6.965 -0.2657 -0.8112  0.9262
 3165SOL    HW211503   9.955   8.166   7.099  1.4028  1.7344  1.9662
 3166SOL     OW11504   3.347   8.231   8.894 -0.4725 -0.0722  0.4718
 3166SOL    HW111505   3.404   8.260   8.966 -0.4840 -0.9091  0.8224
 3166SOL    HW211506   3.261   8.266   8.916 -0.3837  0.0445  0.6401
 3167SOL     OW11507   9.045   2.689   2.747 -0.2188 -0.2734  0.5113
 3167SOL    HW111508   9.091   2.646   2.820 -0.3010 -1.1310  0.0760
 3167SOL    HW211509   8.965   2.723   2.787  0.3234  0.3653  1.0732
 3168SOL     OW11510   8.948  10.083   0.889  0.1720  0.7031  0.1085
 3168SOL    HW111511   8.946  10.003   0.942 -1.1130  0.7911  0.2217
 3168SOL    HW211512   8.974  10.053   0.802  0.4989  0.2818  0.3453
 3169SOL     OW11513   8.085   0.363   3.567 -0.1239 -0.3532 -0.0747
 3169SOL    HW111514   8.165   0.326   3.530 -0.1758  1.3263 -2.0352
 3169SOL    HW211515   8.107   0.454   3.586 -1.2087 -0.2084  0.5545
 3170SOL     OW11516   8.669   4.411   7.830 -0.0501 -0.8653  0.3900
 3170SOL    HW111517   8.721   4.481   7.791 -0.3199  0.0422  1.5874
 3170SOL    HW211518   8.731   4.361   7.883 -0.0540 -0.8861  0.3748
 3171SOL     OW11519   8.184   4.378  10.340  0.0872 -0.5639 -0.7736
 3171SOL    HW111520   8.210   4.318  10.409 -0.2222  0.0749 -0.0787
 3171SOL    HW211521   8.091   4.361  10.327  0.1786 -0.7842 -1.1354
 3172SOL     OW11522   5.511   6.699   0.214  0.4109 -0.0535  0.3836
 3172SOL    HW111523   5.533   6.694   0.121 -0.8893  0.2429  0.0318
 3172SOL    HW211524   5.594   6.715   0.258  1.1252 -0.7221 -0.6738
 3173SOL     OW11525   5.658   8.552   0.214 -0.4516  0.3584 -0.1696
 3173SOL    HW111526   5.710   8.626   0.245 -0.4781  1.0796 -1.7385
 3173SOL    HW211527   5.614   8.519   0.292 -0.0936  1.7281  0.6425
 3174SOL     OW11528   6.401   2.807  10.806  0.5871  0.1159 -0.3020
 3174SOL    HW111529   6.452   2.739  10.763  0.4655 -0.3296  0.2463
 3174SOL    HW211530   6.421   2.887  10.758  0.7956 -0.2937 -0.8975
 3175SOL     OW11531   2.306   1.831   8.394 -0.1278 -0.3181  0.4047
 3175SOL    HW111532   2.264   1.784   8.322  0.6552 -0.4833  0.0416
 3175SOL    HW211533   2.334   1.763   8.455  0.3846 -0.2850  0.2169
 3176SOL     OW11534   2.665   1.288   4.670  0.0875  0.3346  0.1613
 3176SOL    HW111535   2.674   1.242   4.586 -1.0666  1.6017 -0.6979
 3176SOL    HW211536   2.754   1.290   4.705  0.8074  0.7167 -1.5611
 3177SOL     OW11537   5.620   2.656   2.886  0.7364 -0.6923  0.3546
 3177SOL    HW111538   5.659   2.643   2.800 -1.0918  1.7098 -0.9309
 3177SOL    HW211539   5.687   2.625   2.947  3.3923  0.4553 -1.7909
 3178SOL     OW11540   1.055   3.102   8.845  0.8381  0.3012  0.3463
 3178SOL    HW111541   1.113   3.123   8.771  0.3059  0.3182 -0.0745
 3178SOL    HW211542   0.997   3.034   8.810  1.6375 -0.8861  1.2494
 3179SOL     OW11543   5.716   0.200   9.217  0.2294  0.1379 -0.6097
 3179SOL    HW111544   5.792   0.226   9.269  0.3292  0.6730 -1.0161
 3179SOL    HW211545   5.695   0.277   9.165 -1.1017  0.2792  0.0964
 3180SOL     OW11546   1.932   3.740   7.437 -0.1464  0.3343 -0.4584
 3180SOL    HW111547   1.998   3.766   7.501  1.3429 -0.3783 -1.6432
 3180SOL    HW211548   1.915   3.648   7.458  0.6833 -0.0304 -1.3481
 3181SOL     OW11549   4.449   3.317   7.017 -0.6146  0.4579 -0.2100
 3181SOL    HW111550   4.531   3.321   7.064 -1.6883  0.1359  1.7925
 3181SOL    HW211551   4.420   3.226   7.025 -2.5011  1.1470  1.6180
 3182SOL     OW11552   5.143   7.923   8.156 -0.1886  0.1445 -0.7318
 3182SOL    HW111553   5.193   7.885   8.084  0.1386 -1.9637  0.5366
 3182SOL    HW211554   5.201   7.991   8.192  0.0121  0.5905 -1.8697
 3183SOL     OW11555   3.837   6.369   9.525 -0.2245  0.3845  0.2788
 3183SOL    HW111556   3.826   6.445   9.582 -1.5394  0.4300  0.0007
 3183SOL    HW211557   3.825   6.404   9.436 -0.7670 -0.1337  0.1461
 3184SOL     OW11558   2.759   1.245   3.313  0.2216 -0.2664  0.2045
 3184SOL    HW111559   2.671   1.234   3.276  0.6669  1.6436 -1.6760
 3184SOL    HW211560   2.770   1.171   3.372 -2.4238 -0.8806  0.0741
 3185SOL     OW11561   6.918   6.008   0.372 -0.3787  0.0755  0.9311
 3185SOL    HW111562   6.895   6.076   0.309 -0.8116 -1.2791 -0.4255
 3185SOL    HW211563   6.839   5.995   0.423 -0.0014  1.2377  1.8577
 3186SOL     OW11564   7.454   4.283   1.274 -0.4289  0.3480 -0.3148
 3186SOL    HW111565   7.517   4.234   1.222  0.5405  1.1573  0.0671
 3186SOL    HW211566   7.412   4.342   1.212 -0.5165  0.1007 -0.4929
 3187SOL     OW11567   7.905   0.100   6.446  0.2710 -0.5700  0.1661
 3187SOL    HW111568   7.822   0.144   6.464  0.4453 -0.2564  0.2099
 3187SOL    HW211569   7.967   0.171   6.427  0.7213 -0.7568  0.9069
 3188SOL     OW11570   7.036   2.794   2.632 -0.6383 -0.3574 -0.3851
 3188SOL    HW111571   7.082   2.728   2.581 -0.1509 -0.6602  0.4188
 3188SOL    HW211572   7.076   2.789   2.719 -1.5850 -0.0037  0.0851
 3189SOL     OW11573   9.188   1.398  10.431 -0.4535  0.1467  0.0513
 3189SOL    HW111574   9.252   1.362  10.493  0.6821 -0.1745 -1.2571
 3189SOL    HW211575   9.205   1.352  10.349  1.3434  3.7907 -1.8672
 3190SOL     OW11576  10.202  10.937   6.948  0.0165 -0.3881  0.1383
 3190SOL    HW111577  10.170  10.926   7.037 -2.6083  1.2379 -0.5016
 3190SOL    HW211578  10.165  10.863   6.900 -1.9673  0.8582 -0.3554
 3191SOL     OW11579   5.523   6.502   5.218 -0.0859  0.5499  0.2310
 3191SOL    HW111580   5.480   6.489   5.302 -0.8035  0.2088 -0.1865
 3191SOL    HW211581   5.452   6.516   5.156  0.3427 -0.7429 -0.6003
 3192SOL     OW11582   7.070   6.452   0.062  0.1505 -0.2140  0.5197
 3192SOL    HW111583   7.020   6.522   0.018 -0.8826 -0.5143  1.1829
 3192SOL    HW211584   7.128   6.418  -0.006 -2.2038 -1.4421 -1.0300
 3193SOL     OW11585   1.698   2.445   6.885  0.5218 -0.4003 -0.1378
 3193SOL    HW111586   1.783   2.403   6.901  0.5721 -0.7529 -1.2425
 3193SOL    HW211587   1.695   2.457   6.790  0.1580  1.3722  0.0759
 3194SOL     OW11588   7.784   1.492   0.682 -0.2058  0.2238  0.3822
 3194SOL    HW111589   7.735   1.573   0.695 -0.7478 -0.1064  0.4836
 3194SOL    HW211590   7.781   1.476   0.588 -3.9639 -1.9326  0.6564
 3195SOL     OW11591   3.408   7.314   0.089 -0.1256 -0.6354  0.0524
 3195SOL    HW111592   3.352   7.334   0.163 -0.5651 -1.4365 -0.0608
 3195SOL    HW211593   3.455   7.235   0.114  2.1342  0.8205  0.7832
 3196SOL     OW11594   8.860   0.086   3.687  0.1433  0.5776 -0.2712
 3196SOL    HW111595   8.849   0.179   3.705  2.1091  0.8660 -0.3461
 3196SOL    HW211596   8.922   0.083   3.613  0.8579 -0.7726  0.3433
 3197SOL     OW11597   2.453   4.739   1.772  0.3971 -0.6495 -0.1226
 3197SOL    HW111598   2.413   4.743   1.685 -1.5318 -0.7453  0.7097
 3197SOL    HW211599   2.382   4.713   1.830  1.1136  1.4066  1.8050
 3198SOL     OW11600   0.607  10.648   2.103  0.0989 -0.2299  0.7701
 3198SOL    HW111601   0.700  10.641   2.081  0.1003 -1.0172  1.0089
 3198SOL    HW211602   0.597  10.595   2.182  0.0948  2.4795  2.7294
 3199SOL     OW11603   7.329   1.344   5.250 -0.4664  0.6789  0.3260
 3199SOL    HW111604   7.377   1.400   5.189  0.7101 -1.0666 -0.4386
 3199SOL    HW211605   7.262   1.302   5.197 -0.1912  0.0432  0.4592
 3200SOL     OW11606   7.736   2.186   3.080  0.1358  0.3050 -0.5997
 3200SOL    HW111607   7.822   2.150   3.059 -0.0895 -1.7956  1.6300
 3200SOL    HW211608   7.678   2.150   3.013  0.6945  0.2084 -1.0347
 3201SOL     OW11609   3.331   7.911   9.850  0.0827  0.0689  0.3501
 3201SOL    HW111610   3.257   7.972   9.845  0.2887  0.4893  1.9661
 3201SOL    HW211611   3.329   7.865   9.766 -0.4548  1.8613 -0.6823
 3202SOL     OW11612   6.625   5.168   8.844  0.4844  0.5921  0.0332
 3202SOL    HW111613   6.625   5.258   8.812 -0.4519  0.6082  0.0795
 3202SOL    HW211614   6.543   5.158   8.892 -1.5952 -1.5162 -3.5022
 3203SOL     OW11615   8.254  10.183  10.718 -0.5587 -0.0272 -0.3875
 3203SOL    HW111616   8.200  10.250  10.676 -1.1510  0.3120  0.8772
 3203SOL    HW211617   8.269  10.118  10.649 -1.0559  0.7645 -1.2659
 3204SOL     OW11618   5.390   4.657  10.642  0.6098 -0.2636  0.5064
 3204SOL    HW111619   5.322   4.597  10.611  0.8551 -1.3237  1.9251
 3204SOL    HW211620   5.465   4.639  10.586 -0.1739  0.8376 -1.0050
 3205SOL     OW11621   1.931   7.510   6.885 -0.5305  0.6740  0.8607
 3205SOL    HW111622   1.894   7.428   6.854  0.4731  0.4054  0.3532
 3205SOL    HW211623   1.957   7.556   6.806  0.1009  0.9148  1.2032
 3206SOL     OW11624   5.567   7.909   1.901 -0.1588 -0.8696 -0.5121
 3206SOL    HW111625   5.550   7.966   1.976  1.2310  0.0374 -0.8539
 3206SOL    HW211626   5.482   7.900   1.858 -0.5198  0.4936 -0.1361
 3207SOL     OW11627   3.975   6.023   9.026 -0.2863 -0.0049  0.5031
 3207SOL    HW111628   4.049   6.014   9.086 -0.0360  0.6497  0.2976
 3207SOL    HW211629   4.009   5.993   8.941 -0.0787  0.8501  0.2809
 3208SOL     OW11630   7.493   4.617  10.305 -0.0832 -0.0956  0.5459
 3208SOL    HW111631   7.539   4.614  10.221 -0.4671  0.7453  0.2994
 3208SOL    HW211632   7.557   4.585  10.369 -0.2013 -1.9843 -0.2278
 3209SOL     OW11633   5.873   8.112  10.083  0.1779  0.3127 -0.1116
 3209SOL    HW111634   5.876   8.053  10.008  2.3687 -0.6745  0.6739
 3209SOL    HW211635   5.890   8.199  10.047  2.6146 -0.3222 -0.6529
 3210SOL     OW11636   8.584   4.767   5.754 -0.3098  0.0526 -0.2282
 3210SOL    HW111637   8.490   4.770   5.738  0.2399 -0.6692 -5.1296
 3210SOL    HW211638   8.622   4.817   5.682  3.1081 -2.6809 -0.5957
 3211SOL     OW11639   9.726   0.453   8.904 -0.1983  1.3486 -0.1094
 3211SOL    HW111640   9.680   0.371   8.922 -2.0073  2.5231  0.8489
 3211SOL    HW211641   9.731   0.457   8.808  1.9406 -0.8804 -0.2123
 3212SOL     OW11642   6.594   2.694   2.406  0.5077  0.2917  0.1058
 3212SOL    HW111643   6.688   2.707   2.396  0.1799  1.8926 -1.4480
 3212SOL    HW211644   6.561   2.686   2.317 -1.0325  1.6703  0.4985
 3213SOL     OW11645   5.779   6.064   5.153 -0.1236 -0.5241 -0.4953
 3213SOL    HW111646   5.733   5.982   5.166  0.4533 -0.9026 -0.7935
 3213SOL    HW211647   5.710   6.130   5.148 -0.6230 -1.0610 -0.8224
 3214SOL     OW11648   2.908   4.246   2.767 -0.2383 -0.4376 -0.3385
 3214SOL    HW111649   2.967   4.303   2.817 -0.9150  0.4569 -0.5448
 3214SOL    HW211650   2.859   4.198   2.833 -0.4806  0.0657 -0.1538
 3215SOL     OW11651   3.135   0.936   5.611 -0.1992 -0.1719  0.0430
 3215SOL    HW111652   3.106   0.848   5.637  0.5479 -0.4193  0.0803
 3215SOL    HW211653   3.076   0.996   5.656 -1.7816 -0.6669 -1.2746
 3216SOL     OW11654   2.438   9.610   2.670 -0.1893 -0.3234 -0.4743
 3216SOL    HW111655   2.349   9.618   2.706  0.0531 -1.5739  0.4324
 3216SOL    HW211656   2.425   9.619   2.575 -1.2548 -0.3115 -0.3486
 3217SOL     OW11657   7.867   1.347   4.729 -0.1569  0.2177 -0.1606
 3217SOL    HW111658   7.800   1.307   4.785  3.1690 -1.7924  2.8079
 3217SOL    HW211659   7.900   1.420   4.781  0.8509  0.3194 -0.9316
 3218SOL     OW11660   2.177   0.633   8.835  0.5540 -0.2164  0.5537
 3218SOL    HW111661   2.167   0.576   8.911  0.0507 -1.1646 -0.2071
 3218SOL    HW211662   2.229   0.707   8.868  0.0812 -0.4427  1.8953
 3219SOL     OW11663  10.815   9.486   0.405  0.1140  0.1456 -0.1687
 3219SOL    HW111664  10.735   9.474   0.456  1.0987  1.2238  1.7483
 3219SOL    HW211665  10.802   9.569   0.359  0.0364  0.1931 -0.0613
 3220SOL     OW11666   7.369   5.435   8.386  0.0149  0.4386  0.5686
 3220SOL    HW111667   7.432   5.495   8.425  0.7440  0.1351 -0.1197
 3220SOL    HW211668   7.284   5.465   8.418  0.5651  0.2997  2.2403
 3221SOL     OW11669   1.276   1.186   3.149  0.3555 -0.3553 -0.3487
 3221SOL    HW111670   1.361   1.183   3.104  0.4407  0.4987 -0.2673
 3221SOL    HW211671   1.299   1.208   3.240  0.1074 -1.0331 -0.1151
 3222SOL     OW11672   9.459   0.447   6.270 -0.1174  0.0902 -0.0265
 3222SOL    HW111673   9.504   0.378   6.221 -0.5920  0.2112 -0.6503
 3222SOL    HW211674   9.506   0.453   6.353  0.5316 -0.3112 -0.3603
 3223SOL     OW11675   7.968   9.728   6.295  0.3680 -0.0114  0.1953
 3223SOL    HW111676   7.888   9.681   6.320 -0.3507  0.7102 -0.6590
 3223SOL    HW211677   7.952   9.818   6.323  1.0992  0.0448  0.4563
 3224SOL     OW11678   0.738   6.100   5.305 -0.2274 -0.1410  0.4711
 3224SOL    HW111679   0.758   6.042   5.232  0.1686 -0.2442  0.6575
 3224SOL    HW211680   0.645   6.085   5.323  0.0334 -1.2881  0.9952
 3225SOL     OW11681  11.002   4.275   1.678 -0.3822 -0.4571  0.7238
 3225SOL    HW111682  11.092   4.281   1.647 -0.7437  1.5104 -0.1155
 3225SOL    HW211683  10.955   4.342   1.627 -2.5514 -2.1470  0.3565
 3226SOL     OW11684   2.946   3.862   2.224 -0.6282  0.5612 -0.1318
 3226SOL    HW111685   3.035   3.828   2.229 -0.4520  1.2003  2.0907
 3226SOL    HW211686   2.957   3.957   2.225 -1.2958  0.6819 -1.6270
 3227SOL     OW11687   6.138   2.844   2.896 -0.5029  0.0901  0.0600
 3227SOL    HW111688   6.160   2.936   2.879 -0.7847  0.4551  1.4810
 3227SOL    HW211689   6.215   2.810   2.942 -0.5745 -0.2669 -0.0834
 3228SOL     OW11690   1.315   2.876   8.821 -0.1116  0.1108 -0.1076
 3228SOL    HW111691   1.258   2.861   8.746 -0.8066 -0.5036  0.5341
 3228SOL    HW211692   1.402   2.889   8.783 -0.2199 -1.4409 -0.9599
 3229SOL     OW11693   8.142  10.831   1.186 -0.3667  0.0031 -0.6513
 3229SOL    HW111694   8.153  10.845   1.281 -1.0667 -0.4753 -0.4941
 3229SOL    HW211695   8.231  10.826   1.153 -0.1104  0.0825 -0.0008
 3230SOL     OW11696   1.070   1.361   7.646  0.0900  0.0447  0.2081
 3230SOL    HW111697   1.077   1.266   7.657  0.4062  0.1451  0.9096
 3230SOL    HW211698   0.983   1.375   7.609 -0.9100 -0.3436  2.3005
 3231SOL     OW11699   6.747   2.637   0.753  0.2158  0.5022 -0.4589
 3231SOL    HW111700   6.792   2.599   0.828 -1.4173 -1.1016 -0.2151
 3231SOL    HW211701   6.730   2.728   0.777  0.7811  0.3374  0.5871
 3232SOL     OW11702   2.475   7.282   1.228 -0.0270  0.1689  0.2003
 3232SOL    HW111703   2.535   7.355   1.237  1.0923 -0.6000 -0.7544
 3232SOL    HW211704   2.418   7.307   1.155  1.9839 -0.9210 -1.8649
 3233SOL     OW11705   6.695   4.005   1.447  0.0410 -0.0216  0.0360
 3233SOL    HW111706   6.783   3.971   1.461  0.1906 -0.1233 -1.0903
 3233SOL    HW211707   6.708   4.100   1.437  0.3040 -0.2281 -2.0732
 3234SOL     OW11708   0.801   3.916   9.011 -0.5375  0.1735  0.4966
 3234SOL    HW111709   0.888   3.947   9.035 -0.5154 -0.5689  1.4329
 3234SOL    HW211710   0.782   3.847   9.075 -1.4844 -0.2100 -0.1793
 3235SOL     OW11711   4.072  10.802   3.991  0.4884  0.2032 -0.2474
 3235SOL    HW111712   4.149  10.772   4.039  0.3879  0.1533 -0.1154
 3235SOL    HW211713   4.105  10.826   3.905  0.9103  1.6482  0.2892
 3236SOL     OW11714   3.431   8.865   2.254  0.3848 -0.1355  0.5397
 3236SOL    HW111715   3.515   8.899   2.223  0.0235 -1.6599 -2.4801
 3236SOL    HW211716   3.370   8.883   2.183 -1.7086  0.2190  2.3252
 3237SOL     OW11717   2.457   3.322   3.136  0.0670 -0.1307 -0.5701
 3237SOL    HW111718   2.410   3.247   3.172  0.6068 -0.9439 -1.4989
 3237SOL    HW211719   2.548   3.293   3.132  0.4436  0.9278 -0.0648
 3238SOL     OW11720   5.972   5.301   4.336 -0.5969 -0.1335  0.2734
 3238SOL    HW111721   5.929   5.243   4.272  2.2816 -2.0917 -0.0562
 3238SOL    HW211722   5.915   5.298   4.413 -1.9080 -1.2269 -0.6800
 3239SOL     OW11723  10.940   0.172   8.818  0.1117  0.1696  0.2887
 3239SOL    HW111724  10.978   0.238   8.760 -1.2065 -0.1989 -1.0774
 3239SOL    HW211725  10.913   0.221   8.896  0.3423  1.0009 -0.1401
 3240SOL     OW11726   2.790   5.037   7.237  0.2269  0.2569  0.0519
 3240SOL    HW111727   2.826   5.115   7.195 -0.1442 -0.5617 -1.9047
 3240SOL    HW211728   2.866   4.995   7.279  0.8624  0.4828 -0.8424
 3241SOL     OW11729   9.527   8.664   1.329  0.2639  0.1560 -0.2958
 3241SOL    HW111730   9.610   8.666   1.376  1.2976  1.1739 -2.0773
 3241SOL    HW211731   9.466   8.622   1.390  2.0903 -0.7382  1.0023
 3242SOL     OW11732   1.729   0.696   7.901  0.0812  0.4002 -0.7169
 3242SOL    HW111733   1.636   0.682   7.885  0.1172 -0.5026 -0.1941
 3242SOL    HW211734   1.746   0.784   7.868 -1.0593  0.7644 -0.3738
 3243SOL     OW11735   7.469   1.280   8.776 -0.6373 -0.1519  0.5993
 3243SOL    HW111736   7.529   1.331   8.721 -3.1009  1.1440 -1.0435
 3243SOL    HW211737   7.456   1.198   8.727 -0.2637 -0.4357  0.9603
 3244SOL     OW11738   3.074   4.304   6.648 -0.2229 -0.1352  0.0978
 3244SOL    HW111739   3.122   4.374   6.693 -0.7792 -0.5067  1.3252
 3244SOL    HW211740   3.062   4.237   6.716 -1.7408 -0.3977 -0.4059
 3245SOL     OW11741   9.969   2.417   1.216  0.1467 -0.0197  0.6673
 3245SOL    HW111742   9.978   2.493   1.273 -0.2897  2.0601 -1.8766
 3245SOL    HW211743  10.057   2.403   1.181 -0.1843  0.6476 -0.4535
 3246SOL     OW11744   2.274   4.758   5.652  0.1663 -0.9107 -0.3244
 3246SOL    HW111745   2.212   4.824   5.620 -0.6932 -1.3125  0.4582
 3246SOL    HW211746   2.360   4.796   5.635 -0.3009  0.7405  0.7284
 3247SOL     OW11747   5.186  10.107   6.549 -0.6184  0.0833 -0.0337
 3247SOL    HW111748   5.183  10.188   6.599 -1.0517  0.2101 -0.2688
 3247SOL    HW211749   5.205  10.040   6.615 -1.0987  0.2632  0.2871
 3248SOL     OW11750   6.236   4.198   8.703  0.3059  0.2727  0.0197
 3248SOL    HW111751   6.283   4.204   8.787 -0.3844  0.3702  0.4114
 3248SOL    HW211752   6.221   4.289   8.678 -1.1084  0.2708  0.7409
 3249SOL     OW11753   6.722   8.520   9.507 -0.4872  0.1305 -0.4845
 3249SOL    HW111754   6.774   8.557   9.436  0.5417 -0.7184 -0.1866
 3249SOL    HW211755   6.672   8.594   9.541 -0.3960  0.7064 -1.5642
 3250SOL     OW11756   8.333   1.644   5.793  0.1956 -0.0804 -0.0905
 3250SOL    HW111757   8.299   1.714   5.848  0.1365 -0.0989 -0.1041
 3250SOL    HW211758   8.414   1.680   5.756 -0.7540  0.6684 -1.5231
 3251SOL     OW11759   1.591  10.398   7.455  0.6403 -0.1519  0.5347
 3251SOL    HW111760   1.532  10.365   7.523  0.5673  0.9430  1.0293
 3251SOL    HW211761   1.659  10.445   7.503  0.7725  0.3498 -0.1376
 3252SOL     OW11762   3.705   6.276   3.120 -0.0809  0.1333  0.2114
 3252SOL    HW111763   3.638   6.220   3.160 -0.0767 -1.1164 -1.4621
 3252SOL    HW211764   3.788   6.231   3.137  0.0659  0.3178 -0.0166
 3253SOL     OW11765   7.417   2.312   3.342  0.3184 -0.4385  0.3662
 3253SOL    HW111766   7.470   2.365   3.283 -0.2019 -0.7132 -0.3555
 3253SOL    HW211767   7.468   2.232   3.354  0.1629 -0.6163 -0.1609
 3254SOL     OW11768   5.752   4.790   2.182 -0.3601 -0.0272 -0.2043
 3254SOL    HW111769   5.659   4.807   2.164 -0.1765  2.3740  0.7651
 3254SOL    HW211770   5.750   4.726   2.254 -1.1969 -0.9756 -1.0195
 3255SOL     OW11771   5.339   9.253   9.118  0.4488  0.1178  0.0344
 3255SOL    HW111772   5.286   9.317   9.165 -0.2079  0.2361 -0.8534
 3255SOL    HW211773   5.364   9.297   9.037 -2.1721 -1.5673 -1.8372
 3256SOL     OW11774   1.483   9.054   3.035 -0.0129  0.2083 -0.6260
 3256SOL    HW111775   1.453   9.086   3.120 -1.7890  0.7646 -1.4188
 3256SOL    HW211776   1.575   9.080   3.031  0.1176  0.1247  1.1382
 3257SOL     OW11777   2.249   3.825   3.248 -0.3921  0.8395 -0.3437
 3257SOL    HW111778   2.284   3.737   3.262 -0.8063  0.5939 -0.8073
 3257SOL    HW211779   2.210   3.849   3.332 -0.2309  0.6050 -0.1993
 3258SOL     OW11780   7.194   6.330   0.339 -0.4313 -0.8205 -0.6632
 3258SOL    HW111781   7.278   6.314   0.383 -0.4876 -1.3306 -0.7365
 3258SOL    HW211782   7.128   6.308   0.405 -0.5191  0.6464 -0.2278
 3259SOL     OW11783   4.010   8.626   1.518  0.5836 -0.1499  0.2953
 3259SOL    HW111784   4.086   8.661   1.471  1.0570 -0.4943  0.7921
 3259SOL    HW211785   3.942   8.693   1.507  0.9482  0.1473 -0.1812
 3260SOL     OW11786   7.691   5.955   5.563  0.2312 -0.4452 -0.1346
 3260SOL    HW111787   7.690   6.050   5.576 -0.2682 -0.4594 -0.0553
 3260SOL    HW211788   7.625   5.939   5.495  0.0662 -0.7653  0.0977
 3261SOL     OW11789  10.998   2.152   2.090  0.0981  0.9047 -0.0556
 3261SOL    HW111790  11.073   2.199   2.127  1.5277 -1.7519  0.6678
 3261SOL    HW211791  11.037   2.085   2.034 -1.7879 -0.0698 -0.2820
 3262SOL     OW11792   3.937   1.703   4.076 -0.2740 -0.0453 -0.1577
 3262SOL    HW111793   3.908   1.650   4.002 -0.8087  0.7747 -0.5512
 3262SOL    HW211794   3.981   1.641   4.134 -1.8819 -1.1403 -0.0470
 3263SOL     OW11795   8.600   7.242   5.050 -0.1066 -0.4872 -0.2372
 3263SOL    HW111796   8.590   7.220   4.957  0.5356  2.2145 -1.0150
 3263SOL    HW211797   8.511   7.259   5.080 -0.6020 -3.4901  0.3247
 3264SOL     OW11798   9.509   5.801   9.964  0.8689  0.5808 -0.1903
 3264SOL    HW111799   9.579   5.789   9.900  1.0197 -0.0949  0.1004
 3264SOL    HW211800   9.473   5.888   9.944  1.0334  0.4502 -1.0695
 3265SOL     OW11801   9.553  11.001   3.453  0.5258  0.4788  0.3114
 3265SOL    HW111802   9.583  11.038   3.370 -1.2409  0.0669 -0.5526
 3265SOL    HW211803   9.500  10.926   3.428  0.1824  0.1888  1.8314
 3266SOL     OW11804   2.921  10.284   7.668  0.1793 -0.0085 -0.6332
 3266SOL    HW111805   2.957  10.260   7.583  1.5550  1.7669 -0.6225
 3266SOL    HW211806   2.997  10.280   7.727 -0.1437  1.4220 -0.0834
 3267SOL     OW11807   5.467   4.219   8.111 -0.5577 -0.3988 -0.5072
 3267SOL    HW111808   5.502   4.297   8.068 -0.6614  0.3342  0.6867
 3267SOL    HW211809   5.455   4.246   8.203 -3.7492 -0.7239 -0.7149
 3268SOL     OW11810   1.470   1.615   0.907  0.5356 -0.0085 -0.1054
 3268SOL    HW111811   1.555   1.580   0.882  0.0219 -1.4713  0.1164
 3268SOL    HW211812   1.489   1.704   0.937  1.9066 -0.1366 -0.5305
 3269SOL     OW11813   2.195   6.281   9.605  0.6083  0.1315  0.4302
 3269SOL    HW111814   2.286   6.311   9.600  0.7266 -0.4287 -2.5482
 3269SOL    HW211815   2.184   6.224   9.528 -2.2405  0.1000  0.7506
 3270SOL     OW11816   8.639   1.813   8.855  0.5747 -0.4593  0.3738
 3270SOL    HW111817   8.638   1.909   8.852  0.9489 -0.4597  0.1197
 3270SOL    HW211818   8.732   1.790   8.854  0.4839 -0.8316  0.1979
 3271SOL     OW11819  10.842   4.217   5.536  0.1779  0.1735  0.3210
 3271SOL    HW111820  10.865   4.195   5.446 -0.8623  2.5826 -0.6211
 3271SOL    HW211821  10.755   4.181   5.549 -0.1280  0.7598 -0.0481
 3272SOL     OW11822   3.661   6.344   1.904  0.4086  0.5317 -0.0018
 3272SOL    HW111823   3.615   6.413   1.951  0.1706 -0.8813  1.9579
 3272SOL    HW211824   3.753   6.368   1.910  0.3570  0.5247  0.9846
 3273SOL     OW11825   1.665   6.532   9.496 -0.9455  0.1128 -0.3121
 3273SOL    HW111826   1.698   6.584   9.424 -1.3076  0.8870  0.0691
 3273SOL    HW211827   1.570   6.536   9.487 -1.1424  2.3845  1.6368
 3274SOL     OW11828   8.500   2.354   0.443 -0.2522  0.5171  0.3016
 3274SOL    HW111829   8.537   2.442   0.434  0.9285  0.3196  2.4591
 3274SOL    HW211830   8.423   2.366   0.499 -0.2661  0.2190  0.3508
 3275SOL     OW11831   7.566   6.682  10.503 -0.2436  0.5735 -0.5491
 3275SOL    HW111832   7.507   6.752  10.473 -1.3676 -0.9379 -2.0341
 3275SOL    HW211833   7.507   6.610  10.527  0.9149 -0.1140  0.3151
 3276SOL     OW11834   7.645   3.864   9.086 -0.3466 -0.1456 -0.1437
 3276SOL    HW111835   7.574   3.928   9.091 -0.1331  0.0133  1.0985
 3276SOL    HW211836   7.620   3.806   9.013 -0.9135  0.8882 -0.8008
 3277SOL     OW11837   3.547   8.285   2.738 -0.1103  0.3509 -0.0889
 3277SOL    HW111838   3.618   8.222   2.736  0.6857  0.9971  2.7644
 3277SOL    HW211839   3.502   8.268   2.821  1.3675  4.6273  1.8886
 3278SOL     OW11840   3.999   6.121  10.669  0.0489 -0.2703  0.1965
 3278SOL    HW111841   3.922   6.146  10.720 -0.6707  1.0713 -1.4619
 3278SOL    HW211842   3.963   6.091  10.585  1.1492 -2.9807  0.5917
 3279SOL     OW11843  10.137   1.380   0.134 -0.2677 -0.3086  0.1926
 3279SOL    HW111844  10.124   1.295   0.175  0.3670 -1.0018 -0.9919
 3279SOL    HW211845  10.168   1.360   0.046  0.9095  1.1692  0.2305
 3280SOL     OW11846   9.488   6.600   1.452  0.0690 -0.5232 -0.2018
 3280SOL    HW111847   9.536   6.553   1.384 -0.6995 -0.9747 -0.4448
 3280SOL    HW211848   9.450   6.531   1.506  1.4801 -0.1807  1.2896
 3281SOL     OW11849   9.275   1.559   5.343 -0.0728 -0.0227  0.3775
 3281SOL    HW111850   9.230   1.480   5.312  0.3748  0.3628 -1.3691
 3281SOL    HW211851   9.284   1.546   5.437  2.1911 -3.2575 -0.1132
 3282SOL     OW11852   0.811   1.640   4.997 -0.4798 -0.1233  0.0381
 3282SOL    HW111853   0.799   1.626   4.903  0.1789  0.7377 -0.1912
 3282SOL    HW211854   0.901   1.672   5.005  0.1298 -1.9911  1.1890
 3283SOL     OW11855   5.264   9.576   7.801 -0.2565 -0.2685 -0.1137
 3283SOL    HW111856   5.255   9.645   7.734 -1.6296 -2.2923 -2.1404
 3283SOL    HW211857   5.346   9.598   7.846  1.0266  0.9595 -2.7895
 3284SOL     OW11858  11.027   1.855   3.874 -0.0596 -0.4695 -0.3507
 3284SOL    HW111859  11.111   1.860   3.827 -0.9178 -0.0611 -1.8876
 3284SOL    HW211860  10.991   1.771   3.850 -1.3874  0.5233 -2.0334
 3285SOL     OW11861   0.203   5.115   7.524  0.0116  0.1359  0.3460
 3285SOL    HW111862   0.253   5.153   7.596  0.4626  2.3146 -1.0198
 3285SOL    HW211863   0.162   5.038   7.562  1.9843 -0.0441  2.3263
 3286SOL     OW11864   6.661   6.857   5.531  0.3656  0.3898  0.3079
 3286SOL    HW111865   6.677   6.807   5.452  0.5506 -0.0303  0.6084
 3286SOL    HW211866   6.568   6.843   5.550  0.4232  0.1374  0.4057
 3287SOL     OW11867  11.029   6.988   7.432  0.1848 -0.6740 -0.1052
 3287SOL    HW111868  11.111   6.995   7.481 -0.1866 -0.2540  0.4740
 3287SOL    HW211869  10.979   7.066   7.459  0.1176 -0.2345 -1.4233
 3288SOL     OW11870   5.313   0.191   2.190 -0.2285  0.5913  0.1297
 3288SOL    HW111871   5.349   0.187   2.278  0.1351  0.0921 -0.0368
 3288SOL    HW211872   5.269   0.276   2.186 -0.3781  0.5536  0.8395
 3289SOL     OW11873  10.888   1.224   4.958  0.4351  0.2213  0.1183
 3289SOL    HW111874  10.807   1.190   4.919  0.4325  0.2834  0.0709
 3289SOL    HW211875  10.957   1.168   4.921  0.5838  1.0879 -0.9800
 3290SOL     OW11876   8.204   3.962   7.942 -0.2753 -0.8049 -0.5970
 3290SOL    HW111877   8.260   4.013   8.001 -4.2386  1.3520  1.7769
 3290SOL    HW211878   8.265   3.909   7.891  3.7841  0.7450  2.0916
 3291SOL     OW11879   0.045   7.733   7.815 -0.1920  0.0832  0.0902
 3291SOL    HW111880  -0.032   7.714   7.868 -0.0242 -1.3657 -0.1366
 3291SOL    HW211881   0.012   7.739   7.725 -0.3014  1.3767  0.1935
 3292SOL     OW11882   3.774   5.001   6.104 -0.4977  0.1707  0.0826
 3292SOL    HW111883   3.736   4.976   6.020 -0.4280  2.0594 -0.5607
 3292SOL    HW211884   3.703   5.047   6.149  0.0132  0.7958  0.2635
 3293SOL     OW11885   2.176   7.159  10.915  0.2139 -0.2531 -0.2597
 3293SOL    HW111886   2.180   7.246  10.876  1.4255 -0.5912 -0.9435
 3293SOL    HW211887   2.083   7.144  10.933  0.1460  2.0215  1.8575
 3294SOL     OW11888   9.469  10.908   3.140 -0.1261 -0.2266  0.1897
 3294SOL    HW111889   9.472  10.813   3.149 -1.8500 -0.1606  2.2853
 3294SOL    HW211890   9.560  10.935   3.145  0.2584 -1.6490  1.8258
 3295SOL     OW11891  10.604   0.013   4.176 -0.4349  0.1505  0.0274
 3295SOL    HW111892  10.654   0.093   4.190 -0.9192  0.3095  0.9606
 3295SOL    HW211893  10.579   0.015   4.084 -0.3793  1.0402  0.0273
 3296SOL     OW11894   0.522   4.118   2.914 -0.3976 -0.2066 -0.1136
 3296SOL    HW111895   0.441   4.161   2.889  0.7421  0.2244 -3.4989
 3296SOL    HW211896   0.510   4.026   2.888 -0.0176 -0.2703 -0.0760
 3297SOL     OW11897   0.119   5.235   5.242  1.0946 -0.1648 -0.4209
 3297SOL    HW111898   0.086   5.324   5.238  0.0286 -0.5373 -0.3504
 3297SOL    HW211899   0.111   5.211   5.334  1.2679 -0.3687 -0.4591
 3298SOL     OW11900   3.547   1.595   2.190  0.1395 -0.0876 -0.3263
 3298SOL    HW111901   3.469   1.545   2.165  1.0040 -0.8250 -1.7096
 3298SOL    HW211902   3.576   1.554   2.272 -0.6341 -0.1207 -0.0547
 3299SOL     OW11903   1.942  10.326   8.021 -0.8098  0.4635  0.3307
 3299SOL    HW111904   1.895  10.407   8.001 -1.1116 -0.3231 -2.6755
 3299SOL    HW211905   2.033  10.354   8.031 -1.2341  1.4384  1.7552
 3300SOL     OW11906   2.445   2.922   8.530  0.2787  0.6995  0.5550
 3300SOL    HW111907   2.439   2.977   8.607 -1.7127  0.8153  0.3717
 3300SOL    HW211908   2.467   2.982   8.459 -0.1522  0.9761  0.6529
 3301SOL     OW11909   5.676   5.934   8.499  0.8383 -0.4191 -0.4813
 3301SOL    HW111910   5.661   5.957   8.591 -0.2333 -0.7925 -0.5459
 3301SOL    HW211911   5.693   5.840   8.501 -1.1667 -0.8265 -0.8382
 3302SOL     OW11912   6.271   3.076   2.845 -0.1622  0.6639  0.5575
 3302SOL    HW111913   6.217   3.147   2.811 -0.0835 -0.4017 -2.0549
 3302SOL    HW211914   6.360   3.110   2.842 -0.2105  0.7603  0.1494
 3303SOL     OW11915  10.924   9.656   5.416 -0.8314 -0.1765 -0.2576
 3303SOL    HW111916  11.007   9.704   5.415 -0.2500 -1.1474  0.1057
 3303SOL    HW211917  10.947   9.568   5.386 -1.4776 -0.8250  1.0741
 3304SOL     OW11918   9.680   3.795   6.705  0.0939  0.0628 -0.3165
 3304SOL    HW111919   9.625   3.794   6.626 -2.0531 -0.4181  1.1110
 3304SOL    HW211920   9.667   3.709   6.745  1.3360  0.2093  0.4686
 3305SOL     OW11921   9.660   1.266   6.346  0.4811  0.1110  0.3843
 3305SOL    HW111922   9.691   1.176   6.348 -0.5162 -0.2394  0.4231
 3305SOL    HW211923   9.725   1.315   6.397  0.7773 -0.6591  0.7553
 3306SOL     OW11924   1.064   1.290   5.454  0.1505  0.9063  0.0054
 3306SOL    HW111925   1.104   1.363   5.501  1.4776  0.2763 -0.0992
 3306SOL    HW211926   0.975   1.319   5.437  1.3765  3.7395 -2.5750
 3307SOL     OW11927   1.598   5.342   5.627  0.6065  0.3836 -0.6686
 3307SOL    HW111928   1.540   5.297   5.565 -1.1550  0.1516  1.0552
 3307SOL    HW211929   1.547   5.348   5.707  2.3923  1.7089  0.4340
 3308SOL     OW11930   8.473   0.511   7.942 -0.2594 -0.5437 -0.4015
 3308SOL    HW111931   8.396   0.508   7.885  0.6879  0.6233 -1.7902
 3308SOL    HW211932   8.462   0.434   7.999 -1.4997 -1.4721 -1.7894
 3309SOL     OW11933   7.648   2.196   8.322  0.4123 -0.2377  0.4058
 3309SOL    HW111934   7.649   2.191   8.418  0.8578 -0.4442  0.3933
 3309SOL    HW211935   7.740   2.192   8.297  0.2703 -0.8018 -0.0582
 3310SOL     OW11936   7.341   0.448   1.248  0.1502 -0.0866  0.5754
 3310SOL    HW111937   7.300   0.532   1.267 -1.6759 -0.5242 -1.0488
 3310SOL    HW211938   7.419   0.470   1.197 -0.5608  0.6335 -0.2265
 3311SOL     OW11939   9.787   4.568   7.667  0.5492  0.0021 -0.4148
 3311SOL    HW111940   9.727   4.635   7.699  0.5873 -0.6574  1.0885
 3311SOL    HW211941   9.874   4.605   7.683  0.5756 -0.4988  0.6862
 3312SOL     OW11942   7.773  10.135   7.897 -0.4342  0.2608 -0.6820
 3312SOL    HW111943   7.750  10.170   7.811  0.6076 -0.5461 -1.3112
 3312SOL    HW211944   7.808  10.048   7.879 -0.9094 -0.2286  0.6412
 3313SOL     OW11945   0.702   4.130  10.496 -0.5141 -0.7606  0.1897
 3313SOL    HW111946   0.685   4.196  10.428  0.4903 -0.4424  0.2286
 3313SOL    HW211947   0.796   4.138  10.514 -0.8017 -0.6236  1.8345
 3314SOL     OW11948   4.209   6.546   0.050  0.3007  0.4337 -0.0101
 3314SOL    HW111949   4.226   6.615   0.115  0.7161  0.7190 -0.4167
 3314SOL    HW211950   4.294   6.507   0.034  0.0775 -0.1365  0.1634
 3315SOL     OW11951   6.663   6.766   5.008 -0.2636  0.3149 -0.4711
 3315SOL    HW111952   6.635   6.824   4.937 -0.0882  0.3871 -0.4830
 3315SOL    HW211953   6.751   6.738   4.983  0.4822  1.6524  0.4973
 3316SOL     OW11954   5.971   5.575   0.062 -0.0761  0.4685 -0.0121
 3316SOL    HW111955   5.996   5.611   0.147  0.1643 -1.5262  0.8078
 3316SOL    HW211956   6.047   5.592   0.006  0.4986  0.2156  0.6795
 3317SOL     OW11957   5.391   9.073  10.803  0.5340  0.2452 -0.2545
 3317SOL    HW111958   5.451   8.999  10.802 -2.1279 -2.0948  0.8396
 3317SOL    HW211959   5.394   9.105  10.893 -0.1592 -0.1585 -0.0863
 3318SOL     OW11960   9.600   2.310   3.103  0.3212 -0.0102  0.5624
 3318SOL    HW111961   9.583   2.372   3.174 -0.1036  0.3754  0.1291
 3318SOL    HW211962   9.682   2.266   3.129  1.4567  1.7605  0.1866
 3319SOL     OW11963   0.623   9.051   8.623  0.0084  0.0796  0.6604
 3319SOL    HW111964   0.574   9.130   8.600  0.9018  0.8318  1.2515
 3319SOL    HW211965   0.557   8.989   8.653 -0.8089  0.2578 -0.6979
 3320SOL     OW11966   2.453   1.131   7.814  0.3722  0.3121  0.0589
 3320SOL    HW111967   2.408   1.059   7.858 -0.7814  0.7455 -0.4017
 3320SOL    HW211968   2.531   1.090   7.775  0.6350 -0.3542  1.2226
 3321SOL     OW11969   4.113   4.330   5.820  0.1805  0.0460  0.1168
 3321SOL    HW111970   4.146   4.408   5.865  0.8101  1.0043 -1.9348
 3321SOL    HW211971   4.020   4.326   5.845 -0.1081  2.0255 -0.5069
 3322SOL     OW11972   3.501   6.261   9.706 -0.0833  0.0135  0.1472
 3322SOL    HW111973   3.546   6.216   9.635 -0.1060 -1.6325  1.1196
 3322SOL    HW211974   3.568   6.317   9.746 -0.5588  2.6763 -2.3945
 3323SOL     OW11975   8.682   6.527   7.939 -0.6500  0.9324 -0.1392
 3323SOL    HW111976   8.704   6.462   8.006 -0.7617 -0.6892 -1.6082
 3323SOL    HW211977   8.763   6.577   7.927 -0.0610  0.0065 -0.1229
 3324SOL     OW11978   7.577   2.680   6.455  0.0946 -0.5939  0.4336
 3324SOL    HW111979   7.667   2.699   6.429 -0.2129  1.0872  0.4826
 3324SOL    HW211980   7.532   2.658   6.374  0.1066  0.5400  0.0993
 3325SOL     OW11981   9.609   6.171   4.157  0.5682 -0.0911 -0.0316
 3325SOL    HW111982   9.667   6.126   4.096 -0.0635  0.1101 -0.8051
 3325SOL    HW211983   9.598   6.258   4.119  1.4353  0.5957  1.2191
 3326SOL     OW11984   9.713  10.565  10.673  0.4348 -0.1002  0.3571
 3326SOL    HW111985   9.798  10.538  10.706  0.7630 -0.5538 -0.8250
 3326SOL    HW211986   9.667  10.598  10.751  1.9976  0.9932  0.8674
 3327SOL     OW11987   9.232   1.866   8.973 -0.0020  0.1828  0.0997
 3327SOL    HW111988   9.138   1.881   8.984 -0.1223 -0.9877  0.9093
 3327SOL    HW211989   9.263   1.941   8.923 -1.3311  0.6930  0.0037
 3328SOL     OW11990   2.940   9.386   0.375 -0.6956 -0.7482 -0.4415
 3328SOL    HW111991   3.007   9.447   0.344  0.7463 -2.9504 -1.8477
 3328SOL    HW211992   2.874   9.386   0.306 -1.3982  0.1982  0.2002
 3329SOL     OW11993   7.425   3.720   2.015  0.2594  0.1191 -0.2513
 3329SOL    HW111994   7.416   3.812   1.989 -1.4917  0.0843  0.0742
 3329SOL    HW211995   7.405   3.671   1.935  0.4581  0.0168 -0.2387
 3330SOL     OW11996   8.341   9.862  10.037  0.1325  0.2879  0.5201
 3330SOL    HW111997   8.304   9.949  10.056  0.7307  0.0594  3.1162
 3330SOL    HW211998   8.432   9.880  10.011  0.1691  0.4732  0.7681
 3331SOL     OW11999   7.953   4.165   2.257 -1.1222 -0.1626 -0.2648
 3331SOL    HW112000   7.989   4.141   2.172  1.3107  0.1357  0.6068
 3331SOL    HW212001   7.904   4.087   2.286  1.6125 -1.9298 -0.0922
 3332SOL     OW12002   7.979   9.837   3.136  0.5426  0.1532 -0.1672
 3332SOL    HW112003   7.969   9.838   3.041  2.0816 -1.9110 -0.4399
 3332SOL    HW212004   8.065   9.876   3.152 -0.5601  2.4336  0.6229
 3333SOL     OW12005   4.047   8.936  11.018 -0.1685 -0.5004 -0.4538
 3333SOL    HW112006   4.102   8.906  10.946  0.0745 -1.3856  0.0860
 3333SOL    HW212007   4.109   8.966  11.085 -0.4024  1.6291 -1.1188
 3334SOL     OW12008   6.597   4.043   5.443  0.2576 -0.3775 -0.1834
 3334SOL    HW112009   6.683   4.046   5.486  1.1641 -1.7480 -1.7898
 3334SOL    HW212010   6.610   4.090   5.361 -0.4096 -0.9482 -0.6204
 3335SOL     OW12011   3.041   3.221   3.349 -0.7195 -0.5351  0.3930
 3335SOL    HW112012   3.055   3.163   3.423 -1.7868 -0.4225  0.7055
 3335SOL    HW212013   3.036   3.162   3.273  0.1219 -0.6708  0.4396
 3336SOL     OW12014   4.208   1.843   4.859  0.0008 -0.1439  0.0564
 3336SOL    HW112015   4.163   1.843   4.774  1.5041 -0.1653 -0.7966
 3336SOL    HW212016   4.139   1.838   4.924 -1.3244  1.8225 -1.1075
 3337SOL     OW12017   5.010   7.592   1.558  0.3084 -0.7128 -0.7021
 3337SOL    HW112018   5.068   7.528   1.518  1.1830 -0.8450  0.7091
 3337SOL    HW212019   5.012   7.667   1.499  0.7673 -1.2731 -1.4065
 3338SOL     OW12020   5.942   0.778  10.342 -1.1008  0.8029  0.1710
 3338SOL    HW112021   6.016   0.740  10.294  0.4538  1.4938  1.8885
 3338SOL    HW212022   5.873   0.786  10.277 -0.7635 -2.7295 -0.8070
 3339SOL     OW12023   7.063   0.705   5.293 -1.2394  0.3673 -0.2072
 3339SOL    HW112024   7.078   0.634   5.231 -1.6776 -1.8853  2.0591
 3339SOL    HW212025   7.146   0.754   5.294 -1.1625  0.3723 -2.3188
 3340SOL     OW12026   2.154   2.874   2.454  0.2769  0.2909  0.1881
 3340SOL    HW112027   2.226   2.811   2.443  0.0168 -0.1198  0.7732
 3340SOL    HW212028   2.170   2.941   2.388  2.8634  1.7751  2.0916
 3341SOL     OW12029   7.907   7.571   6.181  0.1149  0.1639  0.3466
 3341SOL    HW112030   7.886   7.506   6.114  1.5185 -0.8412  0.8327
 3341SOL    HW212031   7.999   7.594   6.164  0.0417  1.0112  1.0239
 3342SOL     OW12032   1.307   9.247   2.666 -0.1091 -0.2136 -0.1578
 3342SOL    HW112033   1.212   9.240   2.665 -0.2200 -1.1986  3.5787
 3342SOL    HW212034   1.338   9.165   2.627 -0.7044  0.3329 -1.8714
 3343SOL     OW12035   4.680   6.754   8.481  0.2225 -0.2369  0.2376
 3343SOL    HW112036   4.761   6.766   8.433  0.4061  0.2691  0.6711
 3343SOL    HW212037   4.616   6.728   8.414  0.8364 -1.1029 -0.0413
 3344SOL     OW12038   7.386   4.950   9.711  0.3768 -0.3255  0.5691
 3344SOL    HW112039   7.473   4.943   9.671  0.4263 -0.0018  0.6149
 3344SOL    HW212040   7.326   4.921   9.642  0.3676  1.2994 -0.1539
 3345SOL     OW12041   3.847   1.214  10.056 -0.0478 -0.6030  0.0447
 3345SOL    HW112042   3.919   1.178  10.109  0.3809 -1.2531 -0.9548
 3345SOL    HW212043   3.799   1.270  10.117  0.2232 -1.6048  1.2258
 3346SOL     OW12044   1.878   5.974   2.683 -0.1375  0.3094  0.3119
 3346SOL    HW112045   1.795   5.925   2.686  0.1551 -0.2111  0.0200
 3346SOL    HW212046   1.883   6.005   2.592  1.1016 -1.6414 -0.3556
 3347SOL     OW12047   4.600   0.716   8.939  0.3763  0.1171 -0.2566
 3347SOL    HW112048   4.532   0.757   8.886  0.5811  1.0655  0.1909
 3347SOL    HW212049   4.666   0.688   8.875  0.7962  1.5864 -0.5032
 3348SOL     OW12050   0.511   2.759   5.554 -0.2248  0.3284  0.3448
 3348SOL    HW112051   0.440   2.786   5.612  0.5274  1.1412  0.9092
 3348SOL    HW212052   0.470   2.696   5.495 -0.9613 -0.7347  1.9124
 3349SOL     OW12053   4.194   7.056   3.429 -0.4271 -0.1481  0.0947
 3349SOL    HW112054   4.158   6.969   3.443 -1.2856  0.3946  1.3861
 3349SOL    HW212055   4.219   7.086   3.516 -2.0275  1.6935 -0.0144
 3350SOL     OW12056   7.714   1.694   4.003 -0.0651 -0.3257  0.4475
 3350SOL    HW112057   7.653   1.739   4.062  0.9783  0.5373  0.9078
 3350SOL    HW212058   7.719   1.750   3.926  0.7171  0.0219  0.7364
 3351SOL     OW12059   8.645   6.045   1.030  0.5829  0.0434 -0.3153
 3351SOL    HW112060   8.599   5.976   0.982  2.4718 -1.1298 -0.5023
 3351SOL    HW212061   8.623   6.029   1.122 -0.5158  0.3892 -0.4994
 3352SOL     OW12062   8.940   5.734   0.498  0.3460  0.1072  0.7708
 3352SOL    HW112063   8.955   5.774   0.584  0.1978 -0.9535  1.3102
 3352SOL    HW212064   8.854   5.765   0.471  0.1559  0.0060  1.2630
 3353SOL     OW12065  10.665   3.835   8.374  0.0919 -0.2400 -0.0185
 3353SOL    HW112066  10.691   3.915   8.330  0.2531 -0.0419  0.4319
 3353SOL    HW212067  10.738   3.775   8.361  0.1607 -0.1651  0.0261
 3354SOL     OW12068   3.489   1.607   6.216  0.4632 -0.8944 -0.7923
 3354SOL    HW112069   3.558   1.606   6.282 -1.7466  0.8578  1.7517
 3354SOL    HW212070   3.445   1.523   6.227 -0.6944 -0.1104  0.9992
 3355SOL     OW12071   5.275   5.991   8.599  0.2828  0.3601  0.1742
 3355SOL    HW112072   5.253   6.079   8.632 -0.4970  0.1205  0.3103
 3355SOL    HW212073   5.354   5.967   8.649  0.1162  0.7083  0.6195
 3356SOL     OW12074  10.915   3.225  10.958 -0.1498  0.2294 -0.2801
 3356SOL    HW112075  10.837   3.176  10.931 -0.9214  0.7382  0.9493
 3356SOL    HW212076  10.887   3.273  11.036  1.2538  0.8342 -0.1291
 3357SOL     OW12077   9.681   7.274  10.005 -0.1182  0.0926  0.2653
 3357SOL    HW112078   9.675   7.340  10.073 -0.1624 -0.4939  0.8412
 3357SOL    HW212079   9.732   7.203  10.044 -0.0345 -0.1986 -0.3514
 3358SOL     OW12080  10.081  10.181   4.309 -0.0102  0.3455  0.1783
 3358SOL    HW112081  10.076  10.196   4.215 -0.1624 -0.1165  0.1117
 3358SOL    HW212082  10.175  10.172   4.327 -0.0051  0.0287  0.0043
 3359SOL     OW12083   9.804   0.727   6.902 -0.4894  0.1186 -0.3619
 3359SOL    HW112084   9.811   0.742   6.996  0.9496 -2.6021  0.0565
 3359SOL    HW212085   9.871   0.784   6.863 -0.9824  1.1352  0.2284
 3360SOL     OW12086   2.049   7.901   4.580  0.4057  0.1727  0.0660
 3360SOL    HW112087   2.119   7.949   4.536  0.1953  0.3050 -0.1261
 3360SOL    HW212088   1.971   7.919   4.528  0.5580 -1.4774 -0.8365
 3361SOL     OW12089   9.162   5.378   5.073 -0.3077 -0.2773  0.1812
 3361SOL    HW112090   9.176   5.325   5.151 -0.9537 -2.0385 -0.8336
 3361SOL    HW212091   9.085   5.431   5.094  0.4195  0.3803  1.2623
 3362SOL     OW12092   2.798   1.310   3.630  0.1606  0.0361  0.1902
 3362SOL    HW112093   2.820   1.245   3.563 -0.1194 -0.2711  0.3973
 3362SOL    HW212094   2.879   1.320   3.680  0.9658  1.6226 -1.2991
 3363SOL     OW12095   6.492   9.842   1.700 -0.6623  0.1823  0.3692
 3363SOL    HW112096   6.488   9.854   1.794  1.1251 -0.6484  0.5995
 3363SOL    HW212097   6.443   9.761   1.684  1.1313 -1.0950  0.9688
 3364SOL     OW12098   0.424   7.711   9.345 -0.2174  0.5505  0.8402
 3364SOL    HW112099   0.334   7.698   9.377 -0.7155  0.7220 -0.4477
 3364SOL    HW212100   0.479   7.682   9.418 -1.3136 -1.1935  1.0432
 3365SOL     OW12101   7.210   1.257   5.978  0.2526  0.1158  0.2626
 3365SOL    HW112102   7.173   1.184   6.028 -0.4448 -1.2370 -2.0954
 3365SOL    HW212103   7.304   1.255   5.999  0.1685 -1.1775  0.5937
 3366SOL     OW12104   6.585   1.565   2.634  0.0038 -0.1606 -0.3080
 3366SOL    HW112105   6.606   1.588   2.544  1.7224 -0.1029  0.0626
 3366SOL    HW212106   6.521   1.494   2.627 -0.2855  0.2160 -1.5573
 3367SOL     OW12107   1.683   6.911   4.055 -0.7414  0.1817 -0.0159
 3367SOL    HW112108   1.716   6.901   4.145 -1.3981 -0.1037  0.1989
 3367SOL    HW212109   1.670   6.822   4.024 -0.2445  0.2719 -0.5095
 3368SOL     OW12110   8.242   4.735   3.131  0.1167 -0.0173 -0.3632
 3368SOL    HW112111   8.198   4.820   3.128 -0.5973 -0.3642 -0.0046
 3368SOL    HW212112   8.252   4.715   3.224 -1.4249 -1.1550 -0.3884
 3369SOL     OW12113   0.437   4.592   9.795  0.0117  0.0394  0.2447
 3369SOL    HW112114   0.451   4.601   9.889  1.2080  0.2977  0.0586
 3369SOL    HW212115   0.365   4.652   9.776  0.1222  0.4003  0.9176
 3370SOL     OW12116   4.891   7.730   9.528 -0.2000 -0.1668 -0.0267
 3370SOL    HW112117   4.958   7.673   9.490  0.5877 -1.1066  2.5741
 3370SOL    HW212118   4.940   7.794   9.579 -1.2124  0.7468 -0.1619
 3371SOL     OW12119   5.172   3.274   1.933 -0.3530  0.2710 -0.2422
 3371SOL    HW112120   5.100   3.292   1.994 -0.4662 -0.6444 -0.0866
 3371SOL    HW212121   5.136   3.208   1.873  1.0052 -1.8677  1.1588
 3372SOL     OW12122   7.764   5.573   0.734  0.0286 -0.4453  0.1081
 3372SOL    HW112123   7.818   5.497   0.754 -0.9305 -1.0361  0.5090
 3372SOL    HW212124   7.783   5.635   0.805 -0.9139 -1.2438  1.0991
 3373SOL     OW12125   8.369  10.486   8.402  0.1783 -0.6245 -0.1996
 3373SOL    HW112126   8.337  10.433   8.329  1.8639 -2.0884  0.0696
 3373SOL    HW212127   8.311  10.463   8.475 -1.1240  0.3914 -0.8505
 3374SOL     OW12128  10.928  10.750   2.233  0.2527 -0.0974  0.4684
 3374SOL    HW112129  10.992  10.688   2.269 -0.9705 -0.2225  2.6267
 3374SOL    HW212130  10.914  10.813   2.304 -0.5970  1.0405 -0.6709
 3375SOL     OW12131   5.203   8.595   8.963  0.5007 -0.7629  0.2987
 3375SOL    HW112132   5.114   8.615   8.995  0.2262 -0.6607 -0.5172
 3375SOL    HW212133   5.228   8.671   8.911  1.2951 -0.5513  0.9633
 3376SOL     OW12134   0.693   8.519   2.519 -0.3546  0.0010 -0.1244
 3376SOL    HW112135   0.627   8.548   2.456  0.8281  0.4123 -1.2324
 3376SOL    HW212136   0.645   8.506   2.601 -1.6237  1.2808 -0.6275
 3377SOL     OW12137   0.527  10.414   3.382 -0.2937 -0.0125 -0.0312
 3377SOL    HW112138   0.587  10.340   3.374 -0.9098 -0.3213 -3.4072
 3377SOL    HW212139   0.581  10.491   3.363 -0.4439 -0.0384 -0.5814
 3378SOL     OW12140   0.372   3.099   0.557  0.1401 -0.4429  0.2294
 3378SOL    HW112141   0.421   3.135   0.631 -1.3509  1.4247  0.3690
 3378SOL    HW212142   0.387   3.160   0.486 -0.7289 -0.6770 -0.1716
 3379SOL     OW12143   5.013   3.009  10.973  0.6487 -0.0673  0.0354
 3379SOL    HW112144   4.978   3.025  10.886  2.4357  0.4743 -0.6352
 3379SOL    HW212145   5.021   3.095  11.013 -0.4880 -0.3384  0.8945
 3380SOL     OW12146   9.068   8.205   2.423 -0.3596 -0.0383  0.5021
 3380SOL    HW112147   9.154   8.247   2.431  0.0009 -0.5018 -0.7038
 3380SOL    HW212148   9.031   8.208   2.511  1.0411 -0.1480  1.1138
 3381SOL     OW12149   2.248   2.137   1.403 -0.0188  0.3635  0.3610
 3381SOL    HW112150   2.213   2.137   1.492 -0.8011  0.5484  0.0589
 3381SOL    HW212151   2.278   2.048   1.389 -2.0023 -0.2941  0.0035
 3382SOL     OW12152   9.621   7.932   4.300 -0.4013 -0.7966  0.5921
 3382SOL    HW112153   9.528   7.921   4.278 -0.3650  1.7490 -1.3380
 3382SOL    HW212154   9.668   7.891   4.228 -0.1499  0.7865 -0.1996
 3383SOL     OW12155  10.256   7.461   3.319  0.2729 -0.1702  0.1975
 3383SOL    HW112156  10.295   7.527   3.377 -1.0501 -0.4843  1.4999
 3383SOL    HW212157  10.185   7.422   3.371 -1.2826 -0.1526 -1.7865
 3384SOL     OW12158   9.011   7.724   7.661 -0.1179 -0.4395  0.0155
 3384SOL    HW112159   8.974   7.808   7.636 -0.5381 -1.1987 -2.0696
 3384SOL    HW212160   9.099   7.724   7.625  0.5377 -0.2386  1.5236
 3385SOL     OW12161   9.049   5.885   5.239  0.1720 -0.0892  0.7841
 3385SOL    HW112162   9.035   5.948   5.310  0.8404  1.6960 -0.5938
 3385SOL    HW212163   8.988   5.912   5.171 -0.1649 -1.5181  0.4980
 3386SOL     OW12164  10.141  10.455   1.458 -0.3971  0.0406  0.2629
 3386SOL    HW112165  10.059  10.458   1.507 -0.0256 -0.5514  0.9350
 3386SOL    HW212166  10.117  10.416   1.373 -1.0212  0.9753 -0.0029
 3387SOL     OW12167   9.991  10.880   1.335  0.1674  0.1157 -0.2473
 3387SOL    HW112168  10.064  10.911   1.282 -0.0733  0.8320 -0.1767
 3387SOL    HW212169  10.031  10.846   1.414  0.5416 -1.1165 -0.9398
 3388SOL     OW12170   4.411   4.630   9.386  0.0163  0.3184 -0.0747
 3388SOL    HW112171   4.485   4.625   9.326  0.2347 -1.7530  0.2847
 3388SOL    HW212172   4.340   4.583   9.341 -1.2344  2.4755 -0.5278
 3389SOL     OW12173   9.945   2.508   6.333 -0.9852 -0.3172 -0.1767
 3389SOL    HW112174  10.007   2.526   6.404 -1.5483  0.6801  0.0818
 3389SOL    HW212175   9.877   2.454   6.374 -2.0120  1.3622  0.4309
 3390SOL     OW12176   8.995   7.498   4.436 -0.1297 -0.8917  0.3738
 3390SOL    HW112177   8.918   7.465   4.390 -0.5127 -0.7203  0.8740
 3390SOL    HW212178   9.038   7.420   4.471 -0.0681 -0.9881  0.0809
 3391SOL     OW12179   4.502   9.650   3.352  0.2042  0.0785 -0.1563
 3391SOL    HW112180   4.598   9.646   3.353  0.2203 -0.1436  1.9484
 3391SOL    HW212181   4.482   9.737   3.386 -0.3331 -0.5661  1.2239
 3392SOL     OW12182   9.743   2.718   9.173 -0.2087  0.4285  0.4745
 3392SOL    HW112183   9.689   2.765   9.109 -1.8985 -2.2330 -0.2203
 3392SOL    HW212184   9.685   2.703   9.248  0.1646 -0.7030  0.5644
 3393SOL     OW12185   2.158   8.236   6.790 -0.1121 -0.0354  0.5290
 3393SOL    HW112186   2.109   8.173   6.737 -1.0480  0.2197  1.0682
 3393SOL    HW212187   2.209   8.286   6.727 -0.8784 -0.0236 -0.0897
 3394SOL     OW12188   2.374   7.394   5.911 -0.0376  0.4581 -0.1148
 3394SOL    HW112189   2.411   7.478   5.884  0.7896 -0.0092 -0.5137
 3394SOL    HW212190   2.346   7.353   5.829 -0.2243  0.2500  0.0502
 3395SOL     OW12191   3.614  10.230   1.230  0.0623  0.1705 -0.1250
 3395SOL    HW112192   3.578  10.280   1.157  3.5671  1.1947 -1.3584
 3395SOL    HW212193   3.643  10.297   1.292  2.5472 -0.3538 -0.6348
 3396SOL     OW12194  10.295   7.745   5.877 -0.0822  0.3096 -0.0541
 3396SOL    HW112195  10.362   7.677   5.886 -0.4261 -0.0435 -0.1189
 3396SOL    HW212196  10.225   7.702   5.828 -0.2429  0.7572 -0.2175
 3397SOL     OW12197   2.020   3.611   7.068 -0.6280  0.2850 -0.0130
 3397SOL    HW112198   2.050   3.584   7.154 -1.1610  1.5615  0.6011
 3397SOL    HW212199   1.991   3.530   7.026  2.1530 -0.7776 -0.0708
 3398SOL     OW12200   4.604   6.378   6.787  0.0776 -0.0076 -0.3009
 3398SOL    HW112201   4.642   6.358   6.872 -0.4177  0.0206 -0.0652
 3398SOL    HW212202   4.673   6.422   6.739 -0.2248  1.7538  0.7865
 3399SOL     OW12203   0.177   6.188   6.112  0.0435 -0.0334 -0.2693
 3399SOL    HW112204   0.154   6.210   6.202  1.3644 -1.5872  0.5038
 3399SOL    HW212205   0.105   6.132   6.082  0.3554 -0.8110  0.3976
 3400SOL     OW12206   9.039   7.743   4.602  0.0200 -0.3063  0.2229
 3400SOL    HW112207   9.013   7.662   4.559  1.6488  0.1357 -1.7493
 3400SOL    HW212208   9.134   7.748   4.589  0.3969  0.5643  2.7536
 3401SOL     OW12209   9.644   5.799   0.720 -0.1729 -0.3332  0.4143
 3401SOL    HW112210   9.560   5.844   0.714  0.3144  0.5099 -0.3255
 3401SOL    HW212211   9.666   5.776   0.629  1.5005  1.5918  0.2565
 3402SOL     OW12212   8.735   8.751   8.545  0.2668 -0.5257 -0.3409
 3402SOL    HW112213   8.675   8.739   8.471 -0.4605 -2.1855  0.4668
 3402SOL    HW212214   8.680   8.783   8.616  1.3880  3.7479 -1.1147
 3403SOL     OW12215   1.568   6.894   6.105 -0.1243 -0.1277 -0.6512
 3403SOL    HW112216   1.576   6.821   6.044  0.3717 -1.1964  0.6255
 3403SOL    HW212217   1.476   6.921   6.098 -0.4949 -1.3231 -0.6848
 3404SOL     OW12218  10.534   9.512   5.597 -0.0486  0.1666  0.0982
 3404SOL    HW112219  10.535   9.423   5.563  1.5160  0.0574  0.3937
 3404SOL    HW212220  10.440   9.532   5.606 -0.4658 -2.0280  1.5641
 3405SOL     OW12221   9.207   9.734   9.234  0.5771 -0.5298 -0.1822
 3405SOL    HW112222   9.202   9.735   9.139 -1.3035 -1.1281 -0.1390
 3405SOL    HW212223   9.177   9.821   9.261 -0.5587 -0.9243 -0.1229
 3406SOL     OW12224   5.414   5.347   2.611 -0.5186 -0.1881 -0.0032
 3406SOL    HW112225   5.438   5.392   2.529  0.1290 -0.9442 -0.2406
 3406SOL    HW212226   5.386   5.260   2.583 -1.1323 -0.1583  0.5099
 3407SOL     OW12227   5.342  10.982   9.352  0.2068  0.4059 -0.0176
 3407SOL    HW112228   5.361  10.989   9.446  1.1840  0.4102 -0.2073
 3407SOL    HW212229   5.287  10.905   9.344 -2.1448  1.8650  0.8761
 3408SOL     OW12230   5.060   4.357   0.651  0.1822  0.1104  0.2376
 3408SOL    HW112231   4.969   4.337   0.671  0.2891 -1.2159 -0.4718
 3408SOL    HW212232   5.060   4.374   0.556  0.4355  1.6219  0.4886
 3409SOL     OW12233   1.982   1.333   4.619 -0.0219 -0.7960  0.3302
 3409SOL    HW112234   2.036   1.305   4.545 -1.1914  2.7843 -2.1249
 3409SOL    HW212235   2.044   1.373   4.680  0.6490 -1.4831  0.1145
 3410SOL     OW12236   1.140   1.438   8.951  0.7504 -0.1738 -0.0634
 3410SOL    HW112237   1.118   1.387   8.874  0.7955 -0.4432  0.0995
 3410SOL    HW212238   1.213   1.391   8.991  1.5470  0.6348 -0.5243
 3411SOL     OW12239   0.157   3.310   7.019  0.1954 -0.1993 -0.0401
 3411SOL    HW112240   0.068   3.309   7.054  0.0645 -3.2484 -0.1924
 3411SOL    HW212241   0.153   3.255   6.941  1.7354  1.7415 -1.5997
 3412SOL     OW12242   5.370   5.388   1.952  0.2892 -0.2971  0.0223
 3412SOL    HW112243   5.295   5.411   1.896  1.3089  0.1703 -1.2243
 3412SOL    HW212244   5.417   5.471   1.961  0.7613 -0.6345  0.6202
 3413SOL     OW12245   6.385   6.913   1.607 -0.4705  0.0606 -0.2178
 3413SOL    HW112246   6.467   6.886   1.649 -1.1706  1.3304  2.1111
 3413SOL    HW212247   6.382   7.008   1.619 -2.0238  0.1121 -0.7728
 3414SOL     OW12248   9.728   8.762   4.945 -0.0100  0.1548 -0.6032
 3414SOL    HW112249   9.764   8.734   5.029 -0.1927  0.3071 -0.4731
 3414SOL    HW212250   9.660   8.698   4.925  0.5549 -0.3206 -1.0088
 3415SOL     OW12251   1.532   9.213   1.730 -0.5560 -0.2035  0.1420
 3415SOL    HW112252   1.502   9.297   1.764 -0.5868 -0.5711  1.0615
 3415SOL    HW212253   1.627   9.214   1.746 -0.6125 -0.4956  0.5215
 3416SOL     OW12254   6.574   4.256   2.440  0.6619  0.4589 -0.5034
 3416SOL    HW112255   6.499   4.242   2.498  0.0327 -0.6957 -1.5266
 3416SOL    HW212256   6.557   4.341   2.400  0.8083  0.9970  0.5535
 3417SOL     OW12257  10.193   6.651   7.361 -0.1578 -0.8302 -0.5644
 3417SOL    HW112258  10.249   6.674   7.288 -0.0927  0.1882 -0.2111
 3417SOL    HW212259  10.207   6.557   7.373  0.7981 -0.7637 -1.0403
 3418SOL     OW12260   9.005   4.747   8.212 -0.4826  0.2501 -0.2129
 3418SOL    HW112261   8.909   4.737   8.212 -0.4784 -0.2118  1.8450
 3418SOL    HW212262   9.019   4.839   8.233 -0.4801  0.2908 -0.3945
 3419SOL     OW12263   9.005   2.681   1.758 -0.1385 -0.5281 -0.1195
 3419SOL    HW112264   8.922   2.715   1.791  0.4927 -0.0197  1.0355
 3419SOL    HW212265   8.999   2.689   1.663 -0.8036  0.9842  0.0232
 3420SOL     OW12266   2.067   2.085   3.295 -0.4979 -0.3299  0.0501
 3420SOL    HW112267   2.124   2.158   3.317  0.6953 -0.6817 -1.6900
 3420SOL    HW212268   2.007   2.119   3.229  0.0712 -0.8856 -0.7795
 3421SOL     OW12269   6.805   3.133   9.557 -0.3414  0.5379  0.5719
 3421SOL    HW112270   6.757   3.125   9.474  1.6541 -0.4618 -0.5418
 3421SOL    HW212271   6.776   3.217   9.593 -0.1786  1.7154 -1.8674
 3422SOL     OW12272  10.093   1.439   7.374 -0.2767 -0.2718  0.1255
 3422SOL    HW112273  10.052   1.515   7.332  0.5183 -0.3126 -0.7757
 3422SOL    HW212274  10.186   1.446   7.350  0.1213 -0.5760  1.4948
 3423SOL     OW12275   0.317   2.106   6.528  0.2416 -0.0711 -0.2205
 3423SOL    HW112276   0.344   2.140   6.443 -1.1727 -0.8952 -1.0346
 3423SOL    HW212277   0.284   2.183   6.575  0.5728  0.3123 -0.6061
 3424SOL     OW12278   2.993   2.734   8.210 -0.0634  0.1641 -0.0554
 3424SOL    HW112279   3.004   2.819   8.252  1.4939 -1.6465  3.7148
 3424SOL    HW212280   3.063   2.730   8.145 -0.9790  2.1599 -1.2735
 3425SOL     OW12281  10.953   5.842   0.881 -0.4516  0.2020  0.3358
 3425SOL    HW112282  10.969   5.936   0.883 -1.0972  0.3188  0.5262
 3425SOL    HW212283  10.977   5.815   0.793  1.1789  0.2625  0.7436
 3426SOL     OW12284   5.937   8.828   5.005 -0.2670  0.6248 -0.1249
 3426SOL    HW112285   5.961   8.902   4.949 -0.7264  1.8160  1.1920
 3426SOL    HW212286   5.969   8.751   4.959  0.3135  1.6556 -1.4889
 3427SOL     OW12287   8.392   2.628   4.018  0.1695 -0.0147 -0.7800
 3427SOL    HW112288   8.428   2.539   4.008 -0.5978 -0.3802 -0.3797
 3427SOL    HW212289   8.340   2.642   3.939 -0.7142 -0.4132 -0.2799
 3428SOL     OW12290   6.470   6.187   5.458  0.3390 -0.3832 -0.9701
 3428SOL    HW112291   6.504   6.258   5.513 -0.7796 -1.0989  0.7351
 3428SOL    HW212292   6.408   6.141   5.515  0.7152 -2.4703 -2.1559
 3429SOL     OW12293   9.473  10.867   9.747  0.6855 -0.2351 -0.5103
 3429SOL    HW112294   9.493  10.918   9.669 -1.7549 -1.1064 -1.7886
 3429SOL    HW212295   9.412  10.921   9.797 -0.7785 -1.2050 -1.1643
 3430SOL     OW12296   6.512   4.450   3.553 -0.5730  0.1313  0.3242
 3430SOL    HW112297   6.484   4.540   3.567 -0.9142  0.4402 -1.8897
 3430SOL    HW212298   6.608   4.453   3.559 -0.5910  0.6135  0.3872
 3431SOL     OW12299   5.958   1.819   0.569 -0.4680  0.3872  0.1768
 3431SOL    HW112300   6.040   1.844   0.612  1.4011 -3.3150 -0.8138
 3431SOL    HW212301   5.971   1.844   0.477 -0.7627  0.5137  0.1718
 3432SOL     OW12302   3.170  10.525   3.760  0.0005 -0.3840  0.2420
 3432SOL    HW112303   3.179  10.517   3.855  0.9778  0.0516  0.1981
 3432SOL    HW212304   3.136  10.614   3.746  0.0878 -0.3613  0.1715
 3433SOL     OW12305   2.518  10.182   1.245  0.4762 -0.0373 -0.0657
 3433SOL    HW112306   2.601  10.202   1.288  0.4587  2.9347 -1.2093
 3433SOL    HW212307   2.482  10.267   1.219 -3.3708 -1.0944  1.0842
 3434SOL     OW12308   3.158  10.873   7.677 -0.2224 -0.4188  0.0101
 3434SOL    HW112309   3.088  10.809   7.672 -0.9596  0.4197 -0.9142
 3434SOL    HW212310   3.121  10.944   7.730 -0.5283  0.5332 -1.4221
 3435SOL     OW12311   8.975   6.236   6.985  0.1399  0.4555 -0.6330
 3435SOL    HW112312   9.065   6.240   6.952  0.1522 -0.3788 -0.7448
 3435SOL    HW212313   8.984   6.238   7.080  0.3569 -0.4951 -0.6170
 3436SOL     OW12314  10.845   9.166   9.894  0.0222 -0.3169  0.4231
 3436SOL    HW112315  10.895   9.129   9.821  0.1827  1.8251 -0.6414
 3436SOL    HW212316  10.763   9.117   9.894  0.4999 -1.1610 -0.4237
 3437SOL     OW12317   4.492   4.363   8.134 -0.3729 -0.5385 -0.5827
 3437SOL    HW112318   4.512   4.282   8.181  4.4777 -1.2921 -3.3171
 3437SOL    HW212319   4.497   4.431   8.201  1.7847 -1.9657  0.8352
 3438SOL     OW12320   4.141   9.361   8.837 -0.1073 -0.3334 -0.3296
 3438SOL    HW112321   4.125   9.286   8.779 -1.4191 -1.3889  1.3171
 3438SOL    HW212322   4.076   9.426   8.810 -0.2904 -0.5728 -0.4782
 3439SOL     OW12323   2.695   8.185   1.381 -0.6317  0.3891  0.0425
 3439SOL    HW112324   2.740   8.194   1.297  0.4625 -0.6775  0.4851
 3439SOL    HW212325   2.629   8.116   1.366 -0.1375 -0.1168  0.1681
 3440SOL     OW12326   0.287   5.403   7.353  0.3542 -0.1694  0.3717
 3440SOL    HW112327   0.303   5.314   7.320  0.5004 -0.0957  0.2409
 3440SOL    HW212328   0.195   5.420   7.333  0.2536 -0.3949  0.6431
 3441SOL     OW12329   3.002   4.040   0.209 -0.2984  0.4986 -0.4756
 3441SOL    HW112330   2.917   3.997   0.198 -0.3384 -0.1756  1.8871
 3441SOL    HW212331   2.985   4.111   0.270  0.9631 -0.1410  0.6658
 3442SOL     OW12332   9.329   5.065   2.888 -0.1863  0.0534 -0.5475
 3442SOL    HW112333   9.314   5.140   2.830  0.0168  0.9860  0.5792
 3442SOL    HW212334   9.424   5.052   2.886 -0.3976 -1.8362 -2.7209
 3443SOL     OW12335   3.495   9.554   0.539 -0.1983 -0.1391  0.2263
 3443SOL    HW112336   3.551   9.534   0.464  0.5588  1.1335  0.4285
 3443SOL    HW212337   3.452   9.636   0.516 -0.5135 -0.1177  0.8712
 3444SOL     OW12338   8.226   2.389   1.109  0.4172  0.1189  0.0757
 3444SOL    HW112339   8.200   2.480   1.120  2.2533  0.7889 -0.7955
 3444SOL    HW212340   8.318   2.387   1.135  0.2326 -1.6597  0.7826
 3445SOL     OW12341   5.073   0.242   0.949 -0.3536  0.4156 -0.4134
 3445SOL    HW112342   5.034   0.312   1.002  0.4285  0.3315  0.2869
 3445SOL    HW212343   5.116   0.288   0.877 -0.6429  0.5901 -0.4779
 3446SOL     OW12344   2.540   9.320   1.157 -0.0041 -0.5590 -0.0107
 3446SOL    HW112345   2.600   9.371   1.212 -0.9886  1.9914 -1.1273
 3446SOL    HW212346   2.552   9.355   1.069 -1.5546 -1.5074 -0.6509
 3447SOL     OW12347   5.467   2.761   4.056  0.1273  0.1901 -0.0688
 3447SOL    HW112348   5.514   2.790   4.134  0.3346  1.2380 -0.5698
 3447SOL    HW212349   5.375   2.758   4.083  0.2994 -0.3407  0.4698
 3448SOL     OW12350   5.064   4.719   7.928  0.2795  0.7511  0.7550
 3448SOL    HW112351   4.992   4.781   7.921 -1.1096 -0.7012  1.3768
 3448SOL    HW212352   5.035   4.658   7.997  0.9973 -1.2788 -0.6555
 3449SOL     OW12353   4.399   4.967   8.252 -0.0793 -0.2284 -0.2130
 3449SOL    HW112354   4.479   4.918   8.270  0.0110 -0.3989 -1.0312
 3449SOL    HW212355   4.397   5.037   8.318  0.1080 -0.9545  0.5695
 3450SOL     OW12356   5.201  10.655   1.396  0.1077 -0.4158 -0.1557
 3450SOL    HW112357   5.229  10.721   1.333  0.3459 -0.4286 -0.0632
 3450SOL    HW212358   5.112  10.633   1.369  0.1151 -0.2333 -0.3322
 3451SOL     OW12359   0.073   7.178   3.925  0.2320  0.5003  0.0282
 3451SOL    HW112360   0.073   7.262   3.878  0.4893 -0.0365 -0.9775
 3451SOL    HW212361  -0.001   7.130   3.889  0.2835  0.1677  0.3551
 3452SOL     OW12362   0.986   9.941   4.440 -0.0193 -0.2445  0.0698
 3452SOL    HW112363   0.939   9.908   4.517  0.5479  0.3974  0.7073
 3452SOL    HW212364   1.076   9.912   4.452 -0.1547 -1.1791 -0.9817
 3453SOL     OW12365   0.486   5.461   9.546 -0.0785  0.2267 -0.4578
 3453SOL    HW112366   0.420   5.430   9.484 -0.5667  0.6903 -0.1782
 3453SOL    HW212367   0.446   5.538   9.587  0.2901  0.0152  0.3217
 3454SOL     OW12368   3.250   4.391   4.048  0.3301  0.0486 -0.2887
 3454SOL    HW112369   3.337   4.419   4.019  0.3763 -0.5612 -0.7626
 3454SOL    HW212370   3.198   4.471   4.046  0.6769  0.2713 -0.7984
 3455SOL     OW12371   5.905   1.909   4.051  0.5259 -0.4564 -0.2702
 3455SOL    HW112372   5.948   1.907   3.966 -2.5656  1.1684 -2.0089
 3455SOL    HW212373   5.835   1.844   4.045 -0.0330  0.0119  0.8415
 3456SOL     OW12374   7.084   2.862   8.694  0.5096  0.3555  0.7553
 3456SOL    HW112375   7.125   2.940   8.731 -0.7281  0.8632  1.0995
 3456SOL    HW212376   6.993   2.888   8.677 -0.6495 -1.7146  3.2027
 3457SOL     OW12377   2.750   4.242   3.546 -0.7218  0.0791  0.3149
 3457SOL    HW112378   2.746   4.335   3.569 -0.6618 -0.0409  0.8197
 3457SOL    HW212379   2.658   4.216   3.536 -0.9071 -0.3759  2.5519
 3458SOL     OW12380   1.588   5.869   7.725  0.1358  0.0467 -0.1063
 3458SOL    HW112381   1.502   5.911   7.723  0.3985  0.6210  0.3695
 3458SOL    HW212382   1.623   5.882   7.637  0.2815  0.9743  0.0776
 3459SOL     OW12383   3.990   8.443   8.192  0.4699  0.1456  0.3519
 3459SOL    HW112384   4.017   8.530   8.164  0.8714  0.3070  1.2366
 3459SOL    HW212385   3.909   8.457   8.241  0.1433 -0.0675 -0.1086
 3460SOL     OW12386   7.368   6.478   6.283 -0.8799 -0.2965  0.0819
 3460SOL    HW112387   7.335   6.525   6.207 -0.2083  0.6715  0.3619
 3460SOL    HW212388   7.443   6.531   6.313 -0.7533 -0.9902  1.0372
 3461SOL     OW12389   0.554   0.728   2.387  0.3515 -0.3789  0.3514
 3461SOL    HW112390   0.593   0.727   2.300 -1.8336 -3.0349 -0.7221
 3461SOL    HW212391   0.506   0.810   2.391 -0.2399 -0.6134 -1.3174
 3462SOL     OW12392   6.016   7.453   8.468 -0.2072 -0.0129  0.1436
 3462SOL    HW112393   5.942   7.512   8.459 -0.9694 -0.6688  1.8100
 3462SOL    HW212394   6.001   7.384   8.403 -0.7479  0.1722  0.0723
 3463SOL     OW12395   0.752   9.195   4.857 -0.4224 -0.5131  0.0967
 3463SOL    HW112396   0.816   9.238   4.800 -0.5240 -0.6345 -0.1120
 3463SOL    HW212397   0.747   9.105   4.824 -0.2666 -0.6675  0.4832
 3464SOL     OW12398   6.075   5.447   2.416 -0.3902  0.2372  0.2042
 3464SOL    HW112399   6.061   5.398   2.497  0.0359  0.0558  0.1696
 3464SOL    HW212400   6.139   5.514   2.440 -0.1868  0.1185 -0.0101
 3465SOL     OW12401   3.893   8.364   1.296 -0.2420 -0.3882 -0.3590
 3465SOL    HW112402   3.918   8.402   1.381 -0.2039 -1.3642  0.0823
 3465SOL    HW212403   3.798   8.376   1.292 -0.3091 -0.7560  0.0376
 3466SOL     OW12404   9.263   0.456   3.592 -0.0075  0.2206  0.3118
 3466SOL    HW112405   9.179   0.460   3.547  0.0232 -0.5952  0.1844
 3466SOL    HW212406   9.311   0.533   3.561 -0.6141  0.5582  0.2107
 3467SOL     OW12407   3.334   4.604   2.470 -0.0405  0.1045 -0.5973
 3467SOL    HW112408   3.258   4.566   2.425  0.3110 -1.7094  0.2196
 3467SOL    HW212409   3.403   4.538   2.461  0.9955  1.0729 -0.0639
 3468SOL     OW12410   7.285  10.431   7.230  0.6403  0.1330 -0.3258
 3468SOL    HW112411   7.364  10.404   7.183  1.3812  2.7267 -0.6970
 3468SOL    HW212412   7.224  10.458   7.162 -0.5803 -1.6687 -0.0281
 3469SOL     OW12413   8.781   4.781   9.166  0.1057  0.0709  0.6290
 3469SOL    HW112414   8.717   4.738   9.223 -0.3199  2.4713  2.0619
 3469SOL    HW212415   8.803   4.862   9.210  3.7838 -0.3532 -0.0935
 3470SOL     OW12416   1.262   8.058   7.024  0.2301 -0.1857  0.2104
 3470SOL    HW112417   1.302   7.994   6.965 -0.4655  0.0526 -0.5348
 3470SOL    HW212418   1.335   8.090   7.077  1.0470  0.2109 -1.0876
 3471SOL     OW12419   5.074   1.366  10.243  0.1077  0.1401  0.4680
 3471SOL    HW112420   5.065   1.434  10.176  2.0175  0.7540  0.7822
 3471SOL    HW212421   5.071   1.284  10.195 -1.6929  0.4257  0.0174
 3472SOL     OW12422   1.449   6.792   2.558  0.3010  0.8074  0.0029
 3472SOL    HW112423   1.397   6.861   2.598  0.6807  0.3237  1.3913
 3472SOL    HW212424   1.420   6.790   2.466  1.3200  3.7628 -0.4684
 3473SOL     OW12425   2.215   0.583   5.441 -0.2632 -0.1760  0.3138
 3473SOL    HW112426   2.176   0.506   5.400  2.6829 -1.6436 -0.0503
 3473SOL    HW212427   2.143   0.645   5.450 -2.1347 -1.7795 -2.2504
 3474SOL     OW12428  10.958  10.777   6.910 -0.0715  0.0324 -0.0442
 3474SOL    HW112429  10.914  10.711   6.856  0.9668 -0.0946 -0.7548
 3474SOL    HW212430  11.022  10.817   6.852 -0.8664  1.8770  0.2996
 3475SOL     OW12431   4.218  10.103   9.505 -0.3884 -0.0477 -0.0518
 3475SOL    HW112432   4.171  10.111   9.422 -0.6897  1.3366  0.2178
 3475SOL    HW212433   4.236  10.194   9.531 -0.6604 -0.4296  1.5925
 3476SOL     OW12434   0.095   2.080   0.405  0.3593 -0.0738 -0.7038
 3476SOL    HW112435   0.011   2.050   0.439  0.6763  0.2314  0.3628
 3476SOL    HW212436   0.160   2.051   0.469  1.0064  0.2056 -1.2160
 3477SOL     OW12437   0.962   1.168   8.260 -0.1139 -0.1727 -0.4776
 3477SOL    HW112438   0.929   1.163   8.350  2.0815  0.5033  0.4139
 3477SOL    HW212439   0.897   1.221   8.214  0.3214  2.2988  1.5417
 3478SOL     OW12440   1.743   7.677   5.944  0.1193 -0.1002  0.6226
 3478SOL    HW112441   1.810   7.746   5.942  0.9352 -0.8711  0.3974
 3478SOL    HW212442   1.761   7.628   6.024  0.1200 -0.5903  0.3263
 3479SOL     OW12443   6.224   7.543   8.311  0.3015  0.7098  0.1411
 3479SOL    HW112444   6.160   7.517   8.378  0.5110  0.2868  0.1822
 3479SOL    HW212445   6.198   7.631   8.286  1.7465  1.9805  2.6944
 3480SOL     OW12446   2.217   8.455   7.452  0.2956 -0.4168 -0.1516
 3480SOL    HW112447   2.264   8.430   7.372  2.1722 -0.8309  1.0313
 3480SOL    HW212448   2.233   8.383   7.513 -3.1614 -1.3011 -0.1147
 3481SOL     OW12449   8.128   5.591   7.646 -0.1878 -0.4750  0.1702
 3481SOL    HW112450   8.143   5.675   7.602  1.1202  0.3526  2.0821
 3481SOL    HW212451   8.207   5.576   7.698 -1.0130 -2.1637  1.0352
 3482SOL     OW12452   7.989   3.302   9.630 -0.4032  0.4703 -0.1816
 3482SOL    HW112453   7.990   3.252   9.711  0.0864  1.8797  0.7246
 3482SOL    HW212454   8.059   3.366   9.641 -1.1348  1.4809 -1.1990
 3483SOL     OW12455   5.830   2.108  10.236 -0.0494 -0.0386  0.4742
 3483SOL    HW112456   5.850   2.179  10.297  1.3027 -0.2737  0.3464
 3483SOL    HW212457   5.824   2.030  10.291 -2.4531  0.2686  0.7349
 3484SOL     OW12458   3.369   3.397   9.233 -0.0666  0.3466 -0.2140
 3484SOL    HW112459   3.379   3.421   9.141  1.0236 -0.8842 -0.4553
 3484SOL    HW212460   3.402   3.472   9.282  1.9538 -0.0285 -0.9029
 3485SOL     OW12461   3.418  10.191   8.513  0.3150 -0.9756  0.4092
 3485SOL    HW112462   3.386  10.189   8.422 -0.4756 -0.5780  0.6668
 3485SOL    HW212463   3.387  10.274   8.547 -1.9837 -2.3244  1.9291
 3486SOL     OW12464   5.492   7.735   0.843 -0.1734 -0.4334 -0.5820
 3486SOL    HW112465   5.575   7.783   0.844 -0.5060  0.1684 -0.8329
 3486SOL    HW212466   5.502   7.670   0.774  0.1095 -0.4056 -0.5676
 3487SOL     OW12467   9.329   3.523   1.684 -0.1234 -0.0702 -0.4513
 3487SOL    HW112468   9.340   3.461   1.612  1.6085 -1.9269  1.2875
 3487SOL    HW212469   9.401   3.586   1.673  0.6907 -0.8822  0.1277
 3488SOL     OW12470   4.951   8.948   2.905  0.0170 -1.0012 -0.0376
 3488SOL    HW112471   4.921   8.887   2.973  0.3998 -0.6667  0.4459
 3488SOL    HW212472   5.032   8.984   2.940  0.8549 -1.6963 -1.2143
 3489SOL     OW12473   3.884   1.374   8.479 -0.1293  0.0341  0.5734
 3489SOL    HW112474   3.875   1.454   8.428  1.7640  1.2068  1.9468
 3489SOL    HW212475   3.977   1.354   8.476 -0.7115 -3.0700 -1.0030
 3490SOL     OW12476   1.786   1.228   3.363  0.2129 -0.0541  0.8108
 3490SOL    HW112477   1.807   1.321   3.366 -2.1641  0.6108 -0.4167
 3490SOL    HW212478   1.833   1.195   3.287  0.4681  0.3247  0.8005
 3491SOL     OW12479  10.274   4.140   7.892  0.1561  0.1887 -0.0855
 3491SOL    HW112480  10.334   4.187   7.835 -0.6277  0.4312 -0.7330
 3491SOL    HW212481  10.232   4.207   7.945 -1.4217  0.3319 -1.4480
 3492SOL     OW12482   6.275   5.105   1.710  0.6350 -0.0329 -0.6142
 3492SOL    HW112483   6.333   5.180   1.725  1.5635 -0.4377 -1.9256
 3492SOL    HW212484   6.250   5.075   1.797  0.9786  1.2447 -0.0579
 3493SOL     OW12485   1.415   5.903   9.847 -0.4251 -0.5088  0.0624
 3493SOL    HW112486   1.482   5.840   9.819 -0.5407 -0.1542 -1.0741
 3493SOL    HW212487   1.434   5.918   9.939  2.9487  1.7600 -0.7969
 3494SOL     OW12488   9.498   8.065   0.123  0.9122 -0.2095 -1.1160
 3494SOL    HW112489   9.501   8.023   0.210  0.5555  0.1087 -0.9475
 3494SOL    HW212490   9.492   8.158   0.142 -1.1982 -0.2319 -1.4510
 3495SOL     OW12491   1.213  10.776   8.506 -0.4006  0.0849 -0.1510
 3495SOL    HW112492   1.191  10.848   8.446 -0.0805  0.2318 -0.0940
 3495SOL    HW212493   1.289  10.735   8.467  0.0203  0.3941  0.3311
 3496SOL     OW12494  10.830   6.205   0.538  0.5222  0.1440  0.2981
 3496SOL    HW112495  10.754   6.149   0.550  0.6736  0.0941  1.1271
 3496SOL    HW212496  10.901   6.144   0.514 -0.0500  0.3749 -2.2237
 3497SOL     OW12497   0.035   4.062   6.654 -0.0240  0.1855  0.2344
 3497SOL    HW112498  -0.048   4.103   6.628 -0.3448 -1.2989 -1.2304
 3497SOL    HW212499   0.094   4.078   6.581  1.2808  1.8572  1.5660
 3498SOL     OW12500   3.947   0.417   0.180  0.1432 -0.2109  0.1664
 3498SOL    HW112501   3.977   0.334   0.215  0.2869 -0.4084 -0.4131
 3498SOL    HW212502   3.923   0.469   0.257  0.1399 -0.7521  0.5334
 3499SOL     OW12503   5.280   1.858   3.326  0.4568 -0.2681  0.1760
 3499SOL    HW112504   5.250   1.856   3.417  0.5110 -0.2858  0.1936
 3499SOL    HW212505   5.373   1.880   3.332 -0.1000  2.4680 -0.0068
 3500SOL     OW12506   2.190   1.498   2.507 -0.3765  0.0042  0.0564
 3500SOL    HW112507   2.243   1.465   2.434 -0.9616  0.7293 -0.7217
 3500SOL    HW212508   2.210   1.592   2.511 -0.8837  0.1051  0.3675
 3501SOL     OW12509   3.241   8.018  10.666 -0.2062 -0.1600 -0.4899
 3501SOL    HW112510   3.331   7.994  10.644  0.2383  1.0136  0.0054
 3501SOL    HW212511   3.216   8.080  10.598  0.7935  2.6297  1.5154
 3502SOL     OW12512   3.941   7.183  10.693 -0.4539 -0.0095 -0.6518
 3502SOL    HW112513   3.891   7.203  10.773 -3.1752 -1.5300 -1.8237
 3502SOL    HW212514   3.915   7.093  10.671  1.8636 -0.3976 -2.1446
 3503SOL     OW12515  10.138   1.315   7.828 -0.3342  0.4838 -0.6052
 3503SOL    HW112516  10.123   1.311   7.733 -0.8128  1.8730 -0.6089
 3503SOL    HW212517  10.208   1.251   7.843 -2.2360 -1.9400 -1.4325
 3504SOL     OW12518   1.785   4.005   4.683  0.5798 -0.2619  0.4307
 3504SOL    HW112519   1.819   3.985   4.596 -0.3952  0.2578 -0.0872
 3504SOL    HW212520   1.860   4.040   4.731  0.4693  2.6035 -1.2547
 3505SOL     OW12521   2.875   9.803   5.203 -0.1356 -0.0056  0.1795
 3505SOL    HW112522   2.962   9.828   5.233  1.9005 -2.6611 -2.8764
 3505SOL    HW212523   2.850   9.730   5.259 -0.0361  0.2636  0.5752
 3506SOL     OW12524   1.534   7.497   2.588 -0.1524  0.6744 -0.0634
 3506SOL    HW112525   1.565   7.583   2.617 -0.8382  0.8271  0.2391
 3506SOL    HW212526   1.600   7.436   2.620 -0.4464  0.9348  1.0780
 3507SOL     OW12527   8.629   3.683   0.582  0.4576  0.5624 -0.0312
 3507SOL    HW112528   8.699   3.675   0.647  0.1523  2.8702  0.6738
 3507SOL    HW212529   8.565   3.741   0.623 -1.7086 -1.1075 -0.8389
 3508SOL     OW12530   4.048   9.752   6.731  0.0088 -0.5102  0.6420
 3508SOL    HW112531   3.963   9.795   6.744  0.0571 -0.3492  0.4412
 3508SOL    HW212532   4.069   9.769   6.639 -0.9026 -2.6217 -0.0366
 3509SOL     OW12533  10.765   5.865   7.524  0.3270  0.2550 -0.1551
 3509SOL    HW112534  10.671   5.854   7.511  0.3086 -0.8287  0.7356
 3509SOL    HW212535  10.786   5.947   7.480 -0.6818 -0.4105 -1.9742
 3510SOL     OW12536   8.438   0.303   6.068  0.2836  0.2152 -0.5341
 3510SOL    HW112537   8.399   0.253   6.140  1.5455  1.2050  0.9038
 3510SOL    HW212538   8.394   0.270   5.990 -0.8212 -1.2290  0.6250
 3511SOL     OW12539   1.335   9.753   5.320 -0.0899  0.1473  0.9893
 3511SOL    HW112540   1.385   9.821   5.275 -0.8832 -0.4036 -0.8012
 3511SOL    HW212541   1.396   9.679   5.325 -1.2241 -1.3068 -3.1916
 3512SOL     OW12542  10.578   0.632   9.363  0.3668  0.4123 -1.1912
 3512SOL    HW112543  10.493   0.591   9.346  0.3638  0.7252 -1.9809
 3512SOL    HW212544  10.605   0.667   9.278  1.0301  0.8016 -0.8283
 3513SOL     OW12545   6.948   8.819   3.520  0.2486  0.0463  0.4703
 3513SOL    HW112546   6.931   8.786   3.431 -0.5615 -2.5077  1.4609
 3513SOL    HW212547   6.878   8.882   3.536 -0.1562 -0.1669 -0.3776
 3514SOL     OW12548   8.297   7.577   7.961  0.4141 -0.3400  0.4337
 3514SOL    HW112549   8.283   7.669   7.936 -0.7128  0.0865  2.4559
 3514SOL    HW212550   8.360   7.581   8.033  1.0594 -1.2526 -0.0702
 3515SOL     OW12551   7.918   3.128   9.846  0.1252 -0.5278 -0.1346
 3515SOL    HW112552   7.837   3.179   9.837  1.3971  1.4324 -1.3117
 3515SOL    HW212553   7.889   3.037   9.843 -2.1566  0.0923  0.9203
 3516SOL     OW12554   2.989   1.990   9.912 -0.6070  0.0412 -0.1070
 3516SOL    HW112555   3.026   2.048   9.845  1.3734 -3.4096 -2.3058
 3516SOL    HW212556   2.917   1.945   9.868 -0.6883 -0.7528  0.7996
 3517SOL     OW12557  10.328   0.815   3.619 -0.8337 -0.6007  0.3884
 3517SOL    HW112558  10.401   0.856   3.666 -0.6112 -1.9914  1.3344
 3517SOL    HW212559  10.255   0.876   3.630 -1.0272 -1.2222  3.3628
 3518SOL     OW12560   6.848   7.003   8.594  0.1164 -0.4072  0.0998
 3518SOL    HW112561   6.936   7.022   8.625 -0.6048  1.7128  1.0246
 3518SOL    HW212562   6.798   6.983   8.673 -0.4567 -0.6360 -0.3125
 3519SOL     OW12563   2.576   9.842   0.529 -0.0294 -0.2168 -0.6764
 3519SOL    HW112564   2.530   9.798   0.601  1.3350  0.0043  0.3617
 3519SOL    HW212565   2.617   9.771   0.480  0.4457 -0.2668 -0.2197
 3520SOL     OW12566  10.076   2.468   6.861 -0.5685  0.1572 -0.2762
 3520SOL    HW112567  10.066   2.554   6.900 -0.9160 -0.3117  0.6905
 3520SOL    HW212568   9.988   2.429   6.866 -0.2950 -0.4624 -0.2069
 3521SOL     OW12569   5.757   0.235   5.797 -0.9517  0.3176 -0.3519
 3521SOL    HW112570   5.736   0.174   5.727 -0.4717  1.1255 -1.2128
 3521SOL    HW212571   5.818   0.298   5.758 -1.2713  1.2336  0.5631
 3522SOL     OW12572   0.743   3.279   6.633  0.0774 -0.1004  0.7372
 3522SOL    HW112573   0.810   3.292   6.700  0.9083  0.8200 -0.2338
 3522SOL    HW212574   0.789   3.235   6.561 -0.8111 -1.1288  0.7763
 3523SOL     OW12575   3.162   7.981   5.710 -0.2909 -0.4937 -0.3237
 3523SOL    HW112576   3.098   8.043   5.675 -0.5322 -0.9479 -0.6996
 3523SOL    HW212577   3.124   7.895   5.693 -0.2576 -0.7414  0.7551
 3524SOL     OW12578   0.895   5.406   2.911 -0.2626  0.6559  0.3262
 3524SOL    HW112579   0.907   5.388   2.818 -1.3725  0.5539  0.1878
 3524SOL    HW212580   0.817   5.461   2.915 -0.9253 -0.3204  1.2852
 3525SOL     OW12581   4.363   8.671   6.061 -0.5714 -0.0430  0.0975
 3525SOL    HW112582   4.337   8.588   6.100 -0.9465  0.4213  0.8702
 3525SOL    HW212583   4.284   8.702   6.016 -0.6505  0.2250  0.4128
 3526SOL     OW12584   8.787   4.400  10.599 -0.4425  0.3941  0.0906
 3526SOL    HW112585   8.722   4.333  10.577 -1.2274  0.9801  0.5509
 3526SOL    HW212586   8.779   4.464  10.529  1.0007 -0.4423 -0.8837
 3527SOL     OW12587   9.537   2.140  10.294 -0.4511 -0.3480 -0.1767
 3527SOL    HW112588   9.608   2.183  10.246 -1.0424 -0.8846 -1.5988
 3527SOL    HW212589   9.541   2.177  10.382  1.5987 -0.3779 -0.2148
 3528SOL     OW12590   0.613   7.056   0.733  0.6221  0.2776 -0.0847
 3528SOL    HW112591   0.689   7.115   0.735  1.5092 -0.7813 -1.0514
 3528SOL    HW212592   0.651   6.968   0.727 -0.6896 -0.2842 -0.4733
 3529SOL     OW12593   9.608   7.248   5.496 -0.1734  0.5313 -0.3734
 3529SOL    HW112594   9.688   7.244   5.444 -0.6383  0.3116 -1.0864
 3529SOL    HW212595   9.605   7.163   5.541  0.7165  1.0839  0.7739
 3530SOL     OW12596   6.157   8.423   7.216  0.0841  0.0204 -0.4265
 3530SOL    HW112597   6.202   8.406   7.298  0.2142  1.1219 -0.2583
 3530SOL    HW212598   6.225   8.415   7.149  0.1779  0.0657 -0.3361
 3531SOL     OW12599   8.913   3.203   5.743 -0.1552 -0.0287  0.3861
 3531SOL    HW112600   8.978   3.156   5.796  0.4402  0.3644  0.0136
 3531SOL    HW212601   8.832   3.153   5.755  0.3407 -0.8370  0.4272
 3532SOL     OW12602   5.677   5.453   6.891  0.2395  0.3112  0.0728
 3532SOL    HW112603   5.711   5.443   6.802 -2.6428 -1.5253 -0.9520
 3532SOL    HW212604   5.707   5.376   6.938  0.0928  0.2626  0.0879
 3533SOL     OW12605   5.167   8.827   2.240 -0.2518 -0.1770 -0.7149
 3533SOL    HW112606   5.252   8.798   2.273  0.4596  0.1824 -2.1299
 3533SOL    HW212607   5.105   8.802   2.308  0.9940 -0.3630  0.3965
 3534SOL     OW12608   9.133   1.614   1.777 -0.0825 -0.3584 -0.1898
 3534SOL    HW112609   9.063   1.588   1.836  0.7095  0.5115  1.2005
 3534SOL    HW212610   9.153   1.536   1.727 -1.6174 -0.7800 -0.1709
 3535SOL     OW12611   8.236   8.032   5.779 -0.8157 -0.2282  0.3564
 3535SOL    HW112612   8.221   7.958   5.720 -0.1789 -0.0531 -0.0302
 3535SOL    HW212613   8.176   8.100   5.747 -1.2957 -0.5228  0.6220
 3536SOL     OW12614   7.557   2.703   8.469  0.1151  0.1885  0.3237
 3536SOL    HW112615   7.506   2.679   8.391  2.0675  1.2069 -1.3658
 3536SOL    HW212616   7.510   2.777   8.507 -0.1015  0.6173 -0.7480
 3537SOL     OW12617   9.711   9.027   6.380 -0.2197  0.4570 -0.1138
 3537SOL    HW112618   9.718   9.096   6.445  0.2285 -0.1477  0.4918
 3537SOL    HW212619   9.740   9.067   6.298 -0.1892  1.0449  0.1841
 3538SOL     OW12620   2.196   9.003   8.158 -0.2474  0.0959 -0.9205
 3538SOL    HW112621   2.109   9.018   8.122 -1.5799 -0.4598  1.8026
 3538SOL    HW212622   2.217   9.086   8.202 -0.8923 -0.7752  1.1509
 3539SOL     OW12623   0.462   8.443   4.264 -0.3102  0.3560  0.0234
 3539SOL    HW112624   0.406   8.513   4.297  1.3873  2.0017 -0.3848
 3539SOL    HW212625   0.550   8.481   4.264  0.7455 -1.9334  0.1450
 3540SOL     OW12626   2.097   1.418   7.790 -0.3050  0.2172 -0.1461
 3540SOL    HW112627   2.030   1.352   7.777 -0.6293  0.5355 -0.0923
 3540SOL    HW212628   2.049   1.496   7.817 -0.0237  0.8013 -1.2935
 3541SOL     OW12629   5.639   5.635   0.745  0.6764  0.1666 -0.6123
 3541SOL    HW112630   5.657   5.729   0.736  2.8103 -0.1008  0.2202
 3541SOL    HW212631   5.684   5.610   0.826  0.2912 -1.6123 -0.9088
 3542SOL     OW12632   2.091   4.320   4.171 -0.6209 -0.3981  0.0371
 3542SOL    HW112633   2.173   4.276   4.148  0.4900  1.1855  0.7761
 3542SOL    HW212634   2.024   4.274   4.120  0.6629 -1.9700 -0.3108
 3543SOL     OW12635   4.211   2.986   7.863  0.1259  0.1011 -0.1288
 3543SOL    HW112636   4.239   3.011   7.951  0.0289  0.6211 -0.2409
 3543SOL    HW212637   4.125   2.947   7.875 -0.5247  1.4543 -0.1294
 3544SOL     OW12638   6.992   0.639   4.600  0.4957  0.3075 -0.3761
 3544SOL    HW112639   7.045   0.562   4.622  0.0843 -0.1882 -1.0959
 3544SOL    HW212640   6.960   0.622   4.512  1.0641  1.6876 -0.8702
 3545SOL     OW12641   9.720  10.792   7.777 -0.3464 -0.2949 -0.0636
 3545SOL    HW112642   9.709  10.821   7.686  1.0842  0.2111 -0.0893
 3545SOL    HW212643   9.787  10.849   7.813 -1.2745 -0.1280  1.5016
 3546SOL     OW12644   8.930   7.631   0.528 -0.0039 -0.4355 -0.1255
 3546SOL    HW112645   8.950   7.676   0.610 -0.5786  2.1407 -1.3122
 3546SOL    HW212646   8.904   7.543   0.556  3.2251 -0.8599  2.1538
 3547SOL     OW12647   1.208   7.991   8.647 -0.4720  0.1525  0.8209
 3547SOL    HW112648   1.158   7.914   8.621 -0.2189 -0.7201  2.7250
 3547SOL    HW212649   1.299   7.968   8.630 -0.4531  0.3054  0.7159
 3548SOL     OW12650   5.956   2.525   4.169  0.0771 -0.1608  0.3701
 3548SOL    HW112651   6.030   2.478   4.132 -0.8296 -0.4308 -1.2151
 3548SOL    HW212652   5.903   2.458   4.212 -1.7271 -0.9483 -2.7257
 3549SOL     OW12653  10.930   0.634   9.718  0.2608  0.4962  0.0533
 3549SOL    HW112654  10.838   0.612   9.701  0.2233  0.7852 -0.1291
 3549SOL    HW212655  10.945   0.712   9.665  0.9582 -0.2681 -0.9068
 3550SOL     OW12656   4.177   6.384  10.505 -0.2097 -0.4059 -0.1955
 3550SOL    HW112657   4.087   6.369  10.477 -0.2523  0.4519 -0.5431
 3550SOL    HW212658   4.227   6.385  10.423  0.0458 -0.4108 -0.0409
 3551SOL     OW12659   4.214   2.847   2.266  0.1368 -0.0873  0.0649
 3551SOL    HW112660   4.199   2.764   2.221  0.4895 -0.1171  0.0041
 3551SOL    HW212661   4.296   2.835   2.313  0.5959  0.4984 -0.5757
 3552SOL     OW12662   8.627  11.039   8.213 -0.0698  0.0957 -0.4015
 3552SOL    HW112663   8.549  10.984   8.206 -0.7869  0.9726  0.3619
 3552SOL    HW212664   8.674  11.026   8.131 -0.2897 -1.5226 -0.3046
 3553SOL     OW12665   0.212   0.574   7.382 -0.0004 -0.2881 -0.0613
 3553SOL    HW112666   0.268   0.597   7.308  0.1689  0.4178  0.2802
 3553SOL    HW212667   0.172   0.657   7.409 -0.6507 -0.6668  0.1568
 3554SOL     OW12668   2.618   9.058   6.850  0.3036 -0.0616 -0.1167
 3554SOL    HW112669   2.709   9.089   6.855 -0.4583  2.3460  0.2773
 3554SOL    HW212670   2.589   9.056   6.941 -0.2290 -0.2198 -0.2875
 3555SOL     OW12671   2.347   2.553   3.609 -0.2079  0.1294  0.4626
 3555SOL    HW112672   2.315   2.586   3.525 -0.2736  0.9509  0.8017
 3555SOL    HW212673   2.319   2.618   3.673  2.5417  1.2092  0.7180
 3556SOL     OW12674   4.754   4.330  10.830 -0.1797  0.2023  0.3642
 3556SOL    HW112675   4.732   4.411  10.877 -2.3128  0.0449 -0.2389
 3556SOL    HW212676   4.774   4.359  10.741 -1.0486  0.0685  0.1213
 3557SOL     OW12677  10.114  10.405   8.220  0.3754 -0.2004 -0.1310
 3557SOL    HW112678  10.155  10.379   8.137  3.0018  1.9048  0.3401
 3557SOL    HW212679  10.030  10.442   8.195  0.7155 -0.4604 -1.7769
 3558SOL     OW12680  10.329   8.249   1.435 -0.4186 -0.0837 -0.0834
 3558SOL    HW112681  10.379   8.325   1.466 -0.9813  1.7831 -3.2565
 3558SOL    HW212682  10.240   8.264   1.466 -0.5512  0.6844 -0.7878
 3559SOL     OW12683   1.237   2.336   4.621 -0.1709 -0.4255  0.5000
 3559SOL    HW112684   1.164   2.366   4.675  0.2706 -0.1561  0.9581
 3559SOL    HW212685   1.311   2.390   4.649  0.5619 -1.6964  1.0857
 3560SOL     OW12686   5.149   8.941   4.320  0.1991 -0.0459 -0.5871
 3560SOL    HW112687   5.158   8.988   4.238  2.3421  0.9928  0.1641
 3560SOL    HW212688   5.088   8.993   4.372  2.0497  1.6829 -0.0081
 3561SOL     OW12689   7.773   0.589   1.061 -0.0911  0.3727  0.1323
 3561SOL    HW112690   7.862   0.558   1.075 -1.1417 -1.5933  3.7782
 3561SOL    HW212691   7.780   0.684   1.057  2.3568  0.2097 -2.5391
 3562SOL     OW12692   0.514   0.378   6.573 -0.0104 -0.5123  0.1138
 3562SOL    HW112693   0.540   0.435   6.501 -1.5508  0.0164 -0.0621
 3562SOL    HW212694   0.485   0.297   6.531 -0.1296 -0.5121  0.1947
 3563SOL     OW12695   0.306   5.572   9.903 -0.3160  0.1571 -0.4250
 3563SOL    HW112696   0.226   5.523   9.887 -1.3436  1.9941 -1.1480
 3563SOL    HW212697   0.282   5.664   9.890  1.1008  1.0826  2.5768
 3564SOL     OW12698   8.552   8.913   9.839  0.3708  0.3445 -0.0272
 3564SOL    HW112699   8.629   8.876   9.796  1.3780  1.6141  0.6457
 3564SOL    HW212700   8.565   9.008   9.835  0.5726  0.5441  3.1559
 3565SOL     OW12701   5.588   3.643   5.353 -0.2272 -0.4142  0.0515
 3565SOL    HW112702   5.587   3.695   5.273  0.2825 -0.5367 -0.0391
 3565SOL    HW212703   5.562   3.704   5.422 -1.1119 -0.4200 -0.2677
 3566SOL     OW12704   9.436   3.598   3.521  0.3466 -0.2890  0.4494
 3566SOL    HW112705   9.398   3.659   3.584 -1.6436 -0.3116 -0.6416
 3566SOL    HW212706   9.501   3.548   3.570 -0.0493  0.7327  2.0662
 3567SOL     OW12707   5.686   8.990   4.747  0.5937  0.1558  0.0908
 3567SOL    HW112708   5.690   9.008   4.654  1.4573 -0.8578 -0.0916
 3567SOL    HW212709   5.776   8.999   4.777  0.4755 -0.4211  0.6417
 3568SOL     OW12710   7.209   3.617   4.316  0.0603 -0.0593 -0.0227
 3568SOL    HW112711   7.259   3.620   4.397  2.3219  0.1999 -1.3363
 3568SOL    HW212712   7.122   3.649   4.340  0.5382 -0.3735  2.3464
 3569SOL     OW12713   2.587   4.572   8.358 -0.0061 -0.9992 -0.3030
 3569SOL    HW112714   2.517   4.558   8.422  0.9041 -1.8373  0.5371
 3569SOL    HW212715   2.634   4.489   8.356  0.4761 -0.7142 -1.4768
 3570SOL     OW12716   9.109   9.884   1.268  0.5047  0.2250  0.6481
 3570SOL    HW112717   9.055   9.963   1.268 -4.2125 -2.5869  1.8056
 3570SOL    HW212718   9.111   9.856   1.177  0.0593  0.4348  0.5696
 3571SOL     OW12719   8.880   2.089   9.333  0.2992 -0.5480 -0.1232
 3571SOL    HW112720   8.903   2.107   9.424 -1.9448 -0.2343  0.4372
 3571SOL    HW212721   8.834   2.167   9.304 -0.6052 -1.3526 -0.9417
 3572SOL     OW12722   0.925   2.910   8.691 -0.3789 -0.2708  0.6753
 3572SOL    HW112723   1.012   2.900   8.652 -0.1868  1.5930  0.5252
 3572SOL    HW212724   0.903   2.824   8.725  1.2717 -0.9118  0.1840
 3573SOL     OW12725   4.706   9.097   1.696 -0.2597  0.9647 -0.9651
 3573SOL    HW112726   4.736   9.180   1.658  0.8203  0.9490 -0.1678
 3573SOL    HW212727   4.783   9.042   1.699 -0.2088  1.0588  1.4700
 3574SOL     OW12728  10.851  10.692   9.766  0.2990  0.3989  0.1008
 3574SOL    HW112729  10.905  10.614   9.751  1.2762  1.3390 -1.3910
 3574SOL    HW212730  10.911  10.757   9.801 -0.5268  0.5174  1.3797
 3575SOL     OW12731   0.308   4.211  10.403 -0.2337  0.2755  0.1934
 3575SOL    HW112732   0.270   4.130  10.437  3.8960 -1.4097  1.4207
 3575SOL    HW212733   0.344   4.256  10.480  1.9497  0.6474 -0.9432
 3576SOL     OW12734   6.307   2.079   5.741 -0.0932  0.2709  0.0211
 3576SOL    HW112735   6.352   2.115   5.665  4.0901 -4.2893 -0.1592
 3576SOL    HW212736   6.251   2.010   5.704  0.5391 -0.7245  0.8552
 3577SOL     OW12737   7.138  11.029  10.541  0.1475  0.2490 -0.0654
 3577SOL    HW112738   7.111  10.957  10.484 -1.7192  0.6351  0.2580
 3577SOL    HW212739   7.150  10.987  10.627  3.3775 -0.4112 -0.7251
 3578SOL     OW12740   8.871   6.032   6.642 -0.4156 -0.5050  0.1467
 3578SOL    HW112741   8.831   6.119   6.648  1.5447  0.4824 -0.4318
 3578SOL    HW212742   8.956   6.047   6.600 -0.9791 -3.0082 -2.1728
 3579SOL     OW12743  11.019  10.909  10.804 -0.8285 -0.3331  0.7784
 3579SOL    HW112744  11.023  10.940  10.713 -1.6344  1.0834  1.1908
 3579SOL    HW212745  11.110  10.911  10.834 -0.7377  0.8404  0.4997
 3580SOL     OW12746   8.522   7.117   5.889 -0.5568  0.7090  1.1142
 3580SOL    HW112747   8.463   7.111   5.965 -0.3395 -0.1161  1.2237
 3580SOL    HW212748   8.485   7.056   5.825 -0.3615  0.9030  0.8148
 3581SOL     OW12749   4.618   4.138   8.719  0.0625  0.1085  0.4458
 3581SOL    HW112750   4.619   4.211   8.658  1.0616 -0.5663 -0.3976
 3581SOL    HW212751   4.591   4.063   8.666  3.6217 -1.0784 -0.0102
 3582SOL     OW12752   1.288   5.223   7.151  0.1681  0.2243 -0.4213
 3582SOL    HW112753   1.364   5.274   7.121  1.7088 -1.1230  0.9422
 3582SOL    HW212754   1.303   5.213   7.245  0.6131 -3.6624 -0.7574
 3583SOL     OW12755   1.402   7.934  10.904 -0.6157 -0.3274 -0.3607
 3583SOL    HW112756   1.486   7.917  10.948 -1.8215 -1.4609  1.6757
 3583SOL    HW212757   1.407   8.026  10.878  1.2159 -0.3490 -0.2667
 3584SOL     OW12758   7.204   9.995   9.653  0.7615 -0.5055 -0.2592
 3584SOL    HW112759   7.297   9.974   9.663  0.3425 -2.6679 -0.3161
 3584SOL    HW212760   7.173  10.010   9.742  1.1601  0.2280 -0.2403
 3585SOL     OW12761   6.518   4.466   7.509  0.3234  0.2430 -0.0726
 3585SOL    HW112762   6.508   4.393   7.571 -1.2281  1.5068  1.2480
 3585SOL    HW212763   6.458   4.533   7.541 -0.9459  0.7947 -3.2550
 3586SOL     OW12764   7.872   9.883   0.381  0.7029 -0.4503 -0.4965
 3586SOL    HW112765   7.818   9.811   0.350  0.6802 -0.6805  0.0781
 3586SOL    HW212766   7.835   9.908   0.466 -0.1720  1.1805 -1.2973
 3587SOL     OW12767   3.275   2.865   5.111 -0.0768 -0.0159  0.0575
 3587SOL    HW112768   3.352   2.890   5.061  0.6934 -1.8597  0.2804
 3587SOL    HW212769   3.308   2.814   5.185 -1.3519  0.9360  1.3782
 3588SOL     OW12770   9.716   9.248   3.071  0.2449 -0.3296  0.0416
 3588SOL    HW112771   9.719   9.198   3.153  0.1378 -0.4572 -0.0321
 3588SOL    HW212772   9.805   9.245   3.037  0.5356  0.6034  0.6830
 3589SOL     OW12773   6.615   3.548  10.247 -0.2602  0.4989  0.3607
 3589SOL    HW112774   6.550   3.547  10.177  0.9627  1.4969 -0.8223
 3589SOL    HW212775   6.576   3.494  10.316 -2.6622  1.6288 -0.0072
 3590SOL     OW12776   6.161   9.531  10.582  0.0550 -0.0956 -0.2386
 3590SOL    HW112777   6.129   9.621  10.588  0.5702  0.1102 -0.5794
 3590SOL    HW212778   6.219   9.521  10.658 -0.4977 -0.3454  0.1582
 3591SOL     OW12779   6.875   4.279   5.812 -0.3683  0.2451 -0.3640
 3591SOL    HW112780   6.962   4.317   5.824  0.7849 -1.1775 -3.1962
 3591SOL    HW212781   6.820   4.327   5.873  2.5644  0.4369  2.4202
 3592SOL     OW12782   8.890   7.971   0.065 -0.1885  0.3553 -0.1105
 3592SOL    HW112783   8.885   7.974  -0.031 -1.2574  1.6653 -0.0314
 3592SOL    HW212784   8.960   7.908   0.082 -0.1743 -0.1321 -1.7450
 3593SOL     OW12785   6.988   7.692   4.207  0.5957 -0.1719  0.6756
 3593SOL    HW112786   7.065   7.735   4.169  0.5338 -0.8818 -0.2819
 3593SOL    HW212787   6.938   7.661   4.131 -1.2752  1.3194  1.2188
 3594SOL     OW12788   2.893   1.136   7.127  0.2911 -0.8435 -0.1064
 3594SOL    HW112789   2.949   1.061   7.149  3.2666  1.2947  0.1104
 3594SOL    HW212790   2.883   1.130   7.032  1.2191 -1.0847 -0.2041
 3595SOL     OW12791   3.172   4.307   5.267  0.2449  0.1882 -0.2111
 3595SOL    HW112792   3.209   4.395   5.261  0.6161  0.0213 -0.4057
 3595SOL    HW212793   3.209   4.270   5.347  1.1174 -0.2549 -0.7992
 3596SOL     OW12794   1.430   8.707   8.750  0.2691  0.3538 -0.2366
 3596SOL    HW112795   1.380   8.742   8.824  0.1074 -2.4967  1.1400
 3596SOL    HW212796   1.514   8.683   8.789  0.5574 -0.2586 -1.2226
 3597SOL     OW12797   0.515   3.822   0.497  0.1855  0.0717  0.5688
 3597SOL    HW112798   0.426   3.789   0.483  0.0995 -0.1045  1.4558
 3597SOL    HW212799   0.562   3.747   0.535  0.9431 -0.0965 -0.6620
 3598SOL     OW12800   0.028   3.779   1.881 -0.6840 -0.1961 -0.0654
 3598SOL    HW112801   0.039   3.843   1.811  0.9129 -1.1392 -0.7110
 3598SOL    HW212802   0.052   3.826   1.960 -1.3019  0.5143 -0.2811
 3599SOL     OW12803   2.423   2.653   8.712  0.2237 -0.1861  0.2223
 3599SOL    HW112804   2.335   2.634   8.680 -1.6353  1.2645  3.8609
 3599SOL    HW212805   2.445   2.737   8.671 -0.5243 -0.0548  0.0650
 3600SOL     OW12806   6.880  10.157   9.239 -0.2223 -0.0406 -0.2712
 3600SOL    HW112807   6.871  10.250   9.260 -0.7992 -0.1740  0.1111
 3600SOL    HW212808   6.923  10.155   9.154  0.3587  0.5634 -0.0062
 3601SOL     OW12809   7.072   0.440  10.461  0.6994  0.3936  0.3111
 3601SOL    HW112810   7.115   0.356  10.449 -1.6866 -0.9126  0.4872
 3601SOL    HW212811   7.033   0.460  10.376 -3.5450 -1.5796  1.5579
 3602SOL     OW12812   4.421   2.401   6.998  0.3880  0.2656  0.3148
 3602SOL    HW112813   4.396   2.318   7.039 -0.7466  0.0549 -0.7557
 3602SOL    HW212814   4.429   2.381   6.905  3.6480  0.5601  0.4011
 3603SOL     OW12815   9.951   8.616   2.349  0.1238  0.0379 -0.0276
 3603SOL    HW112816   9.957   8.703   2.388 -1.3704  0.2155 -0.1608
 3603SOL    HW212817   9.860   8.607   2.323  0.6748 -0.7989 -1.8449
 3604SOL     OW12818   5.019   1.721   5.055  0.1637  0.0175  0.3859
 3604SOL    HW112819   5.103   1.720   5.010  0.1986  0.3901  0.4421
 3604SOL    HW212820   4.971   1.794   5.016 -0.0460 -0.0480  0.5160
 3605SOL     OW12821   4.768   9.533   9.647 -0.5369  0.1772  0.3746
 3605SOL    HW112822   4.769   9.532   9.742  1.6451  0.2276  0.3916
 3605SOL    HW212823   4.713   9.458   9.623 -2.8625  1.3686  1.6054
 3606SOL     OW12824   9.905   8.654  10.377 -0.2888  0.0593  0.4916
 3606SOL    HW112825   9.855   8.604  10.442  2.0245 -3.5036 -0.2161
 3606SOL    HW212826   9.905   8.599  10.299  1.3317  1.7957 -0.8136
 3607SOL     OW12827   3.940   9.575   4.085 -0.3660  0.1509  0.4246
 3607SOL    HW112828   3.878   9.540   4.150  1.1398 -0.4247  1.6443
 3607SOL    HW212829   3.937   9.512   4.013 -1.8548  0.6363  0.0400
 3608SOL     OW12830   7.248   3.441   4.109  0.3551 -0.6714  0.2133
 3608SOL    HW112831   7.211   3.507   4.167  1.4339  0.5463 -0.4282
 3608SOL    HW212832   7.201   3.361   4.130 -2.5945  0.7478 -0.5067
 3609SOL     OW12833   4.947   7.445   2.691 -0.2105  0.0923  0.2321
 3609SOL    HW112834   5.016   7.495   2.735 -0.2120 -0.8225  1.3156
 3609SOL    HW212835   4.904   7.397   2.762  0.5058 -2.3393 -0.8845
 3610SOL     OW12836   7.284   1.139   3.704  0.6501 -0.1606 -0.2978
 3610SOL    HW112837   7.376   1.117   3.718  0.9027  0.2448 -1.2927
 3610SOL    HW212838   7.276   1.157   3.611  0.0551  2.0617  0.1168
 3611SOL     OW12839  10.182   2.753  10.822  0.2079 -0.5262 -0.5378
 3611SOL    HW112840  10.192   2.841  10.784  0.1814 -0.0241  0.5631
 3611SOL    HW212841  10.271   2.731  10.852  0.1219 -0.6692 -0.3886
 3612SOL     OW12842   4.241   6.240   6.772 -0.1395 -0.1042 -0.3434
 3612SOL    HW112843   4.180   6.195   6.714  0.2439  1.9845 -2.5396
 3612SOL    HW212844   4.215   6.213   6.860 -1.7473 -2.2228 -1.3823
 3613SOL     OW12845   0.263   4.099   9.791 -0.3483 -0.2024  0.0607
 3613SOL    HW112846   0.215   4.172   9.829 -0.7031 -0.1777 -0.4375
 3613SOL    HW212847   0.316   4.065   9.864 -1.0118 -0.1455  0.5771
 3614SOL     OW12848   5.498   4.388   4.596 -0.5220  0.8011 -0.0723
 3614SOL    HW112849   5.461   4.301   4.611  0.5895  0.5438  1.4459
 3614SOL    HW212850   5.582   4.371   4.552 -0.5419  1.1330 -0.2382
 3615SOL     OW12851   3.392   6.197  10.177  0.2036  0.2842 -0.0596
 3615SOL    HW112852   3.306   6.175  10.140  1.0702 -1.0588 -1.3923
 3615SOL    HW212853   3.414   6.122  10.232  0.5845  0.5477  0.1476
 3616SOL     OW12854   3.745   3.478   5.809  0.1984  0.3651  0.3237
 3616SOL    HW112855   3.838   3.493   5.827  0.4206  1.4337 -1.5019
 3616SOL    HW212856   3.728   3.527   5.729 -1.5604 -1.1417 -0.2831
 3617SOL     OW12857   5.151   9.003   2.516 -0.3139  0.5479  0.1815
 3617SOL    HW112858   5.132   9.086   2.471  0.5089  1.4991  1.5199
 3617SOL    HW212859   5.073   8.950   2.501  0.2399  0.4371 -3.0991
 3618SOL     OW12860   8.245   9.406   8.067 -0.0085 -0.2319  0.1102
 3618SOL    HW112861   8.251   9.475   8.132 -1.0946  1.3269 -1.3423
 3618SOL    HW212862   8.205   9.449   7.991  0.2837 -2.2076 -1.2233
 3619SOL     OW12863   2.685   4.141  10.132  0.1527  0.3076  0.1735
 3619SOL    HW112864   2.632   4.066  10.103  0.0244 -0.0271  1.2351
 3619SOL    HW212865   2.696   4.194  10.053 -3.3388  1.3748  0.2467
 3620SOL     OW12866   9.510   8.265   0.603  0.2750 -0.1888  0.2793
 3620SOL    HW112867   9.429   8.288   0.559 -0.4659 -2.0192  0.5748
 3620SOL    HW212868   9.483   8.209   0.676  1.7993 -0.9333  0.3219
 3621SOL     OW12869   6.743   1.535   2.240 -0.1475 -0.4858 -0.0680
 3621SOL    HW112870   6.754   1.550   2.334 -1.6838 -1.4656  0.3118
 3621SOL    HW212871   6.772   1.616   2.199  2.6692 -0.8108  1.0523
 3622SOL     OW12872   6.109   2.851   8.068 -0.2804 -0.6251  0.8463
 3622SOL    HW112873   6.137   2.943   8.063 -1.6266 -0.2524 -0.8940
 3622SOL    HW212874   6.168   2.812   8.133  2.3990  0.7259 -0.5784
 3623SOL     OW12875   0.504   0.449   2.445 -0.2179  0.1958  0.2622
 3623SOL    HW112876   0.560   0.435   2.521  0.4851  0.6164 -0.1733
 3623SOL    HW212877   0.499   0.544   2.435 -0.5076  0.1505 -0.0697
 3624SOL     OW12878   6.277   5.818   1.564 -0.1744 -0.4186  0.1353
 3624SOL    HW112879   6.302   5.834   1.473 -2.7341 -0.2064 -0.5836
 3624SOL    HW212880   6.250   5.726   1.565 -0.5435 -0.3062  0.6058
 3625SOL     OW12881   8.564   4.165   9.948 -0.1512  0.1190  0.1812
 3625SOL    HW112882   8.582   4.210  10.030 -1.0158 -0.6252  0.7909
 3625SOL    HW212883   8.641   4.183   9.894  0.1238  1.1864  0.8899
 3626SOL     OW12884   5.412   0.217  10.732 -0.3096 -0.1203 -0.1250
 3626SOL    HW112885   5.437   0.151  10.668 -0.3773 -0.0646 -0.2090
 3626SOL    HW212886   5.470   0.291  10.714 -0.9534  0.2525 -0.7361
 3627SOL     OW12887   7.453   9.769  10.529 -0.4089  0.4171  0.2355
 3627SOL    HW112888   7.491   9.820  10.601 -0.0737 -0.3230  0.5919
 3627SOL    HW212889   7.496   9.802  10.451  0.1550  0.3555  0.5179
 3628SOL     OW12890  10.649   1.833   5.826 -0.7964  0.1741 -0.1959
 3628SOL    HW112891  10.583   1.877   5.879  0.7940 -0.2581  2.3582
 3628SOL    HW212892  10.722   1.894   5.823 -0.0705 -0.6709 -0.0590
 3629SOL     OW12893   2.926   8.182   3.691 -0.4597 -0.1929 -0.0715
 3629SOL    HW112894   2.899   8.269   3.720 -1.1667  0.1108 -1.5560
 3629SOL    HW212895   2.978   8.198   3.612 -1.3594 -1.1252 -0.8959
 3630SOL     OW12896   5.937   4.112   8.603  0.3477 -0.1451  0.0393
 3630SOL    HW112897   5.946   4.071   8.517  0.5247 -2.3640  1.0268
 3630SOL    HW212898   5.994   4.188   8.600  1.2365 -0.8267 -1.4318
 3631SOL     OW12899   4.282   3.476   7.315  0.4533 -0.4142  0.0704
 3631SOL    HW112900   4.189   3.467   7.338  0.6044 -0.0606  0.8671
 3631SOL    HW212901   4.295   3.415   7.242 -0.3967 -0.4887 -0.0273
 3632SOL     OW12902   3.998   7.833   0.804 -0.1268 -0.2635  0.2210
 3632SOL    HW112903   4.001   7.881   0.721  2.0403  0.0714  0.4327
 3632SOL    HW212904   3.919   7.865   0.848 -0.6475  0.4509 -1.1876
 3633SOL     OW12905   8.764   5.500   0.936 -0.0221  0.8695  0.4328
 3633SOL    HW112906   8.709   5.422   0.926  1.8366 -0.6044  1.2231
 3633SOL    HW212907   8.711   5.571   0.899 -0.9984 -1.0692 -2.2252
 3634SOL     OW12908   2.230   7.877   3.552 -0.0018 -0.1647  0.4700
 3634SOL    HW112909   2.191   7.800   3.511 -0.6309  0.5472 -0.3103
 3634SOL    HW212910   2.163   7.909   3.613 -0.1830  0.3885 -0.0121
 3635SOL     OW12911   5.387   0.793   0.514  0.3762 -0.3277  0.4327
 3635SOL    HW112912   5.319   0.779   0.448 -1.2080  2.6597  1.2496
 3635SOL    HW212913   5.357   0.741   0.589 -0.4259  0.0452  0.3859
 3636SOL     OW12914   1.611   8.022   6.582 -0.2367 -0.5915 -0.3830
 3636SOL    HW112915   1.528   8.067   6.599 -0.3735 -0.1943 -1.9994
 3636SOL    HW212916   1.586   7.930   6.570  0.0892 -1.3368  3.3420
 3637SOL     OW12917   2.902   7.927   4.255  0.5746  0.5907 -0.4675
 3637SOL    HW112918   2.992   7.894   4.246 -0.5320 -2.4824 -1.9986
 3637SOL    HW212919   2.861   7.867   4.318 -0.8569  0.7775 -1.1838
 3638SOL     OW12920   3.870   6.779   8.119 -0.3428  0.3321 -0.3728
 3638SOL    HW112921   3.844   6.845   8.183 -0.2545 -1.1636  1.2770
 3638SOL    HW212922   3.923   6.827   8.055  0.6553  1.6766  1.3866
 3639SOL     OW12923   0.086   5.955   9.782 -0.6312  0.0401 -0.3019
 3639SOL    HW112924   0.109   5.987   9.695  0.9830  0.9266  0.4079
 3639SOL    HW212925   0.049   6.031   9.827  0.4559  0.1473  0.4373
 3640SOL     OW12926  10.048   1.204   3.804 -0.2333 -0.3087 -0.2813
 3640SOL    HW112927   9.998   1.280   3.773 -0.2464  0.2225  0.9612
 3640SOL    HW212928  10.122   1.243   3.850  0.6993 -1.0851 -1.0826
 3641SOL     OW12929   7.215   3.721   8.996 -0.2422  0.1806 -0.3317
 3641SOL    HW112930   7.247   3.778   8.926  0.3958 -0.9632 -1.0203
 3641SOL    HW212931   7.275   3.738   9.069  0.3446 -0.0553 -0.7448
 3642SOL     OW12932   7.581   3.211   9.391  0.0673 -0.1567 -0.1790
 3642SOL    HW112933   7.642   3.281   9.416 -0.5949  0.6996 -0.9120
 3642SOL    HW212934   7.596   3.199   9.297 -1.5651  0.7812 -0.6059
 3643SOL     OW12935   9.564   6.488   5.968  0.2759  0.1976  0.5787
 3643SOL    HW112936   9.497   6.486   6.035  0.7405 -1.0984  1.0466
 3643SOL    HW212937   9.526   6.439   5.895  0.4932 -0.0617  0.6367
 3644SOL     OW12938   8.456   1.100   8.312 -0.7200  0.4425  0.1594
 3644SOL    HW112939   8.396   1.079   8.241 -2.2459  0.3321  1.4356
 3644SOL    HW212940   8.424   1.051   8.387  1.5196 -0.3474  0.6956
 3645SOL     OW12941   1.196   1.104   9.727 -0.6811 -0.2877 -0.5493
 3645SOL    HW112942   1.267   1.130   9.787 -0.1261 -1.4299 -0.6756
 3645SOL    HW212943   1.116   1.134   9.770 -0.1446  0.8753 -0.3187
 3646SOL     OW12944   5.209   0.081   2.718 -0.0000 -0.3364 -0.0934
 3646SOL    HW112945   5.119   0.096   2.747  0.6079  2.0316  0.7928
 3646SOL    HW212946   5.222   0.142   2.646  1.0241 -0.3131  0.0929
 3647SOL     OW12947   7.889   5.361   0.801  0.0318 -0.1474  0.1488
 3647SOL    HW112948   7.864   5.307   0.876 -1.7132  0.1890 -0.1475
 3647SOL    HW212949   7.940   5.303   0.745  1.1859 -0.4623  1.4668
 3648SOL     OW12950   2.031   4.728   9.528 -0.0849  0.1512 -0.5760
 3648SOL    HW112951   1.983   4.796   9.480  1.2003  0.6898 -1.1481
 3648SOL    HW212952   2.051   4.661   9.462 -1.4029 -0.8570 -0.0036
 3649SOL     OW12953   8.001   2.023   9.371 -0.0501  0.1571 -0.1115
 3649SOL    HW112954   7.980   2.081   9.445  0.4810 -1.5261  1.4209
 3649SOL    HW212955   7.959   1.940   9.393 -0.5061 -0.1883 -2.0997
 3650SOL     OW12956   8.207   1.673  10.955 -0.0878  0.1826  0.0828
 3650SOL    HW112957   8.255   1.595  10.929 -1.2921 -0.4993 -0.1538
 3650SOL    HW212958   8.122   1.665  10.912 -1.3085  0.1683  2.3010
 3651SOL     OW12959  10.873   4.843   6.981 -0.0335 -0.0151  0.4062
 3651SOL    HW112960  10.933   4.915   6.962  1.6137 -1.0668  1.3283
 3651SOL    HW212961  10.904   4.807   7.064 -0.4205 -2.1324 -0.2940
 3652SOL     OW12962   9.475   1.164   8.026  0.0837 -0.4105 -0.1577
 3652SOL    HW112963   9.491   1.258   8.022  0.9437 -0.5511 -0.2438
 3652SOL    HW212964   9.396   1.151   7.973  0.4955  0.1444 -0.9286
 3653SOL     OW12965   5.258   4.140   7.511 -0.2123 -0.7054 -0.0632
 3653SOL    HW112966   5.280   4.195   7.586  1.4488 -0.9996 -0.2992
 3653SOL    HW212967   5.293   4.054   7.533 -0.5728 -1.0470 -0.7734
 3654SOL     OW12968   4.844   1.732  10.983  0.0798 -0.1816  0.2722
 3654SOL    HW112969   4.770   1.746  10.924  0.8862 -2.1407 -1.3095
 3654SOL    HW212970   4.914   1.788  10.948 -0.1354  0.4239  0.7899
 3655SOL     OW12971   4.649   1.704   9.506 -0.0966  0.1598 -0.3793
 3655SOL    HW112972   4.599   1.636   9.462 -0.7093  0.3406  0.0315
 3655SOL    HW212973   4.694   1.750   9.435 -0.4150 -0.0748 -0.7381
 3656SOL     OW12974   0.656   1.410   7.775 -0.3717  0.9072 -0.3534
 3656SOL    HW112975   0.635   1.318   7.794 -2.2924  1.4611  0.4564
 3656SOL    HW212976   0.686   1.409   7.684 -1.0466 -0.4397 -0.5982
 3657SOL     OW12977   5.424   5.202   1.186  0.1637  0.1217  0.5597
 3657SOL    HW112978   5.516   5.214   1.163  0.0752  1.4080  0.7782
 3657SOL    HW212979   5.402   5.280   1.236 -0.9960 -0.2766  0.7044
 3658SOL     OW12980   3.231   6.294   3.496  0.0536  0.3419  0.0020
 3658SOL    HW112981   3.231   6.314   3.403  0.5386 -1.1799 -0.3493
 3658SOL    HW212982   3.322   6.304   3.523 -0.1039  0.8823  0.3381
 3659SOL     OW12983   6.450   8.823   8.479 -0.7912 -0.5136  0.1769
 3659SOL    HW112984   6.481   8.766   8.409  0.5924  0.4141 -0.0054
 3659SOL    HW212985   6.446   8.910   8.438 -0.4267 -0.0470  1.1085
 3660SOL     OW12986   3.833   1.848   3.063 -0.4476 -0.1269  0.0700
 3660SOL    HW112987   3.839   1.754   3.081  0.8499  0.1696  1.4029
 3660SOL    HW212988   3.917   1.883   3.092 -1.0369  1.5004 -0.0976
 3661SOL     OW12989  10.361   7.033   0.814  0.1108 -0.0656  0.2811
 3661SOL    HW112990  10.336   7.007   0.903  0.8841  1.5819  1.0210
 3661SOL    HW212991  10.454   7.008   0.807  0.1672  0.1895  0.0986
 3662SOL     OW12992   7.395   7.940  10.607 -0.0700  0.0966 -0.0111
 3662SOL    HW112993   7.305   7.954  10.638  0.1848 -0.3623  0.9556
 3662SOL    HW212994   7.385   7.925  10.513 -1.1857 -1.6374  0.3350
 3663SOL     OW12995   3.229   8.599   1.977 -0.9063 -0.0079  0.4501
 3663SOL    HW112996   3.214   8.510   2.008 -2.5283  1.0114  2.8980
 3663SOL    HW212997   3.142   8.634   1.961 -0.2309  0.3476 -3.2234
 3664SOL     OW12998   2.309   4.710   3.206 -0.3201  0.6563  0.4869
 3664SOL    HW112999   2.389   4.686   3.252 -0.7251 -0.7114  0.4975
 3664SOL    HW213000   2.339   4.752   3.125  0.4166 -0.0307  0.3962
 3665SOL     OW13001   2.511   8.672   4.942 -0.3632 -0.1838  0.0137
 3665SOL    HW113002   2.562   8.656   4.862 -1.2396 -1.1689 -0.3688
 3665SOL    HW213003   2.574   8.659   5.013  0.1345 -0.5120 -0.4736
 3666SOL     OW13004   1.400   6.658   8.642  0.3368  0.0475  0.6170
 3666SOL    HW113005   1.386   6.752   8.648  0.4502  0.1734 -0.6847
 3666SOL    HW213006   1.479   6.641   8.692 -0.2663  0.4758  1.7340
 3667SOL     OW13007   6.646   4.231   0.905 -0.4673 -0.9393  0.4489
 3667SOL    HW113008   6.664   4.212   0.997  0.1582 -2.4565  0.0412
 3667SOL    HW213009   6.732   4.230   0.863 -0.8964 -1.9936 -0.4437
 3668SOL     OW13010  10.790   7.129   7.722  0.2723  0.4713 -0.3728
 3668SOL    HW113011  10.728   7.186   7.768 -0.4522 -0.6549  0.1058
 3668SOL    HW213012  10.876   7.161   7.747 -0.0845 -0.3366  2.1438
 3669SOL     OW13013   7.831   1.502   3.171  0.2501  0.1965 -0.2563
 3669SOL    HW113014   7.883   1.425   3.193 -0.8026 -1.2342 -2.4475
 3669SOL    HW213015   7.740   1.475   3.189 -0.0306  1.4869  0.3897
 3670SOL     OW13016   5.444   5.110   8.898  0.0194  0.0047  0.2143
 3670SOL    HW113017   5.379   5.152   8.842  0.1150  0.1423  0.2042
 3670SOL    HW213018   5.487   5.182   8.944  0.3582 -0.0601  0.0084
 3671SOL     OW13019   3.626   7.266   7.617  0.4042 -0.3869 -0.4380
 3671SOL    HW113020   3.577   7.185   7.636 -0.9486  0.2826 -0.9907
 3671SOL    HW213021   3.567   7.318   7.564  0.3408  1.9526  1.7376
 3672SOL     OW13022   4.409   4.573   6.919 -1.0245  0.4148 -0.3868
 3672SOL    HW113023   4.417   4.604   6.828  0.0027  0.9754 -0.1285
 3672SOL    HW213024   4.411   4.654   6.971  3.2158  0.0292  0.4128
 3673SOL     OW13025   8.939   8.684   6.708  0.1838 -0.6101  0.0092
 3673SOL    HW113026   9.024   8.655   6.673 -0.3553 -0.8582 -1.1624
 3673SOL    HW213027   8.956   8.771   6.745  1.3059 -1.3717  1.3665
 3674SOL     OW13028   0.274  10.734   4.325 -0.1926  0.3489  0.2433
 3674SOL    HW113029   0.183  10.709   4.339 -0.3760 -0.5470 -2.2141
 3674SOL    HW213030   0.324  10.655   4.345 -0.1642  0.1472 -0.5954
 3675SOL     OW13031   9.703   6.347   3.475 -0.7943 -0.2336  0.4313
 3675SOL    HW113032   9.614   6.383   3.476  0.1363  2.3484  1.8664
 3675SOL    HW213033   9.740   6.372   3.560  0.9105 -2.3638  0.3983
 3676SOL     OW13034   2.338  10.178   2.991  0.3437  0.0987  0.7368
 3676SOL    HW113035   2.367  10.232   2.918 -1.5989 -0.2895 -0.3891
 3676SOL    HW213036   2.361  10.229   3.069  2.3269  0.5806 -0.1144
 3677SOL     OW13037   0.621   0.699   1.438 -0.1803  0.2615  0.2666
 3677SOL    HW113038   0.603   0.757   1.513 -1.2093  0.3109  0.0018
 3677SOL    HW213039   0.538   0.697   1.390 -0.0748 -1.1942  0.1051
 3678SOL     OW13040   4.693   5.371   7.625 -0.2360 -0.2393 -0.0154
 3678SOL    HW113041   4.713   5.381   7.531  1.1094 -0.0687  0.2640
 3678SOL    HW213042   4.654   5.285   7.632  0.8233 -0.7931 -0.5886
 3679SOL     OW13043   7.428   2.830   6.642  0.8343  0.0711 -0.4456
 3679SOL    HW113044   7.353   2.877   6.605  0.8899  1.7614  1.4533
 3679SOL    HW213045   7.472   2.792   6.566 -1.1330  0.2156 -1.7370
 3680SOL     OW13046   3.659   0.452   2.611  1.1176  0.4695  0.5543
 3680SOL    HW113047   3.671   0.363   2.578 -0.0737 -0.5177  2.5743
 3680SOL    HW213048   3.654   0.442   2.706  1.5803  2.7943  0.8955
 3681SOL     OW13049  10.729   6.958   7.252 -0.1952  0.2390  0.4171
 3681SOL    HW113050  10.734   7.048   7.283  0.4010  0.5704 -0.6023
 3681SOL    HW213051  10.780   6.908   7.317 -0.5641  0.6184  1.0081
 3682SOL     OW13052   1.373   3.341   3.006 -0.1978 -0.1125  0.2722
 3682SOL    HW113053   1.440   3.304   2.947 -1.5664  0.1474 -1.5534
 3682SOL    HW213054   1.368   3.433   2.982 -0.4486  0.1164  1.1708
 3683SOL     OW13055   5.385   5.510   6.516 -0.1684 -0.2542  0.0894
 3683SOL    HW113056   5.360   5.518   6.608 -0.0510 -0.3707  0.1328
 3683SOL    HW213057   5.312   5.464   6.475 -1.6003  2.3516 -0.4961
 3684SOL     OW13058  10.007   4.877  10.994 -0.4325  0.2236  0.1520
 3684SOL    HW113059  10.059   4.798  10.983 -1.0327 -0.1045 -0.4080
 3684SOL    HW213060  10.023   4.928  10.914 -1.4610 -0.1824 -0.3306
 3685SOL     OW13061   5.824   5.579   0.970 -0.1835  0.2619 -0.8893
 3685SOL    HW113062   5.773   5.643   1.020 -1.1327 -1.5987  0.6560
 3685SOL    HW213063   5.915   5.596   0.995 -0.6064 -0.3698  1.2746
 3686SOL     OW13064   5.764   8.587   2.112  0.3625  0.0365  0.1413
 3686SOL    HW113065   5.709   8.545   2.178 -2.0505  2.0183 -0.4662
 3686SOL    HW213066   5.805   8.660   2.157 -0.1016  0.5001 -0.1816
 3687SOL     OW13067   2.099  10.470   6.346  0.7277 -0.2959 -0.0878
 3687SOL    HW113068   2.084  10.431   6.260  0.9538 -0.0620 -0.2360
 3687SOL    HW213069   2.163  10.412   6.387 -0.7515 -1.4484  0.6555
 3688SOL     OW13070   4.548   8.229   4.322 -0.0157 -0.0228  0.8166
 3688SOL    HW113071   4.600   8.180   4.386  0.9823  3.0464  2.5736
 3688SOL    HW213072   4.596   8.220   4.240  1.0159 -0.6341  1.4689
 3689SOL     OW13073   7.529   5.896   1.406  0.3095  0.1521  0.1102
 3689SOL    HW113074   7.543   5.809   1.444 -1.1420 -0.1854 -0.0658
 3689SOL    HW213075   7.615   5.921   1.372  0.3859 -2.0908 -1.6135
 3690SOL     OW13076   3.066   0.426   2.240 -0.4688  0.3782  0.0703
 3690SOL    HW113077   3.018   0.346   2.265  0.5004 -0.2837 -0.1127
 3690SOL    HW213078   3.067   0.424   2.144  0.4257  0.0417  0.0668
 3691SOL     OW13079   2.359   4.026  10.268 -0.2452 -0.2255 -0.3180
 3691SOL    HW113080   2.382   4.006  10.178 -2.4817 -1.5867 -0.6503
 3691SOL    HW213081   2.264   4.035  10.268 -0.1021  3.0125  1.3449
 3692SOL     OW13082   8.909   9.635   1.599  0.2997 -0.1594  0.3083
 3692SOL    HW113083   8.934   9.680   1.519  0.6207 -1.0032 -0.0796
 3692SOL    HW213084   8.818   9.608   1.584  0.6141 -1.0143 -0.1043
 3693SOL     OW13085   1.724   5.541   6.082  0.3891 -0.1944 -0.1206
 3693SOL    HW113086   1.766   5.474   6.028  0.1481 -0.2714 -0.2159
 3693SOL    HW213087   1.786   5.614   6.083 -0.1319  0.3073 -1.5441
 3694SOL     OW13088   0.418   0.052   4.366 -0.1536 -0.2712  0.0667
 3694SOL    HW113089   0.373   0.133   4.341  0.2865  0.0898  0.4298
 3694SOL    HW213090   0.433   0.061   4.460 -0.8264 -1.1418  0.2720
 3695SOL     OW13091   4.412   2.048   6.642  0.3698  0.3138  0.0378
 3695SOL    HW113092   4.413   2.017   6.552 -1.2006  0.7523 -0.1762
 3695SOL    HW213093   4.438   2.140   6.636  0.7193  0.2198  0.0971
 3696SOL     OW13094   1.632   6.426   7.344  0.2487  0.0769  0.1381
 3696SOL    HW113095   1.537   6.416   7.348  0.4606 -1.8790  1.6987
 3696SOL    HW213096   1.666   6.357   7.400  2.6833 -0.3727 -1.7303
 3697SOL     OW13097   5.999   1.516   3.628  0.0128  0.1419 -0.6212
 3697SOL    HW113098   5.949   1.577   3.574 -1.0881  0.6971  0.9520
 3697SOL    HW213099   5.945   1.438   3.633 -1.5471  1.2464  2.2609
 3698SOL     OW13100   2.425   7.365   8.193 -0.2901 -0.5457 -0.1880
 3698SOL    HW113101   2.479   7.402   8.262 -0.1342  0.2553 -0.7273
 3698SOL    HW213102   2.463   7.398   8.112 -1.2475 -0.4177 -0.6039
 3699SOL     OW13103   8.005   0.317   9.351  0.5493  0.0268  0.4427
 3699SOL    HW113104   7.986   0.411   9.357 -0.1341 -0.0580 -0.2954
 3699SOL    HW213105   8.046   0.296   9.435 -1.3336  0.5412  1.5545
 3700SOL     OW13106   5.374  10.034   1.386  0.0185 -0.0610  0.2788
 3700SOL    HW113107   5.352  10.126   1.397  1.7266  0.3152  0.8857
 3700SOL    HW213108   5.421  10.031   1.302  0.4544 -0.2675  0.5246
 3701SOL     OW13109   1.557  10.134   6.891 -0.6492 -0.4274  0.2580
 3701SOL    HW113110   1.617  10.182   6.833 -0.6736  0.4234  0.9236
 3701SOL    HW213111   1.495  10.093   6.831 -1.8538  2.0054 -0.2870
 3702SOL     OW13112  10.559   1.729  10.253 -0.1499 -0.5161  0.4048
 3702SOL    HW113113  10.498   1.697  10.187 -1.0122 -1.4334  1.6026
 3702SOL    HW213114  10.537   1.822  10.262  1.5362  0.2349 -2.1965
 3703SOL     OW13115  10.118  10.268   9.824  0.1138 -0.4171  0.1113
 3703SOL    HW113116  10.108  10.177   9.797  0.7968 -0.0207 -1.5696
 3703SOL    HW213117  10.120  10.264   9.920  0.5185 -2.2077  0.0663
 3704SOL     OW13118   1.912   4.478   8.111 -0.2189  0.0702  0.2907
 3704SOL    HW113119   1.929   4.394   8.153 -1.4706 -0.8738 -0.9681
 3704SOL    HW213120   1.947   4.467   8.022  0.4775  1.2442  0.4047
 3705SOL     OW13121   6.196   7.888   4.115 -0.2481 -0.2297 -0.3704
 3705SOL    HW113122   6.255   7.872   4.042 -1.0583  1.7671 -1.5537
 3705SOL    HW213123   6.236   7.843   4.189  1.8071 -0.4185 -1.5267
 3706SOL     OW13124   6.003   9.360   0.648 -0.6448  0.0138 -0.7396
 3706SOL    HW113125   5.986   9.299   0.576  0.2559  0.7533 -1.6117
 3706SOL    HW213126   6.055   9.310   0.711 -0.0824 -0.1950 -1.3543
 3707SOL     OW13127   9.447   6.842   6.637  0.7890  0.3089  0.3895
 3707SOL    HW113128   9.491   6.777   6.582 -0.4257 -0.1303 -0.0892
 3707SOL    HW213129   9.360   6.851   6.599 -0.1439 -0.0943  2.3056
 3708SOL     OW13130   7.138   4.621   9.849 -0.2479  0.4036  0.3503
 3708SOL    HW113131   7.161   4.528   9.856 -1.1540  0.2241  1.1208
 3708SOL    HW213132   7.211   4.667   9.891  0.0667  0.0267  0.2260
 3709SOL     OW13133   1.298   9.657   9.388 -0.1063  0.0561 -0.4579
 3709SOL    HW113134   1.282   9.672   9.481  0.6165  2.6482 -0.6595
 3709SOL    HW213135   1.357   9.582   9.385  0.9498  0.7448  1.3035
 3710SOL     OW13136   2.364   9.534   5.976  0.8304 -0.0726 -0.4258
 3710SOL    HW113137   2.389   9.445   6.002  0.8689  0.1787  0.4108
 3710SOL    HW213138   2.308   9.565   6.047 -1.8922 -0.5794 -2.1968
 3711SOL     OW13139   0.846   1.927   7.492  0.1993 -0.3998 -0.0411
 3711SOL    HW113140   0.773   1.877   7.456 -1.0030  3.2013 -3.3074
 3711SOL    HW213141   0.917   1.917   7.429  0.5440  0.5624  0.1673
 3712SOL     OW13142   4.946   4.646   7.250 -0.1304 -0.3972 -0.3854
 3712SOL    HW113143   4.877   4.586   7.277 -0.1511  0.4417  1.5420
 3712SOL    HW213144   4.998   4.661   7.328  0.3477  1.4674 -1.0038
 3713SOL     OW13145   2.233   9.537   1.652 -0.2869  0.1911  0.2459
 3713SOL    HW113146   2.215   9.553   1.560  0.8194  2.2235  0.3328
 3713SOL    HW213147   2.171   9.594   1.698 -1.8891 -1.9287  0.8531
 3714SOL     OW13148   7.808   8.414   6.002  0.0373 -0.1976 -0.0057
 3714SOL    HW113149   7.812   8.508   5.981  0.3859  0.1450  1.5108
 3714SOL    HW213150   7.841   8.408   6.092 -0.9943 -1.6442  0.3039
 3715SOL     OW13151  10.536   5.669  10.386 -0.3889 -0.6010  0.0475
 3715SOL    HW113152  10.573   5.652  10.472  0.0453 -2.2576 -0.4279
 3715SOL    HW213153  10.612   5.685  10.329 -0.5627 -1.0256 -0.3170
 3716SOL     OW13154   2.000   8.597   8.169  0.5375  0.0657  0.5683
 3716SOL    HW113155   1.937   8.547   8.222  0.3100 -1.1778 -0.8126
 3716SOL    HW213156   2.067   8.533   8.146  2.3728  1.3695  2.0138
 3717SOL     OW13157   3.143   8.276   3.099  0.0905 -0.2299 -0.2131
 3717SOL    HW113158   3.063   8.293   3.049  0.0881  1.7358  0.3823
 3717SOL    HW213159   3.115   8.214   3.168 -1.1254  0.9743  0.4270
 3718SOL     OW13160   1.758   8.899   5.843  0.1774  0.4920 -0.2119
 3718SOL    HW113161   1.781   8.857   5.760  1.3711  0.7975 -0.0521
 3718SOL    HW213162   1.809   8.980   5.843  0.3283  0.4037  0.9066
 3719SOL     OW13163   0.114   6.567   0.387 -0.5564  0.1349  0.1408
 3719SOL    HW113164   0.183   6.505   0.361 -0.1429  0.5944  0.1199
 3719SOL    HW213165   0.085   6.606   0.305  0.6479  1.4805  0.3184
 3720SOL     OW13166   8.041   0.054   5.564 -0.5308  0.4679  0.4151
 3720SOL    HW113167   7.993   0.109   5.626  0.2104  0.7198  0.7855
 3720SOL    HW213168   8.132   0.058   5.595 -0.7952 -3.2315  2.1994
 3721SOL     OW13169   6.449   5.750   0.909  0.8792 -0.3618 -0.1937
 3721SOL    HW113170   6.373   5.809   0.908  2.2405  1.6628  2.3226
 3721SOL    HW213171   6.525   5.808   0.901  2.2415 -2.1315 -0.8363
 3722SOL     OW13172   9.115   6.632   7.008  0.2560  0.2073  0.2800
 3722SOL    HW113173   9.163   6.572   7.065  0.2056 -0.5617 -0.4603
 3722SOL    HW213174   9.181   6.664   6.946  0.3404  1.1404  0.8248
 3723SOL     OW13175   4.345   9.007   5.905 -0.2955 -0.1441 -0.1594
 3723SOL    HW113176   4.281   8.936   5.905 -0.9628  0.4390 -0.4431
 3723SOL    HW213177   4.341   9.044   5.993  0.7849 -1.0754  0.3122
 3724SOL     OW13178   6.271   9.033   4.373  0.1031 -0.1224 -0.3988
 3724SOL    HW113179   6.236   8.949   4.341 -0.6295 -0.0168  0.1066
 3724SOL    HW213180   6.194   9.083   4.398  0.5242  0.7865 -0.8702
 3725SOL     OW13181   7.805   4.958  10.754 -0.9717 -0.1637  0.3598
 3725SOL    HW113182   7.755   4.958  10.836  0.7840  0.2897  1.4899
 3725SOL    HW213183   7.848   5.043  10.752  0.9931 -1.1067  0.2586
 3726SOL     OW13184   0.045   6.793   7.683 -0.5504  0.0912  0.3980
 3726SOL    HW113185   0.103   6.860   7.645 -0.6613 -0.4951 -0.8726
 3726SOL    HW213186  -0.040   6.836   7.689  0.0230  1.0482  2.5327
 3727SOL     OW13187   2.680   1.016   1.259 -0.7350 -0.0758 -0.1386
 3727SOL    HW113188   2.676   0.920   1.261 -1.8075 -0.0716 -1.2749
 3727SOL    HW213189   2.728   1.036   1.179  1.1429  0.3380  1.0432
 3728SOL     OW13190   5.475   6.983   8.320 -1.2149 -0.0014  0.2862
 3728SOL    HW113191   5.439   6.911   8.268 -5.1941  1.9815 -0.0805
 3728SOL    HW213192   5.486   7.055   8.258 -0.9690  0.8370  1.2754
 3729SOL     OW13193   2.277   2.298   5.613  0.2622 -0.2076 -0.7820
 3729SOL    HW113194   2.220   2.224   5.633  0.5612 -0.3672 -0.5218
 3729SOL    HW213195   2.244   2.332   5.530  0.1089 -0.6183 -0.8886
 3730SOL     OW13196   0.634   2.092   7.277 -0.2554 -0.4563  0.0308
 3730SOL    HW113197   0.602   2.002   7.269 -0.5105 -0.2884 -0.8564
 3730SOL    HW213198   0.718   2.092   7.231 -0.6216 -0.0567 -0.6431
 3731SOL     OW13199   6.510   6.092   1.979  0.1879  0.2974  0.1020
 3731SOL    HW113200   6.448   6.052   2.040  0.2110  0.5882  0.3142
 3731SOL    HW213201   6.578   6.025   1.968 -1.3933 -1.0841 -2.0915
 3732SOL     OW13202  10.798   5.422  10.012  0.4159 -0.1193 -0.1350
 3732SOL    HW113203  10.819   5.497   9.956 -1.2982  0.5738  0.1043
 3732SOL    HW213204  10.725   5.452  10.066 -0.6626 -2.1329 -0.3947
 3733SOL     OW13205   9.188  10.947   3.201  0.2582 -0.0828  0.1183
 3733SOL    HW113206   9.262  10.958   3.141 -0.5782 -0.4898 -1.0122
 3733SOL    HW213207   9.223  10.973   3.286  1.4649  0.5507 -0.5370
 3734SOL     OW13208   4.183   1.220   4.455 -0.0832 -0.3090  0.4867
 3734SOL    HW113209   4.200   1.313   4.463 -1.4343 -0.0558  0.5857
 3734SOL    HW213210   4.260   1.185   4.410  1.0502  0.6130  1.6544
 3735SOL     OW13211   6.623   6.950  10.082 -0.3505  0.2570  0.5038
 3735SOL    HW113212   6.625   6.940   9.987 -0.9213  2.4399  0.2052
 3735SOL    HW213213   6.714   6.946  10.109 -0.2833 -3.2654  0.3275
 3736SOL     OW13214   0.461   0.926   5.958  0.1058  0.9410 -0.4103
 3736SOL    HW113215   0.371   0.894   5.951  0.7118 -2.0913  2.5916
 3736SOL    HW213216   0.502   0.901   5.875 -0.8592 -1.6106 -0.2212
 3737SOL     OW13217   3.383   2.142   5.280  0.0499  0.3388  0.1427
 3737SOL    HW113218   3.437   2.174   5.208 -2.5267  0.5144 -1.8490
 3737SOL    HW213219   3.355   2.055   5.252 -1.1834  0.4985  0.8230
 3738SOL     OW13220   4.644   3.725   7.006  0.8647  0.1024 -0.1217
 3738SOL    HW113221   4.694   3.693   6.931 -1.0151  0.4509 -1.6066
 3738SOL    HW213222   4.554   3.697   6.989  0.5220 -0.6416  2.5246
 3739SOL     OW13223   2.838   8.557   7.155  0.3747  0.3369 -0.0114
 3739SOL    HW113224   2.843   8.468   7.119  0.6071  0.2151  0.3181
 3739SOL    HW213225   2.808   8.611   7.082  1.3146  0.1769 -0.5325
 3740SOL     OW13226   2.860   3.009  10.700 -0.4429  0.1139  0.0859
 3740SOL    HW113227   2.848   3.044  10.788 -1.4028 -0.4769  0.1982
 3740SOL    HW213228   2.830   2.918  10.706 -0.9272  0.1963 -0.9561
 3741SOL     OW13229   8.441  10.785   6.827 -0.1071  0.1857 -0.3268
 3741SOL    HW113230   8.514  10.751   6.878 -0.9607  0.5582  1.2113
 3741SOL    HW213231   8.363  10.757   6.874 -0.8942  2.0059 -0.4565
 3742SOL     OW13232   7.090   7.119   6.242  0.0152 -0.0654 -0.3321
 3742SOL    HW113233   7.128   7.031   6.238 -0.7395 -0.3666 -2.0948
 3742SOL    HW213234   7.028   7.115   6.315  0.4571 -0.7923  0.0211
 3743SOL     OW13235   4.111   5.893   7.485 -0.2379 -0.1524 -0.1261
 3743SOL    HW113236   4.091   5.809   7.444 -0.9358  0.0837 -0.2835
 3743SOL    HW213237   4.068   5.888   7.571  0.7885 -0.4473  0.3785
 3744SOL     OW13238   2.952   7.161   3.350  0.6024 -0.6900  0.0295
 3744SOL    HW113239   2.882   7.101   3.326  1.8890 -1.8905 -0.8886
 3744SOL    HW213240   2.977   7.133   3.439  0.3727 -0.7016  0.0920
 3745SOL     OW13241   1.252   1.852   6.055 -0.2655 -0.3747  0.1640
 3745SOL    HW113242   1.227   1.836   6.146  0.7275 -2.7197  0.0934
 3745SOL    HW213243   1.172   1.883   6.013 -0.1363  3.7803  2.3505
 3746SOL     OW13244   4.538   1.787   6.994 -0.4980  0.4172 -0.4169
 3746SOL    HW113245   4.579   1.803   6.909  1.3015  0.6667  0.4457
 3746SOL    HW213246   4.444   1.799   6.978 -0.6002 -2.5894 -3.0289
 3747SOL     OW13247   4.715   6.521   8.022 -0.2484  0.1047 -0.7756
 3747SOL    HW113248   4.662   6.461   7.970 -1.8756  0.5763  0.2705
 3747SOL    HW213249   4.730   6.596   7.964  0.1849 -0.4747 -1.4342
 3748SOL     OW13250   0.331   8.954  10.255 -0.0452  0.4173 -0.1180
 3748SOL    HW113251   0.276   8.875  10.264  0.6137 -0.1853 -1.1037
 3748SOL    HW213252   0.332   8.993  10.342 -1.6076  0.1574  0.0516
 3749SOL     OW13253   5.660   5.773   5.032 -0.8643 -0.6225 -0.1322
 3749SOL    HW113254   5.754   5.771   5.017 -0.9044 -0.8754 -0.3674
 3749SOL    HW213255   5.622   5.787   4.945 -1.0978 -2.1135 -0.2943
 3750SOL     OW13256   3.240   8.630   5.070  0.6104 -0.3579 -0.1550
 3750SOL    HW113257   3.198   8.556   5.026  1.6204 -1.6092  0.8656
 3750SOL    HW213258   3.321   8.592   5.106  0.9742  1.1746  0.7045
 3751SOL     OW13259   7.767   0.907   7.619 -0.7490 -0.1332  0.0252
 3751SOL    HW113260   7.695   0.853   7.587 -0.8557  0.5237 -0.8901
 3751SOL    HW213261   7.845   0.868   7.581 -0.8358  0.3981 -0.7231
 3752SOL     OW13262   3.539   0.872   2.527 -0.5291  0.0196 -0.2290
 3752SOL    HW113263   3.494   0.875   2.611 -1.1850  1.5397 -0.5984
 3752SOL    HW213264   3.476   0.831   2.467 -0.8129  0.7092 -0.4025
 3753SOL     OW13265   5.494   5.709   1.941  0.3941  0.6508  0.1715
 3753SOL    HW113266   5.531   5.771   1.878 -0.1981 -0.0435 -0.9061
 3753SOL    HW213267   5.429   5.660   1.890  1.2446 -1.2557  0.8167
 3754SOL     OW13268   7.343   0.405   9.504 -0.7764 -0.1349  0.5213
 3754SOL    HW113269   7.329   0.315   9.535  2.0964 -1.1050 -0.5874
 3754SOL    HW213270   7.336   0.459   9.583 -3.7457 -1.0987  1.0172
 3755SOL     OW13271   5.943   1.012   5.749  0.1373  0.0114  0.2628
 3755SOL    HW113272   5.985   1.061   5.820  0.9909  0.1781 -0.3448
 3755SOL    HW213273   5.968   0.921   5.763  2.4373  0.3346 -1.2159
 3756SOL     OW13274   1.171   0.834   2.578 -0.2815 -0.3163 -0.3133
 3756SOL    HW113275   1.095   0.798   2.623 -0.4258  0.9026  0.4655
 3756SOL    HW213276   1.244   0.816   2.637 -0.1878 -0.2370 -0.4053
 3757SOL     OW13277   2.456   2.606   0.586 -0.1246  0.5245 -0.5692
 3757SOL    HW113278   2.399   2.597   0.510  0.2038 -0.0358 -0.7576
 3757SOL    HW213279   2.540   2.634   0.550  0.0539  0.1836 -0.4286
 3758SOL     OW13280   7.074   3.765   3.969 -0.1365 -0.4847 -0.4155
 3758SOL    HW113281   7.125   3.684   3.973  0.5457 -0.0316  0.6004
 3758SOL    HW213282   7.023   3.765   4.050 -0.8002 -0.3175 -0.8305
 3759SOL     OW13283  10.736  10.791   1.675  0.3819 -0.1768  0.1630
 3759SOL    HW113284  10.686  10.760   1.599  1.0349 -2.1089  0.4653
 3759SOL    HW213285  10.703  10.738   1.748  0.8287  0.5868  0.9358
 3760SOL     OW13286   2.015   0.866   3.380  0.3532 -0.2001 -1.0140
 3760SOL    HW113287   2.101   0.861   3.422  0.7776  1.1257 -1.6704
 3760SOL    HW213288   1.964   0.924   3.436 -0.7418 -2.3561  0.3402
 3761SOL     OW13289   7.147   9.212   8.746  0.0030 -0.3273  0.2557
 3761SOL    HW113290   7.090   9.145   8.785 -2.4827  1.7565  0.4864
 3761SOL    HW213291   7.163   9.274   8.817 -0.5699  1.0158 -0.7490
 3762SOL     OW13292   5.912   3.441   8.855 -0.7165  0.0266 -0.0095
 3762SOL    HW113293   5.883   3.502   8.787 -1.2354  0.1075  0.2846
 3762SOL    HW213294   5.975   3.492   8.907  2.7570 -1.1013 -2.6490
 3763SOL     OW13295   0.033   5.927   6.652 -0.1446 -0.1612  0.1927
 3763SOL    HW113296   0.011   6.010   6.610  0.5554  0.1106  0.3524
 3763SOL    HW213297  -0.038   5.868   6.627 -0.9411  0.6269  0.5142
 3764SOL     OW13298   8.005   6.220  10.572 -0.1687 -0.1051  0.4620
 3764SOL    HW113299   7.983   6.300  10.525  0.2220  0.5313  1.3539
 3764SOL    HW213300   7.981   6.237  10.663  1.2103 -0.4758  0.9219
 3765SOL     OW13301   6.235   1.347   4.061  0.3469 -0.9669  0.7298
 3765SOL    HW113302   6.187   1.369   4.141  1.0484 -0.2210  0.9528
 3765SOL    HW213303   6.180   1.379   3.990 -0.3001 -1.6667  0.9024
 3766SOL     OW13304   5.809   4.234   1.110  0.0845 -0.4341 -0.2393
 3766SOL    HW113305   5.771   4.295   1.173  0.8452 -0.8289  0.6253
 3766SOL    HW213306   5.896   4.271   1.090  0.5359 -1.2084  0.2670
 3767SOL     OW13307   9.868   7.372   1.792 -0.3289  0.0233 -0.2549
 3767SOL    HW113308   9.789   7.372   1.847 -0.5955 -1.7273 -0.5879
 3767SOL    HW213309   9.847   7.432   1.721 -2.3344 -2.0801 -1.5773
 3768SOL     OW13310   3.634   5.213   9.885  0.1980  0.2827  0.2183
 3768SOL    HW113311   3.721   5.252   9.880  0.8073 -0.9681  0.6629
 3768SOL    HW213312   3.608   5.198   9.794  0.8682 -0.2295  0.1089
 3769SOL     OW13313   6.513   4.919   8.769 -0.0304 -0.5406 -0.2004
 3769SOL    HW113314   6.542   4.932   8.859 -1.5674  0.3526  0.2032
 3769SOL    HW213315   6.442   4.981   8.758 -0.1907 -0.9819 -1.8909
 3770SOL     OW13316   4.266   6.902   1.266 -0.4901 -0.1951 -0.3580
 3770SOL    HW113317   4.269   6.993   1.297  0.1955 -0.1904 -0.4166
 3770SOL    HW213318   4.355   6.869   1.282 -1.1008 -1.2966  0.9916
 3771SOL     OW13319   3.980   5.215   3.024  0.3111  0.4070 -0.3202
 3771SOL    HW113320   3.957   5.307   3.033  2.6058  0.9705  0.6009
 3771SOL    HW213321   3.900   5.168   3.044 -0.6434  2.1928  0.2583
 3772SOL     OW13322   3.585   0.250   2.436 -0.1684  0.7267 -0.7742
 3772SOL    HW113323   3.500   0.206   2.433 -0.1454  0.6402 -0.2018
 3772SOL    HW213324   3.576   0.325   2.378 -1.7886  2.7652  1.9138
 3773SOL     OW13325   1.117   7.893   8.054  0.2358 -0.2938  0.0804
 3773SOL    HW113326   1.149   7.927   7.971  1.5388  1.6478  1.3127
 3773SOL    HW213327   1.060   7.962   8.088 -0.4202 -1.1366  0.7483
 3774SOL     OW13328   7.173   9.032   5.958  0.5571 -0.1644 -0.7408
 3774SOL    HW113329   7.099   9.092   5.958  0.5956 -0.1126 -0.4056
 3774SOL    HW213330   7.250   9.089   5.968  0.5463 -0.3134  0.3697
 3775SOL     OW13331   9.221   6.211   7.128  0.1349  0.2496  0.4601
 3775SOL    HW113332   9.222   6.307   7.127  2.2054  0.2789  0.8940
 3775SOL    HW213333   9.235   6.188   7.220  2.2703 -0.4058  0.0284
 3776SOL     OW13334  10.128   7.340   0.860  0.0676  0.0248 -0.0476
 3776SOL    HW113335  10.201   7.283   0.884 -0.9511 -0.8746  1.0353
 3776SOL    HW213336  10.071   7.339   0.937 -1.5326 -0.0093 -1.1881
 3777SOL     OW13337   4.851   3.352  10.422 -0.0177  0.2264  0.1378
 3777SOL    HW113338   4.939   3.334  10.389 -0.2946  0.5555 -0.8371
 3777SOL    HW213339   4.797   3.357  10.343 -0.7442  0.9014  0.6625
 3778SOL     OW13340   5.155   4.281   1.260 -0.2221  0.2325 -0.0013
 3778SOL    HW113341   5.113   4.322   1.184 -1.6202 -1.1045  0.0105
 3778SOL    HW213342   5.235   4.242   1.225 -0.3375  0.4984 -0.5787
 3779SOL     OW13343  10.573   3.396   1.330 -0.1381  0.1962 -0.0343
 3779SOL    HW113344  10.503   3.374   1.269  0.0184 -0.9478  0.1637
 3779SOL    HW213345  10.562   3.334   1.402  1.9474 -1.0480 -0.6882
 3780SOL     OW13346   7.695  10.533   5.455  0.3994  0.5246 -0.2626
 3780SOL    HW113347   7.604  10.507   5.471  0.6038 -0.4885 -0.7075
 3780SOL    HW213348   7.745  10.488   5.524  0.6537  0.4789 -0.4758
 3781SOL     OW13349  10.544   2.946   5.766  0.6078  0.5122 -0.1763
 3781SOL    HW113350  10.465   2.983   5.726  0.1740 -0.4772 -0.2815
 3781SOL    HW213351  10.599   2.921   5.692 -0.1363 -1.1974 -0.1946
 3782SOL     OW13352   5.650   4.049   1.511 -0.1002 -0.2478 -0.2448
 3782SOL    HW113353   5.632   4.130   1.464 -2.3261 -0.2405  0.5034
 3782SOL    HW213354   5.577   3.991   1.488  1.6423 -2.2506 -1.1195
 3783SOL     OW13355   9.818   0.250   5.950 -0.3103  0.2117  0.2126
 3783SOL    HW113356   9.741   0.196   5.970  1.8575 -2.7476  1.2451
 3783SOL    HW213357   9.856   0.270   6.035  2.6829 -2.6915 -0.2222
 3784SOL     OW13358   9.566   2.855   8.999 -0.0089 -0.2307  0.0421
 3784SOL    HW113359   9.505   2.919   9.034 -0.8355 -0.6012 -0.6741
 3784SOL    HW213360   9.578   2.881   8.907  1.6540  0.3855  0.4012
 3785SOL     OW13361   9.246   4.090   7.075  0.1292  0.1878  0.0248
 3785SOL    HW113362   9.290   4.009   7.049 -0.4435 -0.5455  1.2714
 3785SOL    HW213363   9.155   4.064   7.090 -0.0367  1.0500  0.5429
 3786SOL     OW13364   8.274   7.646   6.518  0.2944 -0.3631  0.3157
 3786SOL    HW113365   8.230   7.700   6.583  2.2892  0.2686  1.2451
 3786SOL    HW213366   8.247   7.556   6.538  0.1059 -0.0768  1.3900
 3787SOL     OW13367   7.792   1.896   8.358  0.7745  0.1211 -0.0939
 3787SOL    HW113368   7.839   1.963   8.309  0.6214  0.3790  0.1136
 3787SOL    HW213369   7.700   1.924   8.356  0.3997 -1.0476 -1.6378
 3788SOL     OW13370   6.623   4.629   4.207  0.1537  0.0323 -0.3239
 3788SOL    HW113371   6.536   4.609   4.172  0.2307 -1.6483  0.3790
 3788SOL    HW213372   6.642   4.717   4.174 -2.3567  1.0181  0.5534
 3789SOL     OW13373  10.353   6.243   3.618 -0.2368  0.0796 -0.2659
 3789SOL    HW113374  10.409   6.319   3.601  0.0015 -0.0795 -0.1832
 3789SOL    HW213375  10.272   6.281   3.653 -0.6145  0.3910 -1.4221
 3790SOL     OW13376   3.590   3.187   4.361 -0.1201  0.1372  0.4391
 3790SOL    HW113377   3.649   3.203   4.436 -1.0315  0.5237  1.0874
 3790SOL    HW213378   3.505   3.171   4.401 -0.9706  1.9238 -0.5612
 3791SOL     OW13379   2.842   8.588   3.993 -1.0066  0.5470 -0.2827
 3791SOL    HW113380   2.917   8.605   4.050  0.1258 -0.5263 -1.3645
 3791SOL    HW213381   2.775   8.650   4.022  0.1543  1.2797  0.9821
 3792SOL     OW13382   6.582   2.387   0.711  0.0984  0.2974 -0.1948
 3792SOL    HW113383   6.642   2.458   0.733 -1.8211  1.5937  1.2107
 3792SOL    HW213384   6.551   2.355   0.796  0.1705 -1.5770 -0.8386
 3793SOL     OW13385   4.979  10.972   9.776  0.3651 -0.0719  0.5574
 3793SOL    HW113386   4.947  11.028   9.705  0.0750  1.3209  1.7509
 3793SOL    HW213387   4.957  11.019   9.856  1.2863 -1.2905  1.5700
 3794SOL     OW13388   2.915   8.254   9.032 -0.1433  0.0226  0.4227
 3794SOL    HW113389   2.953   8.227   9.115  0.6489 -0.0324  0.0489
 3794SOL    HW213390   2.847   8.189   9.014 -2.4909  1.6852  2.4981
 3795SOL     OW13391   1.844   5.988   8.755 -0.5751 -0.5303  0.3631
 3795SOL    HW113392   1.771   6.047   8.741 -0.5879 -0.7870 -0.7124
 3795SOL    HW213393   1.818   5.935   8.831 -1.2809 -0.2853  0.2941
 3796SOL     OW13394   4.753   6.674   9.767 -0.0976  0.0031  0.2354
 3796SOL    HW113395   4.794   6.760   9.760  1.0541 -0.4299  1.2763
 3796SOL    HW213396   4.705   6.663   9.685  1.5786  0.6973 -0.8730
 3797SOL     OW13397   2.647   5.844   5.277  0.1401  0.2500 -0.5392
 3797SOL    HW113398   2.573   5.861   5.336 -0.1318 -0.1266 -0.7668
 3797SOL    HW213399   2.608   5.803   5.200  0.6406 -0.4312 -0.4471
 3798SOL     OW13400   4.748   5.817   1.995  0.4806 -0.3594  0.4912
 3798SOL    HW113401   4.693   5.895   1.982 -2.4179 -2.5683 -1.7965
 3798SOL    HW213402   4.714   5.777   2.075 -0.0770 -0.7858  0.0500
 3799SOL     OW13403   0.226   2.649   3.524  0.1832 -0.3797 -0.4477
 3799SOL    HW113404   0.247   2.740   3.546 -1.8198  0.1022 -0.3853
 3799SOL    HW213405   0.256   2.639   3.433 -0.7205  0.7524 -0.8942
 3800SOL     OW13406   8.206   3.083   9.685  0.2057  0.0581 -0.3052
 3800SOL    HW113407   8.133   3.020   9.680 -0.8505  1.0869  1.1745
 3800SOL    HW213408   8.207   3.125   9.599 -0.5533 -0.3925 -0.5473
 3801SOL     OW13409   0.495   6.652   3.444  0.5135 -0.3287 -0.0085
 3801SOL    HW113410   0.506   6.634   3.538  1.2951 -1.2742 -0.2624
 3801SOL    HW213411   0.483   6.566   3.404 -1.9655  0.2109 -0.5521
 3802SOL     OW13412   1.459   7.929   3.993 -0.3318 -0.1148  0.1322
 3802SOL    HW113413   1.444   7.839   3.964 -0.7624  0.1679 -0.5457
 3802SOL    HW213414   1.469   7.979   3.912  0.6873  0.3249  0.5138
 3803SOL     OW13415   6.812   3.749   4.664 -0.0128  0.4673  0.5041
 3803SOL    HW113416   6.819   3.660   4.630 -0.5475  0.4052  0.5426
 3803SOL    HW213417   6.843   3.743   4.755 -1.2119  0.0561  0.9066
 3804SOL     OW13418   9.297   0.051   7.578 -0.5020 -0.1697  0.0345
 3804SOL    HW113419   9.230   0.060   7.646 -0.7593 -1.8701  0.0313
 3804SOL    HW213420   9.251   0.067   7.496 -0.3003  1.3517  0.1775
 3805SOL     OW13421   9.323   2.168   9.163  0.9607 -1.2815 -0.4809
 3805SOL    HW113422   9.401   2.114   9.172  0.7805 -1.2539  2.0253
 3805SOL    HW213423   9.354   2.257   9.179  0.6158 -1.1329 -0.6281
 3806SOL     OW13424   3.284   7.429   4.051 -0.0375 -0.4395 -0.1521
 3806SOL    HW113425   3.200   7.452   4.011 -0.9334  0.6020  2.1429
 3806SOL    HW213426   3.279   7.334   4.065 -0.7565 -0.4104 -0.1861
 3807SOL     OW13427   1.282   7.350   0.077 -0.6307 -0.0824 -0.2971
 3807SOL    HW113428   1.276   7.431   0.127 -1.2060 -0.3853  0.1371
 3807SOL    HW213429   1.193   7.315   0.076 -0.2039 -1.2632  0.4803
 3808SOL     OW13430   9.598   0.762   9.555 -0.1534 -0.1994  0.1667
 3808SOL    HW113431   9.671   0.791   9.609  0.3959 -0.4126 -0.4515
 3808SOL    HW213432   9.606   0.667   9.553  0.6307 -0.1372 -1.3594
 3809SOL     OW13433   1.980   3.096   6.078 -0.1616  0.3775  0.1402
 3809SOL    HW113434   2.066   3.136   6.087 -0.6413  1.2608  1.0170
 3809SOL    HW213435   1.922   3.151   6.131 -1.8118  1.4965 -2.5978
 3810SOL     OW13436   9.432   7.814   3.918 -0.0012 -0.1753  0.1576
 3810SOL    HW113437   9.473   7.732   3.892  3.0954  1.0252  0.9126
 3810SOL    HW213438   9.434   7.868   3.839  0.8561  0.2454  0.4607
 3811SOL     OW13439  10.222  11.019   6.524 -0.1053  0.0252 -0.4060
 3811SOL    HW113440  10.260  11.106   6.532 -0.0700 -0.0682  0.5674
 3811SOL    HW213441  10.297  10.960   6.534 -0.2617 -0.1324 -0.1709
 3812SOL     OW13442   6.904   3.684   5.217 -0.3648  0.1103  0.0922
 3812SOL    HW113443   6.819   3.722   5.194 -0.5581 -0.6618 -0.5168
 3812SOL    HW213444   6.883   3.610   5.274 -0.2571 -1.1969 -1.4878
 3813SOL     OW13445   1.713   6.446   1.767  0.0750  0.7951  0.4994
 3813SOL    HW113446   1.745   6.485   1.686 -0.4783 -0.8947 -0.5799
 3813SOL    HW213447   1.646   6.383   1.739  0.2231 -0.1902  2.2098
 3814SOL     OW13448   8.608   2.947   9.895 -0.4325  0.1158 -0.6947
 3814SOL    HW113449   8.613   3.042   9.893  1.9687  0.0528 -0.1254
 3814SOL    HW213450   8.520   2.927   9.862 -1.5036  2.5444  0.4777
 3815SOL     OW13451   1.710   1.099   5.849  0.7391  0.4001 -0.5091
 3815SOL    HW113452   1.718   1.184   5.893 -0.4017  0.8413 -1.1164
 3815SOL    HW213453   1.681   1.039   5.918 -0.2218  0.9065 -0.4545
 3816SOL     OW13454   5.874   1.992   6.070 -0.0581  0.3558  0.0952
 3816SOL    HW113455   5.783   2.007   6.097 -0.2651  0.9705 -0.9081
 3816SOL    HW213456   5.899   1.911   6.115 -1.0172  0.3194  0.5865
 3817SOL     OW13457   2.138   0.319   4.492  0.1416 -0.3263  0.1115
 3817SOL    HW113458   2.226   0.308   4.529 -0.1015 -0.8377  0.5495
 3817SOL    HW213459   2.080   0.278   4.556 -0.3965 -0.2066 -0.2961
 3818SOL     OW13460   2.023   8.712   1.412 -0.1921  0.7029  0.4443
 3818SOL    HW113461   2.063   8.661   1.483 -0.7647  1.2065  1.1420
 3818SOL    HW213462   2.017   8.650   1.339 -0.3984 -0.0840  1.1087
 3819SOL     OW13463   9.064   6.913   1.580 -0.3161  0.0704  0.3636
 3819SOL    HW113464   9.142   6.923   1.635  0.9557 -1.0261 -1.1256
 3819SOL    HW213465   9.052   6.998   1.539  1.2449 -0.1941 -0.7495
 3820SOL     OW13466   3.885   4.777  10.598 -0.2591  0.6508  0.3951
 3820SOL    HW113467   3.826   4.852  10.607  0.5062  1.1624  1.4016
 3820SOL    HW213468   3.926   4.789  10.512 -0.3544  1.2407  0.4287
 3821SOL     OW13469   2.595   3.814   0.892  0.1248  0.0715  0.2719
 3821SOL    HW113470   2.688   3.809   0.917  0.3794 -0.7388 -0.7668
 3821SOL    HW213471   2.589   3.894   0.840  0.9904 -1.4964 -2.4375
 3822SOL     OW13472   0.078   8.642   1.492  0.3254  0.2501  0.3264
 3822SOL    HW113473   0.137   8.576   1.454 -0.2124 -1.1260  1.7794
 3822SOL    HW213474  -0.004   8.632   1.444  0.7115  0.9406 -0.4948
 3823SOL     OW13475   7.907   2.795  10.445  0.3827  0.4232 -0.2154
 3823SOL    HW113476   7.972   2.862  10.424 -0.0145  0.6558 -0.7240
 3823SOL    HW213477   7.829   2.844  10.471  0.4878  0.1425  0.6407
 3824SOL     OW13478   0.952   3.523   8.002 -0.4200 -0.3131  0.1058
 3824SOL    HW113479   1.038   3.557   8.028 -1.3230  1.2934  1.2310
 3824SOL    HW213480   0.961   3.502   7.909  0.9848  0.4891  0.0298
 3825SOL     OW13481   2.491   7.406   0.318  0.2228 -0.4244 -0.3306
 3825SOL    HW113482   2.482   7.310   0.319  0.0637 -0.4050  1.1981
 3825SOL    HW213483   2.413   7.436   0.271  0.1171 -1.0262 -0.5581
 3826SOL     OW13484  10.966   2.232   4.412  0.0922  0.6293 -0.5181
 3826SOL    HW113485  10.888   2.286   4.403 -0.1802  0.1727 -0.9343
 3826SOL    HW213486  11.017   2.276   4.480 -0.9317  0.4605  0.3956
 3827SOL     OW13487   1.414   6.973   0.700  0.2789  0.2442 -0.0344
 3827SOL    HW113488   1.335   7.005   0.655  0.7171 -0.2097 -1.1749
 3827SOL    HW213489   1.486   7.019   0.657  0.6495  0.7176  1.0528
 3828SOL     OW13490  10.281   9.038   4.151 -0.3398 -0.0291  0.1410
 3828SOL    HW113491  10.305   9.094   4.076 -1.1628 -0.2207 -0.2800
 3828SOL    HW213492  10.275   9.099   4.225  0.3265  0.1883  0.0223
 3829SOL     OW13493   5.248   8.092   0.322 -0.7516  0.3527 -0.0590
 3829SOL    HW113494   5.273   8.004   0.350  0.2688  0.1947 -1.3338
 3829SOL    HW213495   5.228   8.139   0.403  0.1047 -0.6279  0.7491
 3830SOL     OW13496   2.750   6.531   7.189 -0.4753 -0.0868 -0.7160
 3830SOL    HW113497   2.780   6.452   7.235 -1.6019 -0.7851 -1.1453
 3830SOL    HW213498   2.786   6.603   7.240  0.1919 -0.8636 -0.0474
 3831SOL     OW13499   8.288   0.480   8.554 -0.3158 -0.4760 -0.7863
 3831SOL    HW113500   8.288   0.504   8.461  1.2615 -1.3256 -1.0366
 3831SOL    HW213501   8.308   0.562   8.600  0.7530 -0.4039 -1.3441
 3832SOL     OW13502   2.732   6.292  10.078 -0.4808 -0.2785  0.1386
 3832SOL    HW113503   2.828   6.296  10.074 -0.3999  0.0546  1.6332
 3832SOL    HW213504   2.708   6.217  10.024  0.6974 -0.9472  0.5181
 3833SOL     OW13505   1.912   8.978   4.750  0.0137 -0.1563 -0.0729
 3833SOL    HW113506   1.893   8.942   4.663 -1.8930  1.4015 -0.3729
 3833SOL    HW213507   1.836   8.956   4.803  0.7435 -0.2820  0.9582
 3834SOL     OW13508   5.116   7.404   8.869  0.6840  0.4846 -0.2789
 3834SOL    HW113509   5.128   7.474   8.806  1.1679  0.7044  0.0507
 3834SOL    HW213510   5.060   7.442   8.937  0.2752  0.2901 -0.4996
 3835SOL     OW13511   0.607   6.735   4.429  0.7146 -0.1489  0.7440
 3835SOL    HW113512   0.578   6.658   4.479 -1.7446  1.2056  1.5556
 3835SOL    HW213513   0.561   6.808   4.469 -0.8969  1.1382 -3.0036
 3836SOL     OW13514   7.998   6.029   1.234  0.2857  0.2172 -0.2506
 3836SOL    HW113515   7.919   5.997   1.278  1.4790 -1.8875  0.5108
 3836SOL    HW213516   7.983   6.011   1.142 -0.7668  1.3388 -0.3199
 3837SOL     OW13517   1.958   7.255   0.188  0.4241 -0.5925  0.2446
 3837SOL    HW113518   2.013   7.219   0.257  1.5214 -0.9991 -0.8056
 3837SOL    HW213519   1.893   7.187   0.171 -0.0387 -0.3641  1.0763
 3838SOL     OW13520   9.101   8.567   4.004  0.0776  0.1675 -0.3915
 3838SOL    HW113521   9.034   8.588   3.940 -0.4122  0.8805  0.3328
 3838SOL    HW213522   9.103   8.472   4.008  0.0713  0.1213 -1.4086
 3839SOL     OW13523   7.919   3.923   0.772  0.7005  0.2099 -0.2666
 3839SOL    HW113524   7.998   3.910   0.824 -0.8983 -1.7164  1.8774
 3839SOL    HW213525   7.931   3.866   0.696  1.4549  0.1139 -0.0824
 3840SOL     OW13526   3.004   2.639   6.710  0.4294 -0.0724 -0.0826
 3840SOL    HW113527   2.965   2.696   6.643 -0.1532 -0.5047 -0.1148
 3840SOL    HW213528   2.966   2.553   6.694  0.7841 -0.3222  0.3999
 3841SOL     OW13529   0.940   3.507   2.579 -0.2314 -0.2263 -0.5976
 3841SOL    HW113530   0.912   3.420   2.550 -1.5555 -0.2787  0.6841
 3841SOL    HW213531   1.012   3.490   2.640 -0.4892 -0.4473 -0.3478
 3842SOL     OW13532   4.690   6.206   9.600 -0.5035 -0.2888  0.1828
 3842SOL    HW113533   4.726   6.118   9.604  1.7579  0.6205  1.0999
 3842SOL    HW213534   4.747   6.253   9.540 -1.0379  0.8461  0.5287
 3843SOL     OW13535   5.155   8.112   2.960  0.2367  0.4107 -0.4695
 3843SOL    HW113536   5.096   8.136   2.889 -0.8382 -1.7304 -0.3718
 3843SOL    HW213537   5.115   8.150   3.038 -2.8277 -3.3285  0.0844
 3844SOL     OW13538  10.503   6.276   4.810  0.3496  0.0872  0.5114
 3844SOL    HW113539  10.470   6.353   4.856 -1.0422 -0.3074  0.2438
 3844SOL    HW213540  10.539   6.310   4.728 -0.1910  0.4713  0.4267
 3845SOL     OW13541   0.285   8.090   8.232 -0.1133 -0.1200  0.0641
 3845SOL    HW113542   0.377   8.067   8.219 -0.6832 -0.7900 -4.3481
 3845SOL    HW213543   0.247   8.014   8.276  1.3169  0.0722  1.7289
 3846SOL     OW13544   2.347   3.652   7.232  0.2884 -0.0041 -0.0679
 3846SOL    HW113545   2.361   3.677   7.141  1.2855  0.2388  0.1407
 3846SOL    HW213546   2.258   3.681   7.251 -0.7390 -1.9125 -1.5581
 3847SOL     OW13547   7.104   5.486   4.872  0.1495 -0.0872 -0.0819
 3847SOL    HW113548   7.059   5.421   4.818  0.4548 -1.3843  1.1622
 3847SOL    HW213549   7.095   5.568   4.823 -0.9941 -0.8815 -1.2817
 3848SOL     OW13550   6.305   5.644   0.094  0.0279  0.0610  0.1757
 3848SOL    HW113551   6.337   5.734   0.098 -1.6690  0.7564 -0.8226
 3848SOL    HW213552   6.333   5.612   0.008  0.7279 -0.4233  0.5736
 3849SOL     OW13553   0.750   7.393   5.756  0.2039  0.3920  0.1887
 3849SOL    HW113554   0.746   7.448   5.834 -0.9043 -1.7489  1.7594
 3849SOL    HW213555   0.782   7.309   5.788 -0.9831 -0.7645 -1.5071
 3850SOL     OW13556   0.021   9.771  10.261 -0.0395 -0.1155  0.0883
 3850SOL    HW113557  -0.044   9.702  10.271  0.9880 -0.9029  1.6381
 3850SOL    HW213558   0.081   9.759  10.334  0.4383  2.1420  0.1444
 3851SOL     OW13559   3.557   6.015   0.636  0.5236 -0.4524  0.0194
 3851SOL    HW113560   3.481   6.022   0.578  1.0612  0.5764 -0.5994
 3851SOL    HW213561   3.626   6.062   0.590  1.5166 -1.3000  0.6159
 3852SOL     OW13562   4.994   8.086   4.868  0.6293 -0.1511  0.0235
 3852SOL    HW113563   4.990   8.056   4.959 -0.7524  2.5589  0.9600
 3852SOL    HW213564   4.925   8.038   4.823 -1.1445  1.0689  1.3319
 3853SOL     OW13565   7.593   6.438   1.501 -0.4125  0.5024  0.0377
 3853SOL    HW113566   7.558   6.505   1.443 -1.4387  0.5642  0.7019
 3853SOL    HW213567   7.516   6.394   1.537  0.2298 -0.4396  0.2991
 3854SOL     OW13568   7.518   8.251   8.436 -0.3303 -0.2584 -0.6828
 3854SOL    HW113569   7.490   8.179   8.492 -1.0561 -0.8498 -1.7499
 3854SOL    HW213570   7.436   8.293   8.408  0.0474  0.4788 -0.7104
 3855SOL     OW13571   6.952   8.194   1.226 -0.1908 -0.2087 -0.3397
 3855SOL    HW113572   6.907   8.161   1.148 -0.4203  0.5523 -0.5346
 3855SOL    HW213573   6.989   8.278   1.198  0.3725 -0.2874  0.1537
 3856SOL     OW13574   0.252   9.782  10.788  0.0819  0.4273 -0.5560
 3856SOL    HW113575   0.330   9.731  10.770 -0.6893 -0.2928 -1.9858
 3856SOL    HW213576   0.196   9.723  10.839  1.2417  1.6254  2.2933
 3857SOL     OW13577   4.776   8.760   0.090  1.0536  0.4397  0.4540
 3857SOL    HW113578   4.753   8.738  -0.000  0.2446  0.6041  0.6075
 3857SOL    HW213579   4.868   8.784   0.086  0.9721  0.6686 -0.3755
 3858SOL     OW13580   8.566   8.758   7.329 -0.2342  0.7153 -0.3266
 3858SOL    HW113581   8.562   8.763   7.425  2.0592 -2.3370  0.0991
 3858SOL    HW213582   8.494   8.699   7.306  0.5781 -0.3582 -0.1845
 3859SOL     OW13583   1.201   5.418   0.353  0.1606  0.4271  0.5787
 3859SOL    HW113584   1.135   5.377   0.409  0.1505 -1.6218 -0.8201
 3859SOL    HW213585   1.159   5.499   0.323 -2.2757 -1.3194 -1.1416
 3860SOL     OW13586   8.290   4.441   2.132  0.8789 -0.3834  0.2598
 3860SOL    HW113587   8.333   4.461   2.215  0.3312 -2.1291  1.0129
 3860SOL    HW213588   8.197   4.454   2.150  0.7219 -1.2000  0.0567
 3861SOL     OW13589   4.657   5.431   8.517 -0.0526  0.5258 -0.2235
 3861SOL    HW113590   4.645   5.336   8.521 -1.9901  0.7830  2.9592
 3861SOL    HW213591   4.653   5.460   8.608 -0.0054  3.7374 -1.1279
 3862SOL     OW13592   1.181   9.942  10.414 -0.3072  0.0811 -0.8031
 3862SOL    HW113593   1.133  10.021  10.387  1.2863  0.4673 -2.6683
 3862SOL    HW213594   1.265   9.948  10.370  0.4058 -1.9929  0.1435
 3863SOL     OW13595   4.545   9.440   1.241  0.0844 -0.1525 -0.0814
 3863SOL    HW113596   4.609   9.460   1.310  1.3811 -1.1777 -0.9307
 3863SOL    HW213597   4.461   9.439   1.286  0.8677 -0.6649  1.4677
 3864SOL     OW13598   6.260   8.925   3.065  0.4673  0.2144 -0.1756
 3864SOL    HW113599   6.352   8.934   3.039  0.6934  2.2923  1.1555
 3864SOL    HW213600   6.211   8.973   2.998  0.5725  1.0670  0.3513
 3865SOL     OW13601   6.052   4.807   2.151  0.1099 -0.1908 -0.5432
 3865SOL    HW113602   6.069   4.770   2.238  1.5296  0.7552 -0.3874
 3865SOL    HW213603   5.958   4.821   2.149 -0.0323 -0.8512  0.5804
 3866SOL     OW13604   2.270   3.749   2.818 -0.3970  0.5585 -0.4210
 3866SOL    HW113605   2.282   3.718   2.728 -1.7700  1.8783 -1.1151
 3866SOL    HW213606   2.179   3.780   2.820 -0.6764 -0.2647  1.6926
 3867SOL     OW13607   9.748   1.436  10.237 -0.0304  0.3675 -0.1847
 3867SOL    HW113608   9.764   1.527  10.262  1.5065  0.2474 -0.6513
 3867SOL    HW213609   9.731   1.390  10.319  0.4317  0.8387  0.1775
 3868SOL     OW13610   0.378   4.450   4.271  0.3367  0.5106 -0.0722
 3868SOL    HW113611   0.465   4.424   4.238 -0.5488 -1.2834 -1.1275
 3868SOL    HW213612   0.349   4.517   4.210  0.5138  0.3016 -0.3902
 3869SOL     OW13613   4.697   3.598   0.434 -0.4749  0.5465  0.2155
 3869SOL    HW113614   4.663   3.581   0.521  2.8810 -0.2514  1.5159
 3869SOL    HW213615   4.701   3.512   0.392 -3.3839  1.0566 -1.4329
 3870SOL     OW13616   5.703   6.316   7.611  0.4025  0.0337 -0.0344
 3870SOL    HW113617   5.639   6.303   7.541 -0.3253  0.5179  0.5213
 3870SOL    HW213618   5.720   6.411   7.610  0.2149  0.0821  0.5730
 3871SOL     OW13619   5.523   6.195   6.717  0.5426  0.1484 -0.3979
 3871SOL    HW113620   5.584   6.254   6.674 -0.6017  1.1493 -0.7221
 3871SOL    HW213621   5.440   6.209   6.670 -0.0063 -0.9495  0.2059
 3872SOL     OW13622   5.695   5.134   1.491 -0.2439 -0.9222  0.5665
 3872SOL    HW113623   5.747   5.147   1.412 -1.3113 -0.8796 -0.1496
 3872SOL    HW213624   5.723   5.049   1.525  0.1091 -1.0165  0.0475
 3873SOL     OW13625   9.864   1.418   6.459  0.3067 -0.0634 -0.1178
 3873SOL    HW113626   9.912   1.351   6.507  0.9189 -0.1781 -0.8724
 3873SOL    HW213627   9.862   1.493   6.519  0.6521 -0.3562  0.2643
 3874SOL     OW13628  10.169  10.534   1.975  0.1874 -0.0829 -0.0153
 3874SOL    HW113629  10.146  10.602   1.913  0.7525 -0.2460 -0.4091
 3874SOL    HW213630  10.240  10.485   1.933 -0.0728 -0.7878  0.3436
 3875SOL     OW13631   9.600   0.630   4.796 -0.3839  0.2977  0.6579
 3875SOL    HW113632   9.545   0.575   4.739 -1.0510  0.4672  1.1215
 3875SOL    HW213633   9.587   0.719   4.763 -1.1143  0.4520  1.3282
 3876SOL     OW13634   4.307   2.131   1.648 -0.2152  0.0346  0.0179
 3876SOL    HW113635   4.345   2.219   1.644  3.4830 -1.2385  1.8854
 3876SOL    HW213636   4.263   2.128   1.733  1.5996 -0.4777  0.9942
 3877SOL     OW13637   3.656   2.898  10.219 -0.8610 -0.7583 -0.2169
 3877SOL    HW113638   3.635   2.984  10.255  2.2765  0.4645 -0.9344
 3877SOL    HW213639   3.709   2.856  10.287 -2.0239 -2.0007 -0.0450
 3878SOL     OW13640   2.983   9.087   5.541  0.1164  0.5321 -0.4070
 3878SOL    HW113641   2.908   9.127   5.497 -1.3930 -0.9406  0.6834
 3878SOL    HW213642   2.996   9.140   5.619 -0.8308 -0.1236  0.2089
 3879SOL     OW13643   3.459   8.644   3.554  0.2664  0.0124  0.5234
 3879SOL    HW113644   3.432   8.712   3.615  0.1875  0.0355  0.4608
 3879SOL    HW213645   3.555   8.644   3.561  0.2488 -0.1369  0.8149
 3880SOL     OW13646   9.823   3.709   2.244  0.6587  0.1244 -0.4006
 3880SOL    HW113647   9.828   3.802   2.263 -1.0803 -0.1265  1.6506
 3880SOL    HW213648   9.834   3.666   2.329 -2.7040 -1.3099 -0.5327
 3881SOL     OW13649   2.607  10.604   4.949  0.2947  0.2741  0.1107
 3881SOL    HW113650   2.534  10.596   4.889 -0.7003  3.4591  0.7263
 3881SOL    HW213651   2.566  10.621   5.034  1.6918  1.3001  0.6193
 3882SOL     OW13652   5.871   9.229   1.508  0.0360 -0.1187  0.4577
 3882SOL    HW113653   5.964   9.235   1.529  0.0658 -0.6997  0.5018
 3882SOL    HW213654   5.827   9.227   1.593 -0.0294  0.2825  0.4366
 3883SOL     OW13655   6.267   8.830   0.826  0.0132  0.4146  0.1995
 3883SOL    HW113656   6.192   8.888   0.834  1.3085  2.6112 -2.0631
 3883SOL    HW213657   6.270   8.781   0.908 -3.2461  0.9581  0.7485
 3884SOL     OW13658   2.227   7.648   9.150 -0.3082  0.7119  0.0829
 3884SOL    HW113659   2.136   7.672   9.168 -0.7970  2.2848 -3.5546
 3884SOL    HW213660   2.223   7.554   9.129 -0.8789  0.5468  0.8709
 3885SOL     OW13661   5.256   1.528   3.017 -0.2270  0.0879 -0.1611
 3885SOL    HW113662   5.199   1.460   3.053 -0.4268  1.0929  1.5011
 3885SOL    HW213663   5.310   1.482   2.953 -1.7910 -1.2006 -0.6029
 3886SOL     OW13664   7.870   0.816  10.941  0.2607  0.1750 -0.1674
 3886SOL    HW113665   7.862   0.753  10.870 -0.3391 -0.9230  0.8504
 3886SOL    HW213666   7.804   0.789  11.005 -0.5989  2.3202 -0.0657
 3887SOL     OW13667   8.234   3.684   7.201 -0.4805  0.0749 -0.0493
 3887SOL    HW113668   8.170   3.621   7.234 -1.3340  1.3893  0.9102
 3887SOL    HW213669   8.304   3.683   7.265 -1.1838  1.1420  0.7628
 3888SOL     OW13670   0.994   1.288   9.803 -0.7537 -0.3238 -0.2891
 3888SOL    HW113671   1.046   1.368   9.807 -0.7061 -0.2425 -1.9745
 3888SOL    HW213672   0.943   1.296   9.723  0.4389 -2.6807 -1.3914
 3889SOL     OW13673   6.630   1.556   6.802 -0.2114  0.0044  0.2876
 3889SOL    HW113674   6.664   1.629   6.749 -0.0277  1.3799  2.1889
 3889SOL    HW213675   6.555   1.594   6.848  0.0763 -0.9202  1.5435
 3890SOL     OW13676   1.353   2.731   2.603  0.1023 -0.3672  0.8932
 3890SOL    HW113677   1.358   2.672   2.528 -1.4578  0.5262  0.0285
 3890SOL    HW213678   1.443   2.755   2.621  0.5727 -1.2921 -0.1263
 3891SOL     OW13679   2.790   9.908   4.302 -0.1323 -0.2523  0.5465
 3891SOL    HW113680   2.808   9.816   4.322 -0.3424 -0.2430  0.7793
 3891SOL    HW213681   2.695   9.915   4.306 -0.3412 -0.6030 -1.8810
 3892SOL     OW13682   8.108   2.555   0.401 -0.5748  0.6101  0.0832
 3892SOL    HW113683   8.035   2.529   0.345 -0.2264 -0.8263  0.2554
 3892SOL    HW213684   8.068   2.575   0.485 -0.7712 -0.3469  0.2298
 3893SOL     OW13685   2.551   5.569  10.397 -0.0005 -0.1269 -0.3718
 3893SOL    HW113686   2.605   5.646  10.415  0.2254 -0.4689  0.4671
 3893SOL    HW213687   2.475   5.604  10.349  0.1766  0.5882 -0.1470
 3894SOL     OW13688   8.552  10.838   5.898  0.7640 -0.1388 -0.0686
 3894SOL    HW113689   8.550  10.744   5.918  2.7909 -0.3554 -0.6834
 3894SOL    HW213690   8.594  10.878   5.974  1.2600  0.0567 -0.4391
 3895SOL     OW13691   4.613   6.507  10.207 -0.5009 -1.1353 -0.0065
 3895SOL    HW113692   4.626   6.428  10.154  1.0102  0.1218 -1.6214
 3895SOL    HW213693   4.695   6.517  10.255 -1.3142 -1.4330  1.5120
 3896SOL     OW13694   5.239   3.977   0.704  0.2252 -0.3154  0.2860
 3896SOL    HW113695   5.289   4.024   0.637  0.7464  1.7905  2.0547
 3896SOL    HW213696   5.291   3.987   0.784 -1.8679 -0.0365  1.6927
 3897SOL     OW13697   9.577   5.545   2.456  0.2761 -0.1179  0.5411
 3897SOL    HW113698   9.634   5.541   2.380 -2.1463  0.2410 -1.4211
 3897SOL    HW213699   9.584   5.458   2.496  1.8891 -0.1810  0.1946
 3898SOL     OW13700   1.954   0.211   9.098  0.2280 -0.0440 -0.2817
 3898SOL    HW113701   1.976   0.229   9.007  0.5699  1.3642  0.0430
 3898SOL    HW213702   2.036   0.226   9.146 -0.1358 -0.0017  0.3421
 3899SOL     OW13703   9.005   5.763   7.220  0.1627 -0.5203  0.0981
 3899SOL    HW113704   9.054   5.787   7.141  1.1919 -0.5728  0.6993
 3899SOL    HW213705   9.053   5.689   7.257  0.9018  0.7617  1.8475
 3900SOL     OW13706   0.422  10.179   8.354 -0.4818  0.1529  0.3865
 3900SOL    HW113707   0.384  10.117   8.292 -3.0955  0.8063  1.2258
 3900SOL    HW213708   0.417  10.134   8.439  0.2817  0.4206  0.5796
 3901SOL     OW13709   0.524  10.518   0.819  0.0523 -0.6495 -0.2835
 3901SOL    HW113710   0.618  10.495   0.820  0.0071 -0.9775  1.8812
 3901SOL    HW213711   0.521  10.608   0.850 -0.3638 -0.8601  0.3151
 3902SOL     OW13712   4.651   0.900   9.416  0.3907  0.3725  0.2854
 3902SOL    HW113713   4.720   0.928   9.355  0.9880  1.3142  1.3309
 3902SOL    HW213714   4.680   0.814   9.447 -0.4693 -0.6136 -1.5255
 3903SOL     OW13715   9.611   8.458   4.252  0.6541 -0.4332  0.0560
 3903SOL    HW113716   9.646   8.438   4.166  2.2859  2.2899 -0.0404
 3903SOL    HW213717   9.614   8.375   4.300 -0.7319 -2.1235 -2.5622
 3904SOL     OW13718   1.551   8.527   2.682  0.1529  0.1776 -0.2484
 3904SOL    HW113719   1.557   8.595   2.749 -0.0319  0.8467 -0.8801
 3904SOL    HW213720   1.531   8.447   2.729  0.1020  0.6205  0.4980
 3905SOL     OW13721   8.856   0.344   5.001  0.6044 -0.1911 -0.5485
 3905SOL    HW113722   8.779   0.298   5.034  0.4721 -0.1892 -0.8539
 3905SOL    HW213723   8.824   0.395   4.926  1.2834 -1.7968 -2.0027
 3906SOL     OW13724   5.791   9.575  10.103  0.7171 -0.3291 -0.0246
 3906SOL    HW113725   5.885   9.577  10.121  0.9505  0.2696 -1.2381
 3906SOL    HW213726   5.761   9.494  10.143  2.3948 -2.3397 -2.5462
 3907SOL     OW13727   2.160   8.715   5.231 -0.1884 -0.0978 -0.0363
 3907SOL    HW113728   2.223   8.663   5.181  0.2527 -0.3281  0.7275
 3907SOL    HW213729   2.192   8.710   5.321 -1.6999 -0.8056  0.4906
 3908SOL     OW13730   3.085  10.227   4.048  0.3420  0.0506  0.3060
 3908SOL    HW113731   3.047  10.270   4.125  0.3562 -2.1914  1.6314
 3908SOL    HW213732   3.046  10.140   4.046  0.3458  0.0134 -2.2692
 3909SOL     OW13733   5.055   5.536   9.771  0.6010 -0.1442  0.2232
 3909SOL    HW113734   5.114   5.491   9.831 -0.8611 -2.3028  0.1313
 3909SOL    HW213735   5.077   5.500   9.685  1.1007  1.2331 -0.2708
 3910SOL     OW13736   6.185   3.195   5.831  0.9765  0.2582  0.5363
 3910SOL    HW113737   6.229   3.270   5.792 -0.9537  1.0880 -0.1615
 3910SOL    HW213738   6.141   3.152   5.757 -1.2350  0.7965  1.4808
 3911SOL     OW13739   5.249   7.151   8.957 -0.2458 -0.1981 -0.0791
 3911SOL    HW113740   5.330   7.195   8.982 -0.9688  1.2482 -0.1910
 3911SOL    HW213741   5.189   7.222   8.935 -1.1902 -1.2763 -1.1177
 3912SOL     OW13742   8.495  10.600   7.805 -0.0607  0.4042 -0.1639
 3912SOL    HW113743   8.545  10.632   7.729 -0.5861  1.6381 -0.0261
 3912SOL    HW213744   8.548  10.624   7.880  1.0939 -1.9831 -0.1346
 3913SOL     OW13745   6.191   3.217  10.929  0.1113  0.2356 -0.3161
 3913SOL    HW113746   6.140   3.221  10.849 -0.3032  0.2155 -0.0563
 3913SOL    HW213747   6.264   3.158  10.909 -0.2497 -0.1365 -0.5266
 3914SOL     OW13748   4.419   7.513   9.518  0.5417  0.1118  0.3785
 3914SOL    HW113749   4.507   7.477   9.512  0.2265 -0.5857 -0.2026
 3914SOL    HW213750   4.398   7.540   9.428 -0.4561 -1.2570  0.1677
 3915SOL     OW13751   6.073   7.006   1.478  0.1115 -0.7219 -0.3744
 3915SOL    HW113752   6.152   7.037   1.522 -0.1607  1.5539 -1.3870
 3915SOL    HW213753   6.082   7.036   1.388 -1.7006 -0.8139 -0.6236
 3916SOL     OW13754   6.271   8.297   0.910  0.0247  0.1914 -0.1139
 3916SOL    HW113755   6.290   8.335   0.825 -0.4586  0.6820 -0.0063
 3916SOL    HW213756   6.293   8.204   0.900  1.4009  0.5156 -0.3195
 3917SOL     OW13757   9.993   5.074   1.584 -0.4120 -0.2890 -0.8757
 3917SOL    HW113758  10.052   5.002   1.565 -0.2252  0.0471 -1.6033
 3917SOL    HW213759   9.920   5.063   1.524  0.6097  1.2930 -2.5085
 3918SOL     OW13760   9.400   7.829   0.964  0.2872  0.2618  0.4705
 3918SOL    HW113761   9.446   7.814   0.881 -0.9332 -2.4609  0.1745
 3918SOL    HW213762   9.308   7.835   0.940  0.1233  2.0798  1.4183
 3919SOL     OW13763   8.378   4.296  10.182 -0.2693 -0.4909 -0.6066
 3919SOL    HW113764   8.300   4.303  10.238 -0.7828  2.3666 -1.5168
 3919SOL    HW213765   8.405   4.387  10.168  4.0232 -1.3633  0.6139
 3920SOL     OW13766  10.758   1.561  10.395 -0.6569  0.1577 -0.3770
 3920SOL    HW113767  10.830   1.564  10.332 -0.4756 -0.3238 -0.1925
 3920SOL    HW213768  10.684   1.602  10.349 -0.4832 -0.0555 -0.8467
 3921SOL     OW13769   6.438   3.061   5.026  0.2654  0.0834  0.2021
 3921SOL    HW113770   6.507   3.020   4.974 -1.6914 -0.8856 -1.7815
 3921SOL    HW213771   6.400   3.127   4.968 -0.1471  0.9548  1.4319
 3922SOL     OW13772   6.658   6.005   5.282 -0.1964  0.0368  0.3959
 3922SOL    HW113773   6.602   6.073   5.319  0.1859  1.1451 -0.9757
 3922SOL    HW213774   6.732   5.999   5.343 -1.8227 -1.6460  2.3876
 3923SOL     OW13775   9.978   0.834   5.431 -0.3539  0.4045 -0.0972
 3923SOL    HW113776  10.058   0.886   5.440 -1.3345  1.7576  1.4513
 3923SOL    HW213777   9.910   0.898   5.411 -1.4226 -0.4082  0.8201
 3924SOL     OW13778   4.700   1.142  10.969 -0.0650  0.2574  0.0748
 3924SOL    HW113779   4.713   1.222  10.920 -1.5507  0.7226  0.3888
 3924SOL    HW213780   4.769   1.143  11.036  0.1305  1.0921 -0.1344
 3925SOL     OW13781  10.663   8.964  10.406 -0.1510 -0.4824  0.1651
 3925SOL    HW113782  10.737   9.024  10.419 -0.0637 -0.4526 -0.4315
 3925SOL    HW213783  10.585   9.018  10.417 -0.0782  0.0444 -1.5881
 3926SOL     OW13784   8.508   4.917   1.734 -0.1151 -0.2269 -0.7156
 3926SOL    HW113785   8.444   4.983   1.760 -0.9366 -1.3243  0.1901
 3926SOL    HW213786   8.585   4.935   1.788 -0.2482  0.1492 -0.6515
 3927SOL     OW13787   0.205   4.726   4.097 -0.3119 -0.5131  0.0467
 3927SOL    HW113788   0.163   4.705   4.014 -1.9151 -2.9059  1.3444
 3927SOL    HW213789   0.139   4.705   4.163  0.5223  2.2845  1.9505
 3928SOL     OW13790   7.522   5.628   4.295  0.4599 -0.4463  0.0768
 3928SOL    HW113791   7.522   5.592   4.384  0.7971 -0.7291 -0.0331
 3928SOL    HW213792   7.435   5.667   4.284  0.4228 -0.4000  0.5345
 3929SOL     OW13793   8.972   8.164  10.741 -0.5383  0.4093 -0.1878
 3929SOL    HW113794   8.915   8.101  10.696 -1.3152  1.9371 -1.4381
 3929SOL    HW213795   9.001   8.117  10.819  0.1990 -2.0880 -1.8129
 3930SOL     OW13796   8.475   3.160   1.243  0.2512 -0.3581 -0.4994
 3930SOL    HW113797   8.453   3.207   1.324  2.4630  0.2281 -0.1510
 3930SOL    HW213798   8.480   3.068   1.270 -3.1919 -0.8197 -0.9864
 3931SOL     OW13799   5.182   3.740   3.677 -0.5174 -0.0942 -0.5487
 3931SOL    HW113800   5.196   3.750   3.771 -0.5239  0.4715 -0.6079
 3931SOL    HW213801   5.180   3.645   3.664 -3.8728 -0.3424  0.5578
 3932SOL     OW13802   6.531   3.829   4.299  0.4186  0.1681  0.6524
 3932SOL    HW113803   6.438   3.844   4.314  0.7043  1.0467  1.6195
 3932SOL    HW213804   6.563   3.789   4.380  1.3282  1.9823  1.2366
 3933SOL     OW13805   6.001   8.507   7.684  0.3530 -0.3708  0.2504
 3933SOL    HW113806   6.050   8.582   7.650  0.0587 -0.0814  0.4633
 3933SOL    HW213807   5.910   8.524   7.658  0.2928 -0.6749  0.2635
 3934SOL     OW13808   9.399   9.107   4.546  0.4302  0.0247  0.1359
 3934SOL    HW113809   9.436   9.025   4.579  0.4786  0.2806  0.7442
 3934SOL    HW213810   9.417   9.170   4.615  0.2474  0.5122 -0.2559
 3935SOL     OW13811   6.555   5.263   0.477  0.1675  0.1071 -0.0391
 3935SOL    HW113812   6.551   5.317   0.556 -1.3586  0.8748 -0.5934
 3935SOL    HW213813   6.604   5.185   0.503 -0.4343  0.2674  1.7099
 3936SOL     OW13814   7.326   0.530   1.834 -0.1203 -0.5856 -0.1517
 3936SOL    HW113815   7.268   0.532   1.910 -2.4269 -1.5749 -1.7577
 3936SOL    HW213816   7.291   0.598   1.776  0.6920 -0.8007 -0.9103
 3937SOL     OW13817   9.850   6.742   2.258  0.4358 -0.5193 -0.7507
 3937SOL    HW113818   9.832   6.713   2.347 -0.6136  1.3349 -0.2990
 3937SOL    HW213819   9.918   6.808   2.268  0.4307 -0.4224 -1.3380
 3938SOL     OW13820   9.263   8.332   0.516 -0.1865 -0.8340  0.2211
 3938SOL    HW113821   9.244   8.418   0.479  1.4719 -0.0526  1.0832
 3938SOL    HW213822   9.195   8.318   0.581  0.0677  0.2820  0.7564
 3939SOL     OW13823   1.938   5.069   7.209 -0.2281 -0.1224  0.3091
 3939SOL    HW113824   1.928   5.011   7.134 -2.5960 -0.3503  0.7484
 3939SOL    HW213825   1.861   5.053   7.264  0.9282  0.7384  2.3230
 3940SOL     OW13826   4.663   5.880   0.382 -0.5104 -0.6834  0.3210
 3940SOL    HW113827   4.676   5.926   0.299 -0.8170  0.2957  0.7964
 3940SOL    HW213828   4.748   5.885   0.426 -0.7336  0.0704  0.6781
 3941SOL     OW13829   4.436   4.797   7.079  0.7633 -0.7974 -0.1930
 3941SOL    HW113830   4.457   4.802   7.172  1.3551 -1.7990 -0.2504
 3941SOL    HW213831   4.508   4.841   7.035  0.8303 -0.9143 -0.2024
 3942SOL     OW13832   4.120   4.034   1.462 -0.3874 -0.4957  0.1631
 3942SOL    HW113833   4.196   3.994   1.420 -1.1584 -0.9115 -0.8786
 3942SOL    HW213834   4.151   4.120   1.490  0.5265 -0.7433 -0.0446
 3943SOL     OW13835   8.740   6.594   5.022 -0.4135  0.1565 -0.6307
 3943SOL    HW113836   8.755   6.685   4.996 -1.3010  0.5001  0.0042
 3943SOL    HW213837   8.821   6.549   5.000  0.5147  1.3609  0.2167
 3944SOL     OW13838   7.678   8.542   6.662  0.5421 -0.2161 -0.0207
 3944SOL    HW113839   7.623   8.620   6.657  1.3042  0.2724 -1.4736
 3944SOL    HW213840   7.620   8.470   6.638 -0.2267 -0.1546  1.5487
 3945SOL     OW13841   1.430   5.303   5.846  0.0830 -0.4690 -0.4607
 3945SOL    HW113842   1.391   5.357   5.915  1.6092 -0.1532  0.1943
 3945SOL    HW213843   1.359   5.248   5.815 -0.5477 -0.9513  1.6840
 3946SOL     OW13844   7.041   8.881   5.075 -0.1942  0.3408  0.0987
 3946SOL    HW113845   7.039   8.976   5.087 -0.7669  0.6101 -1.8006
 3946SOL    HW213846   6.962   8.850   5.119 -1.3792  1.0718 -1.4188
 3947SOL     OW13847   2.540   0.583   1.921 -0.0751  0.2375  0.0821
 3947SOL    HW113848   2.524   0.562   1.829 -0.5181 -0.8386  0.3926
 3947SOL    HW213849   2.478   0.529   1.969 -0.6103  1.5968  0.9767
 3948SOL     OW13850   1.164   6.811   3.383 -0.6145  0.9840 -0.4466
 3948SOL    HW113851   1.133   6.737   3.436 -0.6390  0.3080 -1.3836
 3948SOL    HW213852   1.159   6.780   3.293  1.2435  1.4210 -0.7393
 3949SOL     OW13853   2.412   0.725   5.307 -0.0034 -0.3125  0.4920
 3949SOL    HW113854   2.358   0.688   5.377 -0.0786 -0.8498  0.1611
 3949SOL    HW213855   2.495   0.748   5.350  0.5107 -2.0123  0.5019
 3950SOL     OW13856   2.078   9.803   1.178  0.0913 -0.9890 -0.5442
 3950SOL    HW113857   2.153   9.750   1.149  0.5248 -0.7961  0.2083
 3950SOL    HW213858   2.045   9.758   1.255  0.0578 -0.5232 -0.2838
 3951SOL     OW13859   7.327   4.045   4.329 -0.2844  0.4614  0.1595
 3951SOL    HW113860   7.281   3.986   4.389 -0.2256  0.1488 -0.0991
 3951SOL    HW213861   7.261   4.068   4.263  0.0808 -0.4671 -0.5545
 3952SOL     OW13862  10.393   1.412   1.236  0.0368  0.1361  0.0997
 3952SOL    HW113863  10.344   1.479   1.188  0.5478 -0.5947 -1.4987
 3952SOL    HW213864  10.326   1.359   1.278 -0.5607 -0.2934 -1.3180
 3953SOL     OW13865   9.576   1.225   9.018 -0.0519  0.2096 -0.0084
 3953SOL    HW113866   9.488   1.190   9.017  0.5234 -1.3290  0.3387
 3953SOL    HW213867   9.633   1.149   9.004  1.2059  1.2186 -0.6280
 3954SOL     OW13868   4.647   2.373   0.476  0.1179  0.0062  0.4253
 3954SOL    HW113869   4.635   2.383   0.382 -1.3554  2.4234  0.7619
 3954SOL    HW213870   4.608   2.288   0.497 -2.6966  0.8949 -0.7633
 3955SOL     OW13871   5.592   0.406  10.618  0.3272  0.1349  0.0292
 3955SOL    HW113872   5.642   0.484  10.645  0.9951  0.2587 -1.4496
 3955SOL    HW213873   5.652   0.333  10.634  0.2189  0.0741  0.1516
 3956SOL     OW13874   2.773   9.821   4.851 -0.3854  0.3225 -0.1795
 3956SOL    HW113875   2.696   9.817   4.795  0.2419  1.7363 -1.1887
 3956SOL    HW213876   2.817   9.737   4.837 -0.8432  0.1955 -0.9008
 3957SOL     OW13877   2.691   7.955   2.151  0.1317  0.4979 -0.0561
 3957SOL    HW113878   2.613   8.010   2.160 -0.5711 -0.6668  1.2113
 3957SOL    HW213879   2.756   7.997   2.208 -0.8313 -0.6428  2.0265
 3958SOL     OW13880   4.609  10.192   0.694  0.1516 -0.0895  0.1739
 3958SOL    HW113881   4.626  10.217   0.785 -2.5894 -0.6560  0.9220
 3958SOL    HW213882   4.672  10.122   0.677  0.6229 -0.0675  1.6746
 3959SOL     OW13883   8.184   9.182  10.543  0.3057 -0.0033  0.9263
 3959SOL    HW113884   8.097   9.215  10.566  0.2468  0.7661 -0.3218
 3959SOL    HW213885   8.228   9.170  10.627 -0.8696 -0.0472  1.5624
 3960SOL     OW13886   2.172   3.655   6.611 -0.2302  0.6881 -0.5408
 3960SOL    HW113887   2.081   3.628   6.618 -1.3000  3.9878  0.1777
 3960SOL    HW213888   2.190   3.699   6.695  1.7729  0.7992 -0.9842
 3961SOL     OW13889   9.801   2.005   4.374 -0.1960 -0.0810 -0.1705
 3961SOL    HW113890   9.889   2.038   4.360 -0.5024  1.0355  0.3126
 3961SOL    HW213891   9.757   2.014   4.289  0.0129 -0.1630 -0.2856
 3962SOL     OW13892   1.315   1.894   4.147  0.7219  0.1359  0.0879
 3962SOL    HW113893   1.380   1.865   4.211  0.5224  0.3852  0.4008
 3962SOL    HW213894   1.301   1.986   4.166  0.3622  0.1115 -0.0574
 3963SOL     OW13895   0.632   9.643   8.481 -0.1540  0.4647  0.1579
 3963SOL    HW113896   0.549   9.661   8.524 -0.0379  1.2142  0.0698
 3963SOL    HW213897   0.683   9.597   8.548  0.5237  2.8094  1.3578
 3964SOL     OW13898   1.985   2.944   1.470  0.6716 -0.5369  0.2636
 3964SOL    HW113899   1.939   2.869   1.433  1.6336 -0.7859 -0.4473
 3964SOL    HW213900   2.038   2.907   1.541  0.2128 -0.3292  0.7266
 3965SOL     OW13901   4.044   0.806  10.415  0.6402 -0.6025 -0.5244
 3965SOL    HW113902   4.132   0.768  10.422  0.6893 -0.9081 -2.2870
 3965SOL    HW213903   4.046   0.855  10.333  0.1102  2.0315  0.9191
 3966SOL     OW13904   7.221  10.315  10.893 -0.1517 -0.0146  0.0888
 3966SOL    HW113905   7.292  10.340  10.952  0.1135  1.1775 -0.7042
 3966SOL    HW213906   7.166  10.257  10.945  1.1715 -0.6309  0.8539
 3967SOL     OW13907   8.563  10.930  10.606  0.0547 -0.4123 -0.3405
 3967SOL    HW113908   8.516  10.847  10.590 -0.1377 -0.4056  0.1782
 3967SOL    HW213909   8.622  10.938  10.531 -2.5766  0.8838 -2.4238
 3968SOL     OW13910   4.101   9.059  10.308 -0.0395 -0.0303 -0.4764
 3968SOL    HW113911   4.074   8.969  10.288 -0.4131  0.1007 -0.5873
 3968SOL    HW213912   4.069   9.110  10.233 -2.5300  0.6610  0.9458
 3969SOL     OW13913   0.561   9.038   1.867 -0.5181  0.1377 -0.6939
 3969SOL    HW113914   0.470   9.064   1.880 -0.7728 -0.4062 -1.3368
 3969SOL    HW213915   0.600   9.042   1.955 -1.5886 -1.2484 -0.1044
 3970SOL     OW13916   9.011   7.786   9.659  0.6080  0.3753  0.1285
 3970SOL    HW113917   9.056   7.870   9.668  2.3554 -0.5059  0.1334
 3970SOL    HW213918   8.918   7.809   9.655  0.8690  2.1589  2.1699
 3971SOL     OW13919  10.233   7.476   6.081 -0.1821  0.1094  0.0750
 3971SOL    HW113920  10.202   7.563   6.107  1.4088  0.2946  1.5340
 3971SOL    HW213921  10.234   7.425   6.162  0.8747 -0.6302 -0.3683
 3972SOL     OW13922  10.095   3.383   1.396 -0.6211 -0.0875 -0.1501
 3972SOL    HW113923  10.007   3.347   1.392 -0.7814  0.3115 -0.2716
 3972SOL    HW213924  10.106   3.413   1.486 -0.8304  0.4076 -0.2878
 3973SOL     OW13925   6.591   9.103  10.014 -0.3178  0.0778  0.6169
 3973SOL    HW113926   6.605   9.191   9.981 -3.2112  0.4779  0.1357
 3973SOL    HW213927   6.630   9.103  10.102  2.9275  0.6062 -0.6792
 3974SOL     OW13928   8.345   5.595   2.074  0.0110 -0.1613 -0.3798
 3974SOL    HW113929   8.296   5.613   2.155  2.2675  1.6683  0.6795
 3974SOL    HW213930   8.305   5.652   2.008 -2.3106 -2.1760 -0.8707
 3975SOL     OW13931  10.022   9.494   7.636  0.0529  0.6174 -0.6832
 3975SOL    HW113932  10.084   9.424   7.655  0.8893  1.2623 -0.9719
 3975SOL    HW213933  10.077   9.571   7.617 -0.8269  1.7975  1.2176
 3976SOL     OW13934   3.524  10.243   7.169 -0.3142 -0.4404  0.1656
 3976SOL    HW113935   3.563  10.304   7.231 -0.7632 -1.6927  1.7604
 3976SOL    HW213936   3.598  10.197   7.130  0.0040  0.8317 -0.7906
 3977SOL     OW13937   5.863   7.237  10.880  0.4195  0.2407 -0.6666
 3977SOL    HW113938   5.828   7.274  10.798  0.6886  0.0909 -0.8522
 3977SOL    HW213939   5.903   7.154  10.853  1.2459  0.5853 -0.5192
 3978SOL     OW13940   7.124   7.097   2.524  0.4335  0.3885 -0.5739
 3978SOL    HW113941   7.118   7.161   2.594  1.4253 -0.8288  0.6598
 3978SOL    HW213942   7.107   7.013   2.566 -1.5690 -0.1532 -2.2880
 3979SOL     OW13943   6.779  10.448   6.658 -0.0848 -1.0438  0.6527
 3979SOL    HW113944   6.692  10.458   6.620 -0.2771  0.9032  1.4597
 3979SOL    HW213945   6.778  10.362   6.701 -1.2073 -1.5124 -0.2752
 3980SOL     OW13946   6.811   2.613  10.693  0.0727 -0.4111 -0.5727
 3980SOL    HW113947   6.903   2.598  10.672  1.5388  4.5605  1.0069
 3980SOL    HW213948   6.802   2.585  10.784  0.2460 -0.2051 -0.4924
 3981SOL     OW13949  10.096   9.055   5.292  0.5508  0.2426  0.8759
 3981SOL    HW113950  10.034   9.066   5.364 -0.0555  2.5522  0.1009
 3981SOL    HW213951  10.048   9.003   5.227  0.4648 -0.3796  1.4350
 3982SOL     OW13952   6.119   7.165   7.468  0.3219 -0.3427  0.2209
 3982SOL    HW113953   6.212   7.181   7.455  0.3534 -1.6300 -1.3064
 3982SOL    HW213954   6.089   7.124   7.387 -1.4399 -0.5594  0.9285
 3983SOL     OW13955   0.462   5.875   0.090  0.0860 -0.4700  0.6726
 3983SOL    HW113956   0.428   5.832   0.011  0.6213  0.6528 -0.2086
 3983SOL    HW213957   0.452   5.969   0.072  1.4132 -0.1646  1.4021
 3984SOL     OW13958   5.322  10.290   2.166  0.1078 -0.1847 -1.0931
 3984SOL    HW113959   5.269  10.216   2.194  0.6226 -0.4747 -0.8644
 3984SOL    HW213960   5.371  10.258   2.091 -1.5845  0.7196 -2.6681
 3985SOL     OW13961   5.129   4.721   8.547  0.0151 -0.5556  0.0572
 3985SOL    HW113962   5.066   4.688   8.483 -1.0657 -0.3802  1.0067
 3985SOL    HW213963   5.205   4.745   8.494 -0.6342 -0.9377 -1.0975
 3986SOL     OW13964   7.596   6.935   1.258  0.0248  0.5469  0.5735
 3986SOL    HW113965   7.604   7.028   1.279  1.3258  0.5531  0.1779
 3986SOL    HW213966   7.545   6.933   1.177 -0.5865  0.8588  0.9432
 3987SOL     OW13967  10.338   1.586   8.412 -0.8309  0.1365  0.2337
 3987SOL    HW113968  10.429   1.561   8.400 -0.1121  2.5645 -0.0082
 3987SOL    HW213969  10.320   1.648   8.341 -2.7820 -0.5053  0.0931
 3988SOL     OW13970   4.014  10.768   1.186  0.0290 -0.2787  0.5805
 3988SOL    HW113971   4.056  10.797   1.267  0.1008 -0.8531  0.7516
 3988SOL    HW213972   4.029  10.840   1.125 -0.1216  0.2088  1.1068
 3989SOL     OW13973   0.750   3.354   0.715  0.1983  0.4323  0.0708
 3989SOL    HW113974   0.730   3.349   0.808 -0.3649 -1.7673 -0.1042
 3989SOL    HW213975   0.825   3.296   0.704  0.1264  0.5045 -0.8704
 3990SOL     OW13976   1.974  10.538   1.772 -0.4300  0.4933 -0.3743
 3990SOL    HW113977   1.898  10.547   1.715  0.9296  0.0584 -2.3327
 3990SOL    HW213978   1.976  10.445   1.796 -0.9404  0.6563  0.3587
 3991SOL     OW13979   6.301   7.806   4.351  0.1045 -0.7392 -0.1119
 3991SOL    HW113980   6.320   7.714   4.332 -0.1321 -1.1345  1.4684
 3991SOL    HW213981   6.387   7.845   4.365  0.2331 -0.6081 -1.1537
 3992SOL     OW13982   2.133   6.725   6.079 -0.0667 -0.5631  0.4719
 3992SOL    HW113983   2.221   6.701   6.110  0.4470  1.1062  0.4176
 3992SOL    HW213984   2.143   6.814   6.046 -1.8895 -0.1790  0.8595
 3993SOL     OW13985   6.215  10.266   7.340  0.4802 -0.4636  0.4659
 3993SOL    HW113986   6.126  10.290   7.368  0.2319 -1.0112  0.1596
 3993SOL    HW213987   6.239  10.335   7.278  0.0795 -0.5702  0.1857
 3994SOL     OW13988   4.263   7.527   0.539  0.2517 -0.3197 -0.1819
 3994SOL    HW113989   4.311   7.476   0.474  0.9774 -0.6910  0.6334
 3994SOL    HW213990   4.262   7.473   0.617  1.6687  1.1648  0.9374
 3995SOL     OW13991   9.280   6.156   3.441 -0.5703  0.1148  0.5131
 3995SOL    HW113992   9.204   6.113   3.480  0.1345 -1.1492  0.5561
 3995SOL    HW213993   9.327   6.195   3.515 -3.1933  4.5114  0.1877
 3996SOL     OW13994  10.567   5.167   6.599 -0.2469 -0.0159  0.4963
 3996SOL    HW113995  10.511   5.124   6.534  1.1395 -2.4861  0.8085
 3996SOL    HW213996  10.656   5.157   6.565  0.2848  1.0771  1.4903
 3997SOL     OW13997   7.798   7.860   1.405 -0.7899 -0.0441 -0.2771
 3997SOL    HW113998   7.849   7.874   1.325 -2.9464 -0.7498 -1.8794
 3997SOL    HW213999   7.763   7.771   1.395 -0.8239 -0.2858  1.6558
 3998SOL     OW14000   1.249   1.715   2.276  0.0614  0.1860 -0.3345
 3998SOL    HW114001   1.232   1.786   2.214  0.3597  0.2330 -0.3617
 3998SOL    HW214002   1.281   1.643   2.223 -1.2218 -0.3341 -0.4478
 3999SOL     OW14003   2.572   1.854   9.918  0.5252 -0.2273 -0.2463
 3999SOL    HW114004   2.623   1.779   9.889  0.9020 -1.1771  2.6019
 3999SOL    HW214005   2.625   1.896   9.985 -1.0304  0.6862  0.4856
 4000SOL     OW14006   0.111   2.230   9.005 -0.6854 -0.4454  0.1330
 4000SOL    HW114007   0.081   2.316   9.035  0.8742  0.3591 -0.4921
 4000SOL    HW214008   0.046   2.202   8.941 -1.6334 -0.1175  0.9356
 4001SOL     OW14009   8.799   9.073   8.284  0.1455 -0.5756  0.5336
 4001SOL    HW114010   8.709   9.052   8.307 -0.3082 -0.5152 -1.0663
 4001SOL    HW214011   8.829   9.132   8.353 -0.8067 -1.1205  1.4320
 4002SOL     OW14012   6.904   9.491   1.343  0.0870 -0.3662 -0.4150
 4002SOL    HW114013   6.834   9.472   1.406 -0.3765  1.1687 -0.4220
 4002SOL    HW214014   6.983   9.494   1.396 -0.5365  2.8397  0.5541
 4003SOL     OW14015   2.107   3.536   4.372 -0.2779  0.3513  0.2172
 4003SOL    HW114016   2.163   3.460   4.357  0.2250  0.5863  0.8972
 4003SOL    HW214017   2.053   3.512   4.448  0.1781  0.8355  0.6986
 4004SOL     OW14018   1.156  10.326   0.286 -0.1921  0.3456 -0.1169
 4004SOL    HW114019   1.165  10.245   0.336 -0.9707  0.7962  0.7798
 4004SOL    HW214020   1.145  10.395   0.352  2.0937  1.4496 -0.7762
 4005SOL     OW14021   5.411   9.301   4.841 -0.0557 -0.4803  0.4095
 4005SOL    HW114022   5.459   9.315   4.923  0.3192 -0.9205  0.2717
 4005SOL    HW214023   5.332   9.254   4.866 -0.1436 -0.2529  0.5660
 4006SOL     OW14024   4.592   4.579   6.361  0.1438 -0.0741 -0.6033
 4006SOL    HW114025   4.662   4.622   6.311  0.7310 -1.0182 -0.6207
 4006SOL    HW214026   4.630   4.564   6.448 -0.3453  0.1857 -0.3373
 4007SOL     OW14027   5.292   7.140   4.029  0.1406 -0.0452 -0.2281
 4007SOL    HW114028   5.197   7.125   4.020  0.0523  1.7077 -4.1737
 4007SOL    HW214029   5.332   7.061   3.993  0.1897 -0.3501  0.4795
 4008SOL     OW14030   9.288   4.115   9.100  0.4572  0.2934 -0.0985
 4008SOL    HW114031   9.268   4.140   9.190  1.7485  0.0522  0.2673
 4008SOL    HW214032   9.250   4.185   9.046  2.4398  2.1616  0.8005
 4009SOL     OW14033  10.893   2.288  10.791  0.7740  0.4375 -0.2103
 4009SOL    HW114034  10.959   2.221  10.812 -1.0468 -1.1119  0.8517
 4009SOL    HW214035  10.812   2.239  10.780 -0.5441  2.4504  0.0643
 4010SOL     OW14036   9.061   5.380   9.233 -0.1842 -0.4436  0.3545
 4010SOL    HW114037   8.993   5.314   9.217  0.9338 -1.7404  0.7978
 4010SOL    HW214038   9.128   5.335   9.283  1.6533  0.4111 -1.1671
 4011SOL     OW14039   6.545   7.868   0.532 -0.1509  0.7654  0.1533
 4011SOL    HW114040   6.590   7.783   0.523 -1.0567  0.4002 -1.0730
 4011SOL    HW214041   6.559   7.892   0.624  1.4280  0.0389  0.1406
 4012SOL     OW14042   5.660  10.388   4.890 -0.1056  0.2020 -0.2663
 4012SOL    HW114043   5.685  10.380   4.798  0.6502 -1.4676  0.0566
 4012SOL    HW214044   5.622  10.476   4.897  0.4127  0.5986 -2.0240
 4013SOL     OW14045   1.289  10.606   1.298  0.5819 -0.3651  0.3368
 4013SOL    HW114046   1.366  10.553   1.319  0.6052 -0.6914 -0.5379
 4013SOL    HW214047   1.215  10.558   1.336  0.7846 -0.1191  1.0611
 4014SOL     OW14048   1.726   3.264   1.096  0.2250 -0.5139 -0.4969
 4014SOL    HW114049   1.663   3.220   1.154 -1.0761 -0.0257 -1.4898
 4014SOL    HW214050   1.784   3.194   1.067 -2.1670 -1.8063 -2.5308
 4015SOL     OW14051   3.703   0.758   2.996  0.3190  0.5955 -0.7685
 4015SOL    HW114052   3.697   0.721   2.908  0.5866  0.4272 -0.7170
 4015SOL    HW214053   3.632   0.823   3.000  1.2602  1.7196 -1.6344
 4016SOL     OW14054  10.264   0.821   5.130  0.1649  0.0382 -0.1822
 4016SOL    HW114055  10.191   0.776   5.086 -0.0895  0.5656 -0.3028
 4016SOL    HW214056  10.331   0.753   5.140 -0.1419 -0.3233 -0.5371
 4017SOL     OW14057   4.189   6.243   8.952 -0.3473  0.1955 -0.1245
 4017SOL    HW114058   4.279   6.263   8.928 -0.4802  0.4320 -0.4199
 4017SOL    HW214059   4.195   6.211   9.042  0.0528  0.0337 -0.2070
 4018SOL     OW14060   9.488   1.631   4.167 -0.0598 -0.0840  0.2373
 4018SOL    HW114061   9.541   1.604   4.242  1.5747  2.5508  0.1297
 4018SOL    HW214062   9.551   1.650   4.098 -1.4452 -0.7817 -1.3022
 4019SOL     OW14063   5.917   3.791   4.571 -0.2713  0.0667  0.5674
 4019SOL    HW114064   5.850   3.858   4.558 -0.7883 -0.6712 -0.7768
 4019SOL    HW214065   5.873   3.708   4.551 -0.0980 -0.9178  3.7062
 4020SOL     OW14066   8.730  10.349  10.072  0.1135 -0.1917  0.5866
 4020SOL    HW114067   8.823  10.338  10.092  0.2817 -1.1556 -0.6039
 4020SOL    HW214068   8.728  10.373   9.979 -0.8639 -1.0625  0.3632
 4021SOL     OW14069   3.569   6.245   4.836 -0.2376 -0.4504  0.6055
 4021SOL    HW114070   3.637   6.177   4.836 -1.3823 -1.6846  2.8017
 4021SOL    HW214071   3.579   6.289   4.920 -0.9304  0.6577  0.1309
 4022SOL     OW14072   9.120   8.513   5.117 -0.0166 -0.1644 -0.4334
 4022SOL    HW114073   9.102   8.420   5.133  3.1568 -0.8920 -0.3636
 4022SOL    HW214074   9.085   8.530   5.030  0.5542 -1.8452 -1.0268
 4023SOL     OW14075   6.598   7.235   6.561 -0.7866 -0.3908 -0.3499
 4023SOL    HW114076   6.670   7.251   6.621 -1.2065  0.0080  0.0582
 4023SOL    HW214077   6.555   7.157   6.595 -0.6042 -0.5755 -0.5405
 4024SOL     OW14078   8.208   5.823   7.529 -0.0309 -0.7203  0.6187
 4024SOL    HW114079   8.246   5.823   7.441 -2.1145 -0.7971 -0.3263
 4024SOL    HW214080   8.222   5.912   7.561  0.4640 -0.6039  0.0976
 4025SOL     OW14081   2.991   0.942   1.480  0.0784 -0.5342 -0.0864
 4025SOL    HW114082   3.081   0.952   1.510 -0.6646  0.2414  2.0853
 4025SOL    HW214083   2.978   1.016   1.419 -0.0273  1.4670  2.2073
 4026SOL     OW14084   1.033   6.240   3.900  0.2507  0.5096  0.0766
 4026SOL    HW114085   1.029   6.285   3.984 -0.5876  0.1721  0.2190
 4026SOL    HW214086   0.970   6.169   3.907 -0.7254  1.2026 -1.2570
 4027SOL     OW14087   0.818   4.802   5.349  0.0491  0.4003 -0.3733
 4027SOL    HW114088   0.783   4.713   5.357  0.4666  0.3219  0.8074
 4027SOL    HW214089   0.815   4.820   5.255 -0.5674 -0.6427 -0.5808
 4028SOL     OW14090   4.103   7.810   0.213 -0.2907 -0.1302  0.0268
 4028SOL    HW114091   4.141   7.898   0.204  1.6762 -0.7681  1.2974
 4028SOL    HW214092   4.133   7.780   0.299 -0.8450 -2.0772 -0.4124
 4029SOL     OW14093   3.179   2.183   7.402  0.1353  0.2557  0.2198
 4029SOL    HW114094   3.148   2.096   7.378 -2.0942  0.9613  0.2975
 4029SOL    HW214095   3.157   2.191   7.495  2.1288  0.2219  0.7491
 4030SOL     OW14096   2.392   7.125   5.319 -0.4217  0.1042 -0.3008
 4030SOL    HW114097   2.366   7.200   5.372 -1.1159  0.0376 -0.5391
 4030SOL    HW214098   2.439   7.068   5.380 -0.2639  0.5308 -0.0176
 4031SOL     OW14099  10.107   6.339   9.002  0.2838  0.4049  0.0608
 4031SOL    HW114100  10.078   6.284   9.074 -4.2477  0.8039 -1.1626
 4031SOL    HW214101  10.132   6.277   8.933  0.9365  0.0133  0.6341
 4032SOL     OW14102   5.302   8.087   3.979 -0.1507 -0.4956  0.0849
 4032SOL    HW114103   5.255   8.083   4.062 -1.7294  0.8680 -0.6900
 4032SOL    HW214104   5.270   8.012   3.930  1.0637 -1.5218  0.8064
 4033SOL     OW14105   9.327   6.316   7.762  0.4597 -0.1542 -0.0027
 4033SOL    HW114106   9.380   6.372   7.819  1.0597 -1.0282  0.3071
 4033SOL    HW214107   9.334   6.229   7.800  0.2601 -0.6163 -0.9861
 4034SOL     OW14108   7.540   7.498   6.585  0.7252 -0.2700 -0.2522
 4034SOL    HW114109   7.569   7.580   6.625  2.2622 -0.9453  0.1361
 4034SOL    HW214110   7.491   7.454   6.655  1.8913 -0.6655  0.3598
 4035SOL     OW14111   2.673   7.349   4.331 -0.3792 -0.0080 -0.0433
 4035SOL    HW114112   2.750   7.320   4.381  0.1417  1.4364  0.0208
 4035SOL    HW214113   2.659   7.278   4.267  2.1149  0.4646 -1.2568
 4036SOL     OW14114   2.427   6.932   7.947  0.1525 -0.6656 -0.1140
 4036SOL    HW114115   2.466   7.002   7.894 -1.0723  1.4647  1.6177
 4036SOL    HW214116   2.375   6.978   8.013 -0.8677 -3.2527  1.0299
 4037SOL     OW14117   4.582  10.223   9.598  0.2748 -0.7785 -0.2422
 4037SOL    HW114118   4.592  10.204   9.505  1.2717 -1.6254  0.0094
 4037SOL    HW214119   4.664  10.193   9.637  0.0092 -0.1255  0.8665
 4038SOL     OW14120   0.254   4.689   5.491 -0.2558 -0.8458 -0.7462
 4038SOL    HW114121   0.200   4.761   5.522 -0.7676 -1.0048 -1.2683
 4038SOL    HW214122   0.214   4.662   5.408  0.8134 -0.7439 -1.3118
 4039SOL     OW14123   1.048   5.194   9.458 -0.4490 -0.0484  0.1153
 4039SOL    HW114124   1.067   5.156   9.372 -0.2783 -0.8471  0.5022
 4039SOL    HW214125   0.989   5.267   9.439 -0.0325  0.0856 -0.7247
 4040SOL     OW14126   4.380   2.022   3.267  0.0651 -0.5552  0.1338
 4040SOL    HW114127   4.421   2.109   3.262 -1.4982  0.1876 -0.4754
 4040SOL    HW214128   4.315   2.031   3.336 -0.8349 -0.9077 -0.6504
 4041SOL     OW14129   7.030  10.081   5.505 -0.3826 -0.2039  0.2461
 4041SOL    HW114130   7.013   9.988   5.489 -0.8828 -0.3775  1.6328
 4041SOL    HW214131   6.980  10.126   5.437  0.3897 -0.9476 -0.8444
 4042SOL     OW14132   7.829   7.628   2.767 -0.4078  0.2058 -0.3775
 4042SOL    HW114133   7.924   7.618   2.772 -0.2661  0.3788 -2.2508
 4042SOL    HW214134   7.798   7.542   2.740 -1.1198 -0.6980  2.8168
 4043SOL     OW14135   4.835   9.220   4.759 -0.5344 -0.2909  0.4875
 4043SOL    HW114136   4.912   9.173   4.726  0.6247  0.6693  1.7400
 4043SOL    HW214137   4.812   9.174   4.839 -0.3174  0.3391  0.9177
 4044SOL     OW14138  10.214   2.831   6.381 -0.3438  0.2227  0.7178
 4044SOL    HW114139  10.144   2.870   6.434  0.9701  0.8803  2.0214
 4044SOL    HW214140  10.270   2.787   6.445 -1.4210 -3.4370 -0.6011
 4045SOL     OW14141   4.404   9.376   3.381 -0.7276 -0.2842  1.0518
 4045SOL    HW114142   4.409   9.373   3.477  3.1963  1.0100  1.0655
 4045SOL    HW214143   4.410   9.470   3.361  0.2993 -0.6523 -0.4576
 4046SOL     OW14144   5.777   1.567   6.757 -0.0159  0.3963  0.1272
 4046SOL    HW114145   5.804   1.647   6.802 -0.5256 -0.5462  2.2629
 4046SOL    HW214146   5.823   1.497   6.804  0.2187 -0.5951 -1.5170
 4047SOL     OW14147   9.401   0.389   7.875  0.3970 -0.4076  0.3979
 4047SOL    HW114148   9.305   0.394   7.877  0.3113 -1.6712  0.0904
 4047SOL    HW214149   9.429   0.441   7.950 -0.5120  0.1548  0.3670
 4048SOL     OW14150   6.981   8.134  10.433  0.1880  0.2956  0.6077
 4048SOL    HW114151   7.060   8.185  10.416  0.4757 -0.5439 -0.7420
 4048SOL    HW214152   6.969   8.138  10.528  0.0525  3.0482  0.5456
 4049SOL     OW14153   0.778  10.804   7.098  0.3709  0.2715  0.5730
 4049SOL    HW114154   0.839  10.802   7.024  0.4969  0.1505  0.6817
 4049SOL    HW214155   0.817  10.747   7.163 -1.2035 -2.0747 -0.3997
 4050SOL     OW14156   9.402   6.167   6.884  0.3836  0.0151  0.0352
 4050SOL    HW114157   9.460   6.225   6.933 -1.4611  1.3679  0.7373
 4050SOL    HW214158   9.319   6.169   6.932 -0.6471 -0.8290 -1.5955
 4051SOL     OW14159   7.359   0.927   9.711 -0.2592  0.1825 -0.2042
 4051SOL    HW114160   7.369   0.938   9.616 -0.9483 -1.2574 -0.4679
 4051SOL    HW214161   7.418   0.856   9.734 -1.5885 -0.8848  0.0706
 4052SOL     OW14162   9.497   9.210   8.807  0.1338 -0.4757 -0.3288
 4052SOL    HW114163   9.483   9.116   8.810 -0.4053 -0.3828  1.0021
 4052SOL    HW214164   9.430   9.243   8.748 -0.4779 -0.8166  0.1609
 4053SOL     OW14165   8.059   4.924   5.574 -0.4170 -0.3628 -0.1580
 4053SOL    HW114166   8.071   4.999   5.516  2.4407 -0.0932  0.6486
 4053SOL    HW214167   8.103   4.852   5.529 -1.5182 -1.1251 -0.0557
 4054SOL     OW14168   1.410   1.959  10.800  0.5514 -0.8143 -0.0186
 4054SOL    HW114169   1.479   2.011  10.841 -1.1545  0.5514  1.3099
 4054SOL    HW214170   1.351   1.937  10.872  0.6139 -3.7461 -0.7371
 4055SOL     OW14171   7.917   4.099   5.316 -0.0019  0.2217 -0.3146
 4055SOL    HW114172   7.998   4.087   5.365 -0.1275  0.2255 -0.1066
 4055SOL    HW214173   7.945   4.137   5.232  0.1753  0.5907 -0.0910
 4056SOL     OW14174  10.390   1.013   1.368 -0.7567 -0.4372 -0.2161
 4056SOL    HW114175  10.346   1.091   1.402  1.4583  0.8414 -0.1322
 4056SOL    HW214176  10.385   1.022   1.273  2.5731  1.8369 -0.3520
 4057SOL     OW14177   9.275   5.207   8.971 -0.5277  0.0702 -0.3395
 4057SOL    HW114178   9.294   5.118   8.941 -0.5187  0.1534 -0.5828
 4057SOL    HW214179   9.266   5.199   9.066 -0.2096 -0.1341 -0.3241
 4058SOL     OW14180   8.249   7.122   4.150 -0.6390 -0.5554  0.6055
 4058SOL    HW114181   8.176   7.183   4.142 -0.5312 -0.6466 -2.1850
 4058SOL    HW214182   8.207   7.037   4.166 -0.9496 -0.2175  1.6578
 4059SOL     OW14183   5.523   3.445   5.984  0.0871 -0.6972  0.3771
 4059SOL    HW114184   5.506   3.378   5.918  1.2304 -0.2606 -0.4105
 4059SOL    HW214185   5.605   3.418   6.026  1.5463  1.0051 -1.1510
 4060SOL     OW14186   4.536   0.794   9.916  0.0158  0.6295  0.8047
 4060SOL    HW114187   4.620   0.834   9.896  0.3837  0.6674  2.2707
 4060SOL    HW214188   4.541   0.706   9.878 -0.0264  1.2556 -0.7122
 4061SOL     OW14189   9.473   7.685   3.044  0.3332 -0.3165 -0.2172
 4061SOL    HW114190   9.386   7.725   3.046  1.0074  1.2030  1.5171
 4061SOL    HW214191   9.475   7.636   2.962 -2.5239 -1.2818  0.1734
 4062SOL     OW14192   8.962   8.371   6.397  0.0643  0.6618  0.1600
 4062SOL    HW114193   8.932   8.378   6.306  0.3712 -0.8411 -0.0817
 4062SOL    HW214194   8.903   8.427   6.446 -1.1319  0.2437 -0.7543
 4063SOL     OW14195   9.380   5.782   5.441 -0.5561 -0.9823 -0.0387
 4063SOL    HW114196   9.344   5.744   5.521  1.2260 -1.6428  0.5014
 4063SOL    HW214197   9.339   5.732   5.370 -1.1706 -1.2638  0.5037
 4064SOL     OW14198   5.682   2.146   4.428  0.0677  0.4310 -0.1740
 4064SOL    HW114199   5.607   2.108   4.474 -0.6213  1.6007 -0.2773
 4064SOL    HW214200   5.645   2.181   4.346  1.2392 -1.4737 -1.6022
 4065SOL     OW14201   3.877   3.800   5.331 -0.4544 -0.3908  0.1930
 4065SOL    HW114202   3.889   3.869   5.396  0.0173 -1.0081  0.7726
 4065SOL    HW214203   3.804   3.830   5.277  0.3151  0.9864 -0.1237
 4066SOL     OW14204   6.964  10.966  10.203  0.5484 -0.3843 -0.3853
 4066SOL    HW114205   6.991  11.057  10.215 -0.3372 -0.1584 -0.0344
 4066SOL    HW214206   7.013  10.917  10.269  1.8120 -0.3300 -1.2496
 4067SOL     OW14207   1.281   8.444   8.802  0.0812 -0.6412  0.1316
 4067SOL    HW114208   1.328   8.430   8.885  2.5063 -0.2255 -1.0906
 4067SOL    HW214209   1.314   8.528   8.770  2.4670 -2.6105 -3.2036
 4068SOL     OW14210   4.438   4.397   7.303  0.6158 -0.4429  0.2007
 4068SOL    HW114211   4.504   4.435   7.245 -0.4017  0.5155 -0.3549
 4068SOL    HW214212   4.392   4.472   7.340  1.0898 -1.0339  2.1022
 4069SOL     OW14213   2.759   2.483  10.109  0.0111  0.3403  0.1499
 4069SOL    HW114214   2.761   2.437  10.193 -0.3287  0.3730  0.1749
 4069SOL    HW214215   2.747   2.575  10.133  0.0824  0.3707  0.0712
 4070SOL     OW14216  10.095  10.904   0.835  0.1545 -0.2346  0.1878
 4070SOL    HW114217  10.115  10.998   0.839 -0.5170 -0.0144 -1.0925
 4070SOL    HW214218  10.160  10.869   0.775 -1.2434 -0.0717 -1.5072
 4071SOL     OW14219   6.932  10.121  10.123 -0.0853  0.4813 -0.3671
 4071SOL    HW114220   6.965  10.094  10.209  1.1991  0.1501 -0.9428
 4071SOL    HW214221   6.867  10.189  10.142  0.2497  0.4778  0.8562
 4072SOL     OW14222   5.402   6.481   7.336  0.0894 -0.0571  0.2811
 4072SOL    HW114223   5.357   6.502   7.254 -0.7514 -0.7072  0.5634
 4072SOL    HW214224   5.474   6.544   7.340 -1.4964  1.8582  0.3989
 4073SOL     OW14225   8.775   2.671   7.513  0.5493  0.3121  0.7911
 4073SOL    HW114226   8.728   2.648   7.432 -0.2162  1.6213  0.8422
 4073SOL    HW214227   8.778   2.767   7.513 -1.2498  0.4761  3.2719
 4074SOL     OW14228   9.533   0.738   7.108 -0.1965  0.2518 -0.2387
 4074SOL    HW114229   9.577   0.668   7.155  1.9752  0.6808 -1.4663
 4074SOL    HW214230   9.466   0.770   7.168  0.7520 -0.9009  1.5039
 4075SOL     OW14231   9.054   9.286   8.842 -0.0876  0.2603  0.0206
 4075SOL    HW114232   8.981   9.287   8.904 -1.3511 -0.3688 -1.3753
 4075SOL    HW214233   9.027   9.347   8.773 -0.0182 -1.1028 -1.2548
 4076SOL     OW14234   9.038   8.728   1.546  0.2776 -0.4956 -0.0604
 4076SOL    HW114235   8.989   8.810   1.537 -2.1108 -1.8200 -0.1325
 4076SOL    HW214236   9.053   8.719   1.640  0.1081 -0.2129 -0.0053
 4077SOL     OW14237   3.800   2.894   9.027  0.3450 -0.1126 -0.1861
 4077SOL    HW114238   3.761   2.874   9.112 -1.0217  0.3358 -0.6836
 4077SOL    HW214239   3.895   2.887   9.041  0.1462  0.1732  1.4150
 4078SOL     OW14240   2.514   0.843   0.543 -0.3643 -0.1853  0.5523
 4078SOL    HW114241   2.608   0.826   0.553 -0.5405 -0.1812  3.0214
 4078SOL    HW214242   2.503   0.932   0.577 -1.2402 -0.0902  0.0444
 4079SOL     OW14243   2.555  10.404  10.239  0.0598  0.0627 -0.0883
 4079SOL    HW114244   2.525  10.314  10.250  2.0680 -0.9016 -1.8260
 4079SOL    HW214245   2.620  10.417  10.308  0.7875 -0.3311 -0.6876
 4080SOL     OW14246   6.883   2.260   8.181 -0.0885  0.2026 -0.4472
 4080SOL    HW114247   6.911   2.224   8.097  1.1041 -1.4073  0.5833
 4080SOL    HW214248   6.961   2.304   8.215 -0.7152  1.3186 -0.3839
 4081SOL     OW14249   5.875   5.780   2.794 -0.5176  0.2843 -0.1691
 4081SOL    HW114250   5.832   5.733   2.865 -1.6536  0.3182 -0.8038
 4081SOL    HW214251   5.859   5.726   2.716  0.0165  0.6434 -0.5359
 4082SOL     OW14252   2.338  10.287   6.753 -0.4063  0.3588  0.4921
 4082SOL    HW114253   2.341  10.273   6.847  1.4743  0.8895  0.5434
 4082SOL    HW214254   2.415  10.241   6.719 -1.2415 -0.1122 -0.8352
 4083SOL     OW14255   2.921   3.082   0.652  0.0324 -0.3181  0.3433
 4083SOL    HW114256   2.831   3.058   0.630 -0.9278  1.7237  1.7183
 4083SOL    HW214257   2.947   3.146   0.586 -0.0949  0.2186  0.8062
 4084SOL     OW14258   4.105   6.220   7.021  0.1030  0.5535 -0.0653
 4084SOL    HW114259   4.138   6.306   7.048 -1.0985  0.7479  0.8839
 4084SOL    HW214260   4.072   6.181   7.102  0.2835 -0.6564 -0.5549
 4085SOL     OW14261   4.505   2.274   5.348 -0.2274 -0.0276 -0.1057
 4085SOL    HW114262   4.582   2.278   5.404  0.8388  1.1158 -1.5684
 4085SOL    HW214263   4.536   2.233   5.267 -0.8970  1.2833 -1.0636
 4086SOL     OW14264   2.082   7.836   4.839 -0.2735 -0.6714 -0.0254
 4086SOL    HW114265   2.071   7.873   4.751  0.5715  1.5549  0.7396
 4086SOL    HW214266   2.077   7.911   4.898 -1.7603 -2.2225  1.9699
 4087SOL     OW14267   0.231   6.668   4.321 -0.3631  0.2445 -0.3342
 4087SOL    HW114268   0.315   6.710   4.303  1.1980 -2.6983 -0.5533
 4087SOL    HW214269   0.190   6.658   4.236  0.5080 -0.9922 -0.6370
 4088SOL     OW14270   9.328   7.540   1.169  0.2929 -0.4965 -0.0778
 4088SOL    HW114271   9.278   7.556   1.249  0.1947 -1.8265  0.1582
 4088SOL    HW214272   9.384   7.617   1.159 -1.6384  0.9402 -0.2380
 4089SOL     OW14273   0.160   4.014   9.079 -0.5399  0.4193  0.7735
 4089SOL    HW114274   0.190   4.011   9.169  0.7134  0.4899  0.3786
 4089SOL    HW214275   0.173   4.105   9.051  1.1283 -0.0514 -0.1130
 4090SOL     OW14276  10.435   8.640   0.478 -0.1113 -0.0447 -0.1611
 4090SOL    HW114277  10.428   8.732   0.503 -2.4536 -0.0450 -0.6619
 4090SOL    HW214278  10.454   8.641   0.384  0.7592 -0.0991  0.0017
 4091SOL     OW14279   0.002   3.417   5.746  0.4742 -0.1597  0.1409
 4091SOL    HW114280   0.050   3.486   5.700 -0.0382  0.4018  0.4203
 4091SOL    HW214281   0.051   3.404   5.828 -0.6269  1.4903  1.1372
 4092SOL     OW14282   9.635   1.531   0.733  0.1889 -0.5537  0.3605
 4092SOL    HW114283   9.564   1.566   0.787  0.5993 -0.2405  0.7064
 4092SOL    HW214284   9.592   1.501   0.653 -0.4812 -1.3249  0.9886
 4093SOL     OW14285   2.281   0.523  10.696  0.7416 -0.6940 -0.0396
 4093SOL    HW114286   2.363   0.475  10.689  1.1380  0.1082 -1.2784
 4093SOL    HW214287   2.230   0.474  10.761  0.9845 -3.0125 -1.4611
 4094SOL     OW14288   6.089   4.864   7.029  0.8158  0.0077 -0.2014
 4094SOL    HW114289   6.030   4.804   7.075  0.2311 -0.3201 -1.3598
 4094SOL    HW214290   6.060   4.951   7.058  0.6980 -0.1988  0.3312
 4095SOL     OW14291   5.652   4.389   2.325 -0.2401  0.2778  0.2105
 4095SOL    HW114292   5.715   4.380   2.253  0.4179  0.8445  0.6984
 4095SOL    HW214293   5.672   4.317   2.384 -0.5598  0.0061 -0.0151
 4096SOL     OW14294   9.679   8.749   1.945  0.2708  0.2211 -0.1618
 4096SOL    HW114295   9.674   8.838   1.912  0.7227  1.4444  2.7749
 4096SOL    HW214296   9.754   8.710   1.899 -0.0789  1.2127 -1.6474
 4097SOL     OW14297   0.389   7.842  10.549 -0.7594  0.5167 -0.1039
 4097SOL    HW114298   0.424   7.854  10.637 -0.6795  0.8432 -0.1798
 4097SOL    HW214299   0.357   7.929  10.524 -0.9816  0.3778 -0.3107
 4098SOL     OW14300   5.767   9.567  10.473 -0.0469  0.0187  0.1089
 4098SOL    HW114301   5.786   9.632  10.405  0.3147  1.3421  1.4342
 4098SOL    HW214302   5.671   9.567  10.480 -0.3479 -2.2052 -2.3014
 4099SOL     OW14303  10.314   6.155   7.742  0.1288 -0.1030 -0.4422
 4099SOL    HW114304  10.397   6.168   7.696  1.3651 -0.4518  1.5761
 4099SOL    HW214305  10.259   6.228   7.712  2.6332  2.7317  1.2822
 4100SOL     OW14306   8.788   8.428   5.080  0.3452 -0.3302 -0.1065
 4100SOL    HW114307   8.859   8.476   5.037  0.1678  1.2487  1.2408
 4100SOL    HW214308   8.708   8.467   5.045  0.1902 -0.1705  0.4145
 4101SOL     OW14309   1.196   2.334   6.664 -0.1639 -0.1303 -0.1704
 4101SOL    HW114310   1.127   2.387   6.623  0.6122  0.1634 -1.1197
 4101SOL    HW214311   1.155   2.249   6.680 -1.6731  0.9009  2.0361
 4102SOL     OW14312   7.990   1.077   3.110  0.0288 -0.4947  0.2877
 4102SOL    HW114313   7.904   1.097   3.074 -0.1902 -0.4472  0.8351
 4102SOL    HW214314   8.040   1.043   3.035 -0.9622 -2.0792  0.2900
 4103SOL     OW14315   7.971  10.451   1.082 -0.2166 -0.0993 -0.4836
 4103SOL    HW114316   7.984  10.513   1.153 -0.6667  0.1293 -0.5977
 4103SOL    HW214317   7.947  10.369   1.125 -0.9993  0.1732 -0.3910
 4104SOL     OW14318  10.757   1.928   2.771 -0.0702  0.1805 -0.1115
 4104SOL    HW114319  10.806   1.892   2.697 -1.3432  1.7942 -1.8515
 4104SOL    HW214320  10.677   1.876   2.774 -0.1071  0.2437 -0.0095
 4105SOL     OW14321  10.438   4.708   7.314  0.2486  0.0793 -0.3509
 4105SOL    HW114322  10.457   4.802   7.326 -0.6275  0.0944  1.1405
 4105SOL    HW214323  10.474   4.666   7.392 -1.2172 -0.5424  0.0183
 4106SOL     OW14324   9.275   7.511   3.634  0.4954 -0.2438  0.6946
 4106SOL    HW114325   9.216   7.579   3.667  0.8337  0.1409  0.5249
 4106SOL    HW214326   9.251   7.501   3.542 -0.6405 -1.5231  1.0982
 4107SOL     OW14327   3.450   4.829   1.785 -0.1045  0.1508  0.1474
 4107SOL    HW114328   3.470   4.918   1.815  0.9373 -0.5004  1.4647
 4107SOL    HW214329   3.527   4.803   1.734  0.1202 -0.4209  0.7648
 4108SOL     OW14330   0.541   9.539   6.457  0.1957  0.1090  0.6909
 4108SOL    HW114331   0.623   9.522   6.504  0.2911  0.0553  0.5054
 4108SOL    HW214332   0.511   9.452   6.430 -0.0690  0.1015  1.0047
 4109SOL     OW14333   2.966   2.411   1.231 -0.2731  0.2031 -0.4032
 4109SOL    HW114334   2.910   2.363   1.171 -1.4252  1.4502 -0.3747
 4109SOL    HW214335   2.988   2.491   1.184  1.3802 -0.1833 -0.3513
 4110SOL     OW14336   4.844   9.028   9.984 -0.3269 -0.4912 -0.0409
 4110SOL    HW114337   4.761   8.989   9.958 -1.1654  0.5414  0.9459
 4110SOL    HW214338   4.893   8.957  10.026  0.0676 -1.5535 -2.1668
 4111SOL     OW14339   1.525   0.096  10.319 -0.2622  0.1396  0.0132
 4111SOL    HW114340   1.505   0.040  10.394 -0.2603  0.2976  0.1316
 4111SOL    HW214341   1.590   0.158  10.352 -2.4191  2.1358  0.7277
 4112SOL     OW14342   1.577   9.440   0.058  0.0192  0.3647 -0.2234
 4112SOL    HW114343   1.525   9.520   0.058  0.6862  0.8292  1.1171
 4112SOL    HW214344   1.523   9.377   0.010 -1.4872  1.0010  0.5592
 4113SOL     OW14345   8.676   2.506   8.091  0.7214 -0.4585  0.1633
 4113SOL    HW114346   8.757   2.545   8.058  0.1432 -0.3802 -1.2196
 4113SOL    HW214347   8.606   2.563   8.058  0.0423 -1.0076  0.6081
 4114SOL     OW14348   8.166   7.422   0.497  0.1259 -0.2512  0.3260
 4114SOL    HW114349   8.102   7.457   0.559 -0.3984  1.4734 -1.0781
 4114SOL    HW214350   8.116   7.360   0.443 -0.0583  0.1056  0.0771
 4115SOL     OW14351   4.584   7.546   3.539 -0.3377 -0.2117 -0.0134
 4115SOL    HW114352   4.566   7.565   3.447  1.6760  0.7182 -0.2709
 4115SOL    HW214353   4.660   7.488   3.537  0.5071  0.8084  1.0600
 4116SOL     OW14354   9.311   1.897   5.838  0.2652 -0.0708 -0.4467
 4116SOL    HW114355   9.335   1.812   5.877  0.4391  0.0421 -0.3084
 4116SOL    HW214356   9.299   1.878   5.745 -0.7734 -0.4768 -0.2482
 4117SOL     OW14357   6.045   9.749   8.271 -0.7010 -0.2466  0.1072
 4117SOL    HW114358   6.048   9.657   8.245  2.4823 -0.2141 -0.0367
 4117SOL    HW214359   6.016   9.795   8.193 -0.4863 -0.9759 -0.4189
 4118SOL     OW14360   7.569   4.301   5.006  0.3673  0.4593  0.2066
 4118SOL    HW114361   7.585   4.207   5.016 -0.9759  0.2695  0.9352
 4118SOL    HW214362   7.549   4.313   4.914 -1.2643 -0.3134  0.4279
 4119SOL     OW14363   6.714   7.840   6.944 -0.2512  0.2708 -0.6462
 4119SOL    HW114364   6.626   7.874   6.927  0.5730  2.4656 -0.8551
 4119SOL    HW214365   6.723   7.844   7.039 -0.7447 -1.0302 -0.5250
 4120SOL     OW14366   3.221   2.605   4.219  1.2248 -0.0742  0.0012
 4120SOL    HW114367   3.224   2.678   4.157 -0.4386 -1.5498 -1.9563
 4120SOL    HW214368   3.148   2.627   4.278  2.2890  0.9422  0.9894
 4121SOL     OW14369   4.427   7.899   3.211 -0.3215 -0.2071  0.6809
 4121SOL    HW114370   4.515   7.919   3.181 -0.4181 -1.9432 -0.9445
 4121SOL    HW214371   4.439   7.869   3.301  0.4229  1.7533  1.2785
 4122SOL     OW14372   5.856  10.389   9.357 -0.5333 -0.4878  0.2347
 4122SOL    HW114373   5.785  10.343   9.313  0.8988 -0.1371 -2.7126
 4122SOL    HW214374   5.894  10.445   9.289  2.4849 -0.5780  1.6743
 4123SOL     OW14375   5.233   9.525   4.723 -0.6203  0.0762  0.5282
 4123SOL    HW114376   5.236   9.462   4.795  0.0154  0.7441  1.1072
 4123SOL    HW214377   5.145   9.562   4.726 -0.4527  0.4319  1.2669
 4124SOL     OW14378   4.286   0.432   5.345  0.9440  0.3748 -0.2698
 4124SOL    HW114379   4.358   0.482   5.385  1.4623  0.7043 -1.5626
 4124SOL    HW214380   4.320   0.405   5.260 -0.1950 -0.1505 -0.5745
 4125SOL     OW14381   8.959  10.308   0.562  0.5841  0.1816 -0.2813
 4125SOL    HW114382   8.965  10.217   0.590 -1.3370  0.7771  2.5479
 4125SOL    HW214383   8.892  10.308   0.494  0.6960 -0.5244 -0.4015
 4126SOL     OW14384   5.994   1.643   1.746  0.0932 -0.0111 -0.0128
 4126SOL    HW114385   5.941   1.711   1.789 -2.5937  0.4213 -3.5624
 4126SOL    HW214386   5.956   1.561   1.776 -1.1789  0.2667 -0.7584
 4127SOL     OW14387   2.712   5.122   0.567 -0.1262 -0.2846 -0.0368
 4127SOL    HW114388   2.769   5.075   0.505  0.9254  0.2412  0.5159
 4127SOL    HW214389   2.728   5.214   0.549  1.7933 -0.0606  2.3869
 4128SOL     OW14390   0.325   2.464   8.380  0.5532  0.2777  0.0643
 4128SOL    HW114391   0.410   2.420   8.383 -0.3963 -1.7198 -0.5614
 4128SOL    HW214392   0.305   2.469   8.287 -0.2507  0.2211  0.2315
 4129SOL     OW14393   6.257   3.764  10.130 -0.2255 -0.3574  0.1387
 4129SOL    HW114394   6.169   3.727  10.115 -0.8727  1.5154 -1.0568
 4129SOL    HW214395   6.245   3.858  10.119  1.6467  0.0906  1.6073
 4130SOL     OW14396   3.474   2.635   7.912 -0.5274  0.8677  0.0650
 4130SOL    HW114397   3.422   2.705   7.874 -0.0981  1.1950  0.0718
 4130SOL    HW214398   3.527   2.602   7.840 -2.1961 -0.8687 -0.4664
 4131SOL     OW14399   4.751  10.387   3.979  0.5144 -0.0832 -0.2376
 4131SOL    HW114400   4.724  10.475   4.006  3.1611  0.8843 -0.4819
 4131SOL    HW214401   4.718  10.378   3.890 -0.4964  0.2992  0.0864
 4132SOL     OW14402   6.234   3.159   2.024  0.0036  0.4345 -0.0848
 4132SOL    HW114403   6.171   3.153   2.096  0.4318 -1.3666  0.1917
 4132SOL    HW214404   6.239   3.070   1.989  0.6373  1.0445 -1.6359
 4133SOL     OW14405   1.271   9.321   0.526 -0.1857 -0.1092 -0.0942
 4133SOL    HW114406   1.266   9.240   0.476  0.3450 -0.4267  0.3525
 4133SOL    HW214407   1.340   9.371   0.482 -1.6607  0.8687 -1.4268
 4134SOL     OW14408   1.767   7.368   4.904 -0.3156  0.0121  0.1363
 4134SOL    HW114409   1.794   7.380   4.813 -0.5713 -1.5802 -0.1810
 4134SOL    HW214410   1.758   7.457   4.938  0.3234  0.6305 -1.2257
 4135SOL     OW14411   3.688   4.895   6.395 -0.6181  0.2293 -0.3997
 4135SOL    HW114412   3.737   4.896   6.313  0.2860  2.1923  0.1040
 4135SOL    HW214413   3.634   4.974   6.391  0.1406  0.8711  1.2666
 4136SOL     OW14414   9.853   6.778   5.459 -0.7662 -0.2819 -0.4581
 4136SOL    HW114415   9.870   6.699   5.511  0.8213  0.3648  0.0696
 4136SOL    HW214416   9.862   6.849   5.522 -1.3328  0.3730 -1.1118
 4137SOL     OW14417  10.117   0.246   4.380 -0.2070 -0.0805  0.0233
 4137SOL    HW114418  10.125   0.164   4.332 -1.3612 -0.6187  0.7206
 4137SOL    HW214419  10.026   0.248   4.409 -0.2353  1.5115 -0.0920
 4138SOL     OW14420   4.217   0.132   7.823  0.0299 -0.5111 -0.0612
 4138SOL    HW114421   4.257   0.216   7.844 -1.0966  0.3388 -1.1052
 4138SOL    HW214422   4.243   0.074   7.894  1.7673  0.4062  0.0952
 4139SOL     OW14423   9.029   2.371   6.128 -0.3226  0.0169 -0.3892
 4139SOL    HW114424   9.082   2.449   6.111 -0.5183  0.0225 -1.0024
 4139SOL    HW214425   9.093   2.304   6.152 -0.2537  0.7279  1.6459
 4140SOL     OW14426   9.523   0.149   8.163  0.3868 -0.4562 -0.3295
 4140SOL    HW114427   9.585   0.203   8.114  0.6612 -0.1504  0.3469
 4140SOL    HW214428   9.578   0.088   8.212  0.1818 -0.0793  0.3964
 4141SOL     OW14429   9.448   2.087   9.526 -0.0221  0.5704 -0.8711
 4141SOL    HW114430   9.375   2.052   9.475  0.8593 -0.4189 -1.5008
 4141SOL    HW214431   9.407   2.137   9.596 -1.4281 -1.9879  0.2650
 4142SOL     OW14432   8.407   2.562   8.915  0.3690 -0.5369  0.1346
 4142SOL    HW114433   8.444   2.619   8.982 -0.6718  3.2747 -2.1925
 4142SOL    HW214434   8.316   2.549   8.941  0.3661 -0.3342  0.2244
 4143SOL     OW14435  10.385  10.417   8.324  0.0406 -0.1981 -0.0292
 4143SOL    HW114436  10.290  10.408   8.325  0.0460 -0.2472  0.1512
 4143SOL    HW214437  10.409  10.432   8.415  0.1992 -0.1182 -0.0830
 4144SOL     OW14438   4.134   5.585   6.902  0.6285 -0.5367 -0.1418
 4144SOL    HW114439   4.198   5.552   6.966 -2.0890 -1.7250  2.1616
 4144SOL    HW214440   4.064   5.622   6.955 -0.2725  1.5272 -2.5785
 4145SOL     OW14441   6.816   2.679   7.670  0.2773  0.2859  0.4541
 4145SOL    HW114442   6.891   2.708   7.722 -0.7377  1.1766  1.4677
 4145SOL    HW214443   6.798   2.590   7.701  1.1498 -0.1074 -0.1040
 4146SOL     OW14444   2.384   8.912   4.997 -0.3437 -0.5560  0.4195
 4146SOL    HW114445   2.409   8.820   4.987 -0.7995 -0.6051 -0.3314
 4146SOL    HW214446   2.289   8.912   4.986 -0.3432  0.0040  0.4227
 4147SOL     OW14447   2.971   1.104   0.745 -0.5791  0.1777 -0.2867
 4147SOL    HW114448   3.021   1.032   0.707 -1.4635  0.4091 -1.9861
 4147SOL    HW214449   2.995   1.181   0.693  0.3464  1.1604  1.4871
 4148SOL     OW14450   3.097   6.537   6.587  0.0325 -0.0261  0.5230
 4148SOL    HW114451   3.068   6.594   6.658  0.2860 -0.3522  0.8882
 4148SOL    HW214452   3.184   6.507   6.614 -0.3602 -1.1036  0.6389
 4149SOL     OW14453   8.577   9.801   8.576  0.4935 -0.2027  0.5101
 4149SOL    HW114454   8.485   9.787   8.555 -0.1754  0.6279  2.5637
 4149SOL    HW214455   8.579   9.889   8.615  2.2564 -0.0013  0.0503
 4150SOL     OW14456   9.453   8.623   4.397 -0.2509 -0.1227  0.2772
 4150SOL    HW114457   9.490   8.549   4.348 -2.4646 -1.1239 -0.0492
 4150SOL    HW214458   9.401   8.581   4.466 -0.9744  1.1485  0.5319
 4151SOL     OW14459   6.067   3.395   3.221 -0.0465  0.2428  0.0645
 4151SOL    HW114460   6.030   3.307   3.220 -0.1676  0.2895  0.3296
 4151SOL    HW214461   6.136   3.391   3.287 -0.1888  0.4008  0.2249
 4152SOL     OW14462   6.477   4.272   6.907  0.2407 -0.4143 -0.4488
 4152SOL    HW114463   6.510   4.350   6.951  0.0891 -0.8891  0.5398
 4152SOL    HW214464   6.386   4.293   6.887 -0.1937 -0.7856  0.9915
 4153SOL     OW14465  10.893   4.624   5.620 -0.5683  0.3328 -0.7047
 4153SOL    HW114466  10.894   4.680   5.542 -1.0943 -0.3041 -1.1726
 4153SOL    HW214467  10.888   4.686   5.693 -3.0178  0.8853 -1.2676
 4154SOL     OW14468  10.242   1.140   0.257 -0.0955 -0.4792 -0.0376
 4154SOL    HW114469  10.332   1.173   0.263 -0.4151  0.1856  2.2672
 4154SOL    HW214470  10.238   1.096   0.173  2.3776 -0.4733 -0.2316
 4155SOL     OW14471   1.229   3.757  10.459 -0.1602  0.3751 -0.2288
 4155SOL    HW114472   1.322   3.737  10.463 -0.0439  0.9081 -0.2369
 4155SOL    HW214473   1.188   3.674  10.434  0.1005 -0.4024  1.7333
 4156SOL     OW14474   1.167   2.981   9.569 -0.7040 -0.0871 -0.1450
 4156SOL    HW114475   1.207   3.067   9.562  0.1209 -0.5114 -0.8355
 4156SOL    HW214476   1.198   2.933   9.492 -2.7033 -0.3862 -0.8087
 4157SOL     OW14477   3.109   8.631   2.741 -0.0433 -0.2488  0.4951
 4157SOL    HW114478   3.056   8.554   2.720  0.0896 -0.2843  0.2890
 4157SOL    HW214479   3.135   8.666   2.656 -0.8924  0.5810  0.5550
 4158SOL     OW14480   0.046   2.473   8.414  0.0150 -0.8284  0.1013
 4158SOL    HW114481   0.131   2.446   8.450 -0.0028  0.7811  1.4748
 4158SOL    HW214482   0.005   2.391   8.388  1.3703 -1.7961  0.8248
 4159SOL     OW14483   0.913   2.954   4.711  0.0259 -0.1011 -0.2831
 4159SOL    HW114484   0.846   2.911   4.764  0.2748  1.4756  1.3929
 4159SOL    HW214485   0.994   2.939   4.758  0.2598  1.2836 -0.1968
 4160SOL     OW14486   6.689   1.810   3.298 -0.2958  0.5852 -0.6460
 4160SOL    HW114487   6.655   1.787   3.384 -0.4316  1.9465 -0.3203
 4160SOL    HW214488   6.721   1.727   3.262 -0.6599 -0.0778  0.5177
 4161SOL     OW14489   5.872   2.369   7.293 -0.2233 -0.2347  0.1855
 4161SOL    HW114490   5.838   2.388   7.380  0.1367 -0.1956  0.3191
 4161SOL    HW214491   5.957   2.328   7.309  0.8383  1.6846 -0.1625
 4162SOL     OW14492   8.974   3.220   4.038  0.0440  0.1263 -0.5238
 4162SOL    HW114493   9.031   3.200   4.113 -1.7706 -0.1822  0.8489
 4162SOL    HW214494   8.979   3.142   3.982  2.0823  0.6974 -1.2221
 4163SOL     OW14495   6.535   8.383   3.459 -0.2881 -0.0336 -0.2729
 4163SOL    HW114496   6.576   8.406   3.543 -0.8628  2.4929 -0.6046
 4163SOL    HW214497   6.557   8.455   3.401 -0.2674 -1.5306 -2.2180
 4164SOL     OW14498   2.464   1.294   6.412 -0.2282 -0.3514 -0.0264
 4164SOL    HW114499   2.447   1.285   6.318 -0.9094  1.2929 -0.0927
 4164SOL    HW214500   2.466   1.389   6.427 -2.4992 -0.5445  2.0297
 4165SOL     OW14501   6.099   4.998   1.529  0.0522 -0.3208  0.0907
 4165SOL    HW114502   6.020   4.984   1.580  0.0171 -0.6236 -0.0484
 4165SOL    HW214503   6.167   5.016   1.594  0.0846 -1.0483  0.2658
 4166SOL     OW14504   6.244  10.397   3.618 -0.1554  0.3286  0.4517
 4166SOL    HW114505   6.334  10.388   3.651  0.1139  0.2345 -0.2783
 4166SOL    HW214506   6.224  10.310   3.583 -0.3920  0.4564  0.2750
 4167SOL     OW14507   1.360   3.646   6.920  0.0551  0.5412 -0.1142
 4167SOL    HW114508   1.299   3.574   6.936  0.6833 -0.1194 -0.5951
 4167SOL    HW214509   1.403   3.623   6.838  0.9384  1.0025  0.2074
 4168SOL     OW14510   9.300   8.151   5.546  0.1527  0.0427  0.7066
 4168SOL    HW114511   9.322   8.123   5.635  0.1740 -0.0214  0.6804
 4168SOL    HW214512   9.371   8.210   5.521 -0.0420  0.3569  0.8744
 4169SOL     OW14513   6.830   4.202   6.775 -0.3644  0.3127 -0.2044
 4169SOL    HW114514   6.838   4.251   6.856 -1.7409  0.7673 -0.3140
 4169SOL    HW214515   6.896   4.133   6.782 -0.0976  0.6668  1.0487
 4170SOL     OW14516   1.312   3.084   5.418  0.2207  0.2114  0.3788
 4170SOL    HW114517   1.387   3.120   5.465 -0.3530  2.1192 -0.0724
 4170SOL    HW214518   1.330   3.102   5.326 -0.9732  1.1504  0.2968
 4171SOL     OW14519   9.114   9.152   8.214 -0.6106 -0.1067 -0.4211
 4171SOL    HW114520   9.127   9.094   8.290 -0.3601 -0.1390 -0.4856
 4171SOL    HW214521   9.083   9.234   8.252  0.8726  0.3479 -0.1418
 4172SOL     OW14522   7.134   3.560   8.591  0.2054 -0.1161 -0.1428
 4172SOL    HW114523   7.192   3.612   8.535  0.7298 -2.6641 -2.1672
 4172SOL    HW214524   7.056   3.614   8.602  1.2858  1.6783 -0.8472
 4173SOL     OW14525   2.608   4.489   6.989  0.0986  0.3073  0.1729
 4173SOL    HW114526   2.577   4.578   7.008  1.1459  0.3011  2.1851
 4173SOL    HW214527   2.652   4.461   7.069  1.3796 -1.3577 -1.0286
 4174SOL     OW14528   5.887   7.346   3.814  0.0015  0.6796  0.2545
 4174SOL    HW114529   5.863   7.267   3.861  2.2677 -0.4677 -0.3865
 4174SOL    HW214530   5.840   7.416   3.860 -0.2628 -0.7434  2.2927
 4175SOL     OW14531   3.949   3.025   3.618 -0.6397 -0.1119  0.1635
 4175SOL    HW114532   3.989   3.109   3.641  1.2075 -1.4802  2.4086
 4175SOL    HW214533   3.961   3.018   3.524  3.1342  0.3598  0.4368
 4176SOL     OW14534   3.701   2.985   9.534  0.1919 -0.6301  0.2403
 4176SOL    HW114535   3.646   3.064   9.529  0.8347 -0.2411 -1.4557
 4176SOL    HW214536   3.758   3.001   9.610 -0.8475 -0.2728  0.9777
 4177SOL     OW14537   8.867   8.914   8.097 -0.1890  0.3187 -0.3611
 4177SOL    HW114538   8.800   8.847   8.109  0.8095 -0.8598 -1.1830
 4177SOL    HW214539   8.836   8.988   8.149 -0.5497 -1.3251  1.9393
 4178SOL     OW14540   9.356  10.649   0.822 -0.1035  0.5196 -0.0245
 4178SOL    HW114541   9.270  10.648   0.780 -0.1618  0.7621  0.0897
 4178SOL    HW214542   9.391  10.560   0.808 -1.0362 -0.0828  1.3177
 4179SOL     OW14543   6.403   7.168   7.132  0.4625 -0.9022  0.0003
 4179SOL    HW114544   6.438   7.256   7.145  0.0345 -0.6874 -0.2818
 4179SOL    HW214545   6.364   7.145   7.217 -1.0236 -0.0882 -0.4169
 4180SOL     OW14546   5.252   6.319   4.410  0.0350  0.0578 -0.4736
 4180SOL    HW114547   5.344   6.339   4.424 -0.1216  0.9518 -0.6808
 4180SOL    HW214548   5.227   6.266   4.485  0.5884  0.2390 -0.1605
 4181SOL     OW14549   8.184   1.697   5.515  0.1400  0.5954 -0.4183
 4181SOL    HW114550   8.174   1.781   5.560 -1.4690 -0.4597  1.3473
 4181SOL    HW214551   8.214   1.637   5.584 -2.1678 -1.0369 -0.7127
 4182SOL     OW14552   0.701   5.745   0.201 -0.6120 -0.0525  0.0643
 4182SOL    HW114553   0.665   5.656   0.208  0.4916 -0.5865 -0.6174
 4182SOL    HW214554   0.625   5.801   0.187 -1.2020 -1.1518 -1.4765
 4183SOL     OW14555   9.382   8.515   5.671  0.1607 -0.8462 -0.2278
 4183SOL    HW114556   9.411   8.428   5.700  0.4541 -0.2297  1.4585
 4183SOL    HW214557   9.354   8.502   5.580  1.2288 -2.4675 -0.3695
 4184SOL     OW14558   9.165   9.749   8.321  0.1626 -0.1754  0.0235
 4184SOL    HW114559   9.178   9.780   8.411 -2.1117  1.3093 -0.0816
 4184SOL    HW214560   9.162   9.653   8.330  2.1749 -0.1914  1.1446
 4185SOL     OW14561   9.637   0.702   3.162 -0.1941 -0.2597 -0.5550
 4185SOL    HW114562   9.668   0.791   3.148 -1.2950  0.3331  0.5723
 4185SOL    HW214563   9.689   0.670   3.236 -0.0635 -0.4286 -0.7176
 4186SOL     OW14564   8.824   3.718   8.384 -0.2946  0.0993 -0.9315
 4186SOL    HW114565   8.881   3.790   8.357 -0.0440  0.0529 -0.5315
 4186SOL    HW214566   8.768   3.756   8.451  0.6822 -0.3845  0.1997
 4187SOL     OW14567   5.201   6.256   3.591  0.4632  0.2290  0.3521
 4187SOL    HW114568   5.150   6.177   3.607 -0.2474  0.4447 -0.7645
 4187SOL    HW214569   5.244   6.240   3.507  0.3730  1.0031  0.1519
 4188SOL     OW14570   9.298   3.850   5.677  0.2897 -0.3852  0.2829
 4188SOL    HW114571   9.377   3.874   5.630  0.6876  0.5618  1.3872
 4188SOL    HW214572   9.263   3.775   5.628  0.1303  1.1302 -2.0679
 4189SOL     OW14573   0.035   4.805   3.523  0.0456 -0.1253  0.6908
 4189SOL    HW114574   0.100   4.735   3.531  0.1919  0.0199  0.7725
 4189SOL    HW214575  -0.026   4.774   3.456  1.2906  0.6054 -0.8194
 4190SOL     OW14576   8.301   1.985   0.610  0.8683 -0.2170 -0.1190
 4190SOL    HW114577   8.319   2.011   0.520  0.4604 -3.7704 -1.4000
 4190SOL    HW214578   8.353   1.905   0.623 -0.3479 -0.7351  2.2361
 4191SOL     OW14579   4.812   7.194   8.146 -0.2985  0.6044 -0.4604
 4191SOL    HW114580   4.885   7.134   8.157 -0.0383  1.0741  0.4847
 4191SOL    HW214581   4.853   7.280   8.138 -0.6698  0.6833 -1.7042
 4192SOL     OW14582   9.677   6.834  10.376  0.0344 -0.2091 -0.0732
 4192SOL    HW114583   9.723   6.880  10.447 -1.0901  0.7194  0.0748
 4192SOL    HW214584   9.744   6.823  10.308  1.0278 -0.7724  0.9611
 4193SOL     OW14585   4.599   1.062   3.112  0.1421  0.3457 -0.0841
 4193SOL    HW114586   4.654   0.984   3.105 -2.3461 -1.5029 -0.2872
 4193SOL    HW214587   4.574   1.066   3.204  0.7373  1.3158  0.0538
 4194SOL     OW14588   5.846   2.587   3.067 -0.5473  0.1689 -1.2076
 4194SOL    HW114589   5.919   2.555   3.013  0.7157 -0.6235  0.8359
 4194SOL    HW214590   5.868   2.679   3.084  1.5388 -0.6845  1.5488
 4195SOL     OW14591   3.372   6.955   4.252  0.0746  0.0084  0.2145
 4195SOL    HW114592   3.315   6.983   4.324  0.5546 -0.3028  0.7187
 4195SOL    HW214593   3.459   6.982   4.279  0.2568 -0.0790 -0.2729
 4196SOL     OW14594   9.915   9.276   6.180  0.3315  0.9710 -0.2493
 4196SOL    HW114595   9.846   9.293   6.116  0.2370  0.4092 -0.2960
 4196SOL    HW214596   9.918   9.181   6.189 -0.6175  1.0630  1.6291
 4197SOL     OW14597  10.635   8.787   4.293 -0.2018 -0.3605  0.5233
 4197SOL    HW114598  10.589   8.773   4.211  1.0492 -0.6412 -0.1697
 4197SOL    HW214599  10.629   8.881   4.309 -0.2503 -0.2719 -0.0168
 4198SOL     OW14600   8.478   8.771   1.295  0.0016  0.1990  0.0425
 4198SOL    HW114601   8.393   8.771   1.338  0.0986 -0.8925  0.2565
 4198SOL    HW214602   8.478   8.851   1.242 -1.8356 -0.6177 -1.2977
 4199SOL     OW14603   7.380   4.013   9.063 -0.1050 -0.2031 -0.2906
 4199SOL    HW114604   7.424   4.076   9.119 -0.4089 -1.2686  1.1979
 4199SOL    HW214605   7.304   4.060   9.028 -2.3213 -0.6160  3.5007
 4200SOL     OW14606  11.031   0.486   1.025 -0.5025  0.0923 -0.4187
 4200SOL    HW114607  10.992   0.477   0.937 -1.0380  0.7603 -0.2658
 4200SOL    HW214608  10.963   0.529   1.076 -0.3625 -0.6975  0.4569
 4201SOL     OW14609   2.427   8.033   5.357  0.1130  0.4817  0.0749
 4201SOL    HW114610   2.355   8.071   5.307 -0.1818  0.9653  0.8411
 4201SOL    HW214611   2.435   7.944   5.324 -1.2080  0.2400  0.3318
 4202SOL     OW14612   2.938   1.495  10.080  0.2170 -0.8096  0.3820
 4202SOL    HW114613   2.967   1.531   9.997  2.3740 -1.7089  0.6901
 4202SOL    HW214614   2.910   1.572  10.131  1.2474  0.0346 -0.2825
 4203SOL     OW14615   9.197   3.883   5.077  0.1481  0.1484 -0.1500
 4203SOL    HW114616   9.230   3.823   5.143 -0.0093  0.8809  0.6209
 4203SOL    HW214617   9.238   3.855   4.995 -0.2586 -1.2574  0.1074
 4204SOL     OW14618   4.078   9.775   2.934  0.4076 -0.6694  0.0484
 4204SOL    HW114619   4.114   9.693   2.969 -0.3580 -1.7219 -1.5518
 4204SOL    HW214620   3.984   9.767   2.948  0.3172 -0.1140 -0.2363
 4205SOL     OW14621   5.285   4.256   6.188 -0.3036  0.2636 -0.3155
 4205SOL    HW114622   5.339   4.306   6.127 -0.4084  1.2948  0.4198
 4205SOL    HW214623   5.310   4.289   6.275  0.0121 -1.3285  0.2354
 4206SOL     OW14624   1.461  10.554   2.648  0.3027 -0.5237 -0.0769
 4206SOL    HW114625   1.448  10.467   2.685  0.0190 -0.1064  0.8335
 4206SOL    HW214626   1.457  10.613   2.723  0.4947  0.2780 -0.6804
 4207SOL     OW14627   1.508  10.965  10.609 -0.7338  0.3162 -0.2134
 4207SOL    HW114628   1.493  10.876  10.641 -1.3093  0.4158 -0.1941
 4207SOL    HW214629   1.432  11.015  10.640  0.3034  1.1766  1.1072
 4208SOL     OW14630   1.486   4.583   9.643 -0.7450  0.1268 -0.4879
 4208SOL    HW114631   1.557   4.580   9.579 -1.2797 -0.4507 -1.0647
 4208SOL    HW214632   1.406   4.580   9.590 -1.2038  0.7444  0.1555
 4209SOL     OW14633   3.385   4.409   7.806 -0.1604 -0.5477  0.0747
 4209SOL    HW114634   3.380   4.379   7.716  1.9906 -1.6454  0.2523
 4209SOL    HW214635   3.469   4.456   7.811 -0.0891 -0.7700  1.5422
 4210SOL     OW14636   6.926   9.943   8.857  0.6719  0.0836 -0.0585
 4210SOL    HW114637   7.021   9.936   8.867  0.5715  1.1016  2.3034
 4210SOL    HW214638   6.893   9.950   8.947 -1.4890  1.3992 -0.8728
 4211SOL     OW14639   1.303   3.154   2.314  0.2094  0.0723  0.5328
 4211SOL    HW114640   1.222   3.115   2.280  1.0245  0.2842 -1.8328
 4211SOL    HW214641   1.281   3.245   2.331  0.2024  0.4362 -1.2511
 4212SOL     OW14642   2.289   7.822   1.259  0.0564  0.2946 -0.0822
 4212SOL    HW114643   2.216   7.809   1.199 -0.6825  1.0042  0.6421
 4212SOL    HW214644   2.312   7.915   1.249  0.5259  0.1992  0.0731
 4213SOL     OW14645   1.801   7.751   7.473  0.6352  0.2563 -0.0269
 4213SOL    HW114646   1.855   7.829   7.461 -0.2704  0.9189  0.1136
 4213SOL    HW214647   1.836   7.709   7.552 -0.2501  1.7334  1.2150
 4214SOL     OW14648   1.451  10.286   0.414  0.7505  0.1685 -0.2803
 4214SOL    HW114649   1.478  10.336   0.490  0.9322 -1.1568  0.5579
 4214SOL    HW214650   1.433  10.352   0.347 -2.4520  1.6837  1.7842
 4215SOL     OW14651   4.119   3.307   0.509 -0.4815 -0.4419  0.1605
 4215SOL    HW114652   4.033   3.344   0.488 -0.0529  0.0308 -0.8805
 4215SOL    HW214653   4.154   3.280   0.424  0.4228 -0.5531  0.5599
 4216SOL     OW14654  10.552   4.378   5.423 -0.2392 -0.1856  0.2009
 4216SOL    HW114655  10.537   4.311   5.357  0.7514  1.0720 -1.3544
 4216SOL    HW214656  10.598   4.332   5.494 -0.8895 -1.4460 -0.1711
 4217SOL     OW14657   9.624   0.789   8.548  0.1248  0.4850 -0.1580
 4217SOL    HW114658   9.622   0.868   8.494 -1.3820 -0.0406 -0.9354
 4217SOL    HW214659   9.644   0.821   8.636  0.2591  1.6436 -0.5879
 4218SOL     OW14660   3.727  10.940   3.775 -0.2624 -0.1466  0.0448
 4218SOL    HW114661   3.788  10.867   3.781  2.3874  1.8329 -0.7506
 4218SOL    HW214662   3.776  11.008   3.729 -2.1983  2.4939  1.5864
 4219SOL     OW14663   2.752   6.292   6.931  0.7281  0.5517 -0.1520
 4219SOL    HW114664   2.821   6.250   6.983 -0.4225  0.8031  1.6903
 4219SOL    HW214665   2.749   6.241   6.850  1.9481 -0.4947  0.4177
 4220SOL     OW14666   5.134   8.567   1.818 -0.4131  0.2311  0.2810
 4220SOL    HW114667   5.148   8.601   1.906 -0.7664 -0.3233  0.5516
 4220SOL    HW214668   5.051   8.519   1.823 -0.4735  0.2555 -0.3684
 4221SOL     OW14669   5.389   0.369   6.670 -0.1108 -0.2166  0.0579
 4221SOL    HW114670   5.408   0.314   6.746  0.1874 -0.1945  0.0027
 4221SOL    HW214671   5.298   0.395   6.681 -0.5355 -1.4431 -0.3613
 4222SOL     OW14672  10.621   5.636  10.052  0.3798 -0.2589  0.3072
 4222SOL    HW114673  10.566   5.708  10.021 -1.8175 -1.7233  0.5296
 4222SOL    HW214674  10.672   5.674  10.124 -0.5183  1.1333  0.2521
 4223SOL     OW14675   9.260   4.223   2.469 -0.0939  0.4850  0.3888
 4223SOL    HW114676   9.353   4.231   2.448 -0.1912  1.1237  0.1510
 4223SOL    HW214677   9.228   4.313   2.465 -0.6793  0.2889  0.6667
 4224SOL     OW14678   8.845   0.647  10.115 -0.2508  0.4322  0.1670
 4224SOL    HW114679   8.780   0.591  10.157 -0.8426  1.9032  1.3113
 4224SOL    HW214680   8.927   0.626  10.158 -0.0633 -0.9082 -0.7722
 4225SOL     OW14681   1.529   8.548   3.895  0.2859  0.1592  0.1635
 4225SOL    HW114682   1.528   8.556   3.799  4.1082  0.2386 -0.0034
 4225SOL    HW214683   1.487   8.629   3.925 -0.1109  0.5887 -1.4070
 4226SOL     OW14684   9.304   9.652   0.530 -0.4144 -0.2207  0.9640
 4226SOL    HW114685   9.264   9.737   0.552  0.3723  0.5513 -0.4437
 4226SOL    HW214686   9.286   9.597   0.606 -1.5044  1.0143  1.6445
 4227SOL     OW14687   6.155  10.716   2.417  0.2059 -0.7557  0.5889
 4227SOL    HW114688   6.124  10.689   2.331 -1.3900  0.4584  0.7337
 4227SOL    HW214689   6.250  10.707   2.413  0.0902 -1.4898 -1.0086
 4228SOL     OW14690   2.352   0.896  10.327 -0.1190  0.0975 -0.1818
 4228SOL    HW114691   2.294   0.927  10.257  0.3048 -0.5362 -0.8325
 4228SOL    HW214692   2.334   0.802  10.333  0.4279  0.0047  0.0145
 4229SOL     OW14693   4.483   4.157   3.022  0.3095  0.3252 -0.1194
 4229SOL    HW114694   4.444   4.214   2.955  0.2246  0.6980  0.2382
 4229SOL    HW214695   4.437   4.181   3.103 -1.1187 -1.6306 -0.2965
 4230SOL     OW14696  10.634   5.888   0.719  0.0414 -0.3876 -0.1979
 4230SOL    HW114697  10.549   5.882   0.764 -0.9754 -2.1962 -2.2089
 4230SOL    HW214698  10.689   5.937   0.780 -2.0085 -0.4117  1.8263
 4231SOL     OW14699   3.424   5.471   1.939  0.4274 -0.2062 -0.2210
 4231SOL    HW114700   3.389   5.465   1.850 -0.7154  1.5906  0.0506
 4231SOL    HW214701   3.359   5.426   1.993  0.8498 -0.8259 -0.2212
 4232SOL     OW14702   7.703  10.828   8.840 -0.4798 -0.3415 -0.5654
 4232SOL    HW114703   7.654  10.867   8.912 -1.0141 -1.0560 -0.5230
 4232SOL    HW214704   7.790  10.866   8.845 -1.1444  1.2989 -0.9016
 4233SOL     OW14705  10.105   1.771   5.440  0.0244  0.2983 -0.7361
 4233SOL    HW114706  10.142   1.683   5.427  0.3226  0.3211 -0.0784
 4233SOL    HW214707  10.011   1.759   5.427  0.1086 -0.0340 -1.0720
 4234SOL     OW14708   1.349   0.136   0.189  0.5874 -0.3951 -0.3386
 4234SOL    HW114709   1.366   0.221   0.228 -1.1434  0.1843 -0.7490
 4234SOL    HW214710   1.400   0.075   0.242 -1.0983  0.4402  2.4824
 4235SOL     OW14711   4.224   8.799   2.420 -0.0399  0.2371  0.1048
 4235SOL    HW114712   4.318   8.780   2.420  0.3155  1.8985  0.0326
 4235SOL    HW214713   4.189   8.746   2.349  0.4925 -1.9382  1.3781
 4236SOL     OW14714   4.705   7.973   3.104 -1.1198  0.2688  0.1950
 4236SOL    HW114715   4.735   7.953   3.015 -2.6767  0.9354 -0.5213
 4236SOL    HW214716   4.670   8.062   3.097 -3.4059 -0.5031  0.8826
 4237SOL     OW14717   0.194  10.167   0.399  0.3066 -0.1060  0.6614
 4237SOL    HW114718   0.189  10.156   0.304 -0.3144 -1.6346  0.8435
 4237SOL    HW214719   0.285  10.146   0.421  0.4722  0.3280  0.4094
 4238SOL     OW14720   6.247   2.063   0.326  0.1033 -0.2322  0.3302
 4238SOL    HW114721   6.287   2.146   0.353  1.1144 -1.0011  1.2626
 4238SOL    HW214722   6.237   2.014   0.407 -1.8550 -0.4787 -0.0128
 4239SOL     OW14723  10.702  10.440   1.451 -0.3523 -0.3101 -0.6824
 4239SOL    HW114724  10.705  10.425   1.356  0.3880 -0.8688 -0.5758
 4239SOL    HW214725  10.789  10.472   1.473 -0.7236  0.4513 -0.2823
 4240SOL     OW14726  10.879   0.409   1.791  0.0327  0.2316 -0.2497
 4240SOL    HW114727  10.934   0.343   1.748  0.0012 -0.7305  1.1112
 4240SOL    HW214728  10.860   0.472   1.722  2.1149  0.1440 -0.9932
 4241SOL     OW14729   1.915   1.420   4.897 -0.1721 -0.5168 -0.2545
 4241SOL    HW114730   1.959   1.339   4.871 -0.0226 -0.5150 -0.0159
 4241SOL    HW214731   1.983   1.486   4.894  0.2255 -0.7916  1.5556
 4242SOL     OW14732   6.070   7.785   4.516 -0.3440 -0.3163 -0.3350
 4242SOL    HW114733   6.152   7.781   4.465 -0.8671 -0.0589 -1.2167
 4242SOL    HW214734   6.018   7.852   4.472 -0.5646  0.3775  0.9344
 4243SOL     OW14735   5.395   4.777   5.623  0.0685 -0.0443  0.3299
 4243SOL    HW114736   5.427   4.857   5.579  0.1692 -1.2663 -1.9547
 4243SOL    HW214737   5.469   4.717   5.618 -0.6872 -0.9751  0.1502
 4244SOL     OW14738   2.380  10.912   3.095 -0.1456  0.1205  0.0004
 4244SOL    HW114739   2.458  10.943   3.049 -0.6897  1.2660 -0.1921
 4244SOL    HW214740   2.308  10.960   3.054 -0.7366  0.5743  1.4912
 4245SOL     OW14741   8.435   3.817  10.176 -0.1032  0.4174  0.4262
 4245SOL    HW114742   8.446   3.835  10.270 -0.7237  1.3691  0.3295
 4245SOL    HW214743   8.343   3.836  10.159  0.1038  0.6642 -0.4598
 4246SOL     OW14744   9.372   3.205   1.214  0.2210  0.3635 -0.0794
 4246SOL    HW114745   9.433   3.144   1.173  0.0574  1.0600 -1.4319
 4246SOL    HW214746   9.289   3.191   1.167 -0.4914 -0.0803  1.2567
 4247SOL     OW14747   1.382   3.543   6.306 -0.1954  0.0512 -0.0687
 4247SOL    HW114748   1.365   3.546   6.400 -1.7962  0.0518 -0.3293
 4247SOL    HW214749   1.369   3.451   6.282  0.0319  0.0812 -0.3153
 4248SOL     OW14750   6.766   4.314   0.520 -0.1284  0.1936 -0.2425
 4248SOL    HW114751   6.809   4.259   0.586 -0.9000  1.7084  1.6250
 4248SOL    HW214752   6.778   4.403   0.552 -2.3661  0.8474 -1.0211
 4249SOL     OW14753   8.460   6.639   8.468  0.3728 -0.6078 -0.4903
 4249SOL    HW114754   8.447   6.544   8.459 -1.3170 -0.3423 -1.1574
 4249SOL    HW214755   8.457   6.672   8.379  0.7548  0.1000 -0.2446
 4250SOL     OW14756   4.881   5.369   0.905  0.2785  0.4685 -0.3119
 4250SOL    HW114757   4.790   5.350   0.928  0.6198 -0.7677  0.1432
 4250SOL    HW214758   4.877   5.446   0.849 -1.1087  0.0324 -0.8496
 4251SOL     OW14759   9.478   0.580  10.502  0.2966 -0.3772  0.1779
 4251SOL    HW114760   9.430   0.642  10.448 -0.8774 -0.9373  0.5492
 4251SOL    HW214761   9.503   0.630  10.580  0.0364 -0.1668  0.1265
 4252SOL     OW14762   7.983   3.956   1.264  0.4991  0.0525  0.1844
 4252SOL    HW114763   8.064   3.906   1.252  1.1187  1.5561 -2.7576
 4252SOL    HW214764   7.917   3.906   1.216  0.5898  0.7855 -0.7264
 4253SOL     OW14765   1.435   7.179   6.291  0.0213  0.8488  0.2447
 4253SOL    HW114766   1.375   7.208   6.222 -0.2084 -0.1723 -0.0094
 4253SOL    HW214767   1.504   7.132   6.243 -0.3069 -0.1496  0.7177
 4254SOL     OW14768   0.097   5.183   5.514  0.1869 -0.0902 -0.3640
 4254SOL    HW114769   0.009   5.146   5.518 -1.7286  3.5745 -2.6760
 4254SOL    HW214770   0.099   5.248   5.585  0.3269  1.0375 -1.3724
 4255SOL     OW14771   1.782   3.200   8.880 -0.0990  0.3037  0.3251
 4255SOL    HW114772   1.687   3.215   8.877 -0.2351 -0.5769 -0.5096
 4255SOL    HW214773   1.810   3.236   8.964 -1.4046 -0.6683  1.2201
 4256SOL     OW14774   7.655   4.989   7.755  0.1744  0.4994  0.1690
 4256SOL    HW114775   7.680   4.943   7.675  0.1395  0.4656  0.1774
 4256SOL    HW214776   7.661   5.081   7.733 -2.1111  0.5276 -0.5996
 4257SOL     OW14777  10.037   5.185   3.383 -0.0954 -0.0097 -0.0769
 4257SOL    HW114778  10.093   5.116   3.416 -0.0227 -0.1845 -0.5588
 4257SOL    HW214779  10.075   5.266   3.417  1.0549 -0.0433 -1.2301
 4258SOL     OW14780   0.085   9.736   9.738  0.3111  0.3162 -0.3062
 4258SOL    HW114781   0.136   9.714   9.660  0.5583 -1.7139  0.3613
 4258SOL    HW214782   0.014   9.792   9.705  0.3255 -0.5939 -2.0189
 4259SOL     OW14783   7.383   5.168   0.399  0.1808  0.2752  0.4728
 4259SOL    HW114784   7.454   5.232   0.396  0.4712 -0.0674 -2.5676
 4259SOL    HW214785   7.307   5.213   0.362  0.1854 -0.8506 -0.9962
 4260SOL     OW14786  10.177   9.299   9.615  0.3363 -0.5239  0.2422
 4260SOL    HW114787  10.246   9.245   9.578  2.3077  1.0306  1.4724
 4260SOL    HW214788  10.110   9.302   9.546  1.8587 -1.3734 -1.3613
 4261SOL     OW14789  10.175   5.670   9.103 -0.5844  0.6518  0.1837
 4261SOL    HW114790  10.238   5.637   9.039  0.0336  0.6085  0.8085
 4261SOL    HW214791  10.109   5.601   9.109  0.1409 -0.0118  0.6934
 4262SOL     OW14792   6.044   7.253   4.434  0.6672  0.0027  0.0709
 4262SOL    HW114793   6.117   7.225   4.490  0.1264 -0.7580  0.4178
 4262SOL    HW214794   6.037   7.347   4.448 -0.2860 -0.3492  2.3218
 4263SOL     OW14795   0.530   2.538   0.021  0.0607 -0.4848  0.0805
 4263SOL    HW114796   0.603   2.480   0.001  0.1886 -1.0645  2.0160
 4263SOL    HW214797   0.571   2.620   0.048  0.0006 -0.7101  0.8745
 4264SOL     OW14798   1.252  10.525   7.504 -0.1600  0.1435  0.4540
 4264SOL    HW114799   1.184  10.479   7.553  1.3389 -0.8470  1.6870
 4264SOL    HW214800   1.292  10.584   7.568  0.6110  0.2017 -0.0713
 4265SOL     OW14801   1.916   2.197   8.539  0.3441  0.4853  0.0637
 4265SOL    HW114802   1.970   2.220   8.615 -2.7204  1.8954  2.0186
 4265SOL    HW214803   1.889   2.107   8.556  2.0899 -0.3112 -1.0410
 4266SOL     OW14804   2.512   4.698  10.827  0.3412  0.0412  0.1983
 4266SOL    HW114805   2.440   4.677  10.886  0.6801  1.0932  0.9934
 4266SOL    HW214806   2.545   4.782  10.857  2.1775 -0.6004  0.1134
 4267SOL     OW14807  10.624   6.106   0.118  0.2933 -0.0794 -0.1556
 4267SOL    HW114808  10.584   6.037   0.170  1.5447 -1.5419 -1.0604
 4267SOL    HW214809  10.715   6.110   0.148  0.6885 -0.0480 -1.2875
 4268SOL     OW14810   5.606   8.068   5.754  0.4169  0.0969  0.0369
 4268SOL    HW114811   5.641   7.991   5.709  1.0922 -0.0684  0.8269
 4268SOL    HW214812   5.589   8.131   5.684  0.2402 -0.6145 -0.5777
 4269SOL     OW14813   3.066   3.210   7.528  0.1170  0.7523 -0.6801
 4269SOL    HW114814   3.141   3.152   7.517 -0.1800  0.0924  0.6202
 4269SOL    HW214815   3.022   3.209   7.442  1.3334  0.8189 -1.3233
 4270SOL     OW14816   3.595   0.094   5.306 -0.5937  0.1447 -0.2650
 4270SOL    HW114817   3.513   0.130   5.340 -0.5565  0.0612 -0.0850
 4270SOL    HW214818   3.658   0.107   5.377 -0.4001  0.3982 -0.4831
 4271SOL     OW14819   0.245   7.513   7.320  0.2555 -0.5201  0.4775
 4271SOL    HW114820   0.315   7.480   7.264 -0.2855  0.6798 -0.9532
 4271SOL    HW214821   0.278   7.595   7.355  0.1624 -0.7308  1.0779
 4272SOL     OW14822   0.934   0.391   4.150 -0.2430  0.3584 -0.2444
 4272SOL    HW114823   1.007   0.449   4.127 -1.4511  0.9252 -3.0945
 4272SOL    HW214824   0.908   0.419   4.238  2.3705  0.6980  0.5068
 4273SOL     OW14825   6.778   3.278   0.218 -0.4602 -0.3280 -0.2079
 4273SOL    HW114826   6.821   3.235   0.144  0.1401  0.6085 -0.4174
 4273SOL    HW214827   6.690   3.297   0.186  0.0828  0.9091 -1.0298
 4274SOL     OW14828   2.052   1.553   0.794  0.4523  0.4188  0.0073
 4274SOL    HW114829   2.026   1.478   0.740 -2.9337  0.6653  1.0870
 4274SOL    HW214830   2.036   1.524   0.884  0.9639  1.7921  0.5569
 4275SOL     OW14831   8.913   1.899  10.382  0.3555  0.7912 -0.1938
 4275SOL    HW114832   8.849   1.952  10.334  0.6172  1.8563  0.5908
 4275SOL    HW214833   8.863   1.824  10.414 -0.2598  1.0624 -0.5029
 4276SOL     OW14834  10.707   2.119   5.089 -0.3459 -0.0481 -0.3258
 4276SOL    HW114835  10.677   2.110   4.998  2.3671  2.6384 -1.6513
 4276SOL    HW214836  10.629   2.148   5.137 -1.8089 -1.4002 -1.7364
 4277SOL     OW14837   7.057   3.518  10.732 -0.4527  0.1447  0.4111
 4277SOL    HW114838   7.103   3.567  10.800 -1.7907 -0.2399  1.6583
 4277SOL    HW214839   6.966   3.547  10.739 -0.7379 -0.3883 -0.7966
 4278SOL     OW14840   6.920   8.895  10.208  0.0188 -0.4340 -0.3142
 4278SOL    HW114841   6.933   8.803  10.231 -0.6997 -0.7853 -1.2582
 4278SOL    HW214842   6.982   8.912  10.137  1.9806  0.5526  1.5030
 4279SOL     OW14843   1.736   4.534   4.547  0.8452 -0.1880 -0.1797
 4279SOL    HW114844   1.702   4.445   4.544  0.9360 -0.2550  0.6331
 4279SOL    HW214845   1.695   4.578   4.472  2.0668 -1.3456 -1.5818
 4280SOL     OW14846   4.040   7.641  10.725 -0.4510 -0.2214  0.0522
 4280SOL    HW114847   4.063   7.549  10.738  0.0498 -0.1098  0.0097
 4280SOL    HW214848   4.047   7.654  10.631  0.2512  0.0441  0.1292
 4281SOL     OW14849   2.010   0.647   5.027 -0.1167  0.3935 -0.0626
 4281SOL    HW114850   1.945   0.696   5.077  0.3546 -0.9688  2.0631
 4281SOL    HW214851   1.998   0.674   4.937 -2.3116  1.6138  0.5360
 4282SOL     OW14852   6.744  10.308  10.190 -0.6532  0.2021 -0.0973
 4282SOL    HW114853   6.699  10.362  10.256  1.3183  1.6316  0.1527
 4282SOL    HW214854   6.743  10.362  10.111 -3.0811 -1.5373 -1.4094
 4283SOL     OW14855   9.880   7.682   6.424 -0.1961  0.7718 -0.4379
 4283SOL    HW114856   9.874   7.587   6.421 -0.0821  0.7364  0.1958
 4283SOL    HW214857   9.792   7.713   6.403 -0.1264  0.5399 -1.0763
 4284SOL     OW14858   7.534  10.241   1.183 -0.1949 -0.2400 -0.0228
 4284SOL    HW114859   7.527  10.333   1.209 -2.4861 -0.7545  1.5960
 4284SOL    HW214860   7.558  10.243   1.091 -1.8186  2.0641 -0.4800
 4285SOL     OW14861   4.579   9.208   1.072  0.3547 -0.5052  0.6019
 4285SOL    HW114862   4.620   9.244   1.151 -0.4361 -1.2385  1.3687
 4285SOL    HW214863   4.498   9.168   1.103 -1.2786  1.3862 -0.9397
 4286SOL     OW14864   2.764   1.950   9.076  0.1685  0.0772  0.4119
 4286SOL    HW114865   2.789   2.036   9.042 -1.8731  0.7675  0.5331
 4286SOL    HW214866   2.743   1.965   9.168  1.6717 -0.9774  0.9732
 4287SOL     OW14867  10.194   7.663   7.106 -0.1771 -0.0329 -0.1494
 4287SOL    HW114868  10.214   7.712   7.026  0.6581 -0.5194 -0.2439
 4287SOL    HW214869  10.155   7.581   7.076  0.8358 -0.5487 -0.1069
 4288SOL     OW14870   0.428   9.558   8.115 -0.3166 -0.0104  0.4819
 4288SOL    HW114871   0.512   9.579   8.075  0.2968 -3.3708 -0.2059
 4288SOL    HW214872   0.366   9.617   8.072  1.4118  1.5333 -0.0363
 4289SOL     OW14873   0.105   6.064   7.526  0.3464  0.1381  0.5418
 4289SOL    HW114874   0.105   6.159   7.541 -1.4250  0.2117  0.3795
 4289SOL    HW214875   0.169   6.050   7.457  0.0220  1.3483 -0.0258
 4290SOL     OW14876   2.285   5.123   6.225 -0.1424  0.4004  0.5755
 4290SOL    HW114877   2.303   5.161   6.139 -0.7236 -0.7180 -0.0757
 4290SOL    HW214878   2.369   5.125   6.270  0.1486  1.0994  0.0218
 4291SOL     OW14879  10.124   4.490  10.099 -0.0080  0.5314 -0.0912
 4291SOL    HW114880  10.067   4.545  10.045 -1.5264  1.1702  2.0172
 4291SOL    HW214881  10.211   4.504  10.063 -0.9142  0.9602 -2.2981
 4292SOL     OW14882   4.507   1.988   7.972 -0.0745  0.5023  0.3177
 4292SOL    HW114883   4.525   1.920   7.907  0.0140 -0.3858  1.2458
 4292SOL    HW214884   4.437   2.040   7.933 -0.5449 -0.4609 -0.1667
 4293SOL     OW14885   0.651   3.980   0.831 -0.2203 -0.3935 -0.1505
 4293SOL    HW114886   0.707   4.036   0.777 -1.6001  1.3216  0.0952
 4293SOL    HW214887   0.708   3.951   0.903  0.1386  2.2637  0.7418
 4294SOL     OW14888   3.272   9.844   9.057  0.3543 -0.3763  0.3279
 4294SOL    HW114889   3.212   9.908   9.016 -0.6763 -0.3202  1.8671
 4294SOL    HW214890   3.255   9.852   9.150  1.9141 -1.2625  0.7143
 4295SOL     OW14891   9.198   7.346   6.932 -0.1601  0.1805  0.3998
 4295SOL    HW114892   9.155   7.265   6.904 -0.5979 -0.9433  3.7834
 4295SOL    HW214893   9.267   7.360   6.867 -1.2675 -1.8382 -1.3532
 4296SOL     OW14894  10.584   5.635   4.434 -0.3162  0.0671  0.1878
 4296SOL    HW114895  10.539   5.718   4.451 -0.8253  0.2954 -1.9209
 4296SOL    HW214896  10.617   5.608   4.519  0.7339  2.9304  0.8325
 4297SOL     OW14897  10.315  10.696   3.094 -0.4295 -0.1588 -0.2031
 4297SOL    HW114898  10.310  10.786   3.125 -1.5793  0.5188 -2.1597
 4297SOL    HW214899  10.409  10.677   3.091 -0.2235  0.0786  2.4654
 4298SOL     OW14900   0.085   2.348   0.525 -0.8648 -0.1746 -0.1187
 4298SOL    HW114901   0.018   2.408   0.558 -1.6597 -0.9705 -0.2473
 4298SOL    HW214902   0.041   2.299   0.455  0.0584 -0.2436 -0.6684
 4299SOL     OW14903   4.714  10.089   5.501  0.0062  0.0161 -0.2832
 4299SOL    HW114904   4.679  10.043   5.424 -0.8883  2.8921 -1.7443
 4299SOL    HW214905   4.807  10.066   5.501 -0.4807 -2.1894 -0.5592
 4300SOL     OW14906   5.614   2.624   9.337  0.2537  0.0236 -0.4765
 4300SOL    HW114907   5.604   2.577   9.419 -0.0275  1.6175  0.4421
 4300SOL    HW214908   5.584   2.713   9.356 -1.5554  0.0092 -2.7697
 4301SOL     OW14909   9.213  10.745   6.940  0.1325 -0.0970  0.4596
 4301SOL    HW114910   9.193  10.765   7.031  0.0065 -1.7879  0.8323
 4301SOL    HW214911   9.296  10.697   6.944 -0.3142 -0.9593 -0.2048
 4302SOL     OW14912   6.540   4.522   1.232  0.0245 -0.7637 -0.3074
 4302SOL    HW114913   6.484   4.523   1.154  1.3785  1.1892 -1.3280
 4302SOL    HW214914   6.483   4.556   1.301 -0.4048  0.1565 -1.0842
 4303SOL     OW14915   3.262   1.671   6.441 -0.2333  0.5352  0.1117
 4303SOL    HW114916   3.249   1.612   6.367 -1.3297 -0.8888  1.3792
 4303SOL    HW214917   3.300   1.616   6.510 -2.9742  0.7316  1.9579
 4304SOL     OW14918   4.374   9.855  10.561 -0.3129 -0.5165 -0.1774
 4304SOL    HW114919   4.356   9.766  10.532  1.7106 -0.5554 -1.4930
 4304SOL    HW214920   4.395   9.846  10.654 -0.6202 -1.3273 -0.1786
 4305SOL     OW14921   8.625   5.268   0.364  0.2252  0.3245  0.2664
 4305SOL    HW114922   8.668   5.188   0.395 -1.2824 -0.3663  0.6663
 4305SOL    HW214923   8.616   5.256   0.270  0.0112  0.0152  0.3237
 4306SOL     OW14924   2.571   7.133   2.730  0.3458 -0.4946 -0.0869
 4306SOL    HW114925   2.584   7.053   2.679  3.5969  0.3354 -0.7838
 4306SOL    HW214926   2.613   7.202   2.679 -1.3082  1.4831  1.0622
 4307SOL     OW14927   1.541   6.936   5.015 -0.8178  0.1992  0.0600
 4307SOL    HW114928   1.549   7.032   5.017 -0.6743  0.1800  0.5914
 4307SOL    HW214929   1.623   6.904   5.053 -0.7663 -0.1409 -0.3365
 4308SOL     OW14930   7.981  10.526   9.944  0.1575  0.2137 -0.5083
 4308SOL    HW114931   8.018  10.455   9.892 -0.1211 -0.0384 -0.3603
 4308SOL    HW214932   8.006  10.606   9.897  2.1511  0.1516  0.3215
 4309SOL     OW14933   8.205   9.618   5.327 -0.3951 -0.6702  0.2347
 4309SOL    HW114934   8.216   9.649   5.238 -1.4829  2.6639  1.1149
 4309SOL    HW214935   8.276   9.660   5.376 -1.2909 -0.4132  1.3491
 4310SOL     OW14936   9.485   1.664   7.318  0.8531  0.6384  0.2814
 4310SOL    HW114937   9.448   1.577   7.335 -1.1703  1.0657 -1.5897
 4310SOL    HW214938   9.504   1.665   7.225 -1.3231  2.9088 -0.2572
 4311SOL     OW14939   7.436   8.334   6.740 -0.2378 -0.6246  0.1357
 4311SOL    HW114940   7.377   8.401   6.705  0.2138 -0.0206  0.4984
 4311SOL    HW214941   7.467   8.286   6.664  0.1415  0.1741 -0.2204
 4312SOL     OW14942   7.336   1.182   9.059 -0.0274  0.3354 -0.0326
 4312SOL    HW114943   7.333   1.245   9.131 -0.1500  2.7665 -2.0306
 4312SOL    HW214944   7.384   1.226   8.989 -0.0052 -1.8516 -1.5261
 4313SOL     OW14945   1.140   0.323   7.001 -0.0774 -0.2212  0.3238
 4313SOL    HW114946   1.138   0.419   6.999  1.2172 -0.1574  1.0108
 4313SOL    HW214947   1.128   0.301   7.093 -2.0927 -0.8074 -0.0426
 4314SOL     OW14948   0.882   5.619   6.331 -0.3077 -0.5294  0.1887
 4314SOL    HW114949   0.929   5.697   6.301  1.1518 -1.1484  0.8217
 4314SOL    HW214950   0.897   5.616   6.425 -1.5295 -0.8277  0.3973
 4315SOL     OW14951   8.239  10.435   7.736  0.3965 -0.1202 -0.1376
 4315SOL    HW114952   8.273  10.346   7.724  3.3275  1.1946 -2.9938
 4315SOL    HW214953   8.311  10.483   7.777 -1.0484  1.0951  1.1208
 4316SOL     OW14954   7.684   1.032   1.686 -0.2955 -0.5048  0.2823
 4316SOL    HW114955   7.738   1.097   1.732 -0.4247 -0.6907  0.6954
 4316SOL    HW214956   7.740   1.001   1.615 -0.2385  0.0762  0.0692
 4317SOL     OW14957   8.073   5.967   8.052  0.6624 -0.3247 -0.5143
 4317SOL    HW114958   8.040   5.910   7.983  0.9790 -0.7046 -0.3555
 4317SOL    HW214959   8.083   5.910   8.128  0.8347 -0.0238 -0.3071
 4318SOL     OW14960   0.489   0.558   8.774 -0.7268  0.0416 -0.4258
 4318SOL    HW114961   0.509   0.601   8.691 -1.4160 -0.2511 -0.7506
 4318SOL    HW214962   0.544   0.602   8.838  0.9426 -0.7200 -1.2714
 4319SOL     OW14963   3.689   3.260   6.323  0.7017 -0.1271  0.5303
 4319SOL    HW114964   3.620   3.325   6.332 -0.5351 -1.4434  0.8864
 4319SOL    HW214965   3.734   3.283   6.241  0.2506  1.0969  0.6055
 4320SOL     OW14966   0.874   9.964   0.124  0.2335  0.1323 -0.3270
 4320SOL    HW114967   0.881  10.003   0.036  1.0421 -0.5272 -0.5698
 4320SOL    HW214968   0.811   9.893   0.113  0.9814 -0.5119 -0.6032
 4321SOL     OW14969  10.414   7.982   1.081  0.5090  0.4971  0.2502
 4321SOL    HW114970  10.502   8.017   1.097  0.4398  0.2068  1.3309
 4321SOL    HW214971  10.385   8.026   1.000  1.1256  1.5818  0.5997
 4322SOL     OW14972   9.214   7.015   8.299  0.5228  0.0432 -0.2178
 4322SOL    HW114973   9.130   7.059   8.305  0.4463  0.2795 -2.3811
 4322SOL    HW214974   9.211   6.947   8.367 -1.2141  0.3466  0.0415
 4323SOL     OW14975   3.165   7.511   3.175 -0.1194 -0.2389  0.5401
 4323SOL    HW114976   3.200   7.424   3.197 -0.0571 -1.2566 -3.0135
 4323SOL    HW214977   3.143   7.505   3.082 -1.6678  3.0938  0.5629
 4324SOL     OW14978   3.059   2.116   4.273  0.2304 -0.1993 -0.2836
 4324SOL    HW114979   3.128   2.181   4.264  1.5255 -1.6949 -1.9393
 4324SOL    HW214980   2.994   2.140   4.207 -0.5696  0.8273  0.8321
 4325SOL     OW14981   7.573   8.260   7.804  0.3853  0.2775 -0.5303
 4325SOL    HW114982   7.616   8.180   7.774  0.0508 -0.3171  0.4957
 4325SOL    HW214983   7.635   8.300   7.865 -0.2941 -0.3689  0.6358
 4326SOL     OW14984   0.807   6.275   7.593 -0.6705  0.5643 -0.5055
 4326SOL    HW114985   0.811   6.211   7.664  0.3591  2.3638  1.1542
 4326SOL    HW214986   0.824   6.224   7.513  0.2060 -1.1936  0.7453
 4327SOL     OW14987   3.432   1.627   1.802 -0.9584  0.1811  0.0971
 4327SOL    HW114988   3.461   1.718   1.805 -2.6989  0.7793  2.9716
 4327SOL    HW214989   3.512   1.576   1.814  0.0334  1.2785 -1.4514
 4328SOL     OW14990   4.366   7.580  10.401 -0.8971  0.6229 -0.0155
 4328SOL    HW114991   4.396   7.549  10.487 -0.4395  0.8274 -0.1004
 4328SOL    HW214992   4.443   7.620  10.362 -1.0914  0.4743 -0.5520
 4329SOL     OW14993   3.691   8.699   6.132 -0.5074 -0.0811  1.1243
 4329SOL    HW114994   3.701   8.626   6.193  2.9904  0.4029  1.3197
 4329SOL    HW214995   3.715   8.776   6.183 -1.0847  0.8374  0.0604
 4330SOL     OW14996   4.042  10.702  10.153 -0.0232 -0.2168  0.7652
 4330SOL    HW114997   4.042  10.772  10.218  2.1205  1.4311 -0.8448
 4330SOL    HW214998   4.133  10.670  10.153 -0.3515 -1.2161 -0.3753
 4331SOL     OW14999   5.895   8.842   7.669  0.3018  0.5258  0.0532
 4331SOL    HW115000   5.867   8.770   7.612  0.5222  1.6776 -1.5899
 4331SOL    HW215001   5.958   8.891   7.616 -1.6729  3.3787  0.0931
 4332SOL     OW15002   5.998   1.878   6.659 -0.3882 -0.3070 -0.7222
 4332SOL    HW115003   5.959   1.962   6.637 -0.7155 -0.6041 -1.3100
 4332SOL    HW215004   5.949   1.847   6.735  2.6290  2.0790  2.5009
 4333SOL     OW15005   5.123   4.128   8.593 -0.3969  0.7449  0.5448
 4333SOL    HW115006   5.126   4.145   8.687 -1.6422  0.2019  0.7084
 4333SOL    HW215007   5.210   4.095   8.572 -0.0753  0.9634  1.4906
 4334SOL     OW15008  10.181   0.535   7.285 -0.0805  0.1369  0.1280
 4334SOL    HW115009  10.121   0.492   7.225  0.1893 -2.2912  1.4509
 4334SOL    HW215010  10.125   0.579   7.349 -0.3840  0.8319 -0.6091
 4335SOL     OW15011   6.573   0.479   3.201 -0.0463 -0.3530  0.2908
 4335SOL    HW115012   6.487   0.437   3.194 -0.7714  0.5560  2.6113
 4335SOL    HW215013   6.617   0.430   3.271  1.0304 -0.3154 -0.3481
 4336SOL     OW15014   8.263   1.325   0.592 -0.1151 -0.8642  0.1580
 4336SOL    HW115015   8.256   1.256   0.658  0.6054  0.0435  1.1982
 4336SOL    HW215016   8.273   1.406   0.641 -0.5322 -0.0344 -1.0512
 4337SOL     OW15017   3.312   7.305   4.805 -0.0703 -0.1793  0.0637
 4337SOL    HW115018   3.291   7.393   4.775  0.0871 -0.4978 -1.0282
 4337SOL    HW215019   3.407   7.299   4.795 -0.1999 -0.8256 -0.9040
 4338SOL     OW15020  10.509   5.584   3.722  0.1692 -0.1160  0.1421
 4338SOL    HW115021  10.434   5.578   3.663 -0.2697 -0.9891  0.7629
 4338SOL    HW215022  10.482   5.649   3.787  1.3359  2.1581 -1.5346
 4339SOL     OW15023   0.925   4.636   6.919  0.4024  0.2074 -0.0763
 4339SOL    HW115024   0.880   4.717   6.944  0.2383 -0.0251  0.3892
 4339SOL    HW215025   0.903   4.624   6.826 -0.6830 -0.0076  0.1877
 4340SOL     OW15026   2.201   5.332   0.121  0.6297  0.2938  0.5880
 4340SOL    HW115027   2.246   5.259   0.077 -2.0676 -1.4567  0.4950
 4340SOL    HW215028   2.241   5.411   0.084  0.5267 -1.1124 -2.8485
 4341SOL     OW15029  10.407  10.103   0.762 -0.7972 -0.3021  0.1599
 4341SOL    HW115030  10.397  10.186   0.714 -1.8401 -0.3247  0.3226
 4341SOL    HW215031  10.456  10.047   0.702 -0.4088  0.3033 -0.1049
 4342SOL     OW15032   2.059   2.538   5.420  0.3292  0.0371  0.6616
 4342SOL    HW115033   2.105   2.462   5.385 -0.4167 -0.0693 -0.1304
 4342SOL    HW215034   2.014   2.505   5.497  0.9721 -0.0327  1.0125
 4343SOL     OW15035   3.008   0.845   0.420  0.6452  0.1216  0.3990
 4343SOL    HW115036   3.100   0.839   0.392  0.0183  1.3599 -2.2700
 4343SOL    HW215037   2.990   0.939   0.420 -0.7115 -0.1295  0.5606
 4344SOL     OW15038   7.650   6.380   7.858 -0.3145 -0.1585  1.0853
 4344SOL    HW115039   7.643   6.407   7.767  0.2650 -0.6223  0.8986
 4344SOL    HW215040   7.691   6.455   7.902  2.1463 -1.0039  0.4005
 4345SOL     OW15041   0.626   6.895   2.990  0.2130  0.2187  0.2306
 4345SOL    HW115042   0.568   6.819   2.998 -0.2204  0.6124  0.9678
 4345SOL    HW215043   0.596   6.939   2.911  0.2992 -0.2368 -0.0599
 4346SOL     OW15044   2.886   5.111   5.036  0.2892 -0.0705  0.3388
 4346SOL    HW115045   2.919   5.199   5.018  0.0411 -0.2789 -1.2782
 4346SOL    HW215046   2.802   5.127   5.081 -1.1176  0.6548 -2.2979
 4347SOL     OW15047   3.930   6.652   0.111 -0.5721 -0.6753  0.6767
 4347SOL    HW115048   3.984   6.655   0.190 -0.3000  0.4261  0.4551
 4347SOL    HW215049   3.986   6.609   0.046 -0.1958 -0.1309  0.6331
 4348SOL     OW15050   7.401   2.629   8.240  0.0776 -0.1638  0.1113
 4348SOL    HW115051   7.378   2.540   8.214  1.3516  0.1434 -2.2839
 4348SOL    HW215052   7.339   2.685   8.192  0.4027  0.3092  0.2286
 4349SOL     OW15053   8.393   6.278  10.754  0.2063  0.7156 -0.2651
 4349SOL    HW115054   8.454   6.280  10.828 -1.1493  0.9277  0.9131
 4349SOL    HW215055   8.349   6.363  10.758 -0.6100  0.3264 -0.6600
 4350SOL     OW15056   6.734   8.299   5.618  0.0511  0.0196  0.7230
 4350SOL    HW115057   6.711   8.307   5.525 -0.3323  1.8403  0.9349
 4350SOL    HW215058   6.650   8.303   5.664  0.2172 -1.1273  1.1551
 4351SOL     OW15059   8.472   4.696   7.572  0.3369  0.1030  0.0343
 4351SOL    HW115060   8.536   4.636   7.610  0.9457  0.1052 -0.9627
 4351SOL    HW215061   8.428   4.645   7.504  0.6226  0.6661 -0.5913
 4352SOL     OW15062   4.348   8.696   5.255 -0.2152 -0.2943  0.3606
 4352SOL    HW115063   4.259   8.714   5.286  0.1128  1.1302  0.5245
 4352SOL    HW215064   4.402   8.762   5.299  0.7134 -0.2107 -0.8769
 4353SOL     OW15065   1.010   3.511  10.203 -0.0695 -0.3856 -0.1915
 4353SOL    HW115066   0.966   3.569  10.266 -1.6252 -1.0826 -0.5946
 4353SOL    HW215067   1.054   3.571  10.143  2.3599  0.2938  2.1082
 4354SOL     OW15068   9.427   4.781   8.127 -0.0725 -0.0014  0.1192
 4354SOL    HW115069   9.433   4.728   8.206 -1.7179 -1.8244 -0.9013
 4354SOL    HW215070   9.518   4.806   8.108  0.4491 -0.3082  2.0332
 4355SOL     OW15071  10.951   2.800  10.569 -0.0926 -0.0479 -0.0736
 4355SOL    HW115072  10.913   2.718  10.603 -0.4351  0.8315  1.7946
 4355SOL    HW215073  11.016   2.771  10.505  0.6460 -1.8701  1.3970
 4356SOL     OW15074   7.510   8.368   9.009  0.3655 -0.3555 -0.5894
 4356SOL    HW115075   7.568   8.356   9.084  2.3199 -0.0321 -1.9772
 4356SOL    HW215076   7.450   8.293   9.013  2.5595 -2.1966 -0.5222
 4357SOL     OW15077   7.901   6.241   9.053 -1.0049  0.0365  0.0437
 4357SOL    HW115078   7.986   6.205   9.027 -0.4895  1.0166  0.3285
 4357SOL    HW215079   7.914   6.335   9.053 -2.0184  0.1875  0.3832
 4358SOL     OW15080   4.173   3.475   1.411  0.2871 -0.7572  0.1930
 4358SOL    HW115081   4.114   3.460   1.337 -0.1283 -1.3269  0.6392
 4358SOL    HW215082   4.121   3.456   1.488  0.7090 -0.1224  0.6466
 4359SOL     OW15083   1.557   1.108   0.178 -0.1822  0.8946 -0.1795
 4359SOL    HW115084   1.524   1.050   0.247 -0.1241  1.1256  0.0450
 4359SOL    HW215085   1.478   1.146   0.140 -0.3871 -0.9771 -1.8218
 4360SOL     OW15086   9.565   5.358   0.132 -0.4883 -0.0345  0.1952
 4360SOL    HW115087   9.542   5.268   0.108 -0.0154 -0.9934  3.0157
 4360SOL    HW215088   9.505   5.380   0.202 -0.8940  2.0801 -0.7573
 4361SOL     OW15089   9.384   3.544   6.315  0.1433  0.8456 -0.9517
 4361SOL    HW115090   9.478   3.542   6.333  0.0474 -0.4666 -0.4598
 4361SOL    HW215091   9.364   3.637   6.302  1.5533  1.1256 -1.3818
 4362SOL     OW15092   5.212   4.112   7.092  0.1671  0.7830  0.5255
 4362SOL    HW115093   5.231   4.083   7.003  3.1121  1.6517  0.7596
 4362SOL    HW215094   5.226   4.033   7.146 -2.5462  0.0030  0.2347
 4363SOL     OW15095   6.928   4.342   5.383 -0.0214 -0.0055 -0.2188
 4363SOL    HW115096   6.858   4.277   5.380 -1.5729  1.6353 -1.5477
 4363SOL    HW215097   6.943   4.366   5.292  0.2681  1.7453  0.2593
 4364SOL     OW15098   9.336   7.014   1.223 -0.2134  0.0780  0.4702
 4364SOL    HW115099   9.266   7.020   1.158 -1.1449 -0.4021  1.4198
 4364SOL    HW215100   9.346   7.104   1.255 -0.8406  0.0268  0.8040
 4365SOL     OW15101   8.854   0.639   0.838 -0.2958  0.3451  0.5002
 4365SOL    HW115102   8.870   0.732   0.821  0.4174 -0.2038 -2.4577
 4365SOL    HW215103   8.763   0.626   0.811 -0.6899  0.3240  1.7848
 4366SOL     OW15104   4.195   9.249   3.027  0.2463  0.5527  0.3048
 4366SOL    HW115105   4.287   9.261   3.050  0.6539 -1.9034  0.1581
 4366SOL    HW215106   4.166   9.176   3.081 -0.9230 -0.3057 -1.4149
 4367SOL     OW15107   7.212   8.145   8.069 -0.3167  0.1998  0.0778
 4367SOL    HW115108   7.239   8.070   8.017 -2.5775  1.0430 -2.5114
 4367SOL    HW215109   7.257   8.220   8.029  0.6903  0.4756  1.6394
 4368SOL     OW15110   4.809   1.285   5.057 -0.5736 -0.1235  1.2671
 4368SOL    HW115111   4.868   1.348   5.015  0.9328 -2.1397  0.1197
 4368SOL    HW215112   4.867   1.216   5.088 -2.2847 -2.3223 -0.0991
 4369SOL     OW15113   8.330   9.359   3.736  0.4690 -0.4873  0.4521
 4369SOL    HW115114   8.352   9.284   3.681  0.4248 -0.0666 -0.1481
 4369SOL    HW215115   8.377   9.343   3.818  3.8828  0.8214 -1.0436
 4370SOL     OW15116   5.422  10.423   5.131  0.1968  0.0835  0.5171
 4370SOL    HW115117   5.463  10.374   5.059 -0.5889 -1.5477  1.1377
 4370SOL    HW215118   5.328  10.419   5.112 -0.0087 -0.2831  1.5759
 4371SOL     OW15119   7.816   3.304  10.332 -0.6232  0.3504  0.0395
 4371SOL    HW115120   7.750   3.334  10.395  0.0014 -0.6932  1.2356
 4371SOL    HW215121   7.789   3.342  10.249 -1.9734  1.0464  0.7660
 4372SOL     OW15122   3.715   5.566   9.399  0.1174 -0.2801  0.5964
 4372SOL    HW115123   3.659   5.601   9.330 -1.0200 -0.8075  1.2160
 4372SOL    HW215124   3.725   5.638   9.461 -0.3979 -0.3676  0.7868
 4373SOL     OW15125   9.681  10.446   1.342  0.0757  0.0849  0.0680
 4373SOL    HW115126   9.667  10.529   1.387  1.2561 -0.6811  1.9475
 4373SOL    HW215127   9.711  10.386   1.410  0.1154 -1.6606 -1.4060
 4374SOL     OW15128   1.421   5.163   6.772  0.2484 -0.0273  0.0539
 4374SOL    HW115129   1.432   5.246   6.820 -0.8647  0.2887 -0.1948
 4374SOL    HW215130   1.441   5.186   6.681 -0.2023  0.0205 -0.0388
 4375SOL     OW15131   9.273   6.072   4.983  0.1464 -0.2121 -0.5007
 4375SOL    HW115132   9.250   6.086   4.891 -3.4292 -0.6012  0.1835
 4375SOL    HW215133   9.281   6.160   5.019 -0.0616 -0.0585 -0.8254
 4376SOL     OW15134   9.228   5.910   2.806  0.5024  0.5763 -0.3498
 4376SOL    HW115135   9.240   5.995   2.763  1.1411  0.0903 -1.1684
 4376SOL    HW215136   9.254   5.846   2.739 -1.0535 -0.3144 -0.1331
 4377SOL     OW15137   4.460   5.063   9.544 -0.1215  0.4388  0.3533
 4377SOL    HW115138   4.538   5.119   9.536 -0.2596  0.8140  1.4778
 4377SOL    HW215139   4.388   5.118   9.514  0.2956 -0.8877 -3.8777
 4378SOL     OW15140   3.510   5.704   4.419 -0.0086  0.2599  0.1982
 4378SOL    HW115141   3.421   5.721   4.391 -0.6319 -2.5290  0.2038
 4378SOL    HW215142   3.542   5.636   4.360  1.1718 -0.6423  1.7736
 4379SOL     OW15143   3.553   5.683   5.789  0.2177  0.1608 -0.1765
 4379SOL    HW115144   3.626   5.644   5.741 -0.8369 -0.1411 -1.5881
 4379SOL    HW215145   3.513   5.609   5.834 -1.4366 -0.3651 -2.3971
 4380SOL     OW15146   3.722   1.516   5.215 -0.2505 -0.2252  0.3308
 4380SOL    HW115147   3.752   1.564   5.292 -1.4293 -0.1281  0.7361
 4380SOL    HW215148   3.662   1.576   5.171  0.0506 -0.4593 -0.4127
 4381SOL     OW15149   7.439   8.961   6.474 -0.4284 -0.1110  0.2069
 4381SOL    HW115150   7.532   8.985   6.483  0.1799 -1.4691 -1.7295
 4381SOL    HW215151   7.415   8.990   6.386 -0.8900 -2.5340 -0.5447
 4382SOL     OW15152   1.822   2.479   3.196  0.4260  0.0573  0.2479
 4382SOL    HW115153   1.747   2.491   3.255  1.0800 -1.8054  1.5282
 4382SOL    HW215154   1.895   2.457   3.254  1.9270  1.4771 -1.0066
 4383SOL     OW15155   6.806   8.759  10.720 -0.4041  0.0716 -0.6206
 4383SOL    HW115156   6.821   8.695  10.790  0.9153  0.0428 -0.8916
 4383SOL    HW215157   6.836   8.714  10.641  1.0210  1.1705 -0.7487
 4384SOL     OW15158   1.940   6.947   8.528  0.4809 -0.0526 -0.0667
 4384SOL    HW115159   1.992   6.866   8.522 -0.7797 -1.0289  1.4322
 4384SOL    HW215160   1.956   6.992   8.445  0.7005 -2.1671 -1.2402
 4385SOL     OW15161   4.334   2.798   2.676  0.1756  0.6280 -0.5751
 4385SOL    HW115162   4.375   2.758   2.753  0.6992  1.5000 -0.3863
 4385SOL    HW215163   4.258   2.743   2.658  1.2933 -0.9048 -0.7913
 4386SOL     OW15164   3.075   9.371   3.853  0.7428  0.0107 -0.0083
 4386SOL    HW115165   3.130   9.421   3.793  0.2494 -1.2059 -1.5495
 4386SOL    HW215166   3.078   9.281   3.820  1.2844 -0.9563  2.4246
 4387SOL     OW15167   4.799   5.239   8.877 -0.2363 -0.4738  0.1365
 4387SOL    HW115168   4.884   5.219   8.840 -0.3611  1.0828 -1.0737
 4387SOL    HW215169   4.784   5.170   8.942  1.6540 -1.1098 -0.0593
 4388SOL     OW15170   9.539   1.304   1.123  0.2284  0.1655  0.4026
 4388SOL    HW115171   9.525   1.398   1.127 -0.4320  0.0381  1.4574
 4388SOL    HW215172   9.622   1.294   1.077 -0.0676  1.2235 -0.3989
 4389SOL     OW15173   6.307   5.448   5.044  0.1875 -0.4302  0.3837
 4389SOL    HW115174   6.284   5.359   5.072 -2.0698 -0.0670 -0.1481
 4389SOL    HW215175   6.332   5.493   5.124  0.7829 -1.3669  0.7428
 4390SOL     OW15176   8.531   2.361   5.762  0.0913 -0.5213  0.3036
 4390SOL    HW115177   8.458   2.355   5.700 -0.0631 -0.8582  0.5161
 4390SOL    HW215178   8.524   2.450   5.797  0.9877  0.1645 -1.1307
 4391SOL     OW15179   1.526   8.198   1.199 -0.1754 -0.0115  0.7394
 4391SOL    HW115180   1.552   8.222   1.288  2.1762 -1.6012  0.5572
 4391SOL    HW215181   1.494   8.108   1.206 -2.4962  0.7087  0.3350
 4392SOL     OW15182   9.610   4.254   3.828 -0.2355 -0.8466 -0.6737
 4392SOL    HW115183   9.573   4.168   3.811  0.9642 -1.5516  0.1892
 4392SOL    HW215184   9.577   4.279   3.914 -0.2500 -0.6009 -0.7466
 4393SOL     OW15185  10.495   9.538   7.977 -0.1373  0.1063  0.6898
 4393SOL    HW115186  10.560   9.563   8.043 -0.4315  2.5837  0.1465
 4393SOL    HW215187  10.414   9.582   8.005 -1.0147 -1.1424  0.1892
 4394SOL     OW15188   3.665   7.229   5.249  0.2783 -0.2461 -0.5862
 4394SOL    HW115189   3.626   7.174   5.181 -0.5037 -0.3645 -0.0583
 4394SOL    HW215190   3.661   7.176   5.329  0.7639  0.0631 -0.3508
 4395SOL     OW15191   0.018   7.458  10.055  0.2810 -0.0409 -0.4978
 4395SOL    HW115192   0.080   7.511  10.105 -0.0262  2.6213 -2.7097
 4395SOL    HW215193   0.073   7.400  10.002  0.6240 -1.8307  1.6477
 4396SOL     OW15194   3.553   2.257   0.369 -0.4844 -0.5327  0.2571
 4396SOL    HW115195   3.594   2.177   0.336 -1.1233 -0.4144 -0.8886
 4396SOL    HW215196   3.462   2.232   0.387 -0.3615 -0.3771  1.1617
 4397SOL     OW15197  10.257   6.146   0.474  0.3752  0.5368  0.4832
 4397SOL    HW115198  10.178   6.184   0.511 -0.3388 -0.1441 -0.2890
 4397SOL    HW215199  10.318   6.138   0.548 -0.0975  1.5039  0.9877
 4398SOL     OW15200   2.362   7.777   4.867  0.0578  0.0228  0.0748
 4398SOL    HW115201   2.280   7.792   4.915 -0.2092  0.5862 -0.5335
 4398SOL    HW215202   2.415   7.724   4.926 -0.6239 -0.0851  0.6094
 4399SOL     OW15203  10.205   3.996   7.122 -0.2279  0.1001 -0.3076
 4399SOL    HW115204  10.114   3.975   7.104  0.2190 -0.5682 -1.9659
 4399SOL    HW215205  10.241   4.023   7.038  0.8222  1.5088  0.5377
 4400SOL     OW15206   5.206   5.205   6.722  0.4466  0.2076 -0.3798
 4400SOL    HW115207   5.150   5.283   6.725  0.0801 -0.0460 -0.5679
 4400SOL    HW215208   5.190   5.162   6.806 -0.8899 -0.7215 -1.0822
 4401SOL     OW15209   0.660   6.973   1.325 -0.5243  0.4058 -0.5004
 4401SOL    HW115210   0.571   7.007   1.323 -0.5995  0.1844 -0.9158
 4401SOL    HW215211   0.683   6.959   1.234 -0.4800 -0.6087 -0.3462
 4402SOL     OW15212   6.740   0.255   7.018  0.3387 -0.2512 -0.1434
 4402SOL    HW115213   6.718   0.196   7.090  0.4496 -1.9025 -1.4044
 4402SOL    HW215214   6.834   0.269   7.026  0.7250 -2.0518 -1.0801
 4403SOL     OW15215   6.547   1.980   6.831 -0.3377  0.0952  0.8834
 4403SOL    HW115216   6.625   2.022   6.794  1.3059 -1.9058  1.8629
 4403SOL    HW215217   6.541   2.013   6.920 -0.9353  0.6277  0.6533
 4404SOL     OW15218   0.325   5.939   4.107 -0.1232 -0.2719 -0.1258
 4404SOL    HW115219   0.392   5.876   4.080 -0.2684  0.2294 -1.7702
 4404SOL    HW215220   0.263   5.888   4.159  0.1418 -1.3160 -0.8047
 4405SOL     OW15221   9.408   0.847   3.290  0.4084 -0.0699 -0.4257
 4405SOL    HW115222   9.383   0.939   3.279 -0.4538 -0.1226  0.8846
 4405SOL    HW215223   9.463   0.828   3.214 -0.3243  1.2074 -1.3126
 4406SOL     OW15224   0.133   2.309   4.880 -0.0316 -0.4564  0.3025
 4406SOL    HW115225   0.044   2.301   4.913 -0.0081 -3.1589 -0.1088
 4406SOL    HW215226   0.181   2.238   4.922  1.8125  0.5826  0.0621
 4407SOL     OW15227   4.955   3.998   5.655  0.5523  0.1904 -0.0376
 4407SOL    HW115228   4.916   4.051   5.724  1.3126  1.2559 -0.4014
 4407SOL    HW215229   5.007   3.933   5.701 -0.7428 -0.5740  0.4245
 4408SOL     OW15230   0.123   0.320   0.225  0.0181 -0.3783  0.1399
 4408SOL    HW115231   0.179   0.292   0.153  0.1376 -1.6341  0.6825
 4408SOL    HW215232   0.184   0.330   0.299 -0.6316 -4.9188  1.6510
 4409SOL     OW15233   1.365   7.233   8.618 -0.4717 -0.0255 -0.1027
 4409SOL    HW115234   1.275   7.253   8.592 -0.9553  0.6890  1.9538
 4409SOL    HW215235   1.417   7.305   8.583 -0.7026 -0.3653 -1.1757
 4410SOL     OW15236   3.593   5.435   8.882 -0.4232  0.0540  0.3515
 4410SOL    HW115237   3.665   5.496   8.900  0.2987 -0.4568 -0.6683
 4410SOL    HW215238   3.562   5.409   8.968  2.3906 -1.7413  0.9685
 4411SOL     OW15239   7.417   8.728   8.505 -0.5182 -0.0822 -0.8230
 4411SOL    HW115240   7.415   8.810   8.456 -0.4924  0.2474 -0.2743
 4411SOL    HW215241   7.492   8.681   8.470  1.2115  1.3286  0.7707
 4412SOL     OW15242   1.271   8.987   6.080  0.0092 -0.1016  0.3238
 4412SOL    HW115243   1.350   9.035   6.054 -0.1455 -0.4986 -0.9146
 4412SOL    HW215244   1.303   8.905   6.117  0.1878  0.0510  0.5150
 4413SOL     OW15245   6.938   1.336   9.416  0.2921  0.0864 -0.1690
 4413SOL    HW115246   6.856   1.385   9.418 -0.3344 -0.9205 -0.2969
 4413SOL    HW215247   6.975   1.356   9.330  1.3557  2.3341  0.7249
 4414SOL     OW15248   4.989   8.377  10.851 -0.5395  0.4946  0.1742
 4414SOL    HW115249   5.061   8.318  10.827 -0.4403  1.1506 -1.1888
 4414SOL    HW215250   5.028   8.436  10.916 -0.4833 -0.5587  1.1270
 4415SOL     OW15251  10.340   8.122   0.876  0.6962 -0.6232 -0.5421
 4415SOL    HW115252  10.247   8.112   0.896  0.7462  2.5706  2.0660
 4415SOL    HW215253  10.342   8.147   0.783 -1.0896 -0.3507 -0.5398
 4416SOL     OW15254   8.683   5.891   6.295  0.1758  0.1472 -0.4349
 4416SOL    HW115255   8.611   5.954   6.301  0.8328  0.8107  0.6369
 4416SOL    HW215256   8.640   5.805   6.306 -0.3908  0.5611  0.7708
 4417SOL     OW15257   5.340  10.998   3.328  0.0318 -0.4247  0.5884
 4417SOL    HW115258   5.347  11.075   3.384 -0.7961 -1.1731  1.7537
 4417SOL    HW215259   5.428  10.961   3.327  0.6114  0.9131 -0.5751
 4418SOL     OW15260  10.193   4.900   1.529  0.3578 -0.2332  0.1349
 4418SOL    HW115261  10.253   4.878   1.600 -1.4971 -1.5353  1.3887
 4418SOL    HW215262  10.131   4.827   1.526 -1.0546  0.9428 -1.2109
 4419SOL     OW15263   8.704   9.187  10.120  0.7693  0.1182  0.2856
 4419SOL    HW115264   8.651   9.170  10.042 -0.3365 -1.0997  1.2722
 4419SOL    HW215265   8.794   9.195  10.086  0.2896 -0.1973 -1.1220
 4420SOL     OW15266   8.848   1.199   2.524  0.7297  0.4346  0.1440
 4420SOL    HW115267   8.876   1.132   2.586  0.6326 -0.7353 -1.0184
 4420SOL    HW215268   8.880   1.281   2.561  1.5841 -0.3364  1.1927
 4421SOL     OW15269   5.744   1.549   6.477  0.6893 -0.2012 -0.2294
 4421SOL    HW115270   5.698   1.467   6.498 -1.9681  1.0581 -0.7298
 4421SOL    HW215271   5.786   1.575   6.559  2.3582 -2.4601 -0.2818
 4422SOL     OW15272   4.748   4.214   9.051 -0.2430 -0.0058  0.1359
 4422SOL    HW115273   4.733   4.133   9.101  0.5970  1.5169  3.0345
 4422SOL    HW215274   4.660   4.250   9.038 -0.5141 -0.6726  0.0797
 4423SOL     OW15275   9.563   7.693  10.729  0.2347  0.1867  0.5737
 4423SOL    HW115276   9.592   7.630  10.795  0.9193 -0.7718 -0.6140
 4423SOL    HW215277   9.469   7.674  10.718  0.2218  0.0332  0.9320
 4424SOL     OW15278   4.425   4.507   4.236 -0.2495  0.5448 -0.7292
 4424SOL    HW115279   4.333   4.494   4.213 -0.3867  1.5608 -0.8176
 4424SOL    HW215280   4.423   4.558   4.317  0.2459 -1.0004  0.2823
 4425SOL     OW15281   8.190  10.847   3.898  0.2156  0.0121  0.1820
 4425SOL    HW115282   8.138  10.901   3.957  1.3059  1.6363 -0.2599
 4425SOL    HW215283   8.127  10.814   3.834 -0.4314  1.3360  0.0853
 4426SOL     OW15284   7.124   4.620   2.289 -0.0152  0.1660  0.0718
 4426SOL    HW115285   7.125   4.550   2.224 -1.9505  0.0047  0.1574
 4426SOL    HW215286   7.107   4.576   2.372  0.7630  0.5468  0.4450
 4427SOL     OW15287   2.658  10.451  10.511 -0.0475 -0.1694  0.3067
 4427SOL    HW115288   2.654  10.545  10.529  0.9120 -0.0597  0.0074
 4427SOL    HW215289   2.591  10.413  10.568 -1.1836  0.7956 -0.3319
 4428SOL     OW15290   4.231   8.078   0.193 -0.6273 -0.2428  0.0745
 4428SOL    HW115291   4.283   8.133   0.135  1.0751 -1.7658  0.0423
 4428SOL    HW215292   4.294   8.049   0.260 -1.8581 -0.8047  1.0223
 4429SOL     OW15293   1.435   0.151   2.284 -0.6899  0.1415 -0.1709
 4429SOL    HW115294   1.417   0.112   2.369 -0.9405 -0.0413 -0.3076
 4429SOL    HW215295   1.371   0.111   2.225 -0.1857 -0.1257 -0.5515
 4430SOL     OW15296   9.603   1.344   7.276  0.5183 -0.0204  0.9970
 4430SOL    HW115297   9.581   1.284   7.205  1.8766 -1.8433  2.0312
 4430SOL    HW215298   9.695   1.366   7.261  0.4613  0.5742  1.5027
 4431SOL     OW15299   9.377   7.789   5.864 -0.1667 -0.0126  0.0575
 4431SOL    HW115300   9.414   7.870   5.830  0.4588 -0.8453 -1.3306
 4431SOL    HW215301   9.305   7.817   5.921 -0.3676  1.4925 -0.8856
 4432SOL     OW15302   4.534   8.584  10.362 -0.2575  0.0134 -0.0158
 4432SOL    HW115303   4.611   8.596  10.307 -1.4392  0.0637 -1.7194
 4432SOL    HW215304   4.496   8.671  10.370  0.4869  0.2226  1.8641
 4433SOL     OW15305   0.022   1.693   3.202  0.1878  0.2768 -0.2495
 4433SOL    HW115306  -0.023   1.762   3.152  0.3829  0.6411  0.0667
 4433SOL    HW215307   0.017   1.616   3.146 -0.7035  0.3488 -0.2760
 4434SOL     OW15308   1.760  10.888   0.815 -0.4943 -0.0388  0.0394
 4434SOL    HW115309   1.781  10.978   0.792 -2.7730  0.0654 -2.0369
 4434SOL    HW215310   1.686  10.896   0.876 -1.1116 -0.4908 -0.6410
 4435SOL     OW15311  10.324   1.894   3.845 -0.1571  0.3041 -0.4652
 4435SOL    HW115312  10.368   1.970   3.805  1.3059 -0.2201  0.0774
 4435SOL    HW215313  10.349   1.821   3.789 -1.1839  0.1417 -0.7175
 4436SOL     OW15314   4.390   0.843   8.199  0.8453  0.1926  0.7834
 4436SOL    HW115315   4.373   0.827   8.291  1.3634 -1.3085  0.6471
 4436SOL    HW215316   4.432   0.929   8.197 -1.7885  1.6020  1.6133
 4437SOL     OW15317  10.191  10.788   4.995  0.0177  0.3453 -0.4990
 4437SOL    HW115318  10.154  10.755   4.913 -0.0824 -0.2839 -0.2110
 4437SOL    HW215319  10.165  10.723   5.061  1.4634 -0.0307 -0.2590
 4438SOL     OW15320  10.942   6.159   3.037 -0.4362  0.1009 -0.4870
 4438SOL    HW115321  10.936   6.071   2.999 -2.9558 -0.1060  0.1805
 4438SOL    HW215322  10.853   6.194   3.031  0.0543  1.8178  1.1108
 4439SOL     OW15323   9.083   2.144  10.910  0.0935 -0.8718  0.0708
 4439SOL    HW115324   9.061   2.089  10.835 -0.0623 -1.3122  0.4304
 4439SOL    HW215325   9.025   2.113  10.980  1.5717 -1.8319  0.9397
 4440SOL     OW15326   5.483   5.387   0.899  0.1767 -0.2517  0.0134
 4440SOL    HW115327   5.414   5.333   0.938  1.3119 -2.3638 -0.7281
 4440SOL    HW215328   5.460   5.476   0.923 -2.9014 -0.8286 -0.3297
 4441SOL     OW15329   2.088   3.529   3.323 -0.2023  0.5611  0.3394
 4441SOL    HW115330   2.178   3.557   3.306  0.7660 -2.7309 -0.7039
 4441SOL    HW215331   2.055   3.498   3.239 -1.4853 -0.4074  1.1519
 4442SOL     OW15332   0.092   4.162   9.369  0.0008 -0.2987  0.1915
 4442SOL    HW115333   0.175   4.184   9.413 -0.2415  1.0354  0.0359
 4442SOL    HW215334   0.090   4.219   9.292 -1.8170  0.9300  1.0719
 4443SOL     OW15335  10.319   5.837  10.102  0.0971  0.2975  0.2547
 4443SOL    HW115336  10.286   5.895  10.170 -1.1649  1.2268 -1.0676
 4443SOL    HW215337  10.349   5.895  10.032  1.3219 -0.6162 -0.0148
 4444SOL     OW15338   1.531   5.328   0.884  0.0685 -0.6594 -0.4397
 4444SOL    HW115339   1.476   5.396   0.845 -1.4805 -0.9660  1.0836
 4444SOL    HW215340   1.472   5.254   0.896  1.5088 -1.9767 -1.2362
 4445SOL     OW15341   1.352   3.234   0.959  0.0934 -0.3940 -0.1834
 4445SOL    HW115342   1.329   3.260   1.049  0.5772 -0.0693 -0.1494
 4445SOL    HW215343   1.326   3.309   0.906 -0.2366 -0.6057 -0.3225
 4446SOL     OW15344   9.326   9.857   3.836  0.4719  0.2853 -0.3534
 4446SOL    HW115345   9.369   9.771   3.838 -0.9990 -0.4698  0.2708
 4446SOL    HW215346   9.335   9.890   3.925 -0.7930 -0.1963 -0.0220
 4447SOL     OW15347   4.935   9.767   4.017 -0.4211 -0.0751 -0.0367
 4447SOL    HW115348   4.854   9.723   3.993 -0.9346  0.6391  0.3456
 4447SOL    HW215349   5.000   9.697   4.025 -1.5392 -0.9494  2.0074
 4448SOL     OW15350   5.527   2.932   0.198  0.3846 -0.8064 -0.0611
 4448SOL    HW115351   5.536   3.013   0.148 -0.1804 -1.5623 -1.4766
 4448SOL    HW215352   5.467   2.879   0.145  0.5784 -2.0656  0.9376
 4449SOL     OW15353   2.934   1.197   0.092  0.4074 -0.5631 -0.1788
 4449SOL    HW115354   2.925   1.290   0.113 -0.0449 -0.9843  1.6724
 4449SOL    HW215355   3.029   1.182   0.090  0.4767 -0.1226 -0.1972
 4450SOL     OW15356   4.061   5.751   1.485  0.9204  0.4228  0.1201
 4450SOL    HW115357   4.079   5.657   1.488  3.0675  0.8073  0.6839
 4450SOL    HW215358   4.120   5.790   1.549 -1.4733  2.0014  1.5600
 4451SOL     OW15359  10.261   5.880   3.507 -0.1023 -0.1626 -0.0327
 4451SOL    HW115360  10.344   5.927   3.494 -0.9349  1.1638 -0.7052
 4451SOL    HW215361  10.199   5.947   3.533 -0.4961 -1.4554  2.8168
 4452SOL     OW15362  10.253   9.498   8.497  0.0164 -0.2115 -0.8466
 4452SOL    HW115363  10.314   9.560   8.539 -1.1601  1.0236 -0.8819
 4452SOL    HW215364  10.232   9.436   8.566  1.0970 -0.4995 -0.7546
 4453SOL     OW15365   0.392   4.490   2.829 -0.3135  0.3668  0.0562
 4453SOL    HW115366   0.354   4.449   2.906 -1.4366 -1.3864 -1.3356
 4453SOL    HW215367   0.319   4.536   2.787  0.1699  0.9188 -0.1932
 4454SOL     OW15368   2.968   1.866   3.543 -0.6954 -0.6562 -0.0272
 4454SOL    HW115369   3.024   1.854   3.466  1.0056 -1.3277  1.2324
 4454SOL    HW215370   2.918   1.785   3.549 -1.7014 -0.1264 -1.0665
 4455SOL     OW15371   9.204  10.699   1.059  0.3672  0.1448  0.2552
 4455SOL    HW115372   9.252  10.701   0.976  0.1270 -0.6214  0.0868
 4455SOL    HW215373   9.161  10.785   1.064  1.4773  0.7117  0.2576
 4456SOL     OW15374   2.406   3.561   7.870 -0.5280 -0.1147  0.1521
 4456SOL    HW115375   2.326   3.586   7.916  0.4419  1.9552  0.8292
 4456SOL    HW215376   2.471   3.548   7.939 -0.0468 -0.9895 -0.4377
 4457SOL     OW15377   3.697   0.785   1.122  0.1305 -0.1897  0.3494
 4457SOL    HW115378   3.646   0.863   1.100  0.6973  0.1222  0.1016
 4457SOL    HW215379   3.780   0.819   1.156  0.3822 -0.6838  0.2487
 4458SOL     OW15380   9.271   6.517   8.508  0.0452  0.0298  0.4384
 4458SOL    HW115381   9.332   6.476   8.447 -0.3217  0.0292  0.0719
 4458SOL    HW215382   9.189   6.471   8.496  0.0446 -0.1674  1.1496
 4459SOL     OW15383   2.720   3.152   6.276 -0.2349  0.0187 -0.3823
 4459SOL    HW115384   2.803   3.199   6.264 -0.8598  1.6852  1.4088
 4459SOL    HW215385   2.670   3.172   6.197  0.5200  0.2107 -0.8222
 4460SOL     OW15386   3.345   9.070   3.017  0.1153 -0.0977 -0.4814
 4460SOL    HW115387   3.258   9.033   3.002  1.0998 -2.3154 -1.1798
 4460SOL    HW215388   3.393   9.001   3.063  1.2818  1.3940  0.6328
 4461SOL     OW15389  11.039   7.985   8.037 -0.0061 -0.5234 -0.6631
 4461SOL    HW115390  11.113   7.925   8.032  0.2692 -0.4019  1.1917
 4461SOL    HW215391  11.074   8.062   8.082 -0.5895  0.6641 -2.1739
 4462SOL     OW15392   1.343  10.430   7.983 -0.1074 -0.3422 -0.5297
 4462SOL    HW115393   1.354  10.336   7.996 -1.1221 -0.6692 -1.8585
 4462SOL    HW215394   1.427  10.460   7.949  0.0536 -0.8507 -0.5864
 4463SOL     OW15395   6.978  10.505   8.087 -0.0216 -0.5030 -0.4825
 4463SOL    HW115396   6.902  10.510   8.030 -0.6045  1.1527  0.3913
 4463SOL    HW215397   6.958  10.432   8.147 -0.2039 -1.0732 -1.2262
 4464SOL     OW15398   1.451   9.067   0.141  0.3963 -0.4484 -0.0975
 4464SOL    HW115399   1.478   9.092   0.052 -1.2060  2.4180  0.0683
 4464SOL    HW215400   1.501   9.125   0.198 -1.4119  0.6065  0.5341
 4465SOL     OW15401   0.991   5.745  10.466  0.0097 -0.2326  0.0328
 4465SOL    HW115402   1.062   5.686  10.439  0.7690  0.3513  0.7184
 4465SOL    HW215403   0.913   5.689  10.465  0.3961 -0.8025 -1.0810
 4466SOL     OW15404   2.771   4.577   6.391 -0.3563  0.2597  0.0109
 4466SOL    HW115405   2.695   4.525   6.365 -0.9185  0.8491  0.4632
 4466SOL    HW215406   2.845   4.517   6.380 -1.1163 -1.0521  1.6566
 4467SOL     OW15407   1.161   8.859   2.293  0.4978 -0.2240 -0.2823
 4467SOL    HW115408   1.217   8.936   2.291  0.0569  0.1155  0.0425
 4467SOL    HW215409   1.214   8.792   2.335  0.0629  0.6164  1.7380
 4468SOL     OW15410   3.226   2.992   3.070 -0.1094 -0.1827  0.1348
 4468SOL    HW115411   3.275   2.958   3.145 -0.1260  2.0811  1.2364
 4468SOL    HW215412   3.294   3.028   3.012 -0.3018  1.7057  1.0129
 4469SOL     OW15413   1.945   9.648   6.113 -0.1169 -0.4050 -0.2225
 4469SOL    HW115414   1.897   9.713   6.061  0.6808  0.4994  0.1342
 4469SOL    HW215415   1.939   9.567   6.062 -0.7198  0.0685 -0.9257
 4470SOL     OW15416   3.940   2.688   5.100 -0.3342 -0.6041  0.1676
 4470SOL    HW115417   3.971   2.674   5.010 -0.4042  1.5262 -0.2484
 4470SOL    HW215418   4.003   2.642   5.155  1.8850  1.0540 -0.8173
 4471SOL     OW15419  10.612   7.787   3.794 -0.5361 -0.2092 -0.2584
 4471SOL    HW115420  10.597   7.875   3.761  0.2557 -0.0203 -0.1175
 4471SOL    HW215421  10.524   7.753   3.812 -0.8754  0.3097 -0.9208
 4472SOL     OW15422   7.512   0.669   1.176  0.2152  0.0288 -0.0696
 4472SOL    HW115423   7.596   0.705   1.147 -0.6993  3.3104  0.9444
 4472SOL    HW215424   7.452   0.686   1.104 -0.2526  0.6682  0.4553
 4473SOL     OW15425   2.777   0.053   6.639 -0.2630 -0.5250 -0.1701
 4473SOL    HW115426   2.728   0.125   6.599  0.6444  0.6088  0.6991
 4473SOL    HW215427   2.838   0.096   6.699  0.6583 -1.9972 -0.0112
 4474SOL     OW15428   7.151   8.419   3.594  0.3515 -0.3120  0.9622
 4474SOL    HW115429   7.226   8.402   3.651  0.1615 -2.0159  0.7614
 4474SOL    HW215430   7.086   8.459   3.652  0.6289 -0.8416  1.6559
 4475SOL     OW15431   9.492  10.597   9.910 -0.2532 -0.1926 -0.6564
 4475SOL    HW115432   9.578  10.611   9.951 -0.2727 -0.8092 -0.4010
 4475SOL    HW215433   9.469  10.683   9.875  0.3102  0.0633 -0.4218
 4476SOL     OW15434   7.537   8.316   2.048  0.2063  0.4914  0.2241
 4476SOL    HW115435   7.528   8.347   1.958  0.2840  0.4954  0.2181
 4476SOL    HW215436   7.619   8.267   2.049 -0.5533 -0.8500 -0.0966
 4477SOL     OW15437   0.125   5.110   2.899  0.7275  0.2772  0.4542
 4477SOL    HW115438   0.062   5.040   2.881 -0.9169  1.3341  1.7688
 4477SOL    HW215439   0.127   5.162   2.819 -0.9974  0.8592  0.7285
 4478SOL     OW15440   9.796   9.597   9.131  0.1051  0.3393 -0.7508
 4478SOL    HW115441   9.770   9.667   9.190 -2.6905 -0.3456 -1.0040
 4478SOL    HW215442   9.778   9.631   9.043  1.3995  0.2847 -1.0544
 4479SOL     OW15443   6.462  11.017   7.870 -0.1380 -0.1942  0.7850
 4479SOL    HW115444   6.485  11.108   7.854 -0.9375 -0.3242 -1.3969
 4479SOL    HW215445   6.375  11.021   7.910 -0.3285 -0.0174  0.3498
 4480SOL     OW15446   3.717   1.911   3.330 -0.1521  0.2954  0.1803
 4480SOL    HW115447   3.745   1.984   3.386  2.4729  0.4841 -1.2161
 4480SOL    HW215448   3.745   1.936   3.242 -0.9683 -1.5418 -0.6582
 4481SOL     OW15449   5.832   2.769   4.919 -0.0585  0.0252 -0.0756
 4481SOL    HW115450   5.753   2.747   4.969  0.4766 -0.9736  0.3724
 4481SOL    HW215451   5.901   2.717   4.960  0.2342 -1.6636 -2.5093
 4482SOL     OW15452   9.120   1.759   3.142 -0.6923 -0.4262 -0.2051
 4482SOL    HW115453   9.093   1.823   3.207 -2.4093 -0.6187 -0.6527
 4482SOL    HW215454   9.068   1.781   3.064  1.0703 -0.3903 -1.4205
 4483SOL     OW15455   3.069   0.544   2.484  0.1280  0.3548  0.3276
 4483SOL    HW115456   2.983   0.509   2.508 -0.2826  1.8657  1.2010
 4483SOL    HW215457   3.091   0.500   2.402 -0.3949 -1.7999  1.2759
 4484SOL     OW15458   8.874   9.982  10.001 -0.0717  0.1910 -0.2557
 4484SOL    HW115459   8.893   9.925  10.075 -1.7794  0.3977  0.3824
 4484SOL    HW215460   8.956   9.986   9.952  0.6558 -1.1668  0.7920
 4485SOL     OW15461   5.213  10.666   1.062 -0.3641 -0.0730  0.6406
 4485SOL    HW115462   5.303  10.640   1.079 -1.1172 -2.1343  1.9565
 4485SOL    HW215463   5.205  10.754   1.099  1.2005  0.3474  0.0416
 4486SOL     OW15464   4.042   5.379   0.455  0.1792  0.3139  0.0744
 4486SOL    HW115465   4.086   5.429   0.524 -1.8174  1.4881  0.6036
 4486SOL    HW215466   4.084   5.407   0.374  0.8721  0.8515  0.6072
 4487SOL     OW15467   4.041   9.450   9.728  0.0809  0.1806 -0.1696
 4487SOL    HW115468   4.035   9.545   9.736  1.8587  0.3260 -0.0599
 4487SOL    HW215469   4.039   9.433   9.634  0.8040  0.4407 -0.2393
 4488SOL     OW15470   5.337   1.799  10.022  0.3907  0.3584 -0.0673
 4488SOL    HW115471   5.402   1.800   9.952 -0.6076 -3.6645 -1.3278
 4488SOL    HW215472   5.256   1.829   9.981  0.1131 -0.7195 -0.3600
 4489SOL     OW15473   9.118   6.741   5.010 -0.1543 -0.9105 -0.3872
 4489SOL    HW115474   9.073   6.761   5.092 -1.1355  2.2195 -1.5529
 4489SOL    HW215475   9.145   6.826   4.976  1.2550 -2.2039 -2.7672
 4490SOL     OW15476   0.290  10.151  10.808 -0.3139 -0.3935  0.4999
 4490SOL    HW115477   0.296  10.077  10.868  1.6773 -0.2265  0.5774
 4490SOL    HW215478   0.263  10.112  10.725 -0.8781 -0.9624  0.9452
 4491SOL     OW15479   2.686   4.020   2.415 -0.3770  0.2965  0.0438
 4491SOL    HW115480   2.691   4.006   2.509 -1.4158  0.1713  0.0901
 4491SOL    HW215481   2.593   4.030   2.397 -0.2409 -0.2740 -1.0500
 4492SOL     OW15482   7.346   1.945   2.471 -0.4801  0.1564 -0.0724
 4492SOL    HW115483   7.430   1.962   2.429  0.8935  0.3556  2.5568
 4492SOL    HW215484   7.306   2.031   2.484 -0.4148  0.1816 -0.0406
 4493SOL     OW15485   5.758   1.834  10.327  0.2563  0.1543  0.6467
 4493SOL    HW115486   5.682   1.861  10.275  0.4000  1.4343  1.0611
 4493SOL    HW215487   5.794   1.759  10.280 -0.6286  0.2057 -0.1440
 4494SOL     OW15488   2.102   1.354   0.330  0.2033 -0.3556 -0.2366
 4494SOL    HW115489   2.015   1.387   0.311 -0.0684 -0.7193  0.3417
 4494SOL    HW215490   2.123   1.296   0.257  1.4280  2.3697 -2.2299
 4495SOL     OW15491   7.281   4.289   6.167  0.7989  0.1436 -0.1332
 4495SOL    HW115492   7.249   4.224   6.104  0.5695 -1.0330  1.1377
 4495SOL    HW215493   7.377   4.284   6.159  0.7751 -0.1188 -0.2773
 4496SOL     OW15494  10.491   6.722   2.635  0.3228  0.1652  0.0496
 4496SOL    HW115495  10.446   6.792   2.588  0.2248  0.9504  1.2909
 4496SOL    HW215496  10.556   6.767   2.689  1.3915 -0.8279 -0.3668
 4497SOL     OW15497   7.637   2.917   1.013 -0.0491  0.1783  0.0028
 4497SOL    HW115498   7.710   2.859   0.994 -0.5512 -0.5159  0.1532
 4497SOL    HW215499   7.654   2.995   0.960 -0.8827 -1.3035 -2.6354
 4498SOL     OW15500   4.385   9.259   9.289  0.1167  0.1143 -0.4646
 4498SOL    HW115501   4.409   9.288   9.201  1.8699 -0.2264 -0.1416
 4498SOL    HW215502   4.469   9.239   9.331 -0.7761 -1.3115  0.7365
 4499SOL     OW15503   5.149   8.695   5.296 -0.5003  0.1914  1.0838
 4499SOL    HW115504   5.229   8.679   5.245 -1.4396  1.1633 -0.7744
 4499SOL    HW215505   5.176   8.758   5.363  0.1191  1.2411 -0.1118
 4500SOL     OW15506   7.276   9.054   3.939  0.5990 -0.0693  0.3450
 4500SOL    HW115507   7.356   9.001   3.936 -0.5213 -1.8421 -0.0112
 4500SOL    HW215508   7.240   9.037   4.026  0.6915  0.8762  0.5759
 4501SOL     OW15509   6.626   9.644   7.778 -0.3577 -0.6420  0.1036
 4501SOL    HW115510   6.684   9.607   7.844  0.2674  1.7564  1.0256
 4501SOL    HW215511   6.661   9.732   7.762 -0.8188 -0.9099 -3.0668
 4502SOL     OW15512   7.083   4.517   5.552  0.0007 -0.4353 -0.0270
 4502SOL    HW115513   7.055   4.452   5.487  0.0118  1.4176 -1.9951
 4502SOL    HW215514   7.004   4.537   5.602 -0.3533 -0.8450 -0.4143
 4503SOL     OW15515  10.899   6.863   2.189 -0.0386 -0.1737  0.1099
 4503SOL    HW115516  10.840   6.933   2.162 -0.3273 -0.2899  0.4206
 4503SOL    HW215517  10.845   6.807   2.246 -0.2257 -1.4275 -1.2297
 4504SOL     OW15518   4.747   6.508   4.626  0.1265  0.1991 -1.0517
 4504SOL    HW115519   4.750   6.597   4.663  1.0688  0.3569 -1.4580
 4504SOL    HW215520   4.655   6.484   4.628  0.1277  0.1906  1.3759
 4505SOL     OW15521   6.344   7.285   5.013  0.2839  0.1243  0.7721
 4505SOL    HW115522   6.437   7.305   4.999  0.2020  0.4101  0.6267
 4505SOL    HW215523   6.344   7.217   5.080  0.6642 -0.8893 -0.2232
 4506SOL     OW15524   3.482   2.061   9.853 -0.3135 -0.0369  0.1349
 4506SOL    HW115525   3.410   2.087   9.797 -1.1545 -1.3995  0.5422
 4506SOL    HW215526   3.441   2.042   9.938  0.4136 -1.3377  0.2242
 4507SOL     OW15527   0.268   6.174   9.978 -0.4865  0.0278  0.5553
 4507SOL    HW115528   0.334   6.105   9.966 -0.3279 -0.1401  2.1759
 4507SOL    HW215529   0.316   6.246  10.019 -0.7035  1.0525 -0.9127
 4508SOL     OW15530  10.608   1.956   9.902  0.0439 -0.1852 -0.2212
 4508SOL    HW115531  10.685   1.910   9.935 -0.7119 -2.1341 -1.0219
 4508SOL    HW215532  10.566   1.893   9.843 -1.5173  1.2580 -0.7310
 4509SOL     OW15533   8.578  10.327   3.927  0.2497  0.2303 -0.1397
 4509SOL    HW115534   8.543  10.239   3.930 -0.2165  0.4473  1.1126
 4509SOL    HW215535   8.658  10.319   3.875  0.0198 -0.8403 -0.3534
 4510SOL     OW15536   7.347   6.076   9.067 -0.6507 -0.0159  0.0494
 4510SOL    HW115537   7.356   6.123   8.984  1.9159 -0.7088 -0.1437
 4510SOL    HW215538   7.372   6.141   9.133  2.1616 -0.7625 -0.1635
 4511SOL     OW15539   5.208   3.226   8.294 -0.1006 -0.0893  1.2829
 4511SOL    HW115540   5.195   3.246   8.201 -0.9267  0.8929  1.6060
 4511SOL    HW215541   5.154   3.289   8.341 -0.1973 -0.9891  2.4267
 4512SOL     OW15542   9.029  10.165   2.500 -0.0098  0.3937 -0.3900
 4512SOL    HW115543   9.025  10.173   2.405  0.7645  0.2369 -0.4381
 4512SOL    HW215544   9.097  10.100   2.517  0.1873  0.7612  0.2855
 4513SOL     OW15545   0.041   2.013   7.473 -0.1044 -0.3774  0.1980
 4513SOL    HW115546   0.045   2.095   7.523 -0.3074 -0.9118  1.1159
 4513SOL    HW215547  -0.045   2.016   7.430 -0.5585 -0.5767  1.0698
 4514SOL     OW15548   5.228   4.324   7.705  0.0516  0.5933 -0.5489
 4514SOL    HW115549   5.314   4.358   7.727  0.3006  0.5612 -1.4164
 4514SOL    HW215550   5.190   4.297   7.788  1.1468 -0.0132 -0.2275
 4515SOL     OW15551   9.571   9.514   7.945  0.0042 -0.0800 -0.6924
 4515SOL    HW115552   9.544   9.598   7.982 -0.0666 -0.2925 -0.2472
 4515SOL    HW215553   9.665   9.524   7.930  0.4550 -0.6237  1.3853
 4516SOL     OW15554   5.551   2.662  10.055 -0.0196 -0.1716 -0.3967
 4516SOL    HW115555   5.617   2.720  10.018  2.4073 -2.0241  0.6978
 4516SOL    HW215556   5.537   2.694  10.144 -1.0981  0.5505 -0.8014
 4517SOL     OW15557   3.940   9.580   9.204  0.1392  0.5934  0.3769
 4517SOL    HW115558   3.954   9.673   9.188 -0.1119  0.8943  1.7613
 4517SOL    HW215559   3.889   9.550   9.128 -1.3124  1.9936  0.7424
 4518SOL     OW15560   6.957   4.740   1.403  0.4434  0.6982 -0.4009
 4518SOL    HW115561   6.982   4.656   1.442  2.2439  1.5471  0.3861
 4518SOL    HW215562   7.038   4.775   1.368 -0.2066  2.2815 -0.3872
 4519SOL     OW15563   9.691   3.026   9.330 -0.6239 -0.6712  0.1119
 4519SOL    HW115564   9.709   2.958   9.395 -0.7334 -0.9185 -0.1153
 4519SOL    HW215565   9.599   3.047   9.343 -0.4755 -0.2388  0.4883
 4520SOL     OW15566   5.795   7.460   9.969  0.7027  0.0144 -0.3450
 4520SOL    HW115567   5.794   7.365   9.956 -1.3036  0.1456 -1.4374
 4520SOL    HW215568   5.703   7.486   9.971  1.2023  1.9585 -0.1519
 4521SOL     OW15569   3.706   0.389   8.414 -0.3517  0.4869 -0.0074
 4521SOL    HW115570   3.773   0.426   8.471  1.3267 -2.2408 -0.0362
 4521SOL    HW215571   3.669   0.464   8.368  3.4042  2.0741 -0.7461
 4522SOL     OW15572   1.755   4.132   8.063 -0.1738  0.3301  0.4076
 4522SOL    HW115573   1.817   4.182   8.010 -1.0489  0.3506 -0.6291
 4522SOL    HW215574   1.669   4.171   8.043 -0.7119 -0.7145  0.6043
 4523SOL     OW15575   3.864   4.979   3.997 -0.5152 -0.1471 -0.3027
 4523SOL    HW115576   3.799   4.932   4.049  0.9791 -1.1635  0.7193
 4523SOL    HW215577   3.907   4.911   3.946 -0.3615  0.5406 -1.1177
 4524SOL     OW15578   6.097   2.373  10.997  0.0061 -0.2633 -0.1123
 4524SOL    HW115579   6.132   2.443  10.941  0.4197  1.4645  2.1782
 4524SOL    HW215580   6.174   2.320  11.020 -0.0369 -0.5017 -0.5001
 4525SOL     OW15581   3.233   5.273   9.848 -0.4060  0.0988  0.4788
 4525SOL    HW115582   3.165   5.340   9.855 -2.5052 -1.9554  1.1479
 4525SOL    HW215583   3.237   5.234   9.936  0.0300 -1.2789 -0.1228
 4526SOL     OW15584   1.195  10.655   2.093 -0.4366 -0.4582  0.0217
 4526SOL    HW115585   1.182  10.694   2.007 -0.0965 -0.6419 -0.1147
 4526SOL    HW215586   1.218  10.728   2.150  3.2054 -0.7477 -0.8443
 4527SOL     OW15587   6.950   9.243   6.995  0.6371  0.5979  0.1032
 4527SOL    HW115588   7.031   9.216   6.952  1.0472 -1.3721  1.9495
 4527SOL    HW215589   6.883   9.239   6.926  1.4206 -1.5458 -0.6069
 4528SOL     OW15590   8.869   8.566   7.887 -0.0670 -0.4402  0.6590
 4528SOL    HW115591   8.778   8.537   7.883 -1.1312  2.5823  0.2929
 4528SOL    HW215592   8.877   8.608   7.973  1.0646 -0.8563  0.7665
 4529SOL     OW15593   8.910   8.847   7.029  0.0635 -0.7510  0.3429
 4529SOL    HW115594   8.914   8.839   7.124 -0.9922 -0.7720  0.4030
 4529SOL    HW215595   8.910   8.941   7.012  0.1082 -0.7446  0.3796
 4530SOL     OW15596   2.229   6.818   9.125 -0.3400  0.2435 -0.1558
 4530SOL    HW115597   2.251   6.728   9.101 -1.6315  0.2659 -1.6212
 4530SOL    HW215598   2.194   6.812   9.213 -3.2239 -1.2279 -1.2673
 4531SOL     OW15599   3.880   3.699   7.073 -0.1090 -0.0565  0.2260
 4531SOL    HW115600   3.936   3.644   7.018  0.5232 -0.3791  1.1710
 4531SOL    HW215601   3.812   3.731   7.013  0.5154 -0.4525 -0.7216
 4532SOL     OW15602  10.586   4.814   4.019  0.3157 -0.3086  1.1805
 4532SOL    HW115603  10.647   4.882   4.046  0.9146 -0.0488 -0.6767
 4532SOL    HW215604  10.614   4.790   3.930 -2.2377 -0.1961  0.2571
 4533SOL     OW15605   3.206  10.588   0.840 -0.5606 -0.5491 -0.0379
 4533SOL    HW115606   3.224  10.534   0.763  0.7308 -1.0708  0.5997
 4533SOL    HW215607   3.111  10.603   0.837 -0.4580  0.0261 -2.0896
 4534SOL     OW15608   1.304   1.623   1.398 -0.0565  0.7688  0.5134
 4534SOL    HW115609   1.290   1.564   1.472 -0.5919  1.0019  0.6090
 4534SOL    HW215610   1.354   1.572   1.335  1.2538  0.8818  1.4362
 4535SOL     OW15611   9.685   9.551   1.622  0.8955 -0.2362  0.2432
 4535SOL    HW115612   9.612   9.497   1.591  0.5724  0.3450 -0.0226
 4535SOL    HW215613   9.647   9.603   1.693  1.1110 -0.0876  0.2501
 4536SOL     OW15614   9.269   1.265   4.917 -0.4594 -0.6638  0.1510
 4536SOL    HW115615   9.229   1.203   4.856 -1.8971  1.0573 -0.7491
 4536SOL    HW215616   9.276   1.217   4.999 -1.0459 -2.1662 -0.6353
 4537SOL     OW15617   5.885   8.526   4.527  0.1783 -0.2942  0.1668
 4537SOL    HW115618   5.903   8.597   4.588  0.4732 -0.3455  0.1437
 4537SOL    HW215619   5.814   8.476   4.567  0.9106 -0.8019  0.8729
 4538SOL     OW15620   7.983   0.780   1.318  0.3459  0.3290 -0.0827
 4538SOL    HW115621   7.901   0.812   1.353  1.0019  2.7744 -0.5890
 4538SOL    HW215622   7.984   0.811   1.227  0.4491 -2.4212 -1.1243
 4539SOL     OW15623   9.950   9.191   5.848 -0.0716  0.3305 -0.5711
 4539SOL    HW115624   9.907   9.276   5.853  0.6250  0.6683 -0.0396
 4539SOL    HW215625  10.040   9.212   5.822 -0.3394 -0.3990 -2.2034
 4540SOL     OW15626   5.120   7.343  10.889  0.4100  0.0260  0.6860
 4540SOL    HW115627   5.096   7.415  10.947  1.1994  0.1413  0.8871
 4540SOL    HW215628   5.210   7.364  10.862  0.7690 -1.0499  1.0170
 4541SOL     OW15629   5.590   6.250   5.159 -0.3884 -0.0550 -0.3404
 4541SOL    HW115630   5.590   6.343   5.180 -0.2897 -0.0560 -0.3358
 4541SOL    HW215631   5.498   6.225   5.163 -0.3314 -0.1520  0.4884
 4542SOL     OW15632   9.889   2.484   0.941  0.2343 -0.2873  0.7721
 4542SOL    HW115633   9.918   2.448   1.025 -0.2494  1.4030  1.7061
 4542SOL    HW215634   9.951   2.554   0.923 -0.3775  0.1545  0.3460
 4543SOL     OW15635   7.798   9.828   1.026  0.5130  0.0004  0.0385
 4543SOL    HW115636   7.805   9.811   1.120 -1.2395  0.5197  0.3006
 4543SOL    HW215637   7.705   9.841   1.011  0.9778  2.3604 -1.3238
 4544SOL     OW15638   5.791   4.293  10.261  0.4623  0.1442  0.4082
 4544SOL    HW115639   5.792   4.316  10.168 -0.7891  0.1922  0.3924
 4544SOL    HW215640   5.846   4.360  10.302  1.3711 -0.1239 -0.3402
 4545SOL     OW15641   9.163   5.355   1.569  0.0573  0.7787 -0.0667
 4545SOL    HW115642   9.227   5.285   1.554  0.2640  1.3814 -2.2826
 4545SOL    HW215643   9.146   5.351   1.663  2.8539  0.1672  0.5221
 4546SOL     OW15644   2.892   3.275   6.903  0.2522 -0.2539 -0.1019
 4546SOL    HW115645   2.876   3.368   6.922  0.6617 -0.0543 -0.7153
 4546SOL    HW215646   2.961   3.250   6.964  1.4852  0.3573 -1.1971
 4547SOL     OW15647   2.534  10.351   0.511  0.2546  0.4703  0.7346
 4547SOL    HW115648   2.622  10.313   0.500  0.0895  0.2052  0.3506
 4547SOL    HW215649   2.477  10.276   0.526 -0.2116  0.4850 -0.8463
 4548SOL     OW15650  10.298  10.396   6.039  0.0311 -0.4726  0.0939
 4548SOL    HW115651  10.270  10.334   5.971  0.6105 -1.0485  0.3708
 4548SOL    HW215652  10.283  10.350   6.121 -0.5007  0.1567  0.3636
 4549SOL     OW15653   6.039   7.659   8.691  0.5710  0.3982 -0.1146
 4549SOL    HW115654   6.115   7.705   8.727  1.2459  0.1811 -1.2003
 4549SOL    HW215655   6.038   7.574   8.735  1.6579 -0.0436 -0.8935
 4550SOL     OW15656   3.399  10.030   1.621 -0.0783  0.1759  0.0306
 4550SOL    HW115657   3.438  10.113   1.594  0.1230  0.2983  0.6849
 4550SOL    HW215658   3.364   9.993   1.540 -0.8541  1.2483 -0.1505
 4551SOL     OW15659   4.477   6.210   5.328 -0.4581 -0.2862 -0.3724
 4551SOL    HW115660   4.488   6.122   5.363  1.6733  0.1984  0.3005
 4551SOL    HW215661   4.485   6.267   5.405  1.3123  0.6287 -1.1843
 4552SOL     OW15662   0.933   9.054   7.530 -0.4388  0.2999  0.3109
 4552SOL    HW115663   0.982   9.135   7.515  1.7710 -1.1112 -0.5433
 4552SOL    HW215664   0.852   9.066   7.481 -1.4350  3.0123  2.3648
 4553SOL     OW15665   4.630   7.953   8.733  0.3286  0.2995 -0.4297
 4553SOL    HW115666   4.648   7.977   8.642 -1.7550 -2.2808 -1.6648
 4553SOL    HW215667   4.572   8.022   8.766 -0.0521  0.5324 -1.5578
 4554SOL     OW15668   4.718   4.490   0.988  0.1936  0.0457 -0.2611
 4554SOL    HW115669   4.682   4.419   1.041 -0.5295  0.2790 -0.4300
 4554SOL    HW215670   4.707   4.461   0.898 -0.1504  0.3837 -0.3336
 4555SOL     OW15671  10.540   7.634   6.840  0.4566  0.2058  1.1145
 4555SOL    HW115672  10.544   7.700   6.909  1.6739  1.6837 -0.3081
 4555SOL    HW215673  10.446   7.616   6.829  0.2198  0.2865  2.7959
 4556SOL     OW15674   8.039   8.411   8.165  0.0606 -0.2707  0.1618
 4556SOL    HW115675   7.966   8.398   8.226 -0.4132  1.3240 -0.0458
 4556SOL    HW215676   8.106   8.349   8.196 -0.5707 -0.2596  1.6535
 4557SOL     OW15677   4.831   6.365   8.873 -0.4046  0.0954  0.5506
 4557SOL    HW115678   4.826   6.459   8.853 -0.2327  0.3243  1.5209
 4557SOL    HW215679   4.844   6.323   8.788  0.2412  1.0101  0.1794
 4558SOL     OW15680   3.875   8.820   7.861  0.0405 -0.7450 -0.0571
 4558SOL    HW115681   3.842   8.733   7.885 -1.6147 -0.5711 -1.4654
 4558SOL    HW215682   3.969   8.816   7.876  0.0523 -2.9046 -0.4441
 4559SOL     OW15683   7.478   4.999   2.763 -0.0405 -0.7396  0.1442
 4559SOL    HW115684   7.444   4.928   2.818  1.9748 -0.2096  2.2711
 4559SOL    HW215685   7.504   5.067   2.826  0.2454  0.9101 -1.6653
 4560SOL     OW15686   4.838   0.825   3.885 -0.4476  0.3590 -0.0753
 4560SOL    HW115687   4.872   0.877   3.958  1.7762 -2.1319  0.8615
 4560SOL    HW215688   4.759   0.783   3.921 -1.0659  1.4196 -0.1546
 4561SOL     OW15689   7.038   1.513   5.172  0.3520  0.2681 -0.5052
 4561SOL    HW115690   6.952   1.539   5.204 -0.2655 -0.6511 -1.3447
 4561SOL    HW215691   7.100   1.545   5.238 -0.4666  2.4157 -0.7098
 4562SOL     OW15692   6.874   7.845   4.478  0.0372 -0.1528 -0.2908
 4562SOL    HW115693   6.859   7.921   4.422  0.4422  1.1754  1.3137
 4562SOL    HW215694   6.841   7.771   4.427 -1.4672  1.2269 -1.4415
 4563SOL     OW15695   6.986   0.249   9.126 -0.1861  0.4964 -0.1613
 4563SOL    HW115696   6.936   0.202   9.194 -0.7872  1.6593  0.2203
 4563SOL    HW215697   6.995   0.186   9.055  0.8592 -0.9364  1.1526
 4564SOL     OW15698   2.008   4.325   1.749 -0.2642  0.3683  0.1859
 4564SOL    HW115699   1.935   4.381   1.722  0.0826  0.9913  0.5437
 4564SOL    HW215700   2.053   4.374   1.817  1.0126  0.3678 -0.6290
 4565SOL     OW15701   8.100   9.862   0.548 -0.4847 -0.6677 -0.0123
 4565SOL    HW115702   8.049   9.857   0.467 -1.0489 -0.9447  0.3495
 4565SOL    HW215703   8.078   9.782   0.595 -0.3945 -0.3732  0.5469
 4566SOL     OW15704   1.766   6.703   5.424  0.4938 -0.4400 -0.6312
 4566SOL    HW115705   1.671   6.706   5.420  0.3548  2.5610  1.1534
 4566SOL    HW215706   1.795   6.713   5.333 -0.9526  0.7308 -0.9931
 4567SOL     OW15707   5.507   9.848   8.155 -0.3885  0.0638 -0.0235
 4567SOL    HW115708   5.570   9.782   8.184  0.1506  0.9944  0.9926
 4567SOL    HW215709   5.464   9.877   8.236 -0.3121  1.2664 -0.3882
 4568SOL     OW15710  10.348   4.198   8.264  0.0934 -0.3623  0.3217
 4568SOL    HW115711  10.436   4.205   8.301  0.2685 -1.7421  0.2131
 4568SOL    HW215712  10.344   4.109   8.227  0.4164  1.2429 -4.2145
 4569SOL     OW15713   1.123   1.908   3.947  0.7293 -0.6498 -0.8143
 4569SOL    HW115714   1.185   1.882   4.015  0.7739 -0.1357 -0.6521
 4569SOL    HW215715   1.056   1.839   3.947 -0.2119  0.1862  0.9429
 4570SOL     OW15716   7.499   9.510   2.348 -0.2997 -0.5035  0.2077
 4570SOL    HW115717   7.579   9.515   2.400 -0.3786  0.7668  0.2256
 4570SOL    HW215718   7.428   9.518   2.412 -0.4475 -1.1631  0.1390
 4571SOL     OW15719   3.601   7.943   7.748 -0.2626  0.0146  0.2892
 4571SOL    HW115720   3.653   8.020   7.772  1.3304 -1.7173  2.9890
 4571SOL    HW215721   3.555   7.920   7.828  0.1881 -2.4513 -0.0882
 4572SOL     OW15722   4.276   9.101   0.696 -0.1925  0.2621 -0.3584
 4572SOL    HW115723   4.287   9.025   0.753  0.7434  1.0090  0.4808
 4572SOL    HW215724   4.269   9.064   0.608  0.4788 -0.7823  0.0187
 4573SOL     OW15725   4.944   1.411   1.533  0.4977  0.1882  0.0346
 4573SOL    HW115726   4.927   1.495   1.490  2.2705  0.9825  0.7805
 4573SOL    HW215727   4.922   1.426   1.625 -1.3699 -0.8979 -0.1908
 4574SOL     OW15728  10.768   6.690   6.396  0.4227 -0.1451  0.4562
 4574SOL    HW115729  10.835   6.733   6.344  1.3411 -1.6680  0.3135
 4574SOL    HW215730  10.694   6.680   6.336  1.2479 -1.3225 -0.4153
 4575SOL     OW15731   5.430   8.043   8.111  0.0708 -0.0124  0.5588
 4575SOL    HW115732   5.476   8.048   8.195 -1.0139  1.2196  1.1120
 4575SOL    HW215733   5.426   7.949   8.091  0.3569 -0.3170  1.8732
 4576SOL     OW15734   3.185   6.405   6.017  0.1512 -0.0056 -0.0766
 4576SOL    HW115735   3.115   6.417   5.953  1.5259  0.8915 -1.5055
 4576SOL    HW215736   3.251   6.353   5.971 -0.6047 -3.1014  2.1109
 4577SOL     OW15737   7.094   2.047  10.441 -0.4047  0.4620  0.7512
 4577SOL    HW115738   7.072   2.088  10.525  1.4498  1.9124  0.5778
 4577SOL    HW215739   7.078   2.115  10.376 -0.3434 -0.1437  0.0910
 4578SOL     OW15740   7.490   1.956   6.980  0.3369  0.4477 -0.1255
 4578SOL    HW115741   7.455   1.972   7.067 -0.9099  0.0625 -0.5256
 4578SOL    HW215742   7.585   1.958   6.991  0.2187 -0.4656  1.4161
 4579SOL     OW15743   7.633   3.101   9.116 -0.7591 -0.1909 -0.1473
 4579SOL    HW115744   7.683   3.022   9.136  0.6500  0.4395 -1.0003
 4579SOL    HW215745   7.700   3.165   9.091 -2.0481  0.4427 -2.1694
 4580SOL     OW15746   0.257  10.383   4.136 -0.1878  0.7599 -0.2811
 4580SOL    HW115747   0.199  10.439   4.189 -0.8312  0.2153 -0.3898
 4580SOL    HW215748   0.221  10.390   4.047  0.8068  1.5663 -0.6299
 4581SOL     OW15749   6.191   6.231   4.629  0.6780 -0.8543 -0.2012
 4581SOL    HW115750   6.132   6.306   4.629  1.0989 -0.5174  0.2792
 4581SOL    HW215751   6.135   6.156   4.649  0.4049 -0.5396  0.2258
 4582SOL     OW15752   0.493   5.630   2.174  0.2495  0.9414  0.5798
 4582SOL    HW115753   0.554   5.637   2.100  0.5125 -1.3446  0.4972
 4582SOL    HW215754   0.549   5.605   2.248 -0.5366 -1.6179  0.4086
 4583SOL     OW15755   7.968   1.658  10.813  0.3439  0.3654 -0.3645
 4583SOL    HW115756   7.929   1.573  10.795  0.4247  0.3764 -0.5965
 4583SOL    HW215757   7.996   1.690  10.727 -0.8953  1.2257 -0.4806
 4584SOL     OW15758   3.278   8.373  10.265  0.6310 -0.4789 -0.1803
 4584SOL    HW115759   3.316   8.369  10.353  2.4661  0.4933 -0.8830
 4584SOL    HW215760   3.331   8.311  10.215 -0.1847 -0.7670 -0.6915
 4585SOL     OW15761   0.997   2.760   7.624 -0.1336 -0.1256 -0.0245
 4585SOL    HW115762   0.995   2.747   7.529 -0.4598 -0.0103 -0.0333
 4585SOL    HW215763   1.050   2.687   7.657 -0.8996 -0.7701 -0.1941
 4586SOL     OW15764   8.241   4.793   7.289 -0.0614  0.1478 -0.5334
 4586SOL    HW115765   8.269   4.707   7.322 -0.5057  0.4903  0.7772
 4586SOL    HW215766   8.150   4.780   7.263 -0.2542  0.3090  0.0427
 4587SOL     OW15767   8.813   1.254   2.106  0.6967  0.1036 -0.4891
 4587SOL    HW115768   8.746   1.281   2.168  0.8887 -0.9558  0.2025
 4587SOL    HW215769   8.894   1.294   2.139  0.3032  2.2274 -1.8787
 4588SOL     OW15770   4.210   9.535  10.041 -0.3325 -0.4297 -0.7183
 4588SOL    HW115771   4.247   9.524   9.953  1.4966  0.3123 -0.0847
 4588SOL    HW215772   4.245   9.461  10.090  0.6553  0.4878 -0.0070
 4589SOL     OW15773   5.985   7.998   7.704 -0.2383 -0.1989  0.2056
 4589SOL    HW115774   6.010   8.084   7.670  0.1920 -0.0391  0.9133
 4589SOL    HW215775   6.049   7.938   7.667 -1.3448 -0.4429 -1.3998
 4590SOL     OW15776   9.086   6.339   7.398 -0.2641  0.4310 -0.5467
 4590SOL    HW115777   9.117   6.411   7.453 -1.3185  0.5865 -0.1241
 4590SOL    HW215778   9.109   6.260   7.447  0.3345  0.4955 -0.7145
 4591SOL     OW15779   0.113   3.502   0.136  0.1402  0.3608 -0.2069
 4591SOL    HW115780   0.095   3.424   0.084 -1.1667  1.1983 -1.0834
 4591SOL    HW215781   0.149   3.565   0.074  1.8118  0.2621  0.6288
 4592SOL     OW15782   0.323   0.223   3.990 -0.1522  0.6107 -0.0646
 4592SOL    HW115783   0.324   0.256   4.080 -1.2417  1.8582 -0.4785
 4592SOL    HW215784   0.238   0.179   3.983  0.5064 -0.7086 -0.0935
 4593SOL     OW15785   3.366  10.869   6.688 -0.0528  0.3178  1.0021
 4593SOL    HW115786   3.270  10.866   6.689 -0.0533  0.1892  0.7117
 4593SOL    HW215787   3.391  10.806   6.621  0.2266  0.5712  0.8674
 4594SOL     OW15788   4.786   6.919   7.131  0.1767  0.0172 -0.1317
 4594SOL    HW115789   4.700   6.951   7.103  0.0438 -0.5014 -0.3313
 4594SOL    HW215790   4.801   6.841   7.078  0.5867 -0.1298  0.1954
 4595SOL     OW15791   1.490   7.384   1.048 -0.1424  0.0726  0.1360
 4595SOL    HW115792   1.405   7.389   1.091 -0.1324 -0.1635  0.1818
 4595SOL    HW215793   1.481   7.315   0.983 -0.5322  1.2227 -1.0911
 4596SOL     OW15794   7.143   0.635   7.048 -0.0989 -0.6887 -0.3117
 4596SOL    HW115795   7.215   0.573   7.035 -0.2069 -1.3441  1.7492
 4596SOL    HW215796   7.184   0.721   7.049  0.5099 -0.9761 -0.2076
 4597SOL     OW15797   9.272   9.481  11.025  0.4099 -0.0654 -0.5454
 4597SOL    HW115798   9.214   9.437  10.963 -0.5843  1.1092 -0.5122
 4597SOL    HW215799   9.214   9.506  11.098  1.3302 -0.4398  0.3339
 4598SOL     OW15800   9.248   6.572   4.474  0.1288 -0.1649  0.4499
 4598SOL    HW115801   9.341   6.574   4.454 -0.1403 -1.7695 -1.3339
 4598SOL    HW215802   9.213   6.654   4.439  0.6926 -0.1121  0.0039
 4599SOL     OW15803   6.722   4.746  10.683 -0.1327 -0.2484 -0.1248
 4599SOL    HW115804   6.751   4.828  10.724  0.2705 -0.6983  0.5118
 4599SOL    HW215805   6.685   4.773  10.599 -1.2469  0.7409  0.6509
 4600SOL     OW15806   0.173   4.805   4.732  0.6652 -0.6231  0.4057
 4600SOL    HW115807   0.102   4.839   4.676  0.7271 -1.3134 -0.1024
 4600SOL    HW215808   0.234   4.764   4.671  1.4550 -0.1323  0.8551
 4601SOL     OW15809  10.820  10.741   5.567 -0.0723 -0.0070  0.0468
 4601SOL    HW115810  10.796  10.692   5.645 -3.8608 -1.3523 -1.7297
 4601SOL    HW215811  10.865  10.819   5.601 -0.5931 -1.0298  3.4576
 4602SOL     OW15812   9.864   5.996   1.521 -0.0692 -0.2819 -0.5993
 4602SOL    HW115813   9.819   5.947   1.452 -0.6455  0.3929 -0.7247
 4602SOL    HW215814   9.922   6.056   1.474 -0.7741  0.4772 -0.5396
 4603SOL     OW15815   5.059   8.427   2.946 -0.0225  0.7564  0.1459
 4603SOL    HW115816   5.143   8.435   2.990 -0.7456 -0.0914  1.7742
 4603SOL    HW215817   5.005   8.375   3.006 -1.4014  0.4341 -1.2959
 4604SOL     OW15818   1.041   2.125   7.669  0.3079  0.1275 -0.6965
 4604SOL    HW115819   0.967   2.084   7.713 -0.1576 -0.7157 -2.1775
 4604SOL    HW215820   1.096   2.158   7.740 -1.7499  1.3100  0.4502
 4605SOL     OW15821   5.572   2.124   6.284  0.4355  0.1565 -0.4694
 4605SOL    HW115822   5.611   2.124   6.372 -4.0407  0.6421  1.7795
 4605SOL    HW215823   5.522   2.205   6.280 -2.9604 -1.7760 -1.5960
 4606SOL     OW15824   7.269   2.140   0.087  0.9640 -0.1722  0.0172
 4606SOL    HW115825   7.323   2.219   0.087  0.9887 -0.1726  0.8690
 4606SOL    HW215826   7.180   2.172   0.073  0.8040  0.1689  1.5885
 4607SOL     OW15827   9.081   9.017   3.334 -0.0914  0.2409 -0.3726
 4607SOL    HW115828   9.031   8.962   3.273  1.3609 -1.9858  0.3309
 4607SOL    HW215829   9.128   9.079   3.278  0.3942 -1.0757 -1.4568
 4608SOL     OW15830  10.897   5.871   7.178  0.1718  0.4978  0.4571
 4608SOL    HW115831  10.989   5.898   7.171  0.0489  0.7058 -0.4752
 4608SOL    HW215832  10.879   5.825   7.095 -0.5848  0.5310  0.5960
 4609SOL     OW15833   6.624   1.610   0.343  0.7466  0.0791 -0.1826
 4609SOL    HW115834   6.680   1.572   0.410 -1.0349  0.0439  1.3920
 4609SOL    HW215835   6.622   1.545   0.273  2.5991  0.0823 -0.2641
 4610SOL     OW15836  10.153  10.203   9.441 -0.3800  0.0660  0.2657
 4610SOL    HW115837  10.136  10.295   9.457 -0.3339  1.0970 -4.2505
 4610SOL    HW215838  10.238  10.187   9.483  0.6806  2.7514 -0.6442
 4611SOL     OW15839   9.857   9.903   1.216 -0.9327  0.1042 -0.1059
 4611SOL    HW115840   9.804   9.916   1.294 -0.7124 -1.5406  0.3494
 4611SOL    HW215841   9.904   9.821   1.232  3.6420  2.5101  0.6123
 4612SOL     OW15842   7.595   7.451   1.755 -0.7915  0.2828  0.5265
 4612SOL    HW115843   7.584   7.377   1.696 -0.3528 -0.3240  1.1948
 4612SOL    HW215844   7.688   7.475   1.747 -1.0733  1.1941 -0.1874
 4613SOL     OW15845   6.718   7.760   1.929  0.4546  0.4352  0.6253
 4613SOL    HW115846   6.787   7.782   1.866  0.4399  2.0414  1.1314
 4613SOL    HW215847   6.637   7.764   1.877  0.4171  1.9840  0.7480
 4614SOL     OW15848   9.138   6.465   0.069 -0.3377 -0.4479 -0.3302
 4614SOL    HW115849   9.194   6.390   0.046 -0.4153 -0.1163 -1.6602
 4614SOL    HW215850   9.158   6.481   0.161 -0.2477 -2.0464 -0.0294
 4615SOL     OW15851   6.586   7.974   3.521  0.1543 -0.3495  0.0502
 4615SOL    HW115852   6.524   7.995   3.591 -0.4734 -0.0492 -0.5863
 4615SOL    HW215853   6.653   8.042   3.527  0.9511 -1.2025  1.3358
 4616SOL     OW15854   7.908   4.570   6.608  0.1234  0.3242 -0.4500
 4616SOL    HW115855   7.933   4.638   6.545  1.0855 -0.3960 -0.8612
 4616SOL    HW215856   7.921   4.611   6.694 -0.0086  0.8964 -0.6981
 4617SOL     OW15857   0.568   1.026   1.350  0.5636 -0.1115  0.2707
 4617SOL    HW115858   0.557   0.988   1.438 -0.1051 -3.0337 -0.9280
 4617SOL    HW215859   0.526   0.962   1.292  2.0268  1.1188 -2.3067
 4618SOL     OW15860   3.453   1.601   4.586 -0.3835 -0.3601  0.0846
 4618SOL    HW115861   3.517   1.575   4.519 -0.7246 -3.8705  0.9206
 4618SOL    HW215862   3.383   1.642   4.536  0.3742 -0.8462 -1.4624
 4619SOL     OW15863   2.163   7.009   1.152  0.5562 -0.0893 -0.2262
 4619SOL    HW115864   2.215   7.089   1.138  0.4554 -0.1738 -1.1323
 4619SOL    HW215865   2.228   6.942   1.173  1.1724 -0.7532 -3.5987
 4620SOL     OW15866   0.795  10.984  10.898  0.4420 -0.2377  0.0531
 4620SOL    HW115867   0.760  10.992  10.986  1.5632  2.0330  0.3605
 4620SOL    HW215868   0.875  10.932  10.908 -0.0094 -0.9288  0.1628
 4621SOL     OW15869   5.988   1.967   7.791 -0.9373 -0.5674 -1.1645
 4621SOL    HW115870   6.020   2.023   7.862 -2.1042 -1.4666  0.1080
 4621SOL    HW215871   5.956   2.029   7.725 -0.2652  0.2770 -0.7283
 4622SOL     OW15872   3.017   1.649   7.953 -0.0768 -0.1939 -0.5742
 4622SOL    HW115873   3.068   1.624   7.875  0.4318 -0.6662 -0.1005
 4622SOL    HW215874   3.082   1.659   8.022 -0.6342 -0.9896  0.0886
 4623SOL     OW15875  10.574   9.312   2.202  0.0719  0.4932 -0.0147
 4623SOL    HW115876  10.544   9.318   2.111 -2.0277  0.8759  0.6588
 4623SOL    HW215877  10.497   9.332   2.254  1.1946  0.1013  1.8822
 4624SOL     OW15878   2.622   1.888  10.359  0.5845  0.4072  0.0112
 4624SOL    HW115879   2.585   1.976  10.352  2.6276  1.2158 -2.4101
 4624SOL    HW215880   2.673   1.889  10.440  0.2063  1.2831  0.2457
 4625SOL     OW15881   6.119   0.473   2.242 -0.6418  0.4094 -0.8185
 4625SOL    HW115882   6.092   0.384   2.263 -2.3880  0.9871 -0.4178
 4625SOL    HW215883   6.214   0.472   2.247 -0.7198 -0.7249  2.0893
 4626SOL     OW15884   8.938   7.937   8.642  0.1814  0.4973  0.2341
 4626SOL    HW115885   8.958   7.947   8.735  2.6615 -0.9951 -0.0361
 4626SOL    HW215886   8.870   8.002   8.625 -1.3814 -0.1180  3.3633
 4627SOL     OW15887   7.412   3.229   2.909  0.1087  0.1799  0.3420
 4627SOL    HW115888   7.336   3.283   2.888  0.5914  0.3849 -0.9972
 4627SOL    HW215889   7.381   3.139   2.902  0.6212  0.1337 -3.3068
 4628SOL     OW15890   7.303   4.610   0.619  0.2659 -0.0650 -0.2115
 4628SOL    HW115891   7.366   4.604   0.547  0.4624 -1.9110  0.0666
 4628SOL    HW215892   7.253   4.689   0.600  0.1562 -0.6086 -2.5204
 4629SOL     OW15893   0.893   0.672   8.895 -0.1786  0.0282  0.6854
 4629SOL    HW115894   0.916   0.602   8.834 -2.4405  0.8583 -1.3091
 4629SOL    HW215895   0.967   0.677   8.955  1.7240 -1.5989 -1.3357
 4630SOL     OW15896  10.133   9.673   2.607 -0.1379 -0.9041 -0.5918
 4630SOL    HW115897  10.124   9.578   2.605 -0.6272 -0.8866  0.1929
 4630SOL    HW215898  10.155   9.693   2.698 -1.5680 -0.1499 -0.3818
 4631SOL     OW15899   2.843   6.317   0.464 -0.2994  0.3512  0.3304
 4631SOL    HW115900   2.791   6.237   0.478  1.0306 -0.5371  0.4244
 4631SOL    HW215901   2.837   6.333   0.370 -0.5540  0.1279  0.3071
 4632SOL     OW15902   0.532   6.787  10.829  0.6640 -0.5022 -0.1356
 4632SOL    HW115903   0.611   6.789  10.774  0.4880  0.4107 -0.3690
 4632SOL    HW215904   0.508   6.695  10.833  1.3121 -0.7039 -0.6884
 4633SOL     OW15905   6.047   1.179  10.892  0.2014 -0.5068  0.0244
 4633SOL    HW115906   6.127   1.228  10.911 -0.6715  1.3103 -0.8021
 4633SOL    HW215907   6.079   1.097  10.854  1.6727 -0.0216  0.1222
 4634SOL     OW15908   1.693   6.179   7.452 -0.2194 -0.2918 -0.1988
 4634SOL    HW115909   1.782   6.169   7.419 -0.3770  0.1784 -0.7703
 4634SOL    HW215910   1.645   6.105   7.414 -0.2630 -0.0803 -0.5626
 4635SOL     OW15911   8.725   5.558   4.261 -0.0464 -0.2538 -0.2160
 4635SOL    HW115912   8.683   5.562   4.347  0.2630  1.1375 -0.0999
 4635SOL    HW215913   8.696   5.638   4.218 -0.1012 -0.8805 -1.3764
 4636SOL     OW15914   2.003   3.824   9.390 -0.0140 -0.5090 -0.0388
 4636SOL    HW115915   2.005   3.748   9.448 -1.7209 -0.3962  0.2238
 4636SOL    HW215916   2.089   3.865   9.402 -0.1315 -0.7506  2.0810
 4637SOL     OW15917   3.072  10.992   0.771 -0.2470  0.0413 -0.1838
 4637SOL    HW115918   3.165  10.971   0.779 -0.1670  0.1041 -0.8789
 4637SOL    HW215919   3.051  11.039   0.852 -0.0624 -1.3153  0.6857
 4638SOL     OW15920   7.806   7.270   1.512 -0.6371 -0.1165  0.4516
 4638SOL    HW115921   7.793   7.363   1.489  1.0073  0.1927  0.6246
 4638SOL    HW215922   7.901   7.260   1.516 -0.7994 -1.2311  2.8543
 4639SOL     OW15923   4.706   9.555   6.272 -0.4668 -0.0571 -0.1897
 4639SOL    HW115924   4.732   9.488   6.335 -1.1764  0.1488  0.3347
 4639SOL    HW215925   4.618   9.529   6.244 -0.0000 -0.3750 -1.4290
 4640SOL     OW15926   9.954   3.230  10.227 -0.1346 -0.2462 -0.0440
 4640SOL    HW115927   9.974   3.269  10.312 -1.4108  1.0951 -0.3246
 4640SOL    HW215928  10.027   3.255  10.171  0.6802 -1.0788  0.6118
 4641SOL     OW15929   7.383   6.664   7.699 -0.1713  0.0871  0.3739
 4641SOL    HW115930   7.467   6.676   7.656 -0.3288 -1.3146 -0.4117
 4641SOL    HW215931   7.395   6.699   7.787  0.7379  1.3188 -0.2208
 4642SOL     OW15932   0.511   3.617   4.018  0.2751 -0.3410 -0.2666
 4642SOL    HW115933   0.454   3.651   3.949  0.3053 -0.2470 -0.2455
 4642SOL    HW215934   0.450   3.593   4.089  0.2192 -0.7345 -0.4484
 4643SOL     OW15935   7.989   5.274   8.000 -0.6276  0.2015 -0.4236
 4643SOL    HW115936   7.990   5.291   8.094  0.0774 -0.2211 -0.3445
 4643SOL    HW215937   7.960   5.356   7.961 -0.2364  0.6094  0.1230
 4644SOL     OW15938   4.592   9.561   0.048 -0.0108  0.1045 -0.9249
 4644SOL    HW115939   4.636   9.605  -0.025  2.0157 -1.6053 -0.8133
 4644SOL    HW215940   4.543   9.631   0.091  2.6882  2.2029 -1.0061
 4645SOL     OW15941   7.940   0.210   8.772  0.0465  0.8853  0.0577
 4645SOL    HW115942   7.986   0.191   8.855  0.0029  1.3223  0.1838
 4645SOL    HW215943   8.011   0.217   8.708  0.1744  1.6591  0.2713
 4646SOL     OW15944   7.141   2.725   2.017  0.4172 -0.0717 -0.5411
 4646SOL    HW115945   7.199   2.716   1.942  0.9085 -3.4301  0.0754
 4646SOL    HW215946   7.063   2.675   1.993  0.0430 -0.1084  0.6959
 4647SOL     OW15947   8.453   5.101   3.505 -0.0051  0.4945 -0.2965
 4647SOL    HW115948   8.412   5.153   3.435  0.3786  0.4503 -0.5577
 4647SOL    HW215949   8.514   5.043   3.458 -0.7802 -0.5431 -0.0678
 4648SOL     OW15950   2.324   9.543   2.406 -0.1965 -0.3162 -0.0956
 4648SOL    HW115951   2.370   9.486   2.345  0.7411  1.8641 -1.5626
 4648SOL    HW215952   2.330   9.630   2.367  0.1523  1.1686  2.9401
 4649SOL     OW15953   6.610   4.328   1.924 -0.0469  0.2304  0.0458
 4649SOL    HW115954   6.697   4.349   1.956 -0.1983 -0.7491  1.1757
 4649SOL    HW215955   6.614   4.344   1.830  0.8934  1.6620  0.3035
 4650SOL     OW15956   4.616   0.797   1.303  0.3294 -0.4812 -0.1177
 4650SOL    HW115957   4.651   0.837   1.223  1.0942 -0.1694  0.3668
 4650SOL    HW215958   4.621   0.866   1.369 -0.9938 -0.4960  0.0383
 4651SOL     OW15959  10.476   3.750  10.130 -0.2380 -0.3676 -0.1644
 4651SOL    HW115960  10.491   3.673  10.185 -0.0791 -0.9397 -0.9961
 4651SOL    HW215961  10.429   3.811  10.187 -1.4532 -1.5465  0.1628
 4652SOL     OW15962   9.060  10.271   9.158 -1.1281  0.3440  0.3400
 4652SOL    HW115963   9.008  10.311   9.228 -0.4965  1.3220  0.2663
 4652SOL    HW215964   9.021  10.185   9.146 -2.5797  0.9583  0.4504
 4653SOL     OW15965   2.053  10.177   8.637 -0.1184  0.0125  0.0383
 4653SOL    HW115966   1.995  10.126   8.580 -0.1476  0.5718 -0.4422
 4653SOL    HW215967   2.002  10.253   8.662  0.6979  1.0040 -1.1605
 4654SOL     OW15968  10.857   8.210   1.390  0.0679  0.2086  0.1199
 4654SOL    HW115969  10.893   8.206   1.479  0.1371  3.3215  0.3255
 4654SOL    HW215970  10.762   8.206   1.403  0.0212  1.8097  0.5067
 4655SOL     OW15971   0.246   3.518   4.086  0.0259 -0.0660 -0.2846
 4655SOL    HW115972   0.195   3.553   4.159  1.7235  0.0980  0.8728
 4655SOL    HW215973   0.202   3.552   4.008 -0.2118  2.1039  0.7143
 4656SOL     OW15974   5.920   7.811   6.884  0.2140  0.1835  0.1278
 4656SOL    HW115975   5.884   7.849   6.965 -0.0217 -0.2599  0.2318
 4656SOL    HW215976   5.883   7.723   6.881 -0.8626  0.6423 -1.1495
 4657SOL     OW15977   1.257   0.728   8.742 -0.3253 -0.0218 -0.4200
 4657SOL    HW115978   1.222   0.683   8.819 -0.3465 -1.0213 -0.9875
 4657SOL    HW215979   1.305   0.803   8.777 -0.7832 -0.1620  0.5264
 4658SOL     OW15980  10.913   3.934   3.132  0.2034 -0.1760 -0.0547
 4658SOL    HW115981  11.004   3.961   3.146 -0.7028  3.1463  0.4634
 4658SOL    HW215982  10.901   3.936   3.037  0.3136  0.9771 -0.0618
 4659SOL     OW15983   5.138   4.114   4.979  0.2817  0.7627  0.2774
 4659SOL    HW115984   5.137   4.162   4.896 -1.8089  1.3798  0.5926
 4659SOL    HW215985   5.180   4.173   5.041  0.6514  0.8416 -0.0465
 4660SOL     OW15986   4.223   5.172   6.240 -0.2982  0.1521  0.7196
 4660SOL    HW115987   4.250   5.264   6.250  0.2778 -0.0985  1.6550
 4660SOL    HW215988   4.130   5.177   6.218  0.2171  1.0179 -1.5932
 4661SOL     OW15989   3.973   4.566  10.209 -0.3178 -0.0617  0.1573
 4661SOL    HW115990   4.036   4.638  10.213 -0.5554  0.2594 -1.2779
 4661SOL    HW215991   3.889   4.606  10.231 -0.5499  0.2705 -1.2139
 4662SOL     OW15992   2.812   0.437   3.387 -0.0599 -0.5425 -0.8089
 4662SOL    HW115993   2.846   0.352   3.416  0.2745 -1.0221 -2.4993
 4662SOL    HW215994   2.759   0.468   3.460  1.3675 -1.2978  0.6154
 4663SOL     OW15995   0.889   6.546   8.173 -0.6087 -0.0137  0.4386
 4663SOL    HW115996   0.853   6.460   8.149  0.7653 -0.0359 -1.8371
 4663SOL    HW215997   0.865   6.603   8.100  1.4753  0.6646  0.2304
 4664SOL     OW15998   3.615   4.354   6.636 -0.6438 -0.2983 -0.4431
 4664SOL    HW115999   3.528   4.332   6.668 -0.9851  0.2282 -0.9773
 4664SOL    HW216000   3.617   4.450   6.633  0.8383 -0.1842  1.9261
 4665SOL     OW16001   7.886  10.911   0.380  0.1645 -0.1744 -0.3098
 4665SOL    HW116002   7.980  10.908   0.397  0.0594  0.6099  0.4823
 4665SOL    HW216003   7.852  10.830   0.418  0.5546 -0.5856 -0.8350
 4666SOL     OW16004   5.082   9.104   7.652 -0.2844  0.0328  0.0677
 4666SOL    HW116005   5.154   9.162   7.678 -0.7789  0.5584  0.2835
 4666SOL    HW216006   5.113   9.064   7.570  1.5251 -2.0673  1.6701
 4667SOL     OW16007   1.653   9.717   6.119  0.7229  0.6838  0.0585
 4667SOL    HW116008   1.623   9.649   6.180 -1.4492 -0.8590 -2.5300
 4667SOL    HW216009   1.611   9.797   6.150  0.2585  0.0953  1.0004
 4668SOL     OW16010   9.828  10.598   6.202  0.2422 -0.1771 -0.9036
 4668SOL    HW116011   9.740  10.564   6.188  0.1819 -0.0334 -0.8686
 4668SOL    HW216012   9.882  10.551   6.138  0.4498 -1.5167  0.2232
 4669SOL     OW16013   6.849   5.041   3.370  0.3579 -0.5507 -0.5140
 4669SOL    HW116014   6.905   5.117   3.388 -1.3153  0.4933  0.5716
 4669SOL    HW216015   6.762   5.078   3.360 -0.1465 -2.0844 -2.5446
 4670SOL     OW16016   2.954   7.652   7.321  0.2215  0.1208 -0.2270
 4670SOL    HW116017   2.980   7.592   7.391  1.5486  1.4239  0.4673
 4670SOL    HW216018   3.017   7.636   7.251  0.4098  0.5100 -0.1478
 4671SOL     OW16019   6.131   3.944  10.576 -0.1986 -0.8056  0.0027
 4671SOL    HW116020   6.164   3.943  10.665 -0.6534  1.0272  0.2257
 4671SOL    HW216021   6.172   3.868  10.534  2.1348 -0.1775  1.0154
 4672SOL     OW16022   3.844   7.972   7.212 -1.0083  0.3255  0.1400
 4672SOL    HW116023   3.867   7.904   7.148  0.1167  1.3730 -0.6098
 4672SOL    HW216024   3.783   7.929   7.272 -0.4754 -1.2894 -0.4281
 4673SOL     OW16025   8.054   7.946   7.273  0.1474 -0.3019 -0.3379
 4673SOL    HW116026   8.030   7.985   7.357  2.2696  1.6432 -0.5567
 4673SOL    HW216027   8.034   8.013   7.208  1.3374 -0.5912 -1.0386
 4674SOL     OW16028   9.152   9.976   7.501  0.2484  0.0530 -0.1213
 4674SOL    HW116029   9.197   9.892   7.510  0.2138  0.1333  0.9230
 4674SOL    HW216030   9.200  10.036   7.559 -0.2911  0.5110 -0.1370
 4675SOL     OW16031   7.197   9.834   1.493 -0.2481  0.5839  0.0052
 4675SOL    HW116032   7.206   9.850   1.587 -2.6008 -1.0645  0.6039
 4675SOL    HW216033   7.170   9.918   1.457 -0.2459  1.0135  0.9722
 4676SOL     OW16034   2.721   5.838   6.184 -0.2510  0.0462 -0.5753
 4676SOL    HW116035   2.772   5.761   6.159 -0.3231 -0.1364 -0.1680
 4676SOL    HW216036   2.778   5.886   6.244 -0.6644 -0.3013  0.1019
 4677SOL     OW16037   3.022   8.476   6.656  0.1122  0.1214  0.1064
 4677SOL    HW116038   3.036   8.499   6.748  1.0555 -0.9014  0.2438
 4677SOL    HW216039   3.111   8.468   6.620 -0.1813 -1.4517 -0.3568
 4678SOL     OW16040  10.563   0.999   9.094 -0.5729 -0.2505  0.3581
 4678SOL    HW116041  10.628   0.982   9.162  0.2048  0.0404 -0.2936
 4678SOL    HW216042  10.593   1.080   9.053 -1.2620 -0.2032 -0.0656
 4679SOL     OW16043   4.936   6.814   5.263 -0.3838 -0.3304 -0.0990
 4679SOL    HW116044   4.958   6.904   5.288 -1.0987 -0.2025  0.0876
 4679SOL    HW216045   5.000   6.792   5.196 -0.4868  0.4886 -0.4794
 4680SOL     OW16046   6.782   7.011   9.565 -0.1385  0.2957 -0.1499
 4680SOL    HW116047   6.779   6.925   9.607 -1.6885 -0.5255 -1.8426
 4680SOL    HW216048   6.874   7.038   9.574  0.7376 -2.1717 -0.8197
 4681SOL     OW16049   3.150  10.576   5.884 -0.5105 -0.7369 -0.9635
 4681SOL    HW116050   3.150  10.671   5.883  0.6415 -0.7164 -1.1246
 4681SOL    HW216051   3.064  10.551   5.852 -1.0281  0.2464 -0.3930
 4682SOL     OW16052   6.275   3.078   8.729  0.1853 -0.6324  0.0441
 4682SOL    HW116053   6.214   3.114   8.794  0.7195 -0.9616  0.7388
 4682SOL    HW216054   6.247   3.117   8.646  0.5842  1.1775  0.7196
 4683SOL     OW16055   6.937   3.154   8.924  0.2782 -0.4735 -0.4832
 4683SOL    HW116056   6.919   3.223   8.988  0.8016  0.0368 -0.8845
 4683SOL    HW216057   6.887   3.180   8.847  0.9300 -0.2428 -0.8276
 4684SOL     OW16058   7.827   0.468   2.050  0.0140 -0.4595  0.0235
 4684SOL    HW116059   7.856   0.401   2.112 -1.7707 -0.1637  1.2450
 4684SOL    HW216060   7.732   0.457   2.046 -0.1806  1.2499 -0.6451
 4685SOL     OW16061   4.952   3.781   8.833  0.3952  0.2250 -0.9192
 4685SOL    HW116062   4.918   3.782   8.923  1.2912  0.0501 -0.5660
 4685SOL    HW216063   4.960   3.873   8.809  2.0390  0.3400 -0.0653
 4686SOL     OW16064  10.899   8.267   6.761  0.5021  0.7100  0.4273
 4686SOL    HW116065  10.870   8.176   6.750  1.7370  0.4126 -0.5277
 4686SOL    HW216066  10.914   8.277   6.855  0.0228  0.0458  0.5801
 4687SOL     OW16067   6.454   2.885   9.263 -0.9073  0.7447  0.1959
 4687SOL    HW116068   6.474   2.853   9.175 -3.1495 -1.2602  0.2944
 4687SOL    HW216069   6.434   2.806   9.313  0.6963  1.7867  2.6916
 4688SOL     OW16070   7.312   7.569   4.766  0.0120 -0.1207 -0.3582
 4688SOL    HW116071   7.288   7.585   4.857  0.3603 -1.9699  0.0998
 4688SOL    HW216072   7.229   7.555   4.721 -0.2246  1.7559 -0.5570
 4689SOL     OW16073   0.264   3.418  10.569  0.0036 -0.2611 -0.1294
 4689SOL    HW116074   0.313   3.344  10.605  1.1294 -0.3301 -1.7197
 4689SOL    HW216075   0.211   3.380  10.499 -0.5717  0.2040  0.0467
 4690SOL     OW16076   3.691   1.338   2.339 -0.0327 -0.2806 -0.0048
 4690SOL    HW116077   3.694   1.264   2.400  2.5350  1.3304  2.0740
 4690SOL    HW216078   3.658   1.411   2.392  0.1703  0.7079 -1.1947
 4691SOL     OW16079   8.526  10.189   3.582 -0.6776 -0.3449  0.3120
 4691SOL    HW116080   8.508  10.100   3.550 -3.4780  0.2818 -0.1076
 4691SOL    HW216081   8.476  10.196   3.663 -2.0420  1.4021 -0.6127
 4692SOL     OW16082   0.568   0.396   2.168 -0.3026  0.6840 -0.4422
 4692SOL    HW116083   0.570   0.394   2.264 -0.1264 -0.2685 -0.4587
 4692SOL    HW216084   0.593   0.486   2.145  0.2366  0.7530  0.3885
 4693SOL     OW16085   9.387   0.240   1.806 -0.0110  0.2054 -0.1818
 4693SOL    HW116086   9.425   0.188   1.877  0.2283  0.1541 -0.3444
 4693SOL    HW216087   9.462   0.283   1.766 -0.2371  0.8963  0.1278
 4694SOL     OW16088   0.613   4.189   0.016  0.1100 -0.1838 -0.2689
 4694SOL    HW116089   0.549   4.250   0.052  1.5264  1.0216  0.3114
 4694SOL    HW216090   0.606   4.199  -0.079  0.3181  0.9004 -0.1778
 4695SOL     OW16091   9.243   4.083   2.709  0.4719 -0.6582  0.6903
 4695SOL    HW116092   9.252   4.138   2.631 -0.4409  1.2605  1.8463
 4695SOL    HW216093   9.199   4.004   2.679 -1.5183  0.8011 -0.4579
 4696SOL     OW16094   0.073   9.720   3.696  0.1361  0.2136  0.7025
 4696SOL    HW116095  -0.007   9.757   3.659  0.2342  0.0099  0.2875
 4696SOL    HW216096   0.125   9.797   3.722  0.6865  0.3964 -0.8818
 4697SOL     OW16097   8.338  10.503   4.739  0.3743 -0.3513 -0.1652
 4697SOL    HW116098   8.360  10.425   4.789 -2.2254 -1.7022 -0.9428
 4697SOL    HW216099   8.292  10.559   4.802 -0.1284 -0.6645 -0.2455
 4698SOL     OW16100   1.046   2.139   1.355 -0.0430 -0.0519  0.2938
 4698SOL    HW116101   1.018   2.181   1.273  0.1670 -0.8180 -0.1823
 4698SOL    HW216102   0.990   2.178   1.422 -0.9412 -0.1775 -0.3646
 4699SOL     OW16103   0.020   5.809   0.608  0.4390  0.1387 -0.0331
 4699SOL    HW116104  -0.005   5.738   0.548  1.8050  0.2833 -0.8017
 4699SOL    HW216105   0.105   5.782   0.643 -0.3487  0.0196  1.9446
 4700SOL     OW16106   3.498   2.895   0.647  0.2536 -0.3875 -0.1991
 4700SOL    HW116107   3.438   2.944   0.591  1.6686 -2.3234 -3.7443
 4700SOL    HW216108   3.576   2.950   0.652 -0.1190  0.0892  0.4812
 4701SOL     OW16109   8.767   4.783  10.156 -0.5233  0.5683 -0.7874
 4701SOL    HW116110   8.723   4.832  10.087  0.0151  1.2634 -0.6447
 4701SOL    HW216111   8.700   4.724  10.189 -2.1173  3.2202  1.0526
 4702SOL     OW16112   4.012   5.974   1.189 -0.2320  0.2278  0.1133
 4702SOL    HW116113   3.954   6.049   1.202 -2.2713 -1.0819 -0.9665
 4702SOL    HW216114   4.082   5.986   1.253 -2.2947  1.2700  2.2960
 4703SOL     OW16115   0.726  10.605   4.706  0.1725  0.2106 -0.2325
 4703SOL    HW116116   0.753  10.678   4.651 -0.9157  0.3085 -0.6602
 4703SOL    HW216117   0.804  10.584   4.757  0.0325  2.7834  1.1851
 4704SOL     OW16118   3.795   8.128   7.807 -0.6571  0.0777  0.5362
 4704SOL    HW116119   3.848   8.171   7.739 -1.3843  0.4653  0.2102
 4704SOL    HW216120   3.830   8.164   7.889 -0.9846  1.0015  0.2881
 4705SOL     OW16121   7.261   6.018   0.735 -0.2146  0.4162 -0.2944
 4705SOL    HW116122   7.224   6.022   0.823  2.3730 -1.4201  0.9949
 4705SOL    HW216123   7.187   5.994   0.679 -1.6275  0.1922  1.5600
 4706SOL     OW16124   2.606   9.322   7.272  0.3052 -0.3783 -0.3353
 4706SOL    HW116125   2.672   9.385   7.244  2.3329 -2.2823 -0.0922
 4706SOL    HW216126   2.638   9.288   7.355 -1.4045 -0.8143  0.1906
 4707SOL     OW16127   7.016   2.224   5.908  0.2153  0.1619  0.0571
 4707SOL    HW116128   6.937   2.210   5.855 -0.0079  0.4553  0.3126
 4707SOL    HW216129   7.027   2.319   5.908  1.2509  0.0656 -0.9788
 4708SOL     OW16130   7.718   5.086  10.155 -0.0980 -0.0232 -0.6181
 4708SOL    HW116131   7.735   5.133  10.236  0.4291 -1.0932 -0.0833
 4708SOL    HW216132   7.762   5.137  10.087  0.8015  0.0418  0.0038
 4709SOL     OW16133   8.707   2.338   6.662  0.2277 -0.1787 -1.0490
 4709SOL    HW116134   8.729   2.410   6.604  1.4813  1.3030  1.1316
 4709SOL    HW216135   8.627   2.366   6.706  0.8310  0.0180 -0.0443
 4710SOL     OW16136   8.064   3.586   9.942  0.3586  0.2769  0.4393
 4710SOL    HW116137   8.048   3.596   9.848 -0.0309  2.0430  0.6567
 4710SOL    HW216138   7.997   3.640   9.983  1.0061  0.1478  1.7096
 4711SOL     OW16139   0.323   7.301  10.853 -0.5783  0.7575 -0.4519
 4711SOL    HW116140   0.348   7.362  10.923  1.3409 -0.7003  0.2049
 4711SOL    HW216141   0.262   7.241  10.895 -0.6211  0.7942 -0.4610
 4712SOL     OW16142   5.575  10.329   1.271  0.4789 -0.2199 -0.0483
 4712SOL    HW116143   5.638  10.400   1.260 -0.0238  0.2071 -0.1714
 4712SOL    HW216144   5.503  10.367   1.321  0.6134 -0.8934  0.6756
 4713SOL     OW16145   4.845   8.803   7.779  0.4077  0.1172  0.0012
 4713SOL    HW116146   4.832   8.885   7.732 -1.2966  0.2245  0.5934
 4713SOL    HW216147   4.769   8.796   7.837  1.1003 -1.3183  0.7949
 4714SOL     OW16148   9.571   5.803   1.377 -0.3435 -0.1717  0.0871
 4714SOL    HW116149   9.595   5.711   1.379  3.9558  0.6988  0.7705
 4714SOL    HW216150   9.588   5.831   1.287 -2.4364 -0.1288 -0.3418
 4715SOL     OW16151   4.254   0.468   7.019  0.7098 -0.1915  0.3466
 4715SOL    HW116152   4.312   0.428   7.083  0.5694 -0.8864  0.0491
 4715SOL    HW216153   4.312   0.501   6.950  0.8401  0.3088  0.6915
 4716SOL     OW16154   7.635   3.134   0.801 -0.3262  0.4309 -0.2679
 4716SOL    HW116155   7.723   3.170   0.802  0.1751 -0.6986 -1.4822
 4716SOL    HW216156   7.585   3.193   0.745 -0.0379  0.4156 -0.5440
 4717SOL     OW16157   5.574   1.915   6.093  0.1520 -0.0478 -0.1347
 4717SOL    HW116158   5.520   1.973   6.147  2.9174  1.9209  0.7805
 4717SOL    HW216159   5.570   1.830   6.136  0.7258  1.0003  2.1145
 4718SOL     OW16160  10.019   1.581   5.230  0.3080 -0.4887 -0.6624
 4718SOL    HW116161   9.956   1.620   5.291  1.1343  0.7620 -0.5607
 4718SOL    HW216162   9.994   1.489   5.225 -2.9050  0.3040 -2.3310
 4719SOL     OW16163   0.087   7.145   4.188 -0.3576 -0.0484 -0.0857
 4719SOL    HW116164   0.138   7.222   4.213 -0.8331  0.0299  0.6736
 4719SOL    HW216165   0.105   7.134   4.095  0.8059  0.1546  0.0955
 4720SOL     OW16166   8.341   4.750   7.046 -0.4144 -0.7890  0.8747
 4720SOL    HW116167   8.318   4.779   7.134  2.2402  1.5608  0.9755
 4720SOL    HW216168   8.428   4.710   7.056 -0.6098 -1.6202 -0.5176
 4721SOL     OW16169   5.170   3.174   6.656  0.2940  0.1008  0.2977
 4721SOL    HW116170   5.161   3.139   6.567 -0.0515  0.8170  0.0505
 4721SOL    HW216171   5.230   3.248   6.647  2.2995 -1.3309  1.0709
 4722SOL     OW16172   9.479   6.274   7.452 -0.0619 -0.1724  0.0275
 4722SOL    HW116173   9.513   6.217   7.383 -1.0980 -0.7191 -0.0510
 4722SOL    HW216174   9.389   6.245   7.465 -0.7472  1.6552 -0.2404
 4723SOL     OW16175   3.840  10.625   2.266  0.1191 -0.3001  0.7502
 4723SOL    HW116176   3.906  10.576   2.315  2.8726  2.3098 -0.0329
 4723SOL    HW216177   3.846  10.714   2.300 -2.1169  0.3318 -0.3106
 4724SOL     OW16178   5.186   1.242  10.699 -0.1770  0.0302  0.4997
 4724SOL    HW116179   5.175   1.147  10.695  1.0018 -0.0711 -0.8610
 4724SOL    HW216180   5.182   1.271  10.608 -0.1867  1.2579  0.8675
 4725SOL     OW16181   1.340   4.598   4.675 -0.3090  0.5880  0.3168
 4725SOL    HW116182   1.308   4.507   4.671  0.2520  0.3515  1.0326
 4725SOL    HW216183   1.348   4.624   4.583 -0.8388  0.0444  0.1075
 4726SOL     OW16184   1.090   0.407   0.798  0.2356  0.0344 -0.2271
 4726SOL    HW116185   1.094   0.313   0.779 -0.9215  0.3363 -2.1276
 4726SOL    HW216186   1.170   0.424   0.849 -0.1164 -2.1703  1.2038
 4727SOL     OW16187   3.656   4.111   9.006 -0.3246 -0.3665  0.0067
 4727SOL    HW116188   3.642   4.017   8.995 -1.3183 -0.2381  0.0606
 4727SOL    HW216189   3.712   4.136   8.932 -0.4778 -0.9075 -0.2945
 4728SOL     OW16190  10.193   8.936   6.135  0.0371  0.0865 -0.1510
 4728SOL    HW116191  10.142   8.944   6.215  1.0374  2.4969  0.3420
 4728SOL    HW216192  10.276   8.897   6.164 -0.9004 -2.4549 -0.6990
 4729SOL     OW16193   4.363   2.711   9.111 -0.6511 -0.1910 -0.5871
 4729SOL    HW116194   4.407   2.662   9.041  0.4928 -1.9096  1.2172
 4729SOL    HW216195   4.433   2.757   9.156 -1.6155  2.5418 -1.6823
 4730SOL     OW16196  10.726   4.837   6.358 -0.0431 -0.5639  0.5669
 4730SOL    HW116197  10.717   4.791   6.441  0.5402 -1.2071  0.2813
 4730SOL    HW216198  10.737   4.929   6.382  0.7112 -0.8219  1.2222
 4731SOL     OW16199   9.010  10.354  10.166  0.0042 -0.3767  0.0347
 4731SOL    HW116200   9.052  10.284  10.217 -0.5467 -0.0421  0.9806
 4731SOL    HW216201   9.067  10.429  10.178 -0.2634 -0.2264  0.3863
 4732SOL     OW16202  10.060   0.326  10.360  0.1220 -0.4751 -0.4942
 4732SOL    HW116203  10.072   0.278  10.442  0.3765 -1.4367 -1.0775
 4732SOL    HW216204  10.062   0.418  10.386  1.9564 -0.6988  0.3601
 4733SOL     OW16205   0.326   9.048   4.793  0.0235  0.0198 -0.0251
 4733SOL    HW116206   0.389   9.051   4.865  0.1325 -0.2785 -0.1079
 4733SOL    HW216207   0.367   9.100   4.724  0.7839 -1.2407 -0.5571
 4734SOL     OW16208   7.423  10.903  10.390  0.1299  0.1336  0.1092
 4734SOL    HW116209   7.512  10.868  10.385  0.7864  1.7759 -1.2147
 4734SOL    HW216210   7.383  10.877  10.308 -0.3232  0.0806  0.3481
 4735SOL     OW16211   2.038   3.096   3.414  0.0692 -0.5652 -0.1431
 4735SOL    HW116212   2.043   3.041   3.492 -1.1523 -0.7086 -0.1490
 4735SOL    HW216213   1.949   3.131   3.414  0.5500  0.7090 -0.6236
 4736SOL     OW16214   2.514   5.523   5.772 -0.6654 -0.1807  0.1940
 4736SOL    HW116215   2.465   5.503   5.852  1.1870 -2.3336  0.8995
 4736SOL    HW216216   2.554   5.608   5.789 -1.6203  0.1658  0.8438
 4737SOL     OW16217   6.277   0.993   8.584 -0.1146 -0.1757 -0.4619
 4737SOL    HW116218   6.305   0.907   8.616  0.0598  0.4358  1.1140
 4737SOL    HW216219   6.322   1.056   8.641 -1.8306  0.9167 -0.2440
 4738SOL     OW16220   4.568   9.550   4.949 -1.1022 -0.2260  0.6242
 4738SOL    HW116221   4.564   9.549   4.853  1.9629 -3.3986  0.3361
 4738SOL    HW216222   4.550   9.460   4.975  3.5331 -0.9309  2.4246
 4739SOL     OW16223   6.893   9.965   1.302 -0.1238  0.2429 -0.1417
 4739SOL    HW116224   6.935   9.967   1.388  0.6856  0.3315 -0.5323
 4739SOL    HW216225   6.906   9.876   1.270  0.1325  0.3862 -0.4414
 4740SOL     OW16226   6.567  10.021   5.451  0.2937  0.4239  0.2086
 4740SOL    HW116227   6.602   9.966   5.522  0.6732  1.2199  0.6600
 4740SOL    HW216228   6.557  10.108   5.492  1.0063  1.0264 -0.8405
 4741SOL     OW16229  10.245   9.450   5.485  0.0474 -0.1470 -0.0080
 4741SOL    HW116230  10.205   9.507   5.419  2.6583  1.1120 -0.6715
 4741SOL    HW216231  10.227   9.362   5.454 -0.3555  0.4036 -1.4463
 4742SOL     OW16232   8.365   7.450   4.254  0.4694 -0.3018 -0.1277
 4742SOL    HW116233   8.360   7.542   4.227  0.2054 -0.0537  0.7127
 4742SOL    HW216234   8.427   7.410   4.193  0.6562  0.4591 -0.4484
 4743SOL     OW16235   9.284   5.876   7.578 -0.3274 -0.0799  0.4775
 4743SOL    HW116236   9.225   5.836   7.642 -0.5664  0.4408  0.5927
 4743SOL    HW216237   9.355   5.813   7.567 -0.8537 -0.6727  0.4177
 4744SOL     OW16238   3.291   1.230   0.885 -0.1916  0.0385 -0.2636
 4744SOL    HW116239   3.281   1.140   0.918 -0.8066  0.1189 -0.2257
 4744SOL    HW216240   3.265   1.285   0.959 -1.7695  0.2231 -0.9311
 4745SOL     OW16241   3.353   9.790   3.494 -0.0465 -0.1634  0.2547
 4745SOL    HW116242   3.392   9.816   3.578  0.4733 -0.7515  0.2047
 4745SOL    HW216243   3.424   9.747   3.447 -0.9178 -1.8960  0.4469
 4746SOL     OW16244   8.592   8.787   9.108 -0.3852  0.0221  0.2090
 4746SOL    HW116245   8.677   8.766   9.069  0.2971  0.5387  1.3456
 4746SOL    HW216246   8.544   8.832   9.039  0.4507  0.1294 -0.3173
 4747SOL     OW16247   7.414   5.079   7.510 -0.4794 -0.7968  0.4304
 4747SOL    HW116248   7.495   5.036   7.480  0.0194  1.0106 -1.0267
 4747SOL    HW216249   7.386   5.027   7.586  1.1127 -2.4798 -0.0493
 4748SOL     OW16250   5.808  10.662   6.295 -0.1214  0.1278  0.2382
 4748SOL    HW116251   5.823  10.755   6.276 -2.8818  0.8458  1.1352
 4748SOL    HW216252   5.728  10.640   6.248 -0.8544 -1.1106  1.9517
 4749SOL     OW16253   8.449   0.454   9.928 -0.0026 -0.1420 -0.4896
 4749SOL    HW116254   8.480   0.364   9.923  1.0167  0.1989 -0.4206
 4749SOL    HW216255   8.526   0.507   9.910  0.0626  0.7850  2.1366
 4750SOL     OW16256  10.884   0.992   7.573 -0.0679 -0.0036 -0.4563
 4750SOL    HW116257  10.879   1.028   7.661  0.0923  0.6857 -0.7218
 4750SOL    HW216258  10.793   0.971   7.550 -0.3309  1.3610 -0.7465
 4751SOL     OW16259   4.951   3.530   9.226 -0.4052  0.2497  0.1135
 4751SOL    HW116260   4.901   3.505   9.303  0.7049 -0.5204  0.6035
 4751SOL    HW216261   4.920   3.471   9.157 -0.2621 -0.1321  0.3768
 4752SOL     OW16262   7.045  10.123   5.784 -0.5846  0.3287  0.6392
 4752SOL    HW116263   7.040  10.099   5.691 -2.7122  0.1290  0.7660
 4752SOL    HW216264   7.136  10.106   5.808  0.3338  1.4998 -1.6981
 4753SOL     OW16265   9.249   2.724   5.879 -0.1372 -0.6241 -0.0759
 4753SOL    HW116266   9.340   2.756   5.880 -0.0214 -0.9192 -0.6537
 4753SOL    HW216267   9.249   2.655   5.812 -1.0471  0.1416 -0.8855
 4754SOL     OW16268   3.151   6.427   3.156 -0.1939 -0.0426  0.4907
 4754SOL    HW116269   3.205   6.349   3.144 -0.9879 -0.3858 -1.2476
 4754SOL    HW216270   3.097   6.431   3.076 -1.6829  1.0917  1.4994
 4755SOL     OW16271   7.272   8.128   6.867 -0.2408  0.3727  0.1071
 4755SOL    HW116272   7.211   8.101   6.799  0.4808 -1.1656  0.0225
 4755SOL    HW216273   7.340   8.176   6.821 -0.1014 -0.0855 -0.1747
 4756SOL     OW16274   8.780   9.363   0.314  0.0362 -0.0050 -0.3001
 4756SOL    HW116275   8.741   9.400   0.393  1.3675  1.0643 -0.1121
 4756SOL    HW216276   8.859   9.318   0.346  0.0895 -0.3532 -0.9165
 4757SOL     OW16277   1.208  10.101   9.090 -0.5521 -0.0729  0.4669
 4757SOL    HW116278   1.119  10.077   9.065 -0.6675  1.5178 -0.8147
 4757SOL    HW216279   1.232  10.039   9.159 -2.4985 -0.7695  0.5551
 4758SOL     OW16280   2.222   3.123   5.752 -0.0538 -0.0236  0.1017
 4758SOL    HW116281   2.256   3.047   5.705  0.3913 -0.9092  1.7841
 4758SOL    HW216282   2.238   3.197   5.692 -0.9706 -1.2828 -1.7735
 4759SOL     OW16283   6.776   0.296   0.885  0.1880  0.2829  0.0121
 4759SOL    HW116284   6.767   0.242   0.807 -0.2234  0.7258 -0.2494
 4759SOL    HW216285   6.863   0.274   0.919  0.6189  0.5192 -0.8992
 4760SOL     OW16286   6.437   1.893   3.893  0.3733 -0.3763 -0.1001
 4760SOL    HW116287   6.363   1.839   3.865  0.7709 -0.6055 -0.7467
 4760SOL    HW216288   6.514   1.841   3.871  0.8602  1.2406 -2.6553
 4761SOL     OW16289   7.286   4.820   2.193 -0.4935 -0.5385 -0.4780
 4761SOL    HW116290   7.241   4.745   2.230 -0.4665 -0.2570  0.1442
 4761SOL    HW216291   7.253   4.827   2.104 -0.3951 -1.3647 -0.5885
 4762SOL     OW16292   2.879   2.519   7.237 -0.3883  0.4394  0.2307
 4762SOL    HW116293   2.969   2.548   7.219 -0.5458  0.3762 -0.7066
 4762SOL    HW216294   2.889   2.450   7.303  0.2354  0.5509  0.2590
 4763SOL     OW16295   1.391   5.414   5.165 -0.1040  0.6969  0.0335
 4763SOL    HW116296   1.403   5.421   5.070  2.0703  2.0237  0.3385
 4763SOL    HW216297   1.461   5.355   5.194  3.1530  4.6951  1.3353
 4764SOL     OW16298   7.118   0.411   5.442 -0.1733  0.0994 -0.1425
 4764SOL    HW116299   7.069   0.435   5.363 -1.2021 -0.1983  0.3851
 4764SOL    HW216300   7.210   0.419   5.417 -0.4838  0.0479 -1.3600
 4765SOL     OW16301  10.863   7.938   4.629 -0.5136 -0.2248 -0.4373
 4765SOL    HW116302  10.816   8.012   4.590 -0.5261  0.8164  1.4218
 4765SOL    HW216303  10.954   7.950   4.599  0.1925  2.4786  2.2522
 4766SOL     OW16304   3.751   8.808   3.649 -0.2364  0.6915  0.7544
 4766SOL    HW116305   3.749   8.895   3.610 -1.8159  0.7768  0.9340
 4766SOL    HW216306   3.674   8.806   3.706 -2.5170 -2.0513 -2.0391
 4767SOL     OW16307   9.873   9.122   8.870 -0.2417  0.0262  0.1066
 4767SOL    HW116308   9.844   9.111   8.779 -4.5460  0.1953  1.2530
 4767SOL    HW216309   9.909   9.037   8.894  0.5024 -0.1698 -1.5554
 4768SOL     OW16310  10.135   5.572   5.083 -0.4040 -0.1272 -0.4427
 4768SOL    HW116311  10.192   5.630   5.134 -0.3439  0.9778 -1.6960
 4768SOL    HW216312  10.056   5.564   5.136  0.8336 -1.6559  1.3073
 4769SOL     OW16313   9.708   8.037   5.990 -0.0176 -0.1830  0.3056
 4769SOL    HW116314   9.717   8.110   6.052  2.0533  1.2246 -1.4714
 4769SOL    HW216315   9.641   8.067   5.928  0.3736 -0.0735 -0.0649
 4770SOL     OW16316   9.257   5.731  10.944  0.7292 -0.2039 -0.7660
 4770SOL    HW116317   9.240   5.771  11.029  1.7959 -0.0836 -0.5952
 4770SOL    HW216318   9.287   5.643  10.964 -2.8665 -1.7013 -1.1710
 4771SOL     OW16319   4.908   1.362   3.033  0.0832 -0.4176 -0.1017
 4771SOL    HW116320   4.912   1.407   2.949 -0.4923 -0.4548 -0.1504
 4771SOL    HW216321   4.881   1.273   3.012  3.1957 -1.4442 -0.2343
 4772SOL     OW16322  10.298   6.263  10.920  0.5859  0.1435 -0.1389
 4772SOL    HW116323  10.373   6.214  10.887  0.3618  0.4617 -1.1354
 4772SOL    HW216324  10.222   6.217  10.886  0.2782 -0.4630  1.2609
 4773SOL     OW16325   4.779   3.012  10.506  0.0035 -0.3614 -0.6223
 4773SOL    HW116326   4.789   3.078  10.438  1.4065  0.7175  0.5502
 4773SOL    HW216327   4.869   2.989  10.530 -0.4198 -0.1568  1.3547
 4774SOL     OW16328   1.734   1.923   8.959  0.0729 -0.3470 -0.0144
 4774SOL    HW116329   1.805   1.974   8.920 -1.5556  2.4356  0.3769
 4774SOL    HW216330   1.760   1.831   8.946  2.7215  0.5246 -1.6561
 4775SOL     OW16331   1.693   1.982   0.666 -0.2514  0.6352  0.4917
 4775SOL    HW116332   1.664   2.073   0.668  1.9924  1.5837 -2.4338
 4775SOL    HW216333   1.670   1.951   0.579 -0.1289 -1.3383  1.1024
 4776SOL     OW16334   0.162   4.581   3.562  0.3268 -0.2315 -0.1281
 4776SOL    HW116335   0.242   4.565   3.512  0.6648 -0.7401  0.5499
 4776SOL    HW216336   0.129   4.493   3.581  0.6499 -0.0751  1.2259
 4777SOL     OW16337   3.858   4.194   0.407 -0.1029  0.0247  0.6426
 4777SOL    HW116338   3.863   4.271   0.350 -0.0435  0.4395  1.2020
 4777SOL    HW216339   3.798   4.135   0.362 -1.0719  0.8752  0.7698
 4778SOL     OW16340   4.950   0.792   7.055 -0.1686  0.2963 -0.2103
 4778SOL    HW116341   4.935   0.878   7.095  1.3738  0.5683 -0.1528
 4778SOL    HW216342   5.006   0.810   6.979 -1.3504 -0.4608 -1.3067
 4779SOL     OW16343   7.561  10.496   3.641 -0.1991  0.7859 -0.0791
 4779SOL    HW116344   7.578  10.589   3.625 -1.8522  1.1961  0.3832
 4779SOL    HW216345   7.480  10.478   3.595  0.7063 -0.7549 -1.1381
 4780SOL     OW16346   4.525   7.161  10.786 -0.2205 -0.8563 -0.3635
 4780SOL    HW116347   4.580   7.098  10.739  1.6188  0.5774 -0.2347
 4780SOL    HW216348   4.516   7.124  10.873 -0.1405 -1.4919 -0.6184
 4781SOL     OW16349   5.261   8.976   4.699  0.2993  0.1216  0.8685
 4781SOL    HW116350   5.285   8.885   4.681 -3.1821 -1.0454  1.3445
 4781SOL    HW216351   5.309   8.997   4.779 -0.1880 -2.0244  1.8239
 4782SOL     OW16352   6.074   0.943   2.446 -0.0921  0.5447 -0.1606
 4782SOL    HW116353   5.998   1.000   2.457 -0.9227 -0.6275  0.4432
 4782SOL    HW216354   6.037   0.858   2.422  0.8026 -0.7354  2.5776
 4783SOL     OW16355   6.017   5.495   4.123 -0.2798 -0.2562  0.1563
 4783SOL    HW116356   5.942   5.535   4.168  1.6370  3.9826  0.0815
 4783SOL    HW216357   6.047   5.428   4.183 -1.4775  1.0403  2.3545
 4784SOL     OW16358   1.127   5.387  11.004 -0.0885 -0.1375 -0.0201
 4784SOL    HW116359   1.107   5.303  10.961  0.4829 -1.0245  1.3720
 4784SOL    HW216360   1.077   5.384  11.086 -0.2660  1.0153 -0.0752
 4785SOL     OW16361   6.555   3.905   1.053  0.3930 -0.0951 -0.0513
 4785SOL    HW116362   6.498   3.981   1.043  0.8359  0.3266  0.5306
 4785SOL    HW216363   6.517   3.855   1.126 -2.3036 -2.6787 -2.9251
 4786SOL     OW16364  10.514   6.782   5.074  0.2042  0.1338 -0.2749
 4786SOL    HW116365  10.558   6.857   5.112  2.5299 -0.1776 -2.1317
 4786SOL    HW216366  10.569   6.707   5.096 -1.3032 -0.8557  0.3195
 4787SOL     OW16367   1.538   8.884   3.590  0.0251  0.5484 -0.4421
 4787SOL    HW116368   1.482   8.944   3.542  0.3428  0.7194 -0.6053
 4787SOL    HW216369   1.560   8.932   3.671 -2.5425 -0.7012  1.1062
 4788SOL     OW16370   1.132   0.653   9.066 -0.0940 -0.1942  0.1066
 4788SOL    HW116371   1.161   0.576   9.116 -3.3656 -1.0500  0.9702
 4788SOL    HW216372   1.153   0.727   9.123  1.0871 -0.6507  0.2921
 4789SOL     OW16373   4.278   8.418   6.136 -0.5258 -0.2592 -0.0519
 4789SOL    HW116374   4.314   8.330   6.119 -1.7730 -0.5628 -1.2782
 4789SOL    HW216375   4.187   8.412   6.108 -0.5202  1.5482 -0.5603
 4790SOL     OW16376   2.334   6.862   5.179 -0.0138  0.6327  0.4194
 4790SOL    HW116377   2.342   6.924   5.252 -0.5775 -0.3094  1.3115
 4790SOL    HW216378   2.240   6.856   5.162  0.1356  1.1853 -0.7168
 4791SOL     OW16379   4.914   1.176   5.710 -0.5979 -0.1995 -0.1663
 4791SOL    HW116380   4.884   1.085   5.710  0.8947 -0.7232  0.3311
 4791SOL    HW216381   4.931   1.196   5.618  0.7661 -1.0352 -0.1183
 4792SOL     OW16382   8.007   0.900   1.060  0.0419 -0.5264 -0.0155
 4792SOL    HW116383   8.100   0.881   1.067  0.0031 -0.4291  0.8710
 4792SOL    HW216384   8.003   0.993   1.038  0.1598 -0.6409 -0.5300
 4793SOL     OW16385   1.367   2.184   4.178 -0.3238  0.2926 -0.7302
 4793SOL    HW116386   1.334   2.249   4.239 -0.6355 -0.6656  0.1392
 4793SOL    HW216387   1.421   2.234   4.116 -0.1462  1.2942  0.2169
 4794SOL     OW16388   0.253   1.448   7.367 -0.3301 -0.0107 -0.0721
 4794SOL    HW116389   0.250   1.536   7.330  2.6497  1.6572  3.1314
 4794SOL    HW216390   0.331   1.408   7.328 -0.9382 -0.7707 -0.5367
 4795SOL     OW16391   3.776   4.253   4.790  0.5194 -0.2200  0.4158
 4795SOL    HW116392   3.857   4.293   4.760  0.3814 -0.6402 -0.5510
 4795SOL    HW216393   3.780   4.259   4.885  1.4935  0.1308  0.3602
 4796SOL     OW16394   8.269   0.314   4.156  0.1974  0.0156  0.0451
 4796SOL    HW116395   8.245   0.222   4.171  1.1918 -0.3113 -0.3117
 4796SOL    HW216396   8.304   0.316   4.067 -0.1816  0.8270 -0.1001
 4797SOL     OW16397   5.812   5.874   5.817  0.8916 -0.7413  0.0773
 4797SOL    HW116398   5.843   5.816   5.887  1.1605  0.1516  0.7063
 4797SOL    HW216399   5.844   5.961   5.841  0.5270 -0.3286 -0.8788
 4798SOL     OW16400   1.212   9.490   8.252  0.4534 -0.2157  0.2034
 4798SOL    HW116401   1.138   9.550   8.265  2.1655  1.6479  2.0395
 4798SOL    HW216402   1.261   9.528   8.179 -0.2307 -1.3042 -0.8423
 4799SOL     OW16403   8.544   9.250   4.159 -0.1154 -0.0169 -0.0572
 4799SOL    HW116404   8.550   9.200   4.078 -2.5422  0.6422 -0.7075
 4799SOL    HW216405   8.636   9.265   4.185  0.7228 -3.2517 -0.7312
 4800SOL     OW16406   0.505  10.441   9.211  0.0056  0.5778  0.6600
 4800SOL    HW116407   0.489  10.464   9.302 -2.4867 -0.1307  0.4889
 4800SOL    HW216408   0.437  10.488   9.162 -0.8929 -1.6243 -0.3943
 4801SOL     OW16409   3.004   6.902   0.428 -0.2246 -0.4114  0.2844
 4801SOL    HW116410   2.977   6.816   0.394 -0.3226 -0.6458  0.9464
 4801SOL    HW216411   3.044   6.883   0.513 -2.4046  0.4083  1.5811
 4802SOL     OW16412   7.123   0.617   8.340 -0.0188  0.0826 -0.1660
 4802SOL    HW116413   7.200   0.622   8.283 -0.1600  1.7349 -0.2861
 4802SOL    HW216414   7.149   0.558   8.410  1.5493  0.9670  0.0448
 4803SOL     OW16415   5.201  11.035   0.082  0.0919 -0.0705 -0.1409
 4803SOL    HW116416   5.236  11.034  -0.008  0.5141  1.0287 -0.0045
 4803SOL    HW216417   5.106  11.031   0.070  0.1427  0.1017 -0.6456
 4804SOL     OW16418   1.293   3.449   8.915 -0.4100 -0.4412 -0.1807
 4804SOL    HW116419   1.243   3.398   8.851 -2.7046  1.4315 -0.0153
 4804SOL    HW216420   1.371   3.479   8.868 -2.3956  1.5267 -2.4605
 4805SOL     OW16421   8.566   1.528   8.607 -0.3045 -0.1602  0.5746
 4805SOL    HW116422   8.644   1.486   8.644  0.1867 -0.9239 -1.2577
 4805SOL    HW216423   8.601   1.592   8.544 -1.1359 -1.4343 -1.2469
 4806SOL     OW16424   2.586   0.539   8.392 -0.1471 -0.5373  0.6055
 4806SOL    HW116425   2.554   0.624   8.420  0.5592  0.0365 -0.2662
 4806SOL    HW216426   2.579   0.541   8.296  1.6813 -0.6816  0.4282
 4807SOL     OW16427   0.846   6.996   9.993  0.0267  0.1773  0.5600
 4807SOL    HW116428   0.904   6.961   9.926  1.1991  0.8616  1.1764
 4807SOL    HW216429   0.781   6.928  10.008 -0.9601  0.4309 -2.0495
 4808SOL     OW16430   9.682   9.069  10.338 -0.0992  0.1667 -0.1762
 4808SOL    HW116431   9.609   9.103  10.390  0.8738  1.1617  0.5801
 4808SOL    HW216432   9.749   9.137  10.343  1.0933 -0.9552 -0.4052
 4809SOL     OW16433   4.473   5.051   5.170 -0.1444 -0.3012  0.0518
 4809SOL    HW116434   4.477   5.108   5.247 -0.6262 -0.5620  0.2781
 4809SOL    HW216435   4.546   4.990   5.181  1.3696  1.2528 -1.0025
 4810SOL     OW16436   5.046  10.315   8.681 -0.3377 -0.2287 -0.2437
 4810SOL    HW116437   5.035  10.399   8.725 -1.2887  0.3198 -1.4629
 4810SOL    HW216438   5.094  10.261   8.744 -0.0494  1.0921  0.7134
 4811SOL     OW16439   3.519   2.556   3.947  0.2873 -0.2813 -0.2591
 4811SOL    HW116440   3.473   2.568   4.030  0.5325 -0.2870 -0.1218
 4811SOL    HW216441   3.525   2.644   3.910  0.0269 -0.3014 -0.3537
 4812SOL     OW16442   7.254   8.187   6.569  0.2493  0.0966  0.0724
 4812SOL    HW116443   7.187   8.124   6.542  0.6386 -0.2543 -0.0729
 4812SOL    HW216444   7.215   8.273   6.549  0.0658 -0.1196 -0.5176
 4813SOL     OW16445   2.112   5.308   5.557  0.4253 -0.2519 -0.6364
 4813SOL    HW116446   2.025   5.313   5.516  0.6370 -0.7193 -1.1529
 4813SOL    HW216447   2.101   5.246   5.629  0.3743 -0.4737 -0.8317
 4814SOL     OW16448   2.050   2.041   6.504 -0.3934  0.0540  0.2312
 4814SOL    HW116449   2.051   2.117   6.563 -1.4745  0.8676 -0.7749
 4814SOL    HW216450   1.970   1.994   6.528  0.0362 -0.5377  0.5344
 4815SOL     OW16451   7.464  10.650   7.734 -0.1429 -0.1530 -0.4892
 4815SOL    HW116452   7.375  10.670   7.761  0.5345 -0.3527  2.0947
 4815SOL    HW216453   7.512  10.732   7.746  0.0753 -0.0428 -1.8728
 4816SOL     OW16454   0.679   7.026  10.847  0.0709  0.1375  0.2350
 4816SOL    HW116455   0.748   6.960  10.858 -0.1319  0.0853  1.3991
 4816SOL    HW216456   0.597   6.977  10.859 -0.0679  0.6809  1.8754
 4817SOL     OW16457   5.018   8.458   5.088 -0.1044  0.1297  0.3436
 4817SOL    HW116458   4.968   8.506   5.021  0.4841  0.6367  0.2568
 4817SOL    HW216459   5.036   8.524   5.155  0.4187 -0.0595  0.3923
 4818SOL     OW16460   3.995  10.002   7.604  0.3632  0.1581  0.0741
 4818SOL    HW116461   4.007  10.051   7.522 -0.1107  1.2524  0.6504
 4818SOL    HW216462   3.902   9.980   7.605 -0.0944  1.9943  1.3181
 4819SOL     OW16463   3.632   6.635   8.974 -0.1414 -0.5861  0.2923
 4819SOL    HW116464   3.583   6.711   9.005  0.6394 -0.1505  0.4945
 4819SOL    HW216465   3.721   6.669   8.960  0.0043 -1.2616 -0.4464
 4820SOL     OW16466   6.230   7.401   9.875 -0.0535  0.7413 -0.2833
 4820SOL    HW116467   6.255   7.362   9.791  1.5610  0.0172  0.5021
 4820SOL    HW216468   6.135   7.390   9.878  0.0187 -0.4831 -1.4019
 4821SOL     OW16469   7.272   2.946  10.377  0.6681  0.1011 -0.2927
 4821SOL    HW116470   7.306   2.860  10.402 -1.4041 -0.8668 -0.5666
 4821SOL    HW216471   7.271   2.945  10.281  0.4117  0.3295 -0.2944
 4822SOL     OW16472   9.809   4.399   1.898 -0.1030 -0.2531 -0.0632
 4822SOL    HW116473   9.829   4.330   1.835 -1.1382  0.0935 -0.8029
 4822SOL    HW216474   9.864   4.472   1.872  0.7937 -0.6918  0.5536
 4823SOL     OW16475   8.875  10.613   2.993  0.1214  0.3868 -0.0594
 4823SOL    HW116476   8.907  10.523   2.989 -2.6690 -0.7305  0.8425
 4823SOL    HW216477   8.877  10.643   2.902 -1.2223 -1.4817 -0.7554
 4824SOL     OW16478   8.697   5.929   2.188  0.6081  0.3451  0.1013
 4824SOL    HW116479   8.754   5.854   2.206  0.2619  0.2686  0.9341
 4824SOL    HW216480   8.752   6.005   2.206 -0.3676  0.3237  4.1349
 4825SOL     OW16481   3.275   9.516   2.165  0.1572  0.0372  0.2008
 4825SOL    HW116482   3.228   9.506   2.248  0.5864  0.7547  0.5386
 4825SOL    HW216483   3.219   9.473   2.101 -0.2105 -0.4750  0.8470
 4826SOL     OW16484   5.486   7.520   9.302 -0.0981  0.0558  0.0164
 4826SOL    HW116485   5.509   7.600   9.349 -0.5358  0.1201  0.1233
 4826SOL    HW216486   5.443   7.550   9.222  0.2813 -0.0616 -0.2363
 4827SOL     OW16487  10.358   0.784   0.292 -0.1028  0.3626  0.4994
 4827SOL    HW116488  10.432   0.768   0.234 -0.6905 -0.7316  0.0194
 4827SOL    HW216489  10.320   0.867   0.260  0.1718  0.2871 -0.0365
 4828SOL     OW16490   4.970   5.556   5.926 -0.1007 -0.1567 -0.3301
 4828SOL    HW116491   4.982   5.486   5.862  0.7943  0.8234 -1.2868
 4828SOL    HW216492   4.999   5.635   5.880 -1.4470  0.9177  0.5672
 4829SOL     OW16493   4.364   9.363  10.175  0.3861  0.2850 -0.1928
 4829SOL    HW116494   4.453   9.335  10.153  0.0672  0.1845 -1.4087
 4829SOL    HW216495   4.330   9.293  10.230  0.7312 -0.1494 -0.5234
 4830SOL     OW16496   7.020   9.774   7.016 -0.1024  1.0463  0.4613
 4830SOL    HW116497   6.995   9.681   7.023 -0.7587  1.1384 -0.4578
 4830SOL    HW216498   7.110   9.772   6.983 -0.4735  0.7253 -0.5880
 4831SOL     OW16499   1.912   3.325   5.542 -0.1044 -0.0354 -0.4236
 4831SOL    HW116500   1.974   3.292   5.478 -0.8705 -0.1912 -1.1022
 4831SOL    HW216501   1.845   3.257   5.547 -0.9331  0.7400 -0.7335
 4832SOL     OW16502   6.375   2.422   5.633 -0.2064 -0.0686 -0.3961
 4832SOL    HW116503   6.296   2.474   5.618 -0.1750  0.6049  1.4460
 4832SOL    HW216504   6.356   2.337   5.594 -1.5669  0.3086 -0.5926
 4833SOL     OW16505   9.121   6.719   8.276 -0.0933  0.1128  0.0729
 4833SOL    HW116506   9.037   6.676   8.265  0.0368 -0.7551  2.0878
 4833SOL    HW216507   9.133   6.726   8.370  1.9171  0.5674 -0.1590
 4834SOL     OW16508   7.515   3.298   3.740 -0.3759 -0.0425  0.0058
 4834SOL    HW116509   7.589   3.272   3.795 -1.4991 -2.1156  0.6572
 4834SOL    HW216510   7.440   3.301   3.800 -1.4935 -1.6919 -1.1910
 4835SOL     OW16511   5.659   6.044   6.335  0.6114 -0.0692 -0.0010
 4835SOL    HW116512   5.591   6.060   6.270  2.1432  1.1336 -1.4058
 4835SOL    HW216513   5.612   6.012   6.412 -1.5893  1.3799 -0.6633
 4836SOL     OW16514   8.411   3.345  10.000  0.3485  0.7531  0.0758
 4836SOL    HW116515   8.340   3.282   9.993  1.0425 -0.1250  0.6752
 4836SOL    HW216516   8.413   3.369  10.093  0.6397  1.0093  0.0080
 4837SOL     OW16517   7.569   7.497   6.242 -0.7403  0.7591 -0.6711
 4837SOL    HW116518   7.520   7.450   6.174  0.7740 -0.9243 -0.6703
 4837SOL    HW216519   7.653   7.451   6.248 -0.6411  1.1068  2.0235
 4838SOL     OW16520   8.287   8.912   8.372 -0.5789 -0.2693 -0.1481
 4838SOL    HW116521   8.246   8.834   8.410 -2.2360  0.0747 -1.1345
 4838SOL    HW216522   8.215   8.976   8.366  0.5681  1.0723 -0.0803
 4839SOL     OW16523   3.407   9.490   0.012 -0.1896 -0.1519  0.5031
 4839SOL    HW116524   3.326   9.471  -0.036 -0.6032 -0.8888  1.4385
 4839SOL    HW216525   3.445   9.565  -0.033 -0.2820 -1.1182 -1.2626
 4840SOL     OW16526   9.901   9.112   7.096  0.3901  0.5463  0.5011
 4840SOL    HW116527   9.815   9.146   7.121  0.9534  0.8374  2.1931
 4840SOL    HW216528   9.890   9.017   7.095 -0.2502  0.6181 -0.5260
 4841SOL     OW16529   9.356   6.109   0.993  0.3148  0.5703  0.0807
 4841SOL    HW116530   9.447   6.115   1.022 -0.0918  1.9658  1.2111
 4841SOL    HW216531   9.341   6.015   0.981  1.9453  0.3264 -0.3213
 4842SOL     OW16532  10.929   8.863   7.756  0.0450 -0.5535  0.1662
 4842SOL    HW116533  10.971   8.857   7.841  0.8692  2.4345  0.0935
 4842SOL    HW216534  10.851   8.917   7.772 -0.2279 -0.6381 -0.8040
 4843SOL     OW16535   4.870   4.084  10.747 -0.1804  1.1172 -0.1947
 4843SOL    HW116536   4.826   4.137  10.813 -1.8983 -0.7680  0.2692
 4843SOL    HW216537   4.909   4.012  10.797  4.6064  3.1669 -0.4003
 4844SOL     OW16538   6.599   2.606  10.092  0.4656 -0.2887  0.5723
 4844SOL    HW116539   6.527   2.644  10.042 -1.9054 -1.4159  2.8727
 4844SOL    HW216540   6.662   2.677  10.103 -0.4174  0.8309 -1.2722
 4845SOL     OW16541   7.194   9.719   1.223 -0.0609  0.2026  0.6835
 4845SOL    HW116542   7.170   9.697   1.314  0.7424 -0.9149  0.6381
 4845SOL    HW216543   7.267   9.781   1.232 -0.4779  0.6902  0.7895
 4846SOL     OW16544   2.560   9.594   1.884 -0.1699 -0.4057 -0.1877
 4846SOL    HW116545   2.616   9.543   1.943  0.7525  0.2667 -0.4653
 4846SOL    HW216546   2.595   9.683   1.888  0.1082 -0.3957 -1.9838
 4847SOL     OW16547   0.456   3.559   6.755  0.3166  0.0984  0.2626
 4847SOL    HW116548   0.468   3.466   6.772 -0.8411 -0.0778  0.1924
 4847SOL    HW216549   0.373   3.581   6.798  0.3551  0.9882 -0.0950
 4848SOL     OW16550   0.747   3.370  10.185  0.3192  0.6142 -0.3560
 4848SOL    HW116551   0.828   3.389  10.233  0.9165 -0.8703 -0.7215
 4848SOL    HW216552   0.748   3.275  10.172 -0.6782  0.7633 -1.7844
 4849SOL     OW16553  10.055   8.384   9.161 -0.0869 -0.4574 -0.0094
 4849SOL    HW116554   9.960   8.385   9.146 -0.0401 -0.9184 -0.3555
 4849SOL    HW216555  10.068   8.445   9.234 -0.6959 -0.7020  0.3154
 4850SOL     OW16556   9.296   8.360   2.278 -0.2539 -0.2354  0.5966
 4850SOL    HW116557   9.302   8.350   2.183 -1.0713  0.8215  0.4136
 4850SOL    HW216558   9.360   8.298   2.313  1.4620  0.7284 -0.6887
 4851SOL     OW16559   8.682   7.363   0.443 -0.2628  0.2624  0.0058
 4851SOL    HW116560   8.643   7.392   0.526  1.0664  0.0316  0.7267
 4851SOL    HW216561   8.648   7.275   0.431 -1.4966  0.7676 -0.3813
 4852SOL     OW16562  10.318   4.518   3.112  0.2597 -0.0704  0.7823
 4852SOL    HW116563  10.234   4.518   3.066 -0.8275 -3.6938  2.3833
 4852SOL    HW216564  10.340   4.610   3.122 -3.8908  1.1034  0.8876
 4853SOL     OW16565   7.064   1.108   9.541  0.1852 -0.1951 -0.7479
 4853SOL    HW116566   7.023   1.178   9.490  0.4987  1.2879  0.9431
 4853SOL    HW216567   7.008   1.098   9.618  1.8134  0.3654  0.5461
 4854SOL     OW16568   4.491   4.949   0.852 -0.3891 -0.6120  0.6216
 4854SOL    HW116569   4.461   4.859   0.845  1.0702 -1.0871 -0.0562
 4854SOL    HW216570   4.541   4.951   0.934 -0.5942 -0.3538  0.7432
 4855SOL     OW16571   1.633   0.062   4.268 -0.1373  0.2934  0.2644
 4855SOL    HW116572   1.608  -0.028   4.288  1.7227 -0.0837  1.1491
 4855SOL    HW216573   1.688   0.055   4.190  1.9287  0.3116  1.6455
 4856SOL     OW16574   0.127   1.079  10.746 -0.2097  0.1800  0.3271
 4856SOL    HW116575   0.150   1.146  10.811 -1.8656  1.3472 -0.2184
 4856SOL    HW216576   0.065   1.123  10.688 -0.9286 -1.6829 -0.3821
 4857SOL     OW16577   1.035   1.046   7.643 -0.4384 -0.0515 -0.5435
 4857SOL    HW116578   1.068   1.073   7.558 -1.0007 -0.1938 -0.8097
 4857SOL    HW216579   1.071   0.958   7.656 -1.2149 -0.4631 -1.1168
 4858SOL     OW16580   4.458   4.160   7.448  0.2946 -0.1611 -0.7423
 4858SOL    HW116581   4.439   4.191   7.536  0.1397 -0.3891 -0.6938
 4858SOL    HW216582   4.485   4.238   7.400  0.2117 -0.0070 -0.5389
 4859SOL     OW16583   3.664   3.304   7.374 -0.4399  0.3147  0.7314
 4859SOL    HW116584   3.679   3.360   7.298  0.0511 -0.5061  0.2030
 4859SOL    HW216585   3.752   3.286   7.408 -0.6307  0.3223  1.2359
 4860SOL     OW16586   5.948   3.985   5.543 -0.4510  0.1920  0.5550
 4860SOL    HW116587   6.026   3.931   5.529  0.7031  2.0884 -0.7321
 4860SOL    HW216588   5.938   3.988   5.638  0.2654 -1.1095  0.6996
 4861SOL     OW16589   2.477   2.094   1.118  0.2718  0.0883 -0.3116
 4861SOL    HW116590   2.493   2.186   1.099  0.9766 -0.4415 -2.6476
 4861SOL    HW216591   2.558   2.050   1.093 -0.3394 -1.2552 -0.0158
 4862SOL     OW16592   1.526   1.735   7.734  0.0149  0.1339 -0.4387
 4862SOL    HW116593   1.479   1.787   7.668  2.1597  1.5060 -0.9780
 4862SOL    HW216594   1.562   1.661   7.684  1.8959  1.3340 -0.9608
 4863SOL     OW16595   7.772   8.228   2.008 -0.0763 -0.0493  0.1611
 4863SOL    HW116596   7.742   8.150   1.962 -0.9810 -0.6964  1.7537
 4863SOL    HW216597   7.866   8.231   1.993 -0.1200 -1.1274 -0.3816
 4864SOL     OW16598  10.562   2.524   7.154  0.4702 -0.5997  0.3484
 4864SOL    HW116599  10.485   2.476   7.123  0.3749 -1.0472  1.2432
 4864SOL    HW216600  10.527   2.588   7.216  0.4852  1.3378 -1.5453
 4865SOL     OW16601   1.514   8.215   2.264 -0.4829 -0.6070  0.0250
 4865SOL    HW116602   1.597   8.232   2.308 -0.4606 -1.3049  0.2580
 4865SOL    HW216603   1.531   8.236   2.172  0.6215 -2.8910 -0.3470
 4866SOL     OW16604  10.301   3.904   4.383  0.2950  0.1284  0.1778
 4866SOL    HW116605  10.220   3.854   4.389  0.6848 -0.7477 -1.3598
 4866SOL    HW216606  10.286   3.967   4.313  0.8103  0.2311  0.1527
 4867SOL     OW16607   0.954   2.767   2.596  0.6353  0.3261 -0.0128
 4867SOL    HW116608   1.008   2.723   2.662  0.1661  2.9319  2.2587
 4867SOL    HW216609   0.917   2.843   2.641 -2.7036  0.2554 -2.2498
 4868SOL     OW16610   6.314   7.121   2.948  0.3070  0.7453  0.2806
 4868SOL    HW116611   6.386   7.101   3.007  0.4113 -1.9478 -0.5973
 4868SOL    HW216612   6.238   7.131   3.006  0.6040 -0.7677  0.9842
 4869SOL     OW16613   5.850   2.473   9.859  0.0326 -0.7021 -0.3226
 4869SOL    HW116614   5.875   2.426   9.779 -0.1049 -0.4432 -0.5194
 4869SOL    HW216615   5.896   2.427   9.929  0.1225 -0.9571 -0.5463
 4870SOL     OW16616   0.083   7.923   9.952  0.4870 -0.7181 -0.1658
 4870SOL    HW116617   0.011   7.954   9.896  0.1844  1.2004  1.1737
 4870SOL    HW216618   0.058   7.833   9.975 -2.6485  0.4935  1.8907
 4871SOL     OW16619   6.435   5.229   8.575 -0.1717 -0.7243  0.1721
 4871SOL    HW116620   6.366   5.210   8.638  0.5793 -4.3694  0.0673
 4871SOL    HW216621   6.507   5.265   8.628 -0.1239 -2.2519  1.2024
 4872SOL     OW16622   2.600   3.087  10.953 -0.1478 -0.3266  0.1905
 4872SOL    HW116623   2.607   3.096  11.048  0.9198 -0.7498  0.1636
 4872SOL    HW216624   2.627   2.997  10.935 -0.2107 -0.2114 -0.5309
 4873SOL     OW16625   0.924   2.842   3.689 -0.3212 -0.6834 -0.4459
 4873SOL    HW116626   0.868   2.915   3.660 -1.3461 -1.2032  0.1607
 4873SOL    HW216627   0.971   2.816   3.610 -1.1346 -0.3861 -1.0513
 4874SOL     OW16628   5.383   5.573   2.768  0.2923 -0.3355  0.1766
 4874SOL    HW116629   5.458   5.631   2.753  0.6662 -1.1057 -1.0319
 4874SOL    HW216630   5.393   5.504   2.703 -1.2100 -0.7124  0.3262
 4875SOL     OW16631   4.155   2.886   0.169 -0.0386  0.1924  0.5796
 4875SOL    HW116632   4.228   2.889   0.107 -0.0477  2.3995  0.5728
 4875SOL    HW216633   4.190   2.838   0.244  0.7578 -0.4652 -0.1885
 4876SOL     OW16634   6.971  10.973   4.772 -0.3435 -0.2803 -0.3151
 4876SOL    HW116635   7.043  10.995   4.830 -0.3823 -0.2133 -0.2922
 4876SOL    HW216636   6.982  10.880   4.754 -0.4173 -0.3373 -0.0779
 4877SOL     OW16637   8.740   0.713   7.719  0.0596  0.2050  0.1561
 4877SOL    HW116638   8.690   0.637   7.690  0.0215  0.6567 -0.9916
 4877SOL    HW216639   8.708   0.785   7.665  2.1892  0.4354 -0.8857
 4878SOL     OW16640   2.622   0.285   2.219  0.5924  0.1684 -0.1663
 4878SOL    HW116641   2.550   0.281   2.282  0.7054  0.4889 -0.0159
 4878SOL    HW216642   2.580   0.270   2.134 -0.1944  3.3538 -0.4662
 4879SOL     OW16643   8.086   7.289   5.966  0.2688  0.0517  0.4606
 4879SOL    HW116644   8.151   7.264   5.901  0.7230  2.7787 -0.2770
 4879SOL    HW216645   8.003   7.293   5.918 -0.1267 -1.5849  0.9637
 4880SOL     OW16646   1.286   4.594   7.367 -0.1434 -0.1103  0.1742
 4880SOL    HW116647   1.205   4.636   7.338  0.5062  0.1817 -1.3168
 4880SOL    HW216648   1.257   4.521   7.423 -1.4186  0.1183 -0.1680
 4881SOL     OW16649   7.505   1.134   1.874 -0.2406  0.0373 -0.7121
 4881SOL    HW116650   7.492   1.223   1.842  1.0277  1.1612  1.6077
 4881SOL    HW216651   7.581   1.101   1.826  0.4623  0.9543 -0.2471
 4882SOL     OW16652   2.322   9.101   5.803  0.1500  0.1161 -0.2001
 4882SOL    HW116653   2.262   9.045   5.854  0.8380 -1.6480 -1.2470
 4882SOL    HW216654   2.406   9.055   5.806  0.8371  1.2920 -0.8268
 4883SOL     OW16655   4.536   6.335   2.044  0.0063 -0.3807  0.2548
 4883SOL    HW116656   4.472   6.265   2.057  1.2083 -1.4652  0.4936
 4883SOL    HW216657   4.543   6.344   1.949  0.0212 -0.7407  0.2225
 4884SOL     OW16658   5.398   8.385   5.771 -0.1637 -0.5387 -0.5055
 4884SOL    HW116659   5.485   8.396   5.810  0.2203 -3.3018 -0.3997
 4884SOL    HW216660   5.402   8.437   5.691  1.4296 -0.2237 -0.2656
 4885SOL     OW16661   3.330   9.384   4.513 -0.1128  0.3142 -0.4364
 4885SOL    HW116662   3.243   9.349   4.495 -1.0397  1.3604  1.6181
 4885SOL    HW216663   3.323   9.477   4.493  0.2697  0.5611  0.5280
 4886SOL     OW16664   5.440   3.492   8.673  0.3179  0.0895  0.8326
 4886SOL    HW116665   5.484   3.568   8.710  1.4168  0.0698 -0.3631
 4886SOL    HW216666   5.438   3.428   8.744 -2.2010  1.7540  2.4663
 4887SOL     OW16667   5.562   9.565   6.824  0.0105 -0.5892 -0.2215
 4887SOL    HW116668   5.474   9.598   6.840  0.3791  0.1279  0.3416
 4887SOL    HW216669   5.618   9.642   6.827  0.9172 -1.2627  1.4121
 4888SOL     OW16670   9.831   4.939   1.061 -0.2113 -0.0991 -0.1540
 4888SOL    HW116671   9.756   4.878   1.057  1.0836 -2.0166  2.1931
 4888SOL    HW216672   9.907   4.884   1.044  0.7689  1.8274 -2.5794
 4889SOL     OW16673   8.190   7.628   0.838  0.5497  0.0195 -0.2436
 4889SOL    HW116674   8.097   7.607   0.833  0.3936  0.5926  0.1229
 4889SOL    HW216675   8.208   7.675   0.757  0.6861 -0.6912 -0.6352
 4890SOL     OW16676   7.157   1.493   6.136 -0.2819  0.4113  0.2628
 4890SOL    HW116677   7.183   1.418   6.082 -1.9373 -0.4922  0.6637
 4890SOL    HW216678   7.239   1.524   6.175  0.6074 -0.3861 -0.8818
 4891SOL     OW16679   1.205   5.105   6.445  0.1822 -0.8420  1.0675
 4891SOL    HW116680   1.112   5.129   6.439  0.2755 -0.6517  0.3502
 4891SOL    HW216681   1.250   5.187   6.462  0.4975 -0.4463 -1.3473
 4892SOL     OW16682   3.066   6.468   8.431 -0.0804  0.2185  0.3117
 4892SOL    HW116683   2.997   6.406   8.454 -0.1859 -0.7557 -2.3766
 4892SOL    HW216684   3.134   6.415   8.390  1.1456  1.5168  0.5794
 4893SOL     OW16685   8.806   4.538   7.015  0.2578  0.6867 -0.0531
 4893SOL    HW116686   8.712   4.553   7.029 -0.9075 -2.3080 -3.1151
 4893SOL    HW216687   8.836   4.616   6.970 -0.8961  1.4667  0.4782
 4894SOL     OW16688   8.367   3.286   3.632  0.3972  0.1622  0.0956
 4894SOL    HW116689   8.277   3.255   3.639 -0.1994  2.0641  1.7012
 4894SOL    HW216690   8.372   3.325   3.545  0.3997 -1.9103 -0.9004
 4895SOL     OW16691   4.503   7.559   1.608  0.0298 -0.0991  0.1925
 4895SOL    HW116692   4.488   7.653   1.594 -0.1166 -0.0391  0.7351
 4895SOL    HW216693   4.539   7.528   1.524  1.3825  0.7019  0.4453
 4896SOL     OW16694   4.714   9.554   0.917  0.4772 -0.4872  0.1902
 4896SOL    HW116695   4.741   9.602   0.838  1.1935 -0.7270  0.2794
 4896SOL    HW216696   4.797   9.527   0.957  0.1608  0.3534  1.4756
 4897SOL     OW16697   0.470   5.119   7.941  0.2462  0.2929 -0.1966
 4897SOL    HW116698   0.416   5.084   8.012  1.3731  0.5315  0.8288
 4897SOL    HW216699   0.555   5.076   7.953  0.6065  0.7354 -1.0910
 4898SOL     OW16700   7.912   4.986   1.943 -0.1549 -0.0184 -0.4035
 4898SOL    HW116701   7.820   5.006   1.961 -0.0877  0.4412 -0.5772
 4898SOL    HW216702   7.956   5.070   1.942  0.0675 -0.1221 -1.4680
 4899SOL     OW16703   3.919   2.183   5.616  0.3937 -0.0408 -0.6001
 4899SOL    HW116704   3.894   2.216   5.702 -2.2489 -1.5843 -0.6473
 4899SOL    HW216705   3.941   2.261   5.566  1.3574  0.9384  1.2622
 4900SOL     OW16706   5.282   2.036   0.074 -0.3839 -0.1549  0.3454
 4900SOL    HW116707   5.332   2.096   0.130 -0.8155 -0.6128  1.2363
 4900SOL    HW216708   5.227   1.987   0.134 -0.5013 -1.0159 -0.4389
 4901SOL     OW16709  10.379   1.017   4.634 -0.2568  0.1165  0.4481
 4901SOL    HW116710  10.328   1.032   4.714  0.5421  2.2854  0.5981
 4901SOL    HW216711  10.319   1.041   4.563 -0.1721  0.5055  0.5096
 4902SOL     OW16712  10.723   0.601   8.580  0.1210  0.1184  0.1401
 4902SOL    HW116713  10.781   0.597   8.504  0.6203  1.6266  0.4042
 4902SOL    HW216714  10.672   0.521   8.576  0.3954  0.0025 -1.5750
 4903SOL     OW16715   9.869   6.668   3.373 -0.1437 -0.2123 -0.2355
 4903SOL    HW116716   9.924   6.735   3.333  0.2135 -0.6516 -0.4875
 4903SOL    HW216717   9.780   6.698   3.357  0.0126  0.2803 -0.2121
 4904SOL     OW16718   0.413   8.345   0.748 -0.5002 -0.1312  0.0194
 4904SOL    HW116719   0.357   8.421   0.733 -1.0639 -0.5934 -0.2330
 4904SOL    HW216720   0.353   8.274   0.770 -0.1443 -0.9360 -1.4425
 4905SOL     OW16721   0.996   9.990   2.035  0.2728  0.2960  0.2155
 4905SOL    HW116722   0.921  10.011   1.980  0.1057  2.1917  1.0861
 4905SOL    HW216723   0.998  10.059   2.101  1.6722 -0.7645  1.3663
 4906SOL     OW16724   5.882   0.896   4.909 -0.1695  0.0617 -0.0748
 4906SOL    HW116725   5.868   0.804   4.931 -0.2791 -0.2699 -1.4472
 4906SOL    HW216726   5.976   0.902   4.890  0.0076  0.4394  0.8361
 4907SOL     OW16727   7.774   1.776   1.985 -0.4266 -0.8339  0.3107
 4907SOL    HW116728   7.806   1.717   2.054  0.7229  0.7584  1.2061
 4907SOL    HW216729   7.742   1.853   2.032  0.2190  0.2154 -0.9078
 4908SOL     OW16730  10.630   5.775   2.070  0.3663 -0.3931  0.6349
 4908SOL    HW116731  10.561   5.726   2.025  0.5197  0.1694 -0.2358
 4908SOL    HW216732  10.666   5.833   2.003 -1.9056  3.3049  2.3101
 4909SOL     OW16733   9.103  10.381   3.048  0.4671  0.3455  0.6207
 4909SOL    HW116734   9.109  10.303   2.992  1.7991  0.4991  0.5095
 4909SOL    HW216735   9.172  10.369   3.113 -0.3823  0.6746  1.6058
 4910SOL     OW16736   3.023   1.417   0.381  0.2673  0.1163 -0.4110
 4910SOL    HW116737   3.079   1.371   0.444  1.6733 -0.9939 -2.3600
 4910SOL    HW216738   3.076   1.422   0.301 -1.1921  2.0591 -1.3477
 4911SOL     OW16739   3.368   2.248   1.685  0.3593 -0.0400  0.1871
 4911SOL    HW116740   3.376   2.174   1.624 -0.0897  0.0553  0.0105
 4911SOL    HW216741   3.456   2.284   1.690  0.3973 -0.0359 -0.4236
 4912SOL     OW16742   0.741   4.431   1.872 -0.2071 -0.1817 -0.2418
 4912SOL    HW116743   0.725   4.516   1.831  3.7524  1.0233  0.3416
 4912SOL    HW216744   0.690   4.433   1.953 -2.7446  0.1562 -1.7330
 4913SOL     OW16745   2.149   2.357   6.087  0.1055 -0.3842  0.1546
 4913SOL    HW116746   2.156   2.300   6.163 -0.2968 -0.3819  0.1945
 4913SOL    HW216747   2.087   2.425   6.113 -0.2971 -0.5707 -0.2882
 4914SOL     OW16748   8.778   6.294   2.669  0.1011 -0.3700 -0.5890
 4914SOL    HW116749   8.802   6.316   2.579 -1.1116 -0.3808 -0.9283
 4914SOL    HW216750   8.761   6.379   2.710  3.8084 -0.0393  0.6403
 4915SOL     OW16751   0.551   3.999   9.078 -0.3668  0.4911 -0.2193
 4915SOL    HW116752   0.645   4.012   9.081 -0.4722  1.1592  2.5281
 4915SOL    HW216753   0.538   3.907   9.104 -0.4945  0.7491  0.6683
 4916SOL     OW16754   4.717   6.130   8.949  0.0722 -0.4682  0.6231
 4916SOL    HW116755   4.755   6.216   8.934 -0.5127 -0.2119  0.5911
 4916SOL    HW216756   4.650   6.121   8.881 -0.2791 -0.7019  0.9949
 4917SOL     OW16757   7.781   3.893   6.517  0.4835  0.1678 -0.5480
 4917SOL    HW116758   7.740   3.807   6.524 -0.1099  0.5386  0.6903
 4917SOL    HW216759   7.724   3.952   6.567  2.8932  0.5667  1.9589
 4918SOL     OW16760   9.352   8.025   3.549 -0.1792  0.4704  0.2226
 4918SOL    HW116761   9.377   7.943   3.590  0.5206  1.8662  2.8549
 4918SOL    HW216762   9.419   8.088   3.577 -1.6538  2.3242 -0.1484
 4919SOL     OW16763   5.257   9.949   3.737  0.3890 -0.4807  0.3259
 4919SOL    HW116764   5.343   9.908   3.743  0.8982  0.6814  1.5231
 4919SOL    HW216765   5.247   9.968   3.643  0.3207 -2.8204 -0.1996
 4920SOL     OW16766   7.310   6.625   7.405 -0.0574  0.0133  0.1447
 4920SOL    HW116767   7.247   6.697   7.408 -1.3397 -1.0509 -0.2750
 4920SOL    HW216768   7.314   6.592   7.494 -1.0014 -0.6547 -0.0500
 4921SOL     OW16769   8.301  10.027  10.949 -0.0113 -0.1720 -0.8091
 4921SOL    HW116770   8.284  10.038  10.856  1.7509 -1.2348 -1.3129
 4921SOL    HW216771   8.395  10.041  10.958 -0.1681  0.0438  0.8338
 4922SOL     OW16772   6.263   9.513   5.165 -0.6031  0.9146  0.3533
 4922SOL    HW116773   6.203   9.547   5.230 -0.5529  1.0085  0.3497
 4922SOL    HW216774   6.350   9.537   5.197 -0.5428  0.3928  0.5841
 4923SOL     OW16775   5.603   4.469   2.664  0.3563 -0.1914 -0.6854
 4923SOL    HW116776   5.676   4.428   2.618  0.4250 -0.1833 -0.5829
 4923SOL    HW216777   5.574   4.403   2.727  0.1159 -0.2881 -0.8965
 4924SOL     OW16778   6.020  10.316   8.028  0.1952 -0.3157 -0.4205
 4924SOL    HW116779   6.042  10.339   8.119 -1.0259 -0.3766 -0.0948
 4924SOL    HW216780   6.084  10.364   7.975 -0.0619  0.9919  0.3999
 4925SOL     OW16781   8.181   1.469   5.927 -0.0069 -0.2736  0.0975
 4925SOL    HW116782   8.244   1.517   5.872  1.3453 -0.9092  1.0192
 4925SOL    HW216783   8.117   1.434   5.865  0.0069  1.1837 -0.7727
 4926SOL     OW16784   5.986  10.694   8.209  0.4354  0.0160  0.1399
 4926SOL    HW116785   5.896  10.681   8.239  0.3449 -1.5298 -0.7262
 4926SOL    HW216786   6.020  10.606   8.194  2.4736  0.5101  1.4676
 4927SOL     OW16787   3.955   7.829   7.020  0.2281  0.3092  0.0737
 4927SOL    HW116788   4.049   7.835   7.008  0.2747 -0.3038  0.1179
 4927SOL    HW216789   3.922   7.796   6.936  0.2926 -1.5650  0.7449
 4928SOL     OW16790   8.405   9.916   0.284  0.0205 -0.1887  0.3767
 4928SOL    HW116791   8.328   9.974   0.282 -1.5215 -2.1349 -0.4276
 4928SOL    HW216792   8.368   9.828   0.290  2.2698 -1.1303  1.4217
 4929SOL     OW16793   4.735   7.350   0.716 -0.0729  0.0725  0.1522
 4929SOL    HW116794   4.829   7.333   0.704 -0.1021  1.3132 -2.5605
 4929SOL    HW216795   4.721   7.338   0.810  3.0723  1.1889  0.9035
 4930SOL     OW16796   9.168   9.363   8.436  0.4308 -0.3728  0.1604
 4930SOL    HW116797   9.229   9.292   8.457  0.3806 -1.2234 -2.2152
 4930SOL    HW216798   9.194   9.391   8.348 -0.6354  1.4226  0.3748
 4931SOL     OW16799   6.460   8.894   5.394  0.5125 -0.1352 -0.1821
 4931SOL    HW116800   6.533   8.950   5.424 -0.7132  1.7293 -0.4915
 4931SOL    HW216801   6.388   8.916   5.453  0.2583 -2.2729  0.3896
 4932SOL     OW16802  10.330   9.889   6.623  0.4935 -0.1634 -1.2234
 4932SOL    HW116803  10.282   9.828   6.567  0.9238 -0.1539 -1.6103
 4932SOL    HW216804  10.421   9.882   6.593  0.7831 -0.3966 -0.3127
 4933SOL     OW16805   1.689   7.954  10.927  0.2631 -0.0330  0.1601
 4933SOL    HW116806   1.686   8.047  10.905 -2.5581 -0.6117 -2.5747
 4933SOL    HW216807   1.711   7.911  10.844 -0.6015 -1.9220  0.8596
 4934SOL     OW16808  10.250   8.100   4.937 -0.0618 -0.0599 -0.6495
 4934SOL    HW116809  10.235   8.025   4.878  0.4292  0.1358 -1.0357
 4934SOL    HW216810  10.336   8.133   4.911  0.5103 -0.4318  0.6855
 4935SOL     OW16811   3.259   1.696  10.794  0.1991  0.5428  0.3671
 4935SOL    HW116812   3.341   1.715  10.749  0.2278 -0.9454 -0.2563
 4935SOL    HW216813   3.285   1.647  10.872 -0.0393  0.9406  0.7044
 4936SOL     OW16814   1.907   5.754   6.018  0.5210  0.5021 -0.7310
 4936SOL    HW116815   1.985   5.759   5.963 -0.9507 -0.0554 -3.0368
 4936SOL    HW216816   1.859   5.834   5.998  0.5425  0.8965  0.7470
 4937SOL     OW16817   5.409  10.260   6.345  0.2004 -0.2484 -0.3341
 4937SOL    HW116818   5.355  10.340   6.340 -1.6459 -1.3687  0.5318
 4937SOL    HW216819   5.353  10.197   6.389  2.4932 -1.3552  1.1434
 4938SOL     OW16820   8.234   2.904   5.135  0.5683  0.5099 -0.0719
 4938SOL    HW116821   8.153   2.949   5.111 -1.0831 -1.7162  1.0457
 4938SOL    HW216822   8.256   2.941   5.221  1.8567  2.4322 -1.1387
 4939SOL     OW16823   9.526   1.859  10.308 -0.5177 -0.1342  0.0242
 4939SOL    HW116824   9.519   1.951  10.333 -0.1328 -0.3693  1.0462
 4939SOL    HW216825   9.541   1.813  10.390  0.8160 -0.9436 -0.6355
 4940SOL     OW16826   1.703   6.187   8.073 -0.0359  0.3669  0.1240
 4940SOL    HW116827   1.654   6.218   8.149 -0.9189  1.0685 -0.7007
 4940SOL    HW216828   1.638   6.181   8.003  0.2828 -2.3873 -0.0601
 4941SOL     OW16829   5.890   9.871   4.361 -0.4601  0.3989  0.3710
 4941SOL    HW116830   5.986   9.866   4.361 -0.4995 -0.9621  0.9416
 4941SOL    HW216831   5.863   9.817   4.435 -1.6855  0.2849 -0.1260
 4942SOL     OW16832   3.038   7.492   0.167  0.1345  0.4111 -0.2456
 4942SOL    HW116833   2.999   7.451   0.089 -1.1796  0.1882  0.5040
 4942SOL    HW216834   3.075   7.574   0.134 -0.5958  0.4236 -1.0815
 4943SOL     OW16835   5.414   4.386   3.039  0.8801 -0.3490  0.1237
 4943SOL    HW116836   5.464   4.345   2.969 -0.1352 -0.2785 -0.6645
 4943SOL    HW216837   5.328   4.402   3.001 -0.0992 -1.4152  1.7555
 4944SOL     OW16838   2.862   5.000   3.900 -0.1738 -0.1130  0.1579
 4944SOL    HW116839   2.836   5.030   3.813  0.7109 -0.5195 -0.2543
 4944SOL    HW216840   2.792   4.938   3.926  0.2450 -1.0307 -0.8448
 4945SOL     OW16841   5.449  10.324   7.379  0.4396  0.2163 -0.2456
 4945SOL    HW116842   5.465  10.237   7.417 -0.0449 -0.2575 -1.0987
 4945SOL    HW216843   5.520  10.378   7.413 -0.4754  0.0803  2.1503
 4946SOL     OW16844   6.148   7.144   0.504 -0.3254  0.2199  0.0280
 4946SOL    HW116845   6.059   7.180   0.509 -0.9091 -0.9700 -1.1115
 4946SOL    HW216846   6.135   7.051   0.486  1.1333  0.4648 -2.9227
 4947SOL     OW16847   4.991   0.408   5.853 -0.2125  0.5085  0.0489
 4947SOL    HW116848   5.062   0.414   5.788 -0.8510 -2.5132 -1.1253
 4947SOL    HW216849   5.030   0.360   5.926 -0.5533  0.3410  0.1250
 4948SOL     OW16850   4.247   9.752   8.899 -0.0584 -0.9692  0.0109
 4948SOL    HW116851   4.164   9.788   8.871  1.4373  1.5836 -1.5080
 4948SOL    HW216852   4.276   9.698   8.825 -0.2085 -1.6716  0.4470
 4949SOL     OW16853   3.121   9.485   7.318 -0.0710  0.1492  0.4449
 4949SOL    HW116854   3.189   9.540   7.278  1.0569  0.0689  2.1446
 4949SOL    HW216855   3.147   9.395   7.294 -0.7259  0.2044 -0.5529
 4950SOL     OW16856   9.809  10.328   4.515 -0.3303  0.3248  0.0264
 4950SOL    HW116857   9.724  10.357   4.548  0.5226  0.8055  1.9300
 4950SOL    HW216858   9.790  10.292   4.428 -1.9980  3.3867 -1.0669
 4951SOL     OW16859   7.473   8.133   8.676 -0.2331  0.0131  0.0747
 4951SOL    HW116860   7.412   8.180   8.733  0.8641  0.1668  1.1553
 4951SOL    HW216861   7.462   8.041   8.701 -0.4197 -0.0235 -0.1355
 4952SOL     OW16862   8.350   1.202   2.382  0.0929  0.1187  0.1337
 4952SOL    HW116863   8.345   1.272   2.447 -0.9313  2.5057 -2.2918
 4952SOL    HW216864   8.439   1.209   2.346  0.5516 -0.9881  0.9855
 4953SOL     OW16865   8.776   6.299   6.771  0.0984  0.0776  0.0234
 4953SOL    HW116866   8.815   6.248   6.843  1.0487 -1.1190 -1.2838
 4953SOL    HW216867   8.825   6.381   6.770  1.3623 -0.6453 -0.3891
 4954SOL     OW16868  10.489   1.007  10.760 -0.1819  0.3223 -0.6553
 4954SOL    HW116869  10.554   1.077  10.770  1.1461 -0.7820 -1.1429
 4954SOL    HW216870  10.452   1.021  10.673 -2.1506  2.1604  0.3941
 4955SOL     OW16871   3.871   7.463   0.041  0.4374  0.3787 -0.2536
 4955SOL    HW116872   3.959   7.493   0.018  0.1355  1.1322 -0.4652
 4955SOL    HW216873   3.826   7.542   0.070 -0.2433  0.0433 -0.3739
 4956SOL     OW16874   7.902   6.020   5.191 -0.4370  0.3390 -0.2369
 4956SOL    HW116875   7.903   5.943   5.248  0.1985  0.0788 -0.5902
 4956SOL    HW216876   7.963   5.998   5.120 -0.8383  0.8586 -0.7496
 4957SOL     OW16877   4.171  10.359   2.259 -0.4326 -0.0382 -0.1022
 4957SOL    HW116878   4.147  10.355   2.167 -0.5355 -0.7424 -0.0479
 4957SOL    HW216879   4.223  10.440   2.267 -1.0807  0.4380 -0.6105
 4958SOL     OW16880   5.452   5.994   2.814 -0.2401 -0.3577  0.2889
 4958SOL    HW116881   5.528   5.943   2.787 -1.7932 -3.0061  0.6589
 4958SOL    HW216882   5.434   5.966   2.904 -1.2328  0.7737  0.4741
 4959SOL     OW16883   6.868   1.277  10.488 -0.1885  0.8958 -0.4718
 4959SOL    HW116884   6.802   1.298  10.421  0.9503  0.0707 -1.9130
 4959SOL    HW216885   6.888   1.185  10.473 -0.2051  0.5584  1.3247
 4960SOL     OW16886   4.088   7.383   9.460  0.3203 -0.2074  0.6299
 4960SOL    HW116887   4.052   7.360   9.545  0.6165 -0.4281  0.6988
 4960SOL    HW216888   4.176   7.344   9.460  0.3582 -0.1276  0.2636
 4961SOL     OW16889   7.548   7.254  10.953 -0.7542  0.4140  0.0045
 4961SOL    HW116890   7.522   7.177  11.003 -1.8871  0.6944 -0.1286
 4961SOL    HW216891   7.620   7.224  10.898 -1.9935 -0.9017 -0.9661
 4962SOL     OW16892   3.869   8.414   1.657  0.4115 -0.5604  0.6653
 4962SOL    HW116893   3.936   8.475   1.627  1.0135 -0.5296  1.9692
 4962SOL    HW216894   3.905   8.377   1.738 -0.7883 -1.1749  0.9492
 4963SOL     OW16895   1.664   1.166   7.827  0.0122  0.4110  0.1628
 4963SOL    HW116896   1.745   1.137   7.785  0.1344 -0.0998  0.7347
 4963SOL    HW216897   1.678   1.260   7.842  0.7273  0.2234  0.7453
 4964SOL     OW16898  10.621   1.855   6.993 -0.5630 -0.6211 -0.1473
 4964SOL    HW116899  10.568   1.798   6.937 -1.1383 -0.0981 -0.1438
 4964SOL    HW216900  10.601   1.826   7.082  1.8537 -2.7942 -0.2012
 4965SOL     OW16901  10.447   3.933   1.949  0.7913 -0.1502  0.0769
 4965SOL    HW116902  10.477   3.963   2.035  0.6422 -0.2621  0.1691
 4965SOL    HW216903  10.509   3.864   1.925  1.5952  0.7345 -0.4819
 4966SOL     OW16904  10.422   6.609   0.806  0.0974  0.3565  0.3260
 4966SOL    HW116905  10.360   6.676   0.777 -0.9021 -0.5075  0.4036
 4966SOL    HW216906  10.404   6.533   0.750 -0.0350 -0.4405  1.4038
 4967SOL     OW16907   2.690   9.115   1.331  0.5357  0.0039 -0.0558
 4967SOL    HW116908   2.726   9.175   1.397 -0.9010  0.0215  0.7661
 4967SOL    HW216909   2.686   9.166   1.251  0.7794  0.5206  0.2569
 4968SOL     OW16910   2.469   0.161   2.769  0.6053 -0.1859  0.2152
 4968SOL    HW116911   2.504   0.247   2.791  1.7805 -0.9315  1.3683
 4968SOL    HW216912   2.402   0.144   2.835  0.6767 -0.3380  0.2488
 4969SOL     OW16913   3.381   1.910   4.030  0.6130 -0.1324 -0.3340
 4969SOL    HW116914   3.473   1.910   4.005  0.9220  2.0393  0.5218
 4969SOL    HW216915   3.381   1.879   4.121  0.4563 -0.4986 -0.4588
 4970SOL     OW16916   9.236   5.708  10.074  0.5028  0.1772 -0.8228
 4970SOL    HW116917   9.188   5.790  10.067  0.3218  0.3472  1.5133
 4970SOL    HW216918   9.328   5.733  10.076  0.4361  0.4006  0.2328
 4971SOL     OW16919   8.999   7.382   4.798 -0.0957  0.2777  0.2009
 4971SOL    HW116920   9.031   7.369   4.709  0.6976 -0.5734  0.5908
 4971SOL    HW216921   9.077   7.384   4.852 -0.4489  2.5662  0.7205
 4972SOL     OW16922   2.315   8.239  10.787  0.2066  0.0905 -0.1798
 4972SOL    HW116923   2.377   8.167  10.793  0.7001  0.4397 -0.9961
 4972SOL    HW216924   2.246   8.207  10.729  1.6606  1.1239 -2.5721
 4973SOL     OW16925   7.758   5.737   7.969  0.2983  0.4743  0.0834
 4973SOL    HW116926   7.745   5.824   8.007 -1.5922  0.4328 -0.3873
 4973SOL    HW216927   7.733   5.747   7.877 -0.9572 -0.7617  0.2557
 4974SOL     OW16928   9.111   0.686   6.877 -0.2834 -0.2049  0.0173
 4974SOL    HW116929   9.148   0.740   6.947 -1.1440 -0.3409  0.5770
 4974SOL    HW216930   9.021   0.717   6.867 -0.3727 -0.6407 -0.5697
 4975SOL     OW16931   0.501   6.537   8.216  0.0656 -0.1322  0.0598
 4975SOL    HW116932   0.558   6.600   8.259 -0.5913  1.1248 -0.8390
 4975SOL    HW216933   0.422   6.534   8.270  1.0181 -2.0803  1.4576
 4976SOL     OW16934   1.910   8.637   6.516  0.0093 -1.0368  0.1183
 4976SOL    HW116935   1.837   8.659   6.573  0.8460  0.1390  0.7754
 4976SOL    HW216936   1.885   8.553   6.476 -2.4104  0.1136 -0.9704
 4977SOL     OW16937  10.362  10.035   8.957  0.0963 -0.3622  0.3960
 4977SOL    HW116938  10.307  10.073   9.026 -2.5236 -0.1567 -1.6753
 4977SOL    HW216939  10.314   9.958   8.927  1.7126 -1.0654 -0.4903
 4978SOL     OW16940   1.481   1.338   6.966  0.3001  0.5506  0.2929
 4978SOL    HW116941   1.528   1.419   6.946  0.4328  0.2847 -0.4730
 4978SOL    HW216942   1.389   1.364   6.973  0.5192  1.0662  1.7590
 4979SOL     OW16943   0.663   2.636   1.029  0.2770 -0.8488  0.2958
 4979SOL    HW116944   0.661   2.729   1.055  2.7791 -1.4361  3.3006
 4979SOL    HW216945   0.572   2.609   1.031 -0.4601  1.3724  0.0762
 4980SOL     OW16946   5.526   8.896   7.660  0.2670  0.7095 -0.1714
 4980SOL    HW116947   5.590   8.901   7.589 -0.3026  0.7419 -0.6954
 4980SOL    HW216948   5.541   8.975   7.712  1.5880  0.0339  0.5459
 4981SOL     OW16949  10.441   3.864   6.553  0.2383 -0.2567  0.3081
 4981SOL    HW116950  10.454   3.927   6.481  0.7048 -1.9319 -1.1467
 4981SOL    HW216951  10.516   3.805   6.547 -1.2044 -2.1811  0.2837
 4982SOL     OW16952   2.778   2.353   8.054 -0.4517  0.0476 -0.3117
 4982SOL    HW116953   2.691   2.341   8.017 -0.9003 -1.0066  0.9900
 4982SOL    HW216954   2.764   2.406   8.132 -0.1310 -1.1799  0.6120
 4983SOL     OW16955   6.248   8.796   7.768 -0.4032 -0.1049 -0.3713
 4983SOL    HW116956   6.338   8.818   7.793 -0.7341  1.6961 -0.6260
 4983SOL    HW216957   6.213   8.750   7.844  0.5694 -0.3879 -0.0744
 4984SOL     OW16958   8.365   4.278   8.497  0.1063  0.1744  0.4278
 4984SOL    HW116959   8.283   4.247   8.535 -0.0286 -1.0666 -0.8063
 4984SOL    HW216960   8.346   4.367   8.467 -0.6069  0.1090  0.6767
 4985SOL     OW16961   4.678   8.728   9.032  0.1314  0.6291  0.3431
 4985SOL    HW116962   4.586   8.704   9.018  0.2433  0.7366 -0.6426
 4985SOL    HW216963   4.690   8.808   8.981  0.3878  1.4995  1.7075
 4986SOL     OW16964   8.385   4.574   5.338  0.5198  0.2913  0.7301
 4986SOL    HW116965   8.406   4.480   5.339  0.5328  0.1326 -2.8305
 4986SOL    HW216966   8.425   4.606   5.257 -0.8484  3.0512  1.0618
 4987SOL     OW16967   9.499   8.735   5.758  0.4483 -0.6641 -0.5149
 4987SOL    HW116968   9.444   8.662   5.732 -0.4432  0.3774 -1.6790
 4987SOL    HW216969   9.525   8.716   5.848 -2.9397 -0.5707  0.5888
 4988SOL     OW16970   9.031  10.086   2.977 -0.1849 -0.3116 -0.2572
 4988SOL    HW116971   8.949  10.075   3.025 -0.9477  3.7221 -0.2884
 4988SOL    HW216972   9.099  10.085   3.045 -0.6379 -0.3263  0.2003
 4989SOL     OW16973   2.384   2.349  10.655  0.0313 -0.1930 -0.5899
 4989SOL    HW116974   2.337   2.423  10.692  2.0191  0.1889  1.4685
 4989SOL    HW216975   2.394   2.369  10.562  0.1647  1.9611 -0.1619
 4990SOL     OW16976   5.220   3.473   5.247 -0.2110 -0.0969 -0.6433
 4990SOL    HW116977   5.203   3.473   5.342 -0.3798  0.7513 -0.6734
 4990SOL    HW216978   5.271   3.393   5.233  0.0182 -0.1146  0.2010
 4991SOL     OW16979   7.460   5.018   6.236  0.8235  0.0966 -0.3660
 4991SOL    HW116980   7.412   4.990   6.158  0.2989 -0.0018 -0.0111
 4991SOL    HW216981   7.423   4.966   6.307  1.0948  0.3970 -0.0016
 4992SOL     OW16982   9.190   0.450   4.495 -0.0180  0.4884 -0.0472
 4992SOL    HW116983   9.170   0.367   4.452  2.1741  0.6176 -1.4983
 4992SOL    HW216984   9.159   0.516   4.433 -0.0736  0.7214  0.2291
 4993SOL     OW16985  10.870   8.399   0.109  0.6424 -0.3576 -0.0836
 4993SOL    HW116986  10.963   8.399   0.090  0.8006  1.4085  0.4524
 4993SOL    HW216987  10.833   8.467   0.052  0.2491  1.1670  1.8517
 4994SOL     OW16988  10.354   9.739   1.891 -0.5078 -0.0635  0.0467
 4994SOL    HW116989  10.410   9.802   1.937 -0.9030  1.2464 -1.1738
 4994SOL    HW216990  10.413   9.667   1.868  0.1162  0.1625  0.8917
 4995SOL     OW16991   0.759   9.601   1.702 -0.1507 -0.2191  0.0921
 4995SOL    HW116992   0.701   9.536   1.663 -0.0902 -1.1341  1.4370
 4995SOL    HW216993   0.700   9.661   1.748 -0.1192 -0.4378  0.4276
 4996SOL     OW16994   6.113   7.893   5.944  0.3598  0.3107  0.1985
 4996SOL    HW116995   6.072   7.809   5.924 -1.7127  1.1237  0.6906
 4996SOL    HW216996   6.144   7.926   5.860  1.3891 -1.0051  0.0339
 4997SOL     OW16997   5.200   0.611   2.075  0.1413 -0.2305 -0.8552
 4997SOL    HW116998   5.131   0.557   2.113  1.5851 -0.4127  1.7595
 4997SOL    HW216999   5.170   0.630   1.986 -2.0193 -2.4344 -0.6956
 4998SOL     OW17000   5.101   8.292   2.713  0.3638 -0.4893  0.2716
 4998SOL    HW117001   5.099   8.339   2.797  3.3852 -0.8128  0.6526
 4998SOL    HW217002   5.076   8.357   2.648  0.0357  0.3669  1.2267
 4999SOL     OW17003   0.678   1.965   4.441 -0.6429 -0.2831  0.1203
 4999SOL    HW117004   0.740   1.919   4.497 -0.4940 -0.3725 -0.1166
 4999SOL    HW217005   0.670   2.052   4.480 -0.0911 -0.1536 -0.0520
 5000SOL     OW17006   7.285   2.297   3.834 -0.5036  0.1689  0.9998
 5000SOL    HW117007   7.358   2.276   3.777  0.1417 -1.8922  2.4650
 5000SOL    HW217008   7.325   2.338   3.911 -1.1540  1.1141  0.8576
 5001SOL     OW17009   3.758   4.991   8.131 -0.1168  0.3244  0.0734
 5001SOL    HW117010   3.676   5.029   8.161 -0.1793 -0.2817  0.6865
 5001SOL    HW217011   3.768   4.911   8.182  0.1600 -0.3387 -0.9707
 5002SOL     OW17012   5.778   0.193   7.342  0.4268 -0.0367  0.2017
 5002SOL    HW117013   5.687   0.203   7.369 -0.1854 -2.2049 -0.8246
 5002SOL    HW217014   5.825   0.165   7.421  0.2277  1.0613  0.7253
 5003SOL     OW17015  10.770   6.656   2.350 -0.1256 -0.1595 -0.0781
 5003SOL    HW117016  10.681   6.620   2.352 -0.8890  1.6336  1.5385
 5003SOL    HW217017  10.816   6.612   2.421  0.7129 -1.9495 -1.6469
 5004SOL     OW17018   4.052   7.208   5.971 -0.1242 -0.9137  0.0919
 5004SOL    HW117019   3.989   7.139   5.990  1.1345 -2.2061 -0.2723
 5004SOL    HW217020   4.096   7.225   6.054 -1.7485  0.8892  0.6527
 5005SOL     OW17021   0.378   1.165   8.929  0.2107 -0.0127 -0.7784
 5005SOL    HW117022   0.326   1.142   8.852 -2.4315  1.4475  0.4434
 5005SOL    HW217023   0.356   1.256   8.946  2.4018  0.3266  0.4883
 5006SOL     OW17024   8.698   3.548   5.691  0.1147 -0.3639 -0.1483
 5006SOL    HW117025   8.632   3.510   5.633  0.4427 -0.4892 -0.4459
 5006SOL    HW217026   8.648   3.601   5.753 -0.3161 -0.9132 -0.0098
 5007SOL     OW17027  10.397   8.110  10.445 -0.0821 -0.4929  0.1852
 5007SOL    HW117028  10.340   8.176  10.485 -0.5906 -1.4239  1.0194
 5007SOL    HW217029  10.432   8.060  10.518  0.6283 -0.8950 -0.4148
 5008SOL     OW17030   8.450   0.077   7.319  0.2985 -0.2032  0.4333
 5008SOL    HW117031   8.434   0.005   7.259  0.8163  0.1794 -0.1679
 5008SOL    HW217032   8.496   0.142   7.267 -0.4345  0.6999  0.8765
 5009SOL     OW17033   3.625   6.422   2.538 -0.0067  0.4570  0.8294
 5009SOL    HW117034   3.639   6.361   2.610 -1.6661  0.2148  0.9898
 5009SOL    HW217035   3.648   6.508   2.574  0.3233  0.1867  1.2659
 5010SOL     OW17036   4.266   7.821   9.731  0.4212  1.0129 -0.1942
 5010SOL    HW117037   4.230   7.733   9.724  0.7701  0.6589  1.7415
 5010SOL    HW217038   4.255   7.859   9.644 -2.3948  0.0904 -0.3497
 5011SOL     OW17039   5.049   9.988   4.199  0.3072  0.0541 -0.1317
 5011SOL    HW117040   5.011  10.075   4.191  0.2506 -0.0172 -0.6785
 5011SOL    HW217041   4.998   9.934   4.138  0.0067 -0.4792  0.5698
 5012SOL     OW17042   7.916   1.824   0.821  0.1979 -0.2324 -0.0983
 5012SOL    HW117043   7.915   1.846   0.914 -0.1168 -0.6953  0.0117
 5012SOL    HW217044   7.843   1.873   0.783  1.2728  1.1975 -0.4069
 5013SOL     OW17045   8.310   1.441   8.573 -0.1189 -0.1935  1.0055
 5013SOL    HW117046   8.395   1.451   8.616 -0.4332 -0.6857  1.7523
 5013SOL    HW217047   8.331   1.412   8.484  0.5159  0.3056  0.9866
 5014SOL     OW17048   1.683   3.783   1.846 -0.3503 -0.1608 -0.3405
 5014SOL    HW117049   1.633   3.863   1.834 -1.1697 -0.9149 -2.2249
 5014SOL    HW217050   1.668   3.732   1.767  2.8327 -0.7650 -0.6824
 5015SOL     OW17051   7.927   2.244   1.784  0.1341  0.1221 -0.3255
 5015SOL    HW117052   8.015   2.259   1.749 -0.1140 -2.6405 -2.4630
 5015SOL    HW217053   7.915   2.149   1.780 -2.7766  0.3618  0.3677
 5016SOL     OW17054   4.776   5.415  10.590  0.5636 -0.3506  0.0389
 5016SOL    HW117055   4.843   5.428  10.523  0.7483 -1.0391  0.0863
 5016SOL    HW217056   4.725   5.341  10.558  0.2993 -0.3183  0.3822
 5017SOL     OW17057   3.539   7.982   0.345 -0.2901 -0.5286  0.3148
 5017SOL    HW117058   3.540   8.044   0.272 -0.2501  0.7182  1.3329
 5017SOL    HW217059   3.456   7.997   0.389 -0.4090 -1.4209  0.4192
 5018SOL     OW17060   2.422   9.486   4.011 -0.3806  0.7766  0.1826
 5018SOL    HW117061   2.444   9.566   4.059  1.6651  1.6873 -2.0549
 5018SOL    HW217062   2.362   9.514   3.943 -2.0619 -0.2365  1.1482
 5019SOL     OW17063   9.508   2.847   2.688 -0.0441  0.0407  0.6139
 5019SOL    HW117064   9.481   2.856   2.597 -1.2200 -1.0342  0.8336
 5019SOL    HW217065   9.547   2.931   2.710  0.6629  0.1696 -1.0044
 5020SOL     OW17066   5.689   3.232   8.622 -0.3272  0.5530 -0.5141
 5020SOL    HW117067   5.773   3.218   8.579 -0.9763  0.0865 -1.6989
 5020SOL    HW217068   5.707   3.222   8.715  0.9199  0.4386 -0.7557
 5021SOL     OW17069   4.263   1.581   1.109 -0.5474  0.1738 -0.2415
 5021SOL    HW117070   4.180   1.533   1.110 -1.1210  1.1088  1.0965
 5021SOL    HW217071   4.245   1.660   1.160  0.9204  0.8457 -0.7139
 5022SOL     OW17072   3.922   5.653   8.911 -0.1594 -0.1346  0.2702
 5022SOL    HW117073   3.895   5.661   8.819  0.2432  0.4491  0.1957
 5022SOL    HW217074   3.919   5.559   8.929 -0.0725 -0.2709 -0.3974
 5023SOL     OW17075   4.984   9.500   5.477 -0.3004 -0.3318  0.4282
 5023SOL    HW117076   4.973   9.498   5.572 -1.3452 -0.0562  0.3283
 5023SOL    HW217077   4.935   9.578   5.450 -3.6318 -2.6251 -0.7493
 5024SOL     OW17078   0.450   8.292   1.116 -0.5213 -0.2093 -0.5424
 5024SOL    HW117079   0.535   8.335   1.106  0.0562 -1.5081 -1.4347
 5024SOL    HW217080   0.443   8.233   1.041 -2.2672 -0.0755 -0.5462
 5025SOL     OW17081   6.632   1.410   9.696 -0.0291  0.3681  0.1166
 5025SOL    HW117082   6.637   1.488   9.641  0.9740  0.1240 -0.1583
 5025SOL    HW217083   6.641   1.337   9.634  0.6380  0.0805  0.5446
 5026SOL     OW17084   8.325   3.773   8.457 -0.3096 -0.5571 -0.5734
 5026SOL    HW117085   8.394   3.837   8.473 -1.4811  1.2848 -2.3987
 5026SOL    HW217086   8.288   3.754   8.543  0.2087  1.0947  0.0338
 5027SOL     OW17087   3.736   6.166   4.210 -0.3977  0.4234  0.4010
 5027SOL    HW117088   3.770   6.132   4.128  2.8914  0.9141  1.4197
 5027SOL    HW217089   3.672   6.101   4.239  0.0303 -0.8730 -1.4468
 5028SOL     OW17090   8.557  10.604   9.689  0.7444 -0.3232 -0.0276
 5028SOL    HW117091   8.589  10.656   9.615  2.9988  0.1110  1.1645
 5028SOL    HW217092   8.634  10.557   9.720 -0.5365 -1.8725  0.9851
 5029SOL     OW17093   5.796   4.983   4.960  0.6116 -0.0534  0.1540
 5029SOL    HW117094   5.788   4.891   4.987 -0.9280  0.0270  0.0820
 5029SOL    HW217095   5.754   4.987   4.874  1.2064  0.6099 -0.1135
 5030SOL     OW17096   8.322   4.718   9.521  0.4374  0.0652  0.1465
 5030SOL    HW117097   8.405   4.682   9.552  0.7528 -0.9188 -1.7074
 5030SOL    HW217098   8.255   4.670   9.569  0.9221 -0.5859  0.1842
 5031SOL     OW17099   3.720   3.193   7.747  0.3546  0.1238 -0.2052
 5031SOL    HW117100   3.702   3.265   7.808 -0.4024  0.7408 -1.1341
 5031SOL    HW217101   3.786   3.228   7.687  2.1186 -0.9235  0.9965
 5032SOL     OW17102   5.375   7.825   8.435  0.1570  0.1587 -0.6452
 5032SOL    HW117103   5.442   7.757   8.439  1.1701  1.2059  1.3568
 5032SOL    HW217104   5.293   7.777   8.424  0.6137 -1.6185  2.5946
 5033SOL     OW17105   9.629   1.215   8.617 -0.4781 -0.0571 -0.2597
 5033SOL    HW117106   9.671   1.138   8.654  0.6645  0.0464 -1.2795
 5033SOL    HW217107   9.672   1.227   8.532  0.1392  2.3504  0.3439
 5034SOL     OW17108   5.792   8.600   8.036  0.2077  0.6321 -0.6873
 5034SOL    HW117109   5.703   8.617   8.005  0.0500 -1.3082 -1.5102
 5034SOL    HW217110   5.848   8.656   7.982 -0.4627  1.4316 -0.5664
 5035SOL     OW17111   6.029   6.466   8.205  0.2336 -0.1431  0.2952
 5035SOL    HW117112   6.077   6.492   8.127  1.5745  0.6488  1.3302
 5035SOL    HW217113   5.937   6.483   8.184  0.6054  0.4267 -0.9505
 5036SOL     OW17114   8.816   0.575   9.794 -0.1211 -0.0296  0.4109
 5036SOL    HW117115   8.894   0.528   9.824 -0.4923  0.0055  1.4760
 5036SOL    HW217116   8.797   0.637   9.864 -0.1845  1.0826 -0.5660
 5037SOL     OW17117   3.634   5.484   2.970  0.0562 -0.4263  0.3329
 5037SOL    HW117118   3.552   5.465   3.017 -1.4741  1.5449 -1.3581
 5037SOL    HW217119   3.624   5.441   2.886  0.4834  0.3221 -0.1129
 5038SOL     OW17120   8.174   5.199   1.644 -0.3615  0.3918  0.0178
 5038SOL    HW117121   8.241   5.266   1.631  2.5734 -2.3165 -0.0237
 5038SOL    HW217122   8.162   5.159   1.558 -0.3245 -0.6035  0.4558
 5039SOL     OW17123   8.267   0.635  10.244 -0.4219 -0.3019 -0.1756
 5039SOL    HW117124   8.291   0.725  10.264 -0.0207 -0.4398 -0.0238
 5039SOL    HW217125   8.224   0.603  10.323 -0.8361 -0.1504 -0.3377
 5040SOL     OW17126   5.211   0.844  10.186 -0.0933  0.5517 -0.4204
 5040SOL    HW117127   5.306   0.841  10.199 -0.3796 -1.1604  1.8258
 5040SOL    HW217128   5.182   0.917  10.241 -0.3253 -0.7296  1.2218
 5041SOL     OW17129  10.683  10.756   0.643 -0.2331 -0.5821 -0.4311
 5041SOL    HW117130  10.616  10.747   0.711 -0.8227 -1.9149 -1.1611
 5041SOL    HW217131  10.709  10.848   0.648 -1.2006 -0.3432  0.7198
 5042SOL     OW17132   2.779   2.296   0.726  0.0952 -0.1576 -0.2175
 5042SOL    HW117133   2.755   2.208   0.696  3.1935 -1.3807  0.4607
 5042SOL    HW217134   2.859   2.317   0.677 -0.6091  2.3630 -0.4198
 5043SOL     OW17135   6.610  10.004   6.015 -0.0761  0.1544 -0.3501
 5043SOL    HW117136   6.540  10.068   6.005  0.2803  0.4872 -0.7135
 5043SOL    HW217137   6.565   9.919   6.015 -0.9319  0.4347  3.1622
 5044SOL     OW17138  10.550   1.884   8.757  0.6251 -0.2573  0.2153
 5044SOL    HW117139  10.461   1.881   8.723  0.9438  1.9231 -1.0230
 5044SOL    HW217140  10.545   1.943   8.833  1.2256  1.1631 -0.8005
 5045SOL     OW17141   5.756   4.188   5.011 -0.2312  0.1704  0.0402
 5045SOL    HW117142   5.805   4.177   5.092  0.3112  0.5241 -0.2381
 5045SOL    HW217143   5.664   4.181   5.038 -0.2163  3.2037  1.1921
 5046SOL     OW17144   8.643   1.389   4.014 -0.4345  0.3597 -0.1322
 5046SOL    HW117145   8.735   1.363   4.016 -0.0622  1.6402  1.1938
 5046SOL    HW217146   8.598   1.320   4.062 -0.0323  0.2171  0.0444
 5047SOL     OW17147   3.205   0.596   6.340 -0.1544 -0.2506  0.9451
 5047SOL    HW117148   3.212   0.624   6.432 -0.9681  0.0036  0.9362
 5047SOL    HW217149   3.230   0.503   6.342  0.9899  0.0382  1.2271
 5048SOL     OW17150  10.812   4.171   6.603  0.0727 -0.0195  0.1870
 5048SOL    HW117151  10.740   4.132   6.651 -1.0007  0.2536 -1.1393
 5048SOL    HW217152  10.780   4.258   6.577  0.8813  0.1206 -0.4007
 5049SOL     OW17153   1.449   1.099   6.067  0.1287 -0.0953  0.4017
 5049SOL    HW117154   1.519   1.039   6.039  0.1246 -0.9467  2.0527
 5049SOL    HW217155   1.487   1.147   6.140 -1.0401 -0.6938  1.4387
 5050SOL     OW17156   7.789   1.486   2.422  0.0268  0.0680  0.5164
 5050SOL    HW117157   7.820   1.551   2.485  0.4024  0.2811  0.1192
 5050SOL    HW217158   7.819   1.403   2.458  0.7984  0.2457  0.2976
 5051SOL     OW17159   7.488   2.748   2.545 -0.8887  0.3389  0.0136
 5051SOL    HW117160   7.483   2.836   2.508  0.1985 -0.1267 -1.3645
 5051SOL    HW217161   7.537   2.758   2.626  0.6434  0.8322 -0.9220
 5052SOL     OW17162   0.620   2.921   3.641 -0.4965  0.1150  0.2436
 5052SOL    HW117163   0.536   2.875   3.647 -1.1595  1.4641  2.8830
 5052SOL    HW217164   0.612   2.995   3.702  2.0486  1.2331 -0.6203
 5053SOL     OW17165   3.084   1.424   3.717 -0.4196 -0.1553 -0.7753
 5053SOL    HW117166   3.125   1.494   3.769  1.3500 -1.0484 -0.9083
 5053SOL    HW217167   3.058   1.358   3.782  1.0102 -0.8791 -0.8945
 5054SOL     OW17168  10.896   6.216   2.067 -0.1054 -0.3203  0.5519
 5054SOL    HW117169  10.855   6.302   2.069 -0.4420 -0.4625 -0.0058
 5054SOL    HW217170  10.900   6.193   1.974  0.0578 -0.8723  0.6882
 5055SOL     OW17171  10.690   6.587   5.937  0.1849 -0.5145 -0.2632
 5055SOL    HW117172  10.658   6.614   5.851 -0.1653 -0.6455 -0.1709
 5055SOL    HW217173  10.786   6.584   5.926  0.2088  0.3899 -0.3845
 5056SOL     OW17174   7.261   8.086   4.121  0.3401  0.5675 -0.6991
 5056SOL    HW117175   7.172   8.099   4.089  0.1024  0.3926 -0.1246
 5056SOL    HW217176   7.263   8.132   4.205 -0.1582 -1.9323  0.7935
 5057SOL     OW17177   6.382   4.521   1.018  0.0970 -0.1258  0.3637
 5057SOL    HW117178   6.336   4.495   0.937  0.3672 -0.3228  0.2725
 5057SOL    HW217179   6.314   4.561   1.072  0.2483  1.6677 -0.6783
 5058SOL     OW17180   2.088   0.136   7.162  0.0483 -0.2338 -0.0460
 5058SOL    HW117181   2.180   0.110   7.165  0.1943  0.3171  2.2675
 5058SOL    HW217182   2.086   0.208   7.098  1.2436 -0.2020 -0.0787
 5059SOL     OW17183   3.214   1.627   7.729 -0.0180 -0.4415  0.0084
 5059SOL    HW117184   3.301   1.590   7.718  0.9143  0.2510  3.7105
 5059SOL    HW217185   3.228   1.722   7.731  0.1969 -0.2686  5.1863
 5060SOL     OW17186   2.390  10.734   5.252 -0.4215 -0.2438  0.9136
 5060SOL    HW117187   2.481  10.744   5.282  0.2785 -1.0411 -0.7553
 5060SOL    HW217188   2.375  10.639   5.256 -0.5814 -0.2897 -0.3391
 5061SOL     OW17189   7.375   6.302   5.401 -0.8757  0.1522 -0.1811
 5061SOL    HW117190   7.298   6.272   5.352 -1.1963  1.7361 -0.7148
 5061SOL    HW217191   7.383   6.241   5.473 -2.7449  0.0228 -0.0373
 5062SOL     OW17192   0.830   0.470   7.616 -0.2384 -0.4364  0.2399
 5062SOL    HW117193   0.767   0.406   7.650  0.2914 -2.1439 -1.8144
 5062SOL    HW217194   0.826   0.460   7.521  0.8760  1.6559 -0.0906
 5063SOL     OW17195   3.437   1.600   3.211  0.2615 -0.1248  0.2170
 5063SOL    HW117196   3.436   1.634   3.121 -0.1694  1.9716  0.9470
 5063SOL    HW217197   3.529   1.590   3.232  0.3942  0.2832 -0.1511
 5064SOL     OW17198   4.511   8.400   7.190  0.4743  0.3914  0.2462
 5064SOL    HW117199   4.603   8.415   7.166  0.8350 -0.6973  0.8837
 5064SOL    HW217200   4.514   8.333   7.258 -0.7142  1.3260  1.2782
 5065SOL     OW17201   8.231   6.085  10.082 -0.6340 -0.1777  0.1071
 5065SOL    HW117202   8.320   6.053  10.095 -0.5825  0.6106  1.9395
 5065SOL    HW217203   8.214   6.070   9.989  1.3720 -0.3924 -0.2722
 5066SOL     OW17204   7.332   6.663   3.975  0.6879 -0.0635  0.3845
 5066SOL    HW117205   7.299   6.746   4.008  0.6969 -0.8817  2.5741
 5066SOL    HW217206   7.356   6.682   3.884  1.0459  2.4089  0.9135
 5067SOL     OW17207   2.077   3.398   5.782 -0.0842  0.1041 -0.2314
 5067SOL    HW117208   1.997   3.403   5.834  0.4232  0.7088  0.5214
 5067SOL    HW217209   2.048   3.370   5.696 -1.1748  0.7745 -0.1047
 5068SOL     OW17210   0.379   4.955   3.328  0.0085 -0.0448  0.1262
 5068SOL    HW117211   0.376   5.017   3.255 -0.8071  0.8629  0.8906
 5068SOL    HW217212   0.458   4.980   3.377  1.7490 -1.9974 -1.5271
 5069SOL     OW17213   4.252   6.578   6.172  0.1098 -0.4464  0.1167
 5069SOL    HW117214   4.168   6.599   6.131  0.2285  0.5266  0.3410
 5069SOL    HW217215   4.249   6.625   6.256  0.6879 -0.7790  0.3260
 5070SOL     OW17216  10.228  10.622   6.927  0.4979  0.2426  0.0073
 5070SOL    HW117217  10.207  10.632   6.834  2.1800  0.2838 -0.3964
 5070SOL    HW217218  10.271  10.537   6.933  2.1993  1.0874  0.3793
 5071SOL     OW17219   1.807   7.830   0.518 -0.0765  0.3416  0.2272
 5071SOL    HW117220   1.871   7.796   0.581  2.4987  1.3706 -1.6461
 5071SOL    HW217221   1.760   7.898   0.566 -1.2977 -1.7941  2.2761
 5072SOL     OW17222   4.407   1.484   7.452  0.2437  0.0595  0.4464
 5072SOL    HW117223   4.394   1.503   7.359 -0.4621  1.2971  0.7662
 5072SOL    HW217224   4.412   1.389   7.457 -1.9609 -0.1807 -0.6093
 5073SOL     OW17225   1.455   0.971   9.091  0.2110 -0.1269  0.1134
 5073SOL    HW117226   1.513   0.909   9.136  1.4572  0.9596  0.0960
 5073SOL    HW217227   1.465   0.951   8.998  1.6240  0.8825  0.0149
 5074SOL     OW17228   7.884   3.031  10.296 -0.5303 -0.3921 -0.2376
 5074SOL    HW117229   7.850   3.120  10.302 -1.6955 -0.7961 -0.5688
 5074SOL    HW217230   7.976   3.042  10.273 -0.8381  0.7099 -1.0176
 5075SOL     OW17231   7.535   7.252   8.750  0.6444 -0.0522  0.2760
 5075SOL    HW117232   7.559   7.289   8.835  3.5325 -0.6464 -0.1636
 5075SOL    HW217233   7.608   7.277   8.692 -1.4805  0.8206 -2.2237
 5076SOL     OW17234   2.056   8.990   5.644 -0.2680  0.1841 -0.3777
 5076SOL    HW117235   1.994   9.062   5.649  0.6685  0.9590  0.4547
 5076SOL    HW217236   2.079   8.971   5.735 -1.5081 -2.1061 -0.4575
 5077SOL     OW17237   4.565   6.950  10.389 -0.0985  0.0088 -0.0632
 5077SOL    HW117238   4.644   6.904  10.361 -0.1199 -0.7999  1.1468
 5077SOL    HW217239   4.514   6.884  10.435 -1.6582  0.4256 -1.1193
 5078SOL     OW17240   8.475   8.734   5.861  0.8481 -0.2644 -0.3616
 5078SOL    HW117241   8.423   8.813   5.872 -0.4509 -1.0924 -0.2981
 5078SOL    HW217242   8.525   8.748   5.781  1.6028  1.1133  0.3183
 5079SOL     OW17243   5.745   8.452   3.414  0.0980  0.1353 -0.4651
 5079SOL    HW117244   5.668   8.428   3.363  0.5963 -0.0985 -1.1220
 5079SOL    HW217245   5.734   8.545   3.433 -0.6803 -0.0534  0.0469
 5080SOL     OW17246  10.751   8.863   2.863 -0.4814  0.1894 -0.6172
 5080SOL    HW117247  10.743   8.777   2.822  1.4171  0.0353 -0.7429
 5080SOL    HW217248  10.663   8.901   2.856 -1.3013 -1.6369 -0.7449
 5081SOL     OW17249   3.019   5.029   6.783 -0.0693  0.0780  0.3570
 5081SOL    HW117250   3.101   5.002   6.743 -0.3736  0.5601 -0.6344
 5081SOL    HW217251   2.966   4.950   6.786  0.7107 -0.4264  1.7838
 5082SOL     OW17252   7.041  10.471   5.418  0.6720 -0.0867 -0.0746
 5082SOL    HW117253   7.128  10.439   5.392 -0.3381 -1.2310 -2.3653
 5082SOL    HW217254   7.004  10.507   5.338 -2.0973 -2.4278 -0.0225
 5083SOL     OW17255   8.866   8.813   5.407 -0.1945 -0.2003 -0.1926
 5083SOL    HW117256   8.942   8.865   5.431  0.5776 -1.0262 -0.7724
 5083SOL    HW217257   8.894   8.765   5.329 -0.8934 -1.4308  0.2925
 5084SOL     OW17258   8.215   6.607   5.531  0.1203  0.1832 -0.5404
 5084SOL    HW117259   8.305   6.612   5.500  0.0193  0.4754 -0.7868
 5084SOL    HW217260   8.182   6.523   5.498  1.2811 -1.4760  2.1859
 5085SOL     OW17261   3.026   8.320   7.704 -0.2024 -1.0515 -0.2410
 5085SOL    HW117262   3.121   8.316   7.721  0.0637 -1.5246 -1.7292
 5085SOL    HW217263   3.000   8.228   7.699 -1.0107 -0.9568  1.3736
 5086SOL     OW17264  10.036  10.399   1.711 -0.2449  0.3881 -0.4968
 5086SOL    HW117265  10.013  10.365   1.797  1.7838  0.1913  0.0208
 5086SOL    HW217266  10.128  10.424   1.719  0.1953 -0.2676 -2.8095
 5087SOL     OW17267   1.991   2.608   6.223  0.1142  0.5296  1.3683
 5087SOL    HW117268   2.064   2.663   6.195 -0.4142 -0.2633 -1.9842
 5087SOL    HW217269   1.919   2.669   6.237  0.3655  0.9640  0.7995
 5088SOL     OW17270  10.355   4.410   9.906  0.1654 -0.1383 -0.5214
 5088SOL    HW117271  10.328   4.323   9.877 -1.6968  0.1121  0.3606
 5088SOL    HW217272  10.296   4.470   9.861 -0.2045  0.4938  0.7695
 5089SOL     OW17273   0.057   7.233   9.259 -0.5273 -0.5634  0.3319
 5089SOL    HW117274   0.128   7.296   9.271 -1.1660  0.5464 -1.3549
 5089SOL    HW217275   0.100   7.148   9.252  0.5339 -0.0371  0.3535
 5090SOL     OW17276   6.489   2.442   4.866 -0.1691  0.3292  0.1899
 5090SOL    HW117277   6.499   2.493   4.786 -0.6305  1.6276  0.9223
 5090SOL    HW217278   6.574   2.402   4.880  0.5776  1.8396  0.1849
 5091SOL     OW17279   2.280  11.020   0.420  0.3769  0.3901  0.0807
 5091SOL    HW117280   2.300  10.928   0.401  1.5477  0.3645  1.2846
 5091SOL    HW217281   2.365  11.064   0.412 -0.3730  1.6124 -1.6668
 5092SOL     OW17282   8.544   5.453   9.420  0.5786 -0.5515 -0.4246
 5092SOL    HW117283   8.469   5.512   9.423  0.7790 -0.2517 -1.1960
 5092SOL    HW217284   8.573   5.455   9.329  1.4357 -0.7739 -0.1673
 5093SOL     OW17285   5.177   4.342   7.352 -0.0683 -0.6372  0.3505
 5093SOL    HW117286   5.229   4.269   7.384 -1.9243 -2.0764  0.2738
 5093SOL    HW217287   5.099   4.343   7.407 -0.9063  0.1513 -0.7846
 5094SOL     OW17288  10.553   6.063   8.309 -0.2681 -0.1203  0.2506
 5094SOL    HW117289  10.558   5.988   8.369 -0.4242  2.3504  3.6085
 5094SOL    HW217290  10.645   6.088   8.295 -0.2906  0.6496  1.3694
 5095SOL     OW17291   8.399  10.847   1.103 -0.3539  0.4057  0.1261
 5095SOL    HW117292   8.377  10.900   1.027  0.3843 -0.5230 -0.7698
 5095SOL    HW217293   8.484  10.880   1.132 -0.1907  0.1376 -0.0425
 5096SOL     OW17294   9.084   5.492   6.999  0.4584  0.1061 -0.5489
 5096SOL    HW117295   9.119   5.513   7.086 -1.8378  2.0332  0.0376
 5096SOL    HW217296   9.106   5.568   6.945 -1.3102  0.6786 -0.5574
 5097SOL     OW17297   8.200   6.919   8.686  0.2476  0.3328 -0.8000
 5097SOL    HW117298   8.168   6.982   8.751 -0.0881  1.3711 -1.9200
 5097SOL    HW217299   8.136   6.849   8.687  0.1337  0.4400 -0.1614
 5098SOL     OW17300   4.499   0.229   2.816 -0.0866  0.7048  0.2952
 5098SOL    HW117301   4.506   0.175   2.738 -0.7057 -1.6517  1.7436
 5098SOL    HW217302   4.463   0.312   2.786 -0.8542 -0.3333 -1.8256
 5099SOL     OW17303   6.697   1.822   0.716  0.2767  0.6308  0.0331
 5099SOL    HW117304   6.741   1.837   0.799  1.1204  0.1362 -0.3028
 5099SOL    HW217305   6.615   1.779   0.739  0.5141  0.4804  0.6050
 5100SOL     OW17306   8.475   1.878   1.737 -0.2356 -0.0065  0.1574
 5100SOL    HW117307   8.542   1.858   1.802  0.5368  0.4023 -0.5113
 5100SOL    HW217308   8.521   1.924   1.667 -0.8395 -1.4081 -1.2164
 5101SOL     OW17309   8.416   5.531   1.059 -0.4936 -0.2276  0.8216
 5101SOL    HW117310   8.471   5.574   0.993 -1.2076  0.8634  0.9260
 5101SOL    HW217311   8.355   5.477   1.008  0.2868 -1.0203  0.6872
 5102SOL     OW17312  10.772   1.732   8.794  0.0683 -0.1100 -0.5477
 5102SOL    HW117313  10.695   1.788   8.788 -1.7491 -2.2857  0.8849
 5102SOL    HW217314  10.840   1.789   8.831 -1.7090  1.1796  0.9431
 5103SOL     OW17315  10.000   5.273  10.927  0.1168  0.0402 -0.4144
 5103SOL    HW117316   9.913   5.262  10.888 -0.2851  1.2140  0.0918
 5103SOL    HW217317  10.059   5.282  10.852 -0.4090  0.6433 -0.7656
 5104SOL     OW17318   3.699   5.571   7.315 -0.1968  0.5003  0.2139
 5104SOL    HW117319   3.711   5.479   7.338 -2.0625 -0.1220 -1.1044
 5104SOL    HW217320   3.605   5.586   7.323 -0.1116  1.9142 -0.9687
 5105SOL     OW17321   8.594   6.534  10.018  0.2418  0.0506  0.0416
 5105SOL    HW117322   8.582   6.503   9.929  1.8184 -0.5153 -0.0051
 5105SOL    HW217323   8.609   6.628  10.009 -1.2424  0.2857 -0.1214
 5106SOL     OW17324   6.338   0.583   1.553  0.1243 -0.2580 -0.3666
 5106SOL    HW117325   6.407   0.594   1.619 -1.6390  0.8983  1.3822
 5106SOL    HW217326   6.258   0.569   1.603 -1.1708 -0.2137 -2.2993
 5107SOL     OW17327   3.155   6.888   2.071 -0.5350 -0.0771 -0.3694
 5107SOL    HW117328   3.062   6.907   2.057 -0.8722  0.6279  2.2683
 5107SOL    HW217329   3.160   6.853   2.160  1.5436 -1.8868 -1.0939
 5108SOL     OW17330   4.882   2.570   5.923  0.1071 -0.0140  0.3073
 5108SOL    HW117331   4.956   2.543   5.977 -1.0926 -1.9717  1.0899
 5108SOL    HW217332   4.828   2.624   5.980  0.7446  1.1678 -0.1735
 5109SOL     OW17333   1.762   6.802   0.806  0.4133  0.1103 -0.0093
 5109SOL    HW117334   1.726   6.793   0.894  1.1849  0.8960  0.4054
 5109SOL    HW217335   1.831   6.737   0.801  0.7102  0.4103  0.1540
 5110SOL     OW17336   0.565   1.398   4.246  0.4175  0.1085  0.3219
 5110SOL    HW117337   0.527   1.329   4.192  1.3600 -1.8495  2.0206
 5110SOL    HW217338   0.494   1.429   4.301 -0.2129  1.1604 -1.0142
 5111SOL     OW17339   9.244  10.789   3.603  0.1248  0.1778  0.2815
 5111SOL    HW117340   9.253  10.706   3.556 -0.4897  0.3416 -0.1322
 5111SOL    HW217341   9.164  10.780   3.653 -1.1260  1.2917 -1.4122
 5112SOL     OW17342   9.365   5.536   1.636 -0.6565 -0.2079 -0.4121
 5112SOL    HW117343   9.293   5.484   1.601  0.0952 -0.7258 -1.2325
 5112SOL    HW217344   9.392   5.491   1.716 -0.3476 -0.8145 -0.8459
 5113SOL     OW17345   4.372   3.245   8.772  0.4601  0.2263 -0.2388
 5113SOL    HW117346   4.459   3.236   8.735  0.5539  0.6579 -0.1348
 5113SOL    HW217347   4.326   3.165   8.747  1.0855 -0.3028  0.2693
 5114SOL     OW17348   9.116  10.643  10.329 -0.6652 -0.1293 -0.5607
 5114SOL    HW117349   9.059  10.647  10.406 -1.5932  0.4964 -1.2554
 5114SOL    HW217350   9.160  10.728  10.327  0.8822 -0.8824  0.3891
 5115SOL     OW17351   9.866  10.102   6.609  0.0258  0.7234  0.3655
 5115SOL    HW117352   9.953  10.064   6.611 -0.0510  0.5749  1.5844
 5115SOL    HW217353   9.862  10.158   6.686 -1.5950 -0.7427  1.4185
 5116SOL     OW17354   4.371  10.732  10.606  0.1185 -0.0615 -0.2229
 5116SOL    HW117355   4.398  10.715  10.516  2.2478 -1.6569  0.6335
 5116SOL    HW217356   4.336  10.649  10.637 -0.3124  0.3829  0.5282
 5117SOL     OW17357   6.285   0.074   2.310  0.1569  0.3969 -0.0072
 5117SOL    HW117358   6.232  -0.005   2.321 -0.0499  0.6198  0.6497
 5117SOL    HW217359   6.371   0.041   2.282 -0.8086  0.1350 -3.0787
 5118SOL     OW17360   9.379   9.455   5.931 -0.0926  0.4583  0.5195
 5118SOL    HW117361   9.406   9.426   6.018  0.4417 -2.1048 -0.4165
 5118SOL    HW217362   9.354   9.375   5.885 -0.2525  1.7026 -1.7289
 5119SOL     OW17363   8.784   5.210   3.394  0.2923 -0.5232 -0.3785
 5119SOL    HW117364   8.857   5.216   3.333  0.1743 -0.7559 -0.5434
 5119SOL    HW217365   8.730   5.287   3.376  0.8839  0.0530  0.2508
 5120SOL     OW17366   2.030   3.747   9.865  0.1367 -0.1965  0.0643
 5120SOL    HW117367   1.949   3.788   9.895 -1.9686 -2.3203 -2.2805
 5120SOL    HW217368   2.041   3.670   9.920 -0.4791 -0.9027 -0.7857
 5121SOL     OW17369   5.025   9.390   3.828 -0.3330 -0.2167 -0.4524
 5121SOL    HW117370   5.032   9.438   3.911  2.3599  0.9823 -1.2449
 5121SOL    HW217371   4.932   9.395   3.805 -0.7056  1.8522  1.1286
 5122SOL     OW17372   8.529   5.944   1.279  0.1622  0.5235 -0.0109
 5122SOL    HW117373   8.433   5.934   1.282  0.2505 -0.3440  2.6901
 5122SOL    HW217374   8.549   6.005   1.350  1.6566  0.2953 -0.2073
 5123SOL     OW17375   0.920   9.465   0.241 -0.3998 -0.1044  0.4580
 5123SOL    HW117376   0.944   9.527   0.310  0.5973  0.5105 -0.4149
 5123SOL    HW217377   0.888   9.520   0.170 -2.3038 -0.7894  0.7431
 5124SOL     OW17378   2.707   5.296   2.392  0.4239  0.7942 -0.0108
 5124SOL    HW117379   2.746   5.241   2.325 -1.2148  0.3011 -0.5962
 5124SOL    HW217380   2.745   5.383   2.377  1.5455  0.2762 -0.3063
 5125SOL     OW17381   7.381   2.595   6.175 -0.4634  0.3360 -0.4963
 5125SOL    HW117382   7.298   2.577   6.218 -0.9892 -0.8643 -1.9101
 5125SOL    HW217383   7.359   2.599   6.081  1.0701 -0.0744 -0.9012
 5126SOL     OW17384   8.865   0.189   0.776  0.0087  0.0858 -0.6406
 5126SOL    HW117385   8.780   0.193   0.733  0.2002 -0.5762 -1.0996
 5126SOL    HW217386   8.845   0.176   0.868 -0.4024  1.1678 -0.5675
 5127SOL     OW17387   5.623   2.638   8.790  0.1620 -0.1057 -0.4981
 5127SOL    HW117388   5.573   2.641   8.872  1.1920 -0.7836  0.1773
 5127SOL    HW217389   5.557   2.617   8.723 -0.4070 -1.4144  0.4224
 5128SOL     OW17390   2.333   1.363   7.942 -0.2458  0.1067 -0.0057
 5128SOL    HW117391   2.238   1.365   7.931 -0.0796  2.2226 -1.6287
 5128SOL    HW217392   2.363   1.294   7.882 -0.6686  0.1951 -0.3217
 5129SOL     OW17393   7.979   4.585   1.236 -0.0424  0.2047 -0.0289
 5129SOL    HW117394   8.066   4.546   1.223 -0.9406 -2.0568  0.3543
 5129SOL    HW217395   7.990   4.645   1.309  0.8427 -1.4389  1.2602
 5130SOL     OW17396   6.662   9.030  10.268  0.0140 -0.5775 -0.1421
 5130SOL    HW117397   6.730   8.972  10.234  1.6960  0.7867  0.7442
 5130SOL    HW217398   6.672   9.026  10.363 -1.7166 -0.9656  0.0606
 5131SOL     OW17399   2.232   4.441   6.552  0.1783 -0.2356  0.2706
 5131SOL    HW117400   2.304   4.380   6.565  1.3355  0.8084 -0.8348
 5131SOL    HW217401   2.268   4.526   6.576 -0.9883  0.1909  0.5759
 5132SOL     OW17402   1.855   0.609   9.115 -0.3937 -0.3723  0.0010
 5132SOL    HW117403   1.799   0.547   9.162  0.8477 -1.1427  0.5282
 5132SOL    HW217404   1.934   0.559   9.095  0.8439  1.1586  0.8528
 5133SOL     OW17405   7.388   6.612   5.857 -0.5958  0.0842  0.2254
 5133SOL    HW117406   7.445   6.540   5.885 -2.0811 -0.5250  1.7913
 5133SOL    HW217407   7.441   6.659   5.792  1.1728 -1.2302  0.6207
 5134SOL     OW17408   2.134   8.031   3.027 -0.9468  0.8827 -0.0831
 5134SOL    HW117409   2.145   7.978   2.949  0.3572  1.3160 -0.2186
 5134SOL    HW217410   2.119   8.120   2.994  0.5157  1.2369  0.1222
 5135SOL     OW17411   2.073   4.036   8.032 -0.2121 -0.0712  0.3226
 5135SOL    HW117412   2.045   3.948   8.007  0.1119 -0.6717  1.9064
 5135SOL    HW217413   2.103   4.076   7.951 -0.7917 -1.2618 -0.5078
 5136SOL     OW17414   6.453   7.182   2.070  0.2337  0.1703 -0.1102
 5136SOL    HW117415   6.539   7.204   2.105  0.8661 -0.3427 -1.2664
 5136SOL    HW217416   6.461   7.091   2.041 -0.4925  0.3192 -0.8298
 5137SOL     OW17417   7.129   9.877   3.811  0.7936  0.7427 -0.4227
 5137SOL    HW117418   7.128   9.973   3.811  1.0097  0.8738  3.1988
 5137SOL    HW217419   7.221   9.853   3.801  0.6774  0.8399 -1.9242
 5138SOL     OW17420  11.036   8.214   4.710  0.2436  0.4147 -0.0004
 5138SOL    HW117421  11.071   8.135   4.669  1.3127  0.2807  1.0903
 5138SOL    HW217422  11.097   8.231   4.782 -0.5406  1.6685  0.3819
 5139SOL     OW17423   5.072   3.273   8.966 -0.3603  0.1935  0.2053
 5139SOL    HW117424   5.155   3.230   8.988 -0.5908  0.5414  1.8628
 5139SOL    HW217425   5.098   3.357   8.928  0.0511 -0.0177  0.0116
 5140SOL     OW17426   8.368   4.924   2.762  0.0567  0.0538  0.2315
 5140SOL    HW117427   8.272   4.920   2.759 -0.0630  0.6327  2.0884
 5140SOL    HW217428   8.394   4.835   2.786 -0.1778  0.4414  2.0117
 5141SOL     OW17429   4.624   7.012   8.013  0.2399 -0.3997 -0.6105
 5141SOL    HW117430   4.695   7.066   8.047 -0.9083 -0.8907  3.1206
 5141SOL    HW217431   4.589   7.061   7.939  2.5108  1.3345 -0.6271
 5142SOL     OW17432   6.025   0.665   4.778  0.2871 -0.8083 -0.2115
 5142SOL    HW117433   6.011   0.644   4.871 -0.0170 -0.7281 -0.2389
 5142SOL    HW217434   6.084   0.597   4.747 -0.5901 -1.5464 -0.2657
 5143SOL     OW17435   1.235   7.711  10.989  0.4337  0.3864 -0.4365
 5143SOL    HW117436   1.140   7.719  10.979  0.5477  0.1391 -1.8762
 5143SOL    HW217437   1.268   7.800  10.980  0.3782  0.4130 -0.3756
 5144SOL     OW17438   4.129   3.238   4.633  0.8346 -0.1655 -0.2562
 5144SOL    HW117439   4.077   3.317   4.646  0.1282 -0.7689  0.7264
 5144SOL    HW217440   4.167   3.248   4.545 -0.5375  0.5169 -0.7976
 5145SOL     OW17441   9.963   8.309   8.107 -0.7155  0.3251 -0.3419
 5145SOL    HW117442   9.960   8.215   8.124  1.0222  0.4230  0.7173
 5145SOL    HW217443   9.959   8.349   8.193  0.7188  1.1190 -0.6038
 5146SOL     OW17444   9.778  10.353   2.651 -0.1927 -0.2993 -0.3506
 5146SOL    HW117445   9.697  10.318   2.687  0.0770  0.7462  1.3833
 5146SOL    HW217446   9.847  10.305   2.697  0.1592  0.8098  0.3292
 5147SOL     OW17447   8.127   5.387   6.991 -0.6653  0.2984  0.0645
 5147SOL    HW117448   8.134   5.412   7.083 -1.9053  0.1073  0.2291
 5147SOL    HW217449   8.188   5.445   6.945  0.7330 -0.2732  1.1022
 5148SOL     OW17450   4.293   9.501   9.086  0.1688  0.4913 -0.1724
 5148SOL    HW117451   4.246   9.492   9.003  0.2406 -0.3512 -0.1245
 5148SOL    HW217452   4.225   9.525   9.149 -0.2930 -1.1504 -0.0167
 5149SOL     OW17453   9.254   6.499   7.557 -0.1383  0.5839 -0.3704
 5149SOL    HW117454   9.303   6.580   7.571 -0.6858  0.8883 -0.1537
 5149SOL    HW217455   9.274   6.445   7.633 -1.0932  1.2081  0.3591
 5150SOL     OW17456   6.336   3.895   4.752  0.1058 -0.6423  0.3283
 5150SOL    HW117457   6.335   3.892   4.848  0.6727 -0.2119  0.3560
 5150SOL    HW217458   6.261   3.950   4.729  1.1834  1.0554  0.6364
 5151SOL     OW17459  10.024   0.770   1.751 -0.2549 -0.2658 -0.2499
 5151SOL    HW117460   9.985   0.840   1.699  2.0641 -0.6972 -2.7626
 5151SOL    HW217461  10.107   0.806   1.782 -1.0046 -0.4724  2.2327
 5152SOL     OW17462   8.618   3.133   9.394  0.1806 -0.3471  0.5408
 5152SOL    HW117463   8.576   3.218   9.407 -1.4784 -0.9093 -0.7848
 5152SOL    HW217464   8.703   3.154   9.356 -0.4269  0.7267 -0.3060
 5153SOL     OW17465   3.540   6.036   9.942  0.0838 -0.4646  0.4370
 5153SOL    HW117466   3.614   6.063   9.887  0.2434 -2.5598 -0.4778
 5153SOL    HW217467   3.468   6.024   9.882 -0.2533 -1.0311  0.9414
 5154SOL     OW17468   3.020   5.647   6.360  0.3726 -0.0745  0.2333
 5154SOL    HW117469   2.976   5.698   6.428  1.6467 -0.1329  1.1489
 5154SOL    HW217470   2.972   5.565   6.356 -1.1188  0.8053 -0.5794
 5155SOL     OW17471   2.505   0.545   4.741  0.2265 -0.4462 -0.2406
 5155SOL    HW117472   2.497   0.578   4.652 -1.8953 -1.4640 -0.4923
 5155SOL    HW217473   2.551   0.462   4.732  1.2746  0.1032 -0.1748
 5156SOL     OW17474   8.554   9.250   4.485 -0.3690  0.5071  0.5562
 5156SOL    HW117475   8.513   9.163   4.482  0.4607 -0.0106  2.6501
 5156SOL    HW217476   8.647   9.231   4.500 -0.1574  1.7559  0.8738
 5157SOL     OW17477  10.218   0.853   7.895  0.0391  0.3190  0.3572
 5157SOL    HW117478  10.282   0.912   7.933  0.9307  0.1751 -0.8479
 5157SOL    HW217479  10.211   0.781   7.957 -0.3563  1.2215  1.3825
 5158SOL     OW17480   4.592   5.280   0.255  0.2484 -0.7585 -0.1910
 5158SOL    HW117481   4.547   5.203   0.219  1.4455 -1.1779 -0.8573
 5158SOL    HW217482   4.581   5.347   0.188 -2.6570  0.4130  1.3074
 5159SOL     OW17483   0.450   7.490   9.923  1.1129  0.0762 -0.1300
 5159SOL    HW117484   0.476   7.428   9.991  0.7530 -0.1510 -0.1957
 5159SOL    HW217485   0.439   7.574   9.969  0.6145 -0.1339  0.1399
 5160SOL     OW17486   0.143   9.730  10.509  0.9214 -0.1580  0.1634
 5160SOL    HW117487   0.227   9.713  10.550 -0.3891 -1.8101  2.4101
 5160SOL    HW217488   0.097   9.787  10.570  0.6083  1.3161 -1.3676
 5161SOL     OW17489   1.786   8.185   9.211 -0.0192 -0.1933 -0.8121
 5161SOL    HW117490   1.854   8.122   9.186 -0.1507 -0.3307 -0.8267
 5161SOL    HW217491   1.774   8.171   9.304 -1.4746 -1.6030 -1.1722
 5162SOL     OW17492   2.012   8.360   4.951  0.3889  0.5460 -0.4083
 5162SOL    HW117493   2.076   8.385   4.884 -0.9147 -0.0230 -1.9241
 5162SOL    HW217494   1.928   8.391   4.917 -0.4982 -0.9686  0.3053
 5163SOL     OW17495   7.596   1.601  10.158 -0.7553 -0.0862 -0.3632
 5163SOL    HW117496   7.613   1.507  10.154  0.3409  0.1083 -0.7142
 5163SOL    HW217497   7.683   1.641  10.165 -1.2517  0.8590  0.8504
 5164SOL     OW17498  10.450   0.486   2.975  0.0567  0.0887 -0.7918
 5164SOL    HW117499  10.497   0.489   2.892 -1.0948 -1.3233 -1.5379
 5164SOL    HW217500  10.427   0.577   2.992  1.7564  0.6233 -1.1264
 5165SOL     OW17501  10.183   7.232   1.959  0.0017 -0.0332 -0.5740
 5165SOL    HW117502  10.162   7.324   1.979 -1.0313 -0.6897  1.7313
 5165SOL    HW217503  10.110   7.203   1.904 -0.0627  0.2987 -0.6710
 5166SOL     OW17504   2.612   9.275   3.737 -0.1495  0.7098  0.2229
 5166SOL    HW117505   2.558   9.344   3.697 -1.7202  0.0934  1.2176
 5166SOL    HW217506   2.686   9.322   3.775  0.8266  1.4487 -2.3179
 5167SOL     OW17507   4.656  10.710  10.925  0.4193 -0.0170  0.0706
 5167SOL    HW117508   4.671  10.673  11.012  0.4304  2.1338  1.0415
 5167SOL    HW217509   4.569  10.750  10.931  0.5313  0.3819 -0.8257
 5168SOL     OW17510   8.804   9.245   8.611 -0.4159  0.0383  0.3653
 5168SOL    HW117511   8.860   9.321   8.597 -0.0601 -0.2952 -0.0643
 5168SOL    HW217512   8.756   9.264   8.691 -0.9650  1.1034 -0.1907
 5169SOL     OW17513   6.743   1.760   6.641 -0.4455  0.0106 -0.1538
 5169SOL    HW117514   6.763   1.839   6.690  1.8084 -1.0189  0.7514
 5169SOL    HW217515   6.766   1.781   6.551  0.3749  0.3228  0.1216
 5170SOL     OW17516  10.255   6.413   2.129  0.4396  0.4103  0.0650
 5170SOL    HW117517  10.323   6.348   2.143  0.3850  0.6587  1.6622
 5170SOL    HW217518  10.299   6.497   2.143  0.0471  0.6156  0.0908
 5171SOL     OW17519   1.594   0.380   9.428  0.1119  1.0668 -0.5283
 5171SOL    HW117520   1.688   0.390   9.444  0.7216 -1.1030 -2.2842
 5171SOL    HW217521   1.557   0.365   9.515  1.2184  2.7316  0.2896
 5172SOL     OW17522   6.513   4.692   1.621  0.1643 -0.0871 -0.1864
 5172SOL    HW117523   6.429   4.687   1.576  0.4239 -0.0668 -0.6813
 5172SOL    HW217524   6.541   4.783   1.610  0.8676 -0.4001 -1.1710
 5173SOL     OW17525   3.233   2.024   1.846  0.2654 -0.0242 -0.2069
 5173SOL    HW117526   3.240   2.115   1.873 -1.9343  0.1851 -0.1570
 5173SOL    HW217527   3.244   1.974   1.927  0.3274  0.2559 -0.0427
 5174SOL     OW17528   5.539   5.195   3.232  0.1177  0.2700  0.2553
 5174SOL    HW117529   5.583   5.191   3.147  1.7193  1.0767  0.9880
 5174SOL    HW217530   5.597   5.146   3.291 -1.1226 -0.5428  0.8241
 5175SOL     OW17531   4.880   4.090   8.827 -0.7544  0.3272 -0.0235
 5175SOL    HW117532   4.861   4.135   8.909 -2.0121  0.1193 -0.1796
 5175SOL    HW217533   4.797   4.091   8.779 -0.1582  0.0443 -1.1034
 5176SOL     OW17534   4.701   6.499   2.214  0.0970 -0.2155  0.0505
 5176SOL    HW117535   4.654   6.456   2.143 -1.0186  1.3295 -0.1890
 5176SOL    HW217536   4.770   6.550   2.171  0.5690 -0.6796  0.2368
 5177SOL     OW17537   3.432   3.628   7.764 -0.4391  0.0061 -0.5838
 5177SOL    HW117538   3.473   3.634   7.678 -1.5046  0.8225 -1.0727
 5177SOL    HW217539   3.364   3.696   7.762 -1.0023 -0.4958  0.6101
 5178SOL     OW17540   0.404   3.274   5.139  0.0598 -0.4966 -0.1829
 5178SOL    HW117541   0.425   3.367   5.127 -2.6618  0.1854 -0.3956
 5178SOL    HW217542   0.429   3.254   5.229  1.8697  0.0480 -0.5350
 5179SOL     OW17543   5.133   5.711   9.026  0.1836 -0.4783  0.0057
 5179SOL    HW117544   5.096   5.637   8.978 -0.4822 -0.1070 -0.0628
 5179SOL    HW217545   5.091   5.788   8.987 -0.3527 -0.1612  1.1653
 5180SOL     OW17546  11.002  10.167   1.237  0.2074 -0.5821  0.2086
 5180SOL    HW117547  11.093  10.194   1.246 -0.1572  1.0713 -0.8135
 5180SOL    HW217548  10.991  10.148   1.144 -0.0490 -2.5741  0.5962
 5181SOL     OW17549   5.592   7.996   1.342 -0.1613  1.0121 -0.0398
 5181SOL    HW117550   5.686   7.988   1.323 -0.1937 -0.8886  0.3747
 5181SOL    HW217551   5.553   8.023   1.260  0.6179  0.5715 -0.5727
 5182SOL     OW17552   0.350   2.855   5.262 -0.1189  0.2095 -0.0948
 5182SOL    HW117553   0.302   2.923   5.309  0.0861  0.1546  0.1991
 5182SOL    HW217554   0.400   2.903   5.196 -2.1447  0.0980 -1.8135
 5183SOL     OW17555   1.891   9.009   2.319  0.4519  0.5224 -0.3807
 5183SOL    HW117556   1.954   8.943   2.290  0.3113 -0.6928  1.8205
 5183SOL    HW217557   1.911   9.023   2.412 -1.3176  1.4902 -0.0894
 5184SOL     OW17558   4.897   0.472   4.048 -0.2249 -0.4321  0.2405
 5184SOL    HW117559   4.974   0.519   4.016  1.1847 -2.2183  0.9079
 5184SOL    HW217560   4.896   0.488   4.142 -0.9849 -0.0262  0.1767
 5185SOL     OW17561   3.883  11.013   5.292 -0.1031 -0.2955  0.2388
 5185SOL    HW117562   3.930  11.095   5.279 -0.7065 -0.2753 -2.3135
 5185SOL    HW217563   3.822  11.032   5.364  1.2895  0.7639  1.1789
 5186SOL     OW17564   6.962   6.077   5.684  0.0221  0.1835 -0.3507
 5186SOL    HW117565   6.961   6.138   5.758  0.0960 -0.6367  0.3527
 5186SOL    HW217566   6.993   5.995   5.722 -1.4503 -0.6895 -0.9490
 5187SOL     OW17567   3.622   5.174   8.800 -0.3209 -0.0184  0.0930
 5187SOL    HW117568   3.592   5.264   8.813 -0.3752 -0.0464  0.1628
 5187SOL    HW217569   3.555   5.120   8.841 -1.5039 -0.2088 -1.9854
 5188SOL     OW17570   3.822   1.961   2.037 -0.1824  0.1737  0.0117
 5188SOL    HW117571   3.830   1.882   1.985 -2.1320 -0.3744  0.4508
 5188SOL    HW217572   3.781   1.932   2.119  1.0395  1.3057  1.0711
 5189SOL     OW17573   4.535   8.275   6.492  0.0231  0.3462 -0.4467
 5189SOL    HW117574   4.492   8.360   6.480 -1.3311 -0.1709  0.4823
 5189SOL    HW217575   4.500   8.242   6.575  0.6209 -1.0728 -0.7262
 5190SOL     OW17576   8.426   2.988   4.119 -0.1108  0.4687  0.1327
 5190SOL    HW117577   8.369   2.984   4.197 -0.5693 -0.9277 -0.2381
 5190SOL    HW217578   8.374   2.948   4.050  0.9851 -0.0174 -0.4393
 5191SOL     OW17579  10.554   6.759   0.106  0.2471  0.0527  0.0153
 5191SOL    HW117580  10.533   6.766   0.013  2.2502  1.6381 -0.3782
 5191SOL    HW217581  10.586   6.670   0.117 -1.4861 -0.6785 -0.4288
 5192SOL     OW17582   5.435   6.621   6.135 -0.5522  0.1920 -0.2861
 5192SOL    HW117583   5.347   6.635   6.168 -0.5791  0.1623 -0.3458
 5192SOL    HW217584   5.433   6.654   6.045 -0.6757 -0.3944 -0.5022
 5193SOL     OW17585   1.645   8.871   0.531 -0.0923 -0.0552 -0.0870
 5193SOL    HW117586   1.664   8.877   0.625  0.0011 -1.7528  0.0272
 5193SOL    HW217587   1.565   8.923   0.519 -1.1147 -1.2202  1.2764
 5194SOL     OW17588   6.530   7.277   8.914 -0.1376 -0.3376  0.8468
 5194SOL    HW117589   6.440   7.309   8.919 -0.7744 -2.1645  2.1032
 5194SOL    HW217590   6.526   7.204   8.853  1.1256  1.2575 -1.3073
 5195SOL     OW17591   9.699  10.861   6.523 -0.2352  0.3072 -0.3095
 5195SOL    HW117592   9.733  10.793   6.583 -1.6960 -0.2187 -0.0510
 5195SOL    HW217593   9.631  10.905   6.573  0.7619  2.0704 -0.4506
 5196SOL     OW17594   6.409   7.138   2.442 -0.4523  0.1724 -0.0357
 5196SOL    HW117595   6.438   7.141   2.533 -0.3316 -2.6518  0.0944
 5196SOL    HW217596   6.463   7.203   2.398 -0.7642  1.8770  1.9183
 5197SOL     OW17597   5.635   9.033  10.068  0.2017 -0.0624 -0.1055
 5197SOL    HW117598   5.645   9.125  10.041  1.6347 -0.4738 -1.1081
 5197SOL    HW217599   5.660   8.983   9.990 -3.4557 -1.3790 -0.6273
 5198SOL     OW17600  10.608   6.041   1.005  0.1549 -0.2700 -0.3595
 5198SOL    HW117601  10.593   6.133   0.985 -0.0187 -0.4099 -0.8931
 5198SOL    HW217602  10.673   6.041   1.075  3.5731  0.2111 -3.2227
 5199SOL     OW17603   0.207   0.473   5.681 -0.2215 -0.1022  0.0755
 5199SOL    HW117604   0.200   0.455   5.587  1.0705  0.1247 -0.0867
 5199SOL    HW217605   0.215   0.568   5.687 -1.7881  0.0262  0.5443
 5200SOL     OW17606   7.081   1.544   4.151 -0.0464 -0.3440  0.7892
 5200SOL    HW117607   7.117   1.623   4.111 -0.1775 -0.3597  0.6401
 5200SOL    HW217608   7.147   1.477   4.134  0.0114 -0.2934  0.8145
 5201SOL     OW17609   9.933   1.982   4.040  0.1915 -0.5523 -0.4716
 5201SOL    HW117610   9.970   2.042   4.104  0.2793 -0.6852 -0.3972
 5201SOL    HW217611   9.982   1.900   4.053  1.9421  0.1023 -2.3556
 5202SOL     OW17612   6.991   2.161   0.831  0.6975 -0.4111 -0.1402
 5202SOL    HW117613   7.012   2.068   0.836  0.0379 -0.5683 -0.1909
 5202SOL    HW217614   6.911   2.165   0.779  0.5894  0.1637  0.0590
 5203SOL     OW17615   7.626   9.463  10.562  0.6314 -0.0054 -0.1162
 5203SOL    HW117616   7.690   9.419  10.505  1.6088 -0.9640  1.6377
 5203SOL    HW217617   7.610   9.400  10.633  0.9362  1.8795  1.7102
 5204SOL     OW17618   6.051   9.923   6.027  0.6235 -0.3687 -0.4342
 5204SOL    HW117619   6.142   9.911   6.053  0.4692  0.7364  0.6960
 5204SOL    HW217620   6.043  10.017   6.010 -0.5142 -0.3048  0.3432
 5205SOL     OW17621   0.404   0.588   1.003  0.1612 -0.5831 -0.7425
 5205SOL    HW117622   0.491   0.623   0.985  0.3206 -0.4743  0.2304
 5205SOL    HW217623   0.401   0.505   0.955  0.8004 -0.5890 -0.7758
 5206SOL     OW17624   7.319   6.403   4.664  0.1343  0.0714 -0.0838
 5206SOL    HW117625   7.384   6.389   4.595  0.1800 -0.7677  0.1166
 5206SOL    HW217626   7.342   6.488   4.703 -0.6679  1.1933 -1.9269
 5207SOL     OW17627  10.183   7.490  10.867  0.4827  0.2212  0.3659
 5207SOL    HW117628  10.129   7.424  10.822 -1.7032 -0.4739  3.6577
 5207SOL    HW217629  10.165   7.571  10.819 -2.9643 -0.1566  0.7205
 5208SOL     OW17630   5.448   2.489   5.530 -0.4518  0.6938  0.4668
 5208SOL    HW117631   5.357   2.500   5.557 -0.5979 -0.9721  0.7479
 5208SOL    HW217632   5.468   2.397   5.549  0.9605  0.7528 -0.5747
 5209SOL     OW17633   2.101   6.794  10.092 -0.1185 -0.1520 -0.0221
 5209SOL    HW117634   2.052   6.867  10.131 -0.1122 -1.1956  2.0765
 5209SOL    HW217635   2.037   6.752  10.034 -0.8535  0.1563  0.5376
 5210SOL     OW17636   3.477   3.684   1.502  0.0584  0.0110 -0.5799
 5210SOL    HW117637   3.540   3.697   1.432 -0.5174  0.3007 -1.0527
 5210SOL    HW217638   3.527   3.696   1.582  0.3831  1.3484 -0.9518
 5211SOL     OW17639   6.106  10.505   5.159  0.8829 -0.1304 -0.0225
 5211SOL    HW117640   6.120  10.439   5.092  1.9932 -1.5908  1.5632
 5211SOL    HW217641   6.027  10.477   5.205  0.4159  0.5840 -0.3584
 5212SOL     OW17642  10.433   5.838   6.584  0.3155 -0.3714 -0.0263
 5212SOL    HW117643  10.397   5.752   6.561  0.7010 -1.0291  1.7155
 5212SOL    HW217644  10.452   5.879   6.499  0.0215 -1.9455 -0.8978
 5213SOL     OW17645   7.280   3.845   0.583 -0.0567  0.2428 -0.7517
 5213SOL    HW117646   7.291   3.912   0.515 -0.2972 -0.1272 -1.1534
 5213SOL    HW217647   7.331   3.879   0.657 -0.0011  0.7700 -1.0244
 5214SOL     OW17648   9.587   8.438   3.128  0.4172 -0.3597  0.1900
 5214SOL    HW117649   9.590   8.422   3.034  2.1911 -0.9819  0.3096
 5214SOL    HW217650   9.518   8.380   3.161 -0.9434  0.6117 -0.8124
 5215SOL     OW17651   8.109   4.353   0.294  0.4181  0.1257 -0.0108
 5215SOL    HW117652   8.040   4.286   0.302  0.2683  0.3844  1.0918
 5215SOL    HW217653   8.190   4.303   0.289  0.4244 -0.1611  2.1309
 5216SOL     OW17654   8.168   1.930  10.850  0.1352  0.0883  0.0102
 5216SOL    HW117655   8.081   1.940  10.890 -0.8376 -1.3051 -1.6429
 5216SOL    HW217656   8.205   1.853  10.892 -0.5793 -0.9303 -1.1701
 5217SOL     OW17657   0.456   8.411   3.197 -0.3324  0.2362 -0.3551
 5217SOL    HW117658   0.495   8.352   3.132  0.7889  1.7226 -1.0865
 5217SOL    HW217659   0.527   8.471   3.220 -0.9436  0.2417  1.6736
 5218SOL     OW17660   2.749   7.874   5.156  0.1957  0.0316  0.3787
 5218SOL    HW117661   2.687   7.898   5.224  0.6466  0.1589  0.7560
 5218SOL    HW217662   2.717   7.790   5.123  0.1468 -0.1934  0.9751
 5219SOL     OW17663   8.094   3.640   9.413  0.1831  0.2079  0.1051
 5219SOL    HW117664   8.163   3.649   9.348  1.4784 -0.4063  1.3374
 5219SOL    HW217665   8.077   3.730   9.443  1.1826  0.2674  0.5150
 5220SOL     OW17666   0.370   9.598   6.237  0.7816  0.0648  0.1794
 5220SOL    HW117667   0.332   9.537   6.174  1.4773 -0.7148  0.5004
 5220SOL    HW217668   0.349   9.561   6.322  2.7891 -0.7442  0.3610
 5221SOL     OW17669   5.964   0.974   7.337 -0.0548  0.3446 -0.0526
 5221SOL    HW117670   5.959   1.039   7.267 -0.1393  0.9588  0.5113
 5221SOL    HW217671   5.942   1.023   7.417  1.1415 -0.0673  0.5638
 5222SOL     OW17672   3.326   8.482   9.883 -0.5848 -0.2281 -0.5153
 5222SOL    HW117673   3.399   8.487   9.944 -1.7023 -0.9486  0.9601
 5222SOL    HW217674   3.320   8.568   9.843  0.6327  0.0311 -0.1499
 5223SOL     OW17675   5.860   1.061   8.236  0.0341  0.0341 -0.7488
 5223SOL    HW117676   5.947   1.042   8.200  0.3745  1.6804 -0.8778
 5223SOL    HW217677   5.817   1.114   8.168 -0.8606 -0.2801 -0.4395
 5224SOL     OW17678   3.616   8.552   4.810 -0.1638  0.0348  0.4572
 5224SOL    HW117679   3.708   8.529   4.812  0.1761  1.3240  0.6025
 5224SOL    HW217680   3.582   8.510   4.731  0.8892  0.7457 -0.3992
 5225SOL     OW17681   7.909   7.670   7.351  0.2074 -0.8691 -0.5441
 5225SOL    HW117682   7.840   7.663   7.285  1.2236 -0.8730 -1.6510
 5225SOL    HW217683   7.967   7.738   7.317 -0.0179  0.1952  1.1122
 5226SOL     OW17684   2.302   1.236   7.267  0.1651  0.5826  0.2417
 5226SOL    HW117685   2.240   1.166   7.251  0.9720  0.1537 -1.1842
 5226SOL    HW217686   2.351   1.208   7.344  0.0913 -0.1587  0.0244
 5227SOL     OW17687   1.524   4.381   8.404  0.4484 -0.4577  0.4919
 5227SOL    HW117688   1.539   4.316   8.335  2.3528  0.7900 -0.3668
 5227SOL    HW217689   1.517   4.329   8.484  1.0954 -1.7946 -0.2636
 5228SOL     OW17690   1.501   1.318   3.059 -0.3474  0.2716  0.5777
 5228SOL    HW117691   1.441   1.377   3.013  0.8510  0.0606 -1.3843
 5228SOL    HW217692   1.524   1.365   3.139 -0.0472  2.1386 -0.5372
 5229SOL     OW17693   2.278   3.848   5.270  0.5590  0.0722 -0.5507
 5229SOL    HW117694   2.243   3.761   5.251 -0.0769  0.0480  0.6747
 5229SOL    HW217695   2.219   3.908   5.225  0.0282 -0.0577 -0.0351
 5230SOL     OW17696   4.432   8.442   2.475 -0.0921  0.0161  0.0628
 5230SOL    HW117697   4.401   8.392   2.550 -0.0958 -1.3460 -0.8227
 5230SOL    HW217698   4.433   8.380   2.403  0.7810  1.0662 -0.8719
 5231SOL     OW17699   0.035   8.647   9.212  0.1273 -0.2500 -0.2041
 5231SOL    HW117700   0.026   8.636   9.307 -1.2466 -0.5919 -0.3657
 5231SOL    HW217701  -0.036   8.596   9.174 -0.2330  1.0339 -1.3658
 5232SOL     OW17702   9.117   6.694   5.667  0.1134  0.5703  0.2726
 5232SOL    HW117703   9.133   6.684   5.761 -1.0895  0.6748  0.5059
 5232SOL    HW217704   9.026   6.724   5.662  0.1182  0.4034 -0.9394
 5233SOL     OW17705   4.550   6.421   7.863 -0.6844  0.6295  0.3951
 5233SOL    HW117706   4.520   6.331   7.850  1.1006 -0.0730  0.9280
 5233SOL    HW217707   4.475   6.475   7.835 -1.9516 -0.9978  0.4763
 5234SOL     OW17708   7.263   7.937   2.427 -0.8649  0.0893 -0.2234
 5234SOL    HW117709   7.301   7.919   2.513 -0.2732  0.1751 -0.4607
 5234SOL    HW217710   7.321   8.003   2.389  0.2551 -1.5995 -1.6178
 5235SOL     OW17711   4.401   5.042   0.191 -0.0292  0.8430 -0.6757
 5235SOL    HW117712   4.322   5.054   0.138 -0.6429 -0.5546 -0.1253
 5235SOL    HW217713   4.467   5.014   0.128 -0.8626 -1.2185 -0.6993
 5236SOL     OW17714   0.779  10.243  10.295 -0.2488 -0.0982 -0.0885
 5236SOL    HW117715   0.747  10.280  10.213  0.1432  0.6247  0.0751
 5236SOL    HW217716   0.745  10.302  10.363 -0.6687 -0.7532  0.2874
 5237SOL     OW17717   9.741   2.361   2.858  0.7296  0.0990  0.6103
 5237SOL    HW117718   9.780   2.449   2.862  3.1895 -0.9227  0.7705
 5237SOL    HW217719   9.689   2.354   2.938  1.7243  0.8785  1.3498
 5238SOL     OW17720   4.890   5.626   8.041 -0.1181 -0.1015  0.0034
 5238SOL    HW117721   4.821   5.678   8.083 -0.6409 -1.7077  1.2262
 5238SOL    HW217722   4.859   5.614   7.951 -0.5760  0.6339  0.0522
 5239SOL     OW17723   7.037  10.260   8.517 -0.2506 -0.1936  0.0954
 5239SOL    HW117724   6.967  10.279   8.579  0.3032  0.7545  0.4592
 5239SOL    HW217725   7.110  10.316   8.545  0.9796 -1.8233  0.2805
 5240SOL     OW17726   1.444   0.203   4.483  0.3309 -0.6457 -0.3163
 5240SOL    HW117727   1.515   0.263   4.464  1.3751 -1.9671 -0.7590
 5240SOL    HW217728   1.460   0.174   4.573  1.0828 -1.8309 -0.7956
 5241SOL     OW17729   9.509   0.521   6.560 -0.3663 -0.0540 -0.2456
 5241SOL    HW117730   9.578   0.528   6.626 -0.8727  0.3894  0.2381
 5241SOL    HW217731   9.492   0.611   6.533  0.3055 -0.2725 -1.4898
 5242SOL     OW17732   2.836   4.126   7.692 -0.0317 -0.2187 -0.3106
 5242SOL    HW117733   2.903   4.072   7.735  0.4391 -0.0185 -0.7919
 5242SOL    HW217734   2.816   4.193   7.757  0.1519 -0.3453 -0.1178
 5243SOL     OW17735   4.813   9.807   6.897  0.2968  0.0394 -0.1910
 5243SOL    HW117736   4.779   9.806   6.986  0.3935  0.6844 -0.1387
 5243SOL    HW217737   4.791   9.895   6.865  1.6789  0.3794 -0.2487
 5244SOL     OW17738   7.278   8.737   3.401 -0.0579 -0.1811 -0.2811
 5244SOL    HW117739   7.287   8.831   3.410 -1.9106 -0.0892  1.0827
 5244SOL    HW217740   7.227   8.725   3.321  0.3128 -0.0518 -0.5404
 5245SOL     OW17741   1.228   8.146   0.147 -0.0665  0.1256 -0.0378
 5245SOL    HW117742   1.293   8.187   0.090  1.3461 -1.6772  0.1626
 5245SOL    HW217743   1.250   8.176   0.235 -0.9612  1.2929 -0.1935
 5246SOL     OW17744   0.825   5.764  10.984  0.3825  0.3599 -0.0079
 5246SOL    HW117745   0.755   5.742  10.923 -0.0769  1.5571  0.0613
 5246SOL    HW217746   0.785   5.754  11.071  0.0793  1.6940  0.0177
 5247SOL     OW17747   6.483  10.760   2.049  0.4178 -0.4394  0.4101
 5247SOL    HW117748   6.513  10.690   2.107  1.8061 -1.4832 -1.4634
 5247SOL    HW217749   6.498  10.840   2.099 -1.0316 -1.3913  2.5267
 5248SOL     OW17750   1.480   5.445   6.833  0.2377  0.6521  0.7601
 5248SOL    HW117751   1.394   5.487   6.833 -0.0662  0.0496  1.1127
 5248SOL    HW217752   1.530   5.491   6.765 -0.4958  0.7306  0.2658
 5249SOL     OW17753   1.167   2.118   9.442  0.2722 -0.0638 -0.0884
 5249SOL    HW117754   1.081   2.077   9.428  0.6616 -0.6353 -0.9134
 5249SOL    HW217755   1.164   2.149   9.532 -2.0524  3.0098 -1.0740
 5250SOL     OW17756   3.204   3.445   0.207 -0.4844  0.4827 -0.1900
 5250SOL    HW117757   3.295   3.457   0.181 -0.0185 -0.2837  0.9915
 5250SOL    HW217758   3.170   3.377   0.147 -0.1005  0.3345 -0.2400
 5251SOL     OW17759   6.412   8.885  10.927  0.2020 -0.2766 -0.3564
 5251SOL    HW117760   6.470   8.823  10.969 -0.4201 -1.4917 -1.2340
 5251SOL    HW217761   6.334   8.834  10.904 -0.6312  0.9841 -0.4721
 5252SOL     OW17762   6.811   3.505   7.197  0.3918 -0.5146 -0.1414
 5252SOL    HW117763   6.874   3.568   7.162  1.2083 -1.5523 -0.5865
 5252SOL    HW217764   6.854   3.469   7.275  1.0239 -2.2857 -1.2541
 5253SOL     OW17765  10.249   5.241   1.940 -0.0307  0.3992  0.6714
 5253SOL    HW117766  10.158   5.214   1.924 -0.3116  1.3870  0.5502
 5253SOL    HW217767  10.243   5.335   1.958  1.1534  0.8598 -1.1182
 5254SOL     OW17768   0.899   5.993   5.074 -0.2724 -0.2076 -0.2269
 5254SOL    HW117769   0.938   5.998   4.987  1.0817 -3.0788  0.0933
 5254SOL    HW217770   0.952   6.051   5.128  0.4622 -0.3297 -0.8099
 5255SOL     OW17771   2.455   8.077   4.658  0.0302 -0.1230 -0.0011
 5255SOL    HW117772   2.471   7.983   4.646 -0.1312 -0.5113  2.4290
 5255SOL    HW217773   2.498   8.098   4.741 -1.0106  1.6797  0.1162
 5256SOL     OW17774  10.489   2.063   3.704 -0.1215 -0.2548  0.4242
 5256SOL    HW117775  10.576   2.028   3.684 -0.6261 -0.7380 -1.0819
 5256SOL    HW217776  10.500   2.158   3.702  0.1931 -0.2910 -0.7993
 5257SOL     OW17777   8.140   8.813   7.549 -0.7043 -0.0961 -0.0257
 5257SOL    HW117778   8.101   8.817   7.636 -0.6530 -0.0924 -0.0034
 5257SOL    HW217779   8.155   8.719   7.533  2.2810  0.0492  1.2892
 5258SOL     OW17780  10.940  10.037   7.612  0.6253  0.3241 -0.1983
 5258SOL    HW117781  10.999   9.994   7.549 -0.5865 -0.0963 -1.0964
 5258SOL    HW217782  10.970  10.007   7.697  1.5259 -0.1158 -0.6496
 5259SOL     OW17783  10.305   9.127   2.254  0.2986 -0.6617  0.3109
 5259SOL    HW117784  10.226   9.180   2.248  0.8249  0.0076 -1.0722
 5259SOL    HW217785  10.297   9.062   2.184  2.4843  1.5913 -2.2311
 5260SOL     OW17786   7.360   3.649  10.793 -0.2044 -0.3545  0.2470
 5260SOL    HW117787   7.356   3.734  10.748 -0.6393 -0.5480 -0.0922
 5260SOL    HW217788   7.349   3.585  10.723 -0.4249 -0.6706  0.5698
 5261SOL     OW17789   4.372   0.448   2.714 -0.5626  0.5807  0.8364
 5261SOL    HW117790   4.390   0.530   2.667 -0.9873 -0.3606 -1.0900
 5261SOL    HW217791   4.277   0.436   2.706 -0.2758 -1.0613 -0.6966
 5262SOL     OW17792   9.798  11.011   2.333 -0.3591 -0.4262  0.3436
 5262SOL    HW117793   9.881  11.004   2.286 -0.6029  0.9365 -0.3530
 5262SOL    HW217794   9.818  10.984   2.422  0.8331 -0.1010  0.1906
 5263SOL     OW17795   6.808   4.160  10.194  0.0997 -0.2612  0.0835
 5263SOL    HW117796   6.800   4.201  10.280 -1.4348 -0.8734  0.2625
 5263SOL    HW217797   6.804   4.066  10.212 -1.4948 -0.3831 -0.7314
 5264SOL     OW17798   4.503   8.888   3.810  0.4717  0.1495 -0.1129
 5264SOL    HW117799   4.528   8.974   3.843 -0.8273 -0.2204  2.0344
 5264SOL    HW217800   4.413   8.899   3.778 -1.1441 -1.0196  3.4697
 5265SOL     OW17801   7.818   8.332   4.253  0.2865  0.2520  0.1043
 5265SOL    HW117802   7.865   8.256   4.287 -0.5748 -0.4289 -0.1878
 5265SOL    HW217803   7.829   8.327   4.158  0.9681  1.0041  0.1307
 5266SOL     OW17804   2.923   6.308   1.141 -0.3807 -0.2754  0.6274
 5266SOL    HW117805   2.929   6.325   1.235 -1.4680  1.3845  0.4291
 5266SOL    HW217806   2.991   6.364   1.103 -0.2414 -0.6122  0.3763
 5267SOL     OW17807   7.421   0.437   0.025 -0.1620 -0.1300  0.4060
 5267SOL    HW117808   7.445   0.492   0.100 -1.1810 -1.3345  1.6755
 5267SOL    HW217809   7.461   0.480  -0.050  1.5346  0.7251  1.7267
 5268SOL     OW17810   0.370  10.042   3.960  0.0258  0.0092 -0.2394
 5268SOL    HW117811   0.348  10.064   4.051  0.1463  1.1033 -0.4592
 5268SOL    HW217812   0.286  10.035   3.916 -0.0072  0.6696 -0.2961
 5269SOL     OW17813   5.849   2.010   7.268  0.0732 -0.1590  0.0583
 5269SOL    HW117814   5.796   2.078   7.227 -1.0512 -0.1863  1.3701
 5269SOL    HW217815   5.914   1.987   7.202 -1.2566  0.2158 -1.4521
 5270SOL     OW17816   3.731   8.246  10.868  0.3972  0.2910 -0.1227
 5270SOL    HW117817   3.774   8.309  10.810  1.0535  0.3392  0.3996
 5270SOL    HW217818   3.740   8.285  10.955  1.2631 -0.7535  0.2750
 5271SOL     OW17819   6.400   8.415   3.785  0.0153  0.2252 -0.2425
 5271SOL    HW117820   6.357   8.486   3.739  0.1426  1.3809  1.3306
 5271SOL    HW217821   6.329   8.370   3.832  0.0203 -0.2904 -0.7210
 5272SOL     OW17822   9.342   0.419   5.923 -0.3586  0.2247 -0.5219
 5272SOL    HW117823   9.432   0.435   5.952 -0.3438 -0.4808 -0.1658
 5272SOL    HW217824   9.352   0.357   5.850 -0.5680  0.0463 -0.3961
 5273SOL     OW17825   7.126   3.081   2.613  0.0461 -0.9282 -0.1777
 5273SOL    HW117826   7.115   2.987   2.628 -1.4994 -0.7249  0.1287
 5273SOL    HW217827   7.094   3.122   2.694 -1.5683 -0.0654 -1.2175
 5274SOL     OW17828   0.779   6.383   3.016 -0.2789  0.1706  0.2793
 5274SOL    HW117829   0.774   6.351   2.925 -0.7108  0.6333  0.1388
 5274SOL    HW217830   0.871   6.406   3.028  0.5714 -3.1200  1.0738
 5275SOL     OW17831   0.569   8.053   7.520  0.2318  0.0491 -0.0545
 5275SOL    HW117832   0.531   8.140   7.523  0.4722  0.1380  0.4814
 5275SOL    HW217833   0.625   8.048   7.598  0.9710 -0.2327 -0.5897
 5276SOL     OW17834   9.452   9.977   6.209  0.2949 -0.0882 -0.7254
 5276SOL    HW117835   9.539  10.008   6.186 -0.3140  2.0759 -0.3450
 5276SOL    HW217836   9.394  10.023   6.149 -0.7537  0.4120  0.6090
 5277SOL     OW17837   3.332   8.665   3.299  0.2124  0.7648 -0.7858
 5277SOL    HW117838   3.370   8.669   3.387 -0.0600  0.2037 -0.6420
 5277SOL    HW217839   3.240   8.692   3.311 -0.7772 -2.4566 -0.3230
 5278SOL     OW17840   0.298   5.350   9.387  0.0479 -0.3535 -0.2838
 5278SOL    HW117841   0.241   5.287   9.430 -0.1255 -0.6856 -0.9823
 5278SOL    HW217842   0.290   5.329   9.294  0.3839  0.3717 -0.4787
 5279SOL     OW17843  10.783   1.722   0.269  0.5468 -0.1002 -0.3010
 5279SOL    HW117844  10.806   1.631   0.255 -0.3263 -0.2908 -0.5652
 5279SOL    HW217845  10.695   1.719   0.308  0.1228  0.6480 -1.1727
 5280SOL     OW17846   5.525   6.508   4.368 -0.4736 -0.5434 -0.2710
 5280SOL    HW117847   5.494   6.460   4.291 -0.7965 -0.3300 -0.2771
 5280SOL    HW217848   5.620   6.495   4.368 -0.7041 -2.7318  0.7448
 5281SOL     OW17849   0.301   1.914   1.570 -0.3389  0.3087 -0.1438
 5281SOL    HW117850   0.271   1.999   1.603  1.5639  1.5747 -1.4176
 5281SOL    HW217851   0.237   1.890   1.503  0.7074  2.4315 -2.0804
 5282SOL     OW17852   5.573   1.250   5.381  0.1132 -0.1410 -0.1999
 5282SOL    HW117853   5.499   1.191   5.394 -2.1191  2.7584  1.4861
 5282SOL    HW217854   5.625   1.240   5.461  0.0544 -0.1867 -0.1671
 5283SOL     OW17855   8.562   9.262   8.928  0.1108 -0.0725  0.3641
 5283SOL    HW117856   8.637   9.320   8.915  0.3596 -0.7183 -1.5230
 5283SOL    HW217857   8.508   9.305   8.994 -0.3323  2.9553 -1.7764
 5284SOL     OW17858   0.473   5.876   6.902  0.5407  0.2734  0.0546
 5284SOL    HW117859   0.498   5.846   6.989  0.4592 -0.3592 -0.1365
 5284SOL    HW217860   0.382   5.904   6.912  0.4112 -0.1548  0.0879
 5285SOL     OW17861   0.093   2.827   4.184  0.9903  0.4999  0.5112
 5285SOL    HW117862   0.029   2.783   4.240  0.4791  0.7594  0.1400
 5285SOL    HW217863   0.080   2.921   4.203  2.5563  0.4961  1.8333
 5286SOL     OW17864   4.531  10.008   4.977 -0.1637  0.4195  0.6312
 5286SOL    HW117865   4.616  10.046   4.956  0.9745 -1.4882  1.5988
 5286SOL    HW217866   4.499   9.976   4.893  0.4500  0.4084  0.3951
 5287SOL     OW17867   6.848   3.463   4.604  0.5069 -0.4267 -0.2481
 5287SOL    HW117868   6.767   3.415   4.624  1.1540 -1.2830  0.3665
 5287SOL    HW217869   6.914   3.423   4.661  0.8750  1.8738  1.0790
 5288SOL     OW17870   4.138   8.149   9.787  0.0912 -0.4584 -0.2429
 5288SOL    HW117871   4.193   8.109   9.720 -0.8732  0.0800 -1.4035
 5288SOL    HW217872   4.049   8.121   9.765 -0.2077 -0.6090  1.0725
 5289SOL     OW17873   6.361   5.029  10.933 -0.3925  0.5238  0.0278
 5289SOL    HW117874   6.391   4.965  10.869  0.4383  1.2815 -0.3580
 5289SOL    HW217875   6.435   5.042  10.991  0.4923  3.1167 -1.4930
 5290SOL     OW17876   3.348   3.395   7.397 -0.1724 -0.4206  0.3030
 5290SOL    HW117877   3.268   3.382   7.448 -1.5932  2.7866 -0.8410
 5290SOL    HW217878   3.402   3.452   7.451  1.4065 -2.4788  1.0153
 5291SOL     OW17879   7.207   6.790   6.680 -0.2019  0.5343 -0.5468
 5291SOL    HW117880   7.256   6.828   6.607 -0.1015 -0.1332 -0.8334
 5291SOL    HW217881   7.153   6.722   6.639  0.5491 -0.4899  0.1117
 5292SOL     OW17882   0.968   3.513   6.833 -0.0391  0.4985  0.2201
 5292SOL    HW117883   0.882   3.473   6.845  0.3433 -0.4500 -0.0601
 5292SOL    HW217884   0.951   3.607   6.830 -1.0245  0.3386  0.4650
 5293SOL     OW17885   2.303   6.465   7.297  0.1715 -0.4517 -0.1829
 5293SOL    HW117886   2.376   6.520   7.269 -1.0304  1.2272 -0.1833
 5293SOL    HW217887   2.268   6.430   7.215  0.4409 -0.5589 -0.2546
 5294SOL     OW17888   4.259   5.978  10.845  0.1137  0.4089  0.1349
 5294SOL    HW117889   4.255   6.048  10.779 -0.6603  0.3931  0.1580
 5294SOL    HW217890   4.168   5.951  10.856  0.5447 -1.9492 -1.3153
 5295SOL     OW17891   2.234   7.804   7.220  0.2402  0.0540 -0.5243
 5295SOL    HW117892   2.307   7.846   7.175  0.1369  2.3575  1.2631
 5295SOL    HW217893   2.188   7.755   7.152  0.7103  2.4201 -2.6765
 5296SOL     OW17894   1.362   7.837   2.483 -0.0504  0.1328  0.2306
 5296SOL    HW117895   1.309   7.870   2.410  0.2687 -1.0061 -0.5305
 5296SOL    HW217896   1.307   7.772   2.525  0.4030 -0.4339 -0.0383
 5297SOL     OW17897  10.997   4.951   8.215 -0.3428  0.1577 -0.6244
 5297SOL    HW117898  11.010   5.019   8.280 -0.8848 -0.5871  0.2890
 5297SOL    HW217899  10.902   4.942   8.208 -0.2913  0.2254 -1.5270
 5298SOL     OW17900   4.736   5.551   8.288  0.4208  0.6752 -0.1756
 5298SOL    HW117901   4.692   5.499   8.356 -1.9081  0.5346 -1.6813
 5298SOL    HW217902   4.776   5.624   8.337 -0.4189  0.1131  1.4508
 5299SOL     OW17903   8.524   0.147   6.429 -0.2229 -0.0868  0.1962
 5299SOL    HW117904   8.469   0.103   6.365 -1.0593 -1.0369  1.5244
 5299SOL    HW217905   8.594   0.084   6.449 -0.3983 -0.1150  0.7595
 5300SOL     OW17906   6.385  10.015   4.315 -0.3925  0.1130 -0.5716
 5300SOL    HW117907   6.310   9.981   4.266 -0.5228  1.0371 -1.0283
 5300SOL    HW217908   6.436  10.062   4.250  0.5451 -0.4262 -0.2409
 5301SOL     OW17909   7.682   2.732   8.094 -0.3945 -0.1126 -0.3796
 5301SOL    HW117910   7.624   2.802   8.123  1.7876  0.7192  2.3595
 5301SOL    HW217911   7.728   2.769   8.019 -2.1562 -0.2379 -1.6056
 5302SOL     OW17912   5.194   6.049   2.088 -0.9509  0.7984  0.3080
 5302SOL    HW117913   5.180   6.041   1.993  0.5969  0.8324  0.0502
 5302SOL    HW217914   5.165   5.965   2.123 -0.1705  0.2109 -0.3937
 5303SOL     OW17915   9.054   7.860   1.810  0.1695 -0.0160  0.1373
 5303SOL    HW117916   9.139   7.817   1.804  0.0064 -0.4294  0.7112
 5303SOL    HW217917   9.000   7.800   1.862 -1.3367 -1.1304 -2.5341
 5304SOL     OW17918   0.987   7.696   1.774  0.6847 -0.4860 -0.2001
 5304SOL    HW117919   0.914   7.655   1.819 -0.3240  0.9662 -0.4414
 5304SOL    HW217920   0.951   7.721   1.688  1.5106  0.0862 -0.3915
 5305SOL     OW17921   8.445   5.878   5.490  0.0380  0.6755 -0.2618
 5305SOL    HW117922   8.426   5.853   5.580  2.2342 -1.6679 -0.3266
 5305SOL    HW217923   8.512   5.946   5.497  1.2217 -0.4624 -0.0496
 5306SOL     OW17924   5.984   6.690   4.291  0.4449 -0.0180 -0.1105
 5306SOL    HW117925   5.936   6.736   4.359  1.1846  1.2558 -0.4198
 5306SOL    HW217926   5.979   6.747   4.215  1.2956 -0.4914 -0.5452
 5307SOL     OW17927   5.414  10.828   2.098 -0.2954  0.1385 -0.5428
 5307SOL    HW117928   5.454  10.741   2.100 -0.8162 -0.1415 -1.5942
 5307SOL    HW217929   5.447  10.872   2.177  0.7901 -0.6420 -0.5436
 5308SOL     OW17930  10.796   0.644   1.634  0.3088  0.1057  0.3841
 5308SOL    HW117931  10.726   0.677   1.691 -0.3471 -0.2967 -0.1788
 5308SOL    HW217932  10.782   0.687   1.550  1.0314  0.3869  0.3956
 5309SOL     OW17933   9.385   9.111   6.929 -0.5524  0.4129 -0.1044
 5309SOL    HW117934   9.358   9.074   6.845 -1.0511  0.1318  0.1755
 5309SOL    HW217935   9.315   9.173   6.951  0.0874  1.2599 -0.3919
 5310SOL     OW17936  10.606   1.285   3.099  0.2336 -0.1704  0.1021
 5310SOL    HW117937  10.597   1.209   3.155  0.3249  1.2640  2.1625
 5310SOL    HW217938  10.518   1.322   3.094  0.6504  1.0642  1.3645
 5311SOL     OW17939   7.421   9.864   0.291  0.1532 -0.4155 -0.0567
 5311SOL    HW117940   7.326   9.867   0.296  0.1709  0.7694 -0.1144
 5311SOL    HW217941   7.449   9.955   0.301  1.1707 -0.4542 -1.9225
 5312SOL     OW17942   1.609   8.702  10.110 -0.3367  0.4954  0.1608
 5312SOL    HW117943   1.607   8.701  10.014 -0.9084  1.9204  0.1235
 5312SOL    HW217944   1.689   8.751  10.131 -0.6534  0.9224  0.3864
 5313SOL     OW17945   4.598   3.278   5.171 -0.3586 -0.1860 -0.2070
 5313SOL    HW117946   4.659   3.218   5.128 -0.8953 -1.4081  0.6812
 5313SOL    HW217947   4.512   3.239   5.156 -1.0236  1.7205 -1.7852
 5314SOL     OW17948   8.702   3.884   8.026 -0.8452  0.2044 -0.1967
 5314SOL    HW117949   8.655   3.925   8.099 -0.9965  0.1958 -0.2899
 5314SOL    HW217950   8.785   3.856   8.065 -0.4854  1.1271 -0.2645
 5315SOL     OW17951   7.767   8.305   7.989  0.6136  0.2020  0.5655
 5315SOL    HW117952   7.715   8.290   8.068  0.3686  0.2270  0.4103
 5315SOL    HW217953   7.828   8.231   7.986 -0.1919 -0.4729  0.1218
 5316SOL     OW17954   8.624   5.362   8.066 -0.2734 -0.5181  0.4556
 5316SOL    HW117955   8.690   5.308   8.021 -0.8598 -1.3268  0.5370
 5316SOL    HW217956   8.571   5.299   8.114  0.7629  0.3731  2.8952
 5317SOL     OW17957   3.904   3.806  10.416  0.5498  0.1691  0.1885
 5317SOL    HW117958   3.881   3.752  10.492  2.5097 -2.6631 -1.0913
 5317SOL    HW217959   3.830   3.795  10.356  1.4035 -2.1344 -0.5257
 5318SOL     OW17960   9.706   5.307   6.058 -0.0059 -0.0547  0.0534
 5318SOL    HW117961   9.772   5.359   6.104 -1.0623  1.1783  0.2180
 5318SOL    HW217962   9.757   5.239   6.014  1.3500  0.6700  0.4246
 5319SOL     OW17963   4.258   0.172   9.785 -0.6343  0.2659 -0.4541
 5319SOL    HW117964   4.184   0.138   9.836  0.4802  0.6352  1.5238
 5319SOL    HW217965   4.223   0.251   9.742 -1.6775 -0.1949 -0.4982
 5320SOL     OW17966   4.615   2.954   4.655  0.1848 -0.0431  0.0292
 5320SOL    HW117967   4.576   3.040   4.671 -1.8979 -0.8261 -0.3913
 5320SOL    HW217968   4.603   2.939   4.561 -2.0625 -1.8557  0.4975
 5321SOL     OW17969   3.183   7.253   5.281  0.0971  0.2848  0.3060
 5321SOL    HW117970   3.165   7.311   5.208  1.1324  0.3417  0.0922
 5321SOL    HW217971   3.145   7.298   5.357 -0.4679  0.4980 -0.0973
 5322SOL     OW17972   1.733   8.037   2.558 -0.5385  0.1392 -0.1133
 5322SOL    HW117973   1.696   8.126   2.555 -0.4184  0.1712 -0.7375
 5322SOL    HW217974   1.730   8.007   2.467  0.6518  0.0085 -0.1147
 5323SOL     OW17975   1.749   0.447   1.243 -0.5173 -0.6976 -0.1206
 5323SOL    HW117976   1.744   0.378   1.310 -0.1780 -1.3001 -0.6966
 5323SOL    HW217977   1.842   0.457   1.226 -0.5215  0.3740  0.4118
 5324SOL     OW17978   8.840   6.006   9.009 -0.1926 -0.0365 -0.1107
 5324SOL    HW117979   8.826   5.989   8.916 -0.1467 -0.7254  0.0088
 5324SOL    HW217980   8.911   6.070   9.011  0.9147 -1.2191 -0.5021
 5325SOL     OW17981   3.043   0.909   3.500 -0.4029 -0.1831  0.0841
 5325SOL    HW117982   3.137   0.892   3.495 -0.4540 -0.2468 -0.9413
 5325SOL    HW217983   3.008   0.832   3.545 -0.1878 -1.1418 -1.2955
 5326SOL     OW17984   1.434   9.802   8.951  0.2199 -0.3741 -0.3721
 5326SOL    HW117985   1.343   9.773   8.960  0.9396 -2.6854  0.0866
 5326SOL    HW217986   1.474   9.783   9.036  1.0466  1.0601 -0.4121
 5327SOL     OW17987   9.773   8.557   8.157  0.2871  0.5490  0.0296
 5327SOL    HW117988   9.808   8.501   8.088  2.1596  0.9320  0.6031
 5327SOL    HW217989   9.714   8.501   8.206  1.3456 -0.6385 -0.0216
 5328SOL     OW17990   5.832   4.913   0.436 -0.1461 -0.1139 -0.1622
 5328SOL    HW117991   5.759   4.974   0.423  0.6220  1.1343  1.0530
 5328SOL    HW217992   5.804   4.833   0.392 -1.7916  0.6654 -0.6378
 5329SOL     OW17993   7.751   6.116   4.947 -0.0039  0.1492 -0.0843
 5329SOL    HW117994   7.754   6.037   5.002 -1.8629  0.0530 -0.0511
 5329SOL    HW217995   7.826   6.107   4.888 -0.5394 -2.0048 -0.5378
 5330SOL     OW17996   5.382   3.815   7.917  0.2831 -0.0923 -0.4374
 5330SOL    HW117997   5.456   3.757   7.899 -0.1489 -0.7858 -0.0127
 5330SOL    HW217998   5.309   3.778   7.867 -0.3847 -0.8242  1.0385
 5331SOL     OW17999   1.295   4.558   0.205  0.0785  0.0500 -0.3745
 5331SOL    HW118000   1.249   4.613   0.268 -0.0584  0.5756 -0.9207
 5331SOL    HW218001   1.247   4.570   0.123  2.0756  1.8597 -1.3760
 5332SOL     OW18002   6.880  10.828   0.523 -0.1070  0.5073 -0.7424
 5332SOL    HW118003   6.910  10.875   0.601 -0.9500  0.9949 -0.7094
 5332SOL    HW218004   6.865  10.738   0.553  0.8385  0.3714 -0.6510
 5333SOL     OW18005   3.828   0.421   7.426  0.0652  0.3149 -0.8909
 5333SOL    HW118006   3.893   0.466   7.373  1.2606 -0.6473 -0.3085
 5333SOL    HW218007   3.816   0.336   7.384 -0.7344  0.4286 -0.9188
 5334SOL     OW18008   1.503   8.396   5.388  0.2639  0.0418  0.0830
 5334SOL    HW118009   1.579   8.353   5.427  0.2991  0.1664  0.1537
 5334SOL    HW218010   1.447   8.325   5.360  1.0229 -0.0848 -1.2070
 5335SOL     OW18011   4.972   9.798   9.311  0.0470  0.4984  0.5265
 5335SOL    HW118012   4.893   9.794   9.365  1.6355  0.0170  2.9416
 5335SOL    HW218013   4.967   9.721   9.255 -1.4689  0.8085  0.1995
 5336SOL     OW18014   2.867   4.901   6.352 -0.2633 -0.1827  0.3114
 5336SOL    HW118015   2.798   4.876   6.413 -1.7499  1.0860 -0.7664
 5336SOL    HW218016   2.852   4.848   6.275  0.1013 -0.0453  0.1408
 5337SOL     OW18017   0.783   3.970   7.893 -0.1831  0.0098 -0.2793
 5337SOL    HW118018   0.694   3.953   7.927 -0.4595  0.6705 -0.6669
 5337SOL    HW218019   0.806   3.889   7.848 -0.3209 -0.4120  0.3845
 5338SOL     OW18020   3.474  10.655   1.560 -0.4859  0.1272 -0.3261
 5338SOL    HW118021   3.499  10.747   1.570 -1.3345  0.3995 -0.6247
 5338SOL    HW218022   3.402  10.643   1.622  0.5369 -0.7294  0.7520
 5339SOL     OW18023   1.614   4.748   2.494  0.2112 -0.4563  0.2239
 5339SOL    HW118024   1.520   4.751   2.513 -0.0069 -0.3151 -0.8052
 5339SOL    HW218025   1.645   4.837   2.510  0.1301 -0.4526  0.3616
 5340SOL     OW18026   8.133   3.319   2.756  0.6683  0.4964  0.4324
 5340SOL    HW118027   8.160   3.407   2.781  0.2255  0.5244  0.8257
 5340SOL    HW218028   8.205   3.263   2.784  0.8842  0.7127  0.3157
 5341SOL     OW18029  10.441   4.680   0.419  0.3436 -0.0687  0.3926
 5341SOL    HW118030  10.445   4.776   0.421  0.6359 -0.0277 -0.9126
 5341SOL    HW218031  10.504   4.655   0.351  2.4436 -1.3673  2.6506
 5342SOL     OW18032   4.513   1.237   9.408  0.4602  0.0427 -0.1859
 5342SOL    HW118033   4.484   1.200   9.325  0.5623 -0.5504  0.0302
 5342SOL    HW218034   4.544   1.161   9.458  1.5648  0.5324 -0.0774
 5343SOL     OW18035   6.246   2.942   7.754 -0.5907  0.3241  0.1930
 5343SOL    HW118036   6.321   2.896   7.791 -0.6733  1.0162  1.2518
 5343SOL    HW218037   6.189   2.872   7.721  0.2456 -0.2310 -0.1100
 5344SOL     OW18038   2.497   4.815   2.079 -0.7997  0.4784  0.4784
 5344SOL    HW118039   2.580   4.769   2.089 -1.5183 -1.2762 -1.1699
 5344SOL    HW218040   2.444   4.759   2.023 -2.4857  2.3713  0.0368
 5345SOL     OW18041   4.763   4.990  10.111  0.2612 -0.1291 -0.8425
 5345SOL    HW118042   4.692   5.050  10.087  0.8186  0.4818 -0.9982
 5345SOL    HW218043   4.718   4.915  10.151 -0.4340  0.5811 -0.2285
 5346SOL     OW18044   1.672   0.903   6.017  0.1736  0.3584 -0.1767
 5346SOL    HW118045   1.604   0.886   6.083  1.5285 -0.9759  0.9685
 5346SOL    HW218046   1.735   0.833   6.031  2.6472  2.4859 -0.0300
 5347SOL     OW18047   1.474   0.792   3.818 -0.5862  0.0236 -0.0982
 5347SOL    HW118048   1.484   0.771   3.725 -0.2024 -1.5375  0.2589
 5347SOL    HW218049   1.487   0.887   3.823  0.0636  0.0428 -1.5511
 5348SOL     OW18050   1.927   7.193   2.070  0.1487  0.1183  0.1499
 5348SOL    HW118051   1.893   7.110   2.035  0.7278 -0.1087  0.1171
 5348SOL    HW218052   1.859   7.257   2.049  0.7858  0.1343 -2.0271
 5349SOL     OW18053   1.992   1.946  10.093 -0.3262  0.2056 -0.1402
 5349SOL    HW118054   2.070   1.941  10.147 -1.9111  4.4523  3.1199
 5349SOL    HW218055   2.011   2.015  10.029 -1.0899  0.7012  0.1521
 5350SOL     OW18056   5.900  10.711   5.728  0.1054  0.2364  0.4483
 5350SOL    HW118057   5.908  10.739   5.636 -0.2633  1.2875  0.7243
 5350SOL    HW218058   5.848  10.630   5.724  0.0365  0.3086 -0.2660
 5351SOL     OW18059   0.373   2.257   5.309  0.5905 -0.8460 -0.1310
 5351SOL    HW118060   0.461   2.260   5.272 -0.1048  2.3348 -1.8836
 5351SOL    HW218061   0.376   2.315   5.385 -0.2750  0.5344 -1.1020
 5352SOL     OW18062   2.012   6.794   6.474 -0.1081 -0.4920 -0.2734
 5352SOL    HW118063   2.044   6.867   6.420  0.1266 -0.9951 -0.8215
 5352SOL    HW218064   1.966   6.837   6.546 -1.9151  0.1985 -1.7324
 5353SOL     OW18065   0.945   1.538   8.487 -0.6020  0.0899  0.3149
 5353SOL    HW118066   0.987   1.484   8.554 -1.1289 -0.9063 -0.1393
 5353SOL    HW218067   0.864   1.493   8.466  0.0566 -0.2518 -1.7885
 5354SOL     OW18068   8.945   5.561  10.210  0.2009  0.1426 -0.2450
 5354SOL    HW118069   8.926   5.473  10.179 -0.6903  0.7714 -1.6156
 5354SOL    HW218070   8.888   5.572  10.286  0.8186 -0.6795  0.3527
 5355SOL     OW18071   5.880   3.391   5.178  0.3220 -0.4755 -0.0276
 5355SOL    HW118072   5.967   3.382   5.218 -0.1891 -1.2638  0.9333
 5355SOL    HW218073   5.888   3.469   5.123  1.2211  0.3249  1.1634
 5356SOL     OW18074   4.504   1.320   6.438  0.5180 -0.1305  0.8108
 5356SOL    HW118075   4.418   1.284   6.416  0.9758 -0.1436 -1.1868
 5356SOL    HW218076   4.560   1.291   6.366  1.3586  2.9768  0.0778
 5357SOL     OW18077   5.720   0.165   3.750 -0.2815  0.3276  0.3008
 5357SOL    HW118078   5.788   0.136   3.811 -0.7845 -1.6242  0.0158
 5357SOL    HW218079   5.704   0.089   3.694  0.4529  2.1348 -2.6111
 5358SOL     OW18080   2.116   5.449   2.647 -0.1768 -0.3272  0.2855
 5358SOL    HW118081   2.135   5.532   2.691  1.8678  0.5794 -2.0652
 5358SOL    HW218082   2.034   5.465   2.600 -1.5896 -0.8351  2.4011
 5359SOL     OW18083   8.122   2.617   8.804 -0.3315  0.4342  0.2243
 5359SOL    HW118084   8.109   2.693   8.860 -1.5305  0.4125 -0.0063
 5359SOL    HW218085   8.088   2.543   8.854  0.2046  0.1448  0.1740
 5360SOL     OW18086   7.814   8.762  10.247 -0.7793 -0.7062  0.3746
 5360SOL    HW118087   7.735   8.813  10.267 -0.8395 -0.4033 -0.6071
 5360SOL    HW218088   7.784   8.695  10.186  0.3853  1.8401 -3.3102
 5361SOL     OW18089   7.318   7.226  10.467  0.1325  0.0767 -0.4020
 5361SOL    HW118090   7.385   7.185  10.523 -1.0168 -1.5674 -0.1396
 5361SOL    HW218091   7.315   7.317  10.496 -0.1479 -0.6197  1.9713
 5362SOL     OW18092   7.407   0.814   7.708  0.1881 -0.5365  0.0618
 5362SOL    HW118093   7.456   0.780   7.633 -0.5416 -0.8732 -0.2759
 5362SOL    HW218094   7.474   0.845   7.769  0.8180  1.9347 -1.6915
 5363SOL     OW18095   1.579   3.856   6.005  0.0368 -0.8027  0.2248
 5363SOL    HW118096   1.619   3.770   6.012 -2.6225 -2.0240  2.3791
 5363SOL    HW218097   1.627   3.910   6.067  1.1922 -0.9119 -0.5453
 5364SOL     OW18098   3.891   9.659  10.800  0.3812 -0.3520  0.3431
 5364SOL    HW118099   3.860   9.743  10.835  1.9751  0.4124  0.0342
 5364SOL    HW218100   3.880   9.667  10.706  1.6238  0.0109  0.2101
 5365SOL     OW18101   0.602   0.157   2.984 -0.4944 -0.6680 -0.0336
 5365SOL    HW118102   0.651   0.102   3.045  2.1048  0.3910 -1.0525
 5365SOL    HW218103   0.633   0.131   2.897 -1.6897  0.1248 -0.7293
 5366SOL     OW18104   6.249   5.326   4.392 -0.4812  0.2670 -0.4238
 5366SOL    HW118105   6.254   5.240   4.434 -0.2474  0.0520 -0.8810
 5366SOL    HW218106   6.157   5.337   4.370 -1.2704  1.7860  2.9940
 5367SOL     OW18107   5.264   0.695   3.226  0.0275  0.4056 -0.6084
 5367SOL    HW118108   5.264   0.707   3.132 -2.8047  1.2296 -0.5941
 5367SOL    HW218109   5.172   0.683   3.249  0.5259  1.1411  2.1507
 5368SOL     OW18110   5.216   7.662   6.437 -0.2192  0.6511  0.0770
 5368SOL    HW118111   5.206   7.683   6.530  0.7703  1.1350  0.0795
 5368SOL    HW218112   5.296   7.707   6.410 -0.3928  0.3633 -0.9687
 5369SOL     OW18113   8.334   6.834   5.916 -0.1210 -0.4629  0.2212
 5369SOL    HW118114   8.355   6.819   6.008  1.6487 -0.2364 -0.1161
 5369SOL    HW218115   8.267   6.769   5.896 -0.5689 -0.4767  1.6744
 5370SOL     OW18116   9.926   8.476   8.855 -0.2421  0.1336 -0.2102
 5370SOL    HW118117  10.016   8.499   8.878 -0.8038  1.8362  0.4463
 5370SOL    HW218118   9.890   8.439   8.936 -1.1602  2.8466  0.7437
 5371SOL     OW18119   0.392   4.403   4.537  0.5523 -0.3388  0.3451
 5371SOL    HW118120   0.401   4.429   4.445 -0.2413  0.3538  0.4547
 5371SOL    HW218121   0.448   4.326   4.545 -0.5302 -1.3277 -1.0919
 5372SOL     OW18122   7.333   8.902   7.932 -0.5681  0.8229  0.0737
 5372SOL    HW118123   7.378   8.912   7.848 -1.1614  3.1778 -0.0103
 5372SOL    HW218124   7.282   8.822   7.921 -0.3033  0.8390 -1.6587
 5373SOL     OW18125  10.432   2.227   9.231  0.2120 -0.4566  0.2413
 5373SOL    HW118126  10.455   2.316   9.257  0.5217 -0.4402 -0.0797
 5373SOL    HW218127  10.408   2.234   9.139  0.8670 -0.8057  0.0347
 5374SOL     OW18128   2.371   2.390  10.365  0.8590  0.4905  0.6828
 5374SOL    HW118129   2.280   2.399  10.338  1.3004 -1.3590 -1.7983
 5374SOL    HW218130   2.420   2.442  10.300  1.7520 -1.1874 -0.0407
 5375SOL     OW18131   4.009   7.372   4.522 -0.6530  0.3713 -0.1212
 5375SOL    HW118132   3.996   7.384   4.428  0.2007  0.7861 -0.1968
 5375SOL    HW218133   3.974   7.452   4.562 -1.3895  0.0193 -0.0439
 5376SOL     OW18134   2.991   2.225   7.147 -0.2618  0.0871  0.4221
 5376SOL    HW118135   3.060   2.227   7.214  0.2513  0.2571 -0.1066
 5376SOL    HW218136   3.017   2.155   7.088 -1.2347 -0.7315  0.9324
 5377SOL     OW18137   8.595   3.414   9.522 -0.2769 -0.5958  0.3608
 5377SOL    HW118138   8.564   3.504   9.538  0.5212 -0.4486  1.1538
 5377SOL    HW218139   8.655   3.396   9.594  0.1598 -1.4979 -0.2078
 5378SOL     OW18140   3.870   7.330   6.599  0.0239 -0.5639 -0.7519
 5378SOL    HW118141   3.798   7.388   6.625  0.5765 -0.1597 -0.0820
 5378SOL    HW218142   3.900   7.365   6.515  0.3703  0.1607 -0.3427
 5379SOL     OW18143   4.392   9.643   5.511  0.2461 -0.4519 -0.0067
 5379SOL    HW118144   4.423   9.684   5.592 -1.8933 -0.7407  1.0035
 5379SOL    HW218145   4.407   9.549   5.525 -0.4966 -0.5360  0.2229
 5380SOL     OW18146   5.315   2.987   7.645 -0.2371  0.5019 -0.4361
 5380SOL    HW118147   5.326   2.928   7.570 -0.2021  1.4102 -1.1717
 5380SOL    HW218148   5.246   3.048   7.617  0.0393  1.0788  0.1288
 5381SOL     OW18149   3.546   5.110   4.314 -0.5987  0.0189  0.1168
 5381SOL    HW118150   3.487   5.184   4.296 -0.9968 -0.3370 -0.0443
 5381SOL    HW218151   3.634   5.149   4.314 -0.6654  0.2459 -1.4677
 5382SOL     OW18152   7.433   0.052   8.093  0.8332  0.5360 -0.0752
 5382SOL    HW118153   7.476   0.112   8.032 -0.9996  1.3633 -0.6259
 5382SOL    HW218154   7.505   0.003   8.133  2.3363  2.4524 -0.2832
 5383SOL     OW18155   9.781   5.282   6.386  0.1386 -0.3497 -0.1756
 5383SOL    HW118156   9.704   5.265   6.332  0.1710 -1.8169  0.1891
 5383SOL    HW218157   9.749   5.340   6.456 -0.8859 -1.6555  0.4883
 5384SOL     OW18158   4.631  11.013   8.153  0.3378  0.0014 -0.3138
 5384SOL    HW118159   4.716  10.979   8.182  0.8737  1.1817 -0.4259
 5384SOL    HW218160   4.567  10.970   8.209  0.8536 -1.9700 -1.1348
 5385SOL     OW18161   6.610   5.436   8.787  0.4805  0.4004 -0.3614
 5385SOL    HW118162   6.570   5.503   8.731 -0.3348  0.6700  0.5145
 5385SOL    HW218163   6.579   5.457   8.875  3.4271  1.2989  0.5812
 5386SOL     OW18164   4.487   5.053   5.583 -0.0150  0.7830 -0.1573
 5386SOL    HW118165   4.502   5.115   5.512 -0.4824 -0.7120 -1.6132
 5386SOL    HW218166   4.397   5.070   5.611 -0.1222  0.8098 -0.5102
 5387SOL     OW18167   3.182   1.821   6.947 -0.0236 -0.2069 -0.6010
 5387SOL    HW118168   3.170   1.866   6.863 -3.1977  0.5590  0.1246
 5387SOL    HW218169   3.102   1.769   6.957 -0.3450  0.7043  2.4377
 5388SOL     OW18170   3.864   9.228   3.116  0.3504 -0.2551  0.1609
 5388SOL    HW118171   3.815   9.293   3.166  0.0762 -1.5249  1.6129
 5388SOL    HW218172   3.800   9.161   3.092  1.0605 -1.2526  0.9069
 5389SOL     OW18173  10.592   4.772   7.834 -0.5685 -0.3041  0.6447
 5389SOL    HW118174  10.537   4.694   7.842 -1.4817  0.3903  1.4141
 5389SOL    HW218175  10.570   4.808   7.748  0.1100 -1.0590  0.1401
 5390SOL     OW18176  10.889   2.213   3.590 -0.3601  0.4381 -0.8574
 5390SOL    HW118177  10.825   2.281   3.607 -0.8846  0.3405 -2.3236
 5390SOL    HW218178  10.967   2.241   3.638 -1.7889 -0.0321  1.9294
 5391SOL     OW18179   8.380   8.548   7.218 -0.2142 -0.4344  0.0052
 5391SOL    HW118180   8.361   8.464   7.176 -1.5083 -0.6954  1.0538
 5391SOL    HW218181   8.303   8.565   7.273  0.3887  1.0459  0.4244
 5392SOL     OW18182   8.785   7.033  10.929 -0.1336  0.1016 -0.3695
 5392SOL    HW118183   8.735   7.037  10.847 -1.2594  0.1319  0.2934
 5392SOL    HW218184   8.855   6.970  10.912 -0.1857  0.3103 -1.4363
 5393SOL     OW18185   0.965   5.649   0.259  0.4878  0.2659  0.2169
 5393SOL    HW118186   0.881   5.694   0.257  0.6358  0.5345 -0.1844
 5393SOL    HW218187   1.014   5.688   0.186  0.2302 -1.2875 -0.8497
 5394SOL     OW18188   6.503   7.885   6.289  0.7210  0.0374  0.2982
 5394SOL    HW118189   6.421   7.914   6.249  0.8803 -0.2854 -0.2713
 5394SOL    HW218190   6.567   7.952   6.263  1.1896 -1.0207 -1.3983
 5395SOL     OW18191  10.243   3.010   9.718 -0.5837 -0.1025  0.4967
 5395SOL    HW118192  10.242   2.993   9.624  0.0556 -1.1858  0.6731
 5395SOL    HW218193  10.271   2.928   9.758 -0.6685  0.3921  1.6281
 5396SOL     OW18194   8.386   4.273   0.232  0.3634  0.2420  0.1310
 5396SOL    HW118195   8.475   4.295   0.259  1.2375 -2.3809 -0.2526
 5396SOL    HW218196   8.366   4.192   0.279 -0.4636 -1.0685 -2.2984
 5397SOL     OW18197   9.711   7.484  10.173  0.3771  0.4344 -0.0030
 5397SOL    HW118198   9.662   7.567  10.169  0.5556  0.5347 -0.1287
 5397SOL    HW218199   9.798   7.507  10.140  0.7896  0.4718  1.0713
 5398SOL     OW18200   9.037   2.838   5.711 -0.6717 -0.0034 -0.3320
 5398SOL    HW118201   9.006   2.788   5.635 -0.4226 -1.5652  0.5386
 5398SOL    HW218202   9.132   2.837   5.703 -0.5571 -1.6340  0.8375
 5399SOL     OW18203   5.230   9.545   1.029 -0.6395  0.3210 -0.3250
 5399SOL    HW118204   5.247   9.639   1.035 -0.1903  0.2702 -0.6632
 5399SOL    HW218205   5.313   9.508   0.999 -1.1590 -0.0373 -1.3694
 5400SOL     OW18206   1.334   1.812   7.918 -0.3557  0.4914  0.0489
 5400SOL    HW118207   1.256   1.772   7.879 -0.7413  1.3408 -0.0611
 5400SOL    HW218208   1.407   1.767   7.876 -0.7347 -1.7693  1.5867
 5401SOL     OW18209   8.861   0.793   0.015  0.4848  0.0229 -0.7895
 5401SOL    HW118210   8.880   0.871   0.068  0.3131 -0.9346  0.7459
 5401SOL    HW218211   8.768   0.801  -0.006 -0.0765 -0.7607  1.1702
 5402SOL     OW18212   5.995   5.318   9.582  0.0795 -0.6154  0.1023
 5402SOL    HW118213   5.976   5.228   9.555 -1.6651  0.2473 -1.7872
 5402SOL    HW218214   5.990   5.369   9.502 -2.4426  1.6786  1.5599
 5403SOL     OW18215   3.332   3.313  10.300 -0.0780 -0.1882 -0.3237
 5403SOL    HW118216   3.418   3.328  10.263  0.5626 -1.7744  0.4188
 5403SOL    HW218217   3.313   3.392  10.350  2.0172 -0.6733  1.4245
 5404SOL     OW18218   2.703  10.402   3.853 -0.0594 -0.2969 -0.1128
 5404SOL    HW118219   2.736  10.460   3.922  1.0186  1.6112 -2.1171
 5404SOL    HW218220   2.764  10.414   3.780 -2.4763 -0.3025 -2.2954
 5405SOL     OW18221   2.316   3.218   8.142 -0.1456 -0.4155  0.0430
 5405SOL    HW118222   2.306   3.234   8.048  1.1266 -0.1564 -0.0642
 5405SOL    HW218223   2.230   3.188   8.170 -0.9738  0.9074 -0.9253
 5406SOL     OW18224   9.524   1.136  10.619 -0.0425 -0.3046  0.0891
 5406SOL    HW118225   9.506   1.159  10.710 -0.9213  0.9540 -0.3842
 5406SOL    HW218226   9.535   1.041  10.620  0.8482 -0.2188  1.6425
 5407SOL     OW18227   5.004   6.036   4.572 -0.0114  0.6308  0.1874
 5407SOL    HW118228   4.935   6.004   4.630 -1.1921 -0.3151 -1.6294
 5407SOL    HW218229   4.958   6.093   4.510  0.3092 -1.7159 -2.4117
 5408SOL     OW18230   1.962   0.715   5.480  0.3350 -0.1156  0.3041
 5408SOL    HW118231   1.923   0.771   5.547 -0.2151 -0.2056  0.0619
 5408SOL    HW218232   1.888   0.682   5.429  0.6373 -1.2138  0.5511
 5409SOL     OW18233   0.528   8.653   7.843  0.3751  0.6309  0.6189
 5409SOL    HW118234   0.518   8.629   7.750  0.5905  1.0244  0.4935
 5409SOL    HW218235   0.594   8.721   7.843  0.6902  0.3292  1.1136
 5410SOL     OW18236   3.207   8.836   5.919  0.3059 -0.2661 -0.3816
 5410SOL    HW118237   3.127   8.881   5.890  1.0570  1.7589  0.4898
 5410SOL    HW218238   3.234   8.884   5.997  1.1077 -2.4031  0.7285
 5411SOL     OW18239   9.413   4.923   1.054 -1.0178  0.2855 -0.2080
 5411SOL    HW118240   9.352   4.881   1.115  0.7626 -1.2568  0.6200
 5411SOL    HW218241   9.476   4.855   1.032 -0.0359  1.5900 -1.6624
 5412SOL     OW18242   4.417   4.059   1.771 -1.3680  0.3299 -0.2784
 5412SOL    HW118243   4.423   4.141   1.722 -2.6312 -0.1206 -1.2599
 5412SOL    HW218244   4.431   3.991   1.705 -2.5051 -0.2828  0.0843
 5413SOL     OW18245   5.527   3.821   5.543  0.4156  0.3890  1.0977
 5413SOL    HW118246   5.607   3.865   5.517  0.5075 -0.6902 -0.5846
 5413SOL    HW218247   5.502   3.863   5.625  1.8130  1.8370  0.8238
 5414SOL     OW18248   7.271   3.101   5.186 -0.3915 -0.3059 -0.4996
 5414SOL    HW118249   7.247   3.069   5.099 -2.7348 -0.2792  0.0807
 5414SOL    HW218250   7.322   3.181   5.170  2.2373 -2.1011 -1.8631
 5415SOL     OW18251   9.826   6.516   5.585  0.3482  0.3080  0.3313
 5415SOL    HW118252   9.734   6.528   5.562 -0.6579 -1.7385  2.8645
 5415SOL    HW218253   9.827   6.441   5.644  3.2567  2.0580  2.7853
 5416SOL     OW18254   2.975   4.997   0.155 -0.4796 -0.7778  0.0898
 5416SOL    HW118255   2.960   4.950   0.073  0.9884  0.4327 -0.9233
 5416SOL    HW218256   2.905   5.062   0.159 -0.6537 -0.9518 -0.1144
 5417SOL     OW18257   8.018   7.545   6.894  0.1157  0.0701  0.0317
 5417SOL    HW118258   8.073   7.589   6.959 -1.6536  1.3315  0.7252
 5417SOL    HW218259   8.035   7.452   6.909  1.8411  0.3914  0.3898
 5418SOL     OW18260   1.866   6.864   3.797  1.1314 -0.2300  0.7503
 5418SOL    HW118261   1.949   6.879   3.750 -1.0655 -0.2706 -3.7266
 5418SOL    HW218262   1.859   6.769   3.805  1.3189 -0.2458  0.7191
 5419SOL     OW18263   8.158   4.445   6.680 -0.3108 -0.0792 -0.0033
 5419SOL    HW118264   8.149   4.536   6.653  1.3459  0.0347 -0.2829
 5419SOL    HW218265   8.223   4.408   6.620 -0.5229 -1.2800  0.4752
 5420SOL     OW18266   0.151   4.775   7.917 -0.5890  0.6536 -0.0487
 5420SOL    HW118267   0.177   4.857   7.874 -0.0037  0.6648  0.3267
 5420SOL    HW218268   0.230   4.722   7.918 -0.4952  0.7762  1.2973
 5421SOL     OW18269   8.008   7.869   4.678  0.0620 -0.1784 -0.7386
 5421SOL    HW118270   7.970   7.910   4.756  0.8778  1.5434 -1.1833
 5421SOL    HW218271   8.068   7.803   4.713  0.4458  0.5921  0.1163
 5422SOL     OW18272   0.389  10.071   9.087 -0.4795 -0.4286  0.1576
 5422SOL    HW118273   0.450  10.000   9.109  0.1006 -0.1297 -0.4634
 5422SOL    HW218274   0.434  10.122   9.020 -0.6929  0.8007  0.9155
 5423SOL     OW18275   8.710  10.750   7.680 -0.4814 -0.1537  0.3537
 5423SOL    HW118276   8.774  10.720   7.745 -1.7529 -1.3138  1.1131
 5423SOL    HW218277   8.676  10.832   7.717  0.6249  0.5382 -0.1166
 5424SOL     OW18278   0.118   2.521   9.934  0.3149  0.4995  0.2038
 5424SOL    HW118279   0.149   2.440   9.894  2.3329  0.7590  1.1591
 5424SOL    HW218280   0.044   2.494   9.989 -0.2304 -0.3732 -0.9184
 5425SOL     OW18281   0.836   1.600   4.739  0.5758  0.3426 -0.3115
 5425SOL    HW118282   0.884   1.520   4.719  0.8712  0.1555  1.0106
 5425SOL    HW218283   0.845   1.654   4.661  0.4660 -0.8643 -1.1866
 5426SOL     OW18284   8.337   2.544   5.240 -0.9972 -0.0334  0.6407
 5426SOL    HW118285   8.419   2.587   5.214 -0.0473 -2.6953 -1.2045
 5426SOL    HW218286   8.360   2.493   5.317 -1.0991 -0.2696  0.5142
 5427SOL     OW18287   3.890   0.370   7.700 -0.5172 -0.0714  0.3457
 5427SOL    HW118288   3.909   0.277   7.710 -0.8647 -0.2270 -0.3570
 5427SOL    HW218289   3.903   0.387   7.607  0.1780  0.7372  0.5780
 5428SOL     OW18290   8.266   8.403   8.868  0.4155 -0.3490 -0.9556
 5428SOL    HW118291   8.331   8.470   8.847  0.8072 -0.4681 -0.1357
 5428SOL    HW218292   8.288   8.374   8.956 -0.6216 -0.5407 -0.7439
 5429SOL     OW18293   8.754   6.669   9.275  0.4456 -0.2861 -0.3732
 5429SOL    HW118294   8.667   6.656   9.237  0.8310  0.9191 -1.7546
 5429SOL    HW218295   8.797   6.584   9.265 -0.3404 -0.7004 -0.3066
 5430SOL     OW18296   8.264   3.028   3.862 -0.0168 -0.5154 -0.2844
 5430SOL    HW118297   8.354   3.039   3.831  0.4879  0.4319  1.3633
 5430SOL    HW218298   8.211   3.079   3.800  1.1281  2.6370  1.0826
 5431SOL     OW18299   0.496   5.810   0.523 -0.2791 -0.2881 -0.2131
 5431SOL    HW118300   0.452   5.831   0.605 -1.1772 -0.6472 -0.5895
 5431SOL    HW218301   0.456   5.728   0.495 -0.4744  0.1739 -1.3445
 5432SOL     OW18302   0.856   5.235   1.568 -0.1516 -0.2196 -0.0774
 5432SOL    HW118303   0.889   5.145   1.574 -1.0118 -0.5291  0.2652
 5432SOL    HW218304   0.810   5.248   1.651  0.5882  0.8059  0.1972
 5433SOL     OW18305   6.283   1.658   1.944 -0.4948  0.2590  0.0104
 5433SOL    HW118306   6.246   1.745   1.959 -0.7715 -0.0211  1.0186
 5433SOL    HW218307   6.365   1.658   1.993 -0.5071 -0.0546  0.0347
 5434SOL     OW18308   4.192   0.945   3.132 -0.7458 -0.0883  0.0722
 5434SOL    HW118309   4.233   0.868   3.170  0.3238  1.3124  1.8668
 5434SOL    HW218310   4.236   0.956   3.048 -0.5927 -1.1342 -0.0060
 5435SOL     OW18311   4.584   5.459   5.861 -0.4421 -0.0985  0.0154
 5435SOL    HW118312   4.535   5.473   5.780 -1.8128  0.3351  0.8906
 5435SOL    HW218313   4.665   5.416   5.832 -0.3538  1.0875 -1.7061
 5436SOL     OW18314   2.011   1.739   2.615  0.3724  0.7192 -0.2533
 5436SOL    HW118315   2.023   1.784   2.531 -1.2532 -1.2908 -1.6852
 5436SOL    HW218316   2.100   1.730   2.650  1.2469  0.7923 -2.2579
 5437SOL     OW18317   1.090   4.206   3.309  0.3839 -0.6771 -0.4781
 5437SOL    HW118318   1.010   4.246   3.273 -0.4461 -1.1178  0.8163
 5437SOL    HW218319   1.066   4.115   3.325  1.4545 -1.0585 -0.9369
 5438SOL     OW18320   8.807   7.009   9.879  0.2915  0.1133 -0.0189
 5438SOL    HW118321   8.805   7.077   9.946 -2.8240 -0.3955  0.5781
 5438SOL    HW218322   8.807   7.056   9.796  0.1936  0.8167  0.3746
 5439SOL     OW18323   4.317   8.469   6.412  0.4106 -0.2819 -0.1264
 5439SOL    HW118324   4.297   8.462   6.319  1.6868 -1.1128 -0.3575
 5439SOL    HW218325   4.276   8.391   6.451 -0.8451  0.4941  0.1669
 5440SOL     OW18326   6.670   5.268  10.854  0.5197 -0.8677  0.0883
 5440SOL    HW118327   6.716   5.317  10.786  1.7657 -0.1732  1.3718
 5440SOL    HW218328   6.689   5.176  10.835  1.1290 -0.6645 -0.3154
 5441SOL     OW18329   6.541   5.089   6.396  0.3424 -0.1748 -0.3989
 5441SOL    HW118330   6.617   5.055   6.443 -0.3552 -0.8380  0.2655
 5441SOL    HW218331   6.567   5.087   6.304  1.0714 -0.5422 -0.1920
 5442SOL     OW18332   4.088   9.959  10.572  0.5179  0.0815 -0.1343
 5442SOL    HW118333   4.177   9.981  10.547  1.3998 -0.0324  2.5902
 5442SOL    HW218334   4.072  10.010  10.652 -0.7147 -2.1625  1.1556
 5443SOL     OW18335   9.429   2.014   6.198  0.6065 -0.4844 -0.3177
 5443SOL    HW118336   9.387   1.946   6.251 -0.1067 -0.3263 -0.6650
 5443SOL    HW218337   9.428   2.092   6.253  3.0485 -1.1330  0.8022
 5444SOL     OW18338   1.242   4.277   3.112  0.1528 -0.0505  0.0643
 5444SOL    HW118339   1.259   4.191   3.074  0.1614 -0.0080 -0.0279
 5444SOL    HW218340   1.181   4.260   3.183 -0.1018 -0.0908 -0.1630
 5445SOL     OW18341   4.064   8.398   5.859  0.3769 -0.2539 -0.0624
 5445SOL    HW118342   4.051   8.492   5.847  0.1788 -0.4589 -1.8245
 5445SOL    HW218343   4.087   8.366   5.771  1.1060 -1.7494  0.6311
 5446SOL     OW18344   3.103   5.039   1.005  0.0436 -0.0195 -0.1146
 5446SOL    HW118345   3.169   5.109   1.009  0.4494 -0.3704 -0.5847
 5446SOL    HW218346   3.149   4.961   1.034 -0.8722  0.2024  2.1252
 5447SOL     OW18347   9.217   1.018   3.589 -0.5146 -0.6151 -0.0400
 5447SOL    HW118348   9.167   1.039   3.511  0.1598  1.6440  0.0591
 5447SOL    HW218349   9.198   0.926   3.606 -4.2201 -0.0395 -0.2736
 5448SOL     OW18350   4.276   1.448   2.815  0.2205  0.7033 -0.0261
 5448SOL    HW118351   4.270   1.413   2.904  2.8984  2.7678  1.1116
 5448SOL    HW218352   4.220   1.526   2.816 -0.2982  0.3480 -0.4185
 5449SOL     OW18353   7.463   2.780   3.204  0.0133  0.1974 -0.1150
 5449SOL    HW118354   7.554   2.800   3.227 -0.3263  2.4337 -0.4846
 5449SOL    HW218355   7.443   2.839   3.132 -1.1431 -1.6867 -1.4183
 5450SOL     OW18356   6.502   5.476   4.856 -0.4217  0.5742  0.4732
 5450SOL    HW118357   6.437   5.478   4.926 -1.4247  0.0112 -0.4120
 5450SOL    HW218358   6.463   5.529   4.786 -0.6500 -1.0531 -0.6673
 5451SOL     OW18359  10.148   1.972  10.195 -0.0683 -0.1472  0.3650
 5451SOL    HW118360  10.209   1.995  10.126 -1.7793  0.7432 -0.9340
 5451SOL    HW218361  10.096   1.900  10.159 -2.0777  1.3972 -0.0387
 5452SOL     OW18362   8.905   0.516   3.491 -0.4558 -0.4613 -0.0580
 5452SOL    HW118363   8.828   0.525   3.434 -0.8075  1.0255  0.5889
 5452SOL    HW218364   8.949   0.601   3.484  1.4215 -1.4444 -0.7926
 5453SOL     OW18365   3.545   5.714   0.109 -0.0747  0.9971  0.6701
 5453SOL    HW118366   3.467   5.711   0.054 -0.8325 -0.6104  1.7554
 5453SOL    HW218367   3.515   5.684   0.195  1.0514  3.4572  2.0361
 5454SOL     OW18368   2.559   7.364  10.760 -0.2697  0.7951 -0.3119
 5454SOL    HW118369   2.586   7.439  10.707 -0.2425  0.8326 -0.2452
 5454SOL    HW218370   2.554   7.398  10.849 -0.8340  0.8629 -0.3653
 5455SOL     OW18371   0.415  11.033   3.545 -0.3060 -0.1446 -0.1511
 5455SOL    HW118372   0.486  11.092   3.571 -1.5597  1.5553 -0.4502
 5455SOL    HW218373   0.387  11.066   3.460 -1.4592 -0.8065 -0.0379
 5456SOL     OW18374   5.038   4.344   6.744 -0.3234 -0.0467 -0.0285
 5456SOL    HW118375   5.095   4.417   6.720 -0.8163 -0.2691 -2.0384
 5456SOL    HW218376   4.978   4.381   6.808  1.6414  0.3407  1.7013
 5457SOL     OW18377   6.783   3.394   0.462 -0.4845  0.1237 -0.2887
 5457SOL    HW118378   6.790   3.360   0.373  0.1785  1.6608 -0.8552
 5457SOL    HW218379   6.799   3.318   0.518  1.2381 -0.4627 -1.4899
 5458SOL     OW18380   3.412   7.560   7.202 -0.2111  0.8154  0.5003
 5458SOL    HW118381   3.445   7.502   7.132 -3.1350 -2.3350  1.4860
 5458SOL    HW218382   3.320   7.572   7.182 -0.7408  1.2596  2.9189
 5459SOL     OW18383   1.284   6.559   0.990 -0.6029  0.0150  0.3146
 5459SOL    HW118384   1.257   6.651   0.988 -0.9014 -0.0657  0.5378
 5459SOL    HW218385   1.218   6.516   1.045 -1.7970 -0.7519 -1.6193
 5460SOL     OW18386   9.200   8.938   2.117 -0.1811  0.3944 -0.2925
 5460SOL    HW118387   9.276   8.928   2.174 -0.1717  0.9908 -0.1868
 5460SOL    HW218388   9.150   9.010   2.155 -1.0480 -0.2863 -0.1045
 5461SOL     OW18389   4.845   6.898   3.579 -0.4277  0.3030 -0.1337
 5461SOL    HW118390   4.866   6.883   3.672  0.9491  2.4499 -0.0291
 5461SOL    HW218391   4.911   6.847   3.532 -1.0118 -0.6440  0.0544
 5462SOL     OW18392   8.893   6.587   0.458 -0.1798 -0.5389  0.1023
 5462SOL    HW118393   8.982   6.569   0.488 -0.4413 -0.6801  0.8110
 5462SOL    HW218394   8.846   6.505   0.473  0.0825 -1.1945 -2.3064
 5463SOL     OW18395   5.133   4.263   2.171 -0.5983  0.6691  0.0145
 5463SOL    HW118396   5.082   4.344   2.161 -0.8712  0.4608 -0.3177
 5463SOL    HW218397   5.223   4.293   2.186 -1.0456  1.0717  2.1664
 5464SOL     OW18398   5.576   2.706   4.995 -0.7312 -0.4595  0.3530
 5464SOL    HW118399   5.514   2.643   4.958 -0.5631 -0.8437  0.7134
 5464SOL    HW218400   5.522   2.772   5.037 -0.9078 -0.4181  0.0647
 5465SOL     OW18401   6.830   2.056   7.723  0.1084 -0.4399  0.1520
 5465SOL    HW118402   6.833   1.964   7.749 -3.7656 -0.7742 -0.0574
 5465SOL    HW218403   6.746   2.066   7.678  0.8641  2.9954 -0.7850
 5466SOL     OW18404   3.779   5.987   3.340 -0.4936  0.6798  0.1670
 5466SOL    HW118405   3.831   5.912   3.368 -1.2581  0.0105 -0.2016
 5466SOL    HW218406   3.694   5.974   3.381 -0.6348  1.3573  0.1057
 5467SOL     OW18407   4.705   4.370   4.733  0.0414 -0.3506 -0.0498
 5467SOL    HW118408   4.732   4.386   4.643  0.8839  1.0366  0.3994
 5467SOL    HW218409   4.767   4.422   4.785 -0.3623 -1.2020  1.3287
 5468SOL     OW18410   7.935   7.507   0.663 -0.3594  0.3159  0.0931
 5468SOL    HW118411   7.881   7.580   0.694 -3.1033 -0.4138 -2.5731
 5468SOL    HW218412   7.875   7.434   0.654  1.4397 -1.0903 -1.3161
 5469SOL     OW18413  10.236   1.418   2.800  0.3978  0.4433 -0.1879
 5469SOL    HW118414  10.166   1.431   2.736 -0.8901  1.7698  1.3859
 5469SOL    HW218415  10.225   1.328   2.831 -0.4495  0.5398 -0.1820
 5470SOL     OW18416   2.435   5.073   3.693 -0.0045 -0.2474 -1.0044
 5470SOL    HW118417   2.384   5.141   3.736  0.7789 -0.5062  0.3882
 5470SOL    HW218418   2.419   4.994   3.745  0.3742 -0.7536 -1.6385
 5471SOL     OW18419   5.508   4.650   4.412 -0.1049 -0.3380 -0.1462
 5471SOL    HW118420   5.427   4.700   4.424  1.1176  1.4433  1.2045
 5471SOL    HW218421   5.486   4.562   4.442 -1.2019  0.4550  1.5566
 5472SOL     OW18422   6.757   9.562   9.397 -0.9969 -0.2806  0.3626
 5472SOL    HW118423   6.839   9.609   9.407 -0.9534  1.2139 -4.3902
 5472SOL    HW218424   6.689   9.628   9.409 -1.1973 -0.2691 -0.6825
 5473SOL     OW18425   1.214   5.573  10.394 -0.0069 -0.6253 -0.5118
 5473SOL    HW118426   1.288   5.580  10.455  0.9726 -1.2057 -1.6070
 5473SOL    HW218427   1.156   5.510  10.435  0.0081 -0.0510  0.4400
 5474SOL     OW18428   5.621   1.629   3.608  0.1535  0.0953  0.0031
 5474SOL    HW118429   5.601   1.641   3.515  0.5438  0.7092 -0.0091
 5474SOL    HW218430   5.677   1.704   3.630 -0.6010  0.4139  0.9333
 5475SOL     OW18431   2.311   5.247   3.888 -0.5431  0.5913 -0.1585
 5475SOL    HW118432   2.219   5.264   3.907 -0.5538 -0.6205  1.0119
 5475SOL    HW218433   2.335   5.176   3.947  0.8303  0.0786 -1.2848
 5476SOL     OW18434  11.009   8.091   7.533 -0.5963  0.2464  1.0280
 5476SOL    HW118435  11.027   8.020   7.472 -2.4931 -0.9698  1.8140
 5476SOL    HW218436  11.078   8.155   7.516  1.0840 -1.6845  0.1648
 5477SOL     OW18437   9.665   0.438   2.199  0.0496 -0.4771  0.2692
 5477SOL    HW118438   9.737   0.438   2.136  0.5284  5.1864  0.3083
 5477SOL    HW218439   9.587   0.416   2.147  1.1856 -2.4512 -0.6950
 5478SOL     OW18440   0.206   5.619  10.259 -0.4612  0.7746 -0.1495
 5478SOL    HW118441   0.254   5.614  10.342 -0.2323  0.0699 -0.3164
 5478SOL    HW218442   0.274   5.637  10.193 -0.1802 -1.4931 -0.5699
 5479SOL     OW18443   8.185   0.154   8.925  0.2353 -0.2261 -0.2143
 5479SOL    HW118444   8.213   0.243   8.906 -0.7205  0.0408 -0.4673
 5479SOL    HW218445   8.203   0.105   8.844 -1.9179  0.4375 -1.1894
 5480SOL     OW18446   8.626   2.511   5.463 -0.3403 -0.0507 -0.0725
 5480SOL    HW118447   8.561   2.564   5.509 -0.8262 -1.7642  1.3105
 5480SOL    HW218448   8.707   2.526   5.511 -0.2045  0.3542 -0.4232
 5481SOL     OW18449  10.001   9.777   5.900 -0.5037  0.2373 -0.1614
 5481SOL    HW118450  10.014   9.814   5.813 -2.1663  1.0490 -0.1166
 5481SOL    HW218451  10.038   9.842   5.959 -0.4821  0.2744 -0.2156
 5482SOL     OW18452  10.091   0.401   5.803 -0.4656  0.1148  0.0030
 5482SOL    HW118453  10.009   0.450   5.808  0.1839  1.2097  0.3003
 5482SOL    HW218454  10.114   0.383   5.894 -1.1912 -1.6278 -0.1327
 5483SOL     OW18455   8.274   6.195   8.060 -0.2083 -0.1147 -0.2863
 5483SOL    HW118456   8.350   6.160   8.015  0.0421  0.2594 -0.1560
 5483SOL    HW218457   8.300   6.199   8.152  0.9889  3.4609 -0.6330
 5484SOL     OW18458   7.925   3.225   6.508 -0.3472 -0.2599 -0.2175
 5484SOL    HW118459   7.892   3.260   6.591 -0.2346 -1.1159  0.1899
 5484SOL    HW218460   7.872   3.148   6.491  0.5203 -0.8613 -0.2549
 5485SOL     OW18461  10.999   5.351   8.922  0.1693  0.1090  0.7252
 5485SOL    HW118462  11.025   5.322   9.009  1.4891 -0.6068  0.1187
 5485SOL    HW218463  10.943   5.281   8.889  0.9926 -0.4007  0.3845
 5486SOL     OW18464   1.131   3.806   2.742  0.1799  0.1494  0.1972
 5486SOL    HW118465   1.224   3.823   2.756  0.4547 -0.5188 -0.6886
 5486SOL    HW218466   1.116   3.722   2.786  0.3134 -0.3777 -0.7228
 5487SOL     OW18467   4.713   3.518   2.235 -0.2231 -0.3161 -0.6481
 5487SOL    HW118468   4.645   3.542   2.298  1.2871  1.3269  0.4583
 5487SOL    HW218469   4.774   3.465   2.285 -0.3009 -1.1793 -1.4409
 5488SOL     OW18470   2.162   8.252   1.682  0.2017 -0.4876 -0.3643
 5488SOL    HW118471   2.085   8.202   1.656 -0.4466  0.4466 -0.3240
 5488SOL    HW218472   2.156   8.333   1.630  1.5072 -0.6687 -0.8309
 5489SOL     OW18473   5.710  10.108   7.082 -0.7853 -0.7829 -0.8377
 5489SOL    HW118474   5.636  10.077   7.135 -0.6775  0.4937  0.1076
 5489SOL    HW218475   5.672  10.174   7.025 -0.3480  0.0926 -0.1422
 5490SOL     OW18476   8.116   1.610   3.621  0.3409 -0.8068 -0.7323
 5490SOL    HW118477   8.158   1.525   3.610 -0.4789 -1.2144 -0.8243
 5490SOL    HW218478   8.041   1.592   3.678  1.1928  0.1947  0.7493
 5491SOL     OW18479   5.419   6.240  10.212  0.1658  0.0712 -0.6520
 5491SOL    HW118480   5.370   6.233  10.130 -0.7160 -0.4284 -0.0926
 5491SOL    HW218481   5.416   6.334  10.233 -1.5809 -0.0789 -0.0352
 5492SOL     OW18482   8.070  10.718   0.598  0.6295  0.0895  0.1882
 5492SOL    HW118483   8.115  10.674   0.670 -0.4890 -1.2702  0.0981
 5492SOL    HW218484   8.139  10.741   0.537  1.5480  0.8299  1.4486
 5493SOL     OW18485   4.397   3.024  10.968 -0.8961  0.1199 -0.4838
 5493SOL    HW118486   4.350   2.991  10.892  1.7092 -1.4963 -1.4991
 5493SOL    HW218487   4.398   2.951  11.030  1.2159 -0.3485 -0.9902
 5494SOL     OW18488   4.837   6.332   6.989  0.0466  0.3146  0.4498
 5494SOL    HW118489   4.874   6.254   6.947  0.4571  0.8371 -0.1723
 5494SOL    HW218490   4.912   6.388   7.008 -0.3016  0.8417  0.3005
 5495SOL     OW18491   5.894   1.972   4.450 -0.0007  0.3436  0.2353
 5495SOL    HW118492   5.870   1.896   4.502 -1.5382  0.8180  0.2830
 5495SOL    HW218493   5.815   2.027   4.451  1.0286  1.8883  0.1282
 5496SOL     OW18494   3.353   7.372   6.882 -0.0836  0.1613 -0.0381
 5496SOL    HW118495   3.341   7.465   6.897 -2.6240 -0.3797  1.8381
 5496SOL    HW218496   3.404   7.342   6.957 -0.7647 -0.2288  0.2764
 5497SOL     OW18497   2.648   6.066   9.936  0.1763 -0.7230 -0.0823
 5497SOL    HW118498   2.635   5.972   9.927  0.7984 -0.8316  0.1171
 5497SOL    HW218499   2.722   6.086   9.877  0.4037 -0.4566  0.2902
 5498SOL     OW18500   7.388   3.549   9.635  0.8294 -0.0732 -0.2116
 5498SOL    HW118501   7.361   3.638   9.657 -2.3450 -0.2550 -2.6753
 5498SOL    HW218502   7.390   3.503   9.719 -1.9917  1.2564  0.6927
 5499SOL     OW18503   0.134   4.346   4.607 -0.4417  0.0837 -0.4108
 5499SOL    HW118504   0.225   4.363   4.583 -0.7371  0.2597 -1.4827
 5499SOL    HW218505   0.131   4.252   4.626  0.1694  0.2717  0.6727
 5500SOL     OW18506   7.184  10.053   2.438 -0.0166 -0.0082 -0.4463
 5500SOL    HW118507   7.118  10.117   2.463 -0.2829 -0.2833 -0.4393
 5500SOL    HW218508   7.268  10.099   2.447  0.0075 -0.3760  1.9460
 5501SOL     OW18509   9.055   6.278   3.068 -0.2438 -0.1553 -0.5285
 5501SOL    HW118510   9.102   6.199   3.093 -0.5320 -0.1334  0.1115
 5501SOL    HW218511   8.988   6.247   3.006  0.4925 -0.2047 -1.3261
 5502SOL     OW18512  10.096   4.171   5.291 -0.1588  0.0113 -0.1856
 5502SOL    HW118513  10.028   4.148   5.227 -1.0800 -0.6366  0.9966
 5502SOL    HW218514  10.097   4.267   5.290 -0.1875  0.0131 -1.1395
 5503SOL     OW18515   2.177  10.970   8.434 -0.2424  0.0865 -0.0716
 5503SOL    HW118516   2.101  11.024   8.411  0.1368 -0.0021 -1.6169
 5503SOL    HW218517   2.176  10.968   8.530 -0.9202  1.8998  0.0030
 5504SOL     OW18518   2.477   7.625   5.791 -0.3955 -0.1641  0.0764
 5504SOL    HW118519   2.521   7.645   5.709 -1.4444 -0.6806 -0.6439
 5504SOL    HW218520   2.533   7.662   5.859  1.9036 -2.0836 -0.6701
 5505SOL     OW18521   1.798   9.574   4.397  0.3733  1.1537  0.2262
 5505SOL    HW118522   1.807   9.664   4.430  0.7879  0.6886  1.3977
 5505SOL    HW218523   1.857   9.571   4.322  2.4983  1.0729  1.8366
 5506SOL     OW18524   4.124   1.529   0.669  0.3574  0.0682 -0.1536
 5506SOL    HW118525   4.037   1.565   0.654 -0.5499 -1.6119  0.7623
 5506SOL    HW218526   4.117   1.438   0.638  1.1029 -0.7447  1.8984
 5507SOL     OW18527   9.806   0.485   4.892  0.0126  0.0515  0.5670
 5507SOL    HW118528   9.733   0.526   4.846  0.3802 -0.2957 -0.3437
 5507SOL    HW218529   9.766   0.418   4.947 -0.4695  0.7470  1.0901
 5508SOL     OW18530   0.881   7.156   5.100  0.6242 -0.3921  0.2374
 5508SOL    HW118531   0.808   7.216   5.081  0.2681 -0.6305  0.8352
 5508SOL    HW218532   0.873   7.138   5.193  2.5238  1.0053  0.7413
 5509SOL     OW18533   7.671   1.395   8.050 -0.5741  0.1280 -0.3859
 5509SOL    HW118534   7.604   1.380   7.984 -1.1303  2.6250 -0.5018
 5509SOL    HW218535   7.743   1.437   8.003 -0.1857  0.1983  0.2542
 5510SOL     OW18536   7.120  10.355   6.913  0.4219 -0.6730 -0.2560
 5510SOL    HW118537   7.202  10.312   6.888 -0.7300 -2.7453 -0.6937
 5510SOL    HW218538   7.065  10.349   6.835 -0.1784  0.6861  0.0307
 5511SOL     OW18539   1.109   4.094   3.638 -0.1059  0.1531  0.3486
 5511SOL    HW118540   1.152   4.019   3.596 -3.4712 -1.5396 -0.4397
 5511SOL    HW218541   1.102   4.068   3.731 -0.5083 -0.1828  0.2319
 5512SOL     OW18542   4.863   2.279   0.620 -0.0151  0.0522 -0.5032
 5512SOL    HW118543   4.816   2.307   0.541  2.1407  1.4251 -1.3751
 5512SOL    HW218544   4.925   2.349   0.638 -0.2108 -0.3558  2.2955
 5513SOL     OW18545   5.743   0.614   4.183  0.4920 -0.0867  0.0904
 5513SOL    HW118546   5.685   0.687   4.205  0.0352 -0.5535  0.4740
 5513SOL    HW218547   5.786   0.591   4.266  0.6319 -0.2497 -0.0253
 5514SOL     OW18548   6.343   6.208   5.899  0.1277 -0.3122 -0.6679
 5514SOL    HW118549   6.314   6.118   5.884 -1.9627  0.0651  0.6763
 5514SOL    HW218550   6.418   6.199   5.959 -1.2691 -1.1407  1.0589
 5515SOL     OW18551   4.611   2.220   6.384 -0.2321 -0.5121  0.0131
 5515SOL    HW118552   4.619   2.241   6.477  1.0738 -0.8877  0.0093
 5515SOL    HW218553   4.601   2.124   6.383  1.0256 -0.6566 -0.2692
 5516SOL     OW18554   5.081   8.144   9.702 -0.4786 -0.3246  0.1176
 5516SOL    HW118555   5.159   8.195   9.722 -0.4600 -1.0809  2.2670
 5516SOL    HW218556   5.024   8.156   9.779 -2.2013 -0.3253 -1.1013
 5517SOL     OW18557   0.073   8.271   3.783 -0.1160  0.8082 -0.0963
 5517SOL    HW118558   0.001   8.321   3.823 -0.5778  1.3518 -1.5212
 5517SOL    HW218559   0.146   8.333   3.782  0.4345  0.2242  1.4393
 5518SOL     OW18560   1.646   5.401   4.806  0.0881 -0.2838  0.6319
 5518SOL    HW118561   1.728   5.371   4.766  0.8961  0.8743  1.3476
 5518SOL    HW218562   1.618   5.474   4.750 -0.2182 -0.3881  0.6458
 5519SOL     OW18563   7.813   7.430  10.693  0.1814  0.2917  0.0277
 5519SOL    HW118564   7.786   7.463  10.779 -0.4012  1.5651 -0.6288
 5519SOL    HW218565   7.790   7.337  10.696 -3.2516  1.0171 -0.0301
 5520SOL     OW18566   2.505   6.760   4.626  0.2373  0.1443  0.8772
 5520SOL    HW118567   2.506   6.692   4.693  1.6883  1.2326  2.0191
 5520SOL    HW218568   2.504   6.712   4.543 -0.1850 -1.2280  1.6469
 5521SOL     OW18569   4.567   0.738  10.989 -0.1115 -0.4188  0.8219
 5521SOL    HW118570   4.610   0.767  10.909  1.5261 -0.4839  1.6300
 5521SOL    HW218571   4.521   0.816  11.022  0.0067 -0.1364  0.3220
 5522SOL     OW18572   1.220   3.524   6.659  0.2866 -0.2716  0.6016
 5522SOL    HW118573   1.197   3.573   6.580 -0.8841 -2.6169 -0.6264
 5522SOL    HW218574   1.141   3.528   6.714 -1.0809 -3.1545 -0.8839
 5523SOL     OW18575   3.380   0.291   3.404  0.3443 -0.4831  0.4195
 5523SOL    HW118576   3.425   0.344   3.339 -0.0454  0.3478  0.8155
 5523SOL    HW218577   3.303   0.342   3.429  0.0764 -1.1293  0.9718
 5524SOL     OW18578   8.449   7.060   3.150  0.5181  0.0095 -0.0069
 5524SOL    HW118579   8.492   7.080   3.067 -0.1907  1.0202 -0.1417
 5524SOL    HW218580   8.513   7.006   3.197  1.4234  0.4474 -0.7069
 5525SOL     OW18581   1.200   9.402  10.788  0.3876 -0.0883  0.3126
 5525SOL    HW118582   1.202   9.481  10.733  1.2547 -0.4210 -0.1547
 5525SOL    HW218583   1.281   9.407  10.838  0.5520 -0.7944  0.1203
 5526SOL     OW18584   2.880   4.686   3.666  0.8751 -0.0621  0.5437
 5526SOL    HW118585   2.789   4.715   3.673  0.9954  1.5219 -2.7230
 5526SOL    HW218586   2.898   4.645   3.751 -2.1523  1.5560  2.1656
 5527SOL     OW18587   5.333   5.706  10.052  0.1325  0.0078  0.4339
 5527SOL    HW118588   5.423   5.725  10.079  0.7019  0.2693 -1.4964
 5527SOL    HW218589   5.318   5.763   9.976 -0.6469 -2.0607 -1.0565
 5528SOL     OW18590   2.252   2.351   8.530  0.1022 -0.0047 -0.3037
 5528SOL    HW118591   2.199   2.291   8.476  0.2566  0.0559 -0.5247
 5528SOL    HW218592   2.297   2.407   8.466 -0.5966  0.8280 -0.0830
 5529SOL     OW18593   5.348   2.100   8.231  0.2785 -0.4142  0.0384
 5529SOL    HW118594   5.361   2.083   8.138 -0.6996 -1.0456  0.0117
 5529SOL    HW218595   5.291   2.177   8.234 -1.7897 -1.8948  0.0643
 5530SOL     OW18596   3.735   4.840   1.980  1.0543 -0.1219  0.3157
 5530SOL    HW118597   3.674   4.767   1.968  1.9352 -0.9648  0.8312
 5530SOL    HW218598   3.715   4.901   1.909 -2.2827  0.9840  1.9991
 5531SOL     OW18599  10.873   3.263   1.163  0.0030 -0.2117  0.0581
 5531SOL    HW118600  10.809   3.246   1.232 -0.0219  1.3605  0.4515
 5531SOL    HW218601  10.950   3.295   1.209  0.4163 -0.3082 -0.5605
 5532SOL     OW18602   7.371   1.856   6.550  0.0043  0.3538  0.0541
 5532SOL    HW118603   7.413   1.844   6.465  1.5981  0.3732  0.8019
 5532SOL    HW218604   7.427   1.809   6.611 -0.3316  1.5292  1.3038
 5533SOL     OW18605   2.334   0.482   2.101  0.0110 -0.0525  0.2726
 5533SOL    HW118606   2.353   0.392   2.074  0.9998  0.5376 -1.1180
 5533SOL    HW218607   2.328   0.478   2.197 -1.8991 -1.9160  0.1284
 5534SOL     OW18608   4.526  10.278   5.328  0.2644  0.5135 -0.1961
 5534SOL    HW118609   4.565  10.211   5.271  1.5683  0.7284  0.3937
 5534SOL    HW218610   4.575  10.270   5.410  0.3381  2.0789 -0.0636
 5535SOL     OW18611   2.992   5.217   3.318 -0.4229  0.1740 -0.2918
 5535SOL    HW118612   3.003   5.242   3.410 -0.5515  0.3985 -0.3364
 5535SOL    HW218613   3.026   5.128   3.313 -1.1586 -0.1421  0.1539
 5536SOL     OW18614   8.170   2.794   2.705 -0.4730  0.0229 -0.7145
 5536SOL    HW118615   8.171   2.784   2.609  0.6618  0.2799 -0.7400
 5536SOL    HW218616   8.084   2.760   2.731 -0.1900 -1.5704 -1.6686
 5537SOL     OW18617   8.387   9.346   5.464  0.1192  0.2977  0.0931
 5537SOL    HW118618   8.293   9.360   5.480  0.0538  0.9149 -0.7709
 5537SOL    HW218619   8.394   9.339   5.368  1.3336  3.1715 -0.1092
 5538SOL     OW18620   1.989  10.709   9.905 -0.3992 -0.7054 -0.2907
 5538SOL    HW118621   2.018  10.679   9.991  0.8065 -1.6977 -1.0120
 5538SOL    HW218622   2.042  10.787   9.887  0.8114 -1.6526 -0.9640
 5539SOL     OW18623   8.097   8.879   9.193  0.1490  0.0422  0.1096
 5539SOL    HW118624   8.134   8.828   9.121 -0.2254 -0.3766  0.2111
 5539SOL    HW218625   8.043   8.817   9.242  0.5400  0.2799  0.8627
 5540SOL     OW18626   6.647   3.150   5.914 -0.0612 -0.0719  0.1765
 5540SOL    HW118627   6.692   3.065   5.913  1.6732  0.8054 -0.8096
 5540SOL    HW218628   6.645   3.177   5.823 -2.7540 -0.0702  0.1569
 5541SOL     OW18629  10.326   5.143   2.714 -0.1504 -0.6237 -0.1191
 5541SOL    HW118630  10.270   5.082   2.668 -0.6210  0.5276 -1.1291
 5541SOL    HW218631  10.367   5.091   2.783  0.0819 -2.2525 -1.4255
 5542SOL     OW18632   4.870   7.559   5.562 -0.3882  0.1972 -0.2051
 5542SOL    HW118633   4.836   7.512   5.486 -0.6849 -0.5475  0.3757
 5542SOL    HW218634   4.803   7.625   5.582 -0.4982  0.1241 -0.3367
 5543SOL     OW18635   6.370   9.250   5.803 -0.2965 -0.5201  0.3673
 5543SOL    HW118636   6.450   9.291   5.838 -0.8935 -0.5970  1.8462
 5543SOL    HW218637   6.389   9.156   5.805 -0.0761 -0.4932 -0.1845
 5544SOL     OW18638   6.408  10.337   3.242  0.2338 -0.0088  0.4870
 5544SOL    HW118639   6.423  10.331   3.148  1.8823 -0.1957  0.7273
 5544SOL    HW218640   6.314  10.352   3.251 -0.1042 -0.9413 -1.1438
 5545SOL     OW18641   1.810   7.587   6.214  0.0751  0.0164 -0.4805
 5545SOL    HW118642   1.853   7.654   6.266 -0.0974 -0.0463 -0.2571
 5545SOL    HW218643   1.861   7.508   6.230 -0.9508 -0.3852  0.8955
 5546SOL     OW18644   9.759   1.408   4.914  0.2309 -0.6436  0.4370
 5546SOL    HW118645   9.719   1.476   4.860 -0.3077  0.0913  1.7340
 5546SOL    HW218646   9.697   1.393   4.985  0.9218 -1.6012  0.8674
 5547SOL     OW18647   9.880   4.976   9.631 -0.1282 -0.5689  0.0362
 5547SOL    HW118648   9.855   4.973   9.538 -0.4980 -1.5150  0.1522
 5547SOL    HW218649   9.853   4.891   9.665  2.4701 -1.3679  0.3762
 5548SOL     OW18650   2.136   6.559   5.275 -0.3682  0.2659  0.0027
 5548SOL    HW118651   2.156   6.477   5.319  4.3544  0.8600 -0.5038
 5548SOL    HW218652   2.098   6.614   5.344 -0.0093 -1.1111  1.3642
 5549SOL     OW18653   7.888  10.757   2.835  0.0464 -0.1056 -0.4689
 5549SOL    HW118654   7.849  10.844   2.824  0.7284  0.3711  0.7148
 5549SOL    HW218655   7.814  10.697   2.827 -0.8489  0.7390  0.9566
 5550SOL     OW18656   5.672   0.374   1.380  0.0345 -0.5201  0.1242
 5550SOL    HW118657   5.754   0.421   1.362  0.9827 -1.6368  1.3509
 5550SOL    HW218658   5.604   0.439   1.365  1.1337  0.4592 -0.8869
 5551SOL     OW18659   8.071  10.304  11.011 -0.2237 -0.0230 -0.5796
 5551SOL    HW118660   8.128  10.237  10.972  0.6923 -0.3792  1.2652
 5551SOL    HW218661   7.999  10.312  10.949  0.6406 -1.2855 -1.8292
 5552SOL     OW18662   2.649   4.328   4.021  0.0871 -0.0110 -0.0361
 5552SOL    HW118663   2.639   4.354   3.929  0.5058 -1.8079 -0.6304
 5552SOL    HW218664   2.744   4.321   4.033  0.0168 -0.3105  0.3585
 5553SOL     OW18665   6.845   4.848   8.410 -0.0121 -0.1226 -0.6488
 5553SOL    HW118666   6.786   4.804   8.471  0.5828 -2.6532 -1.7678
 5553SOL    HW218667   6.897   4.906   8.466 -0.1809 -1.5664  1.1279
 5554SOL     OW18668   9.869   5.294   4.849  0.2636  0.0380  0.3566
 5554SOL    HW118669   9.781   5.327   4.866  0.7850  0.5390  2.3437
 5554SOL    HW218670   9.885   5.313   4.756 -1.4915  0.4099  0.0993
 5555SOL     OW18671   9.140   2.883   5.050 -0.1562  0.1709  0.4250
 5555SOL    HW118672   9.120   2.976   5.060 -0.0151  0.1164  1.3110
 5555SOL    HW218673   9.184   2.877   4.965  2.2391  1.3436  1.4596
 5556SOL     OW18674   6.928   8.313   6.867 -0.0333 -0.1720  0.0949
 5556SOL    HW118675   6.875   8.234   6.861  1.4887 -1.1241 -2.0183
 5556SOL    HW218676   6.885   8.376   6.809  0.8588 -0.8091 -1.3012
 5557SOL     OW18677   5.863   9.988   9.268  0.5049  0.2041  0.0903
 5557SOL    HW118678   5.877   9.900   9.233  1.5197  0.4814 -0.2439
 5557SOL    HW218679   5.949  10.031   9.260  0.1373  1.0752  0.6597
 5558SOL     OW18680   3.727   1.533   3.288  0.1746 -0.6855 -0.1721
 5558SOL    HW118681   3.751   1.518   3.379 -0.7586 -0.1270  0.1720
 5558SOL    HW218682   3.793   1.484   3.238  1.2975 -0.1755  0.7627
 5559SOL     OW18683   9.723   3.143   6.596 -0.2628 -0.8252  0.4308
 5559SOL    HW118684   9.697   3.060   6.637 -2.2265 -0.3432  0.2716
 5559SOL    HW218685   9.725   3.124   6.502  1.8918 -1.3129  0.5139
 5560SOL     OW18686   1.124   9.813   0.937 -0.5671  0.0845 -0.3339
 5560SOL    HW118687   1.095   9.903   0.923 -1.0856 -0.1366 -0.7283
 5560SOL    HW218688   1.149   9.783   0.850  0.1206  0.0226 -0.1153
 5561SOL     OW18689  10.067   9.475   8.286 -0.1863 -0.4452  0.6297
 5561SOL    HW118690  10.093   9.438   8.202 -0.4929 -3.3949  1.7342
 5561SOL    HW218691  10.149   9.491   8.332 -0.0731 -0.2801  0.3755
 5562SOL     OW18692   4.352  10.361   7.280  0.3786 -0.2291  0.2650
 5562SOL    HW118693   4.369  10.335   7.371 -0.4234  2.0096  1.1040
 5562SOL    HW218694   4.426  10.325   7.231  1.3874 -0.5759  1.9608
 5563SOL     OW18695   7.887  10.041   3.281  0.0120  0.2048  0.1201
 5563SOL    HW118696   7.917   9.965   3.231  1.2925  0.6878  0.1141
 5563SOL    HW218697   7.910  10.116   3.226 -0.6700  0.6312  0.4064
 5564SOL     OW18698   4.688   3.725   8.089  0.4657 -0.0760 -0.4899
 5564SOL    HW118699   4.653   3.639   8.116 -3.5701  1.4889 -0.0240
 5564SOL    HW218700   4.735   3.757   8.166  0.7291 -1.2405 -0.1483
 5565SOL     OW18701   8.283   5.837  10.514  0.1937  0.1612  0.0991
 5565SOL    HW118702   8.349   5.810  10.450  0.0489  0.8009 -0.3253
 5565SOL    HW218703   8.286   5.933  10.513  1.6576  0.2476  2.5590
 5566SOL     OW18704   7.857  10.494   8.200 -0.1815 -0.0686  0.1921
 5566SOL    HW118705   7.924  10.557   8.174 -1.1267  0.9534  0.1402
 5566SOL    HW218706   7.812  10.471   8.119  0.2711 -0.9489  0.1889
 5567SOL     OW18707   0.234  10.792   4.675 -0.3993 -0.0224 -0.3329
 5567SOL    HW118708   0.250  10.886   4.683  0.4434 -0.0753 -1.1687
 5567SOL    HW218709   0.187  10.768   4.755  1.2259  0.7134  0.8858
 5568SOL     OW18710   8.533   8.779   2.412  0.1710  0.5449 -0.4278
 5568SOL    HW118711   8.515   8.873   2.417  0.6824  0.6925 -1.2405
 5568SOL    HW218712   8.450   8.739   2.387 -0.7023  0.4933  2.2194
 5569SOL     OW18713   9.890   3.940   2.386  0.5891  0.5597  0.2928
 5569SOL    HW118714   9.847   3.893   2.458 -0.6862  0.3859 -0.5467
 5569SOL    HW218715   9.982   3.946   2.413  0.4530 -0.8795  1.2209
 5570SOL     OW18716  10.954   6.582   2.549  0.2486 -0.2932  0.4797
 5570SOL    HW118717  10.986   6.669   2.525 -1.9748  0.1534 -1.1862
 5570SOL    HW218718  11.023   6.523   2.520  0.3499  0.7275 -1.5323
 5571SOL     OW18719  10.578   8.734   7.349 -0.7347 -0.2357  0.2002
 5571SOL    HW118720  10.546   8.688   7.426 -0.5319  0.6109  0.8010
 5571SOL    HW218721  10.667   8.703   7.337 -1.0832 -1.0889 -0.2802
 5572SOL     OW18722   3.388   0.406  11.022 -0.3017 -0.1223 -0.1019
 5572SOL    HW118723   3.295   0.423  11.032 -0.1420 -0.1543  1.9615
 5572SOL    HW218724   3.420   0.477  10.967 -1.1540  1.3167  1.1713
 5573SOL     OW18725   0.144   8.076   8.784 -0.5175  0.1616 -0.0861
 5573SOL    HW118726   0.073   8.034   8.735 -0.8384 -0.2622  0.7151
 5573SOL    HW218727   0.189   8.130   8.719 -1.6779  0.5821 -0.5864
 5574SOL     OW18728   4.764   7.128   5.541 -0.5052 -0.2272 -0.3571
 5574SOL    HW118729   4.766   7.179   5.622 -0.0441  0.4414 -0.7782
 5574SOL    HW218730   4.686   7.157   5.495  0.4836  1.1639 -1.2444
 5575SOL     OW18731   0.613   3.463  10.492 -0.4707 -0.0464  0.0552
 5575SOL    HW118732   0.677   3.517  10.446  1.2616 -1.1111  1.1184
 5575SOL    HW218733   0.570   3.412  10.423  2.7130 -2.3017 -0.5032
 5576SOL     OW18734   0.472   1.936   7.762  0.2619 -0.1064 -0.2402
 5576SOL    HW118735   0.390   1.916   7.806 -0.6998  0.7679 -1.5887
 5576SOL    HW218736   0.532   1.867   7.791 -0.6447 -0.2287  1.4963
 5577SOL     OW18737   4.165   4.654   3.645 -0.4632  0.4252  1.0319
 5577SOL    HW118738   4.200   4.659   3.734  1.9678 -1.3785  0.2690
 5577SOL    HW218739   4.169   4.744   3.612  0.9554  0.7146  1.9259
 5578SOL     OW18740   9.845   3.450   2.572 -0.0902 -0.0279  0.4041
 5578SOL    HW118741   9.893   3.440   2.490 -0.5993 -0.5354  0.1610
 5578SOL    HW218742   9.837   3.545   2.583  1.2617  0.0807  0.6337
 5579SOL     OW18743   2.132   4.976   6.619  0.0822  0.6158  0.4689
 5579SOL    HW118744   2.221   4.956   6.589  0.7307  2.1968  1.2435
 5579SOL    HW218745   2.097   4.891   6.646  1.4045 -0.0174  0.2949
 5580SOL     OW18746   5.768   6.498   8.137  1.1773  0.1384  0.4127
 5580SOL    HW118747   5.744   6.566   8.199  0.9045  0.7568 -0.3605
 5580SOL    HW218748   5.693   6.491   8.078  2.2517  1.0794 -1.1404
 5581SOL     OW18749   8.663   9.911   9.679  0.1842  0.5582  0.4051
 5581SOL    HW118750   8.712   9.919   9.760  0.2806 -1.4953  0.5828
 5581SOL    HW218751   8.690   9.827   9.642 -0.6987  0.9302 -1.1930
 5582SOL     OW18752   2.311   7.737   8.869  0.0430 -0.3633  0.5816
 5582SOL    HW118753   2.281   7.712   8.956  1.0254  1.1862  1.4114
 5582SOL    HW218754   2.401   7.703   8.864  0.8972  1.6182  1.2000
 5583SOL     OW18755   3.634   1.849   9.724  0.8103 -0.3761  0.1883
 5583SOL    HW118756   3.653   1.777   9.783 -0.1199 -0.3847  0.4894
 5583SOL    HW218757   3.555   1.890   9.760 -1.5694 -2.1346 -2.5781
 5584SOL     OW18758   0.146  10.314   8.785  0.5498  0.1456  0.3320
 5584SOL    HW118759   0.133  10.408   8.800 -0.0624  0.0531  0.3881
 5584SOL    HW218760   0.062  10.274   8.806 -0.8009  0.0554 -4.2804
 5585SOL     OW18761   5.525   9.052   2.002  0.4551 -0.6961 -0.5985
 5585SOL    HW118762   5.492   9.125   2.054  1.3901  0.0558 -1.0024
 5585SOL    HW218763   5.535   9.089   1.914  1.9412 -0.9820 -0.5840
 5586SOL     OW18764   8.188   9.923   6.808  0.2718 -0.4625 -0.3802
 5586SOL    HW118765   8.141   9.841   6.793 -0.4214 -0.2102  0.3808
 5586SOL    HW218766   8.122   9.983   6.844  0.9709  0.1644 -0.1153
 5587SOL     OW18767  10.463   2.216   6.016 -0.0241 -0.3062 -0.1479
 5587SOL    HW118768  10.410   2.210   5.937  1.1833  0.0273 -1.0123
 5587SOL    HW218769  10.471   2.310   6.032 -0.1623 -0.3690  0.3124
 5588SOL     OW18770   2.413   3.700   4.971  0.5131  0.3616  0.0062
 5588SOL    HW118771   2.498   3.744   4.972  0.2458  0.9866 -1.6109
 5588SOL    HW218772   2.351   3.768   4.999  0.5697 -0.2177  1.6185
 5589SOL     OW18773  10.667   8.052   9.622 -0.3250 -0.6478 -0.5070
 5589SOL    HW118774  10.673   7.972   9.675 -0.5813 -0.5259 -0.2936
 5589SOL    HW218775  10.575   8.056   9.595 -0.2373 -0.6078 -0.8039
 5590SOL     OW18776   7.558   9.934   6.972  0.0418  0.3346  0.1060
 5590SOL    HW118777   7.618   9.983   7.028  0.7408 -0.5889  0.1877
 5590SOL    HW218778   7.479   9.925   7.024  1.1565 -1.7313  1.5864
 5591SOL     OW18779   2.038   2.979   7.948 -0.0313 -0.6525 -0.2608
 5591SOL    HW118780   1.946   2.957   7.962  0.2751 -1.4853  0.6047
 5591SOL    HW218781   2.082   2.949   8.027  1.0329 -0.5416 -0.7882
 5592SOL     OW18782   3.410   7.651   6.883 -0.0950  0.3671  0.1980
 5592SOL    HW118783   3.506   7.659   6.875 -0.0802 -0.4023 -0.4903
 5592SOL    HW218784   3.385   7.727   6.936  0.9725  0.2180  0.9704
 5593SOL     OW18785   9.126   5.954  10.083 -0.0701 -0.0187 -0.1099
 5593SOL    HW118786   9.193   5.965  10.016 -0.5440  0.4961 -0.5027
 5593SOL    HW218787   9.048   5.997  10.047 -0.6733 -0.7876  0.2512
 5594SOL     OW18788   7.828   4.757   9.222 -0.2034  0.2881 -0.1538
 5594SOL    HW118789   7.762   4.799   9.167  0.4380 -0.1676 -1.3083
 5594SOL    HW218790   7.885   4.712   9.160  1.1227  0.5640  0.8303
 5595SOL     OW18791   3.755   3.283   1.055  0.0315  0.0495  0.4385
 5595SOL    HW118792   3.791   3.268   0.967 -0.5467  0.7140  0.0742
 5595SOL    HW218793   3.710   3.201   1.076  0.0806 -0.0792  0.0654
 5596SOL     OW18794   0.361   1.778   0.139  0.2206  0.4720  0.4315
 5596SOL    HW118795   0.399   1.858   0.176  2.5517 -0.4602  0.2781
 5596SOL    HW218796   0.353   1.719   0.213 -2.1767  1.0040  0.6758
 5597SOL     OW18797   0.264   5.624   7.001  0.1136  0.0154 -0.2530
 5597SOL    HW118798   0.259   5.657   6.911 -0.9272  1.2209  0.2094
 5597SOL    HW218799   0.173   5.602   7.023  0.4094 -0.5847  0.3947
 5598SOL     OW18800   4.021  10.672   4.733  0.1401 -0.1934  0.1306
 5598SOL    HW118801   3.932  10.679   4.700  0.1945  0.3706  0.0937
 5598SOL    HW218802   4.022  10.590   4.783 -0.8559  0.5792  1.4880
 5599SOL     OW18803   7.347   0.666   8.195  0.2335 -0.3635  0.3311
 5599SOL    HW118804   7.436   0.642   8.219 -0.0381 -1.7642  0.0263
 5599SOL    HW218805   7.344   0.761   8.205  1.1433 -0.5032  2.3739
 5600SOL     OW18806  10.297   9.588   7.574 -0.4004  0.2113  0.4768
 5600SOL    HW118807  10.355   9.554   7.506 -1.6430 -0.7620 -0.1433
 5600SOL    HW218808  10.356   9.622   7.641  0.8790 -0.4905 -0.2546
 5601SOL     OW18809   0.093   2.806   9.917 -0.3796  0.4883  0.1657
 5601SOL    HW118810   0.130   2.791   9.830 -0.8675  2.2035 -0.3716
 5601SOL    HW218811   0.082   2.718   9.954  2.0768 -0.1822 -0.5257
 5602SOL     OW18812   7.066   0.460  10.970  0.2095 -0.8178 -0.2963
 5602SOL    HW118813   7.038   0.439  10.881 -0.7024 -0.1626 -0.1797
 5602SOL    HW218814   7.108   0.546  10.963 -1.3017  0.0135  0.1159
 5603SOL     OW18815   8.995   5.813   9.415  0.6875 -0.4707  0.0418
 5603SOL    HW118816   8.995   5.759   9.494 -0.3035  0.2333  0.5566
 5603SOL    HW218817   8.911   5.793   9.373  0.2781  0.6770  0.2713
 5604SOL     OW18818   2.862   9.558   4.764  0.4425 -0.3690 -0.7208
 5604SOL    HW118819   2.818   9.490   4.712 -0.4078 -0.4165  0.0465
 5604SOL    HW218820   2.909   9.510   4.832  2.0431 -0.3482 -1.7467
 5605SOL     OW18821   6.794   7.874   6.550  0.3908  0.2866  0.0503
 5605SOL    HW118822   6.772   7.930   6.476 -0.3819 -0.5761 -0.3821
 5605SOL    HW218823   6.713   7.868   6.601 -0.6540 -3.2065 -1.7419
 5606SOL     OW18824   0.220   2.057   4.916 -0.3584 -0.5446  0.2701
 5606SOL    HW118825   0.287   2.081   4.852 -0.7750  1.7841  0.6148
 5606SOL    HW218826   0.255   1.980   4.960  1.5104 -0.1536 -0.4445
 5607SOL     OW18827   3.771   8.355   0.067 -0.1226 -0.1711 -0.8100
 5607SOL    HW118828   3.817   8.271   0.069 -1.6871 -1.2022 -3.3286
 5607SOL    HW218829   3.707   8.349   0.138  0.3385 -0.7615 -0.4378
 5608SOL     OW18830  10.558   6.139  10.840 -0.3212  0.2731 -0.0854
 5608SOL    HW118831  10.576   6.048  10.819 -1.0150  0.4542 -1.6355
 5608SOL    HW218832  10.582   6.148  10.932  0.1625 -1.3547 -0.0228
 5609SOL     OW18833   2.243  10.501   8.738 -0.4864  0.2249  0.3608
 5609SOL    HW118834   2.311  10.524   8.801 -0.6950  1.4025  0.1719
 5609SOL    HW218835   2.279  10.526   8.653 -1.5127  1.7635  0.3473
 5610SOL     OW18836   5.750   6.844   1.539 -0.1356  0.3861  0.1747
 5610SOL    HW118837   5.748   6.748   1.540  0.1963  0.3477  2.2050
 5610SOL    HW218838   5.753   6.869   1.632  1.6189  2.3144 -0.3248
 5611SOL     OW18839  10.953   9.318   6.724  0.8609  0.0467 -0.4678
 5611SOL    HW118840  10.912   9.398   6.758 -1.1307 -0.5882 -1.1841
 5611SOL    HW218841  10.949   9.256   6.797  0.7442  0.0689 -0.4541
 5612SOL     OW18842   9.691   1.292  10.458  0.3576 -0.4581  0.3662
 5612SOL    HW118843   9.629   1.222  10.481  0.8723 -1.4854 -1.2254
 5612SOL    HW218844   9.773   1.246  10.443  0.3405  0.2205 -2.3361
 5613SOL     OW18845   6.893   1.895   4.762  0.0113  0.1997  0.5928
 5613SOL    HW118846   6.872   1.805   4.788 -1.1969  0.2761 -0.0605
 5613SOL    HW218847   6.893   1.943   4.845  1.6118 -0.5535  1.0657
 5614SOL     OW18848   1.610  10.461   0.554 -0.1843 -0.3700  0.0599
 5614SOL    HW118849   1.705  10.470   0.550 -0.1642 -0.0383  1.0134
 5614SOL    HW218850   1.576  10.547   0.531 -0.2611 -0.5138 -0.3712
 5615SOL     OW18851   1.700   2.098   9.979 -0.4172 -0.1131 -0.0154
 5615SOL    HW118852   1.605   2.101   9.965 -0.2411 -0.2585 -1.3920
 5615SOL    HW218853   1.711   2.044  10.057 -1.4164 -1.2115 -0.5955
 5616SOL     OW18854  10.870   4.724   1.360 -0.1826  0.4772 -0.7378
 5616SOL    HW118855  10.800   4.733   1.425  1.9446  0.4906  1.7115
 5616SOL    HW218856  10.870   4.631   1.337 -0.2432  0.2425  0.1705
 5617SOL     OW18857   6.771   4.818   0.004  0.1665  0.2836 -0.0180
 5617SOL    HW118858   6.840   4.844  -0.058  0.0896  0.1200 -0.1717
 5617SOL    HW218859   6.690   4.845  -0.039  0.1644  1.0360  0.4362
 5618SOL     OW18860   7.677   8.046   4.337  0.1466  0.3013 -0.2541
 5618SOL    HW118861   7.652   8.108   4.268 -0.5575  1.3256  0.8998
 5618SOL    HW218862   7.773   8.053   4.341 -0.0331  3.3659  1.6433
 5619SOL     OW18863   5.670   4.367   9.349 -0.0882 -0.8188 -0.3107
 5619SOL    HW118864   5.674   4.414   9.432 -1.1047 -0.0280 -0.6952
 5619SOL    HW218865   5.694   4.277   9.371 -0.5864 -0.6748  0.8759
 5620SOL     OW18866   5.305   9.385   2.251 -0.1863 -0.1137  0.6341
 5620SOL    HW118867   5.285   9.351   2.164 -3.2092 -2.3716  2.0090
 5620SOL    HW218868   5.356   9.316   2.293  0.5576  0.6059  0.9479
 5621SOL     OW18869   8.947   5.018   3.062 -0.2872 -0.7528 -0.5437
 5621SOL    HW118870   8.931   5.112   3.064  0.1203 -0.6888 -0.3326
 5621SOL    HW218871   8.959   4.997   2.969  3.1591 -0.0007 -0.3867
 5622SOL     OW18872   6.981   3.398   8.205  0.2062  0.0467 -0.2347
 5622SOL    HW118873   7.028   3.466   8.158  1.9422 -0.5436  0.5351
 5622SOL    HW218874   6.967   3.328   8.141  0.6027  0.1377 -0.4175
 5623SOL     OW18875   5.918   0.505   1.315 -0.1355 -0.0552 -0.7223
 5623SOL    HW118876   5.960   0.560   1.249 -1.3350  0.5981 -0.9758
 5623SOL    HW218877   5.991   0.464   1.362  0.7566  0.4284 -1.6404
 5624SOL     OW18878   2.336   3.036   9.657 -0.9022  0.3472  0.1413
 5624SOL    HW118879   2.374   2.976   9.722 -2.8872  0.0237  1.0651
 5624SOL    HW218880   2.323   3.118   9.704  0.4251  1.1026 -0.7229
 5625SOL     OW18881   7.665  10.978   0.755  0.4021 -0.5168  0.2650
 5625SOL    HW118882   7.675  11.015   0.668  1.1196 -0.0125  0.5537
 5625SOL    HW218883   7.571  10.963   0.764  0.3228 -0.6134 -0.6008
 5626SOL     OW18884   7.767   7.611   9.304  0.0157  0.4229 -0.4273
 5626SOL    HW118885   7.728   7.526   9.283  1.5365 -0.3958 -0.0870
 5626SOL    HW218886   7.798   7.601   9.394 -1.1923  1.8986  0.2002
 5627SOL     OW18887   0.446   9.536   3.929  0.3005 -0.4886 -0.2733
 5627SOL    HW118888   0.358   9.563   3.953  0.5215 -1.9941  2.7326
 5627SOL    HW218889   0.433   9.481   3.851 -1.2462  0.2243 -0.5627
 5628SOL     OW18890  10.793   0.963   6.954 -0.0070  0.6180  0.8976
 5628SOL    HW118891  10.834   1.036   6.907  0.2698  0.4367  0.8551
 5628SOL    HW218892  10.864   0.924   7.005 -0.3104  0.8266  1.4886
 5629SOL     OW18893   4.569   6.876   0.253  0.1317 -0.2299  0.4898
 5629SOL    HW118894   4.533   6.965   0.255 -1.0830 -0.6329 -1.1221
 5629SOL    HW218895   4.660   6.888   0.226  0.5215  0.6276  2.0613
 5630SOL     OW18896   8.077   1.882   1.253 -0.9243 -0.7530  1.1068
 5630SOL    HW118897   8.139   1.815   1.281 -0.5287 -0.9848 -0.2504
 5630SOL    HW218898   8.068   1.939   1.329  1.0830 -0.6128  1.2976
 5631SOL     OW18899   0.462   5.576   9.205  0.6041  0.0624  0.2285
 5631SOL    HW118900   0.527   5.630   9.251  0.3688  0.6509 -0.1187
 5631SOL    HW218901   0.513   5.503   9.169  0.8294 -0.2697  1.2024
 5632SOL     OW18902   1.470   5.573   4.143  0.2123  0.0278  0.5638
 5632SOL    HW118903   1.516   5.610   4.219 -0.2973  0.8482  0.4875
 5632SOL    HW218904   1.539   5.532   4.091  1.1827  2.6617 -0.4001
 5633SOL     OW18905   1.844   5.697   6.757  0.5040 -0.0562  0.3161
 5633SOL    HW118906   1.817   5.788   6.769 -0.3906 -0.2343 -0.3026
 5633SOL    HW218907   1.915   5.685   6.821  0.0755  0.8264  0.9808
 5634SOL     OW18908   9.768   9.511   7.524  0.3786  0.3146  0.2993
 5634SOL    HW118909   9.855   9.534   7.555 -1.2347  2.8832  3.4839
 5634SOL    HW218910   9.735   9.447   7.588 -0.1784 -0.4974 -0.7604
 5635SOL     OW18911   1.020   3.041   7.638  0.1320  0.2615 -0.3812
 5635SOL    HW118912   1.033   2.947   7.651  0.4131  0.0051 -2.2050
 5635SOL    HW218913   1.103   3.072   7.603 -0.2321  1.0359 -0.5711
 5636SOL     OW18914   9.448   5.357   6.180 -0.1762  0.0635  0.1992
 5636SOL    HW118915   9.535   5.350   6.141  0.6961  0.1650  2.0242
 5636SOL    HW218916   9.427   5.268   6.208 -0.2377  0.2002  0.5995
 5637SOL     OW18917   1.436   8.802   3.128  0.2734  0.0640  0.2578
 5637SOL    HW118918   1.355   8.811   3.178 -0.2366 -0.2634 -0.4999
 5637SOL    HW218919   1.445   8.886   3.082 -0.5265 -0.4972 -0.9569
 5638SOL     OW18920   0.148   1.756   9.807 -0.4050  0.0995  0.2001
 5638SOL    HW118921   0.235   1.758   9.846 -0.1839 -0.1486 -0.2755
 5638SOL    HW218922   0.162   1.729   9.717 -0.9174  0.6380 -0.0528
 5639SOL     OW18923   8.818  10.253   1.923 -0.3228  0.2480 -0.7463
 5639SOL    HW118924   8.841  10.161   1.914  0.6674  0.2879  0.9053
 5639SOL    HW218925   8.800  10.264   2.017 -1.5248  1.5063 -1.0906
 5640SOL     OW18926   7.448   3.450   6.908  0.0248  0.0281 -0.0850
 5640SOL    HW118927   7.467   3.365   6.868 -2.1100 -0.0200 -1.1369
 5640SOL    HW218928   7.406   3.428   6.991  3.6465  0.1344  1.9770
 5641SOL     OW18929   1.712   7.153   9.404  0.4361 -0.8486 -0.2853
 5641SOL    HW118930   1.746   7.176   9.317  0.1457 -2.5040 -0.8671
 5641SOL    HW218931   1.776   7.092   9.440  1.3562  0.9967  1.3563
 5642SOL     OW18932   6.322   9.491   2.779 -0.2067  0.2529 -0.4404
 5642SOL    HW118933   6.270   9.412   2.767  2.2079 -1.6859  0.9242
 5642SOL    HW218934   6.378   9.495   2.702 -0.0737  0.4322 -0.3359
 5643SOL     OW18935   9.167   8.587   2.341  0.5635  0.0817  0.5109
 5643SOL    HW118936   9.226   8.517   2.316 -0.4664 -0.5487 -0.2300
 5643SOL    HW218937   9.174   8.591   2.437  2.0052  0.2417  0.4263
 5644SOL     OW18938   4.890   8.529   9.056  0.5462  0.2296 -0.1128
 5644SOL    HW118939   4.911   8.514   8.963 -1.8344 -2.5880 -0.3636
 5644SOL    HW218940   4.823   8.597   9.054  0.1205 -0.1893 -0.5343
 5645SOL     OW18941  10.632  10.711   8.453  0.2252  0.0609  0.1297
 5645SOL    HW118942  10.654  10.642   8.516  0.8379  0.9307  0.8945
 5645SOL    HW218943  10.682  10.689   8.375  1.8640  0.6155  0.9902
 5646SOL     OW18944   7.425   0.348   1.499 -0.2490  0.7183 -0.0755
 5646SOL    HW118945   7.412   0.373   1.408 -1.6218 -0.2610 -0.1791
 5646SOL    HW218946   7.337   0.331   1.532  0.4261 -2.1763  0.4800
 5647SOL     OW18947   9.980   5.385   2.874  0.9291 -0.2505  0.0170
 5647SOL    HW118948   9.966   5.348   2.961  1.3940 -0.1247  0.1494
 5647SOL    HW218949   9.912   5.346   2.819  0.9086 -0.6661  0.3392
 5648SOL     OW18950   1.616   9.462   6.613  0.7813  0.1689 -0.1576
 5648SOL    HW118951   1.655   9.441   6.697  1.5117  0.6487 -0.3684
 5648SOL    HW218952   1.581   9.551   6.623  0.0311 -0.1297 -0.0735
 5649SOL     OW18953  10.817   5.864   4.976  0.0447 -0.0141  0.3862
 5649SOL    HW118954  10.792   5.939   4.923 -0.7748 -0.5862 -0.0620
 5649SOL    HW218955  10.733   5.829   5.008  0.3594 -1.1521 -0.0003
 5650SOL     OW18956   9.117   7.093   9.872  0.0215  0.0826 -0.3371
 5650SOL    HW118957   9.145   7.027   9.936 -1.6135 -1.7767 -1.3945
 5650SOL    HW218958   9.042   7.136   9.913 -1.3348 -1.4459 -1.1053
 5651SOL     OW18959  10.154   1.731   4.017 -0.3029 -0.0295 -0.4517
 5651SOL    HW118960  10.167   1.820   3.984 -0.2027  0.4889  0.9091
 5651SOL    HW218961  10.062   1.712   4.000 -0.0360 -0.1409 -1.8396
 5652SOL     OW18962   0.965   3.155   0.677  0.1847 -0.6081 -0.1316
 5652SOL    HW118963   0.927   3.084   0.730  1.4495 -1.0359  0.2342
 5652SOL    HW218964   1.058   3.132   0.670  0.2415  0.0089 -1.6490
 5653SOL     OW18965   1.026   0.004   3.994 -0.0923 -0.0138  0.7222
 5653SOL    HW118966   0.932   0.007   3.975 -0.0216 -1.3378  0.0320
 5653SOL    HW218967   1.036   0.056   4.073 -1.1513  1.5354 -0.1109
 5654SOL     OW18968   1.494   4.397   4.024  1.0330 -0.2149 -0.0332
 5654SOL    HW118969   1.558   4.400   4.095  1.0208  0.3821 -0.0431
 5654SOL    HW218970   1.442   4.319   4.042  0.7788  0.1393  0.8346
 5655SOL     OW18971   9.729   7.444   8.566 -0.2970 -0.0709  0.1180
 5655SOL    HW118972   9.796   7.417   8.503  0.8507  1.3948  0.6367
 5655SOL    HW218973   9.656   7.385   8.550  0.1573 -0.1252 -2.1956
 5656SOL     OW18974   6.286   7.553   9.548 -0.0701  0.0622 -0.4503
 5656SOL    HW118975   6.242   7.633   9.575 -0.0496 -0.4943  1.3868
 5656SOL    HW218976   6.219   7.484   9.558 -0.7451  0.0304 -3.9707
 5657SOL     OW18977   1.461   3.764   0.958  0.2033  0.1352 -0.0950
 5657SOL    HW118978   1.392   3.716   1.003 -1.0193  0.5552 -1.4501
 5657SOL    HW218979   1.489   3.706   0.887 -1.8051  1.6041 -2.2113
 5658SOL     OW18980   1.660   9.998   9.798  0.3823  0.2727 -0.2466
 5658SOL    HW118981   1.573  10.033   9.780 -0.3582 -0.8234  0.9887
 5658SOL    HW218982   1.700  10.064   9.856 -0.0721  0.2463  0.1088
 5659SOL     OW18983   4.630   3.716   7.536  0.1259  0.2393  0.2784
 5659SOL    HW118984   4.607   3.786   7.475  0.3200  0.7294  0.7611
 5659SOL    HW218985   4.698   3.754   7.591 -1.4048  0.4934  2.0877
 5660SOL     OW18986   2.431   6.517   1.314  0.0869  0.0855 -0.0546
 5660SOL    HW118987   2.502   6.479   1.263 -1.1090 -2.0259 -0.2913
 5660SOL    HW218988   2.472   6.544   1.396  1.4467  0.5062 -0.8496
 5661SOL     OW18989   6.564   0.405   3.903 -0.2584 -0.2249  0.2992
 5661SOL    HW118990   6.628   0.419   3.833 -0.1230 -0.5725  0.3500
 5661SOL    HW218991   6.479   0.414   3.860 -0.1908 -1.5315 -0.1642
 5662SOL     OW18992   7.725  10.705   4.434  0.3647  0.7844 -0.6756
 5662SOL    HW118993   7.632  10.691   4.417  0.1810 -0.1065  0.8436
 5662SOL    HW218994   7.752  10.768   4.368 -1.3750  1.2529 -1.0056
 5663SOL     OW18995   0.896   8.873   7.128  0.3902 -0.0819  0.1589
 5663SOL    HW118996   0.832   8.855   7.197 -0.1469 -0.7754 -0.4934
 5663SOL    HW218997   0.843   8.907   7.056  1.0635  1.5200  0.3990
 5664SOL     OW18998   7.321   8.633   6.373 -0.1353  0.0631  0.3236
 5664SOL    HW118999   7.273   8.578   6.434  0.2049  0.2978  0.8154
 5664SOL    HW219000   7.257   8.659   6.307 -0.5464 -0.0625  0.6732
 5665SOL     OW19001   9.199   1.581   3.334  0.1409 -0.0236  0.1358
 5665SOL    HW119002   9.201   1.654   3.272 -1.1780  1.5533  1.8325
 5665SOL    HW219003   9.106   1.557   3.339  0.2577 -0.3016  1.2530
 5666SOL     OW19004   5.056   2.449   6.086 -0.5326 -0.2608  0.1868
 5666SOL    HW119005   5.010   2.370   6.114  0.0317 -0.5256  0.3849
 5666SOL    HW219006   5.146   2.436   6.116 -0.3192  0.2284 -0.2333
 5667SOL     OW19007   2.816   6.772   9.467  0.2250  0.4314  0.5554
 5667SOL    HW119008   2.817   6.844   9.530 -1.1497  0.1453  0.9402
 5667SOL    HW219009   2.759   6.801   9.397 -0.3761 -0.2773  0.7312
 5668SOL     OW19010  10.535   1.311   6.417  0.0794  0.2626 -0.3234
 5668SOL    HW119011  10.486   1.332   6.338  1.1147 -1.0626 -1.3745
 5668SOL    HW219012  10.530   1.390   6.471 -1.3882  0.8822 -1.3043
 5669SOL     OW19013   7.470   9.325   4.085 -0.1341  0.3536 -0.4521
 5669SOL    HW119014   7.444   9.245   4.131  2.0668 -0.1765 -0.0370
 5669SOL    HW219015   7.433   9.315   3.997 -0.4536 -0.8132 -0.2006
 5670SOL     OW19016   8.864   7.879   5.586 -0.3912  0.4915  0.3928
 5670SOL    HW119017   8.917   7.814   5.540 -0.0826  0.7219  0.4183
 5670SOL    HW219018   8.775   7.845   5.580 -0.4976  0.9339 -1.1369
 5671SOL     OW19019   4.457   8.588   3.209 -0.3948 -0.3334 -0.3001
 5671SOL    HW119020   4.508   8.568   3.287  0.0538  0.7032 -0.3040
 5671SOL    HW219021   4.378   8.535   3.217 -1.2142  1.0907  1.8128
 5672SOL     OW19022   7.299   3.584   4.588 -0.2908 -0.0456 -0.1822
 5672SOL    HW119023   7.302   3.639   4.667  0.4837 -0.2683 -0.0477
 5672SOL    HW219024   7.368   3.519   4.602  1.0511  0.9505 -1.8021
 5673SOL     OW19025   2.137   5.436   5.046 -0.4830 -0.2864  0.1107
 5673SOL    HW119026   2.131   5.506   5.112 -1.6751 -2.3001  2.2719
 5673SOL    HW219027   2.060   5.450   4.991 -0.8580 -0.0283  0.6812
 5674SOL     OW19028   5.628   5.076   4.745  0.9031  0.8638 -1.1396
 5674SOL    HW119029   5.597   5.005   4.689  0.3816  2.0464 -2.3817
 5674SOL    HW219030   5.557   5.089   4.809  1.9819 -1.2668  0.6349
 5675SOL     OW19031   7.691   2.125  10.462 -0.4370 -0.5730  0.6157
 5675SOL    HW119032   7.780   2.151  10.437 -0.7484 -0.0836 -0.0097
 5675SOL    HW219033   7.675   2.172  10.544 -0.6129  0.4242  0.0237
 5676SOL     OW19034   2.220   1.209   5.492 -0.3023 -0.2201 -0.0071
 5676SOL    HW119035   2.187   1.298   5.486 -0.8792 -0.4786 -0.8569
 5676SOL    HW219036   2.147   1.160   5.531 -0.2370 -0.4468 -0.1702
 5677SOL     OW19037   6.152   4.038  10.171  0.0964 -0.2970 -0.1767
 5677SOL    HW119038   6.182   4.121  10.210  1.9282 -1.7376  1.6808
 5677SOL    HW219039   6.068   4.021  10.214 -1.0751  1.2586 -1.6837
 5678SOL     OW19040   9.736   9.453   2.785 -0.2255 -0.7133  0.3276
 5678SOL    HW119041   9.661   9.512   2.784 -0.4438 -0.9456  1.3122
 5678SOL    HW219042   9.781   9.474   2.867 -0.2389 -1.8022  0.6319
 5679SOL     OW19043   6.855   8.388   5.142  0.6728 -0.0928 -0.4504
 5679SOL    HW119044   6.862   8.339   5.224 -1.7665 -1.2427 -0.8503
 5679SOL    HW219045   6.866   8.480   5.168  3.1441 -0.6031  0.6302
 5680SOL     OW19046   5.017  10.253   1.968 -0.0121 -0.3559 -0.0548
 5680SOL    HW119047   5.078  10.197   1.921  1.4035 -2.0151  3.3948
 5680SOL    HW219048   5.061  10.337   1.975  1.0041 -0.9311  0.6422
 5681SOL     OW19049   4.652   6.578   9.363 -0.3561 -0.2128  0.1573
 5681SOL    HW119050   4.654   6.528   9.282 -0.2600 -1.0762  0.6756
 5681SOL    HW219051   4.734   6.627   9.364  0.6653 -1.8786  0.7538
 5682SOL     OW19052   4.383   9.410   0.428  0.7750  0.3624  0.0255
 5682SOL    HW119053   4.443   9.479   0.456  1.4543 -0.6036  1.0088
 5682SOL    HW219054   4.312   9.413   0.492  0.8889  0.0442  0.1684
 5683SOL     OW19055   3.280   3.854   7.446  0.2683  0.6160  0.3056
 5683SOL    HW119056   3.274   3.929   7.505  1.0565  0.8491  0.1030
 5683SOL    HW219057   3.374   3.842   7.431  0.1571 -0.3749  0.2821
 5684SOL     OW19058   8.749   7.225   4.792  0.1746  0.4194 -0.8380
 5684SOL    HW119059   8.784   7.139   4.813  0.9947  0.9911  0.2259
 5684SOL    HW219060   8.820   7.286   4.812 -0.6701  1.4119 -0.7749
 5685SOL     OW19061  10.016   6.622   7.571 -0.3949  0.1199 -0.0934
 5685SOL    HW119062  10.034   6.664   7.656 -2.3467 -0.9832  0.9302
 5685SOL    HW219063  10.093   6.643   7.518  0.8796  0.8890  1.9169
 5686SOL     OW19064   3.107   7.675   7.082 -0.5751 -0.5814 -0.4509
 5686SOL    HW119065   3.131   7.758   7.040 -0.5878 -0.7104 -0.7164
 5686SOL    HW219066   3.087   7.616   7.009  0.0990 -1.0228 -0.2911
 5687SOL     OW19067   8.836   1.651   6.590 -0.0591 -0.5792  0.7176
 5687SOL    HW119068   8.838   1.639   6.496 -1.1390  0.1866  0.5670
 5687SOL    HW219069   8.901   1.591   6.624  2.6125  1.3054 -0.7175
 5688SOL     OW19070   4.778   3.073   2.435  0.2883 -0.0812  0.3887
 5688SOL    HW119071   4.694   3.074   2.389 -0.2100 -1.4121  1.2416
 5688SOL    HW219072   4.812   3.162   2.422 -0.7718  0.1904 -0.8102
 5689SOL     OW19073   4.252   2.566   3.409  0.1278  0.5727 -0.8835
 5689SOL    HW119074   4.157   2.563   3.411  0.1578 -0.2845 -0.0072
 5689SOL    HW219075   4.275   2.638   3.468  0.0042  1.6099 -2.0782
 5690SOL     OW19076   0.793   5.996   9.042  0.0261  0.1274  0.3309
 5690SOL    HW119077   0.794   5.902   9.061  2.5362  0.3128  1.5986
 5690SOL    HW219078   0.714   6.009   8.989 -0.2418 -2.7223 -0.1505
 5691SOL     OW19079   6.015   1.443   1.474  0.2279 -0.1614 -1.0523
 5691SOL    HW119080   5.923   1.453   1.497 -0.0461 -0.2021 -2.0520
 5691SOL    HW219081   6.053   1.529   1.491 -0.2765  0.2166 -1.7888
 5692SOL     OW19082  10.501   1.931   1.795  0.5362  0.2045  0.0883
 5692SOL    HW119083  10.570   1.941   1.861  1.9169 -1.6320 -0.9843
 5692SOL    HW219084  10.453   1.853   1.822 -1.7093  1.8687  1.2347
 5693SOL     OW19085   1.326   1.112   2.766 -0.1139  0.0794  0.6339
 5693SOL    HW119086   1.277   1.038   2.730  1.7044 -0.1522 -1.5942
 5693SOL    HW219087   1.414   1.077   2.781  0.8794  1.8151 -0.7688
 5694SOL     OW19088   6.424   9.526   6.204  0.0981 -0.3190 -0.4956
 5694SOL    HW119089   6.448   9.442   6.164  0.0751 -0.9546  0.7983
 5694SOL    HW219090   6.507   9.562   6.235  0.0895  0.0788 -0.9288
 5695SOL     OW19091   4.506   9.654   6.554  0.1211  0.2396  0.3574
 5695SOL    HW119092   4.563   9.584   6.523 -1.0717 -0.3205 -0.6877
 5695SOL    HW219093   4.514   9.652   6.649 -0.6485 -2.0228  0.4349
 5696SOL     OW19094   2.668  10.525   4.169  0.2809  0.1185 -0.2841
 5696SOL    HW119095   2.752  10.554   4.133  0.9844  0.3468  1.4537
 5696SOL    HW219096   2.679  10.431   4.184  0.5735  0.3200  0.8142
 5697SOL     OW19097   0.622   2.739   4.469  0.1383  0.1413  0.1686
 5697SOL    HW119098   0.561   2.797   4.514 -0.0244  0.7366 -0.7953
 5697SOL    HW219099   0.684   2.797   4.426  2.0388 -0.4536  1.9325
 5698SOL     OW19100   9.192   0.743   4.687 -0.0375 -0.0574  0.0301
 5698SOL    HW119101   9.149   0.690   4.620  0.7076 -0.5050 -0.1117
 5698SOL    HW219102   9.201   0.829   4.648 -0.1530 -0.1541 -0.2114
 5699SOL     OW19103   0.105   7.873   7.107 -0.3045  0.4147 -0.2099
 5699SOL    HW119104   0.097   7.944   7.043  0.2308  0.1183 -0.6173
 5699SOL    HW219105   0.092   7.793   7.055  2.5787  0.0146 -0.4644
 5700SOL     OW19106   5.108   5.885   5.221 -0.0375  0.3860  0.7195
 5700SOL    HW119107   5.179   5.859   5.280 -2.3085 -2.6483  2.3736
 5700SOL    HW219108   5.098   5.811   5.161 -1.6701  0.8450  0.3869
 5701SOL     OW19109   0.404   9.852   3.088 -0.5947 -0.8131  0.0041
 5701SOL    HW119110   0.496   9.863   3.111 -0.6914 -1.0593  0.5416
 5701SOL    HW219111   0.404   9.816   3.000 -0.1799 -0.6767 -0.0507
 5702SOL     OW19112   3.783   9.462   1.349 -0.1934  0.0798 -0.0925
 5702SOL    HW119113   3.871   9.496   1.332  0.6545 -0.6164  2.4110
 5702SOL    HW219114   3.751   9.432   1.264  0.9880  2.5281 -1.5005
 5703SOL     OW19115   0.585   0.212   3.288  0.3815  0.1365 -0.3080
 5703SOL    HW119116   0.652   0.257   3.237  0.3245  1.0434  0.4062
 5703SOL    HW219117   0.627   0.195   3.372 -0.5911  1.6101  0.5060
 5704SOL     OW19118   2.768  10.296   2.617  0.2052 -0.0522 -0.5578
 5704SOL    HW119119   2.723  10.212   2.612  1.4270 -0.9184  1.5296
 5704SOL    HW219120   2.734  10.338   2.697  2.6749 -0.5817  0.8927
 5705SOL     OW19121   1.753   2.464   5.553 -0.0772 -0.5355  0.2050
 5705SOL    HW119122   1.836   2.468   5.601 -0.7697 -1.2163  1.5090
 5705SOL    HW219123   1.777   2.430   5.467  1.0568 -0.2650  0.3940
 5706SOL     OW19124   2.136   8.970  10.350  0.3704 -0.3358  0.0821
 5706SOL    HW119125   2.215   9.021  10.332 -0.2614  1.5964  2.2498
 5706SOL    HW219126   2.167   8.892  10.396  1.1508 -0.4892 -0.6970
 5707SOL     OW19127   5.338   6.878   0.010  0.0506  0.5554  0.2538
 5707SOL    HW119128   5.305   6.793   0.037 -1.5127  0.9063 -0.4455
 5707SOL    HW219129   5.363   6.921   0.092  0.8412 -0.5517  0.6104
 5708SOL     OW19130   4.512   9.656   9.016 -0.7070 -0.0525  0.0450
 5708SOL    HW119131   4.444   9.625   9.076 -0.0011 -0.2825  0.7432
 5708SOL    HW219132   4.476   9.737   8.978 -0.6708  0.7916  1.7237
 5709SOL     OW19133   2.215   5.667   2.780  0.3452  0.5711 -0.0642
 5709SOL    HW119134   2.197   5.761   2.777 -0.4630  0.5126  1.6624
 5709SOL    HW219135   2.307   5.660   2.755  0.4219  1.8284 -0.2223
 5710SOL     OW19136   9.832   4.330   7.791  0.0976  0.3342  0.6020
 5710SOL    HW119137   9.847   4.285   7.708  1.8770  0.3310  0.8829
 5710SOL    HW219138   9.805   4.418   7.767 -0.0167  0.1431  0.0272
 5711SOL     OW19139   6.815   1.867   0.956 -0.2809 -0.3375  0.2181
 5711SOL    HW119140   6.837   1.801   1.022 -0.1931 -1.3960 -0.8436
 5711SOL    HW219141   6.899   1.907   0.933 -0.2147 -0.4583  0.2475
 5712SOL     OW19142   8.051   2.137   5.230  0.0620 -0.0224  0.3609
 5712SOL    HW119143   8.022   2.107   5.316  0.1341  0.5673  0.5986
 5712SOL    HW219144   8.044   2.060   5.173  1.1101 -0.7167  1.1510
 5713SOL     OW19145   3.957   2.346   3.574 -0.2783  0.4186 -0.2896
 5713SOL    HW119146   3.883   2.332   3.633 -0.0672 -1.9345 -0.4543
 5713SOL    HW219147   4.031   2.361   3.633 -0.7418  2.2648 -0.1146
 5714SOL     OW19148   2.432   3.361   9.011 -0.5519  0.3444 -0.7563
 5714SOL    HW119149   2.353   3.307   9.005 -0.8315  0.6253  0.1753
 5714SOL    HW219150   2.434   3.390   9.103  2.5488 -2.5733  0.3002
 5715SOL     OW19151   6.177   1.611   9.667  0.0607  0.3089  0.2967
 5715SOL    HW119152   6.224   1.534   9.700  0.9554  1.3733  1.6168
 5715SOL    HW219153   6.227   1.686   9.701 -0.1190  1.4971 -1.8925
 5716SOL     OW19154   9.488   6.350  10.587 -0.4337 -0.9620  0.2724
 5716SOL    HW119155   9.506   6.256  10.596 -0.1313 -0.9632 -0.3202
 5716SOL    HW219156   9.460   6.361  10.496  1.3934 -0.1881 -0.2417
 5717SOL     OW19157   1.199   4.622   2.866 -0.3402  0.2031 -0.6617
 5717SOL    HW119158   1.293   4.611   2.852 -0.2456  0.5209 -0.2892
 5717SOL    HW219159   1.164   4.646   2.780  0.1572  1.6701 -0.4773
 5718SOL     OW19160   6.357   6.302   9.841  0.2978 -0.4382 -0.4587
 5718SOL    HW119161   6.324   6.212   9.843 -0.4161 -0.1954 -0.8128
 5718SOL    HW219162   6.293   6.350   9.787  2.0818 -0.2813 -2.5593
 5719SOL     OW19163   8.753   6.929   9.162 -0.1100  0.1146  0.0745
 5719SOL    HW119164   8.802   6.991   9.215  0.5820 -0.9138  0.6490
 5719SOL    HW219165   8.745   6.851   9.216  3.4024 -2.2328 -2.3411
 5720SOL     OW19166   3.778  10.995   6.834  0.0386 -0.3958  0.1185
 5720SOL    HW119167   3.846  11.035   6.778  0.0988  0.4424  0.7720
 5720SOL    HW219168   3.698  11.041   6.809 -0.3587 -1.5396 -0.8101
 5721SOL     OW19169   9.033   8.048   9.968  0.3906 -0.8137  0.4338
 5721SOL    HW119170   9.064   8.010   9.885 -0.3223  0.7192 -0.5909
 5721SOL    HW219171   8.941   8.069   9.951  0.3423 -0.1066  1.4868
 5722SOL     OW19172   3.120   9.377   1.996 -0.3398  0.0035 -0.1990
 5722SOL    HW119173   3.042   9.432   2.000 -0.6761 -0.4528 -0.3148
 5722SOL    HW219174   3.115   9.336   1.909  0.4401  0.5568 -0.5121
 5723SOL     OW19175   0.667   9.648   6.829  0.1198  0.1820 -0.1404
 5723SOL    HW119176   0.614   9.692   6.762 -0.8790 -1.3094 -0.3853
 5723SOL    HW219177   0.748   9.699   6.833 -1.0123  2.0976 -0.3053
 5724SOL     OW19178   6.488   1.779   2.218 -0.1100  0.1990  0.4491
 5724SOL    HW119179   6.553   1.819   2.160  0.0032  0.5392  0.8050
 5724SOL    HW219180   6.420   1.846   2.229 -1.0195 -0.4962 -0.6937
 5725SOL     OW19181   2.871   2.773   0.876 -0.4364 -0.4556  0.1913
 5725SOL    HW119182   2.900   2.732   0.794 -1.3733 -2.4140  0.7790
 5725SOL    HW219183   2.807   2.839   0.848  0.2209 -0.1824 -0.7134
 5726SOL     OW19184   2.611   7.693   8.141 -0.9594 -0.3238  0.2639
 5726SOL    HW119185   2.621   7.780   8.181 -1.9550 -0.2797  0.4425
 5726SOL    HW219186   2.523   7.694   8.103 -1.6464 -1.8007  1.6716
 5727SOL     OW19187   7.803   5.364   9.483  0.1521 -0.1054 -0.9556
 5727SOL    HW119188   7.870   5.346   9.417  0.2134  0.2866 -1.0034
 5727SOL    HW219189   7.731   5.306   9.461 -0.1489  0.5945 -1.8597
 5728SOL     OW19190   8.103   3.736   5.579  0.7193  0.4980 -0.2127
 5728SOL    HW119191   8.012   3.767   5.582  0.4630 -0.1669 -0.9525
 5728SOL    HW219192   8.099   3.654   5.530  1.5904 -0.0200  0.5545
 5729SOL     OW19193   3.653  10.321   7.677  0.4721  1.0261 -0.5621
 5729SOL    HW119194   3.718  10.264   7.719  0.2749  1.8613  0.9662
 5729SOL    HW219195   3.706  10.388   7.633  0.6924  1.6490  0.5953
 5730SOL     OW19196   2.332   6.992  10.761 -0.4268 -0.3938  0.0663
 5730SOL    HW119197   2.285   7.072  10.782 -0.7982 -0.1634 -1.5265
 5730SOL    HW219198   2.264   6.930  10.735  0.0065 -0.6193 -0.5457
 5731SOL     OW19199   0.764   3.414   5.901 -0.1391 -0.3852 -0.0261
 5731SOL    HW119200   0.681   3.427   5.947 -1.1237 -0.2898 -1.7212
 5731SOL    HW219201   0.771   3.490   5.842  1.5438 -0.0059  0.6207
 5732SOL     OW19202   6.817   8.087   1.462  0.1928  0.4522 -0.3423
 5732SOL    HW119203   6.821   8.164   1.519  0.6311  0.6402 -0.6241
 5732SOL    HW219204   6.886   8.101   1.397 -0.8573  0.6480 -1.4447
 5733SOL     OW19205   3.019   5.289   9.391 -0.1479 -0.0596  0.0552
 5733SOL    HW119206   3.089   5.349   9.417  0.4358 -0.5813 -0.2978
 5733SOL    HW219207   2.958   5.290   9.465  2.0744 -2.4609  2.0932
 5734SOL     OW19208   9.482   5.569   7.885 -0.0789 -0.5528  0.2705
 5734SOL    HW119209   9.395   5.548   7.919  1.0337 -0.7446  3.2246
 5734SOL    HW219210   9.500   5.657   7.917  0.4504 -0.0906 -1.2060
 5735SOL     OW19211   4.986   9.548   0.716  0.0765 -0.3174 -0.6203
 5735SOL    HW119212   5.068   9.559   0.668 -0.7764 -0.3705 -2.1839
 5735SOL    HW219213   4.936   9.487   0.662 -2.1007  1.8769 -1.2440
 5736SOL     OW19214   9.953   2.785   4.951  0.1394  0.0901  0.5777
 5736SOL    HW119215   9.993   2.722   4.892 -0.1528  0.5609 -0.1361
 5736SOL    HW219216   9.879   2.737   4.990 -1.2009  0.4990 -1.3245
 5737SOL     OW19217   0.671   7.192   9.333  0.0368  0.3781  0.2174
 5737SOL    HW119218   0.739   7.253   9.362  1.5247 -0.1991 -1.8829
 5737SOL    HW219219   0.639   7.230   9.251 -0.8591 -0.3505  0.2211
 5738SOL     OW19220   8.508   8.193   9.799 -0.4528 -0.1902 -0.3052
 5738SOL    HW119221   8.452   8.186   9.722  0.9850 -0.3445 -1.3935
 5738SOL    HW219222   8.478   8.125   9.858 -1.5208 -0.1328 -0.7685
 5739SOL     OW19223   7.654   8.089   3.426  0.8551  0.2538  0.2908
 5739SOL    HW119224   7.606   8.086   3.509  1.8046 -2.7485  0.8879
 5739SOL    HW219225   7.704   8.170   3.430 -0.2954  0.9578  1.9252
 5740SOL     OW19226   2.513   4.535   0.930 -0.0934  0.1374  0.4071
 5740SOL    HW119227   2.546   4.584   1.006  0.8631 -1.0441  0.8038
 5740SOL    HW219228   2.488   4.450   0.967 -0.2016 -0.2332 -0.5074
 5741SOL     OW19229  10.559   0.054   1.951  0.0334 -0.1776 -0.5992
 5741SOL    HW119230  10.631   0.054   2.013  0.0925 -1.4631 -0.6335
 5741SOL    HW219231  10.599   0.080   1.868  0.1615  0.5163 -0.3256
 5742SOL     OW19232   6.893   2.980   1.448  0.3937 -0.1125  0.0609
 5742SOL    HW119233   6.827   2.955   1.384  0.6072 -0.3835 -0.0537
 5742SOL    HW219234   6.935   2.898   1.473 -0.1692 -0.0998  1.0874
 5743SOL     OW19235   0.854   5.993   1.520 -0.1425 -0.5845 -0.7226
 5743SOL    HW119236   0.950   5.998   1.526 -0.1971 -1.1795  1.3236
 5743SOL    HW219237   0.828   6.080   1.488  0.8495  1.2480  2.9023
 5744SOL     OW19238   7.143   4.507  10.250  0.1194  0.8212 -1.0388
 5744SOL    HW119239   7.074   4.534  10.189 -2.1638  0.1889  1.1019
 5744SOL    HW219240   7.134   4.412  10.257  0.8641  0.7925 -0.2798
 5745SOL     OW19241   8.842   0.992   0.537  0.1988 -0.3979  0.8326
 5745SOL    HW119242   8.799   1.077   0.551  1.4428  0.6331 -1.1597
 5745SOL    HW219243   8.850   0.955   0.624 -4.0364 -0.3838  1.4592
 5746SOL     OW19244   0.529   5.245   0.123  0.1707 -0.3007 -0.1530
 5746SOL    HW119245   0.558   5.163   0.163 -1.2129 -0.2870  0.9863
 5746SOL    HW219246   0.445   5.223   0.083 -0.1141  0.4992 -0.0212
 5747SOL     OW19247   0.981   1.005   3.375 -0.3248 -0.1992  0.5869
 5747SOL    HW119248   0.908   1.048   3.331 -0.4357 -0.0952  0.8666
 5747SOL    HW219249   0.971   1.030   3.467  0.3378  0.2040  0.5526
 5748SOL     OW19250   9.526   1.365   1.612  0.2371  0.2266 -0.6688
 5748SOL    HW119251   9.484   1.283   1.637  0.2867  0.7533  1.3045
 5748SOL    HW219252   9.596   1.376   1.677  0.9366  1.2843 -1.5707
 5749SOL     OW19253   2.082  10.190   2.904 -0.1232  0.3164  0.0987
 5749SOL    HW119254   2.027  10.112   2.912  1.0943 -0.7341 -1.1526
 5749SOL    HW219255   2.163  10.168   2.951  0.4711  0.5722 -0.7779
 5750SOL     OW19256  10.507   6.172   6.198 -0.0456 -0.1930 -0.0637
 5750SOL    HW119257  10.427   6.218   6.173 -0.6252  0.6458  2.9239
 5750SOL    HW219258  10.575   6.239   6.197 -0.5391  0.4581  2.5695
 5751SOL     OW19259  10.893   5.474   5.449 -0.0297 -0.0157  0.0818
 5751SOL    HW119260  10.897   5.564   5.481  3.6295 -0.4028  1.1461
 5751SOL    HW219261  10.868   5.482   5.357  2.6884  2.4120 -0.5875
 5752SOL     OW19262   9.361   6.776   6.284 -0.1676 -0.1508 -0.3981
 5752SOL    HW119263   9.318   6.840   6.342 -1.5305 -0.6443 -0.8161
 5752SOL    HW219264   9.422   6.730   6.341 -2.1756 -1.3162  0.9767
 5753SOL     OW19265   1.903   8.262   4.380 -0.9364 -0.1455  0.0638
 5753SOL    HW119266   1.870   8.297   4.298  1.3247 -1.0014 -1.3230
 5753SOL    HW219267   1.903   8.167   4.368 -2.1471 -0.4150  1.7580
 5754SOL     OW19268  10.611   3.100   0.416  0.7371 -0.0795 -0.6399
 5754SOL    HW119269  10.683   3.083   0.356  1.8819  0.9896  0.4047
 5754SOL    HW219270  10.551   3.027   0.401  2.1195 -1.1125 -1.3791
 5755SOL     OW19271   1.159   3.615   0.607 -0.1100 -0.1541 -0.2192
 5755SOL    HW119272   1.082   3.659   0.571  0.2033  0.8056  0.2463
 5755SOL    HW219273   1.208   3.587   0.530  0.0926  1.0645 -0.5677
 5756SOL     OW19274   6.692   7.324   0.649 -0.5899  0.0205  0.0817
 5756SOL    HW119275   6.773   7.369   0.624  0.0300 -0.4662  1.1208
 5756SOL    HW219276   6.622   7.383   0.621  0.0714 -0.0010 -1.7298
 5757SOL     OW19277  11.021   5.701  10.059 -0.4829  0.0085 -0.1188
 5757SOL    HW119278  11.039   5.619  10.014  1.2979  0.8794 -1.1048
 5757SOL    HW219279  11.100   5.754  10.045 -1.0540  1.4061  1.5903
 5758SOL     OW19280   5.526  10.431   3.896  0.7441 -0.2305 -0.5984
 5758SOL    HW119281   5.531  10.384   3.979 -0.9017 -2.8709 -1.8667
 5758SOL    HW219282   5.486  10.515   3.918  1.3729 -0.4187  1.3977
 5759SOL     OW19283   0.460   0.437   5.452  0.5671 -0.2712  0.6407
 5759SOL    HW119284   0.469   0.399   5.539 -0.1554 -0.0076  0.8431
 5759SOL    HW219285   0.418   0.368   5.400  2.4274 -1.0240  0.0482
 5760SOL     OW19286   6.178   9.884   4.139  0.0951  0.5708 -0.2589
 5760SOL    HW119287   6.141   9.818   4.197 -0.1518  1.3814  0.5180
 5760SOL    HW219288   6.199   9.836   4.059 -0.8267 -0.2881 -0.0040
 5761SOL     OW19289   6.107   9.006   0.568 -0.1591  0.6651 -0.2617
 5761SOL    HW119290   6.044   9.010   0.496 -2.2400  1.3740  1.4625
 5761SOL    HW219291   6.056   8.975   0.643  1.6729  0.8670  1.1541
 5762SOL     OW19292   3.477   5.676   3.190  0.4561  0.7119  0.3895
 5762SOL    HW119293   3.544   5.710   3.130 -0.4004 -1.0465 -1.6945
 5762SOL    HW219294   3.445   5.596   3.148  0.5558 -1.3046  3.7585
 5763SOL     OW19295   3.877   5.595   5.848 -0.0528 -0.3408 -0.6572
 5763SOL    HW119296   3.942   5.664   5.860 -1.7683  1.1230  0.8015
 5763SOL    HW219297   3.858   5.596   5.754  1.0342  0.1216 -0.8843
 5764SOL     OW19298   5.749   0.683   6.311 -0.2840  0.9965 -0.1163
 5764SOL    HW119299   5.824   0.743   6.316  0.9924 -0.5081 -0.3803
 5764SOL    HW219300   5.766   0.619   6.380 -0.7257 -0.0206 -0.9410
 5765SOL     OW19301   1.677   4.811   9.396 -0.1296  0.0090  0.4447
 5765SOL    HW119302   1.618   4.817   9.321 -1.7142 -0.3683  1.6084
 5765SOL    HW219303   1.685   4.717   9.412  1.7845 -0.0111 -0.4161
 5766SOL     OW19304   1.242   0.776   1.127  0.2840 -0.8294 -0.0059
 5766SOL    HW119305   1.325   0.818   1.150  0.2279 -0.2066 -0.9327
 5766SOL    HW219306   1.266   0.709   1.063 -0.1534  0.8490 -2.0472
 5767SOL     OW19307   5.017  10.016   3.860  0.2774  0.1979  0.2829
 5767SOL    HW119308   4.960   9.944   3.887  0.2232 -0.1054 -0.5977
 5767SOL    HW219309   5.095   9.973   3.825  0.2615  0.5565 -0.2071
 5768SOL     OW19310   6.974   3.302   4.759 -0.1690 -0.0434  0.0348
 5768SOL    HW119311   7.048   3.243   4.742  0.2558  0.6217 -0.4664
 5768SOL    HW219312   6.914   3.250   4.812  0.4091 -0.7765 -0.0112
 5769SOL     OW19313   5.522   7.546   9.957 -0.1692  0.0194  0.1406
 5769SOL    HW119314   5.490   7.552   9.866  0.6081  1.0480 -0.0761
 5769SOL    HW219315   5.493   7.627   9.998  2.2424  1.0866 -0.1114
 5770SOL     OW19316   8.443   8.666   0.043  0.1832  0.4629 -0.1880
 5770SOL    HW119317   8.521   8.720   0.030 -0.8644  1.9493 -0.5889
 5770SOL    HW219318   8.390   8.681  -0.035 -0.7602 -0.0404  0.3388
 5771SOL     OW19319   3.294   5.415   6.942  0.4249 -0.0842 -0.1112
 5771SOL    HW119320   3.243   5.339   6.970  0.0442  0.4995  0.7971
 5771SOL    HW219321   3.252   5.443   6.860 -1.2372  0.8473  1.0066
 5772SOL     OW19322   3.055  10.769   0.429 -0.3269  0.3876 -0.0322
 5772SOL    HW119323   3.127  10.788   0.490 -1.7170 -0.3055  1.9088
 5772SOL    HW219324   3.099  10.740   0.349  1.5975  2.2919  0.2319
 5773SOL     OW19325  10.761   0.515   3.258 -0.1634  0.2326 -0.1085
 5773SOL    HW119326  10.710   0.510   3.338  0.4459 -1.4117  0.2139
 5773SOL    HW219327  10.837   0.568   3.282  0.2238 -0.5937  0.5419
 5774SOL     OW19328   9.486   7.942   7.462 -0.1346  0.2892 -0.2806
 5774SOL    HW119329   9.577   7.955   7.490  0.1429  0.1949 -1.1099
 5774SOL    HW219330   9.490   7.869   7.400 -1.1601 -1.4755  1.5896
 5775SOL     OW19331   8.835   4.449  10.271 -0.0852  0.0772  0.3912
 5775SOL    HW119332   8.847   4.491  10.186  0.1173  0.0917  0.4258
 5775SOL    HW219333   8.786   4.369  10.251 -1.9815  1.1464  0.5391
 5776SOL     OW19334   0.905   6.874  10.941  0.0685  0.1372  0.2110
 5776SOL    HW119335   0.950   6.790  10.926 -0.1669  0.0244  0.1223
 5776SOL    HW219336   0.948   6.935  10.882 -0.3270 -0.1237 -0.3630
 5777SOL     OW19337   8.394  10.514   9.448 -0.5494 -0.2204 -0.5882
 5777SOL    HW119338   8.303  10.507   9.476  0.0774 -0.9822  1.4135
 5777SOL    HW219339   8.439  10.556   9.521  0.7021  0.2319 -1.5812
 5778SOL     OW19340   2.360   0.863   7.273  0.2573  0.1442 -0.9373
 5778SOL    HW119341   2.386   0.779   7.234  2.3143  0.4417 -0.3105
 5778SOL    HW219342   2.441   0.912   7.281 -0.5838  1.3595  0.7270
 5779SOL     OW19343   3.162   8.597  10.399  0.1447 -0.3557 -0.0103
 5779SOL    HW119344   3.241   8.604  10.452  0.8419  0.3588 -1.1011
 5779SOL    HW219345   3.181   8.529  10.335 -0.9184 -1.6404  0.9795
 5780SOL     OW19346   4.376   3.890   0.653 -0.4848 -0.3132 -0.2761
 5780SOL    HW119347   4.331   3.950   0.712  1.0802  2.2568 -1.4797
 5780SOL    HW219348   4.464   3.882   0.690 -0.4729 -1.3911 -0.5014
 5781SOL     OW19349   2.636   7.678   9.238  0.1157  0.5591 -0.2743
 5781SOL    HW119350   2.578   7.616   9.282  0.8009 -0.7214 -1.0960
 5781SOL    HW219351   2.577   7.740   9.195 -0.5922  0.4701  0.5515
 5782SOL     OW19352   5.748   7.328   7.925 -0.0773  0.0826  0.3044
 5782SOL    HW119353   5.830   7.338   7.877  0.2643  1.0780  1.0618
 5782SOL    HW219354   5.681   7.366   7.868  0.1853  0.4071  0.2098
 5783SOL     OW19355   3.294   2.640   1.588  0.4930 -0.2357 -0.2108
 5783SOL    HW119356   3.386   2.627   1.565  0.3745 -0.9068 -0.3533
 5783SOL    HW219357   3.247   2.579   1.530  0.0149 -0.3675  0.3121
 5784SOL     OW19358   0.033   9.465   9.247  0.0125  0.7216  0.4287
 5784SOL    HW119359   0.090   9.388   9.248 -0.7026  0.1696  0.1289
 5784SOL    HW219360  -0.022   9.454   9.325 -1.8997 -0.5051 -1.0091
 5785SOL     OW19361   5.622   9.425   1.749 -0.1055  0.3134 -0.0210
 5785SOL    HW119362   5.578   9.393   1.670  0.1696 -0.3491  0.0858
 5785SOL    HW219363   5.636   9.518   1.733 -1.5595  0.5582 -0.0556
 5786SOL     OW19364   5.195   6.392   8.876 -0.5257  0.0716  0.2118
 5786SOL    HW119365   5.136   6.373   8.949  1.9056 -0.1467  2.2536
 5786SOL    HW219366   5.220   6.484   8.889 -1.0351  0.4322 -1.1562
 5787SOL     OW19367   6.845   7.891  10.983  0.3557  0.4598 -0.6990
 5787SOL    HW119368   6.868   7.983  10.994 -0.4547  0.5563  0.2757
 5787SOL    HW219369   6.758   7.883  11.023  1.8331 -1.4490  2.4622
 5788SOL     OW19370   1.885   2.201   9.584  0.4346  0.3123 -0.4176
 5788SOL    HW119371   1.934   2.278   9.614  0.3808  0.6283 -1.1177
 5788SOL    HW219372   1.813   2.238   9.533 -0.6389 -0.1365  0.7162
 5789SOL     OW19373   8.296   0.038   1.380 -0.2090 -0.1369  0.0637
 5789SOL    HW119374   8.280  -0.052   1.408  0.3562 -0.6196 -1.0654
 5789SOL    HW219375   8.314   0.086   1.461  0.7478 -1.3179  0.5922
 5790SOL     OW19376  10.157   1.454   0.524 -0.0439  0.1669 -0.1249
 5790SOL    HW119377  10.156   1.374   0.578 -0.8962 -0.0004 -0.3830
 5790SOL    HW219378  10.250   1.466   0.502  0.0487 -1.0229 -0.4766
 5791SOL     OW19379   5.568   3.228   2.806 -0.2466  0.0316 -0.3060
 5791SOL    HW119380   5.659   3.200   2.811 -0.2754  0.0245  0.3026
 5791SOL    HW219381   5.556   3.284   2.883 -0.5047  0.7844 -0.8744
 5792SOL     OW19382   2.340   5.958   1.660  0.1211  0.3442  0.2213
 5792SOL    HW119383   2.430   5.958   1.691 -0.4447 -0.0206  1.9874
 5792SOL    HW219384   2.340   5.897   1.586  1.2647  0.1437  0.3673
 5793SOL     OW19385   1.962   0.428   1.943 -0.1054  0.0235 -0.1401
 5793SOL    HW119386   1.875   0.412   1.980 -1.1709  3.0139 -1.1097
 5793SOL    HW219387   1.955   0.397   1.853 -0.0424 -0.0364 -0.1248
 5794SOL     OW19388   6.236   3.323   4.222 -0.5908  0.2170 -0.1642
 5794SOL    HW119389   6.160   3.276   4.256 -0.0224  0.5387  1.6892
 5794SOL    HW219390   6.311   3.265   4.241 -0.0563  1.1857  0.8187
 5795SOL     OW19391   2.832  10.034   2.116 -0.2626  0.3733  0.1346
 5795SOL    HW119392   2.909  10.081   2.084 -0.1741  0.6978  0.8151
 5795SOL    HW219393   2.759  10.095   2.104 -0.0674  0.9189  1.5073
 5796SOL     OW19394   7.333  10.665   1.247  0.1388 -0.2062  0.3480
 5796SOL    HW119395   7.403  10.602   1.229 -1.7881 -2.8637  1.4500
 5796SOL    HW219396   7.354  10.701   1.333  0.6086 -0.2971  0.2722
 5797SOL     OW19397   6.312   9.160   7.632  0.2679  0.1825  0.0375
 5797SOL    HW119398   6.388   9.105   7.650  0.3573  0.1334 -0.4813
 5797SOL    HW219399   6.282   9.187   7.719  1.7803  1.4454  0.2200
 5798SOL     OW19400   6.954   8.835   8.587 -0.0847 -0.5215 -0.2474
 5798SOL    HW119401   6.883   8.781   8.622 -2.2187  1.3951 -1.3700
 5798SOL    HW219402   6.991   8.879   8.664 -1.5151  0.0188  0.1519
 5799SOL     OW19403   6.692   7.390   6.335  0.2353  0.4256  0.1921
 5799SOL    HW119404   6.681   7.484   6.353 -0.5986  0.2870  0.4596
 5799SOL    HW219405   6.668   7.348   6.418  1.2446 -0.0012  0.2783
 5800SOL     OW19406  10.940   5.045   7.207  0.2747  0.3283  0.6535
 5800SOL    HW119407  10.924   5.093   7.288  0.0979  0.6528  0.4303
 5800SOL    HW219408  10.895   4.962   7.219  0.5559  0.2263  1.0323
 5801SOL     OW19409   4.021   2.368  10.864 -0.3752  0.1064 -0.0673
 5801SOL    HW119410   4.034   2.456  10.898 -1.0993  0.0839  0.2838
 5801SOL    HW219411   3.964   2.380  10.788 -1.3809 -0.1528  0.6240
 5802SOL     OW19412   4.291   2.861  10.741  0.4521 -0.4156 -0.5145
 5802SOL    HW119413   4.354   2.908  10.687  0.6354 -0.7911 -0.6243
 5802SOL    HW219414   4.299   2.770  10.715  0.7057 -0.6362  0.3140
 5803SOL     OW19415   2.695   0.278   3.753 -0.5871 -0.0053  0.2974
 5803SOL    HW119416   2.747   0.199   3.771 -2.7124 -1.6147 -0.1973
 5803SOL    HW219417   2.642   0.254   3.677 -1.3185  1.9232  0.1575
 5804SOL     OW19418   6.147   6.711  10.836  0.8648  0.3428 -0.4085
 5804SOL    HW119419   6.202   6.634  10.852  1.7810  1.3688  1.8716
 5804SOL    HW219420   6.207   6.775  10.797  0.6483  0.5894 -0.3350
 5805SOL     OW19421   7.970   7.309   3.453 -0.2954  0.3820 -0.1797
 5805SOL    HW119422   8.053   7.332   3.495 -0.2852 -0.1492  0.1017
 5805SOL    HW219423   7.908   7.303   3.526 -0.3475 -0.2382 -0.2708
 5806SOL     OW19424   8.277   3.610   0.037 -0.5594 -0.4967 -0.5379
 5806SOL    HW119425   8.238   3.522   0.040 -0.1142 -0.6877  1.8088
 5806SOL    HW219426   8.371   3.595   0.039 -0.4839 -0.0002  1.4656
 5807SOL     OW19427   4.022   5.422   8.135  0.2950  0.0207  0.6688
 5807SOL    HW119428   4.050   5.395   8.222 -0.8788 -0.7924  0.8276
 5807SOL    HW219429   3.948   5.481   8.150  0.8930  0.8956  0.2422
 5808SOL     OW19430   1.268   0.472   5.357 -0.5762  1.0564  0.4663
 5808SOL    HW119431   1.257   0.555   5.310 -0.5576  0.9661  0.2991
 5808SOL    HW219432   1.301   0.412   5.290 -1.1543  0.7567  0.4461
 5809SOL     OW19433   2.659   1.770   3.952 -0.5956 -0.3948 -0.1065
 5809SOL    HW119434   2.729   1.791   3.890 -0.0228  1.4138  1.0733
 5809SOL    HW219435   2.703   1.727   4.025 -1.1326 -1.6167 -0.4682
 5810SOL     OW19436   7.734   5.480  10.865  0.6466  0.1578 -0.4448
 5810SOL    HW119437   7.664   5.419  10.887  1.5040 -0.5086  0.5415
 5810SOL    HW219438   7.789   5.431  10.803  0.4396  0.5486 -0.9441
 5811SOL     OW19439   4.861   1.215   2.117 -0.1452 -0.1114  0.0172
 5811SOL    HW119440   4.928   1.273   2.083 -1.4828  0.1828 -2.3551
 5811SOL    HW219441   4.867   1.136   2.063 -1.2948 -0.3108  0.1406
 5812SOL     OW19442   2.962   2.789   1.875 -0.3154 -0.3635  0.2069
 5812SOL    HW119443   2.918   2.849   1.816  0.5517 -0.8194 -0.9430
 5812SOL    HW219444   3.043   2.833   1.899  1.3096 -1.7906 -2.2384
 5813SOL     OW19445   7.555   0.778   4.211  0.0712  0.0084  0.3305
 5813SOL    HW119446   7.522   0.689   4.219 -0.2179  0.1783  1.1046
 5813SOL    HW219447   7.643   0.768   4.173  0.8894 -0.7759  2.2977
 5814SOL     OW19448   5.256   1.384   0.855 -0.1516  0.4932 -0.4168
 5814SOL    HW119449   5.206   1.386   0.936 -1.0957 -2.0744 -0.8347
 5814SOL    HW219450   5.348   1.375   0.883 -0.4105  0.1975  0.3490
 5815SOL     OW19451   2.618   0.816   2.096  0.1148 -0.2291  0.1027
 5815SOL    HW119452   2.706   0.788   2.071  0.7317 -0.2680  2.1937
 5815SOL    HW219453   2.562   0.743   2.070  0.7587 -0.4638 -0.6790
 5816SOL     OW19454   0.689   4.947   7.970  0.3503 -0.8139  0.0164
 5816SOL    HW119455   0.749   4.896   7.916 -0.4857  0.1364 -1.8979
 5816SOL    HW219456   0.720   4.933   8.059  1.3180 -3.0735 -0.5906
 5817SOL     OW19457   0.807   6.849   5.062 -0.6775 -0.1471  0.6347
 5817SOL    HW119458   0.789   6.943   5.066  1.3393  0.3283 -0.3046
 5817SOL    HW219459   0.808   6.828   4.969 -0.1234 -0.8654  0.7887
 5818SOL     OW19460   6.587  10.756   3.497  0.2323  0.0911  0.6288
 5818SOL    HW119461   6.636  10.775   3.576  0.5117 -2.0280  1.0131
 5818SOL    HW219462   6.497  10.742   3.527 -0.5682  3.2082  0.0205
 5819SOL     OW19463   5.514   4.544   9.949 -0.5777 -0.1649  0.7072
 5819SOL    HW119464   5.599   4.521   9.986  0.1948 -0.1571 -0.9826
 5819SOL    HW219465   5.492   4.628   9.989  0.3180 -0.0412  0.9536
 5820SOL     OW19466  10.806   1.432   9.878 -0.3382 -0.1970  0.0532
 5820SOL    HW119467  10.830   1.519   9.845  0.2338 -0.8515 -1.3003
 5820SOL    HW219468  10.715   1.442   9.907 -0.5104  0.6795 -0.7393
 5821SOL     OW19469  10.009  10.946   7.954 -0.2452  0.0310 -0.6042
 5821SOL    HW119470   9.998  10.854   7.978 -1.9560 -0.3095 -2.4668
 5821SOL    HW219471  10.058  10.943   7.872  1.5688  0.9372  0.3891
 5822SOL     OW19472  10.213   6.538   6.680  0.3450 -0.2663  0.4839
 5822SOL    HW119473  10.127   6.496   6.675  0.7568 -1.0066 -1.2539
 5822SOL    HW219474  10.215   6.579   6.766 -1.4050 -0.9716  0.9036
 5823SOL     OW19475   9.920   2.564  10.015 -0.0884  0.0494  0.1373
 5823SOL    HW119476   9.932   2.495   9.950 -0.5510 -0.7980  0.9244
 5823SOL    HW219477   9.843   2.612   9.985  0.1474  0.1385 -0.3335
 5824SOL     OW19478   6.035   8.579   2.737  0.0612  0.7529  0.3574
 5824SOL    HW119479   6.070   8.618   2.657  1.0522 -0.9992 -0.1199
 5824SOL    HW219480   6.043   8.484   2.723 -0.4760  0.3938  2.2119
 5825SOL     OW19481   1.999   1.534   7.485  0.1605 -0.3658  0.0313
 5825SOL    HW119482   2.014   1.455   7.432 -2.3309 -0.6275 -0.4079
 5825SOL    HW219483   2.072   1.535   7.546  1.4897 -1.7568 -1.4131
 5826SOL     OW19484   5.236  10.351   5.383  0.0397  0.4899 -0.5824
 5826SOL    HW119485   5.175  10.425   5.390 -0.0326  0.5205 -1.4283
 5826SOL    HW219486   5.276  10.345   5.470 -1.8056 -0.0806  0.2829
 5827SOL     OW19487   8.709   6.610   2.203  0.2660 -0.1657 -0.3071
 5827SOL    HW119488   8.776   6.661   2.158  0.0665  0.2104 -0.1770
 5827SOL    HW219489   8.758   6.540   2.247  0.4632 -0.5345 -1.0954
 5828SOL     OW19490   2.545   4.913  10.981 -0.3693  0.4419 -0.3924
 5828SOL    HW119491   2.613   4.913  11.048 -0.7274 -0.5786 -0.0121
 5828SOL    HW219492   2.469   4.954  11.023 -1.2277 -1.9133  0.5500
 5829SOL     OW19493   9.574   2.627   2.893  0.2114 -0.4037 -0.8317
 5829SOL    HW119494   9.525   2.686   2.836  1.6243  0.4906 -1.1959
 5829SOL    HW219495   9.639   2.684   2.935 -0.0826 -1.2488  0.8354
 5830SOL     OW19496   9.877   7.296   7.347  0.2058  0.1626 -0.0678
 5830SOL    HW119497   9.853   7.316   7.438 -1.8248 -1.5359 -0.1447
 5830SOL    HW219498   9.806   7.335   7.295  2.1899  2.5818 -1.1486
 5831SOL     OW19499   4.729   1.941   6.107 -0.4718  0.0652  0.4582
 5831SOL    HW119500   4.760   1.866   6.159  0.7390 -0.7825 -1.3636
 5831SOL    HW219501   4.634   1.939   6.116 -0.4762 -1.7928  0.3815
 5832SOL     OW19502   9.691   2.075   2.888  0.0899 -0.0535 -0.1792
 5832SOL    HW119503   9.668   2.163   2.858  0.8898  0.0992 -0.3718
 5832SOL    HW219504   9.717   2.087   2.979 -2.1039 -0.4803  0.5501
 5833SOL     OW19505   3.385  10.568   2.948  0.7758  0.0874  0.4689
 5833SOL    HW119506   3.376  10.575   2.853 -0.0704  0.5732  0.5750
 5833SOL    HW219507   3.300  10.537   2.978  1.2227 -0.6518  1.0238
 5834SOL     OW19508   6.260   6.623   4.946 -0.2782 -0.1766  0.4511
 5834SOL    HW119509   6.261   6.529   4.961 -0.6474 -0.1724  0.5159
 5834SOL    HW219510   6.280   6.662   5.031  0.1051 -0.2001  0.3726
 5835SOL     OW19511   2.469   4.606   2.270  0.6230  0.4972  0.0729
 5835SOL    HW119512   2.380   4.625   2.301  1.4046  0.8114  2.3016
 5835SOL    HW219513   2.504   4.692   2.245  0.6341  0.5319  0.2030
 5836SOL     OW19514   2.200   1.340  10.671 -0.0501 -0.7249 -0.1071
 5836SOL    HW119515   2.229   1.315  10.584  1.0145 -0.3766  0.1354
 5836SOL    HW219516   2.227   1.431  10.681  2.7062 -1.5994  1.7054
 5837SOL     OW19517   0.004   4.157   0.597  0.0255  0.5007  0.1310
 5837SOL    HW119518  -0.066   4.141   0.660 -0.5117  1.4770 -0.1956
 5837SOL    HW219519   0.045   4.072   0.584 -1.5204 -0.2341 -0.1572
 5838SOL     OW19520   9.624   5.855   7.079 -0.1567 -0.0982  0.2313
 5838SOL    HW119521   9.548   5.875   7.135  1.0837  0.7075  1.7141
 5838SOL    HW219522   9.588   5.850   6.991 -2.2107 -1.4638  1.0847
 5839SOL     OW19523   7.765   0.094   8.008  0.6301 -0.6924 -0.1408
 5839SOL    HW119524   7.752   0.152   7.933  0.2946 -0.1569  0.3203
 5839SOL    HW219525   7.802   0.014   7.971  2.8685  0.4652 -0.6026
 5840SOL     OW19526   3.742   4.668   9.105  0.0917 -0.1426 -0.0776
 5840SOL    HW119527   3.675   4.713   9.052  2.1872 -0.3979 -3.1706
 5840SOL    HW219528   3.821   4.721   9.094  1.7335 -2.5987 -0.9237
 5841SOL     OW19529   2.759   8.887   2.092  0.2546  0.2422  0.3178
 5841SOL    HW119530   2.708   8.826   2.145  1.2046  0.7750  1.9245
 5841SOL    HW219531   2.842   8.896   2.140  1.3764  0.3499 -1.5570
 5842SOL     OW19532   9.534   1.452   0.495  0.1042 -0.3695  0.5866
 5842SOL    HW119533   9.607   1.433   0.436 -0.0508 -0.9673  0.5716
 5842SOL    HW219534   9.461   1.401   0.459 -0.5547  0.8636  0.1149
 5843SOL     OW19535   0.848   2.771   8.293 -0.0023 -0.2322 -0.0153
 5843SOL    HW119536   0.785   2.701   8.274 -1.7575  1.2723 -0.0692
 5843SOL    HW219537   0.878   2.799   8.207  0.8344 -0.9993  0.0135
 5844SOL     OW19538  10.347   1.524  10.150 -0.0409 -0.3498 -0.0763
 5844SOL    HW119539  10.294   1.562  10.220  1.5636 -0.7214  1.4102
 5844SOL    HW219540  10.285   1.510  10.078 -1.0626  3.7427 -0.2623
 5845SOL     OW19541   0.602   5.403   6.688 -0.5886 -0.0774  0.0141
 5845SOL    HW119542   0.620   5.349   6.765  0.6434 -0.6322 -0.6361
 5845SOL    HW219543   0.610   5.493   6.720 -0.1372 -0.2997  0.5528
 5846SOL     OW19544   7.748   0.741   0.529  0.0542 -0.2689 -0.1855
 5846SOL    HW119545   7.715   0.662   0.486  0.0855 -1.1306  1.3356
 5846SOL    HW219546   7.669   0.792   0.548 -0.1230 -0.7752  0.4510
 5847SOL     OW19547   5.922   8.125   2.474 -0.2353 -0.0032 -0.3191
 5847SOL    HW119548   5.909   8.189   2.405  2.5525 -0.1561 -1.1009
 5847SOL    HW219549   5.929   8.178   2.554  0.0936  0.5161 -0.6815
 5848SOL     OW19550   0.192   8.062   6.880  0.0085 -0.3027 -0.3751
 5848SOL    HW119551   0.246   8.101   6.949 -0.7434  0.0206  0.0334
 5848SOL    HW219552   0.164   8.136   6.826  0.5579 -0.5467 -1.0191
 5849SOL     OW19553   6.045   1.949   7.077 -0.3063  0.3633  0.3654
 5849SOL    HW119554   6.139   1.956   7.092 -0.0128 -1.2922 -0.4748
 5849SOL    HW219555   6.026   2.019   7.014  0.0806  1.5839  1.5606
 5850SOL     OW19556   4.379   1.087   7.610 -0.3495 -0.0126  0.3852
 5850SOL    HW119557   4.458   1.036   7.593 -0.4309 -0.0533  0.1205
 5850SOL    HW219558   4.333   1.089   7.526 -0.8328 -0.3374  0.6373
 5851SOL     OW19559   0.079   9.724   8.341 -0.4784 -0.2081  0.9471
 5851SOL    HW119560   0.072   9.693   8.250  0.1444  1.8988  0.1229
 5851SOL    HW219561   0.140   9.663   8.382 -1.1871 -1.5332  0.1426
 5852SOL     OW19562   9.439   0.633   1.635 -0.0968  0.0422  0.3832
 5852SOL    HW119563   9.485   0.563   1.588 -0.1881  2.9528 -4.8634
 5852SOL    HW219564   9.360   0.592   1.668  0.2238 -2.5355 -1.7385
 5853SOL     OW19565  10.500   3.524   8.588 -0.0694 -0.0721 -0.4396
 5853SOL    HW119566  10.511   3.618   8.573 -1.6967  0.5552  1.7159
 5853SOL    HW219567  10.419   3.501   8.543 -1.7051  0.4831  2.0264
 5854SOL     OW19568   9.220   2.151   0.853 -0.4212 -0.4621  0.1324
 5854SOL    HW119569   9.285   2.220   0.841 -1.5497  0.2820 -2.5119
 5854SOL    HW219570   9.163   2.183   0.923 -1.0664  1.5003 -1.2013
 5855SOL     OW19571   5.343   6.520   7.833  0.0754  0.4826  0.1593
 5855SOL    HW119572   5.262   6.525   7.883 -0.4809  1.3542 -0.7893
 5855SOL    HW219573   5.318   6.480   7.750  0.3574  1.8846 -0.6235
 5856SOL     OW19574   6.951   1.568   1.909 -0.3876 -0.2108 -0.1353
 5856SOL    HW119575   6.901   1.634   1.861 -0.8495 -2.0204 -2.3694
 5856SOL    HW219576   7.042   1.592   1.896 -0.5484 -0.0238 -1.0412
 5857SOL     OW19577   1.758  10.465  10.662 -0.4707 -0.0237  0.2470
 5857SOL    HW119578   1.705  10.454  10.741 -1.5208 -0.1029 -0.4550
 5857SOL    HW219579   1.736  10.553  10.631  1.7279  0.9800  1.3178
 5858SOL     OW19580   3.332   0.930   0.927 -0.2708 -0.6731 -0.1646
 5858SOL    HW119581   3.289   0.867   0.985 -2.8397  0.3585 -0.7862
 5858SOL    HW219582   3.414   0.951   0.970 -0.9372 -1.8146  1.8031
 5859SOL     OW19583   3.640   0.435   2.906  0.0733 -0.4998  0.5631
 5859SOL    HW119584   3.613   0.370   2.971 -1.4981  2.8645  3.6084
 5859SOL    HW219585   3.558   0.477   2.879  1.0370  0.4215 -1.0717
 5860SOL     OW19586   5.554   6.723   0.757 -0.2058  0.1653 -0.8505
 5860SOL    HW119587   5.604   6.792   0.713  0.5598  0.1198 -0.0968
 5860SOL    HW219588   5.589   6.642   0.721  0.9943  0.1026  0.3773
 5861SOL     OW19589   3.269   0.626   5.798 -0.1474  0.3022 -0.1157
 5861SOL    HW119590   3.319   0.550   5.826 -0.9417 -0.8454 -1.6581
 5861SOL    HW219591   3.330   0.676   5.744 -0.2544 -0.4033 -0.9058
 5862SOL     OW19592   6.344   9.442   1.877  0.3281  0.4624 -0.2121
 5862SOL    HW119593   6.381   9.434   1.789 -0.5276 -0.2498 -0.5222
 5862SOL    HW219594   6.390   9.516   1.916  0.3002  1.1784 -1.4792
 5863SOL     OW19595   0.279   9.108   5.976  0.5070  0.0719 -0.4598
 5863SOL    HW119596   0.300   9.089   6.067 -0.2532 -0.8857 -0.4687
 5863SOL    HW219597   0.364   9.104   5.931  0.5355 -2.6831 -0.3155
 5864SOL     OW19598   1.274   9.354   6.197  0.0752  1.1184 -0.5863
 5864SOL    HW119599   1.361   9.371   6.161  0.4030  0.1706 -0.2742
 5864SOL    HW219600   1.214   9.392   6.134  0.7090  1.6317 -0.8937
 5865SOL     OW19601   8.152   0.899   9.427  0.0331 -0.4795 -0.3252
 5865SOL    HW119602   8.199   0.979   9.451 -0.4423 -0.5199  0.7882
 5865SOL    HW219603   8.186   0.832   9.488 -0.3433 -0.8763 -0.5458
 5866SOL     OW19604   6.644   1.439   5.638  0.1912  0.4014 -0.1251
 5866SOL    HW119605   6.657   1.355   5.594  2.7568 -1.1422  3.1511
 5866SOL    HW219606   6.587   1.419   5.713  0.1696  1.7503  0.2525
 5867SOL     OW19607   0.053   5.175   6.256 -0.2115  0.7398 -0.0882
 5867SOL    HW119608  -0.028   5.173   6.307 -0.7428  1.6792 -0.8616
 5867SOL    HW219609   0.051   5.094   6.204 -0.0527  0.1689  0.7739
 5868SOL     OW19610   0.635   4.633   4.949  0.0551 -0.5077  0.6710
 5868SOL    HW119611   0.584   4.552   4.942 -1.9764  0.8252 -1.4115
 5868SOL    HW219612   0.618   4.679   4.867  3.1946  0.9167  0.6987
 5869SOL     OW19613   9.891   8.839   5.228 -0.2414  0.2430 -0.1733
 5869SOL    HW119614   9.946   8.832   5.306  0.4925  1.9616 -0.4977
 5869SOL    HW219615   9.885   8.750   5.194  0.7013 -0.2773  0.9807
 5870SOL     OW19616   4.922   2.942   8.129  0.3550  0.0258 -0.4458
 5870SOL    HW119617   4.936   2.851   8.103 -0.1733  0.6521 -3.2271
 5870SOL    HW219618   4.841   2.940   8.180 -1.4894 -0.7409 -3.1939
 5871SOL     OW19619   0.749   9.001   4.657  0.2342 -0.1609 -0.3732
 5871SOL    HW119620   0.708   9.040   4.581 -0.6138 -0.2786  0.0172
 5871SOL    HW219621   0.720   8.910   4.656 -0.0840 -0.0720  0.2915
 5872SOL     OW19622   2.653   9.089   8.531 -0.5018 -0.3019  0.0819
 5872SOL    HW119623   2.713   9.093   8.457  2.2778  0.3337  2.1947
 5872SOL    HW219624   2.578   9.039   8.498  0.7186 -0.3258 -3.0134
 5873SOL     OW19625   8.241   3.298   9.013  0.1315  0.0766 -0.3076
 5873SOL    HW119626   8.254   3.315   9.106 -1.0971 -0.2565 -0.0468
 5873SOL    HW219627   8.328   3.276   8.980  0.3210 -1.6228  1.1546
 5874SOL     OW19628   1.175  10.572   0.505  0.1730 -0.4140  0.2281
 5874SOL    HW119629   1.176  10.543   0.597  0.7714  1.4766  0.8566
 5874SOL    HW219630   1.244  10.638   0.500 -1.3313  1.1430 -1.0176
 5875SOL     OW19631   0.935   3.025   9.438  0.2361  0.4265  0.1480
 5875SOL    HW119632   0.849   3.014   9.479  0.4468  2.3870  1.2028
 5875SOL    HW219633   0.998   3.019   9.510  0.9455 -0.1784 -0.4991
 5876SOL     OW19634   7.135   1.796   2.000 -0.0938  0.4415 -0.1495
 5876SOL    HW119635   7.182   1.715   2.021  0.2008  0.7218  0.2745
 5876SOL    HW219636   7.155   1.855   2.072  1.2961  1.5853 -1.4107
 5877SOL     OW19637   9.835   7.020   4.421 -0.5648  0.4933  0.0870
 5877SOL    HW119638   9.766   6.955   4.436 -0.6069  0.8098  1.3717
 5877SOL    HW219639   9.803   7.072   4.347 -1.8146  0.7652  0.7952
 5878SOL     OW19640   8.474  10.618   4.317  0.3779 -0.3231 -0.1994
 5878SOL    HW119641   8.455  10.577   4.232  0.7016 -0.4549 -0.2102
 5878SOL    HW219642   8.441  10.557   4.381 -0.0585 -0.1257 -0.2348
 5879SOL     OW19643   7.693   2.036   5.339 -0.5700 -0.1641  0.4050
 5879SOL    HW119644   7.707   2.126   5.368 -0.5439 -0.0943  0.1790
 5879SOL    HW219645   7.777   1.993   5.353 -0.3130  0.0828 -0.3300
 5880SOL     OW19646   1.537  10.740   3.948 -0.8061 -0.2205 -0.1969
 5880SOL    HW119647   1.473  10.728   3.877 -1.0905  0.5322 -0.0760
 5880SOL    HW219648   1.599  10.804   3.914 -1.8156  1.3284  0.7871
 5881SOL     OW19649   7.916   1.351   6.051 -0.6757  0.1513 -0.4867
 5881SOL    HW119650   7.894   1.375   5.961  0.1488  1.6400 -0.3267
 5881SOL    HW219651   8.003   1.313   6.045 -0.3219  0.9064 -0.2463
 5882SOL     OW19652   1.318   2.008   8.086 -0.0949 -0.1879 -0.5105
 5882SOL    HW119653   1.400   2.057   8.084 -1.1695  1.7197 -1.2929
 5882SOL    HW219654   1.331   1.937   8.023  0.3450  1.2550 -2.1527
 5883SOL     OW19655   2.719  10.897   8.558 -0.4713 -0.1372 -0.1598
 5883SOL    HW119656   2.772  10.977   8.556 -0.5554 -0.0463  0.8260
 5883SOL    HW219657   2.634  10.925   8.593  0.2108 -1.0179  2.4545
 5884SOL     OW19658   8.312   0.199   3.634 -0.0083  0.2716  0.1534
 5884SOL    HW119659   8.307   0.111   3.672 -1.7431 -0.8819 -2.4552
 5884SOL    HW219660   8.387   0.195   3.575 -1.8696 -0.6143 -2.3305
 5885SOL     OW19661   5.450  10.544   2.183  0.3121  0.3069  0.1457
 5885SOL    HW119662   5.537  10.510   2.206  0.0383 -0.3206  0.2880
 5885SOL    HW219663   5.399  10.466   2.160 -0.1630  0.6872 -0.1157
 5886SOL     OW19664   0.025   7.724  10.801  0.2714 -0.1433 -0.2092
 5886SOL    HW119665  -0.020   7.722  10.716  1.0190  0.9797 -0.6473
 5886SOL    HW219666   0.076   7.643  10.802 -1.2176 -1.1125  0.0163
 5887SOL     OW19667   2.037  10.690  10.196  0.4586  0.2081  0.0681
 5887SOL    HW119668   1.995  10.768  10.233  1.5157  0.6168  0.4582
 5887SOL    HW219669   2.131  10.712  10.195  0.7855 -1.1029  0.2868
 5888SOL     OW19670   1.873   4.981   3.425  0.4287  0.0261 -0.1276
 5888SOL    HW119671   1.784   4.986   3.459  1.3648  0.3214  2.4949
 5888SOL    HW219672   1.888   5.066   3.383 -0.6157 -0.1515 -0.8751
 5889SOL     OW19673   5.949  10.498   7.530 -0.2341 -0.3535  0.2177
 5889SOL    HW119674   5.889  10.551   7.583 -1.2249 -0.7179 -0.4904
 5889SOL    HW219675   6.012  10.561   7.496  0.7731 -0.1968  2.2429
 5890SOL     OW19676   7.583   7.498  10.864 -0.1151 -0.0661 -0.3104
 5890SOL    HW119677   7.540   7.416  10.884 -0.0884  0.2210  0.9731
 5890SOL    HW219678   7.566   7.554  10.939 -1.0514  1.4974 -1.6151
 5891SOL     OW19679   8.353   9.956   6.394  0.5150 -0.2135 -0.6216
 5891SOL    HW119680   8.268   9.935   6.433  1.4122 -2.7832  0.1718
 5891SOL    HW219681   8.334  10.024   6.329 -2.2706 -1.2952 -1.0742
 5892SOL     OW19682   3.705   6.137   9.500  0.2662  0.2471  0.1516
 5892SOL    HW119683   3.750   6.221   9.502 -1.7072  1.4426 -1.8871
 5892SOL    HW219684   3.737   6.094   9.421 -0.4407  0.1000 -0.0627
 5893SOL     OW19685   7.369   1.934   8.805 -0.2760  0.2914  0.2530
 5893SOL    HW119686   7.277   1.954   8.820 -0.4380 -0.5982  0.5231
 5893SOL    HW219687   7.372   1.838   8.799  0.4101  0.3713 -1.1844
 5894SOL     OW19688   0.428   6.107   9.485  0.5341  0.1175 -0.0910
 5894SOL    HW119689   0.470   6.065   9.411  0.8653  1.7243 -0.8519
 5894SOL    HW219690   0.458   6.057   9.561  1.7952 -0.3223 -0.8467
 5895SOL     OW19691   7.447   0.506   4.372  0.0113  0.0769 -0.5863
 5895SOL    HW119692   7.358   0.524   4.340  0.7681  1.6369 -1.9835
 5895SOL    HW219693   7.441   0.514   4.467 -1.3835 -0.1108 -0.6395
 5896SOL     OW19694   0.852   5.021   4.732 -0.0293 -0.1662 -0.2759
 5896SOL    HW119695   0.812   5.034   4.818  0.3569  1.3792 -0.3102
 5896SOL    HW219696   0.779   5.015   4.671 -0.3041  2.9343 -0.3847
 5897SOL     OW19697  10.737   5.278   2.069 -0.1098  0.8775 -0.2837
 5897SOL    HW119698  10.644   5.284   2.090  0.0638  0.2115  0.7463
 5897SOL    HW219699  10.777   5.352   2.116  0.0944  0.1762  0.6802
 5898SOL     OW19700   2.467   5.894   9.547  0.4458 -0.0447  0.9688
 5898SOL    HW119701   2.378   5.868   9.568 -0.3872  0.4749 -1.5687
 5898SOL    HW219702   2.522   5.831   9.593 -1.2326 -0.8855  1.9235
 5899SOL     OW19703   1.794   3.345   2.988 -0.1218 -0.4789 -0.5264
 5899SOL    HW119704   1.733   3.332   2.914 -0.7553 -0.1611 -0.0646
 5899SOL    HW219705   1.768   3.428   3.027 -0.0415 -0.8318  0.2974
 5900SOL     OW19706   1.253  10.291   3.072 -0.8231  0.1268  0.2629
 5900SOL    HW119707   1.183  10.240   3.031 -0.6551  1.1775 -1.4334
 5900SOL    HW219708   1.311  10.225   3.109 -1.9557 -0.8131  0.4429
 5901SOL     OW19709   5.186   4.203  10.221 -0.0488 -0.0605 -0.3911
 5901SOL    HW119710   5.264   4.147  10.226 -0.8515 -1.2031 -0.4041
 5901SOL    HW219711   5.184   4.233  10.130 -0.4833 -1.3217 -0.8242
 5902SOL     OW19712   9.449   9.391   2.009  0.1805  0.3897  0.5994
 5902SOL    HW119713   9.509   9.374   2.082  0.8461  1.4977  0.3301
 5902SOL    HW219714   9.443   9.486   2.005 -2.0873  0.3048  0.9933
 5903SOL     OW19715  10.736   9.004   7.848  0.4313 -0.1715 -0.2033
 5903SOL    HW119716  10.780   9.082   7.881  2.0766 -1.3265  0.4971
 5903SOL    HW219717  10.666   9.037   7.792  0.5100  1.7957  0.7893
 5904SOL     OW19718   2.139  10.026   3.993 -0.6592  0.3161  0.4962
 5904SOL    HW119719   2.181  10.012   4.078 -0.8815 -0.3767  0.5044
 5904SOL    HW219720   2.169  10.112   3.964 -0.0503  0.2657  0.9706
 5905SOL     OW19721   6.002   3.013   7.170 -0.8283 -0.5285  0.1755
 5905SOL    HW119722   6.032   3.059   7.249  0.9895 -2.8203  0.9871
 5905SOL    HW219723   6.076   2.956   7.147 -1.7218 -0.7002 -2.5976
 5906SOL     OW19724   6.225   9.660  10.245 -0.5475  0.4164 -0.4189
 5906SOL    HW119725   6.153   9.719  10.268 -1.0180  0.3823 -1.7328
 5906SOL    HW219726   6.235   9.670  10.151  0.3184 -0.5595 -0.4460
 5907SOL     OW19727  10.646   2.775   6.287 -0.0491  0.1413 -0.2228
 5907SOL    HW119728  10.629   2.801   6.196 -2.0856  0.2537  0.1269
 5907SOL    HW219729  10.575   2.713   6.307 -0.4177  1.1035  1.6700
 5908SOL     OW19730   2.054   9.234   1.322  0.2982  0.3293  0.0116
 5908SOL    HW119731   2.074   9.228   1.416  1.8338  0.6214 -0.2746
 5908SOL    HW219732   1.997   9.158   1.305 -0.2465  0.4428  1.2300
 5909SOL     OW19733   3.493   0.731   5.626 -0.2892 -0.2722  0.0928
 5909SOL    HW119734   3.565   0.683   5.667 -0.0458 -0.4913 -0.5816
 5909SOL    HW219735   3.499   0.819   5.661  0.3308 -0.2826  0.0081
 5910SOL     OW19736   6.482   9.906   3.644  0.2513 -0.7997 -0.2536
 5910SOL    HW119737   6.495   9.948   3.559 -1.5574  0.9073  0.2262
 5910SOL    HW219738   6.465   9.814   3.624 -1.0876 -0.2506 -1.8290
 5911SOL     OW19739   4.507   9.271   0.202  0.5463  0.3259 -0.4794
 5911SOL    HW119740   4.420   9.238   0.182  0.4873  0.9610 -1.3520
 5911SOL    HW219741   4.496   9.322   0.282 -0.2399  1.7391 -1.4412
 5912SOL     OW19742   6.400   7.118  11.032  0.1799  0.7473 -0.4720
 5912SOL    HW119743   6.389   7.026  11.057  2.7069  0.4972 -0.0076
 5912SOL    HW219744   6.322   7.138  10.981 -0.3468 -1.7261 -0.7826
 5913SOL     OW19745   3.487   7.716   5.005  0.5764 -0.7733 -0.7025
 5913SOL    HW119746   3.483   7.637   5.060  0.8781 -0.2968  0.0307
 5913SOL    HW219747   3.502   7.787   5.068 -0.6248 -0.0060 -1.2598
 5914SOL     OW19748   2.623  10.198   2.103 -0.3969  0.1430  0.4450
 5914SOL    HW119749   2.638  10.293   2.108 -2.1559  0.4289  1.2333
 5914SOL    HW219750   2.557  10.182   2.171 -0.1060 -1.6604  0.3312
 5915SOL     OW19751   5.760   7.595   6.396 -0.0565 -0.1166 -0.2860
 5915SOL    HW119752   5.681   7.566   6.441  0.7756 -1.0596  0.6269
 5915SOL    HW219753   5.744   7.577   6.304 -0.8113 -0.5201 -0.0769
 5916SOL     OW19754   3.555   9.465   7.988  0.6522  0.0974 -0.3865
 5916SOL    HW119755   3.514   9.407   7.924  0.9884  0.6212 -1.0942
 5916SOL    HW219756   3.483   9.497   8.041 -0.1878  2.3080 -2.6459
 5917SOL     OW19757   7.217   6.021   7.695 -0.3986 -0.0676  0.7178
 5917SOL    HW119758   7.282   5.967   7.651 -1.1346 -1.1465  0.9308
 5917SOL    HW219759   7.265   6.059   7.769  0.7095  1.3683 -0.6524
 5918SOL     OW19760   5.500   6.476   8.060  0.5503  0.0455 -0.4857
 5918SOL    HW119761   5.470   6.487   7.970  0.6286 -0.6080 -0.5925
 5918SOL    HW219762   5.454   6.544   8.109 -0.5060 -0.4371 -0.7899
 5919SOL     OW19763   8.218   9.504   4.880 -0.5414  0.3862  0.4936
 5919SOL    HW119764   8.202   9.460   4.797  0.0955  1.5004 -0.2465
 5919SOL    HW219765   8.130   9.521   4.916 -0.8659  1.0066 -0.5631
 5920SOL     OW19766  10.632   6.310   5.903  0.1212  0.5733 -0.1198
 5920SOL    HW119767  10.727   6.324   5.900  0.4619 -0.5024  2.7455
 5920SOL    HW219768  10.622   6.216   5.912 -1.3186  0.5591 -1.4556
 5921SOL     OW19769   5.728   8.934   0.061 -0.6027  0.3672  0.8026
 5921SOL    HW119770   5.794   8.999   0.039 -0.3791 -0.2536 -0.4546
 5921SOL    HW219771   5.771   8.878   0.126  0.4896 -0.5642 -0.6448
 5922SOL     OW19772   7.154   6.920   6.921  0.2244 -0.8915 -0.3399
 5922SOL    HW119773   7.139   6.856   6.991  1.1200 -1.0047 -0.2352
 5922SOL    HW219774   7.151   6.868   6.840  1.2491 -1.1475 -0.2366
 5923SOL     OW19775   0.298   0.218   7.228 -0.2856  0.2580  0.1795
 5923SOL    HW119776   0.388   0.237   7.201 -0.1465  0.2736  0.6403
 5923SOL    HW219777   0.243   0.253   7.157  0.1267 -1.1150 -0.8382
 5924SOL     OW19778   5.048   7.793   0.515 -0.7262 -0.1629 -0.0712
 5924SOL    HW119779   5.010   7.733   0.579  0.9702 -0.1885  0.9609
 5924SOL    HW219780   4.995   7.873   0.523 -0.3738 -0.0597  1.6200
 5925SOL     OW19781   6.431   5.772   5.003  0.2865 -0.0780  0.1235
 5925SOL    HW119782   6.337   5.779   5.019  0.3319 -1.0656  0.9307
 5925SOL    HW219783   6.438   5.730   4.917  0.0160  1.3584 -0.6304
 5926SOL     OW19784   8.922   5.845   2.874  0.7491  0.3266  0.2783
 5926SOL    HW119785   9.012   5.877   2.866  0.4464  1.0479 -0.4577
 5926SOL    HW219786   8.869   5.916   2.838 -0.1301 -0.0250  0.8513
 5927SOL     OW19787   2.022  10.564   5.222 -0.7904  0.0077 -0.3916
 5927SOL    HW119788   2.111  10.599   5.229 -0.5582 -0.4241 -1.1586
 5927SOL    HW219789   1.966  10.636   5.251 -0.2279  0.5027 -0.5181
 5928SOL     OW19790   5.447   1.316   3.276  1.0283  0.4700  0.8611
 5928SOL    HW119791   5.370   1.368   3.301 -0.7341 -0.5018 -2.0570
 5928SOL    HW219792   5.450   1.246   3.341 -0.7124  0.4110  0.9175
 5929SOL     OW19793   5.016   3.799   6.155  0.2868  0.8416 -0.1168
 5929SOL    HW119794   5.071   3.723   6.173  1.0883  1.3732 -0.2931
 5929SOL    HW219795   5.058   3.871   6.202  0.2660  1.4414 -1.0051
 5930SOL     OW19796   2.308   2.950   5.547 -0.0583  0.4869 -0.2021
 5930SOL    HW119797   2.360   2.978   5.473 -0.6604  1.0032 -0.4377
 5930SOL    HW219798   2.311   2.854   5.544 -1.8326  0.4089 -2.2034
 5931SOL     OW19799   1.712   3.024   3.596  0.0032 -0.0651  0.6968
 5931SOL    HW119800   1.745   2.938   3.571 -0.1980  0.0825 -0.0834
 5931SOL    HW219801   1.636   3.006   3.652 -0.3365 -0.3901  0.1291
 5932SOL     OW19802   4.994   0.917   8.488 -0.0161 -0.3748  0.2136
 5932SOL    HW119803   5.082   0.924   8.525 -0.9904 -0.5153  2.8434
 5932SOL    HW219804   5.000   0.849   8.422  2.1222  0.6065 -0.6796
 5933SOL     OW19805  11.036   5.238  10.628  0.1328 -0.4111  0.4929
 5933SOL    HW119806  11.019   5.269  10.717  0.2235  0.3458  0.2538
 5933SOL    HW219807  10.978   5.162  10.618 -1.9551  1.1309  0.2515
 5934SOL     OW19808   6.873   9.085   5.677  0.0664 -0.6397 -0.1325
 5934SOL    HW119809   6.937   9.072   5.608  0.8067 -0.1154  0.4400
 5934SOL    HW219810   6.886   9.176   5.705 -0.4864 -0.7270  0.4364
 5935SOL     OW19811   8.738   9.800   6.833 -0.4814  0.5944 -0.0838
 5935SOL    HW119812   8.699   9.827   6.750  2.0610  3.3684 -0.5536
 5935SOL    HW219813   8.736   9.878   6.887  0.8410 -0.2498  1.2668
 5936SOL     OW19814   9.179   8.239   2.762 -0.9411 -0.1231 -0.2263
 5936SOL    HW119815   9.084   8.225   2.766 -0.8616 -0.4859  0.6016
 5936SOL    HW219816   9.208   8.228   2.852 -0.2864  1.2465 -0.2412
 5937SOL     OW19817   3.183   7.727   0.090  0.4245  0.4477 -0.4461
 5937SOL    HW119818   3.266   7.679   0.093  0.0998 -0.1542  2.3153
 5937SOL    HW219819   3.204   7.809   0.046  2.1310 -0.2924 -1.0980
 5938SOL     OW19820   0.613   5.508   2.877  0.1175 -0.0485  0.3373
 5938SOL    HW119821   0.545   5.453   2.838  0.0752 -0.4795  1.0181
 5938SOL    HW219822   0.565   5.567   2.936  0.3309 -0.3444  0.8085
 5939SOL     OW19823   5.394   4.351   2.178 -0.4720  0.3619  0.1322
 5939SOL    HW119824   5.402   4.334   2.272  1.9560  0.6425  0.0304
 5939SOL    HW219825   5.435   4.437   2.166 -0.9449  0.4287 -1.1705
 5940SOL     OW19826   9.492   1.732   8.743  0.0385 -0.0390 -0.3096
 5940SOL    HW119827   9.418   1.690   8.787  0.2237 -0.8223 -0.7313
 5940SOL    HW219828   9.452   1.803   8.693 -0.0854  1.5217  1.8262
 5941SOL     OW19829   1.015  10.808   2.754 -0.3386  0.2559 -0.1426
 5941SOL    HW119830   1.017  10.720   2.793 -2.1646 -0.6468 -1.8846
 5941SOL    HW219831   0.925  10.819   2.725  0.0415  2.4246 -0.6650
 5942SOL     OW19832   0.784  10.983   6.485  0.1538 -0.2131  0.7034
 5942SOL    HW119833   0.722  11.003   6.415 -0.3530 -0.6430  1.0290
 5942SOL    HW219834   0.842  11.059   6.488  0.9478 -0.7007 -1.0115
 5943SOL     OW19835   0.311   1.727   4.205 -0.4497 -0.6734  0.0269
 5943SOL    HW119836   0.370   1.703   4.134 -0.6970  0.4369 -0.5611
 5943SOL    HW219837   0.225   1.695   4.177 -0.8183  1.0204 -0.8513
 5944SOL     OW19838   8.499   9.162   9.923 -0.1558  0.4264 -0.1040
 5944SOL    HW119839   8.408   9.156   9.952 -0.7730 -2.5717 -2.2176
 5944SOL    HW219840   8.511   9.254   9.901 -2.2467  1.1477  1.4144
 5945SOL     OW19841   6.687   0.213  10.501  0.2420  0.0154 -0.0694
 5945SOL    HW119842   6.694   0.154  10.426 -0.6857 -0.4147  0.1551
 5945SOL    HW219843   6.721   0.297  10.470  0.7332 -0.3982 -0.6777
 5946SOL     OW19844   6.832  10.858   6.634  0.1472 -0.0044  0.1959
 5946SOL    HW119845   6.835  10.803   6.712 -1.1979 -0.5612 -0.1231
 5946SOL    HW219846   6.790  10.939   6.663 -0.1819 -0.1395  0.1070
 5947SOL     OW19847   8.462   3.933   1.014  0.1896  0.1580  0.3088
 5947SOL    HW119848   8.488   4.024   1.031 -1.3576  0.6891 -0.0995
 5947SOL    HW219849   8.379   3.923   1.060  1.2880 -1.6811  2.0437
 5948SOL     OW19850   3.695   7.388   8.872  0.4843 -0.6085  0.0918
 5948SOL    HW119851   3.745   7.325   8.822  2.4221  0.1793  0.9199
 5948SOL    HW219852   3.710   7.364   8.963 -0.1699  0.0209  0.3791
 5949SOL     OW19853   7.386   2.423   9.045 -0.2493 -0.0249 -0.3544
 5949SOL    HW119854   7.405   2.491   9.111 -0.5723 -1.2929  1.1041
 5949SOL    HW219855   7.466   2.370   9.043 -0.9427 -1.1512  0.5132
 5950SOL     OW19856  10.555   0.753   7.909  0.4631  0.1824  0.9765
 5950SOL    HW119857  10.634   0.711   7.875  0.3047  0.2539  0.5042
 5950SOL    HW219858  10.493   0.682   7.923  0.7819  0.0690  1.8357
 5951SOL     OW19859   5.323   2.746   5.215 -0.1516  0.0822  0.0916
 5951SOL    HW119860   5.254   2.707   5.161 -0.8895  1.2395  0.1600
 5951SOL    HW219861   5.285   2.750   5.303 -0.1378  1.0335  0.0637
 5952SOL     OW19862   0.289   1.982   3.238  0.2733  0.4698  0.3360
 5952SOL    HW119863   0.341   2.058   3.261  0.8786  0.6686 -1.5435
 5952SOL    HW219864   0.211   2.018   3.196 -0.2092  0.0883  0.8852
 5953SOL     OW19865   0.374   1.229   5.962 -0.2160  0.0057 -0.4587
 5953SOL    HW119866   0.351   1.244   5.870 -1.1866 -2.1215 -0.6104
 5953SOL    HW219867   0.407   1.140   5.964  1.7078  0.6953  0.9617
 5954SOL     OW19868   6.112   9.532   7.818  0.3255 -0.0246 -0.5550
 5954SOL    HW119869   6.200   9.543   7.784  0.8643  1.1065  1.0718
 5954SOL    HW219870   6.055   9.572   7.752  1.0723 -0.2254 -1.3321
 5955SOL     OW19871   8.751   3.357   6.928  0.0509  0.7865  0.3128
 5955SOL    HW119872   8.843   3.353   6.955 -0.1666  0.9538  1.0983
 5955SOL    HW219873   8.754   3.345   6.833  1.1646  3.6861 -0.1294
 5956SOL     OW19874   1.100   5.893   6.971  0.1337  0.0422  0.0385
 5956SOL    HW119875   1.092   5.977   6.927  0.2299  0.8356  1.4869
 5956SOL    HW219876   1.193   5.885   6.991  0.1838 -0.5862 -0.4235
 5957SOL     OW19877   1.515   9.433   2.609  0.2002  0.0489  0.6089
 5957SOL    HW119878   1.470   9.436   2.525  0.2051  0.8040  0.6300
 5957SOL    HW219879   1.454   9.389   2.668 -0.1025  0.1815  0.3939
 5958SOL     OW19880   1.668   0.250   3.576  0.0916  0.0791  0.4682
 5958SOL    HW119881   1.677   0.260   3.671  0.1867  0.2133  0.4461
 5958SOL    HW219882   1.732   0.311   3.540  0.5939 -0.5298  0.3206
 5959SOL     OW19883   6.374   5.289   2.420 -0.4891 -0.2926 -0.0870
 5959SOL    HW119884   6.365   5.372   2.466  1.5914 -0.6103  0.9848
 5959SOL    HW219885   6.447   5.302   2.360  0.0317 -1.3878  0.2676
 5960SOL     OW19886   1.872   0.304   0.954 -0.0791 -0.1335 -0.1353
 5960SOL    HW119887   1.919   0.265   1.028  1.6438  1.7034 -0.1768
 5960SOL    HW219888   1.941   0.339   0.898 -1.4486  1.1530 -1.0913
 5961SOL     OW19889   2.852   9.358   8.557 -0.1291  0.4266 -0.5055
 5961SOL    HW119890   2.863   9.263   8.561  1.0910  0.5762  0.7055
 5961SOL    HW219891   2.758   9.371   8.545 -0.3441 -0.9274 -0.4428
 5962SOL     OW19892   4.928   3.166   1.231 -0.3444  0.0883 -0.6204
 5962SOL    HW119893   4.857   3.228   1.247  0.8517  1.6304 -1.0179
 5962SOL    HW219894   5.008   3.216   1.248  0.6766 -1.9522  1.0994
 5963SOL     OW19895  10.020   2.737   2.382  0.1877 -0.2247 -0.5248
 5963SOL    HW119896  10.011   2.824   2.419 -2.2762 -0.2110 -1.0340
 5963SOL    HW219897   9.991   2.678   2.452 -0.1398 -0.4874 -0.8775
 5964SOL     OW19898   9.849   6.063   0.768 -0.4198 -0.2469  0.3197
 5964SOL    HW119899   9.788   6.074   0.695  1.3091 -0.4833 -1.2186
 5964SOL    HW219900   9.888   5.976   0.755 -0.1579 -0.3479  1.6004
 5965SOL     OW19901   8.645   8.797   5.584  0.2403 -0.1082 -0.0090
 5965SOL    HW119902   8.725   8.768   5.538  0.7780  0.4339  0.5648
 5965SOL    HW219903   8.678   8.840   5.663 -0.6174  0.3788  0.0853
 5966SOL     OW19904   7.146   1.745  10.450  0.3423  0.0591  0.0926
 5966SOL    HW119905   7.056   1.778  10.459 -0.4790 -1.4526 -1.7854
 5966SOL    HW219906   7.158   1.687  10.525 -0.5889 -0.3974 -0.0974
 5967SOL     OW19907  10.540   1.209  10.010 -0.2691  0.1832  0.6445
 5967SOL    HW119908  10.495   1.186   9.928  1.8175 -2.0467  0.0033
 5967SOL    HW219909  10.633   1.198   9.990  0.3156 -0.2092  3.2613
 5968SOL     OW19910   8.137   8.597   3.506  0.3334  0.7238  1.0140
 5968SOL    HW119911   8.089   8.533   3.559 -0.0862 -0.3929 -0.6180
 5968SOL    HW219912   8.068   8.644   3.458  0.7557  0.5258  0.1952
 5969SOL     OW19913   0.848   4.850   2.028 -0.3325  0.4522 -0.3482
 5969SOL    HW119914   0.903   4.772   2.034 -0.1948  0.5474 -0.3839
 5969SOL    HW219915   0.760   4.816   2.011 -0.6875  0.1757  1.7313
 5970SOL     OW19916   5.458   1.182   7.865  0.1285  0.5905 -0.5272
 5970SOL    HW119917   5.437   1.227   7.783 -1.5109  0.9719  0.0795
 5970SOL    HW219918   5.440   1.247   7.934  2.7961  0.7698  0.1286
 5971SOL     OW19919   6.899   6.336   7.756  0.3985 -0.6716 -0.2555
 5971SOL    HW119920   6.815   6.373   7.728  1.2402  1.1919 -0.4592
 5971SOL    HW219921   6.878   6.288   7.836 -0.5662  1.5235  0.9080
 5972SOL     OW19922   5.898   5.894   2.515 -0.3025  0.5316  0.2950
 5972SOL    HW119923   5.846   5.910   2.436 -0.7552 -0.6513  0.3400
 5972SOL    HW219924   5.988   5.894   2.485 -0.4299  0.8064 -0.0950
 5973SOL     OW19925   2.161  10.077   8.854  0.0389 -0.3816 -0.6646
 5973SOL    HW119926   2.097  10.119   8.797 -0.0553 -0.4276 -0.5930
 5973SOL    HW219927   2.136   9.984   8.854 -0.7347 -0.1945  0.4562
 5974SOL     OW19928   5.036   5.869   1.477 -0.6664 -0.0913  0.3440
 5974SOL    HW119929   5.122   5.896   1.507 -1.6014  0.1003  3.1387
 5974SOL    HW219930   4.992   5.950   1.453 -0.0431 -0.2098 -1.3054
 5975SOL     OW19931   7.660   3.105  10.009  0.0507 -0.2079  0.1332
 5975SOL    HW119932   7.602   3.161  10.061  0.5721 -1.8541  2.6470
 5975SOL    HW219933   7.601   3.058   9.950 -0.5981  1.4276 -0.5950
 5976SOL     OW19934   2.888   9.816   3.493  0.1490 -0.5310  0.2863
 5976SOL    HW119935   2.866   9.790   3.404 -0.8443  0.6658  0.1424
 5976SOL    HW219936   2.803   9.827   3.536  0.5720  0.2025  0.9705
 5977SOL     OW19937   1.687  10.858   2.346  0.0821 -0.6488 -0.1466
 5977SOL    HW119938   1.721  10.772   2.321 -0.1836 -1.7799  2.9856
 5977SOL    HW219939   1.592  10.847   2.347 -0.0129  0.0230 -0.7446
 5978SOL     OW19940   2.650   3.841  10.929  0.1764 -0.1253  0.1865
 5978SOL    HW119941   2.666   3.751  10.959  0.8107 -0.8283 -2.0343
 5978SOL    HW219942   2.737   3.879  10.920  0.0252  0.0012 -0.8356
 5979SOL     OW19943   3.201   6.817   3.360 -0.4032  0.0216 -0.1034
 5979SOL    HW119944   3.205   6.867   3.279  0.4124 -0.6186 -0.4813
 5979SOL    HW219945   3.124   6.761   3.351 -0.8098  0.5695 -0.0570
 5980SOL     OW19946   6.257   9.103   9.943  0.3043  0.4447 -0.0788
 5980SOL    HW119947   6.325   9.037   9.949 -1.4226 -1.4211 -0.1567
 5980SOL    HW219948   6.195   9.080  10.012 -1.5870  0.4550 -1.6979
 5981SOL     OW19949   9.812   2.822   9.474 -0.2468 -0.5118  0.1121
 5981SOL    HW119950   9.869   2.765   9.526  0.3557 -0.8001 -0.8199
 5981SOL    HW219951   9.812   2.781   9.387 -1.0685  0.0567 -0.1672
 5982SOL     OW19952   0.633   3.617   6.562 -0.4257  0.2098 -0.0596
 5982SOL    HW119953   0.571   3.622   6.635 -0.2886  0.3367  0.0484
 5982SOL    HW219954   0.692   3.546   6.585 -0.5523  0.0664 -0.1786
 5983SOL     OW19955   3.709   0.429   3.791  0.6524  0.0524  1.0993
 5983SOL    HW119956   3.722   0.344   3.750  2.0016  0.2949  0.9686
 5983SOL    HW219957   3.690   0.488   3.718 -3.0462 -0.5398  1.3890
 5984SOL     OW19958   3.391   4.495   8.266 -0.7525 -0.2415 -1.1564
 5984SOL    HW119959   3.301   4.517   8.243 -0.3419  0.7824 -1.8995
 5984SOL    HW219960   3.411   4.419   8.213 -1.3446 -0.8131 -0.5783
 5985SOL     OW19961   5.023   3.768  10.733 -0.0422 -0.2665 -0.5643
 5985SOL    HW119962   5.003   3.753  10.826  1.6756  1.3563  0.1278
 5985SOL    HW219963   4.937   3.781  10.692 -0.9361 -2.1981  0.5116
 5986SOL     OW19964   2.805   2.665   6.242 -0.0634  0.2153  0.0640
 5986SOL    HW119965   2.739   2.690   6.177 -0.9978 -0.0332  0.8922
 5986SOL    HW219966   2.828   2.575   6.218 -1.1767 -0.2537  0.6672
 5987SOL     OW19967   6.795   5.086   3.852 -0.5144  0.3162  0.1587
 5987SOL    HW119968   6.795   5.020   3.783 -0.9733  0.9190 -0.4277
 5987SOL    HW219969   6.761   5.165   3.810  1.2358  1.3013  0.5049
 5988SOL     OW19970   8.509   5.269   8.295 -0.1204 -0.0163 -0.1937
 5988SOL    HW119971   8.419   5.299   8.278 -0.0064  0.9040  0.7690
 5988SOL    HW219972   8.514   5.185   8.250 -1.9154 -0.7572  0.8610
 5989SOL     OW19973   7.735   3.893   5.339  1.1664  0.3113 -0.1545
 5989SOL    HW119974   7.770   3.842   5.413 -3.2680  0.8164  2.6807
 5989SOL    HW219975   7.785   3.975   5.340  1.0780  0.4088  2.5590
 5990SOL     OW19976   6.815   7.658   3.194 -0.6129 -0.1202 -0.4687
 5990SOL    HW119977   6.832   7.590   3.128 -1.3392 -0.9184  0.1496
 5990SOL    HW219978   6.769   7.612   3.264  0.3060  0.6821  0.6819
 5991SOL     OW19979   6.706   2.425   2.889  0.0529 -0.0842  0.1095
 5991SOL    HW119980   6.741   2.336   2.881 -2.0760 -1.0348  0.6683
 5991SOL    HW219981   6.614   2.417   2.865  0.2920  2.4613 -2.1395
 5992SOL     OW19982   8.155   6.440  10.737  0.0173  0.3299  0.1106
 5992SOL    HW119983   8.133   6.514  10.680  0.2522 -1.4433 -2.4896
 5992SOL    HW219984   8.070   6.405  10.765 -0.1031  1.1645  0.8288
 5993SOL     OW19985   9.211   9.459   6.340  0.2014 -0.8462  0.1963
 5993SOL    HW119986   9.285   9.437   6.396 -0.0337  2.0524  1.8313
 5993SOL    HW219987   9.136   9.414   6.379  0.3716 -0.3116  1.1651
 5994SOL     OW19988   9.534   2.194   8.067  0.4578  0.4320  0.1912
 5994SOL    HW119989   9.593   2.240   8.128 -0.3700  1.2286  0.4051
 5994SOL    HW219990   9.459   2.253   8.057 -0.2175 -0.4812 -0.2335
 5995SOL     OW19991   8.237   7.843   7.859 -0.1591  0.3296 -0.0613
 5995SOL    HW119992   8.230   7.930   7.820  0.6272  0.5808  0.3257
 5995SOL    HW219993   8.206   7.855   7.949 -1.6471 -0.1708 -0.4874
 5996SOL     OW19994   2.145   7.739   6.449  0.5794 -0.5240 -0.0949
 5996SOL    HW119995   2.211   7.670   6.442  0.9601 -0.0279 -1.8495
 5996SOL    HW219996   2.102   7.741   6.363 -1.1527 -0.2521  0.7200
 5997SOL     OW19997   8.929   5.076   5.395 -0.1430 -0.2812  0.3296
 5997SOL    HW119998   8.908   5.129   5.472 -2.0764 -2.1259  1.1845
 5997SOL    HW219999   8.870   5.001   5.401 -0.3165 -0.5637 -2.9136
 5998SOL     OW20000   5.226   3.722   5.146  0.3182 -0.4307  0.4281
 5998SOL    HW120001   5.141   3.753   5.176  0.3280 -0.3798  0.4017
 5998SOL    HW220002   5.232   3.633   5.182  0.0633 -0.5989  0.0602
 5999SOL     OW20003   9.309   2.366   2.604 -0.4634  0.3565 -0.4170
 5999SOL    HW120004   9.382   2.365   2.542  0.5715 -1.3478  0.7580
 5999SOL    HW220005   9.350   2.383   2.688 -1.6933  1.3401  0.0126
 6000SOL     OW20006   7.933   7.448   4.335 -0.9079 -0.3126  0.9712
 6000SOL    HW120007   7.982   7.521   4.373  0.0366  0.0711 -0.8566
 6000SOL    HW220008   7.995   7.408   4.273 -2.0711 -1.4493  0.4982
 6001SOL     OW20009   5.518   1.067   8.970 -0.0094 -0.1600  0.0954
 6001SOL    HW120010   5.470   0.985   8.970  0.6003 -0.5338  1.4191
 6001SOL    HW220011   5.526   1.090   8.877 -0.6854 -1.2784 -0.2550
 6002SOL     OW20012   4.061  10.961   8.877 -0.3785 -0.2503 -0.1542
 6002SOL    HW120013   4.058  10.875   8.834 -0.7406  0.0924 -0.8259
 6002SOL    HW220014   4.102  11.019   8.813 -1.1812  0.3305 -0.1598
 6003SOL     OW20015   2.840   9.471   9.592  0.4492 -0.2142 -0.9026
 6003SOL    HW120016   2.827   9.504   9.681  0.7938 -0.1220 -0.8827
 6003SOL    HW220017   2.823   9.378   9.598  0.9674 -0.2961 -0.6257
 6004SOL     OW20018  10.287   5.316   0.792 -0.4021  0.0186  0.0698
 6004SOL    HW120019  10.270   5.227   0.761 -1.1380  0.2650 -0.2543
 6004SOL    HW220020  10.376   5.312   0.828 -0.2576 -0.7398 -0.3399
 6005SOL     OW20021  10.931   7.638   4.885  0.0098  0.3538 -0.1912
 6005SOL    HW120022  11.005   7.643   4.824 -0.5743 -1.3019 -1.0876
 6005SOL    HW220023  10.879   7.565   4.854 -1.1591  0.4574  1.3983
 6006SOL     OW20024  10.721   1.921   0.528  0.3816  0.0952 -0.2300
 6006SOL    HW120025  10.711   1.866   0.450 -0.5991  1.2146 -0.9098
 6006SOL    HW220026  10.741   2.008   0.494  3.0985  0.0092  0.8569
 6007SOL     OW20027   5.567   1.808   0.436 -0.1966  0.1976  0.1297
 6007SOL    HW120028   5.474   1.832   0.441 -0.4905 -0.7690 -0.3367
 6007SOL    HW220029   5.610   1.887   0.401 -1.0101  0.3155 -0.6611
 6008SOL     OW20030   3.985   8.569   4.550 -0.4889 -0.1122 -0.2214
 6008SOL    HW120031   3.960   8.532   4.466 -0.1279  1.5805 -1.1255
 6008SOL    HW220032   3.968   8.663   4.541  0.8092  0.2929  1.1289
 6009SOL     OW20033   1.059   3.175   1.029  0.1576 -0.0341  0.7531
 6009SOL    HW120034   1.127   3.203   0.967 -2.0239  1.9630 -0.9112
 6009SOL    HW220035   1.074   3.228   1.107  1.5755 -0.9567  1.1489
 6010SOL     OW20036   7.578   4.341   7.275  0.1513  0.2286 -0.2884
 6010SOL    HW120037   7.575   4.434   7.295  2.3615  0.3448 -0.2287
 6010SOL    HW220038   7.598   4.337   7.181  0.9450 -0.1564 -0.1132
 6011SOL     OW20039   5.098   8.831   1.358 -0.3316 -0.2558 -0.6707
 6011SOL    HW120040   5.136   8.769   1.421  0.6150 -1.2110 -2.1132
 6011SOL    HW220041   5.005   8.808   1.355  0.3685 -3.3852 -2.9656
 6012SOL     OW20042   8.671   4.502   8.804  0.5628  0.3318 -0.3768
 6012SOL    HW120043   8.608   4.436   8.833  1.8101 -0.2162  1.2137
 6012SOL    HW220044   8.754   4.475   8.843  1.1066  2.8368  0.3989
 6013SOL     OW20045   3.744  10.284   8.186 -0.0949 -0.5637  0.0301
 6013SOL    HW120046   3.791  10.366   8.171  2.4124 -1.4483  2.1785
 6013SOL    HW220047   3.659  10.296   8.144 -0.9105  4.1777  2.3648
 6014SOL     OW20048   3.106   0.452   8.270 -0.4750  0.5922 -0.8221
 6014SOL    HW120049   3.166   0.454   8.344 -0.4057  0.7419 -0.8839
 6014SOL    HW220050   3.039   0.388   8.295 -0.2058  0.3086 -0.8184
 6015SOL     OW20051   2.390   9.763   4.121  0.5677  0.6288  0.2310
 6015SOL    HW120052   2.398   9.813   4.040  0.2231  0.2819 -0.0220
 6015SOL    HW220053   2.437   9.815   4.186  3.3952 -0.4680 -0.7714
 6016SOL     OW20054   6.341  10.166   5.114 -0.1577 -0.1253 -0.4185
 6016SOL    HW120055   6.303  10.240   5.068 -0.7422 -0.9468 -1.2951
 6016SOL    HW220056   6.324  10.091   5.057 -0.6875 -1.1415  1.0204
 6017SOL     OW20057   8.222   2.020   3.521  0.4939 -0.5824  0.0148
 6017SOL    HW120058   8.298   2.078   3.511 -0.9987  1.7193  0.9722
 6017SOL    HW220059   8.255   1.946   3.572  2.4882 -0.5812 -1.1762
 6018SOL     OW20060   6.252   0.905   2.647  0.2167 -0.1494 -0.1202
 6018SOL    HW120061   6.220   0.858   2.724  0.1630  0.9289  0.5367
 6018SOL    HW220062   6.180   0.901   2.585  0.2884 -1.0936 -0.1567
 6019SOL     OW20063   0.387   0.389   0.739  0.4340 -0.2098 -0.4699
 6019SOL    HW120064   0.481   0.374   0.725  0.6633 -0.5298  1.2269
 6019SOL    HW220065   0.361   0.448   0.668  1.4826 -1.6130 -2.0958
 6020SOL     OW20066   6.924   6.476   8.607 -0.1389  0.8203  0.4228
 6020SOL    HW120067   6.884   6.389   8.603  0.5322  0.5619 -1.7863
 6020SOL    HW220068   7.016   6.459   8.627 -0.4604  1.2204  2.4244
 6021SOL     OW20069   0.145   5.555   8.589  0.1342  0.0061  0.1339
 6021SOL    HW120070   0.093   5.556   8.669  1.5444 -1.1697  1.1093
 6021SOL    HW220071   0.233   5.577   8.617  0.4238  0.7425 -1.2920
 6022SOL     OW20072   3.232   7.002   2.794  0.4620 -0.0014  0.0932
 6022SOL    HW120073   3.295   7.061   2.751  0.5453 -0.9947 -1.2187
 6022SOL    HW220074   3.149   7.019   2.749  1.0912 -2.9993 -2.6138
 6023SOL     OW20075   1.775   9.350   1.133 -0.2280  0.3817  0.5733
 6023SOL    HW120076   1.730   9.426   1.096  0.6873  0.7308  0.1516
 6023SOL    HW220077   1.753   9.351   1.226 -0.7922  0.7549  0.4366
 6024SOL     OW20078   9.602   0.675   3.957 -0.0845 -0.1545 -0.2016
 6024SOL    HW120079   9.559   0.606   3.907 -0.7253  1.4014 -1.8858
 6024SOL    HW220080   9.682   0.695   3.908  2.5251 -2.6236  2.5857
 6025SOL     OW20081   2.102   8.655   9.883  0.0289 -0.4015 -0.3359
 6025SOL    HW120082   2.180   8.601   9.899 -0.2484 -0.6778  0.1077
 6025SOL    HW220083   2.132   8.723   9.824  0.6725 -0.3671  0.0191
 6026SOL     OW20084   1.136   9.406   7.023 -0.1742 -0.4021  0.3243
 6026SOL    HW120085   1.057   9.429   6.974  0.0756  0.3744  0.2669
 6026SOL    HW220086   1.191   9.361   6.959  0.5617  1.4683 -0.4290
 6027SOL     OW20087   9.695   9.703   9.744 -0.5274  0.3045  0.1417
 6027SOL    HW120088   9.658   9.760   9.812 -1.7925 -0.4392  0.1017
 6027SOL    HW220089   9.716   9.622   9.789 -1.5118 -0.2487 -0.3482
 6028SOL     OW20090   3.410   1.479   0.605  0.5322 -1.0240 -0.4210
 6028SOL    HW120091   3.501   1.502   0.626  0.9086 -1.9783 -0.9267
 6028SOL    HW220092   3.357   1.538   0.658  1.4162  1.6035 -2.2861
 6029SOL     OW20093   0.484   5.026   8.214  0.8110 -0.0537 -0.9608
 6029SOL    HW120094   0.432   4.968   8.270 -0.2569  1.3081 -0.5030
 6029SOL    HW220095   0.570   5.028   8.256  0.1970  0.4741  0.3123
 6030SOL     OW20096   1.586   0.309   2.672 -0.2240 -0.9109  0.0236
 6030SOL    HW120097   1.626   0.236   2.626 -0.0602 -0.0014 -1.3620
 6030SOL    HW220098   1.659   0.356   2.712 -0.1899 -0.7664 -0.2081
 6031SOL     OW20099   6.225   4.671   6.630 -0.6557 -0.0864 -0.2811
 6031SOL    HW120100   6.178   4.674   6.547 -0.9562 -2.3073 -0.2434
 6031SOL    HW220101   6.304   4.619   6.612  0.1179  0.7992  0.4484
 6032SOL     OW20102   6.418   7.084   6.042 -0.1430  0.0731 -0.9429
 6032SOL    HW120103   6.375   7.135   6.109  0.9649 -0.2058  0.0271
 6032SOL    HW220104   6.466   7.148   5.989 -0.5205  0.2339 -1.0923
 6033SOL     OW20105   0.357   3.346   8.312 -0.1354  0.5675  0.2819
 6033SOL    HW120106   0.310   3.369   8.392 -0.6570  0.2991  0.0580
 6033SOL    HW220107   0.299   3.286   8.266  0.0815  0.8578 -0.3891
 6034SOL     OW20108   8.464   7.104   3.711 -0.2308  0.6547 -0.4950
 6034SOL    HW120109   8.540   7.050   3.690 -0.2695  0.2443  0.3632
 6034SOL    HW220110   8.418   7.055   3.780 -1.0765  1.0660 -0.7490
 6035SOL     OW20111   7.469   5.762   6.506  0.4549 -0.0502 -0.6703
 6035SOL    HW120112   7.553   5.798   6.535 -0.0659  0.5770  0.0863
 6035SOL    HW220113   7.488   5.670   6.486  1.0825 -0.2069  0.5819
 6036SOL     OW20114  10.455   0.532   4.234 -0.3486  0.3795 -0.2410
 6036SOL    HW120115  10.371   0.497   4.263  0.1431  0.1825  1.0066
 6036SOL    HW220116  10.465   0.614   4.283  0.1265  0.4738 -0.4860
 6037SOL     OW20117   1.948  10.841   1.547 -0.1530 -0.2276 -0.2636
 6037SOL    HW120118   2.019  10.784   1.517  0.2066  0.4657 -0.7627
 6037SOL    HW220119   1.983  10.883   1.625 -0.3617 -0.5742  0.0183
 6038SOL     OW20120   4.321   2.908   9.626  0.2521 -0.2350  0.4420
 6038SOL    HW120121   4.372   2.986   9.646  0.4967 -0.6889  1.6718
 6038SOL    HW220122   4.231   2.940   9.619  0.5036  0.3390 -0.2768
 6039SOL     OW20123   8.669   6.770   1.114 -0.0168 -0.1394  0.1350
 6039SOL    HW120124   8.712   6.855   1.125 -1.5407  0.7767 -0.7196
 6039SOL    HW220125   8.734   6.716   1.068  1.4937  0.0747  1.9018
 6040SOL     OW20126   9.797   5.427   5.524 -0.5964 -0.2106  0.4338
 6040SOL    HW120127   9.806   5.332   5.526  0.2548 -0.3430 -2.8257
 6040SOL    HW220128   9.869   5.459   5.579  2.0153 -1.5369 -1.9127
 6041SOL     OW20129   0.503   6.379   2.647 -1.0594 -0.3911  0.2062
 6041SOL    HW120130   0.485   6.287   2.629  0.9954 -0.8201  0.1399
 6041SOL    HW220131   0.416   6.421   2.647 -2.0369 -2.3194  0.3542
 6042SOL     OW20132  10.855   0.171   0.075  0.0414 -0.2267  0.4384
 6042SOL    HW120133  10.866   0.206  -0.013  2.4328 -0.6349  0.5123
 6042SOL    HW220134  10.777   0.215   0.109  1.1303  2.6954 -0.5707
 6043SOL     OW20135   5.118   9.698   9.015 -0.3526 -0.1626  0.1638
 6043SOL    HW120136   5.074   9.783   9.022  0.0889 -0.0344  1.6717
 6043SOL    HW220137   5.071   9.642   9.077 -0.0033 -0.7413 -0.0900
 6044SOL     OW20138   5.678   2.520   2.151 -0.2307  0.5539 -0.0408
 6044SOL    HW120139   5.621   2.444   2.167 -1.1298  1.3341  0.5570
 6044SOL    HW220140   5.748   2.511   2.215  0.4291 -0.4830 -0.8618
 6045SOL     OW20141   2.687   0.543   7.810 -0.2014 -0.5475  0.4863
 6045SOL    HW120142   2.705   0.486   7.735  1.7365  0.0023  0.4815
 6045SOL    HW220143   2.756   0.522   7.873 -1.1467 -0.2110  1.6820
 6046SOL     OW20144   2.590   0.843   3.595 -0.4495 -0.3995 -1.1074
 6046SOL    HW120145   2.597   0.790   3.515  1.8998 -2.4203  0.2763
 6046SOL    HW220146   2.539   0.789   3.655  0.0709 -0.1201 -0.4027
 6047SOL     OW20147   0.818   6.727   2.417 -0.2845 -0.6730 -0.3046
 6047SOL    HW120148   0.897   6.683   2.384 -0.6419 -0.2046 -1.8278
 6047SOL    HW220149   0.774   6.660   2.469  1.5209 -0.7030  1.3271
 6048SOL     OW20150   0.433   3.220  10.589 -0.7679  0.2341 -0.1014
 6048SOL    HW120151   0.506   3.263  10.634 -0.1378 -1.2601  0.3525
 6048SOL    HW220152   0.453   3.232  10.496 -0.1623  0.2060  0.0162
 6049SOL     OW20153   3.402   2.858   7.790 -0.0843  0.0050 -0.0938
 6049SOL    HW120154   3.308   2.868   7.805 -0.0488  0.7661 -0.3344
 6049SOL    HW220155   3.424   2.927   7.728  0.5502 -0.4605 -0.3979
 6050SOL     OW20156   6.196   5.333   7.399  0.4075  0.6135 -0.4047
 6050SOL    HW120157   6.277   5.283   7.392  0.3809  0.6857 -1.4005
 6050SOL    HW220158   6.127   5.267   7.406  0.6059  0.5548  1.4873
 6051SOL     OW20159   9.717   6.033   9.903 -0.2535  0.2834  0.1473
 6051SOL    HW120160   9.769   6.021   9.982  0.1032  0.3629 -0.0709
 6051SOL    HW220161   9.697   6.126   9.901 -0.2847  0.2764  0.1610
 6052SOL     OW20162   6.799   7.173   7.711  0.4971 -0.2262  0.3456
 6052SOL    HW120163   6.756   7.095   7.675  0.4161  0.0775 -0.2324
 6052SOL    HW220164   6.795   7.161   7.806 -1.5446  0.1334  0.3615
 6053SOL     OW20165  10.403   3.586   1.109  0.1951 -0.4104 -0.0551
 6053SOL    HW120166  10.443   3.549   1.030  1.4859 -1.3466  0.9948
 6053SOL    HW220167  10.471   3.643   1.146 -0.0410 -0.7249  0.8821
 6054SOL     OW20168   0.666   6.227   4.422 -0.9920 -0.3276 -0.0196
 6054SOL    HW120169   0.636   6.317   4.437 -0.2869 -0.0484 -0.2357
 6054SOL    HW220170   0.622   6.176   4.490 -1.0681  0.2450  0.3741
 6055SOL     OW20171   4.813   2.493   8.480  0.6691  0.1887  0.2268
 6055SOL    HW120172   4.888   2.507   8.539  0.3338 -0.4184  0.8139
 6055SOL    HW220173   4.822   2.402   8.452 -0.2002 -0.0896  0.8166
 6056SOL     OW20174   6.734  10.632   7.904  0.3842 -0.6703 -0.6463
 6056SOL    HW120175   6.656  10.674   7.939  0.6465 -0.7944  0.1185
 6056SOL    HW220176   6.702  10.551   7.865  0.2474 -1.3394  0.7674
 6057SOL     OW20177   5.401   2.988   1.404 -0.6789 -0.6193 -0.5851
 6057SOL    HW120178   5.413   3.011   1.312 -0.0051 -1.0566 -0.6180
 6057SOL    HW220179   5.407   2.893   1.406 -0.5103 -0.6032 -0.0693
 6058SOL     OW20180   8.146   8.201   7.604 -0.4615  0.0307 -0.1919
 6058SOL    HW120181   8.161   8.187   7.697 -0.0272 -1.4772 -0.4681
 6058SOL    HW220182   8.204   8.139   7.560  0.1600  1.4741 -1.5064
 6059SOL     OW20183   4.404   3.327   6.697  0.2764 -0.4258 -0.6917
 6059SOL    HW120184   4.312   3.300   6.700 -0.0936  0.8941  0.7683
 6059SOL    HW220185   4.423   3.359   6.785  2.0164 -0.2500 -1.0980
 6060SOL     OW20186  10.804   2.215   8.594 -0.4898 -0.0491 -0.0490
 6060SOL    HW120187  10.709   2.220   8.608 -0.5356 -0.1150 -0.3319
 6060SOL    HW220188  10.831   2.306   8.582 -0.4907 -0.0151  0.1960
 6061SOL     OW20189   5.683   5.549   3.345  0.3818 -0.8878 -0.2833
 6061SOL    HW120190   5.726   5.616   3.291 -1.4015  1.4040  0.9609
 6061SOL    HW220191   5.717   5.565   3.433 -0.4681 -1.2720  0.1229
 6062SOL     OW20192   5.906   4.169   5.245  0.0379 -0.2407  0.0986
 6062SOL    HW120193   5.878   4.239   5.305  0.6117  0.3709 -0.3373
 6062SOL    HW220194   5.899   4.089   5.297 -0.9093  0.1027  0.5127
 6063SOL     OW20195   9.358   8.462   8.228  0.0632  0.4754  0.6630
 6063SOL    HW120196   9.294   8.420   8.285  0.8007  1.3893  2.2454
 6063SOL    HW220197   9.355   8.555   8.252  0.3998  0.9030 -0.8185
 6064SOL     OW20198   3.602   6.349   3.984 -0.0643 -0.0467  0.1431
 6064SOL    HW120199   3.513   6.384   3.993 -0.3524 -0.9148  0.8193
 6064SOL    HW220200   3.612   6.288   4.058  1.1056  0.0553  0.0934
 6065SOL     OW20201   5.971   1.348   2.748 -0.0756  0.4889  0.1277
 6065SOL    HW120202   5.952   1.295   2.671 -0.1848  0.1941  0.3522
 6065SOL    HW220203   5.890   1.398   2.763 -0.5100 -0.3645  0.7650
 6066SOL     OW20204   4.973  10.050   7.286  0.0425  0.5351  0.2678
 6066SOL    HW120205   4.948   9.958   7.297 -2.9774  1.2712  0.4197
 6066SOL    HW220206   5.045  10.047   7.224  0.1949 -1.9514  0.4339
 6067SOL     OW20207   7.836  10.099   0.871  0.5736  0.3582 -1.1643
 6067SOL    HW120208   7.850  10.149   0.952  0.4276  0.6638 -1.3257
 6067SOL    HW220209   7.807  10.013   0.901 -0.8582  0.8954 -0.8984
 6068SOL     OW20210   0.021   9.525   2.180  0.3102 -0.0527 -0.4085
 6068SOL    HW120211   0.042   9.531   2.273 -0.4094 -0.8243 -0.1891
 6068SOL    HW220212  -0.069   9.492   2.178  0.8649 -1.6030 -1.3933
 6069SOL     OW20213   7.464   6.998   0.009 -0.5082  0.1283 -0.0810
 6069SOL    HW120214   7.378   7.036   0.027 -0.2476  0.2600  0.9850
 6069SOL    HW220215   7.447   6.926  -0.052 -1.7108 -1.3086  1.8154
 6070SOL     OW20216   5.388   2.013   7.957  0.4831  0.2964 -0.4862
 6070SOL    HW120217   5.465   2.023   7.902  0.3429 -2.3888 -1.3512
 6070SOL    HW220218   5.314   2.011   7.896 -0.2164  1.8880  0.2468
 6071SOL     OW20219   5.311   1.398   5.537  0.0703 -0.1637  0.7058
 6071SOL    HW120220   5.335   1.359   5.453  2.0750 -1.8922  1.9764
 6071SOL    HW220221   5.249   1.336   5.575 -1.5073  1.0480  0.1960
 6072SOL     OW20222   8.098   8.776   1.130 -0.3984 -0.5203 -0.0136
 6072SOL    HW120223   8.053   8.762   1.213  0.3325 -3.0422  0.0442
 6072SOL    HW220224   8.086   8.695   1.082  1.2308 -0.0225 -1.3727
 6073SOL     OW20225  10.894   8.360   7.014 -0.2343 -0.2677  0.4946
 6073SOL    HW120226  10.877   8.447   7.049  1.9901 -0.5408  2.4112
 6073SOL    HW220227  10.909   8.305   7.090 -0.4140 -2.0991 -0.7206
 6074SOL     OW20228   8.601   4.418   7.303  0.0938  0.4737  0.4576
 6074SOL    HW120229   8.690   4.453   7.309  0.9179 -1.0590 -1.5486
 6074SOL    HW220230   8.569   4.418   7.393  1.6555  2.1497  1.0909
 6075SOL     OW20231   9.421   8.578   4.815  0.3653 -0.2095 -0.0481
 6075SOL    HW120232   9.341   8.628   4.832 -1.5787 -2.6762 -1.1245
 6075SOL    HW220233   9.438   8.532   4.898 -1.6584 -2.5309 -0.7892
 6076SOL     OW20234   6.297   7.780   5.388 -0.6187  0.4010 -0.0536
 6076SOL    HW120235   6.360   7.829   5.334 -0.0587 -1.8358 -1.5379
 6076SOL    HW220236   6.339   7.774   5.474  0.3036  0.5822 -0.4832
 6077SOL     OW20237  10.057   4.805   0.974  0.0978  1.1073 -0.4238
 6077SOL    HW120238  10.107   4.826   0.895  0.4910 -2.1231 -1.1561
 6077SOL    HW220239  10.120   4.817   1.045  0.7910  0.7171 -0.9562
 6078SOL     OW20240   7.631   0.211   5.979 -0.4631  0.0522  0.3180
 6078SOL    HW120241   7.570   0.236   5.910  1.1265  0.3055 -1.0507
 6078SOL    HW220242   7.617   0.117   5.992  0.1536 -0.3020 -1.3603
 6079SOL     OW20243   2.304   7.945   9.792  0.2017  0.0394 -0.5540
 6079SOL    HW120244   2.320   7.953   9.698 -0.1764  0.1962 -0.6086
 6079SOL    HW220245   2.208   7.951   9.800  0.1221 -1.3319 -0.2893
 6080SOL     OW20246   0.392   7.610   4.909  0.5740 -0.1623  0.3442
 6080SOL    HW120247   0.372   7.667   4.835  1.2326 -0.7795 -0.3232
 6080SOL    HW220248   0.328   7.634   4.976 -0.7101 -0.3117 -0.7983
 6081SOL     OW20249   7.469   8.157   5.522 -0.1674  0.0769 -0.3096
 6081SOL    HW120250   7.376   8.140   5.532 -0.7040  2.9644  0.4861
 6081SOL    HW220251   7.503   8.080   5.477 -2.7214 -1.4956  0.2729
 6082SOL     OW20252   2.104   1.450   5.418 -0.1526  0.2117  0.4601
 6082SOL    HW120253   2.052   1.433   5.340 -1.6828  1.5879  1.1066
 6082SOL    HW220254   2.148   1.534   5.400 -1.1042  0.9258  1.3137
 6083SOL     OW20255   4.925   1.927  10.309  0.1240 -0.1337  0.0526
 6083SOL    HW120256   4.924   1.991  10.381  1.6100  0.2312 -0.2153
 6083SOL    HW220257   4.978   1.968  10.241  1.7696 -1.9273  0.1620
 6084SOL     OW20258   8.370   7.209   4.463  0.2858  0.4940  0.6069
 6084SOL    HW120259   8.365   7.275   4.395  0.4207 -1.8211 -1.8195
 6084SOL    HW220260   8.293   7.153   4.448  2.0359 -1.9695  0.1484
 6085SOL     OW20261   0.872  10.108   7.310 -0.0404  0.2762  0.0229
 6085SOL    HW120262   0.815  10.185   7.315 -0.0787  0.1563  1.7424
 6085SOL    HW220263   0.833  10.054   7.241 -1.0432  0.9573  0.0382
 6086SOL     OW20264  10.734   1.140   4.221 -0.2688  0.1502 -0.1394
 6086SOL    HW120265  10.685   1.062   4.197 -1.3887  0.7121  0.2683
 6086SOL    HW220266  10.693   1.170   4.302 -1.4763  2.5430 -1.5337
 6087SOL     OW20267  10.226   7.380   5.664 -0.7968  0.5613 -0.5413
 6087SOL    HW120268  10.254   7.413   5.578  0.0552  0.0023 -0.4942
 6087SOL    HW220269  10.230   7.285   5.655  0.1515  0.4940  0.3803
 6088SOL     OW20270   9.197  10.688   8.363 -0.0590 -0.0819  0.0636
 6088SOL    HW120271   9.129  10.630   8.330  1.0726 -1.2013 -0.3872
 6088SOL    HW220272   9.256  10.631   8.412  1.3631  0.5663 -0.8291
 6089SOL     OW20273   5.178   8.924   9.963 -0.0541  0.0699 -0.6664
 6089SOL    HW120274   5.247   8.989   9.968 -1.5592  1.7649 -1.1604
 6089SOL    HW220275   5.178   8.895   9.872 -0.1084  0.1826 -0.7018
 6090SOL     OW20276   7.543   4.766   4.052 -0.5446 -0.5051  0.0989
 6090SOL    HW120277   7.600   4.692   4.034 -0.2198 -0.2244 -0.0315
 6090SOL    HW220278   7.481   4.733   4.117 -0.5267 -0.9491 -0.1065
 6091SOL     OW20279   0.563   0.214   7.239 -0.3996 -0.1647 -0.2030
 6091SOL    HW120280   0.614   0.293   7.253 -0.0188 -0.3873 -0.3316
 6091SOL    HW220281   0.566   0.167   7.322 -2.1580  0.8194  0.4825
 6092SOL     OW20282   0.569   9.269  10.490 -0.1306 -0.2962 -0.2764
 6092SOL    HW120283   0.500   9.301  10.430  2.1613  1.2138 -2.2991
 6092SOL    HW220284   0.561   9.326  10.566 -1.7814 -0.8793  0.0434
 6093SOL     OW20285   5.657   6.895   1.802  0.1491 -0.6027 -0.4292
 6093SOL    HW120286   5.563   6.898   1.822  0.1528 -2.2336 -0.0860
 6093SOL    HW220287   5.694   6.967   1.854 -1.0814  1.1253 -1.7910
 6094SOL     OW20288   6.690   8.645   4.912  0.2373 -0.1491 -0.3898
 6094SOL    HW120289   6.604   8.652   4.869 -0.0477  1.0193  0.3176
 6094SOL    HW220290   6.741   8.588   4.854 -0.8252 -0.3987 -1.1228
 6095SOL     OW20291   8.186  10.059   1.167 -0.2106 -0.3795 -0.3195
 6095SOL    HW120292   8.120   9.995   1.141  0.2899 -0.0393 -2.6969
 6095SOL    HW220293   8.260  10.042   1.107  0.8832  0.8504  0.6283
 6096SOL     OW20294   6.705   0.748   2.332 -0.5620  0.4104 -0.4296
 6096SOL    HW120295   6.619   0.744   2.291 -0.3274  0.3503 -0.9198
 6096SOL    HW220296   6.686   0.759   2.425 -1.1261 -1.6760 -0.2575
 6097SOL     OW20297  10.201   2.127   4.665  0.0181 -0.4073  0.3815
 6097SOL    HW120298  10.284   2.122   4.618 -1.5408 -1.7226 -2.4632
 6097SOL    HW220299  10.156   2.202   4.626 -0.6247 -0.4423  1.0352
 6098SOL     OW20300   1.838   9.066   1.136 -0.5555  0.3115 -0.1633
 6098SOL    HW120301   1.844   9.161   1.142  0.8573  0.2394 -0.0121
 6098SOL    HW220302   1.744   9.048   1.137 -0.8594  1.7198 -0.6218
 6099SOL     OW20303   6.379   8.496   1.078 -1.0429 -0.0136 -0.4003
 6099SOL    HW120304   6.317   8.569   1.073 -0.4282  0.4715 -1.1949
 6099SOL    HW220305   6.339   8.427   1.026 -0.8666  0.3440 -1.0188
 6100SOL     OW20306   3.817   8.124   2.333  0.0650 -0.3436  0.0795
 6100SOL    HW120307   3.813   8.193   2.266  0.4836 -0.2244  0.1755
 6100SOL    HW220308   3.765   8.158   2.406  0.2265 -0.1541  0.1056
 6101SOL     OW20309   7.346   0.801   6.418  0.2089 -0.3443  0.1574
 6101SOL    HW120310   7.379   0.884   6.451 -0.4940 -0.2355  0.6055
 6101SOL    HW220311   7.352   0.809   6.323  0.9318 -0.1145  0.2129
 6102SOL     OW20312   0.251   7.520   2.562 -0.2904  0.3875  0.2674
 6102SOL    HW120313   0.300   7.556   2.488 -0.6281  0.2743 -0.0082
 6102SOL    HW220314   0.204   7.445   2.526 -2.3966  1.7556  0.0156
 6103SOL     OW20315  10.773   7.587   3.944  0.1078 -0.0210  0.2071
 6103SOL    HW120316  10.711   7.644   3.900  0.9189  0.5379 -0.2393
 6103SOL    HW220317  10.839   7.567   3.878  0.7858 -0.0262  0.8627
 6104SOL     OW20318   9.098   4.199   3.416 -0.4719 -0.2632 -0.0995
 6104SOL    HW120319   9.183   4.216   3.375 -0.7229  0.3084 -0.3821
 6104SOL    HW220320   9.051   4.147   3.351 -0.2378 -0.8427  0.1798
 6105SOL     OW20321   9.757   3.930   4.835  0.6940 -0.2679 -0.3684
 6105SOL    HW120322   9.711   4.006   4.799  1.6883  0.0703 -0.9347
 6105SOL    HW220323   9.849   3.953   4.830  0.9408 -0.9602  0.7375
 6106SOL     OW20324   0.586   1.114   0.977 -0.5304 -0.3588 -0.0916
 6106SOL    HW120325   0.679   1.099   0.994 -0.8791 -1.4100  0.9299
 6106SOL    HW220326   0.570   1.072   0.892  0.3023  1.4467 -1.2300
 6107SOL     OW20327  10.221   1.880  10.463  0.4297 -0.0578 -0.2768
 6107SOL    HW120328  10.202   1.940  10.536 -2.2171  0.1459 -1.0228
 6107SOL    HW220329  10.244   1.938  10.390  1.1588 -0.1567 -0.1315
 6108SOL     OW20330   9.700   7.896   9.804 -0.2116 -0.7178 -0.6608
 6108SOL    HW120331   9.676   7.805   9.788  0.4007 -1.0862  0.4161
 6108SOL    HW220332   9.621   7.936   9.840  0.1234 -1.3971  0.9160
 6109SOL     OW20333   9.185   4.840   8.000  0.4099 -0.0297  0.2637
 6109SOL    HW120334   9.120   4.812   8.064  0.5400 -0.1448  0.3476
 6109SOL    HW220335   9.266   4.848   8.051 -0.2192  3.5178  0.9458
 6110SOL     OW20336   0.763   9.787   9.541 -0.2335 -0.5004 -0.0852
 6110SOL    HW120337   0.676   9.749   9.533 -0.4487 -0.2756  1.0031
 6110SOL    HW220338   0.822   9.720   9.507 -0.7806 -0.9353 -0.1831
 6111SOL     OW20339   4.455   7.145   2.021 -0.1683  0.0300  0.0547
 6111SOL    HW120340   4.483   7.220   2.074  0.6746 -1.1142  1.2818
 6111SOL    HW220341   4.435   7.183   1.935 -0.4695  1.7644  0.8449
 6112SOL     OW20342   5.068   9.670   8.305  0.9617 -0.2549  0.3473
 6112SOL    HW120343   5.004   9.693   8.237 -0.1213 -3.5835  0.0360
 6112SOL    HW220344   5.143   9.636   8.257  1.7213  0.7342  0.7962
 6113SOL     OW20345   0.585   5.358   8.808  0.2471  0.4815 -0.3539
 6113SOL    HW120346   0.637   5.438   8.810  3.0010 -1.1696  0.8190
 6113SOL    HW220347   0.648   5.290   8.782 -1.4494 -1.6304  0.7553
 6114SOL     OW20348   4.064   1.629   7.215 -0.3386  0.7510  0.0153
 6114SOL    HW120349   3.971   1.652   7.209 -0.6085 -0.3183 -0.1212
 6114SOL    HW220350   4.067   1.552   7.272 -0.0331 -1.6761 -2.9538
 6115SOL     OW20351   1.481   7.561   4.924  0.3261  0.3847 -0.1568
 6115SOL    HW120352   1.480   7.485   4.866  2.0286 -0.4372  0.8052
 6115SOL    HW220353   1.480   7.637   4.865 -1.3774 -0.3419 -1.1343
 6116SOL     OW20354   1.533  10.169   7.941 -0.0501 -0.0131 -0.0466
 6116SOL    HW120355   1.492  10.101   7.888  1.2484  0.2791 -1.5009
 6116SOL    HW220356   1.605  10.201   7.887 -0.4729  2.3673  0.7031
 6117SOL     OW20357   0.600  10.786   7.490 -0.3499 -0.2326 -0.0325
 6117SOL    HW120358   0.646  10.787   7.574  3.2903  1.1088 -1.8569
 6117SOL    HW220359   0.557  10.700   7.488  1.5052 -1.3225  2.1632
 6118SOL     OW20360   6.102   4.094   0.308 -0.1960  0.2186 -0.8125
 6118SOL    HW120361   6.088   4.049   0.391  1.0428  2.1155  0.4881
 6118SOL    HW220362   6.197   4.098   0.298 -0.2700  2.0873 -1.0957
 6119SOL     OW20363   4.861   5.981  10.645  0.3308  0.8354  0.2949
 6119SOL    HW120364   4.920   5.955  10.574  0.2789  0.1963  0.4739
 6119SOL    HW220365   4.899   6.061  10.681  0.2798  1.2427 -0.5440
 6120SOL     OW20366   0.169   8.515   8.469  0.2950 -0.0319 -0.0629
 6120SOL    HW120367   0.200   8.468   8.391  0.8475  0.0204  0.1245
 6120SOL    HW220368   0.181   8.453   8.541  0.4152  0.1651  0.0869
 6121SOL     OW20369   7.015   4.515   6.466  0.4244 -0.2157 -0.4876
 6121SOL    HW120370   7.035   4.583   6.402 -0.1016 -1.2381 -1.7854
 6121SOL    HW220371   6.919   4.508   6.465  0.2058  1.1192  1.9292
 6122SOL     OW20372   4.155   9.217   4.761  0.1729 -0.4586 -0.7240
 6122SOL    HW120373   4.246   9.185   4.760  0.0322 -0.8998 -0.0280
 6122SOL    HW220374   4.107   9.154   4.707  0.2684 -0.2456 -1.0627
 6123SOL     OW20375   7.444   4.877   4.630  0.0421 -0.2255 -0.3589
 6123SOL    HW120376   7.501   4.946   4.664 -1.0004  0.4139  0.1774
 6123SOL    HW220377   7.417   4.909   4.543 -0.9987  0.4293  0.1718
 6124SOL     OW20378   7.157   7.133   5.685  0.2762 -0.1121  0.4235
 6124SOL    HW120379   7.124   7.166   5.769 -0.4693 -2.3578  1.0960
 6124SOL    HW220380   7.240   7.091   5.707  0.6054  0.2146 -0.1712
 6125SOL     OW20381   7.062   7.064  10.776  0.3834 -0.3530 -0.1321
 6125SOL    HW120382   7.105   7.024  10.852 -0.3538 -1.5093 -0.2990
 6125SOL    HW220383   7.062   7.158  10.795 -1.4281 -0.7276  2.2132
 6126SOL     OW20384   3.063   6.852  10.595 -0.4446  0.1474 -0.3854
 6126SOL    HW120385   3.120   6.775  10.602 -0.4445  0.1220 -0.6504
 6126SOL    HW220386   2.983   6.820  10.553 -0.8222  0.0993  0.3543
 6127SOL     OW20387   3.514   4.127   5.436  0.0361  0.5600 -0.0455
 6127SOL    HW120388   3.422   4.149   5.455  0.2120  1.8878 -0.6525
 6127SOL    HW220389   3.531   4.166   5.350  0.7754 -0.8889 -0.5984
 6128SOL     OW20390   2.524   2.193  10.916 -0.1145  0.5039  0.1099
 6128SOL    HW120391   2.576   2.272  10.905 -2.7863  2.1248 -2.4370
 6128SOL    HW220392   2.437   2.225  10.940 -0.8849 -1.7843  0.6129
 6129SOL     OW20393   9.494   9.356   7.351  0.2270  0.5257 -0.5289
 6129SOL    HW120394   9.403   9.379   7.329  0.4420  2.0937  0.0852
 6129SOL    HW220395   9.537   9.440   7.364  2.6367  0.0077 -3.9151
 6130SOL     OW20396   7.343   2.242   9.326  0.0935 -0.2415 -0.3072
 6130SOL    HW120397   7.326   2.217   9.236  0.7884  2.2151 -1.2058
 6130SOL    HW220398   7.356   2.337   9.323  1.1113 -0.2069  2.2253
 6131SOL     OW20399   8.925   6.746   9.915  0.4179 -0.0272 -0.2354
 6131SOL    HW120400   8.878   6.828   9.897  2.2543  0.9246 -0.9310
 6131SOL    HW220401   8.909   6.693   9.837  1.7041  0.9107 -1.1885
 6132SOL     OW20402   2.928   9.386   4.201  0.0524 -0.0116 -0.5162
 6132SOL    HW120403   2.909   9.296   4.226  1.3382 -0.4582 -1.0646
 6132SOL    HW220404   2.842   9.424   4.182 -0.6258 -0.7225  0.9598
 6133SOL     OW20405   0.942   4.383   6.154 -0.4137 -0.1906 -0.6315
 6133SOL    HW120406   1.036   4.369   6.167 -0.7916 -0.8625  1.7951
 6133SOL    HW220407   0.935   4.411   6.062  2.1729  0.2190 -0.7919
 6134SOL     OW20408   9.076   8.589   4.299  0.4333 -0.4758 -0.5258
 6134SOL    HW120409   9.001   8.635   4.262  0.7541 -0.7630 -1.5801
 6134SOL    HW220410   9.127   8.561   4.223  0.5087 -2.1359  0.0895
 6135SOL     OW20411   0.166   9.774   5.122  0.3089 -0.1300  0.3929
 6135SOL    HW120412   0.172   9.711   5.050 -1.5187  0.8730 -0.7163
 6135SOL    HW220413   0.253   9.814   5.126  0.6680 -0.7468 -0.7572
 6136SOL     OW20414   6.365  11.010   6.614  0.2092  0.0365 -0.1591
 6136SOL    HW120415   6.397  11.032   6.702  0.9601  0.7233 -0.5898
 6136SOL    HW220416   6.354  11.095   6.571  1.3954 -0.3367 -1.2522
 6137SOL     OW20417   4.995   4.863   4.104 -0.5941  0.1391 -0.5137
 6137SOL    HW120418   5.013   4.905   4.188 -0.3419  0.7843 -0.8869
 6137SOL    HW220419   4.903   4.838   4.109  0.0401 -2.3091  1.0316
 6138SOL     OW20420   9.894   8.941   3.731  0.0471  0.1021 -0.2705
 6138SOL    HW120421   9.812   8.972   3.768  1.1407  2.2465  0.5432
 6138SOL    HW220422   9.883   8.951   3.636 -0.1966  1.6791 -0.1076
 6139SOL     OW20423   7.017   4.676   8.027  0.0400 -0.7726 -0.2031
 6139SOL    HW120424   6.972   4.759   8.043 -0.0694 -0.9338  0.3306
 6139SOL    HW220425   6.956   4.627   7.973 -0.0519 -0.6513 -0.2116
 6140SOL     OW20426  10.885   5.063   3.702 -0.1621 -0.0135 -0.3612
 6140SOL    HW120427  10.866   4.971   3.722 -2.5237  0.8498  1.9828
 6140SOL    HW220428  10.802   5.108   3.714  1.3642  2.7707  0.8807
 6141SOL     OW20429   4.584   3.262   4.436  0.4453 -0.2407 -0.2856
 6141SOL    HW120430   4.524   3.294   4.368  0.2818  0.5872  0.2276
 6141SOL    HW220431   4.531   3.202   4.488  0.5946 -0.9457 -0.9286
 6142SOL     OW20432   9.708   9.803   9.274  0.3127  0.2546  0.1266
 6142SOL    HW120433   9.656   9.805   9.355 -0.8387  0.4399 -0.5844
 6142SOL    HW220434   9.669   9.872   9.219  0.8088 -0.1423 -0.7433
 6143SOL     OW20435  10.478   1.986  10.295  0.0440 -0.6584  0.1745
 6143SOL    HW120436  10.513   2.072  10.316 -2.5172  0.5569 -0.1001
 6143SOL    HW220437  10.437   1.997  10.209  0.8343 -2.5525 -0.4973
 6144SOL     OW20438   3.078   2.562   7.791 -0.3243  0.3545  0.7923
 6144SOL    HW120439   3.019   2.563   7.715  0.4126 -0.2002  0.2007
 6144SOL    HW220440   3.093   2.469   7.809  0.7296  0.4881  0.6454
 6145SOL     OW20441   0.437   9.829   9.389  0.3913  0.1208  0.1767
 6145SOL    HW120442   0.370   9.778   9.344 -0.3917  0.6566  0.7226
 6145SOL    HW220443   0.478   9.881   9.319 -1.6061  1.8400  0.1671
 6146SOL     OW20444   0.349   4.680   4.575  0.2760 -0.2803 -0.2075
 6146SOL    HW120445   0.329   4.587   4.565 -2.7322  0.4223 -1.5881
 6146SOL    HW220446   0.417   4.697   4.510  0.2899 -1.3407 -0.4859
 6147SOL     OW20447   6.854  10.517   5.607 -0.2959  0.5144 -0.6383
 6147SOL    HW120448   6.914  10.479   5.543  0.8615  2.2043 -0.6227
 6147SOL    HW220449   6.768  10.483   5.583  0.3273 -0.0323 -2.1853
 6148SOL     OW20450   2.668   9.927   5.764 -0.2474 -0.2645 -0.5081
 6148SOL    HW120451   2.631   9.996   5.709  1.4978  0.2109 -1.1432
 6148SOL    HW220452   2.599   9.861   5.769 -1.2507  0.6713 -1.4631
 6149SOL     OW20453   0.752   6.900   1.014  0.2639  0.1899  0.2714
 6149SOL    HW120454   0.829   6.857   1.053  0.4183  0.9474  0.8140
 6149SOL    HW220455   0.772   6.903   0.920  0.8181  0.2175  0.3856
 6150SOL     OW20456   5.282   0.447   1.109 -0.0129  0.1650  0.0194
 6150SOL    HW120457   5.295   0.534   1.070  1.4019  1.1399  2.4346
 6150SOL    HW220458   5.189   0.444   1.130 -0.8159 -0.3382 -3.0193
 6151SOL     OW20459   7.539   4.614   5.545  0.0319  0.2941  0.1511
 6151SOL    HW120460   7.567   4.671   5.617  0.9555  1.2812 -0.9364
 6151SOL    HW220461   7.479   4.669   5.493  1.0343  0.3563 -0.9881
 6152SOL     OW20462   8.688   2.716   5.255 -0.0391 -0.1564  0.2372
 6152SOL    HW120463   8.708   2.678   5.169  1.1860  0.7423  0.0971
 6152SOL    HW220464   8.706   2.645   5.317  2.5867  0.1780  0.0071
 6153SOL     OW20465   0.928  10.252   5.013 -0.0284 -0.5414  0.2163
 6153SOL    HW120466   0.917  10.167   5.056 -0.1281 -0.6504 -0.0233
 6153SOL    HW220467   0.925  10.316   5.084 -1.0007 -0.6565  0.2836
 6154SOL     OW20468   9.504   4.168   1.912 -0.4954 -0.5685 -0.3031
 6154SOL    HW120469   9.574   4.104   1.923 -0.2206 -0.2729 -0.3353
 6154SOL    HW220470   9.548   4.249   1.888 -0.9095 -0.6263 -1.3278
 6155SOL     OW20471   3.385   5.430   3.047 -0.4403 -0.1657 -0.4961
 6155SOL    HW120472   3.359   5.470   2.963 -2.2447 -1.1418 -0.4336
 6155SOL    HW220473   3.318   5.365   3.065 -0.7453  0.8073  2.3146
 6156SOL     OW20474   6.924   1.323   9.833 -0.3142  0.1818  0.1697
 6156SOL    HW120475   6.883   1.371   9.905  1.1279  1.8813 -0.0836
 6156SOL    HW220476   6.938   1.389   9.765  0.7684 -0.8299 -0.6263
 6157SOL     OW20477  10.755  10.997  10.714 -0.6761  0.0888 -0.1143
 6157SOL    HW120478  10.703  10.922  10.741  0.9235 -1.0150  0.0354
 6157SOL    HW220479  10.838  10.986  10.759 -0.7141  2.4825  0.6741
 6158SOL     OW20480   4.710   5.179   9.521 -0.0933  0.3242 -0.0393
 6158SOL    HW120481   4.759   5.255   9.489 -2.1161  1.8305  0.2301
 6158SOL    HW220482   4.747   5.161   9.607 -0.0783  1.5495  0.2400
 6159SOL     OW20483   7.620   2.668   3.540  0.3564  0.6601 -0.2997
 6159SOL    HW120484   7.593   2.757   3.516  1.0317  0.5597 -1.4716
 6159SOL    HW220485   7.563   2.645   3.613 -0.6648  1.5953 -0.7775
 6160SOL     OW20486   7.188   4.249   1.339 -0.3843  0.1071  0.6539
 6160SOL    HW120487   7.151   4.190   1.273 -2.1917  0.4804  1.2774
 6160SOL    HW220488   7.279   4.264   1.310  0.0966 -2.7976  0.3623
 6161SOL     OW20489   9.116   7.740   9.926 -0.1406  0.6022 -0.7129
 6161SOL    HW120490   9.175   7.668   9.948 -0.4433  0.4211 -0.4832
 6161SOL    HW220491   9.117   7.744   9.831 -0.5500 -0.0648 -0.7485
 6162SOL     OW20492   0.181   7.113  11.021  0.0856 -0.1090 -0.7193
 6162SOL    HW120493   0.109   7.128  10.960  0.0592 -2.3043 -1.2932
 6162SOL    HW220494   0.232   7.042  10.983  1.1889 -0.2378  0.8715
 6163SOL     OW20495   6.093   5.616   1.861  0.1695  0.2412 -0.2210
 6163SOL    HW120496   6.094   5.523   1.881  1.1533  0.5055  1.1484
 6163SOL    HW220497   6.007   5.632   1.822  0.6486 -1.5453 -2.1850
 6164SOL     OW20498  10.891   1.148   8.673  0.1037 -0.5150 -0.3369
 6164SOL    HW120499  10.952   1.222   8.682  0.1878 -0.5549 -0.5601
 6164SOL    HW220500  10.948   1.073   8.655 -0.1324 -0.0406 -3.7110
 6165SOL     OW20501   9.664   5.063   8.977 -0.3593 -0.6564 -0.0143
 6165SOL    HW120502   9.630   5.137   8.926 -0.7133 -0.0892  1.0112
 6165SOL    HW220503   9.589   5.007   8.993 -0.5525 -0.1444  1.0027
 6166SOL     OW20504   8.734   9.440  10.571  0.0930 -0.0441 -0.0223
 6166SOL    HW120505   8.707   9.382  10.500 -2.0643 -0.7679  1.2834
 6166SOL    HW220506   8.731   9.384  10.649  2.3060  0.7495  0.6992
 6167SOL     OW20507   6.214   4.686  10.518 -0.0191 -0.4259 -0.3942
 6167SOL    HW120508   6.123   4.715  10.520  1.1225  3.7881 -1.3835
 6167SOL    HW220509   6.235   4.680  10.425  1.2962  0.9950 -0.2171
 6168SOL     OW20510   6.893   6.700  10.270  0.0373  0.2812 -0.1313
 6168SOL    HW120511   6.802   6.671  10.269 -0.4920  1.8622 -0.7981
 6168SOL    HW220512   6.900   6.755  10.348  0.4724  0.0288  0.0122
 6169SOL     OW20513   0.855   1.631   6.307  0.2025 -0.4361  0.1192
 6169SOL    HW120514   0.807   1.548   6.297 -0.1015 -0.3329  0.6518
 6169SOL    HW220515   0.900   1.643   6.224  0.3696 -1.2144  0.0886
 6170SOL     OW20516   4.497   3.853   2.694 -0.2917 -0.3470 -0.0829
 6170SOL    HW120517   4.434   3.823   2.759 -0.5101 -0.6158 -0.4217
 6170SOL    HW220518   4.582   3.840   2.736 -0.2949 -2.5275 -0.6472
 6171SOL     OW20519   1.989   2.447   5.665 -0.4170 -0.0801 -0.1041
 6171SOL    HW120520   2.023   2.373   5.715  0.0128 -0.7396 -1.3481
 6171SOL    HW220521   2.007   2.523   5.721 -1.7548 -0.9700  1.6457
 6172SOL     OW20522   6.941  10.877   4.272 -0.0498  0.5906  0.0908
 6172SOL    HW120523   6.881  10.884   4.346 -0.7815 -1.5343 -0.2402
 6172SOL    HW220524   7.025  10.852   4.311 -0.6501 -1.4427  0.2065
 6173SOL     OW20525   6.297   8.705   1.647 -0.2667  0.3022 -0.1040
 6173SOL    HW120526   6.257   8.627   1.686 -0.4895 -0.9135 -2.5399
 6173SOL    HW220527   6.225   8.746   1.598  0.5862  0.1915 -1.4906
 6174SOL     OW20528  10.316  10.540   9.678  0.3704 -0.0112 -0.8657
 6174SOL    HW120529  10.359  10.600   9.618  1.6767 -1.1459 -1.1199
 6174SOL    HW220530  10.384  10.477   9.702 -0.4993 -0.4252  0.6871
 6175SOL     OW20531   4.972   6.221   6.130  0.6054 -0.5223 -0.6685
 6175SOL    HW120532   4.938   6.133   6.116 -2.0383  0.1000  1.0730
 6175SOL    HW220533   4.941   6.245   6.217  0.5681  2.4196 -1.3948
 6176SOL     OW20534   4.167   5.550  10.941 -0.2688  0.2352  0.4191
 6176SOL    HW120535   4.183   5.591  11.026  0.4953 -0.2411  0.5144
 6176SOL    HW220536   4.157   5.457  10.961 -0.6532  0.1948  0.0526
 6177SOL     OW20537   2.980   1.267   8.568  0.7234  0.1019  0.1186
 6177SOL    HW120538   3.064   1.283   8.610  0.8727  0.6609 -0.3821
 6177SOL    HW220539   2.996   1.192   8.510  0.7384 -0.1197  0.4047
 6178SOL     OW20540   0.393   5.300  10.538  0.4764 -0.0079  0.1618
 6178SOL    HW120541   0.320   5.353  10.506  0.4431  1.4113  2.3406
 6178SOL    HW220542   0.471   5.339  10.498  0.2199 -0.0541 -0.3835
 6179SOL     OW20543   7.513   6.793   2.304 -0.0800  0.4530  0.0950
 6179SOL    HW120544   7.602   6.762   2.318 -0.1922  0.1815  0.2199
 6179SOL    HW220545   7.520   6.854   2.230  0.0846 -0.1687 -0.4164
 6180SOL     OW20546   7.047   3.509   8.924  0.0742 -0.2232 -0.2132
 6180SOL    HW120547   7.107   3.439   8.951 -0.3176 -1.4249 -2.2047
 6180SOL    HW220548   7.101   3.587   8.920  0.6172 -0.4679  1.6901
 6181SOL     OW20549   1.031   5.010   3.709  0.6148  0.2082 -0.1042
 6181SOL    HW120550   1.071   5.013   3.795  0.8679  4.6662 -0.1219
 6181SOL    HW220551   1.082   4.946   3.660  1.7884 -0.9154  2.4250
 6182SOL     OW20552   4.143   2.181   2.635 -0.6115  0.0272 -0.5504
 6182SOL    HW120553   4.185   2.267   2.630  0.1109  0.0350  3.0657
 6182SOL    HW220554   4.213   2.119   2.610  0.2699  0.2903  1.1535
 6183SOL     OW20555  10.570   6.851   3.776  0.1044 -0.6311  0.0587
 6183SOL    HW120556  10.487   6.811   3.802 -1.0333  0.8964 -1.0576
 6183SOL    HW220557  10.613   6.873   3.858 -1.9844  1.2642  0.7189
 6184SOL     OW20558   9.874  10.815   3.435 -0.0183  0.0861  0.3208
 6184SOL    HW120559   9.958  10.855   3.413  1.2096 -1.7806  1.3655
 6184SOL    HW220560   9.841  10.867   3.507  0.4467  0.5949  0.1733
 6185SOL     OW20561   4.993   2.135   3.845 -0.0083  0.0216  0.1800
 6185SOL    HW120562   5.007   2.146   3.751  0.0660 -0.2722  0.1542
 6185SOL    HW220563   4.898   2.129   3.854 -0.0805  1.0893  0.2479
 6186SOL     OW20564   2.452   0.276   9.218 -0.2589  0.1684 -0.1265
 6186SOL    HW120565   2.522   0.223   9.181  0.1726  0.9144 -0.3922
 6186SOL    HW220566   2.479   0.366   9.203 -2.1892  0.5044 -2.0329
 6187SOL     OW20567   3.038   3.191  10.220 -0.0712  0.1472  0.0158
 6187SOL    HW120568   3.121   3.204  10.265  0.8880 -0.6367 -1.4492
 6187SOL    HW220569   2.974   3.240  10.272  1.0053 -0.5288  2.0611
 6188SOL     OW20570   8.689   9.589   0.547 -0.4136 -0.1972  0.5340
 6188SOL    HW120571   8.753   9.604   0.617  1.4608 -1.6746 -0.7340
 6188SOL    HW220572   8.691   9.668   0.494 -0.7738  0.3582  1.3354
 6189SOL     OW20573   9.790   1.770   4.998  0.1222  0.0313  0.1976
 6189SOL    HW120574   9.853   1.817   5.052 -0.2802  1.1869 -0.3069
 6189SOL    HW220575   9.819   1.679   5.001  0.9832  0.3192  1.1099
 6190SOL     OW20576   0.158   0.036   9.946 -0.1121  0.6503 -0.1655
 6190SOL    HW120577   0.222  -0.033   9.932  0.7381  1.2292  0.7211
 6190SOL    HW220578   0.173   0.098   9.875  0.3050  0.7686  0.0228
 6191SOL     OW20579   8.657  10.731   3.128 -0.1283 -0.4006 -0.3496
 6191SOL    HW120580   8.649  10.684   3.211 -0.5878  0.6934  0.2400
 6191SOL    HW220581   8.713  10.675   3.074 -1.3338 -2.0470  0.0266
 6192SOL     OW20582   1.517   1.957   1.279  0.7361 -0.0870  0.3985
 6192SOL    HW120583   1.428   1.989   1.261 -0.0353 -0.4922  3.0273
 6192SOL    HW220584   1.563   2.033   1.314  1.7819  0.3532 -1.7580
 6193SOL     OW20585  10.838   8.853   8.058  0.3083 -0.6466 -0.2958
 6193SOL    HW120586  10.822   8.931   8.004 -2.1292 -2.6819 -2.7827
 6193SOL    HW220587  10.766   8.853   8.121 -0.1516 -1.2244 -0.8036
 6194SOL     OW20588   1.332   0.474   3.221 -0.0784  0.2066 -0.6954
 6194SOL    HW120589   1.269   0.474   3.293 -1.3254  0.8351 -1.7406
 6194SOL    HW220590   1.366   0.563   3.218  2.4740 -0.5984  1.1501
 6195SOL     OW20591   0.245   5.617  10.938  0.4133  0.3863  0.0105
 6195SOL    HW120592   0.336   5.596  10.919 -0.0370 -0.5294 -1.2913
 6195SOL    HW220593   0.211   5.654  10.857 -0.6359 -0.2104  0.1568
 6196SOL     OW20594   8.614   3.801   9.327 -0.5763  0.6010  0.4096
 6196SOL    HW120595   8.625   3.825   9.235 -0.7921 -1.5565 -0.2571
 6196SOL    HW220596   8.702   3.807   9.364 -0.1933  0.0120 -0.3656
 6197SOL     OW20597   0.608   7.862   3.503 -0.6038 -0.2095  0.4735
 6197SOL    HW120598   0.548   7.835   3.572 -1.1998  0.1752  0.1203
 6197SOL    HW220599   0.678   7.797   3.504  0.9787  1.3247  3.3686
 6198SOL     OW20600   5.369  10.820   0.226 -0.8411  0.1510  0.3435
 6198SOL    HW120601   5.346  10.866   0.145  3.0588  1.3768 -0.2610
 6198SOL    HW220602   5.409  10.886   0.281  0.1746 -1.4823  1.6588
 6199SOL     OW20603   9.386   2.708   1.547  0.2107  0.8337  0.2496
 6199SOL    HW120604   9.424   2.668   1.469 -0.6477 -1.0936  0.7688
 6199SOL    HW220605   9.315   2.762   1.514 -0.7727 -0.7260 -0.2861
 6200SOL     OW20606  10.349   4.965   3.736 -0.2438  0.2594 -0.0866
 6200SOL    HW120607  10.350   4.960   3.831 -0.0832  2.2627  0.0717
 6200SOL    HW220608  10.419   4.905   3.708  0.0014 -0.0210  1.0754
 6201SOL     OW20609   6.505   3.103   3.848  0.2495 -0.2379  0.4385
 6201SOL    HW120610   6.441   3.162   3.886  0.5902  1.0570 -0.8772
 6201SOL    HW220611   6.453   3.036   3.803 -0.2161  0.7019 -0.4742
 6202SOL     OW20612   9.699   2.648   5.002  0.1988 -0.5344  0.2361
 6202SOL    HW120613   9.668   2.581   4.941 -0.5361 -0.0233  0.0258
 6202SOL    HW220614   9.628   2.713   5.004  1.7561  1.3224 -1.1709
 6203SOL     OW20615   2.780   5.210   8.462  0.3577 -0.4168 -0.2054
 6203SOL    HW120616   2.740   5.187   8.378  1.9498  0.0069 -1.1145
 6203SOL    HW220617   2.874   5.208   8.446  0.7709 -1.8094  1.9921
 6204SOL     OW20618   8.545   4.865   1.479  0.0818 -0.5206  0.5070
 6204SOL    HW120619   8.540   4.895   1.570  1.0987  1.2288  0.0339
 6204SOL    HW220620   8.479   4.918   1.434 -0.0116 -0.9686  0.1189
 6205SOL     OW20621   3.482   4.336   6.048  0.5984  0.0615  0.2059
 6205SOL    HW120622   3.558   4.392   6.028  0.5461 -0.0528 -0.3298
 6205SOL    HW220623   3.415   4.397   6.079  0.9359  0.1554  0.7643
 6206SOL     OW20624   7.831   2.189  11.012  0.1125 -0.6735  0.2192
 6206SOL    HW120625   7.865   2.108  11.051 -0.8996 -1.4931 -0.5493
 6206SOL    HW220626   7.828   2.170  10.918 -0.6359  0.0709  0.0906
 6207SOL     OW20627   0.297   8.390   9.075  0.0348  0.2626  0.0780
 6207SOL    HW120628   0.266   8.370   9.163 -0.5505  0.5502 -0.0543
 6207SOL    HW220629   0.217   8.409   9.026  0.3991  0.6692 -0.3655
 6208SOL     OW20630  10.819   6.829   4.744 -0.0526  0.5652 -0.6615
 6208SOL    HW120631  10.890   6.807   4.804 -0.3988  0.5226 -0.2618
 6208SOL    HW220632  10.755   6.875   4.798 -0.6332  0.0139 -0.8704
 6209SOL     OW20633  11.026  10.023  10.320  0.5140  0.2953 -0.1864
 6209SOL    HW120634  10.950  10.043  10.375  1.5468 -1.1573  1.8745
 6209SOL    HW220635  11.021   9.929  10.305  1.6395  0.2603 -0.4334
 6210SOL     OW20636   4.474   9.234   2.854  0.1698 -0.4791  0.5770
 6210SOL    HW120637   4.522   9.256   2.934  1.1555  0.6858 -0.3015
 6210SOL    HW220638   4.514   9.152   2.825  0.3222 -0.5136  0.8767
 6211SOL     OW20639   2.627  10.780   9.391 -0.1426  0.0624 -0.1722
 6211SOL    HW120640   2.671  10.708   9.437 -0.7081 -0.6769 -0.7588
 6211SOL    HW220641   2.697  10.827   9.346  0.0438 -1.2607 -1.3234
 6212SOL     OW20642   2.340   4.958   0.902 -0.3372 -0.5633  0.3065
 6212SOL    HW120643   2.409   4.951   0.835  0.7875 -0.3929  1.4187
 6212SOL    HW220644   2.308   4.868   0.912 -0.4601 -0.6081 -0.3749
 6213SOL     OW20645   7.202   2.307   0.920 -0.7348 -0.1708 -0.1753
 6213SOL    HW120646   7.128   2.259   0.882  0.3426 -1.4328 -0.7657
 6213SOL    HW220647   7.221   2.260   1.002  0.5916 -1.0707 -0.9585
 6214SOL     OW20648  10.080  10.134   4.028  0.3243  0.1147  0.0863
 6214SOL    HW120649  10.156  10.086   4.061 -1.2054 -1.9126  0.8731
 6214SOL    HW220650  10.100  10.149   3.936  0.9877 -1.8862 -0.1483
 6215SOL     OW20651   0.021   8.102   9.237  0.3935 -0.0940  0.2062
 6215SOL    HW120652   0.066   8.018   9.250  0.2444 -0.6011 -2.1442
 6215SOL    HW220653   0.066   8.163   9.295  1.0694 -1.5954  1.3253
 6216SOL     OW20654  10.837  10.810   7.719 -0.1051 -0.1115  0.1732
 6216SOL    HW120655  10.921  10.846   7.746 -0.3075  1.5051 -1.2438
 6216SOL    HW220656  10.790  10.796   7.801  1.7125 -1.5922  1.0363
 6217SOL     OW20657   5.919   5.188   2.822 -0.3878 -0.5817  0.2594
 6217SOL    HW120658   5.938   5.102   2.784  0.9981  0.6731 -2.0833
 6217SOL    HW220659   5.829   5.206   2.796 -0.2782 -0.8023 -0.2751
 6218SOL     OW20660   9.522   5.250   6.494 -0.1871 -0.2519  0.1608
 6218SOL    HW120661   9.496   5.244   6.585 -0.2360 -0.0706  0.1591
 6218SOL    HW220662   9.571   5.170   6.477 -0.4069 -0.4095  0.2726
 6219SOL     OW20663   6.519   9.506   9.663 -0.1435 -0.4633 -0.4547
 6219SOL    HW120664   6.431   9.471   9.645  0.2523 -2.1763  0.6964
 6219SOL    HW220665   6.578   9.445   9.618  0.4936  0.3097 -0.6809
 6220SOL     OW20666   3.892   8.857   2.700  0.1087 -0.1692 -0.4296
 6220SOL    HW120667   3.884   8.946   2.733  0.1979 -0.5865  0.7657
 6220SOL    HW220668   3.805   8.838   2.664 -1.4240 -1.0524  3.2088
 6221SOL     OW20669   2.022   3.140  10.284  0.1653  0.0742  0.0573
 6221SOL    HW120670   1.939   3.167  10.246  0.5936 -0.1190 -1.0750
 6221SOL    HW220671   2.010   3.048  10.306  0.8509 -0.7385 -2.5715
 6222SOL     OW20672   2.857   5.973   1.027 -0.1085 -0.2571  0.3744
 6222SOL    HW120673   2.771   6.015   1.019 -0.6987 -1.7001 -1.6511
 6222SOL    HW220674   2.913   6.020   0.965 -0.0423 -0.7009  0.0903
 6223SOL     OW20675   4.806   8.610   4.927  0.0331  0.2145 -0.0149
 6223SOL    HW120676   4.854   8.655   4.857  0.4199  2.4948  1.5990
 6223SOL    HW220677   4.735   8.670   4.949  1.7726  1.2259  3.6477
 6224SOL     OW20678   4.462   0.130   3.649  0.3191 -0.1296 -0.1665
 6224SOL    HW120679   4.403   0.206   3.645  0.1498 -0.0822  1.9150
 6224SOL    HW220680   4.536   0.155   3.595 -1.0209  0.2993 -1.8807
 6225SOL     OW20681   4.887  10.565   2.954  0.0254  0.2591  0.2262
 6225SOL    HW120682   4.794  10.560   2.979  0.1326  2.0399  1.1702
 6225SOL    HW220683   4.895  10.649   2.909  1.1021 -0.1083 -0.2953
 6226SOL     OW20684   9.453   8.124  10.366 -0.4504 -0.2189  0.3212
 6226SOL    HW120685   9.436   8.212  10.332  0.0177 -0.9523 -2.0507
 6226SOL    HW220686   9.435   8.130  10.459 -1.6665  2.0609  0.0146
 6227SOL     OW20687   7.987   4.982   0.480 -0.4623 -0.3494 -0.2908
 6227SOL    HW120688   8.027   5.017   0.401 -0.6724 -0.3860 -0.4152
 6227SOL    HW220689   8.036   4.902   0.500  0.9071  0.6961  0.7533
 6228SOL     OW20690  10.635   5.296   9.109  0.6780 -0.2498 -0.4369
 6228SOL    HW120691  10.633   5.240   9.031 -0.0769 -1.7393  0.5984
 6228SOL    HW220692  10.552   5.277   9.154  1.4817 -0.1145  1.1798
 6229SOL     OW20693   9.443  10.235   2.242 -0.5078 -0.7598  0.3489
 6229SOL    HW120694   9.524  10.210   2.287  0.7743 -1.0267 -1.9438
 6229SOL    HW220695   9.419  10.319   2.281  2.8772  1.1270 -1.1742
 6230SOL     OW20696   6.715   7.258   6.082  0.0751 -0.1083  0.2231
 6230SOL    HW120697   6.693   7.288   6.170 -0.0339  1.9015 -0.4392
 6230SOL    HW220698   6.718   7.163   6.089 -1.1603 -0.0579  2.0990
 6231SOL     OW20699   8.844   6.529   1.078  0.0089 -0.1641 -0.0978
 6231SOL    HW120700   8.814   6.439   1.069 -0.6840  0.0649 -0.1379
 6231SOL    HW220701   8.846   6.544   1.173  3.6413 -1.3563  0.1827
 6232SOL     OW20702   5.628   9.155   9.547 -0.1296 -0.2268  0.4111
 6232SOL    HW120703   5.665   9.186   9.629  0.5509 -1.0501  0.4439
 6232SOL    HW220704   5.582   9.074   9.570 -0.0511 -0.3887  0.0132
 6233SOL     OW20705   4.537   7.844   3.495 -0.0359 -0.2183 -0.0743
 6233SOL    HW120706   4.630   7.867   3.486 -0.3184  0.2011 -3.3806
 6233SOL    HW220707   4.536   7.748   3.492  0.2992 -0.2237 -0.1067
 6234SOL     OW20708   7.385   6.399   6.540  0.0454 -0.1892 -0.2153
 6234SOL    HW120709   7.474   6.364   6.544 -0.4561 -1.8869 -2.1530
 6234SOL    HW220710   7.383   6.449   6.458 -0.1387  1.9708  1.0244
 6235SOL     OW20711   2.936   8.506   5.345 -0.6223  0.3660  0.0126
 6235SOL    HW120712   2.977   8.589   5.320  0.4811 -0.3152 -0.5243
 6235SOL    HW220713   2.847   8.530   5.371 -0.9161  1.4955 -1.8493
 6236SOL     OW20714   5.296  10.702   2.927  0.0128 -0.3636 -0.2066
 6236SOL    HW120715   5.263  10.730   3.012  0.1054  1.9069 -0.8478
 6236SOL    HW220716   5.218  10.688   2.874 -0.0505 -1.9407  0.2573
 6237SOL     OW20717   7.136   5.020   5.297  0.2129 -0.2383 -0.4161
 6237SOL    HW120718   7.213   5.058   5.339 -0.1839  0.0997  0.0193
 6237SOL    HW220719   7.116   5.079   5.224 -0.8353  0.8205  0.6954
 6238SOL     OW20720   8.155   2.517   7.876  0.0823 -0.3955 -0.0971
 6238SOL    HW120721   8.139   2.441   7.821  0.0314 -0.2564 -0.2746
 6238SOL    HW220722   8.141   2.486   7.965 -0.7795 -0.3789 -0.2213
 6239SOL     OW20723  10.454   2.137   0.798 -0.2798  0.2758 -0.2173
 6239SOL    HW120724  10.459   2.151   0.703  0.9809 -0.6376 -0.3159
 6239SOL    HW220725  10.367   2.102   0.813 -0.5217  0.5158 -1.0333
 6240SOL     OW20726   0.897   4.617  10.335 -0.0145 -0.3362  1.1644
 6240SOL    HW120727   0.879   4.710  10.318  0.2694 -0.6191 -0.8812
 6240SOL    HW220728   0.976   4.617  10.388  0.4104  0.5743  0.5523
 6241SOL     OW20729   4.209   6.919   7.965 -0.0271  0.3828  0.1195
 6241SOL    HW120730   4.123   6.926   7.924  0.3814  1.2405 -0.6337
 6241SOL    HW220731   4.250   6.845   7.922  0.3022  1.1212 -0.8879
 6242SOL     OW20732   5.697   3.369  10.111  0.2341  0.5279  0.1063
 6242SOL    HW120733   5.653   3.398  10.031  0.1636 -0.8117 -0.3649
 6242SOL    HW220734   5.790   3.376  10.091  0.2376 -1.4121 -0.7496
 6243SOL     OW20735   1.873   2.113  10.887 -0.1871 -0.2552 -0.7301
 6243SOL    HW120736   1.928   2.168  10.830  1.1979  2.1881  2.6158
 6243SOL    HW220737   1.929   2.093  10.961 -2.9221 -0.1816  1.5020
 6244SOL     OW20738   7.432   1.759   3.432 -0.8350 -0.0143 -0.2742
 6244SOL    HW120739   7.517   1.748   3.476 -1.1826 -2.7036 -0.1075
 6244SOL    HW220740   7.370   1.711   3.488 -2.2904  0.9646 -0.9794
 6245SOL     OW20741   3.525   7.332   7.090 -1.0615  0.8398  0.3961
 6245SOL    HW120742   3.614   7.321   7.056 -1.0691  1.2808  0.2283
 6245SOL    HW220743   3.526   7.284   7.173 -0.7789  0.5233  0.2150
 6246SOL     OW20744   9.480   8.824   4.592  0.6227  0.2804 -0.7414
 6246SOL    HW120745   9.531   8.755   4.635 -0.5375  0.3480  0.8197
 6246SOL    HW220746   9.469   8.793   4.502  1.9598 -0.5235 -0.6514
 6247SOL     OW20747   7.116   1.020  10.131  0.0222 -0.0690 -0.3120
 6247SOL    HW120748   7.144   0.956  10.197  2.3301  0.7540 -0.4024
 6247SOL    HW220749   7.114   0.970  10.049 -0.0104 -0.4521 -0.0815
 6248SOL     OW20750   6.713   8.075   6.236 -0.4048  0.2823  0.2097
 6248SOL    HW120751   6.753   8.156   6.205 -0.5404  0.5806  0.7943
 6248SOL    HW220752   6.764   8.006   6.194 -1.0922  0.6592 -1.3033
 6249SOL     OW20753   1.545   5.646   9.904  0.1368  0.6298  0.7030
 6249SOL    HW120754   1.606   5.671   9.973 -0.8100 -1.1852  2.3182
 6249SOL    HW220755   1.529   5.552   9.920 -1.7832  0.6716 -0.6566
 6250SOL     OW20756   3.186   4.465  10.830 -0.2013 -0.0317 -0.0999
 6250SOL    HW120757   3.141   4.493  10.750  0.0263  0.0917 -0.1836
 6250SOL    HW220758   3.250   4.400  10.801  1.2329  1.4113 -0.2919
 6251SOL     OW20759  10.772   8.250   1.061 -0.6844 -0.5130  0.3520
 6251SOL    HW120760  10.854   8.255   1.109  0.0345  0.2744 -0.9239
 6251SOL    HW220761  10.705   8.271   1.126  0.0661 -1.4701  1.4867
 6252SOL     OW20762   0.019   9.232   4.329 -0.1328 -0.2945 -0.1190
 6252SOL    HW120763   0.041   9.310   4.277 -1.8516  0.2012 -0.1609
 6252SOL    HW220764  -0.053   9.192   4.281  1.8954 -3.0404 -1.1584
 6253SOL     OW20765  10.865   8.571  10.299  0.5787  0.2985  0.5009
 6253SOL    HW120766  10.792   8.603  10.352 -0.5957  0.0811 -0.9241
 6253SOL    HW220767  10.862   8.625  10.220  0.1288 -1.5949 -0.8448
 6254SOL     OW20768   0.815  10.904   0.930 -0.0156  0.2191 -0.2724
 6254SOL    HW120769   0.825  10.999   0.941  1.4111  0.3158 -1.9872
 6254SOL    HW220770   0.905  10.871   0.930 -0.5216 -1.3898  1.9040
 6255SOL     OW20771   4.092   7.885   6.527 -0.3278  0.1053  0.5516
 6255SOL    HW120772   4.187   7.897   6.530 -0.4801  1.2337  2.1480
 6255SOL    HW220773   4.080   7.790   6.533  0.6997  0.0449  4.1267
 6256SOL     OW20774   5.649   6.700   8.289 -0.0331 -0.1943  0.0165
 6256SOL    HW120775   5.556   6.703   8.266 -0.1904 -0.3961  0.6226
 6256SOL    HW220776   5.651   6.721   8.382  0.3342 -2.3359  0.5264
 6257SOL     OW20777   6.138  10.759   4.701  0.0360  0.6106  0.2890
 6257SOL    HW120778   6.189  10.774   4.781 -1.0369  1.2439  0.8694
 6257SOL    HW220779   6.047  10.758   4.730 -0.3272 -0.0131 -0.8109
 6258SOL     OW20780   2.363   7.079   0.066  0.4207 -0.6707  0.3200
 6258SOL    HW120781   2.444   7.057   0.019  0.6840  1.4714 -0.3488
 6258SOL    HW220782   2.299   7.093  -0.004  0.2179  0.3522  0.7001
 6259SOL     OW20783   5.986   8.968   9.689  0.0802 -0.3846 -0.0822
 6259SOL    HW120784   6.033   9.049   9.710 -0.4256 -0.2585  0.5834
 6259SOL    HW220785   6.044   8.898   9.719 -0.7025 -0.2127  2.0243
 6260SOL     OW20786   9.589   2.200   0.060 -0.3873 -0.1566 -0.1695
 6260SOL    HW120787   9.662   2.247   0.100  0.6383  0.7452 -2.8831
 6260SOL    HW220788   9.629   2.146  -0.008 -2.0033 -1.7097  0.0542
 6261SOL     OW20789   0.825  10.693   1.939  0.6075  0.1254  0.0345
 6261SOL    HW120790   0.803  10.630   1.870  0.2627 -1.0657  1.1844
 6261SOL    HW220791   0.910  10.729   1.912  1.4710 -1.8243 -0.0208
 6262SOL     OW20792   2.518   5.445   3.819  0.1695 -0.2680  0.1270
 6262SOL    HW120793   2.444   5.384   3.828  0.4395 -0.8720 -1.4542
 6262SOL    HW220794   2.584   5.412   3.880 -0.3488 -0.5227  0.5590
 6263SOL     OW20795   1.733   3.717  10.606 -1.1806  0.1289  0.9423
 6263SOL    HW120796   1.806   3.774  10.629 -0.2444 -0.2945 -0.7663
 6263SOL    HW220797   1.768   3.659  10.538 -2.7150 -1.0378  1.0732
 6264SOL     OW20798   2.709   9.578  10.217 -0.1413  0.8370  0.5694
 6264SOL    HW120799   2.771   9.636  10.174  1.7206 -0.6145  1.1639
 6264SOL    HW220800   2.721   9.595  10.310  1.5794 -1.4624  0.8611
 6265SOL     OW20801   8.502   6.636   3.048  0.3683 -0.4071  0.2129
 6265SOL    HW120802   8.562   6.618   2.976  0.9120 -1.9858  1.0256
 6265SOL    HW220803   8.490   6.552   3.092 -0.2238  0.4406  1.7662
 6266SOL     OW20804   0.112   3.335   0.372 -0.1993  0.0438 -0.1982
 6266SOL    HW120805   0.156   3.419   0.357 -0.8484  0.3879 -0.2263
 6266SOL    HW220806   0.141   3.279   0.300 -1.4458  0.9313 -1.4447
 6267SOL     OW20807   2.419  10.644   9.247  0.3447  0.1074 -0.1257
 6267SOL    HW120808   2.486  10.683   9.303 -0.1561  0.3847  0.2880
 6267SOL    HW220809   2.417  10.700   9.169  0.5924  0.0992 -0.1384
 6268SOL     OW20810   0.375  11.029   7.365 -0.4818 -0.0633 -0.4525
 6268SOL    HW120811   0.328  11.091   7.309 -0.0362  0.9634  0.2924
 6268SOL    HW220812   0.445  10.995   7.310  1.0611  2.2715 -0.0469
 6269SOL     OW20813  10.932   6.659   8.004  0.2321  0.2953 -0.6008
 6269SOL    HW120814  10.996   6.644   8.074 -0.1954 -0.7302 -0.4127
 6269SOL    HW220815  10.931   6.754   7.993 -1.1214  0.7054  2.1650
 6270SOL     OW20816   1.055   9.478   4.451 -0.1080 -0.4838 -0.1658
 6270SOL    HW120817   0.975   9.452   4.496  0.1466 -0.2180  0.4659
 6270SOL    HW220818   1.026   9.536   4.381 -0.4257  0.3153  0.5946
 6271SOL     OW20819   7.886   8.655   8.201  0.7327 -0.2448  0.1812
 6271SOL    HW120820   7.896   8.583   8.263  2.7224 -0.5874 -0.4571
 6271SOL    HW220821   7.884   8.734   8.255 -1.1269 -0.6988  0.8663
 6272SOL     OW20822   6.827   5.765   4.936  0.0642 -0.7467 -0.2721
 6272SOL    HW120823   6.903   5.740   4.883 -0.4066 -0.5370 -1.0686
 6272SOL    HW220824   6.768   5.807   4.873 -0.1968  0.1636  0.5740
 6273SOL     OW20825   1.337   0.229   5.079  0.0114 -0.5309  0.2241
 6273SOL    HW120826   1.368   0.234   4.988  0.5706  0.8965  0.4698
 6273SOL    HW220827   1.242   0.236   5.072  0.0459 -0.5059 -0.2667
 6274SOL     OW20828   8.144   7.353   3.683 -0.4452 -0.3254 -0.0423
 6274SOL    HW120829   8.110   7.331   3.770 -0.9368 -0.0985 -0.1744
 6274SOL    HW220830   8.127   7.446   3.673 -1.4857 -0.5868 -0.8655
 6275SOL     OW20831   6.577  10.053   6.726 -0.2249 -0.3042  0.0362
 6275SOL    HW120832   6.593   9.958   6.723 -0.1567 -0.2776 -0.6618
 6275SOL    HW220833   6.575  10.080   6.634 -0.1720  0.3874  0.2314
 6276SOL     OW20834  10.216   9.917   2.426  0.6642  0.1085  0.5840
 6276SOL    HW120835  10.198   9.824   2.415 -0.1074  0.1868  1.1580
 6276SOL    HW220836  10.162   9.960   2.359  2.8960  0.0229 -1.4069
 6277SOL     OW20837   0.273   7.722   9.110  0.0941 -0.2680  0.1744
 6277SOL    HW120838   0.344   7.693   9.168 -0.9461  0.9773  2.1662
 6277SOL    HW220839   0.318   7.763   9.037  1.4555 -0.0993  1.0606
 6278SOL     OW20840   7.916   8.115   7.091 -0.2210  0.2039 -0.1427
 6278SOL    HW120841   7.922   8.105   6.996  0.1737 -0.0083 -0.0975
 6278SOL    HW220842   7.840   8.062   7.116 -0.1860  0.0732 -0.3121
 6279SOL     OW20843   2.119   4.374   7.754  0.5476  0.2090  0.0994
 6279SOL    HW120844   2.147   4.289   7.787 -2.6364 -0.9810  0.1172
 6279SOL    HW220845   2.138   4.436   7.825  0.8620 -0.8935  0.9941
 6280SOL     OW20846   3.975   3.042   6.639 -0.0605 -0.7931  0.1105
 6280SOL    HW120847   4.056   3.035   6.589 -0.7187 -0.4955 -1.0431
 6280SOL    HW220848   3.907   3.055   6.573 -0.9866 -0.5040  1.0865
 6281SOL     OW20849   6.511   2.361   1.677  0.0121  0.2858  0.1527
 6281SOL    HW120850   6.467   2.361   1.763 -2.1222  1.2874 -0.8566
 6281SOL    HW220851   6.441   2.341   1.615  1.4574 -0.1219 -1.4065
 6282SOL     OW20852   0.211   0.428   1.375 -0.3531  0.3959 -0.0463
 6282SOL    HW120853   0.194   0.515   1.339 -0.2743  0.6295  0.4866
 6282SOL    HW220854   0.228   0.442   1.468 -0.0506 -0.1571 -0.0122
 6283SOL     OW20855   4.785   7.824  10.727  0.0756  0.0100  0.1870
 6283SOL    HW120856   4.798   7.893  10.661  0.7005 -0.6190 -0.3610
 6283SOL    HW220857   4.822   7.745  10.687 -2.4605 -1.1559 -0.0428
 6284SOL     OW20858   6.073   4.460   5.475 -0.2600 -0.0989 -0.4065
 6284SOL    HW120859   6.161   4.434   5.450 -0.4388 -0.9450 -0.2133
 6284SOL    HW220860   6.045   4.391   5.536 -0.3077  1.1985  1.0970
 6285SOL     OW20861   3.587   2.342   8.780 -0.1773 -0.2144  0.2001
 6285SOL    HW120862   3.572   2.411   8.715  1.8370 -1.8557 -2.2058
 6285SOL    HW220863   3.673   2.362   8.817 -0.4790 -0.3409  0.9906
 6286SOL     OW20864   8.998   2.401   1.723 -0.3767 -0.0920 -0.3016
 6286SOL    HW120865   9.039   2.487   1.714 -0.4704  0.2073  1.6463
 6286SOL    HW220866   9.071   2.342   1.741 -0.4725 -0.0721  0.1911
 6287SOL     OW20867  10.310   5.130   9.071 -0.3967  0.4651  0.3005
 6287SOL    HW120868  10.372   5.063   9.044 -1.0612 -0.0965  0.1539
 6287SOL    HW220869  10.298   5.115   9.165 -1.2711 -0.2394  0.0876
 6288SOL     OW20870   7.802   5.139   2.889  0.6376  0.3492 -0.3994
 6288SOL    HW120871   7.836   5.077   2.953 -0.3792 -1.0293 -1.1337
 6288SOL    HW220872   7.708   5.145   2.909  0.5437  0.9024 -0.9571
 6289SOL     OW20873   9.523   6.994   0.202  0.2159 -0.2478  0.3658
 6289SOL    HW120874   9.438   6.957   0.180  0.8418 -1.1240 -0.7321
 6289SOL    HW220875   9.517   7.014   0.296 -1.3514  0.2105  0.1978
 6290SOL     OW20876  10.557   4.524   9.231  0.4021 -0.2234 -0.7431
 6290SOL    HW120877  10.486   4.461   9.223  0.4448 -0.3294 -0.3336
 6290SOL    HW220878  10.577   4.551   9.141  0.9889 -1.4574 -1.0087
 6291SOL     OW20879   8.803   5.493   0.240 -0.0630  0.4875  0.0160
 6291SOL    HW120880   8.717   5.501   0.199 -0.4832  1.3865  1.0323
 6291SOL    HW220881   8.792   5.424   0.305  0.1610  0.1871 -0.2579
 6292SOL     OW20882   0.699   7.639   6.526 -0.2902 -0.0491 -0.3940
 6292SOL    HW120883   0.652   7.654   6.608 -1.8806 -0.1482 -1.2507
 6292SOL    HW220884   0.704   7.726   6.485 -1.5597 -0.3393 -1.2262
 6293SOL     OW20885   5.954   5.580   0.626  0.3126 -0.2145 -0.1774
 6293SOL    HW120886   5.965   5.638   0.701 -0.3883 -2.4114  1.7502
 6293SOL    HW220887   6.042   5.569   0.590  0.5214  1.5941 -0.2825
 6294SOL     OW20888   0.182   1.121   5.316 -0.6198  0.1213 -0.3280
 6294SOL    HW120889   0.207   1.051   5.255 -2.5715  0.9831 -2.2371
 6294SOL    HW220890   0.214   1.201   5.275  0.8076  0.4972  1.4008
 6295SOL     OW20891   8.103   8.264   5.685 -0.1415 -0.3370  0.0704
 6295SOL    HW120892   8.030   8.260   5.746 -1.8767 -0.0322 -1.8764
 6295SOL    HW220893   8.073   8.322   5.615  1.6655 -0.8158 -1.1918
 6296SOL     OW20894   0.867   9.281   4.177  0.0887 -0.1043  0.4172
 6296SOL    HW120895   0.894   9.322   4.259  1.4523 -0.2013  0.0433
 6296SOL    HW220896   0.867   9.353   4.114 -1.3358  0.0463  0.5668
 6297SOL     OW20897   6.900   1.767   8.833  0.5269 -0.0415 -0.8539
 6297SOL    HW120898   6.871   1.747   8.744 -0.5452 -0.3804 -0.4402
 6297SOL    HW220899   6.826   1.813   8.872 -0.1240 -2.2918  0.7275
 6298SOL     OW20900   8.691   6.628   3.405  0.0124  0.3368  0.0071
 6298SOL    HW120901   8.706   6.533   3.412 -1.2843 -0.0118 -1.5296
 6298SOL    HW220902   8.685   6.657   3.496  1.5843 -0.8372  0.5343
 6299SOL     OW20903   8.481   8.527   5.517 -0.1341  0.2387 -0.2762
 6299SOL    HW120904   8.451   8.438   5.497 -1.1789  0.6438 -0.5450
 6299SOL    HW220905   8.576   8.518   5.527 -0.1503 -0.7972 -0.9086
 6300SOL     OW20906   3.834   2.824   6.965  0.8055  0.6736 -0.0621
 6300SOL    HW120907   3.889   2.893   6.928  1.5699  0.6755  1.0290
 6300SOL    HW220908   3.758   2.871   6.999  1.7537  1.1584  1.5303
 6301SOL     OW20909  10.367   0.410   9.514 -0.3795 -0.5827 -0.1838
 6301SOL    HW120910  10.396   0.489   9.560  1.0095 -0.9159 -0.4374
 6301SOL    HW220911  10.312   0.443   9.443  0.1803  0.1740 -0.2817
 6302SOL     OW20912   6.474   0.265   5.296  0.0635 -0.0586  0.2235
 6302SOL    HW120913   6.429   0.264   5.380 -0.4431  2.6457  0.0507
 6302SOL    HW220914   6.406   0.239   5.232  0.8127 -3.6587  0.6494
 6303SOL     OW20915   5.143   9.241  10.869  0.1077 -0.0471 -0.3711
 6303SOL    HW120916   5.154   9.196  10.786 -0.7626 -0.2714 -0.3770
 6303SOL    HW220917   5.084   9.313  10.850 -1.0426 -0.7794  0.2620
 6304SOL     OW20918  10.791  10.870   6.516 -0.0236  0.5539  0.9156
 6304SOL    HW120919  10.820  10.914   6.436 -0.0774  0.2465  0.7291
 6304SOL    HW220920  10.742  10.938   6.563 -1.3379  0.3134 -0.0365
 6305SOL     OW20921   2.620   7.045   3.858 -0.1000  0.1830  0.3750
 6305SOL    HW120922   2.526   7.034   3.864  0.2296 -2.1808  2.7744
 6305SOL    HW220923   2.646   6.990   3.784 -0.4392 -0.4244  0.7046
 6306SOL     OW20924   3.341   4.859   8.207 -0.9703 -0.5318  0.0231
 6306SOL    HW120925   3.422   4.811   8.188  0.0235  0.7470  0.8612
 6306SOL    HW220926   3.272   4.793   8.200  0.0205 -1.4688 -1.6149
 6307SOL     OW20927   8.649   8.780   1.511  0.3538  0.1304  0.1892
 6307SOL    HW120928   8.608   8.774   1.424  0.7745  1.4017 -0.1185
 6307SOL    HW220929   8.721   8.717   1.509 -1.6520 -2.3467  0.8251
 6308SOL     OW20930   7.734   5.179   4.467 -0.4190  0.7147  0.6005
 6308SOL    HW120931   7.766   5.089   4.455 -0.8393  0.7664 -1.1941
 6308SOL    HW220932   7.664   5.171   4.532 -0.9486 -0.3884 -0.0753
 6309SOL     OW20933   2.982   5.663   1.371 -0.0514  0.3077 -0.2423
 6309SOL    HW120934   2.952   5.682   1.282  1.2640 -0.3647 -0.8580
 6309SOL    HW220935   2.997   5.569   1.372  2.0601  0.6089 -0.0163
 6310SOL     OW20936   1.747  10.132   6.661  0.0156  0.2831  0.2767
 6310SOL    HW120937   1.781  10.163   6.577  0.5810 -1.1381 -0.0470
 6310SOL    HW220938   1.715  10.044   6.643 -1.1778  0.4830  1.2477
 6311SOL     OW20939   2.652   0.755   1.249 -0.4127  0.5350  0.4180
 6311SOL    HW120940   2.712   0.754   1.323 -0.8681  0.2606  0.7894
 6311SOL    HW220941   2.626   0.663   1.238  1.8861  0.0353 -1.9462
 6312SOL     OW20942   5.372  10.940   1.689 -0.0251 -0.0282 -0.1715
 6312SOL    HW120943   5.346  10.975   1.774 -1.1742  0.4740 -0.7132
 6312SOL    HW220944   5.404  10.852   1.708  0.2961  0.2991  0.8509
 6313SOL     OW20945   1.098   8.729   0.786  0.3340  0.1024 -0.1108
 6313SOL    HW120946   1.184   8.767   0.765  0.2005  0.0641 -0.7682
 6313SOL    HW220947   1.118   8.654   0.843  0.7094  0.2978  0.0181
 6314SOL     OW20948   7.492   1.867   7.979  0.1442  0.1689 -0.0233
 6314SOL    HW120949   7.424   1.800   7.976 -0.4940  0.8342 -0.6249
 6314SOL    HW220950   7.570   1.823   7.947 -0.3096 -0.2384 -0.5877
 6315SOL     OW20951   0.803   8.161   2.013  0.4805 -0.6706 -0.2232
 6315SOL    HW120952   0.765   8.217   2.081 -0.0514 -2.5046  1.0437
 6315SOL    HW220953   0.734   8.154   1.946  0.8969  0.8889 -0.8797
 6316SOL     OW20954  10.369  10.646   2.142 -0.0469 -0.0156 -0.3492
 6316SOL    HW120955  10.409  10.729   2.118 -2.2191  1.0588 -0.4600
 6316SOL    HW220956  10.293  10.638   2.085 -1.3279 -0.8387  1.3635
 6317SOL     OW20957   6.600   2.973   4.640 -0.1894 -0.0643  0.1218
 6317SOL    HW120958   6.602   2.936   4.552 -0.5154 -1.5373  0.6994
 6317SOL    HW220959   6.598   2.897   4.698  0.0718  0.8695  1.4141
 6318SOL     OW20960   3.420   7.310   6.210 -0.1470  0.4855  0.1740
 6318SOL    HW120961   3.486   7.325   6.277 -0.4365  0.8739  0.3767
 6318SOL    HW220962   3.418   7.391   6.159 -0.3543  0.4171  0.0697
 6319SOL     OW20963   0.002   8.502  10.075  0.1070 -0.2079  0.4634
 6319SOL    HW120964  -0.064   8.505  10.144 -0.0720 -2.0765  0.4104
 6319SOL    HW220965   0.085   8.517  10.120 -0.2919  2.2741  0.5114
 6320SOL     OW20966   0.829   5.989   2.744 -0.6823  0.0614 -0.0025
 6320SOL    HW120967   0.775   5.910   2.737 -2.1379  1.0413 -0.2259
 6320SOL    HW220968   0.872   5.997   2.659 -0.9148 -0.1979 -0.1456
 6321SOL     OW20969   6.164   2.106   0.864  0.4649 -0.3796 -0.0876
 6321SOL    HW120970   6.159   2.026   0.916 -0.5129  0.1896  0.7538
 6321SOL    HW220971   6.212   2.168   0.920  0.3525 -0.0874 -0.3090
 6322SOL     OW20972   0.844   9.860   2.562  0.7691 -0.4616 -0.3084
 6322SOL    HW120973   0.847   9.780   2.615 -0.7875 -1.1655 -1.2415
 6322SOL    HW220974   0.807   9.926   2.621 -1.5472 -1.3904 -0.6547
 6323SOL     OW20975   6.337   7.489   7.582  0.7659  0.2073 -0.3984
 6323SOL    HW120976   6.250   7.512   7.548  0.3164 -1.3980 -0.4413
 6323SOL    HW220977   6.373   7.571   7.613 -1.1179  0.8110  0.3542
 6324SOL     OW20978   7.950   5.850   9.133  0.2557  0.2835 -0.1305
 6324SOL    HW120979   7.964   5.919   9.198 -0.9030  0.4540 -0.0438
 6324SOL    HW220980   7.888   5.888   9.071  1.1078  0.0118 -1.1773
 6325SOL     OW20981   4.253   0.042  10.152  0.7264 -0.5179 -0.1834
 6325SOL    HW120982   4.291   0.124  10.122  0.5918 -0.9338 -1.5399
 6325SOL    HW220983   4.163   0.064  10.176  0.1650 -0.5701 -2.1430
 6326SOL     OW20984   7.745   4.828   0.486 -0.6730 -0.2540 -0.6281
 6326SOL    HW120985   7.830   4.863   0.512 -0.9217  0.4939 -0.7994
 6326SOL    HW220986   7.692   4.829   0.566 -0.3776 -1.1817 -0.4094
 6327SOL     OW20987   7.750   8.912   8.594 -0.1301 -0.1040 -0.3198
 6327SOL    HW120988   7.797   8.919   8.511 -1.8311 -0.7538 -1.4029
 6327SOL    HW220989   7.675   8.971   8.584  0.1349  0.5568  1.1682
 6328SOL     OW20990   8.596   3.313   8.189  0.0589  0.0427  0.1252
 6328SOL    HW120991   8.684   3.293   8.221  0.4346  1.0226 -0.2559
 6328SOL    HW220992   8.601   3.404   8.160 -1.1784  0.2312  0.4368
 6329SOL     OW20993   7.706   1.085   4.610 -0.0926  0.6182 -0.0299
 6329SOL    HW120994   7.799   1.064   4.599 -0.0795 -0.5623  1.8900
 6329SOL    HW220995   7.665   1.061   4.527  0.9853 -0.8990 -0.1460
 6330SOL     OW20996   3.056   9.959   6.755  0.4244 -0.4176 -0.6291
 6330SOL    HW120997   3.007  10.032   6.792  0.6709 -0.3042 -0.5252
 6330SOL    HW220998   3.018   9.881   6.794  2.5133 -0.2086  2.1330
 6331SOL     OW20999   4.181   4.916   5.970 -0.0836  0.1976  0.4061
 6331SOL    HW121000   4.177   5.003   5.929 -1.0852 -1.0066 -2.3079
 6331SOL    HW221001   4.109   4.916   6.033  0.0355  1.3852  0.5614
 6332SOL     OW21002   3.053   5.400   1.300 -0.7101 -0.1446  0.1969
 6332SOL    HW121003   2.993   5.343   1.253  0.5578 -0.1293 -1.5256
 6332SOL    HW221004   3.108   5.341   1.351 -0.6535 -0.3099 -0.0589
 6333SOL     OW21005   8.740  10.674   4.399 -0.0465  0.3192  0.1277
 6333SOL    HW121006   8.657  10.665   4.351 -0.5542 -1.8635  1.2906
 6333SOL    HW221007   8.783  10.589   4.389  1.0836  0.7246  1.2940
 6334SOL     OW21008   4.401   9.441   6.755  0.8234 -0.0870 -0.7306
 6334SOL    HW121009   4.437   9.366   6.803  0.9023  1.0746  1.1229
 6334SOL    HW221010   4.462   9.512   6.772 -0.8486  1.2177  0.2237
 6335SOL     OW21011   0.090   9.461  10.473  0.3822  0.1232  0.0574
 6335SOL    HW121012   0.007   9.475  10.428  0.4524 -1.2965 -0.5894
 6335SOL    HW221013   0.114   9.547  10.508 -1.2247  0.5986  0.0419
 6336SOL     OW21014   7.283   4.361   4.008  0.4842  0.3599 -0.1888
 6336SOL    HW121015   7.261   4.412   4.086 -1.0548 -0.9932  0.3380
 6336SOL    HW221016   7.263   4.419   3.935 -2.4402  0.2164  0.3558
 6337SOL     OW21017   6.334   0.474   4.766 -0.4630 -0.5430  0.2131
 6337SOL    HW121018   6.377   0.513   4.690 -0.3077 -0.4803  0.3303
 6337SOL    HW221019   6.246   0.454   4.737 -0.1975 -1.1531 -0.1849
 6338SOL     OW21020   4.819   5.999  10.093  0.4348 -0.5057  0.4962
 6338SOL    HW121021   4.825   5.974  10.001 -0.0717 -0.7913  0.5353
 6338SOL    HW221022   4.848   5.921  10.141 -0.7591 -0.9023  0.6083
 6339SOL     OW21023   3.007   0.161   7.510 -0.3660  0.2347  0.0384
 6339SOL    HW121024   3.032   0.073   7.481 -0.8235  0.7805 -2.2022
 6339SOL    HW221025   2.994   0.152   7.605  1.3547 -1.6642  0.1622
 6340SOL     OW21026  10.863   5.320   3.445  0.2413  0.0091  0.3576
 6340SOL    HW121027  10.791   5.313   3.508  0.3492  0.3876  0.5231
 6340SOL    HW221028  10.906   5.234   3.449 -1.2473 -0.8781 -1.0242
 6341SOL     OW21029   8.904   2.642   9.502 -0.0619  0.6718  0.0819
 6341SOL    HW121030   8.886   2.724   9.456 -0.6374  0.2228 -0.5172
 6341SOL    HW221031   8.911   2.667   9.594 -1.5029  1.2212  0.0736
 6342SOL     OW21032   9.570   7.139  10.456 -0.1729 -0.2833 -0.1928
 6342SOL    HW121033   9.584   7.229  10.428  0.1638 -0.1718  0.3083
 6342SOL    HW221034   9.506   7.103  10.395  0.6464 -0.0966 -1.1867
 6343SOL     OW21035   6.379   5.404   5.709  0.2977  0.1335  0.0974
 6343SOL    HW121036   6.344   5.318   5.733 -0.5149 -0.1284 -1.8203
 6343SOL    HW221037   6.473   5.397   5.724  0.6115 -1.9607 -2.2388
 6344SOL     OW21038   7.603  10.941   8.610 -0.6210 -0.4068 -0.0581
 6344SOL    HW121039   7.664  10.893   8.665 -0.0354  0.6877  0.2861
 6344SOL    HW221040   7.610  11.032   8.639 -1.2754 -0.0091 -1.0541
 6345SOL     OW21041   9.510   5.401   3.313 -0.0166  0.3269  0.2392
 6345SOL    HW121042   9.521   5.494   3.329  0.8635  0.0398  1.4710
 6345SOL    HW221043   9.597   5.363   3.328 -0.2816 -0.6608 -0.5379
 6346SOL     OW21044   1.695   3.774   2.143 -0.3288 -0.1426 -0.3473
 6346SOL    HW121045   1.694   3.697   2.200 -0.2226  0.5497  0.6203
 6346SOL    HW221046   1.691   3.739   2.054  0.7890 -1.2986  0.0421
 6347SOL     OW21047   5.420  10.805   7.770 -0.4128  0.1745  0.1985
 6347SOL    HW121048   5.468  10.799   7.853 -2.1782 -0.6759  1.2034
 6347SOL    HW221049   5.363  10.728   7.770 -0.7882  0.4154 -1.6098
 6348SOL     OW21050   6.934   6.914   3.748  0.1047  0.6784  0.3264
 6348SOL    HW121051   7.028   6.898   3.739 -0.0761  0.4237 -1.6494
 6348SOL    HW221052   6.895   6.869   3.673 -1.6227  0.6340  1.2064
 6349SOL     OW21053   5.549   2.433   4.643  0.2887 -0.0333  0.1385
 6349SOL    HW121054   5.484   2.385   4.591 -1.4749  0.7539  1.4720
 6349SOL    HW221055   5.573   2.373   4.713 -0.7180  0.4011  0.8949
 6350SOL     OW21056   6.416  10.814   9.253 -0.2591 -0.0940 -0.0327
 6350SOL    HW121057   6.336  10.769   9.282  1.4069 -2.0766  1.8953
 6350SOL    HW221058   6.416  10.804   9.158 -2.3217  0.0340 -0.0918
 6351SOL     OW21059   5.745   2.574   2.645  0.1620  0.8761  0.6619
 6351SOL    HW121060   5.828   2.526   2.642 -0.0934  0.4689 -0.3180
 6351SOL    HW221061   5.744   2.624   2.563 -0.8413  0.3952  0.3791
 6352SOL     OW21062   7.726   8.179   2.344 -0.4124 -0.1550 -0.0142
 6352SOL    HW121063   7.773   8.153   2.264  0.3638  1.2239 -0.0415
 6352SOL    HW221064   7.708   8.272   2.332 -1.6002 -0.2664  0.7919
 6353SOL     OW21065   2.385   7.548   6.677 -0.5074 -0.3010  0.7784
 6353SOL    HW121066   2.459   7.517   6.625 -0.8274 -1.3655  0.9496
 6353SOL    HW221067   2.308   7.512   6.633 -1.0116  1.4537  0.1243
 6354SOL     OW21068   3.762   0.254   6.709  0.5732 -0.4091 -0.3232
 6354SOL    HW121069   3.761   0.244   6.614 -0.1574  0.8597 -0.4698
 6354SOL    HW221070   3.842   0.303   6.727 -0.9264  2.3905 -0.6878
 6355SOL     OW21071   8.430  10.765   8.430 -0.2357 -0.5676 -0.5836
 6355SOL    HW121072   8.351  10.808   8.397  1.1214  1.4692 -1.4102
 6355SOL    HW221073   8.425  10.675   8.397 -1.0135  0.2096 -2.7741
 6356SOL     OW21074  10.489   0.795   8.578  0.0199 -0.0670 -0.0214
 6356SOL    HW121075  10.518   0.856   8.645  0.4157 -0.6254  0.3321
 6356SOL    HW221076  10.556   0.726   8.578 -0.4109 -0.4973 -0.4085
 6357SOL     OW21077   4.987   3.435   2.121  0.2278 -0.1424 -0.7214
 6357SOL    HW121078   4.988   3.524   2.157  0.1104 -0.0682 -0.9005
 6357SOL    HW221079   4.894   3.416   2.108  0.2146 -0.5466 -0.0540
 6358SOL     OW21080  10.290   4.794   3.199 -0.3042 -0.4548  0.0973
 6358SOL    HW121081  10.375   4.834   3.178 -0.3184 -1.6496 -2.7626
 6358SOL    HW221082  10.226   4.851   3.157 -0.6355 -1.2475 -0.5058
 6359SOL     OW21083  10.675   3.989   4.377  0.8985 -0.5931 -0.4728
 6359SOL    HW121084  10.704   3.917   4.320 -0.4762 -0.1034 -1.8563
 6359SOL    HW221085  10.586   3.965   4.401  1.3149 -0.5892  1.2204
 6360SOL     OW21086   1.448   4.761   2.244  0.3253  0.3676  0.2618
 6360SOL    HW121087   1.465   4.742   2.337 -0.5988  1.0384  0.5846
 6360SOL    HW221088   1.355   4.786   2.241  0.5168  1.0303 -0.7274
 6361SOL     OW21089   8.053   2.479   0.869  0.3102 -0.4402 -0.0375
 6361SOL    HW121090   8.063   2.525   0.952  0.6011 -0.9296  0.2037
 6361SOL    HW221091   7.965   2.442   0.873  0.5631 -1.0051  0.3320
 6362SOL     OW21092   6.235   7.681  10.730  0.3702  0.9557 -0.5110
 6362SOL    HW121093   6.253   7.685  10.824  1.4850 -0.3924 -0.6341
 6362SOL    HW221094   6.157   7.626  10.723  1.0487 -0.0515 -0.4209
 6363SOL     OW21095   0.174   6.249   3.032  0.0888 -0.1237 -0.6354
 6363SOL    HW121096   0.080   6.237   3.048 -0.0211  1.5389  0.1479
 6363SOL    HW221097   0.216   6.195   3.099 -0.2897 -1.0138 -1.0966
 6364SOL     OW21098   2.851   9.696   9.446 -0.0276  0.1271  0.3152
 6364SOL    HW121099   2.839   9.604   9.469 -0.3799 -0.2427 -1.2436
 6364SOL    HW221100   2.929   9.696   9.390 -1.0526  0.5107 -1.1408
 6365SOL     OW21101   2.745  10.980   2.110  0.6960  0.3066  0.7069
 6365SOL    HW121102   2.655  10.952   2.092  0.8175  0.1730  0.2817
 6365SOL    HW221103   2.790  10.967   2.027  0.6799  2.1428  0.3775
 6366SOL     OW21104   1.815  10.189   0.784 -0.1812 -0.0662 -0.0982
 6366SOL    HW121105   1.862  10.108   0.801  1.2204  0.7424 -0.0123
 6366SOL    HW221106   1.855  10.224   0.705 -1.9070 -0.2609 -1.1058
 6367SOL     OW21107   2.794   5.530   8.198  0.2232  0.0598  0.2778
 6367SOL    HW121108   2.834   5.616   8.186  0.1222  0.0693 -0.0041
 6367SOL    HW221109   2.730   5.524   8.127  1.7446 -1.1404 -1.0515
 6368SOL     OW21110   4.283   0.062   9.182  0.1353  0.0575 -0.3942
 6368SOL    HW121111   4.247   0.096   9.264 -1.9425  1.7437 -1.9160
 6368SOL    HW221112   4.327   0.137   9.142 -0.0496 -0.3953 -1.4669
 6369SOL     OW21113   5.683   6.585   7.345 -0.3618  0.5689  0.1072
 6369SOL    HW121114   5.719   6.670   7.370 -1.3400  0.8912  0.4842
 6369SOL    HW221115   5.723   6.565   7.260  0.2849  1.1508  0.2736
 6370SOL     OW21116   4.685   2.925   7.423  0.1768 -0.0808 -0.4942
 6370SOL    HW121117   4.764   2.935   7.476 -0.6097  1.3937  0.4700
 6370SOL    HW221118   4.614   2.919   7.487 -0.7186  0.9383 -1.3535
 6371SOL     OW21119   9.385   6.039   5.240 -0.0008 -0.3443  0.2481
 6371SOL    HW121120   9.341   6.023   5.156 -0.0796  1.0078 -0.0026
 6371SOL    HW221121   9.314   6.067   5.298  0.2267 -0.0800  0.4030
 6372SOL     OW21122   6.206   0.251   4.490  0.2230 -0.2482  0.4750
 6372SOL    HW121123   6.188   0.157   4.490 -1.0336 -0.0917 -2.1575
 6372SOL    HW221124   6.283   0.260   4.434 -0.8006  0.3962 -0.8925
 6373SOL     OW21125   2.036   4.186   9.274 -0.5257  0.4799 -0.2544
 6373SOL    HW121126   2.082   4.270   9.276  1.5302 -0.6172  0.7824
 6373SOL    HW221127   2.033   4.163   9.181 -0.2747  1.2406 -0.4590
 6374SOL     OW21128   1.906   8.787  10.203  0.5530  0.2123 -0.1342
 6374SOL    HW121129   1.997   8.781  10.174  1.0178 -1.4145  1.4263
 6374SOL    HW221130   1.903   8.864  10.259  1.1050  0.0199  0.1689
 6375SOL     OW21131  10.206   8.727   0.236  0.4400  0.1339  0.1716
 6375SOL    HW121132  10.133   8.696   0.183  0.7966  1.2039 -1.0263
 6375SOL    HW221133  10.283   8.685   0.198  0.4829 -0.8079  1.2773
 6376SOL     OW21134   9.795   2.104   3.158  0.3542  0.2598  0.5260
 6376SOL    HW121135   9.890   2.102   3.148  0.3860  0.1151  0.8399
 6376SOL    HW221136   9.772   2.015   3.187 -0.1999 -0.6448 -2.3434
 6377SOL     OW21137   9.627  10.946   1.468 -1.2418  0.3847 -0.1969
 6377SOL    HW121138   9.553  10.989   1.425  0.2793  0.6187 -2.8329
 6377SOL    HW221139   9.624  10.856   1.437 -0.5572  0.3405 -0.1467
 6378SOL     OW21140   8.680   1.325   3.559  0.7046 -0.0916 -0.0145
 6378SOL    HW121141   8.604   1.338   3.615  0.7001 -1.0620  0.2292
 6378SOL    HW221142   8.752   1.367   3.606  0.5728 -0.3238  0.4052
 6379SOL     OW21143   3.865   9.953   3.697 -0.1103  0.2129 -0.2640
 6379SOL    HW121144   3.805   9.893   3.741 -0.0417 -0.0739 -0.5579
 6379SOL    HW221145   3.881   9.913   3.611  1.1879 -0.1742  0.1287
 6380SOL     OW21146   5.923   7.815   7.912  0.2284 -0.0358 -0.5894
 6380SOL    HW121147   5.962   7.882   7.857 -0.6591  0.3283 -0.7881
 6380SOL    HW221148   5.972   7.735   7.891  0.0468  0.1390 -1.7520
 6381SOL     OW21149   0.720   1.082   3.963  0.0969  0.7422  0.7080
 6381SOL    HW121150   0.646   1.063   3.906  2.1967  0.5841 -2.2040
 6381SOL    HW221151   0.744   0.997   4.001  0.2928  0.3096 -0.3513
 6382SOL     OW21152   0.643   3.400   9.145  0.3947 -1.0250  0.2967
 6382SOL    HW121153   0.734   3.431   9.144  0.4722 -1.2728 -0.3831
 6382SOL    HW221154   0.644   3.323   9.201  0.0010  0.7485  2.9488
 6383SOL     OW21155   6.966   9.709   9.426  0.0002 -0.6247  0.6930
 6383SOL    HW121156   7.006   9.776   9.371 -0.9777  0.0065  0.7310
 6383SOL    HW221157   7.020   9.708   9.505  2.0176 -2.2351 -0.6226
 6384SOL     OW21158  10.059   3.126  10.743 -0.5794  1.0235  0.0375
 6384SOL    HW121159   9.964   3.127  10.755 -0.7595  1.3036 -1.3038
 6384SOL    HW221160  10.092   3.080  10.820 -1.9421 -0.8244 -0.4201
 6385SOL     OW21161   8.214   6.598   7.910  0.3521 -0.2063  0.0407
 6385SOL    HW121162   8.184   6.618   7.998  0.6962 -1.1922  0.3940
 6385SOL    HW221163   8.303   6.633   7.906  0.6139 -0.8261  0.3447
 6386SOL     OW21164   0.017   9.829   2.879 -0.1589  0.5269 -0.4798
 6386SOL    HW121165  -0.024   9.876   2.806 -0.0042  1.0981 -0.1991
 6386SOL    HW221166  -0.002   9.882   2.956 -0.2724 -0.0456 -0.1065
 6387SOL     OW21167   9.114   9.793   4.596  0.1371  0.8177  0.5282
 6387SOL    HW121168   9.044   9.784   4.662 -0.4900  2.8587  0.2086
 6387SOL    HW221169   9.117   9.887   4.577  0.0749  0.2844 -2.5999
 6388SOL     OW21170   5.307   5.687   0.414  0.4995 -0.4140  0.6605
 6388SOL    HW121171   5.343   5.655   0.496  1.6191 -1.2206 -0.1140
 6388SOL    HW221172   5.382   5.719   0.365 -0.0468 -0.6026 -0.3384
 6389SOL     OW21173   3.459   6.631   4.889 -0.0424 -0.2291 -0.1193
 6389SOL    HW121174   3.549   6.648   4.915 -0.1323  0.4499 -0.2456
 6389SOL    HW221175   3.456   6.536   4.874 -0.1430 -0.8283  2.9380
 6390SOL     OW21176   9.314   7.263   9.775 -0.0673 -0.1908  0.1509
 6390SOL    HW121177   9.241   7.204   9.794 -0.2897  0.6252  2.0354
 6390SOL    HW221178   9.392   7.208   9.783 -0.3782 -0.7100 -0.3123
 6391SOL     OW21179   2.689   9.339   9.184  0.4211 -0.7030  0.6970
 6391SOL    HW121180   2.733   9.349   9.099  0.8929 -1.8027  0.7856
 6391SOL    HW221181   2.754   9.295   9.239  0.5132  0.9500  1.9820
 6392SOL     OW21182   9.446  10.060   0.768  0.1400  0.2073  0.1220
 6392SOL    HW121183   9.535  10.042   0.737  0.0366  1.4998 -1.0192
 6392SOL    HW221184   9.457  10.089   0.858  0.9872  1.1818 -0.2754
 6393SOL     OW21185   0.004   8.794   1.139  0.4317  0.2913  0.4963
 6393SOL    HW121186   0.089   8.814   1.100  1.0474 -0.9303  1.1843
 6393SOL    HW221187  -0.024   8.713   1.096 -0.0588  0.2993  0.7927
 6394SOL     OW21188   5.442   5.327  10.910 -0.1226  0.2707  0.2296
 6394SOL    HW121189   5.372   5.299  10.969  0.2623  1.0213  1.0626
 6394SOL    HW221190   5.514   5.266  10.927 -0.0269  0.4605  0.5260
 6395SOL     OW21191   2.759   5.641  10.588 -0.1797 -0.2240  0.2950
 6395SOL    HW121192   2.776   5.548  10.579 -1.2931 -0.3037 -1.3991
 6395SOL    HW221193   2.843   5.679  10.614  0.5227 -1.5573  0.0266
 6396SOL     OW21194   7.091   0.301   3.900  0.2128 -0.7284  0.5142
 6396SOL    HW121195   7.118   0.312   3.809 -0.9194  1.7151  0.3852
 6396SOL    HW221196   7.064   0.209   3.907  0.8377 -1.0943 -1.4549
 6397SOL     OW21197   0.381   0.020   9.579 -0.3384  0.4967 -0.4794
 6397SOL    HW121198   0.465  -0.024   9.595 -1.4098 -1.4459  0.1052
 6397SOL    HW221199   0.389   0.104   9.623  1.3499  0.4323 -0.5783
 6398SOL     OW21200  10.707   5.194   5.281 -0.1582 -0.2531 -0.0516
 6398SOL    HW121201  10.698   5.176   5.187 -2.3331 -2.2972  0.4694
 6398SOL    HW221202  10.642   5.262   5.298  1.2205  1.1728 -0.2093
 6399SOL     OW21203  11.034   3.682  10.435  0.2979  0.2920  0.4734
 6399SOL    HW121204  10.981   3.748  10.390  0.3981 -0.4371 -0.7610
 6399SOL    HW221205  11.021   3.602  10.384  0.3201 -0.6099  1.8356
 6400SOL     OW21206   2.631   3.816   5.511  0.2662 -0.4774  0.5413
 6400SOL    HW121207   2.589   3.878   5.451  2.0558 -0.3602 -0.6726
 6400SOL    HW221208   2.659   3.868   5.585  0.8416 -0.0234  0.0080
 6401SOL     OW21209   6.223   2.783   0.243 -0.0579  0.6834  0.0439
 6401SOL    HW121210   6.183   2.843   0.180 -1.6306 -1.4153 -1.1211
 6401SOL    HW221211   6.162   2.781   0.317 -1.6473 -1.5688 -1.1934
 6402SOL     OW21212  10.843   4.901   6.670  0.0089 -0.3572  0.2502
 6402SOL    HW121213  10.835   4.966   6.600 -1.0188  0.3499  1.0040
 6402SOL    HW221214  10.935   4.905   6.696  0.1693  0.0865 -0.3692
 6403SOL     OW21215   5.225   1.733   6.183  0.3244  0.7028  0.1529
 6403SOL    HW121216   5.231   1.680   6.262  0.3229  0.8890  0.2781
 6403SOL    HW221217   5.257   1.820   6.209  2.0118  0.3179 -0.4755
 6404SOL     OW21218   3.083   2.994   9.830 -0.6987 -0.0852  0.0527
 6404SOL    HW121219   3.090   2.930   9.759  0.3045 -0.2711  0.3018
 6404SOL    HW221220   3.072   3.078   9.785  0.7570 -0.0960 -0.3734
 6405SOL     OW21221   0.987   5.982   8.807 -0.1619 -0.8350  0.1865
 6405SOL    HW121222   1.041   5.968   8.884  0.2831 -1.8232 -0.2862
 6405SOL    HW221223   0.899   6.001   8.842  0.0157 -1.3464  0.9233
 6406SOL     OW21224   4.904   5.389   3.852  0.3872  0.1233  0.6634
 6406SOL    HW121225   4.816   5.375   3.817  0.6246 -0.5691  0.3123
 6406SOL    HW221226   4.891   5.405   3.945 -0.0844 -0.3725  0.6888
 6407SOL     OW21227   5.723   4.869   8.715 -0.4895  0.0361  0.1768
 6407SOL    HW121228   5.811   4.904   8.702 -0.6072  0.2753  0.0122
 6407SOL    HW221229   5.677   4.889   8.633 -1.3594  1.9117  1.0463
 6408SOL     OW21230   8.901   0.277   7.590  0.3253  0.6462  0.1166
 6408SOL    HW121231   8.871   0.349   7.646  0.8797  0.7633  0.2684
 6408SOL    HW221232   8.820   0.237   7.557  0.0045  1.5877 -0.2902
 6409SOL     OW21233   1.058   3.279   7.435  0.1930  0.5459 -0.3491
 6409SOL    HW121234   1.150   3.304   7.451  0.2226  0.6588 -0.6804
 6409SOL    HW221235   1.028   3.341   7.368  0.0049  0.2326 -0.5549
 6410SOL     OW21236   8.926   0.625   2.840  0.2435 -0.0245  0.4276
 6410SOL    HW121237   8.878   0.599   2.761  0.5412  2.1628 -0.5528
 6410SOL    HW221238   9.018   0.620   2.815  0.3783 -0.3229  0.9771
 6411SOL     OW21239   4.734   0.497   9.811  0.2576  0.6843  0.2632
 6411SOL    HW121240   4.785   0.442   9.751  0.8534  0.1910  1.1999
 6411SOL    HW221241   4.653   0.516   9.763 -0.1339 -1.3255  0.0580
 6412SOL     OW21242   1.159   2.058   6.755 -0.2422 -0.3457  0.1433
 6412SOL    HW121243   1.196   1.974   6.781  0.4013 -0.0736  0.1289
 6412SOL    HW221244   1.070   2.038   6.727 -0.0714 -1.0302  0.0810
 6413SOL     OW21245   5.143   8.731   7.199 -0.0567  0.1317 -0.1428
 6413SOL    HW121246   5.188   8.680   7.266 -0.0605 -0.0743 -0.2952
 6413SOL    HW221247   5.206   8.797   7.172 -0.0020  0.1189 -0.0453
 6414SOL     OW21248   2.283   5.308   6.865  0.2084  0.3421  0.0700
 6414SOL    HW121249   2.204   5.287   6.916 -1.2097  1.6053 -1.4912
 6414SOL    HW221250   2.268   5.397   6.834  1.1904 -0.2108 -2.1666
 6415SOL     OW21251   6.243  10.399   7.628  0.0317  0.2140 -1.0841
 6415SOL    HW121252   6.254  10.483   7.582  0.8497  0.5220 -0.3554
 6415SOL    HW221253   6.268  10.333   7.562  0.5587  0.6151 -1.2987
 6416SOL     OW21254   5.108  10.021   4.783 -0.3153 -0.3130 -0.2795
 6416SOL    HW121255   5.190   9.972   4.776 -0.4846 -1.0659  2.1436
 6416SOL    HW221256   5.081  10.010   4.874 -2.1883  1.4362 -0.5548
 6417SOL     OW21257   0.107   8.972   4.663  0.5859  0.3828 -0.4514
 6417SOL    HW121258   0.082   9.042   4.602 -1.1965  0.3923  0.2126
 6417SOL    HW221259   0.177   9.010   4.716 -1.3387  2.2838  0.8916
 6418SOL     OW21260   1.808   8.834   8.492  0.8114 -0.1634 -0.0886
 6418SOL    HW121261   1.766   8.748   8.487  2.2353 -0.8428 -1.3372
 6418SOL    HW221262   1.898   8.814   8.518  1.6897  0.7120 -2.2145
 6419SOL     OW21263   1.347   7.495   6.960 -0.0069 -0.4151 -0.1119
 6419SOL    HW121264   1.378   7.490   7.050 -0.3481  1.9971  0.2152
 6419SOL    HW221265   1.421   7.530   6.910 -0.1940 -0.6266 -0.5487
 6420SOL     OW21266   6.759   5.052   8.262  0.4801 -0.8966  0.6009
 6420SOL    HW121267   6.730   5.141   8.284  0.7781 -0.8277  0.7201
 6420SOL    HW221268   6.815   5.026   8.335 -0.1915 -1.4704  0.9217
 6421SOL     OW21269   9.544   0.151   7.849 -0.0223  0.3784 -0.6927
 6421SOL    HW121270   9.611   0.182   7.909  0.9464  0.1131 -1.6071
 6421SOL    HW221271   9.484   0.225   7.839 -0.9185  0.0259  1.5283
 6422SOL     OW21272   2.148   7.179   0.372 -0.3927  0.0941  1.0114
 6422SOL    HW121273   2.237   7.205   0.396  0.0792 -0.9254  0.4519
 6422SOL    HW221274   2.160   7.099   0.320 -1.6377 -0.0584  0.9306
 6423SOL     OW21275   1.186   1.353   9.329  0.1861 -0.0844 -0.3684
 6423SOL    HW121276   1.219   1.308   9.251  0.7303 -0.5139  0.0978
 6423SOL    HW221277   1.174   1.283   9.393 -0.2082  0.2728 -0.0454
 6424SOL     OW21278   2.254   4.024   6.143  0.2023 -0.0373 -0.3184
 6424SOL    HW121279   2.200   4.033   6.221 -0.7453 -0.9611 -0.8295
 6424SOL    HW221280   2.286   4.112   6.124 -0.9967  0.5001  0.0999
 6425SOL     OW21281   7.304  10.001   0.874  0.6067 -0.5166 -0.0732
 6425SOL    HW121282   7.214   9.972   0.857  0.8549 -1.6339  0.3883
 6425SOL    HW221283   7.333  10.038   0.791 -0.4661  0.4096 -0.0593
 6426SOL     OW21284   1.419   7.667   3.919 -0.2244  0.1763  0.4092
 6426SOL    HW121285   1.434   7.616   3.999  0.6528  2.0290  1.4983
 6426SOL    HW221286   1.325   7.680   3.916 -0.2205  0.5444  1.4729
 6427SOL     OW21287   5.476   8.860   6.496 -0.6090  0.1230  0.5513
 6427SOL    HW121288   5.465   8.927   6.564 -2.6609  0.3382  0.0823
 6427SOL    HW221289   5.553   8.888   6.446 -0.4815  1.2429  1.3397
 6428SOL     OW21290  10.120   0.119   0.825 -0.1871 -0.3596  0.3214
 6428SOL    HW121291  10.097   0.120   0.918  0.5620 -0.4226  0.5157
 6428SOL    HW221292  10.130   0.212   0.802 -1.2261 -0.2991  0.0758
 6429SOL     OW21293   6.613   4.140  10.547  0.1540 -0.4077  0.1066
 6429SOL    HW121294   6.531   4.122  10.593  0.5303 -1.3116  0.4444
 6429SOL    HW221295   6.678   4.148  10.617  0.8573 -2.4662 -0.2576
 6430SOL     OW21296   8.233  10.222   7.043  0.3517 -0.2705  0.4727
 6430SOL    HW121297   8.138  10.216   7.028  0.2697  0.3214  0.6966
 6430SOL    HW221298   8.270  10.236   6.955 -0.0283  2.0819  0.6126
 6431SOL     OW21299   2.299   2.488   0.802  0.1225 -0.2172 -0.0720
 6431SOL    HW121300   2.303   2.530   0.887  1.9108 -1.6756  0.6330
 6431SOL    HW221301   2.367   2.532   0.750 -0.3201  0.0339 -0.4438
 6432SOL     OW21302   2.119   7.246   6.428 -0.0793  0.1993  0.0073
 6432SOL    HW121303   2.203   7.212   6.396 -0.7643  1.0539 -2.9491
 6432SOL    HW221304   2.078   7.170   6.471  2.1199 -0.2367  1.5275
 6433SOL     OW21305   0.578   9.636   2.909  0.6228 -0.5652 -0.2617
 6433SOL    HW121306   0.537   9.551   2.923 -2.7251  0.9488 -0.1087
 6433SOL    HW221307   0.572   9.651   2.814  0.9988 -0.3775 -0.2609
 6434SOL     OW21308   3.282  10.788  10.325  0.7274 -0.1152 -0.8063
 6434SOL    HW121309   3.324  10.835  10.252 -0.1626 -0.1617 -1.3658
 6434SOL    HW221310   3.211  10.739  10.284 -0.5193  0.7444  0.2274
 6435SOL     OW21311   8.183   2.091   9.976 -0.2847 -0.4507 -0.4282
 6435SOL    HW121312   8.269   2.056  10.002  0.4083  0.0084 -1.9854
 6435SOL    HW221313   8.196   2.186   9.975 -0.0831 -0.4395 -2.8711
 6436SOL     OW21314   9.503  10.309   0.221 -0.3754 -0.0534  0.2224
 6436SOL    HW121315   9.482  10.326   0.313  0.2656 -0.6122  0.4830
 6436SOL    HW221316   9.574  10.245   0.224  0.5125  0.8598 -0.6379
 6437SOL     OW21317   7.342   9.575   5.940  0.3162 -0.4899 -0.0670
 6437SOL    HW121318   7.356   9.646   5.877 -1.1706  1.3273  1.5286
 6437SOL    HW221319   7.375   9.610   6.023 -2.2084 -0.8419  1.1603
 6438SOL     OW21320   6.849   0.483   0.668  0.0623 -0.3022  0.1156
 6438SOL    HW121321   6.858   0.414   0.733  1.5251 -0.4388 -0.1849
 6438SOL    HW221322   6.888   0.447   0.589 -0.8312  0.2096 -0.5825
 6439SOL     OW21323   0.302  10.752   7.433 -0.2342  0.3605  0.0245
 6439SOL    HW121324   0.339  10.788   7.353 -1.2102  0.7359 -0.2672
 6439SOL    HW221325   0.324  10.816   7.501  0.8122 -0.0786  0.1310
 6440SOL     OW21326  10.657   8.699  10.454 -0.2473  0.0712 -0.0714
 6440SOL    HW121327  10.666   8.716  10.548  0.3577  1.0905 -0.2966
 6440SOL    HW221328  10.658   8.786  10.414  2.0243 -0.4277 -1.2376
 6441SOL     OW21329   2.847   7.450   2.203  0.1834  0.3184  0.5843
 6441SOL    HW121330   2.833   7.545   2.193  0.1547  0.3586  0.9944
 6441SOL    HW221331   2.928   7.443   2.254 -0.3298  0.1374  1.3857
 6442SOL     OW21332   3.874   4.538   5.345  0.1179  0.3781 -0.2241
 6442SOL    HW121333   3.820   4.514   5.420 -1.0800 -0.6772 -1.3622
 6442SOL    HW221334   3.862   4.632   5.335 -1.6758  0.1526 -0.5240
 6443SOL     OW21335   0.258   9.998  10.435  0.2449 -0.2971  0.1400
 6443SOL    HW121336   0.307  10.060  10.380  0.4967 -1.3914 -0.9365
 6443SOL    HW221337   0.169  10.000  10.400  0.1738 -0.2822  0.3240
 6444SOL     OW21338   8.602   6.025   4.573  0.0082 -0.1731  0.1668
 6444SOL    HW121339   8.681   6.049   4.524  0.6803 -0.9952  0.8266
 6444SOL    HW221340   8.532   6.026   4.508  0.4213  1.2504 -0.2966
 6445SOL     OW21341  10.377   9.935   0.316  0.5857 -0.0460 -0.1904
 6445SOL    HW121342  10.300   9.918   0.370  0.1574  0.3392 -0.6694
 6445SOL    HW221343  10.447   9.952   0.379  0.4329 -1.0471  0.2522
 6446SOL     OW21344   9.285   4.287  10.189  0.0740 -0.2204 -0.4648
 6446SOL    HW121345   9.378   4.279  10.213  0.5462  0.7267 -1.8395
 6446SOL    HW221346   9.272   4.220  10.122 -0.3074 -0.4999 -0.1147
 6447SOL     OW21347   6.064   6.646   6.960  0.1020  0.1510  0.3101
 6447SOL    HW121348   5.986   6.694   6.933 -0.3832  0.0756  1.5251
 6447SOL    HW221349   6.080   6.674   7.050  2.0366  0.8765 -0.2140
 6448SOL     OW21350  10.197   6.099   3.107  0.0209 -0.8794  0.1722
 6448SOL    HW121351  10.128   6.115   3.043  0.2391 -0.1096  0.1252
 6448SOL    HW221352  10.166   6.023   3.157 -1.5270  0.2891  1.0885
 6449SOL     OW21353   1.499   4.455   8.791 -0.4116  0.5549 -0.0488
 6449SOL    HW121354   1.518   4.367   8.761  0.8538  0.5901  0.5563
 6449SOL    HW221355   1.422   4.482   8.741 -1.8487 -1.4857  0.9486
 6450SOL     OW21356   1.392   6.396   8.023  0.6668  0.0518  0.3573
 6450SOL    HW121357   1.460   6.428   7.964 -0.0800  0.7553 -0.1577
 6450SOL    HW221358   1.327   6.467   8.024 -1.2949 -1.6138 -1.1878
 6451SOL     OW21359   4.980  10.626   5.515 -0.6042 -0.1213 -0.6568
 6451SOL    HW121360   4.963  10.559   5.582 -0.7159  0.0700 -0.4937
 6451SOL    HW221361   4.931  10.597   5.439 -1.2832  0.1795 -0.3413
 6452SOL     OW21362   4.383   5.163   8.456  0.1254 -0.7197 -0.2836
 6452SOL    HW121363   4.476   5.181   8.469 -0.1058 -0.8770  2.0284
 6452SOL    HW221364   4.338   5.237   8.497 -0.7533 -1.4646  0.1412
 6453SOL     OW21365   0.141   0.625   9.178  0.0368  0.0141  0.5246
 6453SOL    HW121366   0.213   0.688   9.174  0.0753 -0.1004 -1.6662
 6453SOL    HW221367   0.180   0.542   9.150 -1.3693  0.4795 -3.3672
 6454SOL     OW21368   3.275  10.043   6.248  0.7637  0.5273 -0.3694
 6454SOL    HW121369   3.209  10.082   6.191 -1.1624  0.4192  1.6241
 6454SOL    HW221370   3.339  10.113   6.263 -0.2155  1.4690 -0.4499
 6455SOL     OW21371   8.866   6.621   9.674  0.2848 -0.4122 -0.2973
 6455SOL    HW121372   8.927   6.634   9.602  0.2276  1.9413  0.0228
 6455SOL    HW221373   8.794   6.681   9.657  0.4345  0.4933  1.8758
 6456SOL     OW21374   2.147   9.632   6.700  0.3744  0.2772 -0.0580
 6456SOL    HW121375   2.126   9.681   6.780  0.4095  0.1640  0.0200
 6456SOL    HW221376   2.101   9.679   6.630 -0.0574  0.0840  0.0989
 6457SOL     OW21377   7.513   9.253   8.306  0.2966  0.7373  0.0334
 6457SOL    HW121378   7.448   9.314   8.271  0.4721  0.7772 -0.2218
 6457SOL    HW221379   7.547   9.207   8.229  1.1655  1.2900  0.0782
 6458SOL     OW21380   3.412   0.935   7.192  0.3216  0.0106  0.4258
 6458SOL    HW121381   3.465   0.890   7.258 -0.7975  0.6862  1.8405
 6458SOL    HW221382   3.423   0.883   7.112 -0.2780 -2.3040  1.7633
 6459SOL     OW21383   9.320   1.626   8.919  0.2540  0.1525  0.0084
 6459SOL    HW121384   9.279   1.710   8.939 -2.9764 -1.2463 -0.1426
 6459SOL    HW221385   9.317   1.578   9.001 -1.8424 -1.2466 -0.8067
 6460SOL     OW21386   8.495   6.178   6.847  0.5308  0.5518  0.8223
 6460SOL    HW121387   8.570   6.221   6.806  0.3777  1.2146  1.2260
 6460SOL    HW221388   8.465   6.114   6.782  1.3403  0.3898  0.5883
 6461SOL     OW21389   2.064   9.361   9.965  0.3300  0.4578 -0.2772
 6461SOL    HW121390   1.996   9.313  10.012  0.7505  0.5901  0.4715
 6461SOL    HW221391   2.137   9.299   9.960 -0.6178 -0.5995 -3.1894
 6462SOL     OW21392   9.373   8.720   8.298 -0.1548 -0.1427 -0.4124
 6462SOL    HW121393   9.413   8.761   8.375  0.2731  1.0467 -1.2434
 6462SOL    HW221394   9.396   8.777   8.225 -0.4661 -1.3035 -1.4598
 6463SOL     OW21395   1.892   4.139   0.055 -0.4648 -0.0838  0.0064
 6463SOL    HW121396   1.851   4.129   0.141  0.3648  0.5803  0.4915
 6463SOL    HW221397   1.950   4.063   0.047 -0.6612 -0.2311 -0.0457
 6464SOL     OW21398   1.455   6.663   1.852  0.4910  0.2765 -0.1027
 6464SOL    HW121399   1.394   6.608   1.802  0.8319  0.0662 -0.2885
 6464SOL    HW221400   1.442   6.751   1.816  2.0685 -0.1671 -1.9059
 6465SOL     OW21401   9.258   8.358   6.085 -0.0415  0.7452 -0.0703
 6465SOL    HW121402   9.166   8.356   6.058 -0.0155 -0.4244 -0.1301
 6465SOL    HW221403   9.264   8.291   6.154  1.0483 -0.2223 -1.0686
 6466SOL     OW21404   5.965   1.366   5.186  0.1538  0.1607  0.0178
 6466SOL    HW121405   6.041   1.402   5.141  0.5471 -0.2137  0.3748
 6466SOL    HW221406   5.890   1.392   5.132  0.2440  2.8318  1.0352
 6467SOL     OW21407  10.751   7.068   2.048  0.2032  0.2816 -0.1700
 6467SOL    HW121408  10.796   7.085   1.965  0.8893 -0.3163  0.0693
 6467SOL    HW221409  10.777   7.141   2.104 -1.6416  1.6515 -0.9796
 6468SOL     OW21410   8.888   0.721   5.506  0.3738 -0.2081  0.1045
 6468SOL    HW121411   8.835   0.686   5.578  1.3320 -1.9300  0.0261
 6468SOL    HW221412   8.834   0.707   5.428 -0.4853  1.2735  0.3885
 6469SOL     OW21413   8.356   3.540   9.831  0.3348 -0.0209 -0.0584
 6469SOL    HW121414   8.382   3.471   9.892  0.4523 -0.8212 -0.9759
 6469SOL    HW221415   8.260   3.536   9.830  0.3654 -1.1610 -1.1611
 6470SOL     OW21416   0.438   0.140   8.843 -0.3570  0.4217 -0.0300
 6470SOL    HW121417   0.353   0.174   8.814  0.0743  0.2924 -1.5004
 6470SOL    HW221418   0.421   0.108   8.932 -1.5875  1.3714  0.1111
 6471SOL     OW21419   3.893   2.672   6.666  0.0198  0.1808 -0.2126
 6471SOL    HW121420   3.975   2.624   6.677 -0.0223 -0.0738 -0.9039
 6471SOL    HW221421   3.914   2.742   6.603 -0.2027  0.3388 -0.1141
 6472SOL     OW21422   8.644   5.514   9.158  0.1828  0.2971  0.3786
 6472SOL    HW121423   8.665   5.607   9.172  1.1687  0.0875  0.3512
 6472SOL    HW221424   8.592   5.513   9.078 -0.3415  0.8748  0.6927
 6473SOL     OW21425   6.584   2.604   4.045 -0.8043  0.4544 -0.1895
 6473SOL    HW121426   6.590   2.615   4.139  1.1597  0.4270 -0.2874
 6473SOL    HW221427   6.522   2.672   4.017  1.4230  3.0012  0.6942
 6474SOL     OW21428   9.020   1.288  11.029 -0.4599  0.0073  0.2259
 6474SOL    HW121429   8.972   1.321  11.105  0.0489  1.1828  0.0550
 6474SOL    HW221430   8.952   1.264  10.966 -0.8937 -1.1024  1.0662
 6475SOL     OW21431   5.436   5.952   5.457 -0.5872  0.0669  0.4103
 6475SOL    HW121432   5.487   5.919   5.531  0.7395 -0.8828 -0.8670
 6475SOL    HW221433   5.363   5.891   5.448 -2.0602  1.4582  2.2777
 6476SOL     OW21434   0.437   2.582   6.848 -0.1857 -0.1931 -0.0286
 6476SOL    HW121435   0.434   2.537   6.933  0.7928 -3.0071 -1.3617
 6476SOL    HW221436   0.363   2.545   6.800 -1.0233  1.7410 -0.2999
 6477SOL     OW21437   9.502   8.130   2.385  0.3415  0.5196  0.0283
 6477SOL    HW121438   9.462   8.070   2.448  0.3363  0.5436  0.0478
 6477SOL    HW221439   9.593   8.136   2.412  0.2921  0.6888  0.1544
 6478SOL     OW21440  10.422   0.164   2.945 -0.3854 -0.1282  0.3284
 6478SOL    HW121441  10.413   0.086   3.000  1.3686  0.5590  1.6825
 6478SOL    HW221442  10.437   0.236   3.007 -2.5174  1.4668 -0.8185
 6479SOL     OW21443   5.580   2.636   8.168  0.6758  0.2234  0.0922
 6479SOL    HW121444   5.638   2.623   8.243  1.2235 -0.3389 -0.4040
 6479SOL    HW221445   5.640   2.655   8.096  0.3185 -1.0541 -0.5892
 6480SOL     OW21446   3.215   5.262   7.456 -0.3135 -0.0111  0.1483
 6480SOL    HW121447   3.259   5.269   7.371  0.4493  0.6225  0.5843
 6480SOL    HW221448   3.286   5.253   7.519 -0.8956 -0.8144  0.6905
 6481SOL     OW21449   3.515   7.978   8.730 -0.4102  0.0138  0.0688
 6481SOL    HW121450   3.569   7.927   8.790 -2.0768 -0.3095  1.3706
 6481SOL    HW221451   3.427   7.976   8.769 -1.4713  0.1436 -2.1860
 6482SOL     OW21452   3.905   4.049   4.436 -0.4536  0.0489  0.1197
 6482SOL    HW121453   3.884   3.981   4.373 -1.9779  1.2974 -0.8003
 6482SOL    HW221454   3.930   4.124   4.383 -3.8994  1.8516  0.7433
 6483SOL     OW21455   0.624   9.237   6.146 -0.3672 -0.1353 -0.1265
 6483SOL    HW121456   0.697   9.284   6.105  2.1498 -2.2548  1.5656
 6483SOL    HW221457   0.600   9.169   6.082 -0.1857 -0.0449 -0.2919
 6484SOL     OW21458   7.178   3.369   8.391  0.1144  0.4476  0.0732
 6484SOL    HW121459   7.159   3.440   8.452 -0.6054  2.3615 -2.2244
 6484SOL    HW221460   7.100   3.364   8.336  0.0869 -2.2947  0.2455
 6485SOL     OW21461  10.562  10.705   1.466 -0.0168  0.1206 -0.6738
 6485SOL    HW121462  10.490  10.726   1.407 -0.3975 -0.6783 -0.5078
 6485SOL    HW221463  10.594  10.620   1.436 -2.0131 -1.6938  1.8871
 6486SOL     OW21464   8.561  10.871   0.066  0.2964 -0.1733  0.3807
 6486SOL    HW121465   8.507  10.793   0.078  1.0596 -0.9219 -0.8173
 6486SOL    HW221466   8.499  10.944   0.072 -1.4606 -1.0758 -3.5249
 6487SOL     OW21467   0.627   3.172   8.345 -0.2533  0.0291  0.3265
 6487SOL    HW121468   0.618   3.187   8.251 -1.3218 -1.2951  0.1732
 6487SOL    HW221469   0.566   3.234   8.385  1.0259  1.3803  0.2491
 6488SOL     OW21470   2.006   7.116   6.811 -0.1043  0.1594 -0.4613
 6488SOL    HW121471   2.047   7.150   6.891 -1.6875 -0.0244  0.4849
 6488SOL    HW221472   2.078   7.084   6.758  0.9358 -0.6222  1.3394
 6489SOL     OW21473   1.966   0.964   8.932  0.2717 -0.1392  0.3901
 6489SOL    HW121474   2.018   0.903   8.985  0.0780 -0.5968  0.0679
 6489SOL    HW221475   1.877   0.930   8.938  0.2974 -0.3814 -0.4711
 6490SOL     OW21476   3.639  10.914   0.159  0.0986 -0.0597 -0.8026
 6490SOL    HW121477   3.638  11.008   0.173 -1.3689 -0.0489 -0.8382
 6490SOL    HW221478   3.732  10.889   0.168  0.4437  1.3057 -0.3784
 6491SOL     OW21479   1.793   0.957   7.078  0.1053  0.3952  0.5828
 6491SOL    HW121480   1.867   0.921   7.126 -0.7232 -0.6859  1.0875
 6491SOL    HW221481   1.816   0.946   6.986  0.0091 -1.1730  0.7280
 6492SOL     OW21482   7.585   9.595   8.174 -0.6852 -0.1886  0.0572
 6492SOL    HW121483   7.667   9.549   8.157 -1.3286 -2.0164  1.5949
 6492SOL    HW221484   7.546   9.606   8.087 -0.0462 -1.6815 -0.4494
 6493SOL     OW21485   4.542   2.393   0.239  0.2053  0.2312  0.2345
 6493SOL    HW121486   4.573   2.459   0.178 -0.7990 -0.8541 -1.5447
 6493SOL    HW221487   4.450   2.415   0.253  0.0680 -0.3237  0.2344
 6494SOL     OW21488  10.964   4.650   6.817  0.5541 -0.1911 -0.0440
 6494SOL    HW121489  10.999   4.669   6.730 -1.6591  0.0874 -0.9565
 6494SOL    HW221490  10.913   4.728   6.840  0.3884 -0.6216  1.1191
 6495SOL     OW21491   5.208   0.936   4.557  0.3079 -0.1254 -0.0002
 6495SOL    HW121492   5.285   0.993   4.554  0.5618 -0.4733 -0.1765
 6495SOL    HW221493   5.229   0.863   4.498 -0.7242  0.4720 -1.1535
 6496SOL     OW21494   9.401   3.070   8.579  0.6799 -0.0442 -0.0782
 6496SOL    HW121495   9.472   3.133   8.583 -0.0098  0.7233  0.2359
 6496SOL    HW221496   9.381   3.051   8.671 -0.5213  0.8979 -0.1280
 6497SOL     OW21497   7.528   2.305   3.684  0.0425 -0.2779  0.0060
 6497SOL    HW121498   7.619   2.308   3.653 -0.2503 -0.8402 -0.9746
 6497SOL    HW221499   7.495   2.393   3.669  0.1648 -0.3129 -0.4858
 6498SOL     OW21500   6.321   1.029   3.813 -0.1532  0.5247 -0.5635
 6498SOL    HW121501   6.403   1.035   3.764  0.4262  0.3911  0.3547
 6498SOL    HW221502   6.344   1.060   3.901 -1.0949  0.5062 -0.3052
 6499SOL     OW21503   5.275   9.031   7.458  1.0457 -0.6434 -0.0780
 6499SOL    HW121504   5.346   9.060   7.401  0.8413 -0.5313 -0.2711
 6499SOL    HW221505   5.276   8.935   7.450 -0.4374 -0.5410 -2.0166
 6500SOL     OW21506   4.372   3.805   3.057 -0.5300  0.4829  0.1085
 6500SOL    HW121507   4.316   3.818   2.980  0.4764  1.7220 -0.4499
 6500SOL    HW221508   4.431   3.881   3.057  1.9242 -1.3028  0.0117
 6501SOL     OW21509   9.293   5.136   6.714 -0.0131  0.1671 -0.4287
 6501SOL    HW121510   9.224   5.183   6.761  0.0765 -0.4757  0.3696
 6501SOL    HW221511   9.373   5.185   6.733 -0.3941  1.7245 -2.4699
 6502SOL     OW21512   9.438   2.407   2.863  0.2110 -0.3122  0.1253
 6502SOL    HW121513   9.490   2.488   2.867 -1.4998  0.9046 -0.7987
 6502SOL    HW221514   9.485   2.346   2.919  2.6615  0.6694 -0.7228
 6503SOL     OW21515   0.184   4.275   9.024 -0.4350 -0.0897 -0.0901
 6503SOL    HW121516   0.210   4.311   8.939  0.2030 -1.9275 -0.7231
 6503SOL    HW221517   0.184   4.350   9.083  0.7586  0.9418 -1.3354
 6504SOL     OW21518   0.312   1.777   6.856  0.2276  0.2700  0.3521
 6504SOL    HW121519   0.316   1.730   6.940 -1.4873  0.3489  0.4986
 6504SOL    HW221520   0.278   1.712   6.794 -0.6999  0.8648  0.2247
 6505SOL     OW21521   4.524   2.091   7.028  0.0028  0.5167  0.2866
 6505SOL    HW121522   4.564   2.060   6.946 -0.7092 -0.2368  0.2079
 6505SOL    HW221523   4.430   2.081   7.014 -0.1211  0.1841  1.2714
 6506SOL     OW21524   9.675   2.658   2.579  0.2456  0.1273 -0.1924
 6506SOL    HW121525   9.637   2.695   2.658 -0.3421  0.2473 -0.5224
 6506SOL    HW221526   9.767   2.644   2.600  0.1023  0.1975  0.4946
 6507SOL     OW21527   0.766   2.726   3.877  0.4489  0.4114  0.1035
 6507SOL    HW121528   0.679   2.719   3.838 -0.3319 -0.9886  1.9264
 6507SOL    HW221529   0.825   2.740   3.803 -1.0662 -0.8522 -1.4141
 6508SOL     OW21530  10.495   6.753   6.293 -0.0026  0.2927  0.1206
 6508SOL    HW121531  10.474   6.717   6.207  0.5706  0.5567 -0.1382
 6508SOL    HW221532  10.419   6.734   6.347 -0.0632 -0.5373 -0.2450
 6509SOL     OW21533   9.609  10.479   6.009 -0.3657 -0.2143 -0.2160
 6509SOL    HW121534   9.527  10.442   5.977 -0.5828  0.5178 -0.5336
 6509SOL    HW221535   9.629  10.550   5.948 -0.7504  1.1757  1.2029
 6510SOL     OW21536   9.527   7.463   9.318 -0.7012  0.0378 -0.2163
 6510SOL    HW121537   9.588   7.435   9.387 -0.3646 -0.6931 -0.8028
 6510SOL    HW221538   9.530   7.393   9.253 -1.1489  0.6398 -0.8963
 6511SOL     OW21539   3.832   0.864  10.573  0.6135 -0.4302 -0.1257
 6511SOL    HW121540   3.906   0.827  10.524  0.4480 -0.9172 -0.0103
 6511SOL    HW221541   3.848   0.839  10.664 -0.2684 -1.5191 -0.2475
 6512SOL     OW21542  10.157   6.792  10.344  0.1098 -0.4810 -0.6984
 6512SOL    HW121543  10.101   6.867  10.364  0.2130 -0.3873 -0.7614
 6512SOL    HW221544  10.134   6.767  10.255  1.0032  0.3020 -1.1669
 6513SOL     OW21545   4.076   6.081   6.637  0.2437  0.5754 -0.0743
 6513SOL    HW121546   4.013   6.107   6.571  0.3341  0.8011 -0.0715
 6513SOL    HW221547   4.132   6.017   6.593  0.7998  1.3124 -0.4634
 6514SOL     OW21548   6.312   5.518  10.868  0.2502 -0.3701  0.3469
 6514SOL    HW121549   6.381   5.478  10.920  1.8342  1.2568 -0.3941
 6514SOL    HW221550   6.338   5.503  10.777  0.5141  1.6102  0.0560
 6515SOL     OW21551   6.528  10.582   5.232  0.3033 -0.5573  0.0636
 6515SOL    HW121552   6.546  10.535   5.151 -0.3495  1.0055 -1.0493
 6515SOL    HW221553   6.529  10.515   5.300  1.5892 -1.8058 -1.1170
 6516SOL     OW21554   3.646   5.760   5.147 -0.6754 -0.1841 -0.1711
 6516SOL    HW121555   3.707   5.705   5.195 -0.1350  0.2125 -0.4003
 6516SOL    HW221556   3.561   5.740   5.186 -0.7589 -2.3679 -1.2709
 6517SOL     OW21557  10.730   8.590   0.648  0.1280 -0.1577 -0.0578
 6517SOL    HW121558  10.652   8.584   0.594  0.1680  1.0350 -0.2761
 6517SOL    HW221559  10.719   8.522   0.714  0.4371 -2.1917 -1.9822
 6518SOL     OW21560   8.353   0.445   7.123  0.1245 -0.0882 -0.1252
 6518SOL    HW121561   8.270   0.401   7.142 -0.5593  0.2019 -2.1926
 6518SOL    HW221562   8.406   0.378   7.079 -0.5741  0.7729 -2.4409
 6519SOL     OW21563  10.689   9.731   7.367 -0.3293 -0.0428  0.7538
 6519SOL    HW121564  10.775   9.768   7.351 -0.3142  0.0905  1.1377
 6519SOL    HW221565  10.706   9.640   7.391 -0.2675  0.0760  1.1710
 6520SOL     OW21566   8.050   6.179   3.844  0.4235 -0.1940  0.4320
 6520SOL    HW121567   7.963   6.170   3.882 -1.4453  1.6981 -2.9402
 6520SOL    HW221568   8.041   6.145   3.755  3.1072  0.2387 -0.0844
 6521SOL     OW21569   2.944   3.830  11.007  0.1419 -1.1989  0.3236
 6521SOL    HW121570   2.993   3.820  10.925  0.7096 -0.5099  0.5588
 6521SOL    HW221571   2.931   3.925  11.016 -2.3841 -1.4151 -0.3693
 6522SOL     OW21572   0.671   9.668   0.407 -0.2654  0.3493 -0.3313
 6522SOL    HW121573   0.733   9.616   0.458  1.6640  0.9352 -1.9428
 6522SOL    HW221574   0.678   9.634   0.318 -1.0630  1.5000 -0.8721
 6523SOL     OW21575   5.587   6.982   3.799 -0.2589  0.4482 -0.3472
 6523SOL    HW121576   5.528   7.052   3.769 -0.2362  0.6562  0.0733
 6523SOL    HW221577   5.652   6.974   3.730  0.6372  1.9191  0.2620
 6524SOL     OW21578   4.670   7.922   8.282  0.0043  0.2140  0.3867
 6524SOL    HW121579   4.669   7.999   8.338  1.6553 -1.0597  2.3031
 6524SOL    HW221580   4.580   7.915   8.250 -0.4645  2.2520  1.0650
 6525SOL     OW21581   9.840   8.138   5.029 -0.1774 -0.1226 -0.5994
 6525SOL    HW121582   9.914   8.168   4.976 -1.2148  1.0902 -1.4364
 6525SOL    HW221583   9.804   8.218   5.067 -1.4553 -0.5956 -0.7670
 6526SOL     OW21584   1.148   5.573  10.115 -0.2204  0.0281 -0.3281
 6526SOL    HW121585   1.204   5.508  10.073 -0.5361 -0.2887 -0.2693
 6526SOL    HW221586   1.176   5.574  10.206  0.2348  0.4637 -0.4752
 6527SOL     OW21587   9.638   9.341   2.224 -0.3770  0.0511  0.1515
 6527SOL    HW121588   9.707   9.355   2.290  0.2699 -0.6999 -0.3452
 6527SOL    HW221589   9.591   9.264   2.254 -0.5928  0.1848  0.1557
 6528SOL     OW21590   9.476   8.047   8.520  0.1905 -0.2265 -0.0490
 6528SOL    HW121591   9.389   8.083   8.540  0.7325  1.1761 -0.0847
 6528SOL    HW221592   9.526   8.061   8.600  0.0991 -2.0476  0.3628
 6529SOL     OW21593   6.921   1.288   7.877 -0.0315 -0.4776  0.8469
 6529SOL    HW121594   6.923   1.228   7.802 -1.4656  0.3472  0.1201
 6529SOL    HW221595   6.829   1.314   7.885  0.4272  0.9957  1.6573
 6530SOL     OW21596   1.538   9.876   8.187 -1.0265 -0.7057  0.0740
 6530SOL    HW121597   1.461   9.906   8.141  0.1256  1.0250 -0.8282
 6530SOL    HW221598   1.543   9.931   8.265  0.2862  0.5623 -0.8394
 6531SOL     OW21599   2.188   6.711   8.163  0.5408 -0.2418 -0.0343
 6531SOL    HW121600   2.280   6.739   8.168  0.3063  0.4565  0.6947
 6531SOL    HW221601   2.191   6.627   8.119  1.4069  0.3965 -1.2750
 6532SOL     OW21602   9.677   7.734   5.420 -0.0339 -0.1951  0.0655
 6532SOL    HW121603   9.707   7.789   5.492 -1.0054 -0.4215  0.6598
 6532SOL    HW221604   9.600   7.689   5.454  0.0872 -1.0822 -0.7831
 6533SOL     OW21605   8.530   4.518   7.053  0.0260 -0.0397  0.0559
 6533SOL    HW121606   8.546   4.498   7.146  0.4074 -1.9767 -0.3768
 6533SOL    HW221607   8.515   4.432   7.013 -1.0625  0.8428 -1.5209
 6534SOL     OW21608   0.772   2.697   9.689  0.4024  0.3365  0.1356
 6534SOL    HW121609   0.742   2.739   9.770 -0.3716 -0.6572  0.3888
 6534SOL    HW221610   0.740   2.607   9.696  1.8674 -0.2604 -0.4570
 6535SOL     OW21611   3.625   6.867   6.378  0.2206 -0.3580  0.4426
 6535SOL    HW121612   3.536   6.838   6.399  0.6350 -0.3633  2.4691
 6535SOL    HW221613   3.638   6.946   6.431  1.0046  0.3846 -0.7999
 6536SOL     OW21614   0.609   3.813   8.843 -0.0868  0.0493  0.5900
 6536SOL    HW121615   0.648   3.829   8.757  1.0161  0.6717  1.1804
 6536SOL    HW221616   0.667   3.859   8.904 -0.1350 -1.4344  1.7950
 6537SOL     OW21617   5.609  10.826   0.729 -0.2952  0.3572  0.1782
 6537SOL    HW121618   5.690  10.863   0.693 -1.3331  0.8344 -1.7987
 6537SOL    HW221619   5.605  10.862   0.818  1.1910  1.0595  0.0025
 6538SOL     OW21620   5.715   5.040   9.751  0.7575 -0.4425  0.0643
 6538SOL    HW121621   5.630   5.023   9.709  1.1950  1.9851 -2.1236
 6538SOL    HW221622   5.692   5.087   9.832 -0.0174 -2.3684  1.0204
 6539SOL     OW21623   6.003   5.083   4.013  0.3027  0.1301  0.5539
 6539SOL    HW121624   5.938   5.104   4.079  1.3412  0.9942  1.3417
 6539SOL    HW221625   6.015   5.164   3.964  1.4911  0.2957  1.0737
 6540SOL     OW21626  10.348   7.737   3.817 -0.0118  0.2969  0.1966
 6540SOL    HW121627  10.299   7.679   3.759  0.7731  0.0904 -0.2689
 6540SOL    HW221628  10.297   7.819   3.817 -1.0751 -0.3359  0.7924
 6541SOL     OW21629   8.748   8.519   9.248 -0.0197  0.3752  0.6809
 6541SOL    HW121630   8.687   8.444   9.245  0.7987 -0.4212  2.3142
 6541SOL    HW221631   8.698   8.592   9.212 -1.2983 -0.6735  0.2355
 6542SOL     OW21632   1.214   8.971  10.926  0.6222  0.5037  0.1563
 6542SOL    HW121633   1.309   8.965  10.916  0.4630 -0.4838 -0.9172
 6542SOL    HW221634   1.197   9.064  10.945  1.6838  0.9188 -0.8742
 6543SOL     OW21635   4.760   7.303   7.008  0.1769  0.0654  0.3269
 6543SOL    HW121636   4.793   7.385   6.971 -0.8945 -0.1327 -1.1384
 6543SOL    HW221637   4.802   7.235   6.956 -0.1319 -0.2678  0.5097
 6544SOL     OW21638   1.055   7.613   9.853 -0.2636  0.1662  0.5702
 6544SOL    HW121639   1.122   7.680   9.867  0.7235 -0.4990 -0.7860
 6544SOL    HW221640   1.086   7.563   9.778 -1.1441 -1.6133  1.3270
 6545SOL     OW21641   9.091   5.223   2.097  0.3030 -0.4261  0.5079
 6545SOL    HW121642   9.008   5.243   2.053  1.0080  1.0348 -0.2538
 6545SOL    HW221643   9.068   5.217   2.190 -0.6829 -0.1714  0.2955
 6546SOL     OW21644   8.244   5.805   8.240 -0.3313 -0.1013 -0.5046
 6546SOL    HW121645   8.286   5.778   8.322 -0.0134 -0.8000 -0.8962
 6546SOL    HW221646   8.167   5.854   8.269  0.2500  0.4166  0.2128
 6547SOL     OW21647   7.797   7.852  10.161  0.3717 -0.2324  0.1073
 6547SOL    HW121648   7.807   7.831  10.254  1.4546  1.5304  0.4382
 6547SOL    HW221649   7.858   7.793  10.117  0.7871 -0.2143  0.6466
 6548SOL     OW21650   7.853   7.398   8.320  0.2271 -0.0115 -0.2975
 6548SOL    HW121651   7.902   7.356   8.391  1.0360 -1.8909 -1.8447
 6548SOL    HW221652   7.871   7.491   8.330  0.0965 -0.1902  2.0746
 6549SOL     OW21653   9.451   4.256   7.845 -0.2250 -0.3985 -0.2712
 6549SOL    HW121654   9.505   4.327   7.809 -0.3944 -0.0981  0.0589
 6549SOL    HW221655   9.362   4.291   7.844 -0.2415 -0.4160  0.3646
 6550SOL     OW21656   6.008   4.559   3.798  0.6724  0.2632  0.0783
 6550SOL    HW121657   5.913   4.546   3.800  0.5930  0.9093  0.6080
 6550SOL    HW221658   6.038   4.526   3.882  0.8804  0.3896  0.0534
 6551SOL     OW21659   5.842   0.105   6.537 -0.3476  0.3525 -0.1823
 6551SOL    HW121660   5.755   0.144   6.545 -0.9481 -0.9136 -0.2889
 6551SOL    HW221661   5.903   0.178   6.548 -1.3865  1.0122  1.3795
 6552SOL     OW21662   6.709   3.205   8.799  0.3546  0.3830  0.0536
 6552SOL    HW121663   6.692   3.114   8.774 -1.8716  0.9460 -0.6832
 6552SOL    HW221664   6.655   3.257   8.740  1.0803  2.1746  0.8964
 6553SOL     OW21665   5.686   7.527   0.243 -0.2287 -0.1439 -0.3121
 6553SOL    HW121666   5.609   7.473   0.261 -0.0702 -0.4721 -0.5966
 6553SOL    HW221667   5.751   7.498   0.307  0.0557 -0.7219 -0.8457
 6554SOL     OW21668   5.970   3.255   1.405  0.0025  0.2906 -0.1833
 6554SOL    HW121669   6.012   3.341   1.404  0.4307  0.0971 -1.7245
 6554SOL    HW221670   5.877   3.273   1.419  0.1042  1.0120 -0.4014
 6555SOL     OW21671   4.036  10.726   4.336  0.0524 -0.1065  0.4920
 6555SOL    HW121672   3.942  10.745   4.333  0.1466  0.4158 -2.8065
 6555SOL    HW221673   4.046  10.644   4.288  1.3324  0.1019  0.3562
 6556SOL     OW21674   1.088   8.694  10.078 -0.7710  0.1499 -0.1425
 6556SOL    HW121675   1.161   8.712  10.139 -0.9793  0.3314  0.0577
 6556SOL    HW221676   1.126   8.638  10.011 -0.5988 -0.2670  0.2961
 6557SOL     OW21677   4.751   2.249   0.954 -0.2575 -0.3174  0.2712
 6557SOL    HW121678   4.743   2.170   1.007  0.0498 -1.0365 -0.7304
 6557SOL    HW221679   4.698   2.231   0.876  2.5099 -0.9795 -1.6052
 6558SOL     OW21680   9.162   2.396  10.951 -0.5431  0.4955  0.0409
 6558SOL    HW121681   9.135   2.432  10.866 -1.0447  0.4696  0.1858
 6558SOL    HW221682   9.145   2.302  10.943 -0.8224  0.5280  0.2599
 6559SOL     OW21683  11.008   7.514   3.749 -0.0876 -0.3372 -0.1849
 6559SOL    HW121684  11.046   7.433   3.715  0.4838 -0.2575  0.2487
 6559SOL    HW221685  11.001   7.571   3.673  0.7944 -0.3061 -0.2563
 6560SOL     OW21686   2.560   6.678   5.407  0.3245 -0.0028  0.3204
 6560SOL    HW121687   2.590   6.599   5.453 -2.5227 -0.1024  2.2258
 6560SOL    HW221688   2.499   6.646   5.341 -0.6197  0.5344  0.9087
 6561SOL     OW21689   2.273   5.983   6.057 -0.0993 -0.2295  0.8833
 6561SOL    HW121690   2.272   5.942   5.970  0.7648  3.0186 -0.8104
 6561SOL    HW221691   2.365   5.977   6.085  0.3517  1.6755 -0.0446
 6562SOL     OW21692   9.365   1.858   0.025 -0.2483 -0.0995 -0.1148
 6562SOL    HW121693   9.286   1.812  -0.004 -0.2924  0.5314 -1.0569
 6562SOL    HW221694   9.332   1.943   0.056 -0.0599 -0.2822  0.5834
 6563SOL     OW21695   3.269   8.143   5.265  0.4949 -0.1040  0.6163
 6563SOL    HW121696   3.273   8.054   5.231  2.0974  0.2382 -0.2012
 6563SOL    HW221697   3.345   8.187   5.226  0.2462  1.3675  1.7014
 6564SOL     OW21698   6.248   3.084   7.981  0.5284  0.2015  0.3115
 6564SOL    HW121699   6.269   3.069   7.888 -0.3220 -0.2468  0.1780
 6564SOL    HW221700   6.323   3.050   8.028  0.5458 -0.4851 -0.1857
 6565SOL     OW21701   3.943  10.163  10.746  0.1360  0.1246  0.2177
 6565SOL    HW121702   3.885  10.218  10.799  0.9738  1.2515 -0.0007
 6565SOL    HW221703   3.914  10.178  10.656  0.9588  0.9590  0.0780
 6566SOL     OW21704   5.777   4.976   6.911  0.1772  0.2122 -0.1898
 6566SOL    HW121705   5.785   5.067   6.940 -0.5295  0.4023 -0.5462
 6566SOL    HW221706   5.703   4.941   6.962  1.0579 -0.4719  0.6611
 6567SOL     OW21707   4.930   7.316  10.073  0.8711  0.1668 -0.3342
 6567SOL    HW121708   4.857   7.318  10.012 -0.0801 -1.0821  0.7024
 6567SOL    HW221709   5.008   7.319  10.017  0.0337  0.0318 -1.5405
 6568SOL     OW21710   4.573   3.070   0.258 -0.2613  0.1379 -0.6060
 6568SOL    HW121711   4.647   3.044   0.312 -0.2256 -0.0878 -0.7619
 6568SOL    HW221712   4.501   3.013   0.287 -0.3067  0.1838 -0.6282
 6569SOL     OW21713   5.046   7.004   6.585 -0.2083  1.1290  0.0053
 6569SOL    HW121714   4.996   7.046   6.516  0.7440  2.1065 -0.1190
 6569SOL    HW221715   5.102   7.074   6.620  1.7904 -0.1239 -0.5490
 6570SOL     OW21716   1.688  10.121   4.467 -0.6938 -0.3966  0.0345
 6570SOL    HW121717   1.673  10.178   4.542 -0.7177  1.1332 -1.0945
 6570SOL    HW221718   1.633  10.157   4.397 -1.3325 -2.2824 -0.4995
 6571SOL     OW21719   7.111   5.882   9.438 -0.2579 -0.1282  0.4358
 6571SOL    HW121720   7.046   5.893   9.368  1.0622  1.4532 -0.6322
 6571SOL    HW221721   7.195   5.874   9.391  0.6511  0.8710  1.8237
 6572SOL     OW21722  10.660  10.522   0.234 -0.3210  0.1886 -0.1424
 6572SOL    HW121723  10.653  10.601   0.288 -1.7833  0.4330 -0.6234
 6572SOL    HW221724  10.754  10.506   0.226  0.0016  1.8126  0.0704
 6573SOL     OW21725   0.846   8.526   2.269  0.5846 -0.0565 -0.1834
 6573SOL    HW121726   0.810   8.459   2.211  0.1434 -0.6420  0.7455
 6573SOL    HW221727   0.810   8.505   2.355  0.5282  1.3164  0.1492
 6574SOL     OW21728   2.707   8.045   7.634 -0.2295 -0.0657 -0.2103
 6574SOL    HW121729   2.718   8.001   7.550 -2.1773  0.0105 -0.5593
 6574SOL    HW221730   2.684   7.975   7.695 -0.4776  0.0915 -0.1214
 6575SOL     OW21731   1.610  10.444   3.862 -0.1938 -0.1322 -0.2425
 6575SOL    HW121732   1.694  10.487   3.876 -0.3451 -0.3472  1.5009
 6575SOL    HW221733   1.548  10.491   3.918 -1.4887  0.6594 -2.2340
 6576SOL     OW21734   4.771   2.469   1.803  0.0949 -1.2156  0.3031
 6576SOL    HW121735   4.834   2.494   1.871 -1.3076  0.1863  1.1315
 6576SOL    HW221736   4.685   2.480   1.844 -0.7552 -1.3762 -1.3721
 6577SOL     OW21737   8.295   4.789   9.110  0.3036  0.3388  0.5612
 6577SOL    HW121738   8.243   4.731   9.054  1.0563 -0.5427  0.7545
 6577SOL    HW221739   8.249   4.788   9.194  1.4435 -1.6933  1.2142
 6578SOL     OW21740   2.271   9.699   5.560  0.2849 -0.0989  0.2502
 6578SOL    HW121741   2.352   9.648   5.561 -0.1326 -0.7860  1.2218
 6578SOL    HW221742   2.298   9.787   5.534  1.1470 -0.6209 -0.6789
 6579SOL     OW21743   8.284   9.737   1.429  0.0223  0.3455  0.0129
 6579SOL    HW121744   8.202   9.785   1.418  0.0390  0.3552 -0.0697
 6579SOL    HW221745   8.326   9.741   1.343 -0.5304 -0.8383 -0.3225
 6580SOL     OW21746   2.334  10.067  10.014  0.2038  0.1059  0.0158
 6580SOL    HW121747   2.417  10.026  10.039 -0.2424 -2.0065 -1.7106
 6580SOL    HW221748   2.267  10.008  10.050 -0.4709 -0.1023 -1.5169
 6581SOL     OW21749   6.233   6.240   7.562  0.0496  0.1111  0.1937
 6581SOL    HW121750   6.253   6.159   7.608  0.2357 -0.8920 -1.5578
 6581SOL    HW221751   6.140   6.256   7.579  0.0492 -0.3865  0.6638
 6582SOL     OW21752   7.017   1.810   5.152 -0.0767 -0.3722 -0.2916
 6582SOL    HW121753   6.939   1.754   5.144 -0.4162 -0.0717  0.7611
 6582SOL    HW221754   6.991   1.878   5.214  1.5238 -1.1668  1.3396
 6583SOL     OW21755   6.855  10.820   5.473  0.1162 -0.3110 -0.2106
 6583SOL    HW121756   6.915  10.745   5.478  0.0566 -0.4539 -1.2865
 6583SOL    HW221757   6.817  10.814   5.385 -1.9899 -0.5945  0.6559
 6584SOL     OW21758   4.253   3.364   0.043  0.4718 -0.1175  0.3681
 6584SOL    HW121759   4.348   3.375   0.034  0.6787 -0.0420  2.3377
 6584SOL    HW221760   4.242   3.294   0.107 -0.8087  0.4399  0.7931
 6585SOL     OW21761   0.123   7.906   8.378 -0.0849 -0.2357  0.1814
 6585SOL    HW121762   0.058   7.866   8.320  1.1735 -0.8255 -0.8900
 6585SOL    HW221763   0.079   7.983   8.414 -0.8814  0.2586 -1.6999
 6586SOL     OW21764   6.766   3.773   8.045 -0.1537  0.1105  0.1762
 6586SOL    HW121765   6.818   3.740   7.971 -0.5431 -0.3583  0.1033
 6586SOL    HW221766   6.696   3.708   8.055  0.2025 -0.1068  1.2896
 6587SOL     OW21767   8.056   3.432   5.668  0.2895 -0.3266  0.2843
 6587SOL    HW121768   8.034   3.503   5.728  1.3918  0.1879  0.1009
 6587SOL    HW221769   8.026   3.462   5.583  0.1133 -0.3904  0.3235
 6588SOL     OW21770   7.417   6.888   8.153 -0.5764  0.1098  0.0077
 6588SOL    HW121771   7.431   6.871   8.059 -0.0129 -0.5040  0.1939
 6588SOL    HW221772   7.347   6.828   8.178 -0.4135 -0.0491  0.0813
 6589SOL     OW21773   4.216   9.597   6.131 -0.5964 -0.5395  0.1361
 6589SOL    HW121774   4.142   9.537   6.131 -1.1955  0.1320  1.6603
 6589SOL    HW221775   4.235   9.610   6.224  1.6447 -0.9248 -0.2283
 6590SOL     OW21776   9.655   9.685   1.909 -0.1944  0.5077  0.3424
 6590SOL    HW121777   9.570   9.676   1.953 -0.8097 -2.0366 -1.2052
 6590SOL    HW221778   9.718   9.654   1.974 -0.4686  1.8364  1.2851
 6591SOL     OW21779  10.222   7.146   2.572 -0.0499 -0.2071 -0.0866
 6591SOL    HW121780  10.224   7.232   2.530 -0.0784 -0.3483 -0.3729
 6591SOL    HW221781  10.161   7.094   2.520 -2.0097  0.3318  1.5130
 6592SOL     OW21782  10.968  10.607   4.850 -0.2061 -0.6524  0.0947
 6592SOL    HW121783  10.937  10.568   4.931 -0.8525 -0.2225  0.0550
 6592SOL    HW221784  11.047  10.656   4.875 -1.3495  0.8902  0.7912
 6593SOL     OW21785   3.151   8.105  10.905  0.1070 -0.1217  0.2723
 6593SOL    HW121786   3.183   8.064  10.824 -0.7217 -0.0494 -0.0977
 6593SOL    HW221787   3.155   8.199  10.887 -0.4921 -0.1174  0.1523
 6594SOL     OW21788   7.804  10.727   4.700  0.3435 -0.4363 -0.0914
 6594SOL    HW121789   7.767  10.716   4.613 -0.6187  0.6545  0.1592
 6594SOL    HW221790   7.897  10.705   4.690  0.5268  0.8689 -1.6665
 6595SOL     OW21791   9.129   7.360   5.109 -0.4167 -0.0853 -0.0088
 6595SOL    HW121792   9.098   7.448   5.086  0.2064  0.1138 -0.1083
 6595SOL    HW221793   9.050   7.306   5.109 -0.8925  0.5843  0.5728
 6596SOL     OW21794   8.359   3.646   0.967  0.3050 -0.5465 -0.0112
 6596SOL    HW121795   8.293   3.710   0.940  0.6737 -0.4597 -0.7077
 6596SOL    HW221796   8.430   3.699   1.004  1.0477 -0.4606 -1.4878
 6597SOL     OW21797   5.932   6.974   3.161  0.2137 -0.0011  0.0764
 6597SOL    HW121798   5.838   6.992   3.172 -0.1812 -0.8542 -1.6290
 6597SOL    HW221799   5.954   7.014   3.076  1.9150  1.9923  1.3407
 6598SOL     OW21800   5.234   0.709   1.401  0.2376  0.0215 -0.0735
 6598SOL    HW121801   5.255   0.766   1.328 -0.7276  0.5420  0.0401
 6598SOL    HW221802   5.222   0.768   1.475  0.8137 -0.4659  0.4174
 6599SOL     OW21803   5.488   9.601   7.995  0.4138 -0.0803  0.4958
 6599SOL    HW121804   5.444   9.659   8.056 -0.9747 -1.4820  0.8818
 6599SOL    HW221805   5.473   9.513   8.030  0.8412 -0.8156 -1.0682
 6600SOL     OW21806   9.068   9.475   0.856 -0.2413  0.5603 -1.3402
 6600SOL    HW121807   9.159   9.471   0.829  0.7816  3.1301  1.1977
 6600SOL    HW221808   9.038   9.384   0.853  3.3033 -0.8515  0.3630
 6601SOL     OW21809   1.712   0.050   4.684 -0.4808 -0.3517 -0.2320
 6601SOL    HW121810   1.690  -0.043   4.686 -0.5614 -0.3636 -1.3535
 6601SOL    HW221811   1.649   0.091   4.743 -1.0677 -0.8795 -0.4849
 6602SOL     OW21812   7.816   2.855   5.861 -0.8117  0.0429  0.0338
 6602SOL    HW121813   7.724   2.850   5.884 -0.7858  0.3564  0.2190
 6602SOL    HW221814   7.845   2.940   5.896 -0.3247 -0.2869  0.4464
 6603SOL     OW21815   9.937   0.978   1.614  0.1222  0.3029  0.2792
 6603SOL    HW121816  10.016   1.030   1.607  0.5859 -0.4175  0.0958
 6603SOL    HW221817   9.876   1.017   1.551  0.8066  0.0221 -0.5644
 6604SOL     OW21818   0.963   1.482   6.724  0.2535  0.4590  0.4557
 6604SOL    HW121819   0.984   1.469   6.816  0.1859 -1.9150  0.1961
 6604SOL    HW221820   0.914   1.404   6.698  1.6566  0.2634 -1.9725
 6605SOL     OW21821   0.451  10.535   5.835 -0.5210 -0.3646  0.4135
 6605SOL    HW121822   0.402  10.616   5.849 -0.8676 -0.6989  1.1829
 6605SOL    HW221823   0.400  10.487   5.770 -0.3515 -0.0146  0.0066
 6606SOL     OW21824   3.224   9.460   0.257  0.0268 -0.3864 -0.1711
 6606SOL    HW121825   3.211   9.504   0.173 -1.5161  0.6857  0.5838
 6606SOL    HW221826   3.247   9.370   0.233 -0.6281 -0.1676 -1.7446
 6607SOL     OW21827   1.144   1.087   6.210 -0.1486  0.4269 -0.1916
 6607SOL    HW121828   1.174   1.113   6.298  0.5337 -0.0552 -0.2754
 6607SOL    HW221829   1.049   1.080   6.219 -0.1884  1.3683  0.2471
 6608SOL     OW21830   0.641  10.800   9.155  0.2280 -0.1691 -0.3636
 6608SOL    HW121831   0.721  10.852   9.150  0.5245 -0.7402 -2.0843
 6608SOL    HW221832   0.656  10.740   9.228  1.0063  0.3060 -0.1218
 6609SOL     OW21833   4.056   8.202   9.304  0.1274 -0.1181 -0.3001
 6609SOL    HW121834   4.020   8.184   9.217  1.5136 -0.3953 -0.8368
 6609SOL    HW221835   3.985   8.180   9.364 -1.2264  1.0533 -1.3856
 6610SOL     OW21836   8.514   0.958   6.314  0.8021 -0.0659  0.3317
 6610SOL    HW121837   8.447   0.896   6.343 -0.3095  0.6428 -0.6595
 6610SOL    HW221838   8.533   0.934   6.224  0.2633  1.0949 -0.1133
 6611SOL     OW21839   3.753   7.106   2.604 -0.0221 -0.1339  0.1826
 6611SOL    HW121840   3.773   7.200   2.604  1.5805 -0.4270  1.6664
 6611SOL    HW221841   3.802   7.072   2.529  3.0442 -0.3862  2.1396
 6612SOL     OW21842   0.552   6.903   9.336 -0.5013  0.4629 -0.3798
 6612SOL    HW121843   0.586   6.992   9.345 -1.3181  0.6382  1.2990
 6612SOL    HW221844   0.623   6.847   9.368 -1.0162  0.7065  1.2448
 6613SOL     OW21845   4.084   0.284   1.456 -0.4399 -0.6918  0.0379
 6613SOL    HW121846   4.006   0.308   1.407 -0.8931  0.4071  1.2152
 6613SOL    HW221847   4.129   0.368   1.471 -2.0785 -0.3288  4.3415
 6614SOL     OW21848   3.464   2.059   1.452 -0.0250 -1.1118 -0.2236
 6614SOL    HW121849   3.553   2.070   1.485  0.8815 -0.9639 -2.5360
 6614SOL    HW221850   3.473   2.059   1.357 -2.6408  0.0650 -0.5729
 6615SOL     OW21851   0.102   5.051  10.127 -0.3607  0.1760 -0.0729
 6615SOL    HW121852   0.136   4.963  10.142 -0.2323  0.4164  1.1679
 6615SOL    HW221853   0.065   5.077  10.212 -2.0664  0.6081 -0.9088
 6616SOL     OW21854   7.757   1.037  10.077  0.3110  0.2816  0.1197
 6616SOL    HW121855   7.760   1.093   9.999 -1.8904 -0.7582 -0.8136
 6616SOL    HW221856   7.673   0.992  10.071  1.5023 -2.3666  1.3650
 6617SOL     OW21857   7.149   5.677   6.755  0.5316  0.1678 -0.1951
 6617SOL    HW121858   7.059   5.692   6.726  0.7375  0.7434 -0.5603
 6617SOL    HW221859   7.203   5.704   6.680  1.0831  1.7969  0.7532
 6618SOL     OW21860   1.577   9.722  10.017  0.3919 -0.5138 -0.1186
 6618SOL    HW121861   1.495   9.740   9.971 -1.2913 -0.9312  2.4811
 6618SOL    HW221862   1.584   9.626  10.017 -0.5897 -0.6346  1.8914
 6619SOL     OW21863   9.690   2.909   6.733 -0.3959  0.0047  0.3735
 6619SOL    HW121864   9.715   2.823   6.698 -0.5656 -0.1640  0.6580
 6619SOL    HW221865   9.737   2.915   6.817 -1.2345 -0.2863  0.8774
 6620SOL     OW21866   8.033   6.172  11.035  0.1102 -0.0994 -0.2197
 6620SOL    HW121867   8.015   6.204  10.947 -1.1765 -2.2934 -0.8553
 6620SOL    HW221868   8.100   6.230  11.069  0.7251  0.7571 -2.6875
 6621SOL     OW21869   7.562   7.098   1.577 -0.2254 -0.1591  0.2839
 6621SOL    HW121870   7.497   7.037   1.610 -1.1248  0.3785 -0.4232
 6621SOL    HW221871   7.645   7.051   1.582 -0.4895 -0.5026  2.1683
 6622SOL     OW21872   8.894   8.373   4.700  0.5844 -0.4460 -0.1729
 6622SOL    HW121873   8.861   8.313   4.766  0.8252 -0.5406 -0.1389
 6622SOL    HW221874   8.894   8.323   4.619  0.2570 -0.3187 -0.2518
 6623SOL     OW21875   0.446   3.955  10.992  0.4019  0.7472  0.2516
 6623SOL    HW121876   0.508   4.021  11.025  0.2405  0.9363  0.1833
 6623SOL    HW221877   0.453   3.962  10.896 -0.5000  1.5206  0.2279
 6624SOL     OW21878  10.702   4.197  10.709  0.4606  0.0754  0.2187
 6624SOL    HW121879  10.771   4.131  10.707 -0.4078 -0.8610 -0.8319
 6624SOL    HW221880  10.744   4.276  10.743  2.1768 -0.3200 -0.8694
 6625SOL     OW21881   1.262   3.595   8.244  0.9471  0.3643  0.2146
 6625SOL    HW121882   1.292   3.504   8.255  1.7744  0.6191  0.1113
 6625SOL    HW221883   1.175   3.596   8.285 -0.1061 -1.0243 -1.7916
 6626SOL     OW21884   6.240   1.101   4.371  0.4306  0.0379 -0.1482
 6626SOL    HW121885   6.177   1.081   4.441  0.6448 -1.2889 -0.3098
 6626SOL    HW221886   6.222   1.192   4.348  0.4314  0.5663  1.7227
 6627SOL     OW21887   5.066   8.783   9.146 -0.0968 -0.0724 -0.3183
 6627SOL    HW121888   4.983   8.740   9.166  0.0292  0.0140  0.3976
 6627SOL    HW221889   5.044   8.846   9.076 -0.5759 -0.2345 -0.3177
 6628SOL     OW21890   7.366   1.224   5.677 -0.8701  0.4963  0.1096
 6628SOL    HW121891   7.385   1.151   5.735 -1.3824  0.4041  0.1689
 6628SOL    HW221892   7.448   1.240   5.630 -0.6791  0.0608  0.2909
 6629SOL     OW21893   9.707  10.425  10.421  0.7900  0.6440 -0.7189
 6629SOL    HW121894   9.719  10.481  10.497 -0.0606 -1.3043  0.9725
 6629SOL    HW221895   9.625  10.378  10.439  1.0994 -0.6117 -2.3416
 6630SOL     OW21896   0.013  10.674   1.217  0.0068  0.1718  0.1436
 6630SOL    HW121897  -0.010  10.609   1.283  0.8058  0.1426  0.3930
 6630SOL    HW221898   0.062  10.625   1.151 -1.2547  0.0816 -0.7737
 6631SOL     OW21899  10.072   8.300   5.636 -0.0379  0.3543  0.0302
 6631SOL    HW121900  10.041   8.314   5.725 -1.9021  0.0205 -0.5288
 6631SOL    HW221901  10.141   8.365   5.624 -0.3364  0.9613  1.4305
 6632SOL     OW21902   5.373   8.002   0.730 -0.4983  0.6594  0.1226
 6632SOL    HW121903   5.324   8.014   0.811  0.3987  0.6523  0.6829
 6632SOL    HW221904   5.375   7.907   0.717 -0.7029  0.6645  0.0549
 6633SOL     OW21905   3.781  10.941   9.919  0.1349  0.8960  0.2404
 6633SOL    HW121906   3.738  10.919  10.001  1.1815 -0.8643  0.3658
 6633SOL    HW221907   3.710  10.944   9.854 -0.5503  1.2370  0.9905
 6634SOL     OW21908   1.884   9.141   5.883 -0.3012  0.2085  0.4784
 6634SOL    HW121909   1.906   9.227   5.849  2.1781 -0.3390  0.4490
 6634SOL    HW221910   1.925   9.139   5.970 -2.3291 -0.1376  1.4704
 6635SOL     OW21911  10.939   3.653  10.047 -0.4235 -0.1725  0.1316
 6635SOL    HW121912  11.009   3.716  10.031 -0.4556  0.3095  1.7392
 6635SOL    HW221913  10.861   3.707  10.063 -0.8448 -0.6736 -0.1777
 6636SOL     OW21914   3.571   7.367   4.737  0.2833 -0.8284  0.0815
 6636SOL    HW121915   3.621   7.449   4.745 -1.3329  0.2611 -0.5533
 6636SOL    HW221916   3.593   7.335   4.649  1.5275 -1.5346  0.6200
 6637SOL     OW21917   6.555   2.648   1.103 -0.5372  0.1693  0.2917
 6637SOL    HW121918   6.476   2.609   1.067 -0.5895  1.9086 -1.6509
 6637SOL    HW221919   6.528   2.681   1.189 -1.6458 -0.1301  0.0671
 6638SOL     OW21920   8.685   6.466  10.805  0.2160 -0.4164 -0.0383
 6638SOL    HW121921   8.652   6.518  10.732 -1.9988  0.0129  1.1865
 6638SOL    HW221922   8.781   6.469  10.795  0.0214  0.4804 -2.2845
 6639SOL     OW21923   2.123   0.968   7.792  0.1822 -0.1293  0.8250
 6639SOL    HW121924   2.089   0.883   7.822  0.7883 -0.2878  1.0917
 6639SOL    HW221925   2.218   0.956   7.791  0.2178  0.1943 -0.2184
 6640SOL     OW21926   2.386   1.055  10.669 -0.1507 -0.0856  0.8303
 6640SOL    HW121927   2.379   0.961  10.686 -0.3768 -0.3957 -0.8608
 6640SOL    HW221928   2.305   1.078  10.624  0.8320  0.4451 -0.7561
 6641SOL     OW21929   3.523   4.109   4.420 -0.1823 -0.1274  0.1655
 6641SOL    HW121930   3.538   4.176   4.486 -0.0965 -1.0680  1.1253
 6641SOL    HW221931   3.544   4.027   4.464 -2.1418 -0.9766 -0.3601
 6642SOL     OW21932   6.537   9.957   9.890 -0.0888 -0.5092  0.0213
 6642SOL    HW121933   6.566  10.034   9.940  0.8169 -0.1193 -1.0451
 6642SOL    HW221934   6.447   9.978   9.864 -0.2233 -0.2878  0.6460
 6643SOL     OW21935   9.193   1.588   6.748  0.2180  0.6240 -0.7250
 6643SOL    HW121936   9.257   1.640   6.699  1.0578  0.3899  0.0716
 6643SOL    HW221937   9.231   1.500   6.749 -0.5179  0.3030 -0.9055
 6644SOL     OW21938   7.239   8.457   0.047  0.5830  0.0787 -0.0144
 6644SOL    HW121939   7.164   8.466  -0.012  0.0683 -0.8634  0.4533
 6644SOL    HW221940   7.315   8.454  -0.011  0.2280  0.7286 -0.5220
 6645SOL     OW21941   1.540   6.107   2.702 -0.8548 -0.4666  0.3722
 6645SOL    HW121942   1.580   6.131   2.786  1.4410  3.5910 -1.5583
 6645SOL    HW221943   1.584   6.025   2.677  1.2449  0.2415  1.4858
 6646SOL     OW21944   3.892   3.499   0.407  0.0398 -0.2120 -0.4737
 6646SOL    HW121945   3.824   3.432   0.405 -1.4145  1.1110  0.8611
 6646SOL    HW221946   3.850   3.574   0.449  2.1914  0.8573 -0.0682
 6647SOL     OW21947   8.805   9.451   4.187  0.3301  0.1400 -0.1362
 6647SOL    HW121948   8.831   9.360   4.196  0.2998  0.1797  0.3810
 6647SOL    HW221949   8.853   9.482   4.110 -0.1066 -0.4662 -0.6632
 6648SOL     OW21950   3.298   5.040   5.825 -0.2184  0.5552  0.1250
 6648SOL    HW121951   3.274   4.973   5.761  1.5645  0.3215 -0.3670
 6648SOL    HW221952   3.234   5.031   5.895 -1.5336  0.0524 -1.1008
 6649SOL     OW21953   5.453   6.614   1.385 -0.2671  0.0649 -0.5570
 6649SOL    HW121954   5.472   6.565   1.465 -1.7292  0.9464  0.3698
 6649SOL    HW221955   5.384   6.564   1.341 -0.6124  0.4377 -0.4404
 6650SOL     OW21956   8.614   8.820   0.917 -0.0851 -0.1533 -0.2672
 6650SOL    HW121957   8.600   8.837   0.824 -0.5145 -0.4203 -0.2520
 6650SOL    HW221958   8.527   8.798   0.951 -0.0446  0.5921  0.3319
 6651SOL     OW21959   7.611   0.312   7.321 -0.3112 -0.2966  0.3551
 6651SOL    HW121960   7.519   0.307   7.349 -0.2776  1.2602  0.8601
 6651SOL    HW221961   7.623   0.236   7.264 -2.0889 -0.1982 -0.2218
 6652SOL     OW21962   9.819   3.785   8.729  0.4861  0.2573  0.1465
 6652SOL    HW121963   9.763   3.859   8.706  1.0253 -0.0839 -2.4551
 6652SOL    HW221964   9.761   3.728   8.781 -1.0545  0.7958 -0.8947
 6653SOL     OW21965   8.562   3.105   0.180 -0.3980 -0.6971  0.6983
 6653SOL    HW121966   8.612   3.140   0.107 -1.6809 -0.5298 -0.1398
 6653SOL    HW221967   8.576   3.010   0.175  1.0966 -0.5461  1.4677
 6654SOL     OW21968   7.418   2.722   8.874 -0.1318  0.2724  0.7325
 6654SOL    HW121969   7.322   2.721   8.866 -0.1054  0.2826  0.3743
 6654SOL    HW221970   7.449   2.692   8.788  0.2102  1.5503  0.3883
 6655SOL     OW21971   5.197   8.906   9.659  0.1458 -0.2489  0.1077
 6655SOL    HW121972   5.204   8.958   9.580 -2.0448  0.6079  0.4223
 6655SOL    HW221973   5.164   8.821   9.630  0.4938 -0.3412 -0.0210
 6656SOL     OW21974   4.041   7.166   2.387 -0.1599  0.0238 -0.1727
 6656SOL    HW121975   4.020   7.258   2.370  0.5250  0.2304  0.0570
 6656SOL    HW221976   4.122   7.169   2.438  0.5599 -0.7389 -1.2094
 6657SOL     OW21977   2.189  10.161   2.084 -0.0258 -0.4173 -0.0863
 6657SOL    HW121978   2.243  10.104   2.029  0.2928 -1.4575  1.2475
 6657SOL    HW221979   2.134  10.209   2.022 -0.0650 -1.9249 -1.2946
 6658SOL     OW21980   0.598   9.229   8.115 -0.5646 -0.1960 -0.3015
 6658SOL    HW121981   0.593   9.142   8.076 -1.9658  0.3064 -1.3272
 6658SOL    HW221982   0.512   9.267   8.100 -0.0750  1.2648  0.3913
 6659SOL     OW21983   2.074  10.035   1.557 -0.1378  0.3084 -0.3648
 6659SOL    HW121984   2.064  10.127   1.583  2.4130  0.1357  1.7991
 6659SOL    HW221985   2.159  10.033   1.512 -0.6375 -0.8477 -1.2856
 6660SOL     OW21986   1.894   9.408   5.105  0.1763 -0.0083 -0.4924
 6660SOL    HW121987   1.984   9.437   5.120  0.9833 -1.2335 -2.4362
 6660SOL    HW221988   1.864   9.461   5.031 -0.9575  0.8213  0.5306
 6661SOL     OW21989  10.421   1.599   5.725 -0.0972  0.4019  0.0129
 6661SOL    HW121990  10.379   1.624   5.808 -1.2682 -0.6632 -0.2233
 6661SOL    HW221991  10.353   1.553   5.677  1.1147 -0.6497 -0.7645
 6662SOL     OW21992   2.603   5.624   7.125  0.4423 -0.2865 -0.2828
 6662SOL    HW121993   2.669   5.600   7.060 -0.3646 -1.3786 -0.7188
 6662SOL    HW221994   2.654   5.644   7.204  1.2867 -1.3713 -0.5291
 6663SOL     OW21995   6.401   1.016   0.875  0.0356 -0.4402  0.1336
 6663SOL    HW121996   6.375   0.971   0.956  0.7457 -0.4955  0.3460
 6663SOL    HW221997   6.489   0.982   0.857  1.2989  2.0167  1.1781
 6664SOL     OW21998   7.230   7.831   1.852 -0.1606 -0.4057  0.1681
 6664SOL    HW121999   7.241   7.909   1.906  1.9264 -0.3211 -0.2788
 6664SOL    HW222000   7.212   7.864   1.764  1.6666 -0.3424 -0.2203
 6665SOL     OW22001   8.266  10.956   4.892 -0.3618 -0.5235 -0.3997
 6665SOL    HW122002   8.358  10.930   4.895 -0.1375 -0.1830 -2.5417
 6665SOL    HW222003   8.248  10.971   4.799 -1.3617  3.6915  0.2723
 6666SOL     OW22004   8.603   0.827   8.912  0.7004 -0.2751 -0.0226
 6666SOL    HW122005   8.629   0.788   8.829 -2.3185 -0.7921 -0.8499
 6666SOL    HW222006   8.510   0.847   8.901  0.2324 -0.1774  3.1491
 6667SOL     OW22007   3.844   2.095   2.594  0.0467  0.0009 -0.4790
 6667SOL    HW122008   3.902   2.170   2.602  0.0030  0.2167 -1.9964
 6667SOL    HW222009   3.788   2.100   2.672 -0.0759  1.6382 -0.6419
 6668SOL     OW22010   8.400   2.949   2.357  0.1277 -0.3282  0.3509
 6668SOL    HW122011   8.458   2.986   2.423  1.0353 -2.4271  0.8225
 6668SOL    HW222012   8.337   2.898   2.407  0.8040 -1.9231 -0.3617
 6669SOL     OW22013   3.098  10.857   1.928 -0.3307 -0.5336 -0.0523
 6669SOL    HW122014   3.194  10.859   1.919 -0.3391 -1.4322 -0.5791
 6669SOL    HW222015   3.083  10.842   2.021  0.0506 -0.4906  0.0178
 6670SOL     OW22016   2.403   8.131   2.535  0.2680  0.0217 -0.0997
 6670SOL    HW122017   2.323   8.143   2.484  0.7880 -1.2596 -1.2771
 6670SOL    HW222018   2.373   8.108   2.623 -0.6469  2.1619  0.2064
 6671SOL     OW22019   1.830   5.953   2.950  0.0798 -0.1014  0.1545
 6671SOL    HW122020   1.785   5.877   2.984 -1.3805 -0.2145 -1.8812
 6671SOL    HW222021   1.873   5.923   2.870  0.9860  0.8047  0.2695
 6672SOL     OW22022   8.862   6.539   0.793  0.2483 -0.5438 -0.0013
 6672SOL    HW122023   8.858   6.520   0.887  0.3219  0.2107  0.1614
 6672SOL    HW222024   8.921   6.473   0.758  0.7476 -0.4276  0.5972
 6673SOL     OW22025   4.571  10.426   3.465  0.1228  0.1157 -0.0631
 6673SOL    HW122026   4.665  10.412   3.452  0.4420  0.1346  1.9108
 6673SOL    HW222027   4.550  10.502   3.411  1.4380  0.6147  0.0890
 6674SOL     OW22028   7.085   3.497   0.317  0.0451 -0.0757 -0.5366
 6674SOL    HW122029   7.109   3.533   0.402 -0.5396  0.1033 -0.4480
 6674SOL    HW222030   7.080   3.572   0.258 -0.2027 -0.1211 -0.5762
 6675SOL     OW22031   3.512   8.420   8.999  0.0460  0.5512 -0.0602
 6675SOL    HW122032   3.570   8.393   8.927  0.8348  1.7834  0.0986
 6675SOL    HW222033   3.463   8.494   8.964  0.0704  0.8375  0.4967
 6676SOL     OW22034   4.820   6.481   3.141 -0.1168 -0.1474  0.2936
 6676SOL    HW122035   4.769   6.562   3.134  0.7534  0.2604 -2.1280
 6676SOL    HW222036   4.758   6.412   3.119  0.1116  0.2884 -1.9588
 6677SOL     OW22037   6.483   1.207   8.391 -0.0787  0.6962 -0.2216
 6677SOL    HW122038   6.536   1.128   8.389 -0.8360  0.1933 -1.1023
 6677SOL    HW222039   6.435   1.202   8.474 -1.1816 -0.4985 -0.8986
 6678SOL     OW22040   3.029   1.779   8.470  0.4225  0.6835  0.9521
 6678SOL    HW122041   2.984   1.745   8.392  0.3353 -0.4580  1.4749
 6678SOL    HW222042   3.076   1.856   8.439 -2.1592  2.1903  0.4167
 6679SOL     OW22043   2.624   6.118   4.121  0.2494 -0.1008  0.7471
 6679SOL    HW122044   2.655   6.136   4.032  0.1143 -0.0133  0.7177
 6679SOL    HW222045   2.678   6.045   4.150  0.3495 -0.0785  0.6222
 6680SOL     OW22046  10.596   8.788   0.112 -0.4022 -0.2942 -0.6367
 6680SOL    HW122047  10.555   8.842   0.045 -3.6773 -1.4060  0.3200
 6680SOL    HW222048  10.571   8.828   0.194  0.8865 -0.7701  0.0187
 6681SOL     OW22049   6.927   6.200   9.825  0.1851 -0.6439 -0.5113
 6681SOL    HW122050   6.996   6.212   9.760 -0.4419  1.8182 -0.8202
 6681SOL    HW222051   6.846   6.202   9.774 -0.2221 -0.9184  0.1202
 6682SOL     OW22052   2.398   1.102   0.699 -0.7049  0.4174  0.3994
 6682SOL    HW122053   2.488   1.068   0.694 -0.5375  0.9529 -0.5246
 6682SOL    HW222054   2.409   1.195   0.715 -1.0989  0.4656  0.3827
 6683SOL     OW22055   1.711   1.553   1.792 -0.0622  0.0412 -0.0836
 6683SOL    HW122056   1.620   1.533   1.769  0.3897 -0.4575 -1.5854
 6683SOL    HW222057   1.750   1.581   1.709  1.2606 -0.1499  0.4597
 6684SOL     OW22058   3.094   9.246  10.430  0.1191  0.3278 -0.0400
 6684SOL    HW122059   3.089   9.225  10.524  2.4650 -0.0801  0.0700
 6684SOL    HW222060   3.160   9.316  10.425  0.5149 -0.1099 -1.4268
 6685SOL     OW22061   5.533   4.870   9.583 -0.6531 -0.2608 -0.5550
 6685SOL    HW122062   5.554   4.853   9.491 -0.7567 -1.1402 -0.4268
 6685SOL    HW222063   5.607   4.833   9.632 -0.4513  0.4752 -0.2920
 6686SOL     OW22064   1.592   6.110   0.542  0.1112  0.3624 -0.0095
 6686SOL    HW122065   1.533   6.123   0.616 -0.8949  0.2545 -0.7723
 6686SOL    HW222066   1.658   6.178   0.552 -0.9108  1.3699  0.1293
 6687SOL     OW22067   9.527   9.634   4.227 -0.1507  0.0823 -0.3883
 6687SOL    HW122068   9.571   9.689   4.293 -0.2018  0.1172 -0.3832
 6687SOL    HW222069   9.573   9.550   4.231  0.0890  0.2050 -0.5726
 6688SOL     OW22070   4.213   5.579   2.868  0.1534  0.2392  0.2019
 6688SOL    HW122071   4.300   5.606   2.839  0.7155 -0.2724  1.3480
 6688SOL    HW222072   4.224   5.558   2.961 -1.1655  0.0317  0.3314
 6689SOL     OW22073   8.669   7.867   8.519 -0.3366 -0.2458 -0.1794
 6689SOL    HW122074   8.704   7.956   8.507 -4.0028  1.3503 -0.2759
 6689SOL    HW222075   8.643   7.840   8.431 -0.4365 -0.8794  0.0438
 6690SOL     OW22076   4.395   9.282   7.216  0.0822  0.3245 -0.3346
 6690SOL    HW122077   4.489   9.279   7.197  0.0669  0.5447 -0.4549
 6690SOL    HW222078   4.372   9.192   7.240  0.1344  0.0756 -1.1952
 6691SOL     OW22079   9.987   1.388   8.892 -0.0236  0.1494 -0.3046
 6691SOL    HW122080   9.914   1.399   8.954 -1.7795 -1.5913 -1.9154
 6691SOL    HW222081   9.978   1.462   8.832 -0.3287  0.0651 -0.3650
 6692SOL     OW22082   3.954   2.846   7.526 -0.1929  0.1087 -0.3606
 6692SOL    HW122083   4.018   2.914   7.549 -0.0856  0.0661 -0.5311
 6692SOL    HW222084   3.966   2.833   7.432 -0.7926  0.4505 -0.4924
 6693SOL     OW22085   1.919   0.669   6.504  0.1373 -0.4303  0.3072
 6693SOL    HW122086   1.893   0.625   6.423  1.8085 -1.2135  0.1548
 6693SOL    HW222087   1.838   0.706   6.539 -0.7831 -0.9866 -1.1755
 6694SOL     OW22088   9.202   3.676   7.731  0.1909  0.5948  0.3243
 6694SOL    HW122089   9.166   3.649   7.646  0.4139 -1.1804  0.7622
 6694SOL    HW222090   9.276   3.617   7.746 -0.1414  0.5489  1.9688
 6695SOL     OW22091  10.605   6.073   5.276  0.2049  0.1349  0.2728
 6695SOL    HW122092  10.609   6.169   5.277  0.0360  0.1423  0.1494
 6695SOL    HW222093  10.694   6.046   5.254  0.3602  0.2560  0.7416
 6696SOL     OW22094   9.735   6.509   7.211  0.4578 -0.0500  0.0976
 6696SOL    HW122095   9.775   6.593   7.188  0.2674 -0.0126 -0.1027
 6696SOL    HW222096   9.777   6.483   7.293  0.2481  0.4211  0.3559
 6697SOL     OW22097   1.763  10.333   4.151  0.4088 -0.0524  0.5819
 6697SOL    HW122098   1.753  10.306   4.059  1.0605 -0.6507  0.6799
 6697SOL    HW222099   1.740  10.426   4.151 -1.8845 -0.5617  0.2426
 6698SOL     OW22100   8.812   7.061   5.972  0.0650 -0.6597  0.4387
 6698SOL    HW122101   8.870   6.986   5.962 -1.0298 -1.9081  2.7453
 6698SOL    HW222102   8.733   7.036   5.923  0.6542  0.1872 -1.0181
 6699SOL     OW22103   8.610   2.935   6.739  0.7075 -0.0392  0.2338
 6699SOL    HW122104   8.574   2.998   6.676  1.0386  1.2059  1.2343
 6699SOL    HW222105   8.603   2.979   6.823  0.7978 -1.4426  1.0011
 6700SOL     OW22106   5.951   9.971   2.891  0.1093 -0.5782 -0.5690
 6700SOL    HW122107   6.024   9.954   2.832  0.3178  0.8323 -0.7606
 6700SOL    HW222108   5.873   9.953   2.838  0.2954 -2.2735 -0.3034
 6701SOL     OW22109   3.703  10.027   6.068  0.0846 -0.2880  0.6634
 6701SOL    HW122110   3.648   9.984   6.002  0.5512 -0.9079  0.6696
 6701SOL    HW222111   3.712  10.117   6.037 -1.1667 -0.0953  0.8090
 6702SOL     OW22112   2.305  10.868   5.780  0.6601 -0.2140 -0.0616
 6702SOL    HW122113   2.364  10.887   5.707 -0.5965 -0.2689 -1.1391
 6702SOL    HW222114   2.304  10.772   5.786  0.7281 -0.2107  0.0014
 6703SOL     OW22115   7.636   4.580   1.105 -0.4214  0.2839  0.3386
 6703SOL    HW122116   7.637   4.548   1.196 -0.0083 -0.7980 -0.0321
 6703SOL    HW222117   7.666   4.506   1.053  0.7711  1.3595 -0.5553
 6704SOL     OW22118   9.374   4.315   6.443  0.0590  0.2504 -0.2468
 6704SOL    HW122119   9.356   4.408   6.459 -0.2108 -0.1619  2.1586
 6704SOL    HW222120   9.293   4.282   6.404 -0.7701  0.5386  1.1638
 6705SOL     OW22121   0.023   4.055   0.988 -0.8289  0.3368  0.0731
 6705SOL    HW122122   0.032   3.965   0.958 -0.9270  1.0210 -2.1586
 6705SOL    HW222123  -0.050   4.090   0.937 -0.4300  1.8473  0.4921
 6706SOL     OW22124   8.129   3.233   0.546 -0.6818  0.2843  0.1975
 6706SOL    HW122125   8.152   3.154   0.498 -1.3796  1.4121 -2.1728
 6706SOL    HW222126   8.210   3.284   0.550 -0.6503  0.2467  0.0487
 6707SOL     OW22127  10.684   5.542   6.575  0.8459  0.2331  0.2008
 6707SOL    HW122128  10.645   5.523   6.660 -0.4633  1.3810 -0.0991
 6707SOL    HW222129  10.699   5.456   6.535  0.2835 -0.2849  1.0771
 6708SOL     OW22130   5.661   9.346  10.187  0.1364 -0.1527  0.3463
 6708SOL    HW122131   5.722   9.279  10.218  0.4291 -1.3732 -2.5566
 6708SOL    HW222132   5.578   9.324  10.229  0.4780 -1.7276  0.2574
 6709SOL     OW22133  10.852   5.154   8.771  0.4016  0.3092  0.2371
 6709SOL    HW122134  10.885   5.065   8.781  0.5473  0.2841 -0.4472
 6709SOL    HW222135  10.815   5.157   8.683 -1.2626  0.3938  0.8941
 6710SOL     OW22136   0.737   1.809   8.189  0.6592 -0.0767 -0.7275
 6710SOL    HW122137   0.740   1.721   8.153 -0.8216 -0.3227 -0.3234
 6710SOL    HW222138   0.644   1.831   8.192  0.9467  1.1966 -0.0896
 6711SOL     OW22139   9.060   7.690   5.730 -0.0023 -0.4511 -0.6466
 6711SOL    HW122140   9.051   7.698   5.635  0.7486 -2.0491 -0.8816
 6711SOL    HW222141   9.045   7.598   5.749 -2.2426  0.1528  1.0873
 6712SOL     OW22142   6.228   4.999   7.651  0.2697 -0.4112 -0.0777
 6712SOL    HW122143   6.292   5.028   7.586 -0.4063 -1.8939 -1.4691
 6712SOL    HW222144   6.277   4.940   7.709  0.6454  0.1720  0.2154
 6713SOL     OW22145  10.602   1.187   3.531 -0.4469  0.1290 -1.1691
 6713SOL    HW122146  10.682   1.228   3.564 -0.6880 -1.7653  2.2602
 6713SOL    HW222147  10.533   1.222   3.587 -1.2832 -1.6597 -1.0173
 6714SOL     OW22148   4.028   0.565   6.238 -0.2429  0.0173  0.5244
 6714SOL    HW122149   4.023   0.480   6.196 -1.3470 -0.4168  1.4795
 6714SOL    HW222150   3.983   0.625   6.178  0.2069 -0.1403  0.0271
 6715SOL     OW22151   5.716   2.534   1.624  0.6687  0.2014 -0.3669
 6715SOL    HW122152   5.646   2.592   1.654  1.0855  0.7111 -0.3751
 6715SOL    HW222153   5.722   2.467   1.692 -0.0216 -0.0093 -0.5106
 6716SOL     OW22154   9.881   6.044   8.381  0.0514 -0.1752 -0.3876
 6716SOL    HW122155   9.855   6.136   8.388 -0.7141 -0.4057 -0.0912
 6716SOL    HW222156   9.854   6.005   8.464 -0.5129 -0.8839 -0.8964
 6717SOL     OW22157  10.696   9.785   1.328  0.7031 -0.2950  0.4671
 6717SOL    HW122158  10.784   9.795   1.290  0.2538 -2.3832 -1.3448
 6717SOL    HW222159  10.638   9.826   1.264  0.0886 -2.2280 -0.2881
 6718SOL     OW22160   3.926   5.213   3.581 -0.8722 -0.5554  0.1201
 6718SOL    HW122161   3.919   5.118   3.582 -3.3529 -0.4563 -0.6074
 6718SOL    HW222162   3.838   5.243   3.557  0.2068  1.8847 -1.1017
 6719SOL     OW22163   8.575   3.659   8.255  0.9127 -0.1337 -0.6043
 6719SOL    HW122164   8.578   3.753   8.238  0.2689 -0.2808 -1.6623
 6719SOL    HW222165   8.626   3.647   8.335  1.4106  1.0475 -0.7215
 6720SOL     OW22166   0.898   9.558   9.984 -0.1011  0.2949  0.1575
 6720SOL    HW122167   0.930   9.599   9.904 -2.3582  0.5805 -0.6737
 6720SOL    HW222168   0.870   9.631  10.039  0.3500  0.0469  0.7261
 6721SOL     OW22169   8.508   8.202   6.791  0.2462  0.1228 -0.4891
 6721SOL    HW122170   8.575   8.168   6.733 -0.8342 -0.6845 -1.3079
 6721SOL    HW222171   8.505   8.296   6.772  0.8171  0.0860 -0.7770
 6722SOL     OW22172   8.794   2.213   3.791 -0.3239 -0.0729  0.2735
 6722SOL    HW122173   8.812   2.229   3.698  1.6859  1.9788  0.9332
 6722SOL    HW222174   8.706   2.248   3.804 -0.9126 -0.9868 -0.9456
 6723SOL     OW22175   1.953   0.079   2.666 -0.2287  0.0681 -0.3795
 6723SOL    HW122176   1.874   0.025   2.672 -0.5827  0.3692 -1.9887
 6723SOL    HW222177   1.948   0.136   2.743 -0.1722 -1.7011  1.0128
 6724SOL     OW22178   5.743   4.745   9.716  0.3547 -0.4860 -0.1173
 6724SOL    HW122179   5.769   4.827   9.757 -3.2473 -0.1212  1.8648
 6724SOL    HW222180   5.786   4.677   9.767  0.9117  0.1148  0.2213
 6725SOL     OW22181   5.360   9.451   3.998  0.7088 -0.5660  0.0271
 6725SOL    HW122182   5.410   9.394   4.057 -1.7574 -2.5553  0.3690
 6725SOL    HW222183   5.410   9.450   3.916  1.8288 -1.5383  0.6908
 6726SOL     OW22184   0.532   3.956   4.085 -0.7826 -0.2956 -0.4523
 6726SOL    HW122185   0.450   3.918   4.117 -0.9147  0.8814  0.6826
 6726SOL    HW222186   0.587   3.880   4.065 -0.3711 -1.2381  3.3921
 6727SOL     OW22187   7.160   0.078   8.010  0.2243 -0.1088 -0.3738
 6727SOL    HW122188   7.161   0.046   7.919 -1.5409 -2.2524  0.2701
 6727SOL    HW222189   7.252   0.087   8.033  0.7379 -0.9748 -1.9246
 6728SOL     OW22190   1.426   8.638   4.973  0.0734  0.1782 -0.4460
 6728SOL    HW122191   1.464   8.666   4.889  0.5750  0.5518 -0.1055
 6728SOL    HW222192   1.399   8.719   5.015 -2.6735 -0.1694 -1.3671
 6729SOL     OW22193   6.299   6.010  10.850 -0.2163 -0.1509 -0.0673
 6729SOL    HW122194   6.339   6.031  10.765  0.3703  3.0260  0.8629
 6729SOL    HW222195   6.255   5.926  10.836  2.0636 -1.0413 -2.7392
 6730SOL     OW22196   1.846   7.875   3.510 -0.3520 -0.8024  0.4711
 6730SOL    HW122197   1.899   7.796   3.504 -1.0956 -1.3794  1.1966
 6730SOL    HW222198   1.774   7.851   3.569  0.9686  1.2725  3.1610
 6731SOL     OW22199   6.872   6.575   5.890  0.2715 -0.1647  0.7175
 6731SOL    HW122200   6.851   6.485   5.865 -0.4559  0.3794 -0.6932
 6731SOL    HW222201   6.933   6.605   5.823 -0.2066  0.6906  0.6484
 6732SOL     OW22202   2.576   7.292   8.587 -0.1682 -0.0339  0.3618
 6732SOL    HW122203   2.600   7.209   8.545  0.4829  0.2165  0.2348
 6732SOL    HW222204   2.545   7.347   8.515 -0.2201 -0.0228  0.3919
 6733SOL     OW22205   2.296  10.572   8.478  0.2610  0.1862  0.1796
 6733SOL    HW122206   2.387  10.584   8.450  0.5540 -0.9203  0.5937
 6733SOL    HW222207   2.245  10.629   8.421  0.9371 -1.1697 -1.8755
 6734SOL     OW22208   3.551   0.632   3.695  0.1612 -0.5541  0.0450
 6734SOL    HW122209   3.471   0.671   3.661  0.6563 -0.2790 -0.8642
 6734SOL    HW222210   3.528   0.599   3.781 -1.4913 -2.2928 -0.9740
 6735SOL     OW22211   2.079   0.659  10.089 -0.3495  0.2551  0.3654
 6735SOL    HW122212   2.127   0.738  10.114  2.4465 -1.1632 -0.1520
 6735SOL    HW222213   2.089   0.600  10.163  0.9078 -0.9443 -0.6865
 6736SOL     OW22214  10.956   4.235   9.026 -0.1376 -0.5984 -0.4916
 6736SOL    HW122215  11.051   4.232   9.024 -0.1707 -1.7458 -0.6160
 6736SOL    HW222216  10.935   4.328   9.018  1.0113 -0.1245  1.4171
 6737SOL     OW22217  10.874   2.181   4.699 -0.4550 -0.1511 -0.6836
 6737SOL    HW122218  10.939   2.245   4.671 -0.8358  1.8580  2.6263
 6737SOL    HW222219  10.915   2.136   4.773 -1.9854 -0.4476  0.0085
 6738SOL     OW22220   5.506   9.344   2.023 -0.6357  0.1507 -0.1345
 6738SOL    HW122221   5.557   9.375   1.949 -0.1859  1.2678  0.6148
 6738SOL    HW222222   5.417   9.333   1.988 -1.0627  3.1849 -0.3157
 6739SOL     OW22223   2.032   4.759   1.212 -0.6583  0.2210 -0.1575
 6739SOL    HW122224   2.058   4.844   1.178 -0.4611 -0.2278 -1.1639
 6739SOL    HW222225   1.953   4.776   1.263 -2.1408  0.6401 -2.4866
 6740SOL     OW22226   1.872   5.636   8.938  0.2551  0.0710 -0.0958
 6740SOL    HW122227   1.788   5.663   8.900 -0.5816 -1.8239  0.3068
 6740SOL    HW222228   1.891   5.703   9.004 -0.7207  0.7583 -0.4802
 6741SOL     OW22229   8.623   1.617   9.059 -0.1594  0.2013  0.0274
 6741SOL    HW122230   8.631   1.659   8.973 -2.0577 -0.9739 -0.7932
 6741SOL    HW222231   8.678   1.538   9.052  0.1739  0.4227  0.1227
 6742SOL     OW22232   7.402   6.868   1.455 -0.8888  0.0133  0.3383
 6742SOL    HW122233   7.482   6.863   1.402 -1.0460 -0.6698  0.1455
 6742SOL    HW222234   7.333   6.891   1.392 -0.7495  1.2487  0.6177
 6743SOL     OW22235   2.742   6.692   8.336  0.4180  0.0822  0.3698
 6743SOL    HW122236   2.797   6.633   8.285  0.2782  1.6714 -1.7092
 6743SOL    HW222237   2.800   6.762   8.364 -0.2393  1.1041 -0.7468
 6744SOL     OW22238   4.049   5.611  10.529 -0.4388  0.2284  0.3827
 6744SOL    HW122239   3.975   5.565  10.569 -2.0469 -0.4354 -3.0333
 6744SOL    HW222240   4.112   5.542  10.510 -0.3748  0.3006  0.3367
 6745SOL     OW22241   4.998   5.798   9.734 -0.1675  0.3522 -0.3929
 6745SOL    HW122242   5.024   5.708   9.751 -1.3185 -0.1841 -1.3992
 6745SOL    HW222243   4.921   5.812   9.789  0.6910  1.1225  0.6556
 6746SOL     OW22244  10.737   3.941  10.590 -0.0207  0.2896  0.1206
 6746SOL    HW122245  10.647   3.936  10.622 -0.4899  1.4901 -0.9348
 6746SOL    HW222246  10.737   3.891  10.508 -0.5882  2.8727 -1.5846
 6747SOL     OW22247   3.994  10.091   9.681 -0.3649  0.2661 -0.1792
 6747SOL    HW122248   4.003  10.178   9.719  1.0146 -0.0495  0.3007
 6747SOL    HW222249   3.913  10.056   9.718 -0.5889  1.0892  0.1241
 6748SOL     OW22250   7.193   5.422   9.880  0.4612  0.5261 -0.2135
 6748SOL    HW122251   7.215   5.408   9.972 -1.3840 -0.5825  0.1141
 6748SOL    HW222252   7.241   5.501   9.856 -0.2479  1.8001  2.1696
 6749SOL     OW22253   2.203   4.900   8.488  0.7689 -0.0168  0.0535
 6749SOL    HW122254   2.245   4.910   8.574 -1.8526  0.0126  1.4365
 6749SOL    HW222255   2.121   4.949   8.495 -0.0648 -0.9614 -2.0929
 6750SOL     OW22256  10.221   1.523   8.982  0.0096  0.1360 -0.5354
 6750SOL    HW122257  10.193   1.535   9.072 -1.2784 -1.9638 -0.5989
 6750SOL    HW222258  10.155   1.466   8.943  2.0387 -1.3746 -1.9812
 6751SOL     OW22259  10.077   9.738   1.719  0.3171 -0.1569 -0.2134
 6751SOL    HW122260  10.143   9.691   1.668  0.1317 -0.1784 -0.4352
 6751SOL    HW222261  10.087   9.705   1.808 -0.8886 -1.8331 -0.6496
 6752SOL     OW22262   3.871   4.643   7.924  0.3732  0.0865  0.4031
 6752SOL    HW122263   3.905   4.648   8.013  1.8000  1.4777 -0.1714
 6752SOL    HW222264   3.864   4.734   7.895  1.7482 -0.3463 -1.5222
 6753SOL     OW22265   2.496   5.147   3.381 -0.3211  0.0621 -0.3247
 6753SOL    HW122266   2.469   5.182   3.296 -0.3088 -0.0052 -0.3557
 6753SOL    HW222267   2.447   5.066   3.391  0.1396 -0.2456 -0.5436
 6754SOL     OW22268   4.352   1.679   5.187  0.2753  0.2319 -0.0854
 6754SOL    HW122269   4.267   1.720   5.170  1.3848  2.7579 -0.0525
 6754SOL    HW222270   4.367   1.692   5.281  0.2975 -1.0720  0.1091
 6755SOL     OW22271   0.202   4.107   8.013  0.2773 -0.4565 -0.0311
 6755SOL    HW122272   0.123   4.062   7.983  0.0308 -0.9853  1.3185
 6755SOL    HW222273   0.201   4.095   8.108  1.3322  0.5958  0.1362
 6756SOL     OW22274   6.559   4.787   8.263  0.0974 -0.1637 -0.0575
 6756SOL    HW122275   6.490   4.816   8.324 -0.7851  0.3469 -1.2427
 6756SOL    HW222276   6.640   4.820   8.301 -0.0719 -2.1194  2.1948
 6757SOL     OW22277   7.123   0.067   9.494 -0.2289  0.1785 -0.1510
 6757SOL    HW122278   7.103  -0.008   9.550  0.1438 -1.3218 -1.9175
 6757SOL    HW222279   7.214   0.088   9.514  0.3124 -1.1669 -1.0152
 6758SOL     OW22280   2.875   6.138   5.508 -0.0460  0.1747  0.1580
 6758SOL    HW122281   2.795   6.134   5.456 -1.2515 -1.6963  2.0173
 6758SOL    HW222282   2.940   6.177   5.449 -1.8806  0.1785 -1.9716
 6759SOL     OW22283   1.782   0.939   9.531  0.0800  0.3721 -0.1233
 6759SOL    HW122284   1.831   0.988   9.465 -0.6436  0.2376 -0.7713
 6759SOL    HW222285   1.841   0.867   9.555  0.1226  0.0792 -1.0616
 6760SOL     OW22286   9.055   5.384   9.749  0.8247 -0.0162 -0.1387
 6760SOL    HW122287   9.014   5.325   9.812 -0.8287  0.1577 -0.9959
 6760SOL    HW222288   9.080   5.327   9.676  0.3974  0.1609 -0.4224
 6761SOL     OW22289   8.659   9.910   2.802  0.0951  0.4441  0.5040
 6761SOL    HW122290   8.640   9.823   2.836 -2.3008  1.0270  0.8143
 6761SOL    HW222291   8.744   9.901   2.758  0.8755 -1.5250  2.2659
 6762SOL     OW22292   1.719   6.573   2.185 -0.1307  0.0410 -0.3673
 6762SOL    HW122293   1.631   6.543   2.207  0.4354 -0.7589  0.8979
 6762SOL    HW222294   1.751   6.510   2.121 -0.3553  0.1383 -0.5750
 6763SOL     OW22295   4.742   5.205   3.604 -0.2510  0.3018  0.5758
 6763SOL    HW122296   4.667   5.261   3.584  0.3764  0.9664  0.0355
 6763SOL    HW222297   4.729   5.180   3.695 -0.8233  0.8855  0.6624
 6764SOL     OW22298   4.420   6.422   0.387 -0.8219  0.1921  0.4223
 6764SOL    HW122299   4.481   6.484   0.426 -0.7876  1.0214 -0.9016
 6764SOL    HW222300   4.475   6.349   0.358 -0.6096  0.4129  0.2692
 6765SOL     OW22301   5.637   1.468   3.107 -0.3454 -0.1005 -0.2664
 6765SOL    HW122302   5.600   1.409   3.173 -4.2708  1.9785 -0.3578
 6765SOL    HW222303   5.607   1.432   3.024 -0.5439  0.6097 -0.5013
 6766SOL     OW22304   1.427   8.218   4.634 -0.1175  1.2622 -0.3106
 6766SOL    HW122305   1.511   8.263   4.632  1.9657 -2.2369 -1.8066
 6766SOL    HW222306   1.396   8.221   4.543  1.6081 -2.5061 -1.2176
 6767SOL     OW22307   1.812   3.429   0.380  0.0062  0.6243  0.1958
 6767SOL    HW122308   1.784   3.521   0.377 -0.7900  0.3811 -0.2951
 6767SOL    HW222309   1.745   3.382   0.330  0.0647 -0.3176  0.9717
 6768SOL     OW22310   4.682   0.291   5.226 -0.6037  0.2563  0.2763
 6768SOL    HW122311   4.765   0.251   5.200 -1.0616  0.1637 -1.0881
 6768SOL    HW222312   4.639   0.314   5.144 -1.2911  1.6388  0.9858
 6769SOL     OW22313   7.291   6.426   7.793 -0.4634  0.0556 -0.2239
 6769SOL    HW122314   7.317   6.514   7.766  0.6796 -0.0085  0.6171
 6769SOL    HW222315   7.309   6.372   7.716 -0.4531  0.4266 -0.4883
 6770SOL     OW22316   7.042   0.280   9.853  0.3716  0.3267 -0.5128
 6770SOL    HW122317   7.056   0.256   9.761 -0.5412 -1.7530 -0.1609
 6770SOL    HW222318   6.972   0.346   9.850 -1.4618 -1.5383 -1.2278
 6771SOL     OW22319   7.018   8.161   8.824  0.3961  0.2926 -0.0856
 6771SOL    HW122320   7.001   8.067   8.827 -1.9466  0.6307 -0.8224
 6771SOL    HW222321   6.985   8.189   8.739 -0.1919  1.9714  0.6495
 6772SOL     OW22322   6.389   1.734   2.729  0.3334 -0.0885 -0.4539
 6772SOL    HW122323   6.333   1.656   2.736  1.5495 -0.8760  1.1224
 6772SOL    HW222324   6.471   1.701   2.693  1.6738 -0.0499  2.3507
 6773SOL     OW22325   3.335   8.609   3.902 -0.2085  0.0782 -0.3050
 6773SOL    HW122326   3.241   8.617   3.889 -0.7129 -1.4974  1.8473
 6773SOL    HW222327   3.355   8.519   3.878  0.6747  0.2508 -0.2713
 6774SOL     OW22328   2.009   4.937   2.684 -0.0721  0.6797 -0.4523
 6774SOL    HW122329   1.963   5.021   2.682 -0.4317  0.5104  0.4008
 6774SOL    HW222330   2.074   4.947   2.753 -1.9223 -0.6332  1.6072
 6775SOL     OW22331   0.385   7.779   1.693 -0.8524 -0.0254  0.3511
 6775SOL    HW122332   0.427   7.826   1.621  0.7386 -0.8334  0.7106
 6775SOL    HW222333   0.351   7.848   1.750  1.7917  0.7689  1.0820
 6776SOL     OW22334   7.081   6.659   0.314 -0.6402 -0.5003 -0.5060
 6776SOL    HW122335   7.056   6.576   0.273 -0.0378 -0.8666 -0.1405
 6776SOL    HW222336   7.174   6.667   0.295 -0.6701  0.0339 -0.4275
 6777SOL     OW22337   4.869   9.051   4.348 -0.3984 -0.2362 -0.6578
 6777SOL    HW122338   4.889   9.143   4.331  0.5473 -0.3020  0.0264
 6777SOL    HW222339   4.783   9.037   4.307  0.3420  0.4073 -2.5272
 6778SOL     OW22340   4.593   1.788   8.191  0.3014  0.1837 -0.0221
 6778SOL    HW122341   4.541   1.868   8.201 -0.5342 -0.5912  2.3656
 6778SOL    HW222342   4.683   1.819   8.189 -0.0409  1.2523 -0.1099
 6779SOL     OW22343  10.708   7.942   8.800 -0.2992  0.5004 -0.0052
 6779SOL    HW122344  10.657   7.891   8.864  0.9126 -2.6731 -1.3503
 6779SOL    HW222345  10.645   7.966   8.733 -1.1197  1.8321  1.1908
 6780SOL     OW22346   1.646   1.693   0.688 -0.4565 -0.0310 -0.0278
 6780SOL    HW122347   1.672   1.784   0.675 -0.4291 -0.0702 -0.2681
 6780SOL    HW222348   1.553   1.691   0.667 -0.2579 -0.2330 -0.9516
 6781SOL     OW22349   3.966   7.328   9.735  0.5173 -0.1006  0.2133
 6781SOL    HW122350   3.943   7.421   9.743  1.4787  0.3532 -1.6956
 6781SOL    HW222351   4.032   7.314   9.804 -0.1526  0.4325  0.9776
 6782SOL     OW22352  10.290   8.773   2.268 -0.3818  0.3884  0.1391
 6782SOL    HW122353  10.215   8.763   2.210 -0.3374 -0.1586  0.1660
 6782SOL    HW222354  10.362   8.798   2.210 -0.2886 -0.3660 -0.0762
 6783SOL     OW22355   8.418  10.206   9.077 -0.0250 -0.5114 -0.2655
 6783SOL    HW122356   8.364  10.196   9.155 -1.2353  1.6305 -0.7339
 6783SOL    HW222357   8.414  10.300   9.058  1.0871 -0.8312 -2.3001
 6784SOL     OW22358   5.190   2.855   0.100  0.1342 -1.4429 -0.2849
 6784SOL    HW122359   5.229   2.942   0.090  1.2991 -1.7936  1.0213
 6784SOL    HW222360   5.104   2.863   0.057  0.0427  0.4580  0.1593
 6785SOL     OW22361   5.133   3.956   9.186 -0.6594 -0.2137 -0.0291
 6785SOL    HW122362   5.207   4.009   9.216 -0.6137 -0.3251  0.0572
 6785SOL    HW222363   5.070   3.961   9.257 -0.4913 -0.5965  0.1509
 6786SOL     OW22364   0.454   4.571   1.669  0.1764  0.2402  0.0791
 6786SOL    HW122365   0.457   4.476   1.681  1.4423 -0.2172 -3.0671
 6786SOL    HW222366   0.367   4.596   1.700 -0.5640 -2.0808  0.0727
 6787SOL     OW22367   3.963   4.250   4.042 -0.2054 -0.2126 -0.1107
 6787SOL    HW122368   3.875   4.214   4.032 -0.4883  0.7060 -0.9649
 6787SOL    HW222369   4.021   4.177   4.018 -0.7828 -0.0396 -2.2466
 6788SOL     OW22370   6.632   4.512   2.366  0.1233 -0.0223 -0.0963
 6788SOL    HW122371   6.686   4.546   2.437  2.0640 -1.2510 -0.8952
 6788SOL    HW222372   6.693   4.503   2.292 -1.1451 -1.6021 -1.0197
 6789SOL     OW22373   8.983   4.375   9.191 -0.4404 -0.5141  0.2827
 6789SOL    HW122374   8.900   4.406   9.226 -0.4239  0.5540 -0.5767
 6789SOL    HW222375   8.975   4.279   9.190 -0.5054 -0.6069  2.9728
 6790SOL     OW22376   9.679   5.933   0.391 -0.2725  0.1007  0.3558
 6790SOL    HW122377   9.748   5.950   0.327  0.3615 -0.3667  0.8934
 6790SOL    HW222378   9.680   6.010   0.448 -0.2053  0.1031  0.3516
 6791SOL     OW22379   3.657   4.738   3.940 -0.3035 -0.3759  0.2618
 6791SOL    HW122380   3.704   4.658   3.965  1.2001  0.3357 -0.1932
 6791SOL    HW222381   3.659   4.792   4.019  2.5098  0.9543 -0.5818
 6792SOL     OW22382   8.538   4.921   9.074  0.2526 -0.3396  0.0577
 6792SOL    HW122383   8.557   4.966   9.156 -1.0397  0.3746  0.0009
 6792SOL    HW222384   8.451   4.884   9.087  0.3028 -0.7684 -0.7644
 6793SOL     OW22385   1.609   3.252   0.851 -0.3433  0.3641  0.0516
 6793SOL    HW122386   1.519   3.239   0.879  0.2321  0.3565  2.0879
 6793SOL    HW222387   1.660   3.249   0.932  1.5721 -0.3087 -1.1072
 6794SOL     OW22388   1.475   6.538   1.583  0.2039  0.1721  0.1674
 6794SOL    HW122389   1.559   6.549   1.628  0.9630 -2.1962 -0.5141
 6794SOL    HW222390   1.450   6.447   1.603 -2.5951  1.0392  0.9421
 6795SOL     OW22391   5.854   9.139   5.659  0.0733 -0.1518  0.0982
 6795SOL    HW122392   5.874   9.191   5.737 -0.1731 -0.7367  0.5563
 6795SOL    HW222393   5.933   9.145   5.605  0.4751 -0.2388  0.6665
 6796SOL     OW22394   2.111   6.779   4.312  0.2162 -0.0981 -0.4157
 6796SOL    HW122395   2.101   6.832   4.391 -3.9444  1.0934 -1.5197
 6796SOL    HW222396   2.137   6.693   4.345 -0.4114  0.6034  2.1619
 6797SOL     OW22397   5.437  10.149   1.984  0.1886  0.4344 -0.4332
 6797SOL    HW122398   5.477  10.147   1.898 -2.7176 -0.4683 -1.8924
 6797SOL    HW222399   5.403  10.061   1.998  0.6558  0.5286  1.7097
 6798SOL     OW22400   4.644   3.919   2.986 -0.5286 -0.2106 -0.0376
 6798SOL    HW122401   4.602   4.002   2.965 -1.2821 -0.7144 -0.5828
 6798SOL    HW222402   4.697   3.937   3.064 -1.5977  0.4950  0.5424
 6799SOL     OW22403   2.102   7.962   2.339  0.1142  0.3097 -0.1349
 6799SOL    HW122404   2.105   7.951   2.434  0.8669 -1.7012 -0.3360
 6799SOL    HW222405   2.067   8.050   2.326  0.0632  0.6595  1.9947
 6800SOL     OW22406   5.679   8.324   2.796  0.0223 -0.2918 -0.3711
 6800SOL    HW122407   5.687   8.383   2.871  2.0871 -0.8195 -0.1294
 6800SOL    HW222408   5.598   8.275   2.813 -0.5230  0.8783  0.5598
 6801SOL     OW22409   7.991   7.069  10.946  0.4993 -0.5160 -0.2939
 6801SOL    HW122410   8.018   7.157  10.918  1.9588 -0.2391  1.7288
 6801SOL    HW222411   7.929   7.084  11.017 -0.2933 -1.1610 -0.8269
 6802SOL     OW22412   0.690   1.692   0.624 -0.1248  0.0165 -0.5816
 6802SOL    HW122413   0.610   1.650   0.592 -1.2436  2.7276 -1.5788
 6802SOL    HW222414   0.682   1.687   0.719 -1.8581  0.8064 -0.6363
 6803SOL     OW22415   8.524   3.251   4.055 -0.1673  0.1028  0.1381
 6803SOL    HW122416   8.518   3.216   3.966  0.9742 -1.1840  0.5242
 6803SOL    HW222417   8.488   3.181   4.110 -0.6373  0.7912  0.7179
 6804SOL     OW22418  10.972   0.887   1.038 -0.1395  0.4771  0.5290
 6804SOL    HW122419  11.014   0.964   1.001 -0.1166  0.3305  0.2489
 6804SOL    HW222420  11.033   0.815   1.022  0.1084  0.4983  1.3147
 6805SOL     OW22421   6.793   9.930   9.823 -0.8712 -0.3012  0.2489
 6805SOL    HW122422   6.833   9.862   9.877  0.4567  0.7236  0.6261
 6805SOL    HW222423   6.700   9.924   9.843 -0.7502 -1.7886  0.5029
 6806SOL     OW22424   3.420   5.973  10.367 -0.1490 -0.2665 -0.3887
 6806SOL    HW122425   3.454   5.927  10.290  0.5938 -0.1895 -0.1087
 6806SOL    HW222426   3.496   6.013  10.407 -0.8273  1.6472 -0.8928
 6807SOL     OW22427   8.588   5.755   4.106  0.5706 -0.4541  0.6128
 6807SOL    HW122428   8.574   5.682   4.046 -0.8372 -0.0592  0.4089
 6807SOL    HW222429   8.570   5.833   4.052  0.5541 -0.0350  1.2152
 6808SOL     OW22430  10.184   8.933   0.926  0.8415  0.0461  0.3006
 6808SOL    HW122431  10.115   8.867   0.929  0.7511  0.0671 -1.0249
 6808SOL    HW222432  10.210   8.937   0.834  1.3710  1.3248  0.4880
 6809SOL     OW22433  10.361   0.898  11.020 -0.2233  0.6928 -0.1064
 6809SOL    HW122434  10.372   0.909  10.925 -0.1493 -0.5513 -0.2661
 6809SOL    HW222435  10.272   0.929  11.037  0.2250  2.1669 -0.3520
 6810SOL     OW22436   9.793   4.254   9.271 -0.1751  0.4540 -0.6034
 6810SOL    HW122437   9.845   4.327   9.304  0.2174  0.7840 -1.8712
 6810SOL    HW222438   9.857   4.196   9.230 -0.7234  0.6196 -1.7457
 6811SOL     OW22439   4.424   0.853   2.104  0.5102  0.8922 -0.2004
 6811SOL    HW122440   4.481   0.907   2.159 -1.1648  1.6129  0.9080
 6811SOL    HW222441   4.373   0.802   2.166  2.2434 -2.3573 -1.1832
 6812SOL     OW22442   8.453   2.899   4.930  0.6156  0.3764 -0.1683
 6812SOL    HW122443   8.379   2.853   4.968 -0.0678  0.9175 -0.7975
 6812SOL    HW222444   8.417   2.984   4.903  1.8454  1.3281  1.0327
 6813SOL     OW22445   5.369   0.455   2.626 -0.4391  0.2915  0.8837
 6813SOL    HW122446   5.328   0.541   2.632 -0.3047  0.2660  3.1126
 6813SOL    HW222447   5.350   0.413   2.710  1.1319 -1.1036  0.6112
 6814SOL     OW22448   7.829   2.511   6.768  0.1347 -0.7183 -0.1855
 6814SOL    HW122449   7.833   2.469   6.855 -0.0537 -2.2226 -0.8729
 6814SOL    HW222450   7.773   2.454   6.717  1.5223 -0.7217 -1.7730
 6815SOL     OW22451   4.158   1.296   3.024  0.4736  0.7038 -0.0447
 6815SOL    HW122452   4.193   1.217   2.982  2.3604  2.6146 -2.3869
 6815SOL    HW222453   4.215   1.309   3.100  2.2533  1.4424 -1.4296
 6816SOL     OW22454   5.800   9.850   6.751  0.6129  0.0644  0.2575
 6816SOL    HW122455   5.882   9.811   6.782 -1.1081 -0.9536  4.2730
 6816SOL    HW222456   5.800   9.939   6.789 -0.5394 -0.3416  1.2813
 6817SOL     OW22457  10.078   6.451   6.063  0.4114  0.4098 -0.1228
 6817SOL    HW122458   9.992   6.417   6.088  0.9104 -1.2676 -0.5311
 6817SOL    HW222459  10.059   6.520   6.000 -0.6823  1.4594  1.2998
 6818SOL     OW22460   9.446   1.397   9.309  0.3582 -0.1264  0.4591
 6818SOL    HW122461   9.421   1.305   9.325  0.9509 -0.3344  0.2016
 6818SOL    HW222462   9.530   1.391   9.264  0.5850  0.5562  0.7898
 6819SOL     OW22463   2.542   5.919   4.915  0.3727  0.5671  0.3983
 6819SOL    HW122464   2.521   5.843   4.968 -0.0510 -0.5730 -1.3339
 6819SOL    HW222465   2.483   5.913   4.840  2.1993  1.0736 -1.1496
 6820SOL     OW22466   5.788   2.108   6.868  0.5738 -0.3831 -0.2828
 6820SOL    HW122467   5.804   2.175   6.802  1.2031  0.5469  0.7650
 6820SOL    HW222468   5.694   2.113   6.885 -0.2945 -2.9227 -3.4061
 6821SOL     OW22469   9.879   7.272   3.663 -0.2026 -0.6514  0.5487
 6821SOL    HW122470   9.858   7.213   3.591  1.2420  0.1323 -0.5670
 6821SOL    HW222471   9.889   7.358   3.622  3.0371 -0.5799  1.1733
 6822SOL     OW22472   4.159   7.887   8.543 -0.1754  0.3034  0.2551
 6822SOL    HW122473   4.119   7.952   8.602 -2.8709 -0.0015 -1.0786
 6822SOL    HW222474   4.095   7.816   8.540  2.0466 -1.8013  0.5200
 6823SOL     OW22475   9.422   5.060   7.082 -0.2645 -0.1903  0.4822
 6823SOL    HW122476   9.427   5.054   7.177 -0.6937  2.4532  0.7536
 6823SOL    HW222477   9.329   5.066   7.063 -0.1034  1.9974  0.1868
 6824SOL     OW22478   9.398  10.145   5.831  0.3300  0.6081  0.0335
 6824SOL    HW122479   9.363  10.173   5.915  0.8428  0.5418  0.2734
 6824SOL    HW222480   9.486  10.112   5.851 -0.1768 -1.0185 -0.2587
 6825SOL     OW22481   7.207   0.314   0.092  0.3894  0.4903 -0.3965
 6825SOL    HW122482   7.152   0.352   0.024 -0.0330  0.4873 -0.0661
 6825SOL    HW222483   7.292   0.357   0.083  0.0993  1.0637 -0.4171
 6826SOL     OW22484   5.567   7.914   0.504  0.1639  0.4943 -0.0843
 6826SOL    HW122485   5.567   7.826   0.543 -0.3644  0.1172 -0.9068
 6826SOL    HW222486   5.482   7.920   0.461  0.6024  1.0339 -0.8831
 6827SOL     OW22487   3.743   7.912   2.114 -0.5139 -0.1327  0.2323
 6827SOL    HW122488   3.736   7.950   2.202 -1.7486  0.4252 -0.0933
 6827SOL    HW222489   3.799   7.972   2.065 -0.9064  0.2544  0.2602
 6828SOL     OW22490   3.646   4.753   2.797 -0.4215  0.0764 -0.2578
 6828SOL    HW122491   3.739   4.734   2.807 -0.4195  0.2803  0.1213
 6828SOL    HW222492   3.615   4.773   2.886 -0.8239  0.0218 -0.3803
 6829SOL     OW22493   2.374   8.406  10.163 -0.2497  0.7568 -0.0112
 6829SOL    HW122494   2.325   8.382  10.084  0.7106 -0.7671 -0.1949
 6829SOL    HW222495   2.462   8.372  10.148  0.2103  1.2686  1.3361
 6830SOL     OW22496   9.344   0.744   7.306 -0.2000  0.4887  0.4458
 6830SOL    HW122497   9.352   0.805   7.379  0.7477 -0.2220  0.9581
 6830SOL    HW222498   9.362   0.658   7.344 -2.2222 -0.2424 -0.1056
 6831SOL     OW22499   6.552   7.587   9.156  0.0757 -0.3640 -0.3967
 6831SOL    HW122500   6.540   7.545   9.071 -0.1171  1.2119 -1.1913
 6831SOL    HW222501   6.496   7.538   9.216 -0.2365 -1.1326 -1.2968
 6832SOL     OW22502   1.219   4.678   6.987  0.0997  0.2365 -0.0053
 6832SOL    HW122503   1.133   4.639   6.972  0.7978 -1.3460 -0.0714
 6832SOL    HW222504   1.202   4.772   6.994 -2.0344 -0.2533  3.0187
 6833SOL     OW22505   3.516   9.559   9.675 -0.1850  0.2417  0.8056
 6833SOL    HW122506   3.506   9.583   9.583  0.3250 -1.7481  0.1877
 6833SOL    HW222507   3.453   9.614   9.721 -1.0150  0.7080 -0.8288
 6834SOL     OW22508   4.254   0.812   6.962  0.0767  0.1045  0.1432
 6834SOL    HW122509   4.253   0.904   6.936 -0.2157  0.4155  1.1999
 6834SOL    HW222510   4.256   0.763   6.880 -1.4882  1.0301 -0.4807
 6835SOL     OW22511   1.611   9.540   3.886 -0.0820 -0.2753  0.0116
 6835SOL    HW122512   1.585   9.503   3.970 -1.3771  0.6094  0.0430
 6835SOL    HW222513   1.530   9.539   3.834 -0.4977  3.2633  0.3312
 6836SOL     OW22514   8.601   1.263   7.912  0.3461  0.4193 -0.1087
 6836SOL    HW122515   8.648   1.298   7.836 -0.5250  1.0638 -0.3650
 6836SOL    HW222516   8.622   1.170   7.912  0.3739  0.4141 -1.1410
 6837SOL     OW22517   4.151   0.771   9.467 -0.1182  0.3020  0.1566
 6837SOL    HW122518   4.130   0.861   9.494  0.6252  0.6995 -0.5479
 6837SOL    HW222519   4.234   0.779   9.421 -0.3908 -0.6564 -0.5188
 6838SOL     OW22520   9.719   3.545   9.562  0.2140 -0.2945  0.2193
 6838SOL    HW122521   9.716   3.566   9.655  1.3488  1.7504 -0.1409
 6838SOL    HW222522   9.663   3.468   9.552  0.6950 -1.0444  2.6980
 6839SOL     OW22523   6.419   4.306   4.254  0.3232 -0.3315  0.0307
 6839SOL    HW122524   6.466   4.316   4.171  0.7307  1.9077  0.4653
 6839SOL    HW222525   6.421   4.212   4.271  1.1331 -0.7413 -1.9633
 6840SOL     OW22526  10.993   3.574   8.489 -0.2587  0.2858 -0.3322
 6840SOL    HW122527  10.961   3.583   8.399  0.7602  0.0023 -0.7311
 6840SOL    HW222528  10.919   3.535   8.536  0.1768 -2.4916 -1.7328
 6841SOL     OW22529   1.041   8.602   9.265  0.1696  0.6275 -0.1910
 6841SOL    HW122530   1.012   8.512   9.252  0.7458  0.3842  0.1743
 6841SOL    HW222531   1.131   8.594   9.297  1.0956  1.3875 -2.4232
 6842SOL     OW22532   8.506   2.427   4.304  0.1516 -0.8055 -0.0513
 6842SOL    HW122533   8.526   2.395   4.216 -0.2531 -1.9561  0.2591
 6842SOL    HW222534   8.557   2.370   4.362 -0.5258 -0.8376  0.5165
 6843SOL     OW22535   9.443   7.333   3.013 -0.4766 -0.0649  0.4634
 6843SOL    HW122536   9.461   7.299   3.101  1.2201  0.1563  0.2382
 6843SOL    HW222537   9.435   7.255   2.958 -0.3726 -0.1829  0.6158
 6844SOL     OW22538   2.127   1.112  10.466  0.2975 -0.0644 -0.1878
 6844SOL    HW122539   2.040   1.117  10.504  0.5629 -0.7311  0.5296
 6844SOL    HW222540   2.113   1.070  10.381 -0.1360  0.2356 -0.2672
 6845SOL     OW22541   6.689   0.220   3.206 -0.1500  0.0489  0.1075
 6845SOL    HW122542   6.733   0.246   3.125 -2.1882 -0.7408 -1.3755
 6845SOL    HW222543   6.740   0.145   3.238  1.1200  0.8395 -0.0001
 6846SOL     OW22544   0.521   2.029   0.140  0.3798  0.6277 -0.1940
 6846SOL    HW122545   0.526   2.101   0.077  0.3434 -0.5993 -1.6511
 6846SOL    HW222546   0.599   1.976   0.122 -0.4060 -0.5470 -0.2459
 6847SOL     OW22547   3.400  10.349   4.481 -0.0693  0.0233 -0.2566
 6847SOL    HW122548   3.490  10.331   4.507 -0.3721 -0.8132  0.2505
 6847SOL    HW222549   3.367  10.409   4.548 -0.0777 -0.1516 -0.1040
 6848SOL     OW22550  10.426   8.803   6.196 -0.7617  0.1229  0.5125
 6848SOL    HW122551  10.360   8.764   6.138 -1.8863  0.7029  1.3516
 6848SOL    HW222552  10.474   8.728   6.231 -0.7575 -0.2968 -0.3567
 6849SOL     OW22553   5.776   8.552   3.027 -0.3422 -0.5460  0.2645
 6849SOL    HW122554   5.838   8.624   3.033  0.4105 -1.1225 -0.3203
 6849SOL    HW222555   5.814   8.483   3.082 -1.9798  0.1030  2.3295
 6850SOL     OW22556   7.308   5.316   0.615  0.1746  0.0385  0.0982
 6850SOL    HW122557   7.392   5.360   0.631  0.1941  1.5596 -3.3230
 6850SOL    HW222558   7.330   5.238   0.566 -0.3732  0.3364 -0.6407
 6851SOL     OW22559   7.895   8.729   7.182  0.2756  0.5617  0.2122
 6851SOL    HW122560   7.970   8.686   7.142 -2.0616 -1.6984 -2.0880
 6851SOL    HW222561   7.852   8.661   7.233 -1.8403  0.9442 -0.9662
 6852SOL     OW22562   6.266   7.431   8.915 -0.1940 -0.0850  0.7036
 6852SOL    HW122563   6.261   7.525   8.901 -0.3972 -0.2804 -0.6611
 6852SOL    HW222564   6.248   7.393   8.829  2.0871 -1.3243  0.7023
 6853SOL     OW22565   4.127   8.446   5.005 -0.1431  0.1628 -0.1335
 6853SOL    HW122566   4.116   8.488   5.090  0.9859  1.8922 -0.7768
 6853SOL    HW222567   4.120   8.353   5.023 -2.2568  0.5597  1.4598
 6854SOL     OW22568   4.108   9.693   5.520  0.0552 -0.4800 -0.2387
 6854SOL    HW122569   4.126   9.604   5.550 -0.4787 -0.3409  0.5017
 6854SOL    HW222570   4.179   9.712   5.459  2.4795  0.0645  2.5565
 6855SOL     OW22571   8.831   7.656  10.783 -0.2840 -0.4247 -0.4081
 6855SOL    HW122572   8.826   7.583  10.845 -0.6956 -0.1047 -0.0631
 6855SOL    HW222573   8.752   7.647  10.729  0.9482 -1.8037 -2.1448
 6856SOL     OW22574   2.925   1.550   1.316 -0.1330 -0.3470 -0.1476
 6856SOL    HW122575   2.952   1.632   1.357 -1.3400 -0.2018  0.3964
 6856SOL    HW222576   2.911   1.572   1.225  1.7910 -0.4939 -0.5339
 6857SOL     OW22577   4.918   6.799  10.837  0.2244 -0.2257  0.1058
 6857SOL    HW122578   5.003   6.755  10.837  0.8188  0.6689  3.2017
 6857SOL    HW222579   4.939   6.893  10.837 -0.7159  0.0146  0.8772
 6858SOL     OW22580   8.453   9.524  10.715  0.1402 -1.2316  0.0330
 6858SOL    HW122581   8.533   9.525  10.663 -0.6507  0.8665 -1.2476
 6858SOL    HW222582   8.456   9.440  10.762  3.4221 -0.8871  0.6295
 6859SOL     OW22583  10.253   3.009   6.155  0.0464  0.0565 -0.2023
 6859SOL    HW122584  10.248   2.965   6.240  0.5350  2.1178  0.9621
 6859SOL    HW222585  10.313   3.082   6.169  1.2764 -0.3607 -2.7483
 6860SOL     OW22586   0.979   4.130   9.756 -0.0317  0.1699 -0.4498
 6860SOL    HW122587   0.893   4.167   9.735 -0.1941 -0.2630 -0.5431
 6860SOL    HW222588   0.959   4.047   9.799  0.3343  0.2263 -0.1685
 6861SOL     OW22589   6.975   9.281   2.984  0.0435 -0.3268  0.3107
 6861SOL    HW122590   7.063   9.276   2.949  0.6209  1.3952  1.4236
 6861SOL    HW222591   6.956   9.374   2.991 -1.1996 -0.6322  1.6863
 6862SOL     OW22592   2.022   6.435   1.460 -0.4410  0.1175 -0.7791
 6862SOL    HW122593   1.964   6.495   1.508  0.2204 -0.5467  0.9231
 6862SOL    HW222594   1.965   6.364   1.432 -0.4551 -0.7218  1.2123
 6863SOL     OW22595   5.950   0.495   8.105 -0.3236  0.1713 -0.1699
 6863SOL    HW122596   5.861   0.492   8.069 -0.1432 -0.4530 -0.5921
 6863SOL    HW222597   5.943   0.455   8.191 -0.6732  1.2487  0.3216
 6864SOL     OW22598   8.511   9.456   9.927 -0.1802 -0.0796 -0.1310
 6864SOL    HW122599   8.563   9.528   9.892 -2.6145  1.7020 -0.3551
 6864SOL    HW222600   8.495   9.479  10.018  0.1918 -1.0737  0.1975
 6865SOL     OW22601   6.978   4.213   6.414 -0.2666 -0.1998  0.6840
 6865SOL    HW122602   6.998   4.298   6.375  0.8592 -0.8372 -0.2272
 6865SOL    HW222603   6.985   4.227   6.508 -0.1059  0.7117  0.5447
 6866SOL     OW22604  10.528   9.366   5.284 -0.2243  0.1656  0.0174
 6866SOL    HW122605  10.548   9.329   5.370 -0.1572 -0.4623 -0.2599
 6866SOL    HW222606  10.479   9.297   5.239  0.4140  0.1707 -0.7252
 6867SOL     OW22607   0.683   8.007  10.753 -0.2243 -0.2108  0.1555
 6867SOL    HW122608   0.663   8.068  10.681 -1.0932 -0.6824 -0.0192
 6867SOL    HW222609   0.770   7.973  10.731  0.0051  0.4974 -0.0721
 6868SOL     OW22610   4.386   9.467   2.745 -0.5708  0.3897 -0.3848
 6868SOL    HW122611   4.364   9.434   2.658 -0.3702  1.1985 -0.7486
 6868SOL    HW222612   4.403   9.388   2.797  0.4881 -0.0659 -1.3921
 6869SOL     OW22613   3.395   2.437  10.044 -0.4245 -0.3171  0.1219
 6869SOL    HW122614   3.422   2.481  10.124 -1.9907 -0.7412  0.9056
 6869SOL    HW222615   3.470   2.449   9.984  0.6612  0.2188  1.5318
 6870SOL     OW22616  10.894   5.384   1.813 -0.0931  0.4328  0.3318
 6870SOL    HW122617  10.901   5.479   1.803 -2.4782  0.5605 -0.7631
 6870SOL    HW222618  10.807   5.371   1.850 -0.0610 -1.3580 -0.1692
 6871SOL     OW22619   9.016   3.121   4.855 -0.2546  0.3943 -0.0049
 6871SOL    HW122620   9.094   3.115   4.910 -1.0227 -3.0942  0.8842
 6871SOL    HW222621   9.033   3.061   4.782 -1.8963 -0.0848 -0.0335
 6872SOL     OW22622   9.242   5.590   7.641  0.1077  0.9256  0.4238
 6872SOL    HW122623   9.219   5.550   7.724  1.6606 -0.7626  0.1095
 6872SOL    HW222624   9.206   5.531   7.575  1.4673  0.6026 -0.0626
 6873SOL     OW22625  10.379   6.499  11.001 -0.0853  0.0779 -0.2376
 6873SOL    HW122626  10.428   6.492  11.083  0.2679  2.0316 -0.2440
 6873SOL    HW222627  10.349   6.410  10.984 -0.9636 -0.2531  2.5066
 6874SOL     OW22628   0.701   0.246   0.115 -0.3099  0.2561  0.2918
 6874SOL    HW122629   0.639   0.301   0.162 -0.0660  0.3580  0.4960
 6874SOL    HW222630   0.766   0.221   0.181  0.2972  0.7915 -0.0953
 6875SOL     OW22631   0.240   5.021   1.091 -0.1681  0.6800  0.0505
 6875SOL    HW122632   0.229   4.926   1.097  2.9293  0.1640 -0.6865
 6875SOL    HW222633   0.173   5.057   1.150 -1.6058 -1.9066  0.1403
 6876SOL     OW22634   3.575   1.425  10.399  0.0799 -0.5579  0.4722
 6876SOL    HW122635   3.599   1.514  10.375  1.2189 -0.6301  1.2363
 6876SOL    HW222636   3.502   1.435  10.461  0.0692 -0.1710  0.3964
 6877SOL     OW22637   3.946   9.136   9.055 -0.3022  0.4463  0.2029
 6877SOL    HW122638   4.000   9.062   9.027  1.5814  1.1021  1.8243
 6877SOL    HW222639   3.884   9.099   9.118 -1.4832 -0.2329 -1.3022
 6878SOL     OW22640   1.295   1.017   4.187 -0.4057 -0.1807  0.5940
 6878SOL    HW122641   1.377   0.973   4.166  0.1746  0.2800  1.7820
 6878SOL    HW222642   1.264   0.973   4.266 -0.8670  0.2237  0.6414
 6879SOL     OW22643   7.448   5.102   6.903 -0.0606  0.6692  0.6984
 6879SOL    HW122644   7.407   5.037   6.846 -1.9228  2.0353  0.3875
 6879SOL    HW222645   7.533   5.064   6.925 -0.9059 -1.6904  0.2385
 6880SOL     OW22646   7.165   8.122   0.339 -0.6259 -0.4657  0.6748
 6880SOL    HW122647   7.246   8.097   0.383 -0.1575  0.8656  0.6195
 6880SOL    HW222648   7.161   8.065   0.262  0.4783 -0.2665  0.4516
 6881SOL     OW22649   4.419   9.641   4.076  0.0630  0.1829  0.2275
 6881SOL    HW122650   4.325   9.644   4.097 -0.2130  0.1104 -0.9607
 6881SOL    HW222651   4.455   9.719   4.117 -1.0063  1.6841 -1.5549
 6882SOL     OW22652  10.034   6.933   0.566 -0.0144  0.1187 -0.2579
 6882SOL    HW122653  10.025   6.890   0.481 -2.5531  1.5950 -0.8577
 6882SOL    HW222654  10.097   7.004   0.550  0.3528 -0.2840 -0.6111
 6883SOL     OW22655  10.316   6.467  10.157  0.1964  0.8796 -0.2696
 6883SOL    HW122656  10.330   6.459  10.063  1.2890  0.3200 -0.0776
 6883SOL    HW222657  10.221   6.474  10.167  0.0448  0.5847 -1.3832
 6884SOL     OW22658   4.920   1.971   0.178 -0.0086 -0.2322  0.0746
 6884SOL    HW122659   4.856   1.900   0.190  2.7817 -3.0858 -0.7845
 6884SOL    HW222660   4.959   1.982   0.265 -0.6436  0.5333  0.2766
 6885SOL     OW22661   4.441   4.660   4.701 -0.0492 -0.6335 -0.0219
 6885SOL    HW122662   4.531   4.657   4.670  0.0625  1.8495 -0.1355
 6885SOL    HW222663   4.448   4.672   4.796 -0.3489 -3.2192  0.3972
 6886SOL     OW22664   8.898   5.817   6.107  0.8504 -0.4757  0.3294
 6886SOL    HW122665   8.847   5.844   6.184  1.0127  0.0982  0.2437
 6886SOL    HW222666   8.971   5.766   6.143  1.1142  0.0739  0.5916
 6887SOL     OW22667   3.996   1.777   1.656  0.5995  0.0770 -0.2114
 6887SOL    HW122668   4.037   1.810   1.736 -0.1239  1.2959 -0.3210
 6887SOL    HW222669   3.934   1.846   1.630  0.6682 -0.3847 -1.7070
 6888SOL     OW22670   5.042   4.667   4.550 -0.1338 -0.0471 -0.2295
 6888SOL    HW122671   4.964   4.715   4.577  1.0460  1.7838  0.1024
 6888SOL    HW222672   5.013   4.576   4.543 -2.2957  0.5770 -0.1900
 6889SOL     OW22673   5.142   2.300   9.346 -0.6660  0.2955  0.5883
 6889SOL    HW122674   5.194   2.255   9.412 -1.3252 -1.2968  0.0554
 6889SOL    HW222675   5.172   2.391   9.351  0.6955 -0.1705  1.7004
 6890SOL     OW22676   2.756   0.090   1.677 -0.4758 -0.7422  0.5569
 6890SOL    HW122677   2.839   0.110   1.633 -0.4437  0.1182  0.9916
 6890SOL    HW222678   2.780   0.028   1.746  0.1451  0.9641  1.9259
 6891SOL     OW22679   0.820   2.586   4.602 -0.4263 -0.8641  0.0951
 6891SOL    HW122680   0.862   2.553   4.523  0.3307  0.7426 -0.2096
 6891SOL    HW222681   0.735   2.619   4.574 -0.3435 -0.7079  0.0265
 6892SOL     OW22682   8.357   1.620   3.846 -0.1314  0.2841 -0.0239
 6892SOL    HW122683   8.280   1.594   3.898 -0.1336 -0.8288 -0.5583
 6892SOL    HW222684   8.375   1.544   3.791  1.0330  0.7446 -0.2914
 6893SOL     OW22685   0.968   1.273   2.761 -0.7176  0.1016  0.2669
 6893SOL    HW122686   0.894   1.271   2.701  0.7165 -0.6541 -1.5855
 6893SOL    HW222687   0.978   1.183   2.791 -0.9762  0.3379  1.0880
 6894SOL     OW22688   1.781   7.630   5.354  0.7855 -0.3091  0.1948
 6894SOL    HW122689   1.860   7.590   5.316  1.6546  0.2074  1.4054
 6894SOL    HW222690   1.790   7.723   5.334 -0.1902 -0.4081 -0.7876
 6895SOL     OW22691   6.835   3.246   5.495 -0.0452  0.0953  0.0332
 6895SOL    HW122692   6.831   3.154   5.469  0.6816 -0.0943  0.5413
 6895SOL    HW222693   6.773   3.253   5.567  0.3439 -0.1454  0.3959
 6896SOL     OW22694   0.077   6.046   5.769  0.8736 -0.6180 -0.0686
 6896SOL    HW122695   0.056   6.079   5.856  0.8540  2.2141 -1.0641
 6896SOL    HW222696  -0.005   6.054   5.720  0.6290 -3.0435 -0.2050
 6897SOL     OW22697   3.261   1.961   1.185  0.0052 -0.2928  0.1708
 6897SOL    HW122698   3.342   1.921   1.152  0.0731  0.2371 -0.3184
 6897SOL    HW222699   3.261   2.049   1.148  0.8428  0.9079  2.7444
 6898SOL     OW22700   4.667   9.729   4.435  0.0645 -0.0094  0.2887
 6898SOL    HW122701   4.630   9.767   4.355 -0.7300 -1.3929 -0.0370
 6898SOL    HW222702   4.692   9.804   4.488 -2.0176  0.9903 -0.0570
 6899SOL     OW22703   5.132  10.183   1.423 -0.0900 -0.0169  0.0405
 6899SOL    HW122704   5.110  10.259   1.478 -0.6243  1.3893 -1.9806
 6899SOL    HW222705   5.138  10.110   1.484  0.9928  1.7379  2.1550
 6900SOL     OW22706  10.772   9.656   3.419 -0.1982  0.1642 -0.3292
 6900SOL    HW122707  10.757   9.582   3.479  0.0811  0.0770 -0.3635
 6900SOL    HW222708  10.805   9.615   3.339 -2.0558  0.1349 -1.1273
 6901SOL     OW22709   1.822   8.747   4.210  0.2176  0.1382  0.1064
 6901SOL    HW122710   1.795   8.667   4.164 -1.2992  0.6287  0.0981
 6901SOL    HW222711   1.751   8.809   4.196  0.3072  0.7549  1.9931
 6902SOL     OW22712  10.567  10.422   9.809  1.0349  0.0790  0.4780
 6902SOL    HW122713  10.573  10.415   9.713 -0.7162 -0.5725  0.3804
 6902SOL    HW222714  10.594  10.512   9.828 -0.1049  0.7481 -0.8250
 6903SOL     OW22715   5.793  10.870   4.383  1.0185 -0.2728  0.1279
 6903SOL    HW122716   5.864  10.821   4.340 -0.5433 -1.6729 -0.9692
 6903SOL    HW222717   5.743  10.803   4.430  0.5544  0.7407  1.1380
 6904SOL     OW22718   7.769   7.662   6.878 -0.3885  0.5691  0.1349
 6904SOL    HW122719   7.735   7.574   6.863 -1.5383  1.2217 -1.3505
 6904SOL    HW222720   7.864   7.654   6.865 -0.5330 -0.3570 -0.4299
 6905SOL     OW22721   2.745   2.265   9.703 -0.1181  0.5673 -0.2089
 6905SOL    HW122722   2.804   2.229   9.637 -0.0511  2.9142 -1.5250
 6905SOL    HW222723   2.685   2.193   9.723  1.1149 -0.8377 -1.3061
 6906SOL     OW22724   0.680   7.024   7.844 -0.0617  0.0977  0.0806
 6906SOL    HW122725   0.766   7.054   7.874 -0.2982  0.8065  0.0661
 6906SOL    HW222726   0.680   6.931   7.864  0.4000  0.2450  0.8337
 6907SOL     OW22727   3.338   1.408   9.873 -0.2827 -0.1639  0.7707
 6907SOL    HW122728   3.399   1.465   9.919 -1.1134  1.8888 -0.5609
 6907SOL    HW222729   3.258   1.413   9.925 -0.2432 -0.4254  0.8579
 6908SOL     OW22730   0.523   2.689   3.756 -0.3117  0.2635 -0.2379
 6908SOL    HW122731   0.449   2.733   3.714 -0.9667 -0.1913  0.4168
 6908SOL    HW222732   0.548   2.619   3.696 -1.1780 -0.3214  0.0641
 6909SOL     OW22733   3.427   9.025   8.536 -0.0830 -0.0612 -0.0293
 6909SOL    HW122734   3.365   9.094   8.557 -1.4263 -0.7111 -1.5729
 6909SOL    HW222735   3.409   9.004   8.444  0.3639 -2.3438  0.3262
 6910SOL     OW22736   4.285   8.527  10.112  0.0365  0.4116 -0.2035
 6910SOL    HW122737   4.247   8.597  10.059  0.1794 -1.5341 -3.0417
 6910SOL    HW222738   4.380   8.539  10.102  0.0778  0.3832  0.1375
 6911SOL     OW22739  10.479   7.484   6.552  0.3890 -0.2097  0.2880
 6911SOL    HW122740  10.528   7.565   6.565  1.3247 -0.9105  1.3651
 6911SOL    HW222741  10.466   7.479   6.457  0.0613  1.3240  0.2295
 6912SOL     OW22742   7.337  10.241   9.800 -0.5595  0.1570 -0.1724
 6912SOL    HW122743   7.376  10.162   9.837 -0.9264 -0.5210 -1.1830
 6912SOL    HW222744   7.289  10.281   9.873  0.3216 -0.1002  0.5571
 6913SOL     OW22745   3.102   6.960   9.393  0.0143 -0.7442  0.0827
 6913SOL    HW122746   3.143   6.936   9.476  2.7974 -0.3215 -1.0243
 6913SOL    HW222747   3.088   6.877   9.348  1.2707 -0.8492 -0.1594
 6914SOL     OW22748   4.204   0.099   3.777  0.3171 -0.2137  0.4364
 6914SOL    HW122749   4.147   0.047   3.833 -1.0006 -1.8078 -2.1755
 6914SOL    HW222750   4.286   0.050   3.776  0.3720 -0.1425  0.9910
 6915SOL     OW22751   1.249   8.647   6.430 -0.3773  0.9559  0.2303
 6915SOL    HW122752   1.176   8.708   6.441  0.1102  2.0095 -1.9102
 6915SOL    HW222753   1.223   8.570   6.480 -2.5809  1.6066  0.2036
 6916SOL     OW22754   8.395   1.357   8.049 -0.2501  0.6224  0.1926
 6916SOL    HW122755   8.476   1.328   8.007 -0.7438  0.0472 -0.3670
 6916SOL    HW222756   8.347   1.277   8.068 -1.0530  0.9958 -0.2122
 6917SOL     OW22757   8.117   2.127   0.756  0.1519 -0.8461  0.3770
 6917SOL    HW122758   8.112   2.077   0.837  0.4763  1.0771  1.6300
 6917SOL    HW222759   8.175   2.075   0.699 -0.0934 -2.2199  1.3324
 6918SOL     OW22760   3.497   7.058  10.409  0.1249  0.4127 -0.6773
 6918SOL    HW122761   3.407   7.043  10.381 -0.9685  1.3840  2.0078
 6918SOL    HW222762   3.517   7.147  10.379  0.4828 -0.0403 -1.8484
 6919SOL     OW22763   6.477   0.419   4.169  0.6716  0.4227 -0.1840
 6919SOL    HW122764   6.559   0.438   4.215  2.1737  0.2705 -2.6069
 6919SOL    HW222765   6.503   0.413   4.077 -2.0790  0.2844 -1.0205
 6920SOL     OW22766   4.866   1.248   9.615 -0.2280 -0.2763 -0.1591
 6920SOL    HW122767   4.925   1.236   9.689 -1.9799 -0.8246  1.2355
 6920SOL    HW222768   4.849   1.342   9.613  0.5691 -0.1312 -0.4970
 6921SOL     OW22769  10.413   4.861   8.331 -0.3207  0.1582 -0.1245
 6921SOL    HW122770  10.319   4.878   8.330 -0.3538 -0.0146  0.0357
 6921SOL    HW222771  10.424   4.790   8.394  0.2234  1.9207  1.8785
 6922SOL     OW22772   0.872   2.994  10.671  0.0153  0.0340  0.5777
 6922SOL    HW122773   0.948   2.950  10.709  0.3667 -0.6555 -0.8673
 6922SOL    HW222774   0.797   2.956  10.717  0.4970  0.4732  1.7728
 6923SOL     OW22775   3.593   7.653   3.671 -0.2813  0.1891  0.1951
 6923SOL    HW122776   3.566   7.658   3.579  2.2788  1.3266 -0.5752
 6923SOL    HW222777   3.510   7.651   3.719 -1.7265 -1.5504 -2.1157
 6924SOL     OW22778   0.632   1.206   0.152 -0.1639  0.5015 -0.3967
 6924SOL    HW122779   0.599   1.117   0.151  0.9407  0.0373  1.0642
 6924SOL    HW222780   0.667   1.220   0.064 -0.1271 -0.5960 -0.5654
 6925SOL     OW22781  10.441   8.199   4.442 -0.6614 -0.4561  0.6783
 6925SOL    HW122782  10.485   8.242   4.368 -1.6523  1.4072  1.0892
 6925SOL    HW222783  10.508   8.193   4.510 -0.8385  2.0868  1.2063
 6926SOL     OW22784   5.810   1.517   8.402 -0.0999  0.0181 -0.0825
 6926SOL    HW122785   5.874   1.497   8.334  0.4812  1.5649 -0.0297
 6926SOL    HW222786   5.746   1.575   8.359 -0.6394 -0.3044  0.2666
 6927SOL     OW22787   3.161   1.042   3.012  0.5209 -0.5834  0.2169
 6927SOL    HW122788   3.091   1.007   3.068  0.6713 -1.4853 -0.1422
 6927SOL    HW222789   3.120   1.115   2.966  0.9824  1.6708  3.0782
 6928SOL     OW22790  10.116  10.481  10.288 -0.2255  0.3703 -0.2999
 6928SOL    HW122791  10.030  10.451  10.260 -0.2152  1.4603 -1.6071
 6928SOL    HW222792  10.098  10.536  10.365 -0.5358 -0.5132  0.2719
 6929SOL     OW22793   0.572   6.406   1.186  0.4342 -0.2342  0.2250
 6929SOL    HW122794   0.638   6.396   1.255  1.0835 -2.0050 -0.5910
 6929SOL    HW222795   0.527   6.322   1.184  0.0789 -0.0299 -1.1610
 6930SOL     OW22796   2.597   1.565   0.945 -0.3060 -0.1052 -0.6562
 6930SOL    HW122797   2.530   1.565   1.013  0.3996  1.7688  0.1260
 6930SOL    HW222798   2.560   1.619   0.875  0.7671  1.9817  0.2887
 6931SOL     OW22799   3.014   0.088   8.323  0.0956 -0.5773 -0.4448
 6931SOL    HW122800   3.094   0.092   8.375 -0.0557 -1.1036 -0.1674
 6931SOL    HW222801   3.007  -0.003   8.296 -0.3487 -0.5118 -0.5661
 6932SOL     OW22802   7.282   3.490  10.577 -0.2872 -0.6585  0.1795
 6932SOL    HW122803   7.196   3.515  10.610 -0.6358 -2.0426  0.3709
 6932SOL    HW222804   7.296   3.401  10.610  1.8500  0.0361  1.4166
 6933SOL     OW22805   4.383   7.939   8.168 -0.0010 -0.2948  0.1498
 6933SOL    HW122806   4.372   7.889   8.249 -1.1611 -0.1587  0.1010
 6933SOL    HW222807   4.313   7.907   8.111  0.1640  0.3399 -0.4174
 6934SOL     OW22808   8.774   5.691   1.644 -0.2491  0.1116  0.0114
 6934SOL    HW122809   8.806   5.700   1.554 -0.0523  1.2366  0.1846
 6934SOL    HW222810   8.848   5.655   1.692 -0.6572 -1.4249 -0.4476
 6935SOL     OW22811   5.253   9.912   4.521  0.1261  0.0647 -0.2612
 6935SOL    HW122812   5.302   9.988   4.489  0.7874 -0.5610 -0.7643
 6935SOL    HW222813   5.163   9.927   4.490 -0.1166  1.3989  0.9662
 6936SOL     OW22814   5.152   6.996   7.630  0.6257 -0.0913  0.8561
 6936SOL    HW122815   5.146   6.905   7.601  0.2744  0.6687 -1.7312
 6936SOL    HW222816   5.243   7.007   7.656  0.7928 -1.0436  0.7031
 6937SOL     OW22817   0.307   2.172   1.352  0.5354 -0.1856 -0.3400
 6937SOL    HW122818   0.243   2.145   1.286 -0.2938 -0.7216  0.6640
 6937SOL    HW222819   0.362   2.095   1.365  0.8122 -0.0214 -0.5336
 6938SOL     OW22820   7.796   4.505   0.795  0.3528 -0.2019 -0.7529
 6938SOL    HW122821   7.799   4.477   0.886 -3.3466  0.5253 -0.2352
 6938SOL    HW222822   7.812   4.600   0.798  0.1634 -0.1660 -0.8416
 6939SOL     OW22823   5.397   2.408   8.141  0.2670 -0.1723 -0.0596
 6939SOL    HW122824   5.434   2.494   8.161 -0.4993 -0.1081  1.2357
 6939SOL    HW222825   5.387   2.407   8.046  0.1593  1.2368 -0.0815
 6940SOL     OW22826   6.456  10.493  11.005 -0.1070  0.4447  0.0376
 6940SOL    HW122827   6.479  10.565  11.064  1.2377 -0.2506  0.3989
 6940SOL    HW222828   6.539  10.470  10.962 -0.6618 -0.4099 -0.6061
 6941SOL     OW22829   9.594   4.716   1.029  0.1772 -0.2945 -0.3841
 6941SOL    HW122830   9.667   4.688   0.974  0.3787  0.2808 -0.4113
 6941SOL    HW222831   9.577   4.641   1.086 -0.4054 -1.1119 -1.6035
 6942SOL     OW22832   0.964   6.392   2.678 -0.0171 -0.0300 -0.0435
 6942SOL    HW122833   1.034   6.404   2.742  0.3591  0.0440 -0.4674
 6942SOL    HW222834   0.900   6.336   2.722 -1.1758  2.3097  1.5179
 6943SOL     OW22835   6.563  10.465   4.990  0.5830 -0.0722  0.3949
 6943SOL    HW122836   6.537  10.375   4.972  1.8752 -0.6355  1.2075
 6943SOL    HW222837   6.517  10.517   4.924 -0.7996 -1.2238  0.4142
 6944SOL     OW22838   6.941   9.984   1.556  0.4940 -0.1543  0.1848
 6944SOL    HW122839   7.006   9.972   1.626  0.6200  1.4516  0.3770
 6944SOL    HW222840   6.860   9.949   1.593  0.8916 -0.6803  0.5715
 6945SOL     OW22841   5.165   3.010   4.728  0.0269  0.1145 -0.5091
 6945SOL    HW122842   5.178   2.961   4.809 -0.8217 -1.1569 -1.0985
 6945SOL    HW222843   5.197   2.950   4.660  0.1406  0.9042 -1.1597
 6946SOL     OW22844   8.179   5.617   9.625  0.2090  0.3304  0.3071
 6946SOL    HW122845   8.129   5.645   9.702 -1.3135 -0.1193 -0.4899
 6946SOL    HW222846   8.174   5.691   9.565  0.8351  0.4229  0.3600
 6947SOL     OW22847   3.764   6.174   5.662  0.0216 -0.6128  0.1485
 6947SOL    HW122848   3.723   6.233   5.727  0.2173 -0.4488  0.1244
 6947SOL    HW222849   3.821   6.117   5.714 -0.1367 -0.7551  0.1673
 6948SOL     OW22850   7.785   1.936   7.483  0.3137  0.0584  0.0397
 6948SOL    HW122851   7.749   1.872   7.421  1.5719  0.3040 -0.9983
 6948SOL    HW222852   7.869   1.899   7.509  1.8920  2.0140 -1.9127
 6949SOL     OW22853   0.048   2.724   8.295  0.0703 -0.0320 -0.6016
 6949SOL    HW122854   0.044   2.630   8.313  0.4289  0.5246  3.0982
 6949SOL    HW222855   0.140   2.747   8.305  0.4993  0.4229 -4.1610
 6950SOL     OW22856   7.002   7.303   9.422 -0.1592  0.0982  0.3924
 6950SOL    HW122857   6.922   7.338   9.383  0.5449 -0.2932 -1.5250
 6950SOL    HW222858   7.067   7.372   9.409 -0.0732  0.2858  1.6556
 6951SOL     OW22859   1.628   5.667   8.760  0.1755  0.1697  0.3083
 6951SOL    HW122860   1.609   5.692   8.670 -1.7189  0.6096  0.7760
 6951SOL    HW222861   1.589   5.737   8.813 -0.0220 -0.8056  1.5085
 6952SOL     OW22862  10.971   0.008   7.507  0.3534  0.0209  0.4043
 6952SOL    HW122863  10.908  -0.038   7.563  0.8272 -0.8839  0.2024
 6952SOL    HW222864  10.989   0.090   7.554  0.9502 -0.8329  1.7087
 6953SOL     OW22865   5.051   7.659  10.039  0.0922  0.2796  0.2529
 6953SOL    HW122866   5.088   7.613   9.964  1.0609 -1.9498  1.9660
 6953SOL    HW222867   4.956   7.645  10.032  0.0412  1.2241 -1.2044
 6954SOL     OW22868   1.344   0.471   0.913 -0.0901  0.7655  0.1157
 6954SOL    HW122869   1.379   0.495   0.827  0.9358  2.1183  0.8751
 6954SOL    HW222870   1.419   0.435   0.960 -0.4205  0.9197  0.7645
 6955SOL     OW22871   4.349   3.712   3.681  0.2817 -0.6585 -0.1179
 6955SOL    HW122872   4.258   3.738   3.667  0.7387  0.3803 -1.4403
 6955SOL    HW222873   4.379   3.685   3.594  1.8732  1.2508 -0.2367
 6956SOL     OW22874   4.492  10.218   8.439  0.6289 -0.2922 -0.4748
 6956SOL    HW122875   4.546  10.178   8.508  0.6978 -0.4243 -0.6044
 6956SOL    HW222876   4.505  10.161   8.363 -1.0391 -1.3348 -0.0338
 6957SOL     OW22877   5.294   3.475   2.058  0.1107  0.1738 -0.2417
 6957SOL    HW122878   5.215   3.528   2.047 -0.2381 -0.4163 -0.5953
 6957SOL    HW222879   5.281   3.399   2.002  0.9051  0.0380 -0.2570
 6958SOL     OW22880   7.952   2.287   1.202 -0.4418  0.0790  0.3643
 6958SOL    HW122881   8.031   2.311   1.154 -0.6922  1.0347  0.4273
 6958SOL    HW222882   7.979   2.284   1.294 -0.4170  0.1232  0.3579
 6959SOL     OW22883   6.733   9.528  10.100 -0.0192  0.1065  0.2357
 6959SOL    HW122884   6.813   9.534  10.152 -0.0930 -0.6602  0.4487
 6959SOL    HW222885   6.684   9.607  10.122  0.4555  0.3414  0.4697
 6960SOL     OW22886   6.166   5.145   3.102 -0.4729 -0.0224 -0.1655
 6960SOL    HW122887   6.139   5.053   3.113  2.7304 -1.1209 -0.5278
 6960SOL    HW222888   6.201   5.170   3.188 -1.9539  1.1730  0.1407
 6961SOL     OW22889   9.218   5.687   5.239  0.2655 -0.1304 -0.4423
 6961SOL    HW122890   9.160   5.762   5.237 -0.1023 -0.3733  0.6534
 6961SOL    HW222891   9.264   5.690   5.154  0.1898  1.2535 -0.4562
 6962SOL     OW22892   1.306   3.816   7.867  0.4809 -0.1194 -0.3822
 6962SOL    HW122893   1.348   3.730   7.868 -0.1312 -0.4237 -0.2055
 6962SOL    HW222894   1.224   3.804   7.915 -0.0332  0.3379 -1.1131
 6963SOL     OW22895   8.777   3.367   9.691 -0.0805  0.0438  0.8591
 6963SOL    HW122896   8.835   3.440   9.711  1.2448 -0.6104 -0.3856
 6963SOL    HW222897   8.834   3.302   9.650 -1.6879 -0.6558 -0.3668
 6964SOL     OW22898   1.387   3.986   0.428 -0.0299 -0.3862  0.3394
 6964SOL    HW122899   1.299   3.963   0.455 -0.1589  0.5751  0.7868
 6964SOL    HW222900   1.383   3.990   0.333 -0.8571  1.0624  0.4048
 6965SOL     OW22901   2.822   2.141   6.876 -0.8246 -0.3689 -0.1116
 6965SOL    HW122902   2.792   2.156   6.786 -0.9593  3.2648  0.4206
 6965SOL    HW222903   2.910   2.177   6.879 -1.0539  0.1413  1.3556
 6966SOL     OW22904  10.702   8.833   8.500 -0.2052 -0.2719 -0.3181
 6966SOL    HW122905  10.728   8.845   8.409 -1.7718  0.8441 -0.6631
 6966SOL    HW222906  10.610   8.859   8.503 -0.0599  0.2449  1.6745
 6967SOL     OW22907  10.224   5.035   7.648 -0.3272 -0.2724  0.0682
 6967SOL    HW122908  10.169   5.103   7.687  0.2710 -0.0400  0.5262
 6967SOL    HW222909  10.185   5.019   7.562  0.3223  1.6661 -0.6541
 6968SOL     OW22910   6.593   2.849  10.297  0.1032 -0.3497 -0.9324
 6968SOL    HW122911   6.503   2.845  10.332  0.9830  1.9849  2.1085
 6968SOL    HW222912   6.582   2.882  10.208 -2.0975 -0.5406 -0.7977
 6969SOL     OW22913   7.225   5.248   5.137  0.2888 -0.0376  0.6944
 6969SOL    HW122914   7.299   5.233   5.195 -0.0044 -0.0973  1.0567
 6969SOL    HW222915   7.186   5.330   5.167  1.5030  1.1853 -0.8840
 6970SOL     OW22916   2.303   1.511   7.536  0.2749  0.1392 -0.5598
 6970SOL    HW122917   2.277   1.434   7.588  0.4714 -1.0426 -2.1387
 6970SOL    HW222918   2.396   1.497   7.519 -0.1284 -0.3730 -2.5800
 6971SOL     OW22919   4.532   7.420   2.212 -0.2466 -0.0405 -0.1936
 6971SOL    HW122920   4.613   7.410   2.262 -0.9174 -0.7412  0.7758
 6971SOL    HW222921   4.551   7.492   2.151  1.3697 -0.7223 -0.5462
 6972SOL     OW22922   0.410   3.884   3.279 -0.3961 -0.0657 -0.0976
 6972SOL    HW122923   0.321   3.913   3.256 -0.3179 -0.5178 -1.0100
 6972SOL    HW222924   0.432   3.819   3.213  1.1377  1.0084 -0.7082
 6973SOL     OW22925   2.453   1.760   3.245  0.1879  0.2331 -0.2694
 6973SOL    HW122926   2.377   1.819   3.249 -0.3505 -0.3626 -1.1924
 6973SOL    HW222927   2.480   1.764   3.153  1.1228  0.2331  0.0028
 6974SOL     OW22928   1.614  10.818   4.376  0.2365  0.1070  0.9727
 6974SOL    HW122929   1.567  10.736   4.362  1.1814 -0.2931 -0.0378
 6974SOL    HW222930   1.678  10.821   4.305  0.4770  1.5419  1.2213
 6975SOL     OW22931   6.343   6.752   7.606 -0.1611  0.4208 -0.1766
 6975SOL    HW122932   6.400   6.675   7.603 -0.6793 -0.0019  0.4020
 6975SOL    HW222933   6.380   6.813   7.543  1.8014  0.7523  1.2091
 6976SOL     OW22934   6.150   9.505   6.827 -0.4369 -0.1279 -1.4240
 6976SOL    HW122935   6.141   9.450   6.749 -1.0890 -0.5743 -1.0453
 6976SOL    HW222936   6.237   9.482   6.861 -1.3557 -2.3025 -0.2945
 6977SOL     OW22937   6.481   3.841   7.816  0.0991  0.3488 -0.1954
 6977SOL    HW122938   6.469   3.836   7.910  0.7059  0.4674 -0.1062
 6977SOL    HW222939   6.518   3.756   7.792 -1.6496 -0.3385 -0.5899
 6978SOL     OW22940   5.680   2.684   0.812 -0.5131  0.1801  0.1006
 6978SOL    HW122941   5.761   2.637   0.834  0.4331  1.0025 -1.4222
 6978SOL    HW222942   5.693   2.772   0.848 -0.1576  0.6859 -1.1889
 6979SOL     OW22943   1.290   3.719   3.885  0.6531 -0.2005 -0.4422
 6979SOL    HW122944   1.368   3.771   3.906  0.0392  0.5171  0.1159
 6979SOL    HW222945   1.263   3.681   3.968 -1.2953  1.9698  0.0162
 6980SOL     OW22946   7.051   0.648   9.703  0.4301  0.1123 -0.2383
 6980SOL    HW122947   7.048   0.722   9.764 -1.5813  0.5891 -0.8434
 6980SOL    HW222948   6.982   0.589   9.734 -0.4448  0.2450 -1.8581
 6981SOL     OW22949  10.113   7.954   0.031  0.0753 -0.1719 -0.0866
 6981SOL    HW122950  10.174   7.896  -0.015 -0.1366 -1.4565  1.1532
 6981SOL    HW222951  10.123   7.930   0.124 -0.5405  1.3169  0.3924
 6982SOL     OW22952   0.598   6.722   7.729  0.1366  0.2407 -0.1640
 6982SOL    HW122953   0.638   6.780   7.664 -0.1762  1.5033  0.7298
 6982SOL    HW222954   0.663   6.715   7.799  0.4006 -0.9666 -0.5098
 6983SOL     OW22955   8.174   4.761   0.642  0.4089 -0.3111 -0.0395
 6983SOL    HW122956   8.158   4.703   0.568 -1.1359 -1.5448  1.1726
 6983SOL    HW222957   8.264   4.742   0.669  1.5989  1.3250 -2.4896
 6984SOL     OW22958   1.769   4.270   3.603 -0.2335  0.4783 -0.0152
 6984SOL    HW122959   1.705   4.338   3.624 -0.4965 -0.2251  1.5726
 6984SOL    HW222960   1.769   4.212   3.679  1.6076 -0.0666 -0.3756
 6985SOL     OW22961   1.985   7.058   8.271  0.5672  0.1316  0.0990
 6985SOL    HW122962   1.989   7.154   8.278 -0.0803  0.2113 -0.4409
 6985SOL    HW222963   1.935   7.043   8.190  1.3235 -0.6672 -0.2262
 6986SOL     OW22964  10.030   8.629   1.362  0.1096 -0.1842 -0.4487
 6986SOL    HW122965  10.045   8.723   1.352  1.0841 -0.4097 -1.3520
 6986SOL    HW222966   9.939   8.617   1.335 -0.0774  0.5158 -0.1657
 6987SOL     OW22967  10.832   6.711   4.184 -0.1267  0.2206 -0.0459
 6987SOL    HW122968  10.754   6.671   4.147 -0.2289  0.2094  0.1806
 6987SOL    HW222969  10.800   6.761   4.259 -0.0156  0.8216 -0.3950
 6988SOL     OW22970   7.964   5.234   9.680 -0.6514  0.1237 -0.0595
 6988SOL    HW122971   7.907   5.289   9.626 -0.8797  0.1739  0.2313
 6988SOL    HW222972   8.047   5.282   9.684 -1.0479  0.7586  0.7141
 6989SOL     OW22973   0.582   5.120   5.411 -0.8831  0.2707  0.2813
 6989SOL    HW122974   0.652   5.080   5.463 -1.1862  0.1812  0.6250
 6989SOL    HW222975   0.502   5.080   5.444 -1.0048 -0.5074 -0.9209
 6990SOL     OW22976   8.093   1.675   9.463  0.2203  0.2176 -0.4364
 6990SOL    HW122977   8.085   1.683   9.368 -0.5797 -0.3384 -0.4290
 6990SOL    HW222978   8.180   1.636   9.476 -0.1593 -0.8777 -1.0281
 6991SOL     OW22979   9.776   8.261   0.840  0.2486 -0.1942  0.7304
 6991SOL    HW122980   9.709   8.193   0.837  2.0477 -2.1104  1.7383
 6991SOL    HW222981   9.825   8.243   0.920  2.4080  0.7329 -0.3057
 6992SOL     OW22982   8.950   7.852   1.189  0.2123 -0.8639  0.0317
 6992SOL    HW122983   8.991   7.787   1.133  1.5870  0.8936 -1.1033
 6992SOL    HW222984   9.008   7.928   1.184 -1.3409  0.4718  1.2676
 6993SOL     OW22985  10.687   1.060   5.132 -0.8403  0.4886 -0.5608
 6993SOL    HW122986  10.645   1.073   5.047  1.5005  1.9805 -1.5657
 6993SOL    HW222987  10.749   1.132   5.140 -1.8891  1.1752  3.0376
 6994SOL     OW22988   3.212   9.709   2.838  0.2692 -0.2262  0.6430
 6994SOL    HW122989   3.291   9.671   2.799 -0.2632 -0.2675 -0.4324
 6994SOL    HW222990   3.239   9.797   2.866  0.7170 -0.2510  0.3045
 6995SOL     OW22991   2.909   5.665   0.436  0.0948 -0.5186  0.0436
 6995SOL    HW122992   2.885   5.658   0.528  1.0494  1.3789  0.4944
 6995SOL    HW222993   2.826   5.681   0.390 -0.3278 -1.0579  0.6098
 6996SOL     OW22994   3.956   4.255   0.634  0.9218  0.0644 -0.1348
 6996SOL    HW122995   3.890   4.207   0.684 -0.1832  0.7022 -0.9344
 6996SOL    HW222996   3.920   4.259   0.545  0.8164  2.5823 -0.0558
 6997SOL     OW22997   6.607   3.962   6.472  0.3640 -0.0483 -0.4714
 6997SOL    HW122998   6.687   3.924   6.437  1.9638 -0.2925  3.0032
 6997SOL    HW222999   6.571   3.894   6.529 -0.4287  1.2677  0.6659
 6998SOL     OW23000   2.649   2.062   9.320 -0.5702  0.7335  0.6418
 6998SOL    HW123001   2.582   2.016   9.370  1.3593 -2.5105  0.4840
 6998SOL    HW223002   2.684   2.127   9.381 -1.2487 -0.1521  2.0101
 6999SOL     OW23003   2.764   6.505   6.562  0.0645 -0.1672 -0.0099
 6999SOL    HW123004   2.776   6.421   6.517 -0.2640 -0.1398 -0.1506
 6999SOL    HW223005   2.823   6.565   6.517  0.9289 -0.5048  0.6170
 7000SOL     OW23006  10.837  10.549   2.945 -0.1109 -0.3472  0.2846
 7000SOL    HW123007  10.838  10.576   2.853  0.7290 -0.5478  0.2198
 7000SOL    HW223008  10.875  10.623   2.992  1.6616 -1.1115  0.1738
 7001SOL     OW23009   4.892   5.227   7.829  0.3612 -0.3407 -0.6922
 7001SOL    HW123010   4.882   5.297   7.764 -0.8719  1.5603  1.4211
 7001SOL    HW223011   4.915   5.273   7.910  0.4466 -2.4875  0.5646
 7002SOL     OW23012   5.631   3.886   3.574  0.5193  0.4620 -0.0430
 7002SOL    HW123013   5.664   3.975   3.563 -0.9346  0.7299 -3.1254
 7002SOL    HW223014   5.643   3.844   3.489  0.8512 -2.2337  1.2247
 7003SOL     OW23015   3.539   1.832  10.107  0.0184  0.0193  0.1894
 7003SOL    HW123016   3.526   1.750  10.060 -0.2842  0.2290 -0.0958
 7003SOL    HW223017   3.458   1.881  10.094 -0.3234 -0.1685  1.4328
 7004SOL     OW23018   3.823   5.785   1.346 -0.3595  0.5451 -0.6321
 7004SOL    HW123019   3.904   5.750   1.382 -1.4897 -1.4878  0.1038
 7004SOL    HW223020   3.851   5.853   1.285  1.9553 -0.9606 -1.3717
 7005SOL     OW23021   8.836  10.594   6.427 -0.5306 -0.3723 -0.0298
 7005SOL    HW123022   8.757  10.544   6.449 -0.7547 -0.3650 -0.7913
 7005SOL    HW223023   8.827  10.614   6.334 -0.3848  0.9714  0.2161
 7006SOL     OW23024   0.625   8.120  10.088  0.0452  0.1276 -0.1652
 7006SOL    HW123025   0.577   8.114  10.006  1.4900 -0.0115 -1.0277
 7006SOL    HW223026   0.573   8.067  10.149 -1.8855  1.4979 -0.5210
 7007SOL     OW23027   4.752   3.293   3.271  0.3226 -0.2507 -0.3525
 7007SOL    HW123028   4.689   3.241   3.222 -0.9835  0.1874  0.8050
 7007SOL    HW223029   4.700   3.357   3.319  1.6587  0.3070  0.4359
 7008SOL     OW23030   5.574   8.133   4.065 -0.2558 -0.1951  0.1662
 7008SOL    HW123031   5.487   8.104   4.039 -0.1398 -2.7378  2.2317
 7008SOL    HW223032   5.580   8.223   4.034 -2.9123 -0.5216 -1.5851
 7009SOL     OW23033   6.588   1.118  10.931  0.0613 -0.3866 -0.2260
 7009SOL    HW123034   6.673   1.102  10.972 -0.7294 -0.3126  1.5129
 7009SOL    HW223035   6.601   1.197  10.880  1.6901 -1.7226 -2.0544
 7010SOL     OW23036   2.855   9.437   0.997  0.2838  0.7091  0.6875
 7010SOL    HW123037   2.871   9.438   1.092 -1.0428 -1.7219  1.0110
 7010SOL    HW223038   2.936   9.402   0.960 -0.2204 -1.2487  1.2848
 7011SOL     OW23039   8.247   5.251   6.508 -0.4747 -0.2295 -0.5586
 7011SOL    HW123040   8.240   5.229   6.601  0.2776  3.6921  0.6237
 7011SOL    HW223041   8.171   5.308   6.491  0.4996  0.7990 -1.7048
 7012SOL     OW23042   0.580   2.256   2.030  0.4065  0.1688  0.1493
 7012SOL    HW123043   0.535   2.190   2.082  2.8110 -1.9335 -0.2661
 7012SOL    HW223044   0.524   2.270   1.954  0.0636 -1.7820  0.0098
 7013SOL     OW23045   9.992   1.135   3.168  0.3702  0.2683 -0.2071
 7013SOL    HW123046   9.978   1.213   3.222  1.7952  2.0486 -2.2461
 7013SOL    HW223047  10.058   1.085   3.216  0.7393  1.2113  0.3044
 7014SOL     OW23048  10.202  11.000   1.215  0.3562  0.4002 -0.0457
 7014SOL    HW123049  10.143  11.075   1.219  0.4156  0.4095  1.6433
 7014SOL    HW223050  10.278  11.032   1.166  0.2489  1.3690  0.3861
 7015SOL     OW23051   9.117   0.204   7.393 -0.1211  0.0801 -0.0230
 7015SOL    HW123052   9.104   0.216   7.299  1.6366  0.8248 -0.2009
 7015SOL    HW223053   9.029   0.212   7.431 -0.7236  0.7148 -1.4972
 7016SOL     OW23054   3.151   8.479   8.848 -0.0030 -0.4697  0.0825
 7016SOL    HW123055   3.149   8.509   8.939  0.3667 -0.9667  0.2557
 7016SOL    HW223056   3.228   8.521   8.810  0.2132 -0.7738  0.1802
 7017SOL     OW23057   6.933   6.428   9.138  0.7669 -0.0442  0.0840
 7017SOL    HW123058   7.022   6.464   9.146 -0.0711  2.1786  0.0109
 7017SOL    HW223059   6.878   6.504   9.123 -1.2131 -1.3641  0.3590
 7018SOL     OW23060   0.683   7.315   1.271  0.3036 -0.6995  0.3238
 7018SOL    HW123061   0.603   7.362   1.293  0.1531 -0.4096 -0.7558
 7018SOL    HW223062   0.665   7.278   1.184  1.8735  0.6937 -0.6560
 7019SOL     OW23063   0.920   6.050   7.690  0.6952  0.0308 -0.1202
 7019SOL    HW123064   0.837   6.004   7.700 -0.7313  2.2657 -0.9135
 7019SOL    HW223065   0.976   6.014   7.760 -1.3087 -0.7020  1.2011
 7020SOL     OW23066   9.439   9.957   4.642 -0.5022 -0.0754 -0.1533
 7020SOL    HW123067   9.424   9.880   4.697 -1.3133 -2.3510 -3.2757
 7020SOL    HW223068   9.523   9.992   4.673 -0.2834 -1.9796  1.6276
 7021SOL     OW23069   1.420   5.648   2.976  0.2158 -0.0194  0.2684
 7021SOL    HW123070   1.432   5.739   2.948  1.7705 -0.3291 -0.1535
 7021SOL    HW223071   1.364   5.610   2.909  1.9622 -0.1171 -1.2262
 7022SOL     OW23072   6.619   6.197   6.197 -0.2186  0.3982  0.7790
 7022SOL    HW123073   6.578   6.141   6.131 -2.0437 -0.0467  2.1799
 7022SOL    HW223074   6.711   6.171   6.197 -0.4087 -0.4137 -0.7328
 7023SOL     OW23075   3.379   4.619   3.449 -0.2638  0.2151  0.0771
 7023SOL    HW123076   3.292   4.629   3.488 -0.1116  1.6987  0.0984
 7023SOL    HW223077   3.413   4.537   3.486 -0.3692  1.2241  2.6240
 7024SOL     OW23078   6.310   8.837   0.517 -0.3519 -0.2606  0.4124
 7024SOL    HW123079   6.243   8.905   0.520 -0.3596 -0.2865  1.0840
 7024SOL    HW223080   6.322   8.818   0.424  0.4995  1.5073  0.1211
 7025SOL     OW23081   9.642   3.563   6.807 -0.2122  0.5321 -0.0793
 7025SOL    HW123082   9.700   3.564   6.883  0.7542 -0.4052 -0.7627
 7025SOL    HW223083   9.563   3.519   6.837  0.1369  0.2184  0.3976
 7026SOL     OW23084   2.747   5.028   2.061 -0.2614  0.5522 -0.4583
 7026SOL    HW123085   2.756   5.103   2.002  0.7153  0.1123 -0.9173
 7026SOL    HW223086   2.698   4.963   2.010 -2.9143  1.5644  0.6651
 7027SOL     OW23087   8.550   2.867   9.399 -0.0229  0.1403 -0.0080
 7027SOL    HW123088   8.547   2.962   9.412 -1.2795  0.0485  0.5580
 7027SOL    HW223089   8.471   2.835   9.443  1.2774 -1.3575  1.3438
 7028SOL     OW23090   3.104   0.442   1.976 -0.3650 -0.5296  0.5340
 7028SOL    HW123091   3.063   0.424   1.892 -0.5457  0.8711  0.2955
 7028SOL    HW223092   3.085   0.534   1.993  3.2422  0.4606  0.0651
 7029SOL     OW23093   4.565   3.539   1.704  0.4387 -0.3421 -0.4518
 7029SOL    HW123094   4.517   3.537   1.787 -0.0340 -0.4248 -0.7228
 7029SOL    HW223095   4.528   3.615   1.658  2.3016  1.1392  0.3571
 7030SOL     OW23096   9.641   9.199   7.169 -0.5233 -0.5743 -0.0606
 7030SOL    HW123097   9.616   9.223   7.259 -0.6822 -1.0334  0.0222
 7030SOL    HW223098   9.557   9.184   7.125 -0.4851  0.7924 -0.6126
 7031SOL     OW23099   8.265   3.074  10.912  0.1885 -0.6879  0.3574
 7031SOL    HW123100   8.188   3.076  10.856  1.3423  0.9244 -1.2852
 7031SOL    HW223101   8.339   3.087  10.852  1.6370 -0.6764  2.0474
 7032SOL     OW23102   8.347   5.554   4.133  0.1850 -0.0553  0.0445
 7032SOL    HW123103   8.427   5.507   4.110  0.7665  0.3821  1.0907
 7032SOL    HW223104   8.315   5.509   4.212 -0.3438  0.0649 -0.0983
 7033SOL     OW23105   2.626  10.281   8.759 -0.6956  0.1062  0.5930
 7033SOL    HW123106   2.647  10.266   8.851 -0.8453 -1.4289  0.4125
 7033SOL    HW223107   2.531  10.289   8.757 -0.5425  3.4607  0.9454
 7034SOL     OW23108   2.322   8.349   0.179 -0.0561 -0.1879  0.0478
 7034SOL    HW123109   2.348   8.379   0.267  2.6378  0.3895 -0.8534
 7034SOL    HW223110   2.284   8.263   0.193  1.8673 -0.8557  1.6726
 7035SOL     OW23111   6.461   2.064   2.178  0.4154 -0.4175 -0.2713
 7035SOL    HW123112   6.522   2.106   2.117 -1.4876  0.7950 -1.4200
 7035SOL    HW223113   6.447   2.130   2.246  0.2567 -0.6254 -0.1009
 7036SOL     OW23114   1.142   6.018   1.494  0.2278 -0.5828 -0.0157
 7036SOL    HW123115   1.155   6.004   1.400  0.3904  0.0344 -0.0927
 7036SOL    HW223116   1.152   6.113   1.506 -1.8936 -0.3467  0.2976
 7037SOL     OW23117   3.188   2.338   9.915 -0.6864  0.1621 -0.2373
 7037SOL    HW123118   3.183   2.277   9.988 -0.2502 -2.0545 -1.9616
 7037SOL    HW223119   3.269   2.388   9.930 -0.7541 -0.0543  0.9051
 7038SOL     OW23120  10.643   8.191   0.658  0.0877 -0.1303 -0.0794
 7038SOL    HW123121  10.551   8.184   0.683 -0.5636  2.0034 -1.5923
 7038SOL    HW223122  10.677   8.263   0.711  0.7360 -0.5272  0.0560
 7039SOL     OW23123   8.331   2.166   5.966 -0.2563  0.6265  0.1846
 7039SOL    HW123124   8.298   2.231   6.028  1.1369  0.4560  1.1509
 7039SOL    HW223125   8.427   2.170   5.975 -0.1006 -0.8714 -0.4324
 7040SOL     OW23126   9.826   2.176   8.916  0.8552 -0.1214  0.2428
 7040SOL    HW123127   9.790   2.245   8.972 -0.7265  0.9784 -1.9641
 7040SOL    HW223128   9.749   2.129   8.884  1.7486 -1.0852 -0.5321
 7041SOL     OW23129  10.355   7.232   9.963  0.1392  0.7005  0.2975
 7041SOL    HW123130  10.343   7.318   9.921 -2.4529  0.4837  0.4602
 7041SOL    HW223131  10.293   7.231  10.035  0.7523 -1.0109  0.8538
 7042SOL     OW23132   1.449   7.185   4.477 -0.2313 -0.3467  0.2476
 7042SOL    HW123133   1.401   7.126   4.534 -0.9036 -2.2394 -2.1155
 7042SOL    HW223134   1.399   7.267   4.479 -0.2218 -0.3371  2.2803
 7043SOL     OW23135   5.450   2.318   2.022 -0.1406 -0.3964 -0.3053
 7043SOL    HW123136   5.496   2.241   2.054  0.0942 -0.8796 -1.7403
 7043SOL    HW223137   5.358   2.300   2.041 -0.1216 -1.1810 -0.8885
 7044SOL     OW23138   5.984   8.992   0.310 -0.4333 -0.4521 -0.2646
 7044SOL    HW123139   6.048   8.951   0.252  1.9327  0.9709  1.1694
 7044SOL    HW223140   5.976   9.082   0.278 -1.9144 -0.6530 -0.5315
 7045SOL     OW23141  10.968   0.890  10.710  0.4886  0.4039  0.0420
 7045SOL    HW123142  10.933   0.911  10.624  0.3049  0.8813  0.2284
 7045SOL    HW223143  11.041   0.951  10.722  0.8785 -0.0432 -0.0081
 7046SOL     OW23144   3.757   1.712   3.504  0.0596  0.1712  0.1198
 7046SOL    HW123145   3.736   1.747   3.417 -3.7896 -0.2169  0.6788
 7046SOL    HW223146   3.718   1.776   3.565 -0.1565 -1.1181  1.4004
 7047SOL     OW23147   1.348  10.386   1.906 -0.2324 -0.2772 -0.1643
 7047SOL    HW123148   1.436  10.352   1.923 -0.0435 -0.1153 -0.8010
 7047SOL    HW223149   1.296  10.309   1.884 -0.0779 -0.2913 -0.4840
 7048SOL     OW23150   1.753   5.092  10.586 -0.4374  0.3563 -0.0593
 7048SOL    HW123151   1.704   5.057  10.512 -1.0066  1.3348 -0.1597
 7048SOL    HW223152   1.736   5.186  10.584  0.0546  0.4784  0.9361
 7049SOL     OW23153   0.512   2.675   9.073  0.0121 -0.0449  0.1257
 7049SOL    HW123154   0.554   2.594   9.105  1.4615  0.3680 -0.6352
 7049SOL    HW223155   0.468   2.711   9.150  1.0656 -0.5181  0.9761
 7050SOL     OW23156  10.231   6.746   5.905 -0.0776  0.5700 -0.4694
 7050SOL    HW123157  10.270   6.681   5.964 -1.0432 -0.4900 -0.9417
 7050SOL    HW223158  10.300   6.809   5.889  0.3319  0.6885  1.4856
 7051SOL     OW23159   4.391   8.595   5.527  0.5116  0.0706 -0.4496
 7051SOL    HW123160   4.306   8.634   5.550  0.4963 -0.5472  0.6264
 7051SOL    HW223161   4.452   8.669   5.527 -0.1435  0.6646 -2.0531
 7052SOL     OW23162   1.729   0.294   2.050 -0.2585  0.7975  0.2832
 7052SOL    HW123163   1.727   0.247   2.133 -0.0203  0.1457 -0.0726
 7052SOL    HW223164   1.657   0.255   1.999 -0.6374  1.4415  0.3094
 7053SOL     OW23165  10.143  10.019   0.553 -0.1589  0.4245 -0.3474
 7053SOL    HW123166  10.068  10.051   0.603 -0.8446  0.5488 -1.4333
 7053SOL    HW223167  10.211  10.085   0.567 -0.5174  0.7219 -0.0015
 7054SOL     OW23168   1.898   8.383   5.278  0.4523  0.3201  0.0726
 7054SOL    HW123169   1.818   8.345   5.312 -0.2608  0.2170 -1.6036
 7054SOL    HW223170   1.898   8.359   5.185  0.5886  3.2707 -0.7935
 7055SOL     OW23171   7.869   2.488   9.836  0.7805 -0.0260  0.2555
 7055SOL    HW123172   7.843   2.440   9.915  1.1628 -2.0492 -0.8049
 7055SOL    HW223173   7.798   2.473   9.774  1.1454  0.3886 -0.2683
 7056SOL     OW23174   5.955   4.539   2.412  0.0863  0.0619  0.0369
 7056SOL    HW123175   6.015   4.611   2.432  0.3045 -0.4104  1.1596
 7056SOL    HW223176   5.869   4.571   2.438 -0.0682  0.4884 -0.9452
 7057SOL     OW23177   5.640   2.233   7.980 -0.2313 -0.7091 -0.4355
 7057SOL    HW123178   5.641   2.157   7.922  3.2123 -0.9424 -0.2826
 7057SOL    HW223179   5.656   2.197   8.068 -1.9446 -0.0480  0.1859
 7058SOL     OW23180   7.906   9.628   6.640  0.6142 -0.0883 -0.0276
 7058SOL    HW123181   7.853   9.708   6.649  0.5369 -0.0969 -0.3960
 7058SOL    HW223182   7.963   9.629   6.717  0.4580  0.2059  0.0893
 7059SOL     OW23183   0.626   8.660   6.201  0.0366  0.1391  0.7357
 7059SOL    HW123184   0.704   8.667   6.256  1.7800 -2.2654 -1.1357
 7059SOL    HW223185   0.661   8.640   6.114 -2.6590  1.0342 -0.6660
 7060SOL     OW23186   9.541   2.279   1.026  0.3544 -0.0211  0.0036
 7060SOL    HW123187   9.584   2.358   0.992 -0.4001  0.3133 -0.1731
 7060SOL    HW223188   9.504   2.237   0.949 -0.8523  0.4296  0.3282
 7061SOL     OW23189  10.072  10.638  10.527  0.2978 -0.2704 -0.0236
 7061SOL    HW123190  10.154  10.676  10.558 -0.3016 -0.4135  1.9174
 7061SOL    HW223191  10.057  10.563  10.585 -1.3372 -0.0724 -0.1248
 7062SOL     OW23192  10.738   3.606   9.124 -0.1105  0.5082  0.0141
 7062SOL    HW123193  10.809   3.622   9.188  0.1991  0.2792 -0.2689
 7062SOL    HW223194  10.779   3.554   9.056 -0.4632  0.6937 -0.3408
 7063SOL     OW23195   1.263   4.875   9.301 -0.0795 -0.2119 -0.1145
 7063SOL    HW123196   1.243   4.889   9.393 -0.0345  0.0891 -0.1490
 7063SOL    HW223197   1.260   4.780   9.289 -1.3972 -0.1830 -0.1065
 7064SOL     OW23198   6.462   0.994   6.679 -0.3924  0.1389 -0.8904
 7064SOL    HW123199   6.445   1.005   6.586  1.3783 -1.4732 -1.4662
 7064SOL    HW223200   6.419   0.912   6.702 -1.3597  0.8338 -0.0914
 7065SOL     OW23201   0.829   9.528   5.533  0.7846  0.0684  0.3653
 7065SOL    HW123202   0.898   9.586   5.563  1.1867  0.5137 -1.3075
 7065SOL    HW223203   0.874   9.461   5.481  0.0754 -0.3257  0.2379
 7066SOL     OW23204   9.144   6.373   2.008  0.3429  0.3248  0.0109
 7066SOL    HW123205   9.107   6.461   1.997  0.2039  0.1780 -0.8211
 7066SOL    HW223206   9.232   6.379   1.971  1.0794  0.6022  1.7393
 7067SOL     OW23207   9.804  10.208   6.873 -0.0782  0.1036  0.1441
 7067SOL    HW123208   9.780  10.274   6.938  0.4379  0.4057  0.0382
 7067SOL    HW223209   9.779  10.125   6.912 -1.9078  0.4392 -0.2527
 7068SOL     OW23210   7.835   8.414   4.513  0.4676 -0.5519 -0.0308
 7068SOL    HW123211   7.880   8.498   4.503 -0.7902  0.0850 -0.6151
 7068SOL    HW223212   7.824   8.382   4.423 -1.5444  0.0513 -0.0499
 7069SOL     OW23213   7.089  10.822  10.403  0.5091  0.1103  0.0093
 7069SOL    HW123214   7.029  10.778  10.464 -0.7454  2.3965  0.5309
 7069SOL    HW223215   7.162  10.762  10.394 -0.9989 -1.9727  0.8238
 7070SOL     OW23216  10.170   4.290   8.972 -0.2170  0.0421  0.1996
 7070SOL    HW123217  10.212   4.246   8.898  0.4331  1.3370 -0.2395
 7070SOL    HW223218  10.083   4.314   8.940 -0.5708 -0.8897  0.4404
 7071SOL     OW23219   9.202   1.015   0.416 -0.0714 -0.0471  0.7112
 7071SOL    HW123220   9.221   0.978   0.330 -0.6290 -0.3322  0.7057
 7071SOL    HW223221   9.119   0.974   0.442  0.6819 -0.8551  1.9107
 7072SOL     OW23222   2.592   4.641   0.215 -0.2930  0.3485  0.1447
 7072SOL    HW123223   2.498   4.655   0.215 -0.2867  0.4544  1.3533
 7072SOL    HW223224   2.624   4.689   0.291  0.4918 -1.2667  0.8818
 7073SOL     OW23225   0.639   2.832   7.272 -0.0053 -0.5418 -0.0883
 7073SOL    HW123226   0.600   2.763   7.325  1.7730 -1.8331 -0.3604
 7073SOL    HW223227   0.637   2.797   7.182  2.1432 -0.9156 -0.0556
 7074SOL     OW23228   3.918  10.142   8.353 -0.6624  0.2125  0.3876
 7074SOL    HW123229   3.855  10.191   8.301  1.6256  1.0920 -1.7143
 7074SOL    HW223230   3.933  10.062   8.303 -1.0926 -0.6554  1.5911
 7075SOL     OW23231   3.222   5.255   6.433  0.3608 -0.5245 -0.1726
 7075SOL    HW123232   3.299   5.311   6.447 -0.2383  0.0997  0.7128
 7075SOL    HW223233   3.241   5.176   6.484  0.4310 -0.3914  0.0090
 7076SOL     OW23234   9.524   4.346  10.303 -0.0117  0.1567  0.4398
 7076SOL    HW123235   9.608   4.325  10.262  0.1073 -0.0324  0.7717
 7076SOL    HW223236   9.521   4.290  10.381 -1.4617 -1.5580 -0.7517
 7077SOL     OW23237   9.661   1.807   4.514 -0.6845  0.1160  0.3904
 7077SOL    HW123238   9.708   1.882   4.476  0.7442 -0.3993  1.0592
 7077SOL    HW223239   9.637   1.754   4.438  0.2943  0.1369  0.0379
 7078SOL     OW23240   4.562   3.112   5.770  0.0857  0.2889  0.3041
 7078SOL    HW123241   4.595   3.022   5.773 -1.7185 -0.5319 -1.6179
 7078SOL    HW223242   4.467   3.102   5.771 -0.1470  2.1553 -0.1440
 7079SOL     OW23243  10.383   6.447   0.423 -0.2010  0.3162 -0.4346
 7079SOL    HW123244  10.348   6.373   0.373  0.5025 -0.5322  0.3084
 7079SOL    HW223245  10.309   6.478   0.475  0.0762 -1.4787  1.1469
 7080SOL     OW23246   9.603   8.162   1.742  0.5759  0.0837 -0.1845
 7080SOL    HW123247   9.520   8.115   1.737  1.3237 -1.2075 -0.8920
 7080SOL    HW223248   9.591   8.238   1.686 -0.8237  1.0827  1.3677
 7081SOL     OW23249  10.066  10.601   9.886  0.4681 -0.0778 -0.3307
 7081SOL    HW123250  10.058  10.694   9.866 -1.0166 -0.2863 -0.8393
 7081SOL    HW223251  10.118  10.598   9.967  0.1121  1.2078 -0.0325
 7082SOL     OW23252  10.453   6.000   2.061 -0.1289  0.0381 -0.4291
 7082SOL    HW123253  10.490   5.936   2.000  0.1650 -0.8610  0.6385
 7082SOL    HW223254  10.385   5.951   2.108 -1.2314  1.0729 -0.8995
 7083SOL     OW23255  11.030   7.152   5.720  0.7831  0.3328  0.0459
 7083SOL    HW123256  10.954   7.203   5.746  0.5672  0.9232 -1.5794
 7083SOL    HW223257  11.026   7.073   5.773 -1.4340 -0.0274 -0.5617
 7084SOL     OW23258   7.560   1.570   5.371  0.4303  0.3416  0.0591
 7084SOL    HW123259   7.469   1.567   5.341  0.0650 -1.2565  1.2311
 7084SOL    HW223260   7.602   1.495   5.329  1.0418  0.6446  0.1107
 7085SOL     OW23261   5.028   3.414   6.766 -0.6861 -0.2591  0.1646
 7085SOL    HW123262   5.006   3.328   6.732  2.2591 -0.4066 -1.7827
 7085SOL    HW223263   4.993   3.475   6.701 -0.2473 -0.2030 -0.0291
 7086SOL     OW23264   4.438  10.272   5.607  0.1884 -0.6189  0.1233
 7086SOL    HW123265   4.352  10.249   5.571  0.5041 -0.4517 -0.7760
 7086SOL    HW223266   4.422  10.286   5.700 -0.6013 -1.3778  0.1166
 7087SOL     OW23267   6.221   6.488   2.547  0.6854  0.3848  0.2932
 7087SOL    HW123268   6.295   6.545   2.566 -0.1071  2.1257 -1.5117
 7087SOL    HW223269   6.255   6.424   2.485  1.1163 -0.0409  0.9443
 7088SOL     OW23270   3.965   3.959   8.917 -0.2645 -0.2790  0.6993
 7088SOL    HW123271   3.916   3.877   8.904 -0.2839 -0.0450 -0.9302
 7088SOL    HW223272   4.028   3.961   8.844 -0.0989  1.0321  0.8512
 7089SOL     OW23273   4.717   2.390   5.859  0.0968  0.0577  0.3171
 7089SOL    HW123274   4.784   2.449   5.893  2.1790 -2.4637  0.8951
 7089SOL    HW223275   4.643   2.400   5.919  0.7490  1.3575  0.9372
 7090SOL     OW23276   7.630  10.640   2.817  0.4574  0.3454  0.6024
 7090SOL    HW123277   7.627  10.681   2.730  1.4022 -0.1491  0.3190
 7090SOL    HW223278   7.539  10.625   2.840  0.1809  0.8848 -0.1140
 7091SOL     OW23279   3.827   0.807   0.127  0.6160  0.1588  0.1132
 7091SOL    HW123280   3.805   0.795   0.219  0.8207 -0.0947  0.1316
 7091SOL    HW223281   3.916   0.773   0.119 -0.0685 -1.5891 -0.5585
 7092SOL     OW23282   3.734   4.673   3.125  0.6105  0.1291  0.1339
 7092SOL    HW123283   3.654   4.716   3.094  0.4381 -0.8570 -0.8541
 7092SOL    HW223284   3.765   4.728   3.197 -0.6315  0.8474  0.1390
 7093SOL     OW23285   3.657   8.805   9.013 -0.3802  0.4710  0.9163
 7093SOL    HW123286   3.637   8.897   8.994  0.3542  0.4232 -0.2070
 7093SOL    HW223287   3.658   8.763   8.927  0.8893 -0.2523  1.2649
 7094SOL     OW23288   4.630   6.332   3.766 -0.0354  0.5923 -0.2945
 7094SOL    HW123289   4.538   6.306   3.772  0.5361 -1.5488  0.0692
 7094SOL    HW223290   4.647   6.379   3.847 -0.2304 -1.1153  0.7767
 7095SOL     OW23291   9.894   3.183   3.765 -0.2634 -0.2102 -0.3650
 7095SOL    HW123292   9.893   3.089   3.746  1.9514 -0.0971 -1.4228
 7095SOL    HW223293   9.873   3.224   3.681 -1.1391  0.2751  0.0743
 7096SOL     OW23294   4.539   6.941   4.298  0.0395  0.0874 -0.5140
 7096SOL    HW123295   4.580   6.947   4.211  0.5253  0.6532 -0.2608
 7096SOL    HW223296   4.610   6.965   4.358 -0.7384  1.3940 -0.0825
 7097SOL     OW23297   4.397   2.457   5.023  0.2896 -0.0103 -0.1391
 7097SOL    HW123298   4.470   2.510   5.054  1.0672 -0.3567 -1.3106
 7097SOL    HW223299   4.425   2.367   5.035 -0.7424 -0.1812  1.1900
 7098SOL     OW23300   2.665   0.045  10.468 -0.2762 -0.1963  0.0837
 7098SOL    HW123301   2.757   0.070  10.477  0.3944 -2.9243  2.4373
 7098SOL    HW223302   2.668  -0.043  10.430 -1.8695 -0.4957  0.5728
 7099SOL     OW23303   3.781   9.700   8.102  0.1574  0.0944  0.6743
 7099SOL    HW123304   3.760   9.772   8.043  0.7476 -2.5554 -3.1165
 7099SOL    HW223305   3.875   9.707   8.116  0.0902  0.4647  0.9591
 7100SOL     OW23306   0.347   5.487   1.899 -0.7844  0.0016 -0.0565
 7100SOL    HW123307   0.259   5.458   1.878 -1.1568  0.6644  0.5508
 7100SOL    HW223308   0.374   5.433   1.974 -0.4564 -0.5823 -0.5926
 7101SOL     OW23309   7.339  10.455   5.758 -0.0631 -0.4683  0.4868
 7101SOL    HW123310   7.279  10.400   5.708  0.2484 -1.4934  1.2017
 7101SOL    HW223311   7.313  10.443   5.849  0.5152 -0.0509  0.7164
 7102SOL     OW23312  10.514   5.170  10.825 -0.2206  0.9657 -0.1335
 7102SOL    HW123313  10.452   5.210  10.764  0.5980 -0.6042 -2.1235
 7102SOL    HW223314  10.459   5.120  10.886 -1.1272  3.4883  1.2566
 7103SOL     OW23315   3.122   6.293   6.903 -0.1731  0.3016 -0.4735
 7103SOL    HW123316   3.215   6.316   6.901  0.3087 -1.5437 -1.7407
 7103SOL    HW223317   3.085   6.349   6.971  1.7499  1.4629 -0.3086
 7104SOL     OW23318   0.765   6.096   4.203  0.7842 -0.1630 -0.0919
 7104SOL    HW123319   0.765   6.020   4.260 -3.5208 -0.7360 -0.5516
 7104SOL    HW223320   0.722   6.165   4.255  0.3940  0.5204 -1.2876
 7105SOL     OW23321   4.788   6.038   7.854  0.0865  0.1372 -0.0821
 7105SOL    HW123322   4.823   6.055   7.941  0.5607  1.3832 -0.5032
 7105SOL    HW223323   4.765   6.124   7.820 -2.9806 -0.5637 -0.0242
 7106SOL     OW23324   3.456   6.078   5.905  0.0982 -0.0645 -0.2646
 7106SOL    HW123325   3.390   6.022   5.945 -0.2081 -1.8649 -2.9709
 7106SOL    HW223326   3.532   6.021   5.893  0.5624  0.6971 -1.1373
 7107SOL     OW23327   7.149  10.273   7.987  0.4725  0.2677  0.0862
 7107SOL    HW123328   7.100  10.354   7.974 -0.2338  0.0808  1.4184
 7107SOL    HW223329   7.110  10.212   7.924  0.4014  0.6915 -0.2908
 7108SOL     OW23330   4.097   8.817   6.326  0.6925 -0.3587  0.1103
 7108SOL    HW123331   4.158   8.841   6.396  1.7902 -0.0409 -0.9102
 7108SOL    HW223332   4.030   8.764   6.370  1.6292 -0.6183  1.3085
 7109SOL     OW23333   7.106   2.515   3.074  0.2945  0.2407 -0.4660
 7109SOL    HW123334   7.153   2.569   3.138  0.6787  0.6322 -1.0635
 7109SOL    HW223335   7.175   2.480   3.018 -0.0210 -0.2777 -0.5361
 7110SOL     OW23336   1.511   6.910   0.284  0.5043  0.3477 -0.3824
 7110SOL    HW123337   1.565   6.850   0.232 -0.3978 -0.3065 -0.5850
 7110SOL    HW223338   1.456   6.955   0.219  0.6093  0.8053 -0.1558
 7111SOL     OW23339   4.862   7.105   6.834 -0.1613 -0.5356 -0.6651
 7111SOL    HW123340   4.817   7.023   6.852  0.4768 -0.6019  0.7079
 7111SOL    HW223341   4.940   7.103   6.889 -0.9454  1.6737  0.6525
 7112SOL     OW23342   4.422   5.966   8.926  0.2112 -0.7773 -0.1759
 7112SOL    HW123343   4.400   6.047   8.973 -1.5020 -1.2826 -0.0321
 7112SOL    HW223344   4.350   5.906   8.947  2.3160 -2.9992  1.1839
 7113SOL     OW23345   4.570   5.702   3.293  0.0815  0.1280 -0.3073
 7113SOL    HW123346   4.590   5.728   3.383  2.0587 -0.1072 -0.6442
 7113SOL    HW223347   4.484   5.741   3.276  0.7189  2.1941  0.8779
 7114SOL     OW23348   6.537   7.569   0.567 -0.3624  0.0320 -0.1145
 7114SOL    HW123349   6.580   7.509   0.506  1.8260  2.2745 -0.9034
 7114SOL    HW223350   6.476   7.619   0.512 -2.2510 -1.4046  0.5584
 7115SOL     OW23351   5.337  10.453   9.987  0.6369 -0.4049  0.0628
 7115SOL    HW123352   5.275  10.386  10.017  1.4994 -1.1313  0.2445
 7115SOL    HW223353   5.284  10.533   9.982 -0.6154 -1.2504 -0.9744
 7116SOL     OW23354   8.120   6.204   8.728 -0.4353  0.0961 -0.1623
 7116SOL    HW123355   8.090   6.295   8.730  1.5261  0.7951 -0.5630
 7116SOL    HW223356   8.168   6.193   8.811  0.2546 -0.2196 -0.5956
 7117SOL     OW23357   6.008   4.104  10.950  0.1034 -0.1092 -0.5339
 7117SOL    HW123358   6.005   4.032  11.013 -1.5539  0.2514 -0.1445
 7117SOL    HW223359   6.025   4.181  11.003  2.0940 -0.1881 -0.9759
 7118SOL     OW23360   8.641   7.650   6.702 -0.2707  0.0378 -0.7893
 7118SOL    HW123361   8.729   7.629   6.734 -0.5920  1.9704  1.7211
 7118SOL    HW223362   8.585   7.585   6.746 -0.4724  1.3744  1.0592
 7119SOL     OW23363   9.582   6.269   9.975 -0.1351  0.1930  0.9684
 7119SOL    HW123364   9.560   6.344   9.919  3.0959  0.6977  0.1524
 7119SOL    HW223365   9.591   6.306  10.062  1.2326  0.7744  0.6066
 7120SOL     OW23366   3.900   3.263   7.488  0.1122  0.7368  0.3001
 7120SOL    HW123367   3.941   3.345   7.462  0.3356  0.5596  0.1023
 7120SOL    HW223368   3.959   3.195   7.458 -1.2412  0.3750 -1.7351
 7121SOL     OW23369   8.621  10.752   2.730 -0.7608  0.2914  0.3929
 7121SOL    HW123370   8.540  10.704   2.712 -0.5560  0.1738 -0.2389
 7121SOL    HW223371   8.591  10.837   2.763 -1.1424  0.2430  0.1811
 7122SOL     OW23372   2.853   4.944   0.400 -0.1618 -0.0547 -0.8420
 7122SOL    HW123373   2.923   4.894   0.441  0.7530  1.8598  0.0581
 7122SOL    HW223374   2.873   4.940   0.306  0.7504 -0.1137 -0.6531
 7123SOL     OW23375   2.263   7.313   3.187 -0.4363 -0.0791  0.4078
 7123SOL    HW123376   2.314   7.363   3.251 -0.0654 -2.5799  2.2090
 7123SOL    HW223377   2.329   7.275   3.128 -0.7085  1.3452 -0.8841
 7124SOL     OW23378  10.958   3.966   1.476  0.1673  0.3544 -0.0828
 7124SOL    HW123379  10.944   3.891   1.418 -0.4366  0.6809 -0.3725
 7124SOL    HW223380  10.896   4.032   1.445  3.4288  2.5856 -2.4818
 7125SOL     OW23381  10.659   8.118   8.415  0.0069  1.1107  0.5898
 7125SOL    HW123382  10.701   8.039   8.449  1.6701  1.8842  0.4119
 7125SOL    HW223383  10.612   8.155   8.490  0.2968  0.6491  1.0019
 7126SOL     OW23384   0.341   3.540   7.498 -0.5673  0.9471 -0.2874
 7126SOL    HW123385   0.275   3.477   7.472  0.1331 -1.0488  2.3083
 7126SOL    HW223386   0.419   3.516   7.448 -0.9054  1.2156 -0.9504
 7127SOL     OW23387   5.134  10.433   0.324 -0.1683  0.1498 -0.0366
 7127SOL    HW123388   5.145  10.440   0.229 -0.8632  1.3174 -0.0583
 7127SOL    HW223389   5.074  10.505   0.346 -0.6618 -0.6079  1.1760
 7128SOL     OW23390   6.592   8.822   2.077 -0.5069 -0.2229  0.1974
 7128SOL    HW123391   6.605   8.916   2.087  1.2434 -0.5406  1.4046
 7128SOL    HW223392   6.672   8.783   2.113 -1.1472 -2.1740 -0.3661
 7129SOL     OW23393   9.080   7.118   2.916 -0.2595  0.2560  0.0336
 7129SOL    HW123394   9.174   7.128   2.901 -0.6178  1.7201 -1.6927
 7129SOL    HW223395   9.065   7.160   3.000  0.5468  0.6149  0.0115
 7130SOL     OW23396   2.825   6.151   9.738  0.0355  0.2169  0.2534
 7130SOL    HW123397   2.911   6.160   9.779  0.9427 -2.2925 -0.9142
 7130SOL    HW223398   2.840   6.173   9.646 -0.2305 -1.5443 -0.2382
 7131SOL     OW23399   6.033   3.646  10.826 -0.3672 -0.2222 -0.0984
 7131SOL    HW123400   6.095   3.635  10.899  0.1374 -2.3364 -0.7706
 7131SOL    HW223401   6.059   3.580  10.762 -1.6937  0.6233 -1.5855
 7132SOL     OW23402   2.126  10.039   9.171 -0.1381  0.3173 -0.1859
 7132SOL    HW123403   2.114  10.078   9.258 -0.0865 -2.1795  1.0003
 7132SOL    HW223404   2.053  10.075   9.120  0.2233  2.3784  0.6355
 7133SOL     OW23405   5.764  10.103   3.452 -0.0431  0.1802  0.4364
 7133SOL    HW123406   5.731  10.065   3.371  3.4577 -2.1625 -0.1310
 7133SOL    HW223407   5.775  10.029   3.511  1.6338  1.1511  1.4222
 7134SOL     OW23408  10.898   0.176   4.934  0.2392 -0.8495  0.1014
 7134SOL    HW123409  10.832   0.138   4.991 -0.6471  0.6065  0.0943
 7134SOL    HW223410  10.851   0.197   4.853  0.3513  1.4604  0.5790
 7135SOL     OW23411   1.595   6.459  10.558 -0.7417 -0.7714  0.0539
 7135SOL    HW123412   1.633   6.466  10.471 -0.0178  0.0312  0.4140
 7135SOL    HW223413   1.500   6.465  10.544 -0.6215 -0.5027 -0.6646
 7136SOL     OW23414   3.879   9.671   7.746 -0.1802 -0.5105 -0.0961
 7136SOL    HW123415   3.939   9.615   7.696 -0.2222 -0.8433  0.2232
 7136SOL    HW223416   3.937   9.733   7.791 -0.1439 -0.1870 -0.5796
 7137SOL     OW23417   2.128   1.712   9.341  0.5424 -0.1730 -0.3571
 7137SOL    HW123418   2.164   1.747   9.422 -0.3771  0.5168 -0.2395
 7137SOL    HW223419   2.197   1.727   9.276  1.1865 -0.5126  0.2271
 7138SOL     OW23420   1.543   7.576   6.786  0.0062  0.3640  0.1090
 7138SOL    HW123421   1.615   7.638   6.796  1.2246 -0.8962 -0.5111
 7138SOL    HW223422   1.577   7.508   6.728 -1.0010 -1.3106  1.3629
 7139SOL     OW23423   0.089   9.222   8.896 -0.2896  0.7291  0.0155
 7139SOL    HW123424   0.091   9.226   8.800 -0.3761  1.6297  0.0452
 7139SOL    HW223425   0.062   9.310   8.923  1.0300  0.8848  0.9108
 7140SOL     OW23426   2.373   7.016   3.932 -0.0053 -0.2301 -0.2615
 7140SOL    HW123427   2.314   6.980   3.998  0.9513  0.0324  0.7636
 7140SOL    HW223428   2.322   7.083   3.888 -0.3407  0.3142  0.9278
 7141SOL     OW23429   3.981   5.611   4.873  0.1193  0.2755 -0.1503
 7141SOL    HW123430   3.955   5.534   4.822 -0.6655  1.0852 -1.0279
 7141SOL    HW223431   4.065   5.638   4.835 -0.4441  0.8513 -1.0270
 7142SOL     OW23432   9.214   9.204   9.076 -0.4409  0.1128 -0.3346
 7142SOL    HW123433   9.211   9.291   9.116 -0.5075 -0.5704  1.1868
 7142SOL    HW223434   9.177   9.217   8.988 -0.6288  1.5737 -0.0606
 7143SOL     OW23435   7.661   2.345   9.043  0.8641 -0.1709  0.4195
 7143SOL    HW123436   7.724   2.340   9.115 -0.8631  1.2145  2.1072
 7143SOL    HW223437   7.676   2.431   9.004  1.8083 -0.9267 -0.9536
 7144SOL     OW23438   6.789   2.943   9.766 -0.1282 -0.2597  0.3776
 7144SOL    HW123439   6.827   2.999   9.699  0.3298  1.1419  1.7561
 7144SOL    HW223440   6.716   2.995   9.802 -1.0091 -1.3997  0.2859
 7145SOL     OW23441   7.643   3.341   3.135 -0.4315  0.1411  0.2817
 7145SOL    HW123442   7.592   3.275   3.182  1.5223 -0.7919  1.2490
 7145SOL    HW223443   7.712   3.366   3.197  2.1422 -0.9793 -1.8814
 7146SOL     OW23444   6.243   6.098   5.561 -0.2917 -0.5786  0.3079
 7146SOL    HW123445   6.192   6.173   5.593 -0.0622 -0.1618 -0.3014
 7146SOL    HW223446   6.178   6.041   5.519 -0.4064 -0.5328  0.4217
 7147SOL     OW23447  10.496   8.995   5.310 -0.0570  0.2567  0.2786
 7147SOL    HW123448  10.433   9.039   5.253 -0.0779  0.1760  0.2386
 7147SOL    HW223449  10.448   8.978   5.391  0.2175  1.1269  0.6351
 7148SOL     OW23450   0.403   7.230   3.647 -0.0066  0.1121 -0.5831
 7148SOL    HW123451   0.400   7.316   3.690  0.9756 -0.1394  0.0306
 7148SOL    HW223452   0.474   7.237   3.584  2.9198 -1.3896  2.2276
 7149SOL     OW23453   6.900   8.251   0.120 -0.2217 -0.2216 -0.0762
 7149SOL    HW123454   6.841   8.229   0.192  0.6221 -0.6095  0.5145
 7149SOL    HW223455   6.898   8.347   0.117  0.2408 -0.1677  0.9098
 7150SOL     OW23456   3.595   1.404   6.941 -0.4410 -0.0688  0.6039
 7150SOL    HW123457   3.552   1.323   6.915  1.0779 -0.6551 -0.1866
 7150SOL    HW223458   3.671   1.376   6.992  1.9945  0.6009 -2.3851
 7151SOL     OW23459  10.035   1.963   4.888  0.0011 -0.3836 -0.0217
 7151SOL    HW123460   9.988   1.929   4.964 -0.1893  2.7273  1.3862
 7151SOL    HW223461   9.970   1.962   4.817 -0.8773 -0.1908  0.7623
 7152SOL     OW23462   7.303   6.934   0.349 -0.0539  0.0816  0.3415
 7152SOL    HW123463   7.327   6.921   0.440  0.3375 -2.0316 -0.0076
 7152SOL    HW223464   7.381   6.972   0.309 -0.0292  0.4760  0.7583
 7153SOL     OW23465   2.778  10.574   3.596  0.0729  0.3645 -0.3761
 7153SOL    HW123466   2.690  10.578   3.632  0.0700 -0.9705 -0.1880
 7153SOL    HW223467   2.785  10.487   3.557  1.2737  0.4770 -0.4750
 7154SOL     OW23468   4.721   3.464  10.906  0.6318  0.3912 -0.3148
 7154SOL    HW123469   4.655   3.521  10.943 -1.7470 -2.1640 -0.3201
 7154SOL    HW223470   4.710   3.473  10.811  1.7218  1.4517 -0.3636
 7155SOL     OW23471   4.357   6.685   2.332 -0.7418  0.6379 -0.7021
 7155SOL    HW123472   4.412   6.753   2.293 -1.2762  0.9529 -0.9097
 7155SOL    HW223473   4.343   6.622   2.261 -0.7657  0.6310 -0.6911
 7156SOL     OW23474   2.254  10.297  10.175 -0.2011  0.3725  0.2181
 7156SOL    HW123475   2.183  10.236  10.157 -1.2720  1.0913  1.7517
 7156SOL    HW223476   2.322  10.275  10.111 -1.0271 -1.5936 -0.0617
 7157SOL     OW23477   9.301   6.531   5.562 -0.3988 -0.3309  0.1065
 7157SOL    HW123478   9.225   6.570   5.604 -1.0572 -1.2538 -0.1927
 7157SOL    HW223479   9.269   6.501   5.477  0.8482  1.2927 -0.9946
 7158SOL     OW23480   2.148   7.112   4.798 -0.0855 -0.3075 -0.0344
 7158SOL    HW123481   2.159   7.186   4.739 -0.8587  0.4345  0.7172
 7158SOL    HW223482   2.189   7.140   4.880 -1.2797 -0.2768  0.5763
 7159SOL     OW23483   3.649   6.459   9.866 -0.4223  0.0790  0.1177
 7159SOL    HW123484   3.721   6.494   9.814 -1.3837 -0.6253 -1.7983
 7159SOL    HW223485   3.573   6.508   9.837 -1.3991 -1.9519 -0.9923
 7160SOL     OW23486   4.468   8.295   4.657  0.0978 -0.0607 -1.1917
 7160SOL    HW123487   4.419   8.352   4.715 -0.1977 -2.0977  0.6925
 7160SOL    HW223488   4.528   8.354   4.610 -1.8049  2.0324 -1.1339
 7161SOL     OW23489   6.312   3.872   5.691  1.0416  0.1378 -0.6478
 7161SOL    HW123490   6.260   3.832   5.621 -0.7397 -1.5915  1.4893
 7161SOL    HW223491   6.332   3.960   5.659 -0.0697 -0.4158 -3.1022
 7162SOL     OW23492   1.940   1.173   6.424  0.0934  0.5649  0.6652
 7162SOL    HW123493   1.927   1.098   6.366  0.1460  1.8767 -1.1265
 7162SOL    HW223494   2.027   1.206   6.401  0.0433  1.2280  1.3756
 7163SOL     OW23495   3.974   7.473   6.366  0.3651  0.1924 -0.6949
 7163SOL    HW123496   3.891   7.504   6.330  0.0889  2.8148  1.8388
 7163SOL    HW223497   4.040   7.530   6.325  0.3992  0.9820  0.4199
 7164SOL     OW23498   0.366   7.487   3.809 -0.1797  0.1826  0.3482
 7164SOL    HW123499   0.422   7.467   3.884 -0.6625 -3.0429 -0.0085
 7164SOL    HW223500   0.278   7.495   3.847 -0.0694  1.1619  0.4140
 7165SOL     OW23501   4.420   7.629   1.922  0.4769 -0.4782 -0.0127
 7165SOL    HW123502   4.412   7.691   1.849 -1.3115 -0.5194  0.1092
 7165SOL    HW223503   4.512   7.602   1.920  1.3394  2.1880 -0.0375
 7166SOL     OW23504   1.902   1.949   2.836  0.2324 -0.6166  0.6176
 7166SOL    HW123505   1.984   1.984   2.871 -0.5967  0.7123  1.3316
 7166SOL    HW223506   1.919   1.938   2.742  0.8109  0.9989  0.4908
 7167SOL     OW23507   8.845   8.586   1.195  0.0172 -0.1036  0.1331
 7167SOL    HW123508   8.848   8.647   1.269 -2.5650  1.9947 -1.3279
 7167SOL    HW223509   8.862   8.640   1.118 -1.2260 -1.4160 -1.1291
 7168SOL     OW23510   5.927   0.089   4.755  0.5034  0.2568 -0.0949
 7168SOL    HW123511   5.914   0.009   4.805 -0.5157 -0.9223 -2.0974
 7168SOL    HW223512   5.839   0.115   4.727  0.9892  1.0961 -0.9193
 7169SOL     OW23513   5.137   2.454   2.711 -0.5188 -0.3538  0.2532
 7169SOL    HW123514   5.227   2.488   2.718 -0.0618 -1.4431 -0.1608
 7169SOL    HW223515   5.135   2.411   2.626 -2.3907  2.3578 -1.2215
 7170SOL     OW23516   1.683   5.517  10.388 -0.2617 -0.5797 -0.7112
 7170SOL    HW123517   1.764   5.566  10.381 -0.3213 -0.3775 -0.0626
 7170SOL    HW223518   1.640   5.529  10.303 -0.5544  0.9778 -0.3686
 7171SOL     OW23519   0.007   6.914   5.956 -0.7181  0.1836  0.5726
 7171SOL    HW123520  -0.083   6.948   5.955 -0.5504  0.6235 -0.5205
 7171SOL    HW223521  -0.002   6.824   5.926 -0.8244  0.1171  0.7958
 7172SOL     OW23522   3.183   1.514   8.920  0.0216 -0.1984  0.4622
 7172SOL    HW123523   3.242   1.532   8.848 -0.5034 -2.5047 -0.6441
 7172SOL    HW223524   3.095   1.527   8.883 -0.2827  2.2576  1.8128
 7173SOL     OW23525   2.610   8.942   7.682 -0.1304  0.2387 -0.4494
 7173SOL    HW123526   2.627   8.918   7.591 -0.0921  0.2296 -0.4398
 7173SOL    HW223527   2.697   8.954   7.720 -0.1097 -0.8678 -0.1072
 7174SOL     OW23528   0.883   0.403   0.981  0.3076  0.3231  0.3173
 7174SOL    HW123529   0.816   0.460   0.943 -0.7242 -0.5126  0.8291
 7174SOL    HW223530   0.963   0.423   0.932 -0.1734  1.7513  0.0756
 7175SOL     OW23531   5.675   0.495   8.314  0.3809  0.8055 -0.0321
 7175SOL    HW123532   5.714   0.582   8.312  3.5137 -0.4372  0.2887
 7175SOL    HW223533   5.688   0.461   8.225  1.4574 -0.1407  0.4464
 7176SOL     OW23534   7.732   3.063   5.599 -0.0715  0.0440  0.0320
 7176SOL    HW123535   7.745   3.154   5.626  2.2238 -0.3648  0.5511
 7176SOL    HW223536   7.692   3.068   5.513  0.3039  1.5523 -0.0737
 7177SOL     OW23537   5.792   0.193   9.830  0.0033 -0.8862 -0.4594
 7177SOL    HW123538   5.784   0.287   9.817 -1.4496 -1.3005 -3.4091
 7177SOL    HW223539   5.884   0.173   9.811  0.1575 -0.1601 -0.4756
 7178SOL     OW23540   7.262   7.373   0.116 -0.2622 -0.3539 -0.1278
 7178SOL    HW123541   7.276   7.446   0.056  1.0727 -0.4314  0.0688
 7178SOL    HW223542   7.317   7.393   0.192  0.5877 -1.8464 -0.3248
 7179SOL     OW23543   0.885   5.957  10.588 -0.0139 -0.5452  0.4254
 7179SOL    HW123544   0.930   5.873  10.576  0.7730 -0.1472  0.4975
 7179SOL    HW223545   0.939   6.020  10.539 -0.4764 -0.0470  0.5485
 7180SOL     OW23546  10.210   0.114   5.892 -0.2206  0.1943 -0.3028
 7180SOL    HW123547  10.303   0.128   5.908 -0.2056  1.8983 -1.7053
 7180SOL    HW223548  10.197   0.133   5.800 -2.1525  1.0202  0.0797
 7181SOL     OW23549  10.949   9.965   7.152  0.6184  0.8573 -0.1719
 7181SOL    HW123550  10.920  10.038   7.098 -0.8610  0.3001 -0.1645
 7181SOL    HW223551  10.979   9.899   7.090 -1.4143  0.0752 -0.3836
 7182SOL     OW23552   2.809   1.387   0.872 -0.2776  0.0702  0.1241
 7182SOL    HW123553   2.736   1.434   0.913  0.6463  2.5693 -0.9411
 7182SOL    HW223554   2.818   1.427   0.786  1.7477 -0.8837 -0.1570
 7183SOL     OW23555   5.653   1.962   1.880  0.4248  0.0844 -0.1431
 7183SOL    HW123556   5.649   2.025   1.952 -1.2618  0.5766 -0.6257
 7183SOL    HW223557   5.632   1.878   1.921 -2.0936  0.5899 -0.2551
 7184SOL     OW23558   4.473   7.881   6.279 -0.2430 -0.0202 -0.2157
 7184SOL    HW123559   4.556   7.924   6.299 -0.1959  0.5874 -1.6094
 7184SOL    HW223560   4.411   7.922   6.340  0.3152  0.0764  0.3072
 7185SOL     OW23561   3.770  10.387   0.335  0.6143 -0.0405 -0.3038
 7185SOL    HW123562   3.773  10.470   0.286 -0.4328 -0.4070 -1.0354
 7185SOL    HW223563   3.781  10.319   0.268 -1.1279 -0.5611 -0.1196
 7186SOL     OW23564  10.191   5.551   4.229 -0.9016  0.7803 -0.4183
 7186SOL    HW123565  10.227   5.541   4.141 -2.3553  0.4173 -1.0080
 7186SOL    HW223566  10.213   5.640   4.255 -2.1971  1.6018 -1.9965
 7187SOL     OW23567   5.247   6.476   7.567  0.0392 -0.2101 -0.2059
 7187SOL    HW123568   5.310   6.487   7.496 -3.0452  1.5832 -2.8843
 7187SOL    HW223569   5.199   6.396   7.545 -1.0747  0.4622 -0.2836
 7188SOL     OW23570   6.594   2.031   1.042  0.4775  0.4813  0.4190
 7188SOL    HW123571   6.670   1.973   1.045  0.7608  0.7490 -0.8950
 7188SOL    HW223572   6.548   2.015   1.124 -0.0312 -2.3907 -0.3386
 7189SOL     OW23573   5.472   2.125  10.580 -0.2105  0.1263 -0.1109
 7189SOL    HW123574   5.544   2.070  10.611 -0.6245 -1.6977 -2.1055
 7189SOL    HW223575   5.506   2.215  10.585  1.6035 -0.5530  0.4965
 7190SOL     OW23576   9.392   5.356   9.446 -0.1585  0.2239  0.4895
 7190SOL    HW123577   9.453   5.287   9.472 -0.1753  0.6983  1.8795
 7190SOL    HW223578   9.448   5.430   9.421 -0.1523  0.0529 -0.0118
 7191SOL     OW23579   4.612   0.791   0.688  0.1553  0.0059 -0.3012
 7191SOL    HW123580   4.623   0.726   0.618  0.0676  0.2863 -0.5788
 7191SOL    HW223581   4.529   0.834   0.668  1.0953  1.4856 -1.1879
 7192SOL     OW23582   7.515   2.491   3.144 -0.8232 -0.1078  0.5968
 7192SOL    HW123583   7.492   2.581   3.165 -0.9097 -0.1062  0.4966
 7192SOL    HW223584   7.611   2.491   3.140 -0.7783 -0.2052  1.4343
 7193SOL     OW23585  10.104   1.617   7.657 -0.0926 -0.1654 -0.1468
 7193SOL    HW123586  10.110   1.711   7.645 -0.0282 -0.1259  0.1706
 7193SOL    HW223587  10.141   1.579   7.577 -0.1112  0.0780 -0.2690
 7194SOL     OW23588   5.843   3.552   9.890  0.3001  0.4033  0.1074
 7194SOL    HW123589   5.801   3.497   9.824  0.1770 -0.4909  0.9065
 7194SOL    HW223590   5.927   3.577   9.851  0.6174 -0.8444 -0.0477
 7195SOL     OW23591   6.263   5.165   5.747 -0.0596 -0.0936  0.0275
 7195SOL    HW123592   6.335   5.109   5.775 -0.6006 -0.8178  0.0212
 7195SOL    HW223593   6.184   5.113   5.766 -0.5639  0.5708 -0.2084
 7196SOL     OW23594   1.699   0.610   4.151 -0.0001 -0.1286  0.0035
 7196SOL    HW123595   1.680   0.530   4.101 -0.6449 -0.5941  0.9633
 7196SOL    HW223596   1.697   0.581   4.242  1.6984  0.5800  0.3060
 7197SOL     OW23597   5.662   7.035   7.786  0.8182  0.3557 -0.3893
 7197SOL    HW123598   5.628   7.094   7.852 -2.7653 -2.1194  0.2933
 7197SOL    HW223599   5.725   6.980   7.832 -2.2192 -1.8824  1.4829
 7198SOL     OW23600   9.646   6.793   8.051  0.3694  0.2936 -0.2412
 7198SOL    HW123601   9.578   6.736   8.086 -0.2481  0.5699 -0.9592
 7198SOL    HW223602   9.606   6.880   8.052  1.2442  0.7008  0.7014
 7199SOL     OW23603   7.544   0.113   9.376  0.2407 -0.2795  0.4562
 7199SOL    HW123604   7.574   0.152   9.458  0.9645  1.3060 -0.5114
 7199SOL    HW223605   7.450   0.103   9.387 -0.0802  2.2959  0.5987
 7200SOL     OW23606   8.218   7.232   8.230  0.5700 -0.0750 -0.6147
 7200SOL    HW123607   8.214   7.137   8.244  1.1944  0.0917  0.9905
 7200SOL    HW223608   8.153   7.250   8.163 -1.1188 -1.3867  0.5972
 7201SOL     OW23609   7.933   0.831   6.502 -0.1120 -0.6288  0.2837
 7201SOL    HW123610   7.848   0.787   6.498 -0.8406  0.4928  2.0345
 7201SOL    HW223611   7.911   0.922   6.523  1.3675  0.4884 -2.5105
 7202SOL     OW23612   6.396   4.984   3.675 -0.3131 -0.0262  0.3553
 7202SOL    HW123613   6.458   4.913   3.694 -0.1054 -0.3219 -1.2837
 7202SOL    HW223614   6.318   4.962   3.726 -0.0523 -1.1477  0.3012
 7203SOL     OW23615   6.310   7.004   6.339 -0.0442 -0.2182  0.4597
 7203SOL    HW123616   6.304   7.082   6.394  1.2038 -0.9944  1.7296
 7203SOL    HW223617   6.328   6.933   6.399 -1.5750 -1.6120 -0.6298
 7204SOL     OW23618   5.491   0.930   5.730  0.3165 -0.4661  0.5476
 7204SOL    HW123619   5.570   0.943   5.781  0.3487 -0.6398  0.5424
 7204SOL    HW223620   5.428   0.893   5.792 -0.3868  1.4842  1.0527
 7205SOL     OW23621   4.717   2.983   5.494  0.5689  0.0392  0.3864
 7205SOL    HW123622   4.792   2.989   5.435 -0.7723  1.6066 -1.2714
 7205SOL    HW223623   4.693   3.074   5.510 -1.8234 -0.4176 -0.2861
 7206SOL     OW23624   5.946   7.706   1.084 -0.5880 -0.0909  0.6648
 7206SOL    HW123625   5.876   7.641   1.084 -0.4152 -0.2914  1.2136
 7206SOL    HW223626   5.992   7.692   1.001 -0.7301 -0.4796  0.6489
 7207SOL     OW23627   6.591  10.499   9.175 -0.4495  0.0714 -0.4951
 7207SOL    HW123628   6.598  10.433   9.244  0.2860 -0.2638 -0.8811
 7207SOL    HW223629   6.512  10.475   9.126 -0.0502 -0.6652 -0.7819
 7208SOL     OW23630   0.287  10.167   0.129  0.4234 -0.4403  0.2221
 7208SOL    HW123631   0.261  10.092   0.076 -0.9788 -1.3778  2.1425
 7208SOL    HW223632   0.381  10.175   0.115  0.0401  0.0348 -3.1690
 7209SOL     OW23633   1.296   6.299   1.869 -0.3487  0.2936 -0.1861
 7209SOL    HW123634   1.302   6.348   1.952 -2.4699 -0.9751  0.8081
 7209SOL    HW223635   1.280   6.367   1.803 -1.4384  1.1403  0.8894
 7210SOL     OW23636   7.764   6.542   0.603  0.6364  0.3530 -0.7867
 7210SOL    HW123637   7.775   6.521   0.696  2.2607 -0.4538 -1.1272
 7210SOL    HW223638   7.669   6.538   0.589  0.3661  0.4073  0.8044
 7211SOL     OW23639   8.246   4.956  10.835  0.3509 -0.6881 -0.0078
 7211SOL    HW123640   8.211   4.936  10.748 -0.7301  0.0775  0.2242
 7211SOL    HW223641   8.260   4.870  10.876 -0.3451 -1.0331 -0.4735
 7212SOL     OW23642   9.217   1.994   6.707 -0.3839  0.3804  0.1008
 7212SOL    HW123643   9.300   2.041   6.701  0.1986 -0.5026  1.0844
 7212SOL    HW223644   9.153   2.062   6.729 -0.0812  1.1929 -1.3590
 7213SOL     OW23645   4.514   9.859   4.201  0.2420  0.2754 -0.1937
 7213SOL    HW123646   4.451   9.925   4.229 -2.0037 -0.3568 -3.2056
 7213SOL    HW223647   4.568   9.902   4.135  1.9839  0.3499  1.2196
 7214SOL     OW23648   8.414  10.816   6.368 -0.0425  0.4216  0.2269
 7214SOL    HW123649   8.412  10.770   6.452 -1.2824 -0.2371 -0.1430
 7214SOL    HW223650   8.325  10.809   6.334 -0.5255  3.7351  0.4721
 7215SOL     OW23651   8.963   1.421   2.625 -0.0634  0.0813 -0.2303
 7215SOL    HW123652   8.966   1.506   2.581 -0.5953 -0.4329 -1.2932
 7215SOL    HW223653   9.027   1.429   2.696  1.1727  0.7918 -1.3752
 7216SOL     OW23654   3.827   1.196   1.370 -0.2921 -0.0343  0.6919
 7216SOL    HW123655   3.872   1.279   1.381 -1.5310  0.8889 -0.7076
 7216SOL    HW223656   3.876   1.150   1.301  0.0318 -0.1944  1.0281
 7217SOL     OW23657   4.569   8.538   8.447 -0.4861  0.3629  0.5830
 7217SOL    HW123658   4.575   8.595   8.524  1.6689  0.9248  0.0692
 7217SOL    HW223659   4.658   8.534   8.413 -0.8904 -1.9818 -0.4121
 7218SOL     OW23660   3.969   9.719  10.539 -0.7299 -0.3029 -0.1196
 7218SOL    HW123661   3.908   9.713  10.465  0.9844 -1.4699 -1.5236
 7218SOL    HW223662   4.014   9.802  10.525 -0.3111 -0.5868 -0.4875
 7219SOL     OW23663   4.546   6.006   1.971 -0.0304 -0.2999  0.2411
 7219SOL    HW123664   4.490   6.062   1.917  0.0924  0.1242  0.5436
 7219SOL    HW223665   4.486   5.942   2.009 -0.3119  0.1209  0.5208
 7220SOL     OW23666   9.024  10.058   9.486  0.2063 -0.0705  0.5442
 7220SOL    HW123667   9.049  10.148   9.507 -1.2119  0.3719  0.4997
 7220SOL    HW223668   9.098  10.022   9.438  0.4977  1.3408 -0.1113
 7221SOL     OW23669   0.845   0.751   1.178  0.2254  0.4923  0.0591
 7221SOL    HW123670   0.783   0.787   1.242  0.5780  0.3407  0.4963
 7221SOL    HW223671   0.921   0.725   1.231  0.3382 -0.0514 -0.3639
 7222SOL     OW23672   7.272   0.839   3.740 -0.0383  0.2656  0.2118
 7222SOL    HW123673   7.345   0.802   3.690  0.1021 -0.0186  0.6280
 7222SOL    HW223674   7.270   0.932   3.715  0.8818  0.4211  0.7008
 7223SOL     OW23675   7.114   0.970   1.500  0.3510  0.1449 -0.4077
 7223SOL    HW123676   7.125   1.061   1.528 -1.3489  0.3020 -0.1441
 7223SOL    HW223677   7.070   0.927   1.574  0.2834 -0.6555 -0.8978
 7224SOL     OW23678   5.394   2.448   3.750 -0.4848  0.2643 -0.0210
 7224SOL    HW123679   5.468   2.474   3.695 -0.5056 -0.7860 -0.5824
 7224SOL    HW223680   5.321   2.502   3.719 -0.2991  0.2677 -0.4640
 7225SOL     OW23681   9.788   4.846   6.265 -0.3164  0.3081  0.2787
 7225SOL    HW123682   9.729   4.847   6.189 -0.5127 -0.0740  0.4267
 7225SOL    HW223683   9.876   4.842   6.227 -0.4259 -0.2071  0.0763
 7226SOL     OW23684   4.875   4.089   5.913 -0.1895 -0.8929  0.1616
 7226SOL    HW123685   4.926   4.138   5.977  1.0024 -0.9841 -0.6917
 7226SOL    HW223686   4.847   4.010   5.960  0.8963 -1.0906  0.5090
 7227SOL     OW23687   2.429  10.928   9.905  0.4981  0.0337 -0.3984
 7227SOL    HW123688   2.459  10.840   9.881 -0.8124 -0.7935  0.8217
 7227SOL    HW223689   2.334  10.924   9.892  0.0353  0.2901  2.4682
 7228SOL     OW23690   5.368   7.514   4.327 -0.4010 -0.5740  0.3347
 7228SOL    HW123691   5.461   7.518   4.304 -0.1313 -0.7315  1.3399
 7228SOL    HW223692   5.348   7.421   4.335 -0.5112 -0.5304  0.6039
 7229SOL     OW23693   4.324   2.103   9.229  0.0210  0.1977  0.2872
 7229SOL    HW123694   4.316   2.196   9.250 -2.0077  0.1997 -0.2616
 7229SOL    HW223695   4.282   2.058   9.302  0.4883 -0.2676  0.2769
 7230SOL     OW23696   4.777   2.247   4.233  0.3176 -0.8107  0.0014
 7230SOL    HW123697   4.780   2.157   4.267 -0.4756 -0.6315  0.5541
 7230SOL    HW223698   4.759   2.301   4.309  1.3715 -0.1078 -0.2325
 7231SOL     OW23699   2.039   7.348   0.631 -0.0461 -0.2624 -0.3284
 7231SOL    HW123700   2.048   7.270   0.577  0.0573 -0.7545  0.3778
 7231SOL    HW223701   2.044   7.421   0.570 -0.8627 -0.8275 -1.0818
 7232SOL     OW23702   0.022   9.498   6.327  0.2453 -0.1427  0.4604
 7232SOL    HW123703  -0.005   9.422   6.380  1.2336 -1.7048 -1.1637
 7232SOL    HW223704  -0.006   9.476   6.238 -0.4989  1.9775  0.1147
 7233SOL     OW23705   2.933   8.087   0.294 -0.1152  0.2110 -0.1231
 7233SOL    HW123706   3.013   8.041   0.320  1.6785  2.1701 -1.7434
 7233SOL    HW223707   2.928   8.074   0.199 -2.3717 -0.7443  0.0772
 7234SOL     OW23708   0.005   7.828   4.042  0.5826 -0.1657 -0.2673
 7234SOL    HW123709   0.064   7.898   4.069 -1.0372  1.1778  0.0065
 7234SOL    HW223710  -0.083   7.863   4.059 -0.2963 -2.7579  1.0438
 7235SOL     OW23711   1.286   3.478   0.801  0.0310  0.1709 -0.4497
 7235SOL    HW123712   1.228   3.533   0.854  0.9535  0.5436  0.1880
 7235SOL    HW223713   1.261   3.498   0.711  1.0535  2.4677 -0.2903
 7236SOL     OW23714   2.211   8.413   8.159 -0.0261 -0.4186 -0.1058
 7236SOL    HW123715   2.170   8.340   8.205 -1.1572  0.0982 -0.2617
 7236SOL    HW223716   2.242   8.471   8.228  1.4800 -1.3284  0.0366
 7237SOL     OW23717   6.323  10.017   3.134 -0.6484  0.3375  0.2766
 7237SOL    HW123718   6.241  10.055   3.103 -1.2222 -1.0133  0.0598
 7237SOL    HW223719   6.385  10.090   3.135 -1.1784  0.9091 -1.9870
 7238SOL     OW23720   5.835   0.222   8.687 -0.0229 -0.2055 -0.3157
 7238SOL    HW123721   5.810   0.135   8.657 -1.9642  0.1134  0.2296
 7238SOL    HW223722   5.767   0.280   8.652 -2.1142  0.2899  3.9177
 7239SOL     OW23723   8.889   0.795   7.945  0.3623 -0.0705 -0.1685
 7239SOL    HW123724   8.851   0.764   7.863  1.7397 -0.7462 -0.6010
 7239SOL    HW223725   8.862   0.730   8.010 -0.4963  0.3097 -0.1369
 7240SOL     OW23726   1.210   9.610  10.639 -0.2469  0.1831 -0.5191
 7240SOL    HW123727   1.143   9.658  10.590 -0.4501  2.6024  1.9021
 7240SOL    HW223728   1.289   9.617  10.584 -1.0836  0.4465 -1.7215
 7241SOL     OW23729   5.406   9.335   8.058  0.9310  0.0063 -0.0789
 7241SOL    HW123730   5.473   9.278   8.021 -0.6497 -2.4242  0.5821
 7241SOL    HW223731   5.325   9.285   8.052 -0.1246  1.1195  2.8695
 7242SOL     OW23732   6.459   4.481   9.377  0.5361 -0.2107 -0.4773
 7242SOL    HW123733   6.368   4.453   9.388  0.8012 -1.1756 -0.5910
 7242SOL    HW223734   6.485   4.513   9.463 -0.2353  1.0958 -0.7149
 7243SOL     OW23735   8.051   8.764   3.204  0.6169  0.4715 -0.2600
 7243SOL    HW123736   8.015   8.676   3.203  2.5543 -0.3559 -0.5574
 7243SOL    HW223737   8.143   8.753   3.228  1.0539  2.3319 -0.8788
 7244SOL     OW23738  10.132   6.468   3.412  0.3141  0.3629 -0.1530
 7244SOL    HW123739  10.126   6.537   3.479 -0.2320  1.0910 -0.9246
 7244SOL    HW223740  10.143   6.516   3.330 -1.8261 -0.3464 -0.9386
 7245SOL     OW23741   7.009   5.868   4.053  0.5670 -0.3859 -0.9310
 7245SOL    HW123742   7.046   5.824   3.976 -0.6401 -0.4582 -1.4900
 7245SOL    HW223743   6.948   5.932   4.017  0.4567  0.0249 -0.0430
 7246SOL     OW23744   1.200   4.882   8.487  0.0791  0.1175 -0.3990
 7246SOL    HW123745   1.292   4.855   8.487 -0.1637 -0.7594 -0.3859
 7246SOL    HW223746   1.180   4.899   8.579  0.1934  0.1740 -0.3847
 7247SOL     OW23747   4.127   0.756   8.114  1.0702  0.3428 -0.1275
 7247SOL    HW123748   4.125   0.660   8.105 -1.2420  0.1234  1.7351
 7247SOL    HW223749   4.212   0.773   8.156  1.1041 -1.0264  0.4456
 7248SOL     OW23750   7.699   8.592   8.018  0.2401  0.0999  0.2379
 7248SOL    HW123751   7.725   8.505   7.989 -0.5814  0.0973 -0.5423
 7248SOL    HW223752   7.756   8.611   8.092  0.4621 -1.0709  0.3797
 7249SOL     OW23753   4.459   7.146   6.218 -0.1227 -0.0158 -0.5736
 7249SOL    HW123754   4.380   7.148   6.163 -0.3061  0.8851 -0.2881
 7249SOL    HW223755   4.469   7.235   6.250  0.5710 -0.2977  0.0372
 7250SOL     OW23756   9.658  10.430   3.215 -0.2405 -0.4160 -0.1299
 7250SOL    HW123757   9.636  10.376   3.291 -2.4254 -0.1569 -0.5076
 7250SOL    HW223758   9.681  10.367   3.147  0.0173 -0.7263  0.2405
 7251SOL     OW23759   7.250   5.942  10.583  0.0029 -0.2279  0.0759
 7251SOL    HW123760   7.323   5.913  10.636  0.3565 -0.4297 -0.5188
 7251SOL    HW223761   7.277   5.926  10.493 -0.1962  0.9923 -0.2239
 7252SOL     OW23762   2.538   6.187   8.649 -0.2710 -0.4198 -0.2256
 7252SOL    HW123763   2.540   6.094   8.671 -1.8759 -0.2343  0.8344
 7252SOL    HW223764   2.593   6.228   8.716  0.7259 -0.6116 -0.8992
 7253SOL     OW23765   4.205   4.826  10.198 -0.0350 -0.2152 -0.0781
 7253SOL    HW123766   4.245   4.912  10.187  0.9447 -0.5457  0.7716
 7253SOL    HW223767   4.235   4.776  10.121  0.2248 -0.1079 -0.0468
 7254SOL     OW23768  10.430  10.605   2.413 -0.4004 -0.0316 -0.0346
 7254SOL    HW123769  10.393  10.621   2.326 -2.2097  1.5952  0.9593
 7254SOL    HW223770  10.496  10.674   2.424 -0.0787 -0.3186 -0.1672
 7255SOL     OW23771   0.293   4.771   9.271 -0.0561  0.4017 -0.1679
 7255SOL    HW123772   0.297   4.770   9.175  2.5865 -0.9468 -0.1394
 7255SOL    HW223773   0.213   4.819   9.291 -1.4411 -0.4451 -3.0493
 7256SOL     OW23774   1.621   1.097   5.460 -0.4619  0.5252 -0.1002
 7256SOL    HW123775   1.564   1.098   5.537 -1.1073 -1.8217 -0.4959
 7256SOL    HW223776   1.675   1.176   5.469 -0.4379  0.2633  2.8155
 7257SOL     OW23777   0.766  10.279   6.451 -0.4551  0.0253 -0.1523
 7257SOL    HW123778   0.714  10.315   6.522  0.5738 -0.0763  0.6715
 7257SOL    HW223779   0.753  10.340   6.378 -2.3848 -0.4556 -0.2626
 7258SOL     OW23780   9.545   0.711  10.072  0.1589 -0.1442  0.1047
 7258SOL    HW123781   9.498   0.734  10.153  1.2783 -0.0395  0.7475
 7258SOL    HW223782   9.581   0.794  10.041 -0.3504 -0.1696 -0.5622
 7259SOL     OW23783  10.430   0.064   1.114 -0.0591  0.8708  0.2294
 7259SOL    HW123784  10.512   0.079   1.161 -0.7282  1.2875  1.2955
 7259SOL    HW223785  10.455   0.064   1.021  0.9596  2.1985  0.4856
 7260SOL     OW23786  10.414  10.082   8.441 -0.3481 -1.1880 -0.4496
 7260SOL    HW123787  10.339  10.054   8.494  0.4231 -2.1504  0.1713
 7260SOL    HW223788  10.396  10.174   8.421 -1.9305 -1.5395 -0.7493
 7261SOL     OW23789   3.131   4.983   1.966 -0.3497  0.0684 -0.0766
 7261SOL    HW123790   3.193   4.949   2.030 -0.1636  0.2481 -0.1590
 7261SOL    HW223791   3.108   5.070   2.000 -0.4454  0.0609 -0.1223
 7262SOL     OW23792   1.492   2.503   5.287 -0.0690 -0.3196 -0.4456
 7262SOL    HW123793   1.577   2.516   5.328  0.3845 -1.0515 -1.1287
 7262SOL    HW223794   1.450   2.589   5.293  0.2790 -0.2132  0.8392
 7263SOL     OW23795   5.050   9.813  10.372 -0.5254  0.3644  0.3774
 7263SOL    HW123796   5.082   9.854  10.453  0.0848  2.1925 -0.7163
 7263SOL    HW223797   4.969   9.770  10.397  0.7600 -1.0848  2.4356
 7264SOL     OW23798   5.641   6.630   5.652  0.0776  0.0675  0.4642
 7264SOL    HW123799   5.624   6.687   5.726 -0.4735  0.8715 -0.2662
 7264SOL    HW223800   5.592   6.668   5.579  2.0591  0.3718 -0.7907
 7265SOL     OW23801   7.741   1.223   2.937 -0.0645 -0.3826 -0.1080
 7265SOL    HW123802   7.660   1.253   2.896 -0.6049 -2.0373 -0.3104
 7265SOL    HW223803   7.791   1.183   2.866  0.6138 -0.0222  0.1581
 7266SOL     OW23804   9.235   2.333  10.042  0.3088 -0.2875  0.2942
 7266SOL    HW123805   9.155   2.383  10.062 -0.5640 -1.0945 -1.0171
 7266SOL    HW223806   9.231   2.257  10.099  0.1211 -0.3372  0.2164
 7267SOL     OW23807   4.324   4.395   5.276  0.0022 -0.2225 -0.3455
 7267SOL    HW123808   4.363   4.482   5.283  0.5411 -0.4988  0.1355
 7267SOL    HW223809   4.260   4.390   5.347  1.4927 -0.9860  0.9875
 7268SOL     OW23810   1.209   9.814   9.610 -0.0740  0.3223  0.3043
 7268SOL    HW123811   1.296   9.848   9.590 -0.4883  1.2199 -0.0004
 7268SOL    HW223812   1.149   9.880   9.576 -0.8926 -0.6716 -0.2280
 7269SOL     OW23813   9.428  10.558   0.096  0.6117 -0.2805  0.3567
 7269SOL    HW123814   9.391  10.616   0.163  2.2904  1.0286  0.2080
 7269SOL    HW223815   9.461  10.484   0.146 -2.7926 -1.9499  0.4341
 7270SOL     OW23816   8.516  10.899   4.854  0.5185 -0.7101  0.4959
 7270SOL    HW123817   8.534  10.859   4.769  2.2000  1.5375 -0.2929
 7270SOL    HW223818   8.597  10.888   4.903  0.1428 -0.4560  1.1935
 7271SOL     OW23819   4.587   0.828  10.594  0.1612 -0.3498  0.0198
 7271SOL    HW123820   4.681   0.828  10.612  0.2246  1.6774 -0.0998
 7271SOL    HW223821   4.581   0.803  10.502  0.4737 -1.6542  0.3328
 7272SOL     OW23822  10.500   0.033   4.786  0.2405 -0.5199  0.2185
 7272SOL    HW123823  10.465  -0.032   4.846 -0.0446 -2.4219 -1.8735
 7272SOL    HW223824  10.434   0.103   4.785 -0.9323 -1.5908  0.2961
 7273SOL     OW23825   2.117   2.541   8.209 -0.3370  0.3002  0.0382
 7273SOL    HW123826   2.056   2.483   8.254 -0.1254  0.3207  0.3572
 7273SOL    HW223827   2.098   2.628   8.244 -1.2775  0.5809 -1.1081
 7274SOL     OW23828   2.883   2.214   4.087 -0.0835 -0.4370  0.1752
 7274SOL    HW123829   2.934   2.192   4.009  0.4469  0.7267  0.1717
 7274SOL    HW223830   2.792   2.201   4.061 -0.0452  1.6612 -1.2658
 7275SOL     OW23831   4.425   9.823   5.724 -0.1939  0.2842 -0.5168
 7275SOL    HW123832   4.342   9.868   5.735 -0.0504  1.3317 -3.0738
 7275SOL    HW223833   4.491   9.885   5.756 -0.1888  0.8118 -1.5241
 7276SOL     OW23834   2.086   3.729   0.293 -0.2886  0.0709  0.1716
 7276SOL    HW123835   2.147   3.799   0.314  1.5355 -0.6249 -2.2450
 7276SOL    HW223836   2.111   3.657   0.352  2.6887 -0.8513 -1.9306
 7277SOL     OW23837   7.514   4.389   8.698  0.4193  0.5160  0.3562
 7277SOL    HW123838   7.436   4.406   8.750 -0.4239 -0.1556 -0.6475
 7277SOL    HW223839   7.513   4.456   8.630  1.3311  1.1780  0.9660
 7278SOL     OW23840  10.626  10.689   5.195 -0.3982 -0.1754 -0.0519
 7278SOL    HW123841  10.539  10.720   5.168 -0.2514 -0.9155 -1.4998
 7278SOL    HW223842  10.615  10.664   5.286 -2.1090 -1.5628 -0.5686
 7279SOL     OW23843   8.643   9.946   1.661 -0.2932  0.2242  0.2304
 7279SOL    HW123844   8.574  10.009   1.640  0.7817  2.1668  2.0678
 7279SOL    HW223845   8.683   9.924   1.577 -1.7389  0.6980 -0.6243
 7280SOL     OW23846   8.839   9.201   2.588 -0.1411  0.2050 -0.0196
 7280SOL    HW123847   8.748   9.227   2.602 -0.6151 -1.8804  1.2293
 7280SOL    HW223848   8.851   9.206   2.493 -1.8681 -0.4062 -0.3084
 7281SOL     OW23849   3.731   0.081   8.372  0.0044  0.4752 -0.1631
 7281SOL    HW123850   3.721   0.171   8.341 -1.2671  0.3822 -0.0649
 7281SOL    HW223851   3.745   0.089   8.466  0.2169  0.5774 -0.2017
 7282SOL     OW23852   4.046   9.531   1.283 -0.1860 -0.6712  0.2380
 7282SOL    HW123853   4.038   9.505   1.191 -4.4399 -0.5168  0.3552
 7282SOL    HW223854   4.119   9.592   1.285  0.4092 -1.1463 -2.9273
 7283SOL     OW23855   4.022   7.869   5.783 -0.4579  0.6189 -0.3682
 7283SOL    HW123856   4.095   7.931   5.783 -0.6075  0.8934  2.2096
 7283SOL    HW223857   3.944   7.922   5.799 -0.7276 -0.0494  0.6826
 7284SOL     OW23858   7.730  10.296   5.220 -0.4691  0.2091  1.0276
 7284SOL    HW123859   7.781  10.363   5.175 -0.7491  0.1984  0.6873
 7284SOL    HW223860   7.745  10.312   5.313  1.8902 -1.1093  0.9496
 7285SOL     OW23861   3.847   3.917   0.925  0.1810 -0.2900 -0.6193
 7285SOL    HW123862   3.882   3.955   1.005  1.2899  1.4906 -1.8946
 7285SOL    HW223863   3.772   3.865   0.955 -0.0679  1.1258  1.4651
 7286SOL     OW23864   6.119   8.170   5.989 -0.3879  0.1699  0.3676
 7286SOL    HW123865   6.032   8.211   5.993 -1.1618 -1.3718  4.7003
 7286SOL    HW223866   6.101   8.080   5.962  0.1015  0.2487 -0.2284
 7287SOL     OW23867   9.612   6.366   1.351 -0.1942  0.3695  0.0806
 7287SOL    HW123868   9.599   6.286   1.401  0.1518  0.5267  0.4232
 7287SOL    HW223869   9.557   6.355   1.273 -0.8944  0.2125  0.5878
 7288SOL     OW23870  10.355   4.801   5.372 -0.5445  0.6944  0.2667
 7288SOL    HW123871  10.389   4.846   5.450 -0.3584  0.4026  0.3554
 7288SOL    HW223872  10.330   4.714   5.403  0.4495  0.2295 -0.1954
 7289SOL     OW23873   8.608   2.278   7.960  0.2455  0.1487  0.2856
 7289SOL    HW123874   8.543   2.250   8.024  0.4465  0.2824  0.5516
 7289SOL    HW223875   8.648   2.356   7.999 -0.7452  1.1856 -0.7400
 7290SOL     OW23876   6.156   1.051   0.676  0.1924  0.0889 -0.0408
 7290SOL    HW123877   6.242   1.067   0.714  1.4170 -0.3644 -2.4349
 7290SOL    HW223878   6.129   1.137   0.642  1.8831 -0.5194 -3.3327
 7291SOL     OW23879   9.541  10.801   6.300  0.2320  0.6798 -0.1451
 7291SOL    HW123880   9.550  10.709   6.273  0.1211  1.1305 -1.8063
 7291SOL    HW223881   9.602  10.810   6.373 -0.1361 -0.8475  0.3800
 7292SOL     OW23882   9.259   2.617   1.838 -0.9164  0.1230  0.1676
 7292SOL    HW123883   9.247   2.585   1.927  0.1119 -0.7486  0.0104
 7292SOL    HW223884   9.171   2.642   1.809 -1.4393 -0.7184  0.9917
 7293SOL     OW23885   2.076   6.312  10.521  1.3493  0.3179  0.3866
 7293SOL    HW123886   2.091   6.285  10.612 -0.3808 -0.4283  0.4728
 7293SOL    HW223887   1.988   6.281  10.501  0.6606  2.7541 -0.7037
 7294SOL     OW23888   6.868   7.645   5.361  0.4787  0.1756 -0.0022
 7294SOL    HW123889   6.789   7.674   5.406  0.4206  0.6149 -0.3739
 7294SOL    HW223890   6.855   7.551   5.348  1.0692 -0.2345  2.0187
 7295SOL     OW23891   7.656   5.877   4.622 -0.2292  0.2300 -0.6353
 7295SOL    HW123892   7.672   5.950   4.681 -1.0567  0.6142 -0.8695
 7295SOL    HW223893   7.567   5.848   4.644  0.5794 -1.6189  0.4192
 7296SOL     OW23894   7.007   5.840  10.492 -0.0825  0.4698  0.1310
 7296SOL    HW123895   7.090   5.873  10.526 -0.0649 -0.6891  1.2926
 7296SOL    HW223896   7.002   5.873  10.402  1.8504  0.1827 -0.1118
 7297SOL     OW23897  10.588   3.712   0.316 -0.1887  0.5276 -0.3667
 7297SOL    HW123898  10.553   3.800   0.329  1.4679  0.9578  1.8311
 7297SOL    HW223899  10.672   3.726   0.270 -0.0327  0.0748 -0.2264
 7298SOL     OW23900  10.165   6.842   3.803  0.2290 -0.4421 -0.4251
 7298SOL    HW123901  10.139   6.934   3.806 -0.8910 -0.7592 -0.0937
 7298SOL    HW223902  10.243   6.838   3.858  0.8419  0.4722 -1.1918
 7299SOL     OW23903   1.753   7.284   0.836  0.6269  0.0408  0.1452
 7299SOL    HW123904   1.748   7.226   0.913  2.2991  1.4733  1.4145
 7299SOL    HW223905   1.802   7.234   0.771 -0.0330 -0.8507  0.3051
 7300SOL     OW23906   5.181   3.890  10.200 -0.3912  0.0310  0.0792
 7300SOL    HW123907   5.152   3.899  10.291 -0.5502  1.7207 -0.0986
 7300SOL    HW223908   5.259   3.946  10.195 -0.1706 -0.3386 -0.7451
 7301SOL     OW23909   2.385   3.806   6.202  0.2499 -0.4956 -0.0820
 7301SOL    HW123910   2.352   3.893   6.180  2.3965  0.4150 -0.0091
 7301SOL    HW223911   2.353   3.790   6.291  0.4384  0.5875  0.2019
 7302SOL     OW23912   0.663   0.190   3.586 -0.0726  0.8811  0.4907
 7302SOL    HW123913   0.649   0.205   3.680  0.6546  0.0737  0.7416
 7302SOL    HW223914   0.758   0.185   3.577 -0.1288  1.2409 -0.3450
 7303SOL     OW23915   6.708   0.589   6.069 -0.0708  0.2881  0.2471
 7303SOL    HW123916   6.728   0.495   6.067  0.4417  0.4048 -0.5330
 7303SOL    HW223917   6.614   0.593   6.049 -0.2392 -0.0951  0.9448
 7304SOL     OW23918   9.620   5.168   8.047 -0.3586 -0.9957  0.7081
 7304SOL    HW123919   9.658   5.243   8.002 -3.1548 -0.3143 -0.7779
 7304SOL    HW223920   9.546   5.204   8.097 -1.6593 -2.6645  0.1101
 7305SOL     OW23921   5.917   9.701   0.580  0.1977  0.1284  0.2068
 7305SOL    HW123922   5.858   9.765   0.540  0.5147 -0.1569 -0.7484
 7305SOL    HW223923   5.997   9.749   0.598  0.1449  0.1969  0.2591
 7306SOL     OW23924   2.604   9.369   0.891  0.0240  0.2745 -0.0996
 7306SOL    HW123925   2.691   9.362   0.930 -0.2890 -3.0817  0.3282
 7306SOL    HW223926   2.620   9.377   0.797  0.7400  2.6987  0.1761
 7307SOL     OW23927   5.820   2.876   0.981  0.4569  0.1643  0.9855
 7307SOL    HW123928   5.802   2.956   0.932 -2.8020 -1.4612 -0.8039
 7307SOL    HW223929   5.901   2.842   0.944 -0.2935  0.5966 -1.1605
 7308SOL     OW23930   0.331   5.711   9.610 -0.0253 -0.4808  0.3919
 7308SOL    HW123931   0.323   5.741   9.519  1.3326 -0.2449  0.3312
 7308SOL    HW223932   0.247   5.735   9.650 -0.2794  0.2793 -0.5487
 7309SOL     OW23933   9.318   8.100   8.289 -0.2441 -0.2607  0.1008
 7309SOL    HW123934   9.343   8.146   8.369 -1.2032 -0.2216  0.3920
 7309SOL    HW223935   9.236   8.141   8.262  0.9470  0.9541 -1.9112
 7310SOL     OW23936   1.276   8.615   5.744 -0.5420 -0.1208 -0.3119
 7310SOL    HW123937   1.295   8.598   5.652  0.2322 -1.6434  0.0912
 7310SOL    HW223938   1.327   8.692   5.766 -1.2892  0.6804 -1.3247
 7311SOL     OW23939  10.732  10.597   5.759  0.6600 -0.2720  0.4042
 7311SOL    HW123940  10.644  10.562   5.749 -0.0973  1.3691  1.0291
 7311SOL    HW223941  10.742  10.610   5.853  0.9649  1.0119  0.2067
 7312SOL     OW23942   0.204   5.612   2.429  0.5930 -0.4440 -0.5070
 7312SOL    HW123943   0.197   5.603   2.524 -1.2995 -0.9730 -0.6475
 7312SOL    HW223944   0.114   5.630   2.400  1.1731 -0.0592 -2.1773
 7313SOL     OW23945   5.664   4.437  10.876 -0.3123  0.7588 -0.7080
 7313SOL    HW123946   5.650   4.359  10.930  0.6362  1.5524  0.7641
 7313SOL    HW223947   5.577   4.476  10.868 -0.2944  1.4545  1.6611
 7314SOL     OW23948   4.572   0.429   3.789 -0.0262 -0.1209 -0.1101
 7314SOL    HW123949   4.540   0.370   3.858 -0.6004  1.5035  1.0677
 7314SOL    HW223950   4.493   0.474   3.759  0.6865  1.7342  0.6751
 7315SOL     OW23951   4.834  10.359   3.405 -0.2151 -0.1921 -0.0332
 7315SOL    HW123952   4.886  10.292   3.448 -0.0657  0.1717  0.3612
 7315SOL    HW223953   4.886  10.386   3.330 -0.2681 -0.5044 -0.1812
 7316SOL     OW23954   0.567   4.130   0.564 -0.3061  0.5350 -0.0308
 7316SOL    HW123955   0.577   4.053   0.508  1.0613  1.9148 -1.7902
 7316SOL    HW223956   0.656   4.161   0.580 -0.7921  1.3907  1.2129
 7317SOL     OW23957   6.952   2.058   1.445 -0.5304  0.1494  0.7845
 7317SOL    HW123958   6.917   2.121   1.508  0.4745  1.5159  0.0176
 7317SOL    HW223959   7.038   2.034   1.480  0.3398  1.4439 -0.3513
 7318SOL     OW23960   6.964   1.969   4.508  0.1973 -0.5737 -0.1004
 7318SOL    HW123961   6.896   1.932   4.452 -0.3854  0.8716 -0.3769
 7318SOL    HW223962   6.946   1.933   4.595 -2.9043  2.1231  0.5765
 7319SOL     OW23963   3.693  10.246   1.979 -0.1339 -0.4942  0.0014
 7319SOL    HW123964   3.768  10.198   1.945  0.1994 -0.0553  0.1023
 7319SOL    HW223965   3.721  10.338   1.978 -0.7045 -0.3169 -0.0538
 7320SOL     OW23966   7.432   8.020   0.497 -0.1767 -0.2576  0.5032
 7320SOL    HW123967   7.501   8.007   0.432 -0.5226 -0.6027  0.1949
 7320SOL    HW223968   7.467   8.086   0.557  0.5767 -0.7289  0.5893
 7321SOL     OW23969   9.084   7.188   3.856 -0.2733 -0.0396 -0.0553
 7321SOL    HW123970   9.059   7.261   3.799 -1.9062 -0.7354 -0.2689
 7321SOL    HW223971   9.099   7.228   3.941 -0.2725  0.6593 -0.3742
 7322SOL     OW23972   6.185   8.587  10.887  0.6027 -0.1578 -0.7786
 7322SOL    HW123973   6.097   8.589  10.925  0.4507  0.7302 -1.1718
 7322SOL    HW223974   6.224   8.507  10.923 -0.5673 -0.8860 -1.0607
 7323SOL     OW23975   0.475   5.111   6.919  0.2785 -0.4537 -0.1591
 7323SOL    HW123976   0.547   5.101   6.981 -1.2759  0.1046  1.8632
 7323SOL    HW223977   0.444   5.201   6.932 -0.3923 -0.4687 -1.4539
 7324SOL     OW23978   7.515   9.094  10.114 -0.5983 -0.5740  0.3019
 7324SOL    HW123979   7.442   9.134  10.067  1.9222  2.2928 -1.5940
 7324SOL    HW223980   7.527   9.009  10.072 -1.2627  0.0124 -1.1517
 7325SOL     OW23981   1.264   2.651   0.593 -0.2436 -0.5401 -0.2071
 7325SOL    HW123982   1.284   2.662   0.686 -0.8543 -1.9930  0.1263
 7325SOL    HW223983   1.336   2.695   0.548 -0.9411  1.9046  0.9207
 7326SOL     OW23984  10.239   1.689   9.617 -0.0649  0.7347  0.1917
 7326SOL    HW123985  10.213   1.752   9.685 -0.4689 -0.7962  1.5190
 7326SOL    HW223986  10.182   1.708   9.543  0.2262  2.3027  0.3285
 7327SOL     OW23987   7.065   4.658   9.577 -0.3073 -0.1327 -0.1277
 7327SOL    HW123988   7.095   4.641   9.666 -0.4173 -0.8871 -0.2263
 7327SOL    HW223989   7.015   4.579   9.553  0.2684 -0.2192 -1.0917
 7328SOL     OW23990   8.737   7.349   5.950  0.4237 -0.1898  0.5442
 7328SOL    HW123991   8.749   7.371   6.042 -0.6648 -0.8302  0.8538
 7328SOL    HW223992   8.746   7.254   5.946  0.0479 -0.2138  0.0718
 7329SOL     OW23993   8.012   6.308   6.680 -0.0094  0.1824 -0.5553
 7329SOL    HW123994   7.968   6.285   6.598 -0.3377  0.2011 -0.3881
 7329SOL    HW223995   7.943   6.300   6.747  0.8928 -2.5963  0.1524
 7330SOL     OW23996   2.946   8.647   5.686  0.5726 -0.4272  0.6708
 7330SOL    HW123997   2.868   8.595   5.667  0.7563 -1.1866  1.8694
 7330SOL    HW223998   2.912   8.729   5.722  0.2951  0.1188 -0.7684
 7331SOL     OW23999   6.571   6.965   4.857 -0.0171 -0.3080  0.0899
 7331SOL    HW124000   6.628   7.042   4.857 -0.0894 -0.2267 -1.2696
 7331SOL    HW224001   6.486   6.999   4.830 -0.4218 -0.6264  0.9467
 7332SOL     OW24002   1.764   4.249   0.431 -0.1178 -0.0133 -0.0036
 7332SOL    HW124003   1.764   4.179   0.366  0.0295 -0.8423  0.8514
 7332SOL    HW224004   1.688   4.231   0.486  1.3571 -1.1164  1.8393
 7333SOL     OW24005   9.317  10.893   2.396  0.3567  0.1478 -0.0589
 7333SOL    HW124006   9.275  10.977   2.380 -0.0059  0.4157  2.0597
 7333SOL    HW224007   9.406  10.916   2.422 -0.1553  0.0166  1.9511
 7334SOL     OW24008  10.044   2.059   1.132  0.6706 -0.2417 -0.0691
 7334SOL    HW124009   9.978   2.127   1.120  1.4312  0.4484 -0.4208
 7334SOL    HW224010  10.105   2.096   1.197  0.2392 -1.2238  0.9132
 7335SOL     OW24011   1.002   4.083   4.244 -0.6469  0.6346 -0.2981
 7335SOL    HW124012   1.017   4.006   4.189 -1.9933  0.2465 -0.1581
 7335SOL    HW224013   0.980   4.047   4.330 -1.0109  1.1791 -0.1576
 7336SOL     OW24014   8.696   2.552   1.155 -0.5049  0.5298  0.4158
 7336SOL    HW124015   8.779   2.530   1.196 -1.4518 -1.4363  1.4166
 7336SOL    HW224016   8.711   2.637   1.114  1.9040  0.3213  0.7544
 7337SOL     OW24017   9.677   0.137   2.495  0.0515 -0.2761  0.2322
 7337SOL    HW124018   9.686   0.065   2.433  0.3725 -0.1177  0.0927
 7337SOL    HW224019   9.730   0.207   2.458 -1.2614  0.4785 -0.2769
 7338SOL     OW24020  10.709   1.384   1.580 -0.2413  0.2103  0.6332
 7338SOL    HW124021  10.741   1.377   1.490 -3.1475 -1.0909 -0.4204
 7338SOL    HW224022  10.697   1.478   1.593 -0.6368  0.3757 -0.6970
 7339SOL     OW24023   7.605   6.992   5.256 -0.0548  0.4960  0.4348
 7339SOL    HW124024   7.661   6.943   5.316  0.4498  1.0663  0.4361
 7339SOL    HW224025   7.598   6.937   5.178 -0.7301 -0.2596  1.0126
 7340SOL     OW24026   7.163   9.549   9.192 -0.0153 -0.2506 -0.1333
 7340SOL    HW124027   7.093   9.500   9.237 -0.9269  1.1505  0.0385
 7340SOL    HW224028   7.244   9.508   9.222 -0.7235 -3.4754 -2.1009
 7341SOL     OW24029   8.633   8.771   8.144 -0.7825  0.3222  0.6465
 7341SOL    HW124030   8.581   8.732   8.214 -1.2663  1.0795  0.7159
 7341SOL    HW224031   8.579   8.842   8.111 -1.0793 -0.7266 -1.2822
 7342SOL     OW24032   3.421  10.540   3.418  0.4275 -0.4055 -0.5277
 7342SOL    HW124033   3.370  10.621   3.422  0.0911 -0.6387  1.0968
 7342SOL    HW224034   3.511  10.568   3.404  0.1567  0.1733 -1.1439
 7343SOL     OW24035   5.861   4.414   2.979 -0.6911  0.3374 -0.2652
 7343SOL    HW124036   5.813   4.496   2.963 -0.9095  0.3462  0.3908
 7343SOL    HW224037   5.875   4.413   3.074  0.0248  0.0046 -0.3724
 7344SOL     OW24038   3.801   9.073   1.234 -1.1117  0.4276 -0.2446
 7344SOL    HW124039   3.791   9.013   1.161  1.3958 -0.1987 -0.1705
 7344SOL    HW224040   3.781   9.160   1.198 -0.8372  0.0158 -1.4134
 7345SOL     OW24041   8.446   7.834   1.702 -0.0296  0.3067  0.2482
 7345SOL    HW124042   8.524   7.876   1.739  0.4916  0.6221 -1.1385
 7345SOL    HW224043   8.478   7.792   1.622 -0.9594 -1.0015  0.5266
 7346SOL     OW24044   9.379   5.331   0.964 -0.2617 -0.1054 -0.2320
 7346SOL    HW124045   9.403   5.395   0.897 -1.9346  0.1398 -0.6383
 7346SOL    HW224046   9.308   5.281   0.925 -0.5125 -0.7063  0.9454
 7347SOL     OW24047   6.425   8.767   8.913  0.2680 -0.0881 -0.1083
 7347SOL    HW124048   6.349   8.821   8.934 -0.1646 -1.4489  2.1928
 7347SOL    HW224049   6.488   8.787   8.982  1.1324 -0.5832 -0.7413
 7348SOL     OW24050   6.833   9.421  10.700  0.0106 -0.3661 -0.2333
 7348SOL    HW124051   6.742   9.396  10.713  0.1508 -0.9337 -0.3105
 7348SOL    HW224052   6.846   9.495  10.760 -0.4835 -0.3140 -0.1832
 7349SOL     OW24053   4.072   4.337   6.293  0.2344  0.0916  0.3051
 7349SOL    HW124054   4.165   4.330   6.315 -0.0651 -0.9744  1.3633
 7349SOL    HW224055   4.045   4.423   6.327  0.6536  0.0487  0.7544
 7350SOL     OW24056  10.240   5.534   6.809 -0.9113  0.0765 -0.2360
 7350SOL    HW124057  10.255   5.557   6.900  2.6636 -0.3822 -0.5547
 7350SOL    HW224058  10.238   5.618   6.763 -0.4722  0.2292  0.0207
 7351SOL     OW24059   0.724   5.121   4.946 -0.1863 -0.2163 -0.1872
 7351SOL    HW124060   0.751   5.208   4.918 -1.3401  0.0812 -0.4241
 7351SOL    HW224061   0.660   5.137   5.016 -0.9515 -0.8443 -0.7218
 7352SOL     OW24062   8.450   8.025   6.348 -0.4062  0.2319  0.7559
 7352SOL    HW124063   8.394   7.954   6.316  0.6032 -0.7364  1.0949
 7352SOL    HW224064   8.406   8.105   6.318 -0.1542 -0.5651 -2.0401
 7353SOL     OW24065   3.173   9.536   9.857 -0.8510 -0.2238  0.1383
 7353SOL    HW124066   3.199   9.610   9.803 -1.3834 -0.5522 -0.5877
 7353SOL    HW224067   3.170   9.570   9.947 -1.6104  0.7641 -0.2509
 7354SOL     OW24068   4.562   5.208   6.358 -0.3486  0.5122  0.0750
 7354SOL    HW124069   4.612   5.268   6.414  1.1651 -0.4169 -0.2399
 7354SOL    HW224070   4.498   5.169   6.417  1.2391 -0.4757  1.2317
 7355SOL     OW24071   8.012  10.943  11.002 -0.1112 -0.4170  0.4034
 7355SOL    HW124072   7.941  10.891  11.039  0.2159 -0.6682  0.6815
 7355SOL    HW224073   8.092  10.896  11.026  0.1658 -0.0007  0.3134
 7356SOL     OW24074   7.136  10.007   6.154  0.1923  0.4043 -0.4709
 7356SOL    HW124075   7.195  10.080   6.138 -0.0004  0.8729  0.7927
 7356SOL    HW224076   7.053  10.048   6.178  0.3032 -0.1965  1.0708
 7357SOL     OW24077   5.148  10.107   7.074  0.0118 -0.1726 -0.0743
 7357SOL    HW124078   5.234  10.146   7.060  0.1183 -0.7788 -1.1900
 7357SOL    HW224079   5.087  10.175   7.046  0.1890 -0.5416 -1.4441
 7358SOL     OW24080   1.000   5.661   0.557  0.6417 -0.1642  0.2330
 7358SOL    HW124081   1.024   5.691   0.470 -0.2170 -0.1107  0.0072
 7358SOL    HW224082   0.913   5.698   0.573  0.1907 -1.2892  0.5413
 7359SOL     OW24083   4.104  10.031   3.826 -0.3931  0.3465  0.2257
 7359SOL    HW124084   4.020  10.005   3.790 -0.8993  1.4146  0.5929
 7359SOL    HW224085   4.109   9.987   3.911  0.3250 -1.3096 -0.6354
 7360SOL     OW24086   6.243   0.967   2.108 -0.5675 -0.4654  0.4955
 7360SOL    HW124087   6.245   0.882   2.064  3.6290  0.0180 -0.6705
 7360SOL    HW224088   6.209   1.027   2.042  0.3720 -0.6310 -0.1550
 7361SOL     OW24089   9.821   8.663   3.515  0.1109  0.1176 -0.1873
 7361SOL    HW124090   9.764   8.606   3.464 -1.2416  0.0404  1.3412
 7361SOL    HW224091   9.773   8.679   3.596  2.1656  0.2564  1.0678
 7362SOL     OW24092   7.552   8.191   6.522  0.5259  0.1130 -0.6958
 7362SOL    HW124093   7.537   8.270   6.471  0.4227  0.5080 -0.0656
 7362SOL    HW224094   7.502   8.123   6.476 -1.2468  0.8825 -0.0189
 7363SOL     OW24095   0.683   0.824   4.366 -0.6244  0.0846  0.5830
 7363SOL    HW124096   0.644   0.906   4.395 -1.5385 -1.0643  2.7736
 7363SOL    HW224097   0.658   0.817   4.274 -0.5707  2.1968  0.3624
 7364SOL     OW24098   8.040   8.137   0.117  0.1853  0.5780  0.3078
 7364SOL    HW124099   8.052   8.198   0.044  0.6800  0.9586  0.6932
 7364SOL    HW224100   8.040   8.050   0.077  2.4915  0.6435  0.0359
 7365SOL     OW24101   9.621   2.793   7.306  0.4179 -0.3444  0.1285
 7365SOL    HW124102   9.578   2.708   7.305  1.3257 -0.8439  1.6455
 7365SOL    HW224103   9.596   2.832   7.390  0.4717  0.6609 -0.3012
 7366SOL     OW24104   9.130   0.066   9.224  0.0222 -0.4503  0.2033
 7366SOL    HW124105   9.037   0.050   9.212 -0.0520  0.6228 -0.8046
 7366SOL    HW224106   9.143   0.063   9.319 -1.0235 -0.5849  0.3553
 7367SOL     OW24107   7.778   6.565   6.071  0.2040  0.4448  0.5165
 7367SOL    HW124108   7.815   6.505   6.006  1.0860  0.6566  0.8097
 7367SOL    HW224109   7.753   6.642   6.020  1.0781  0.6927  0.4457
 7368SOL     OW24110   0.362   6.480   5.412  0.3184 -0.0670 -0.3635
 7368SOL    HW124111   0.401   6.405   5.367  0.8387  0.3285 -0.5719
 7368SOL    HW224112   0.356   6.547   5.345  1.0665  0.5195  0.1431
 7369SOL     OW24113   3.663   7.055   5.849  0.2757  0.1665 -0.3501
 7369SOL    HW124114   3.668   7.096   5.763  1.2759  0.6660 -0.0639
 7369SOL    HW224115   3.602   7.110   5.899 -0.5775 -0.3197 -0.8254
 7370SOL     OW24116  10.756   6.463   1.168  0.1416 -0.4255  0.1256
 7370SOL    HW124117  10.716   6.464   1.255 -0.5305 -0.4258 -0.1798
 7370SOL    HW224118  10.692   6.505   1.111  1.9804  2.7858  0.1987
 7371SOL     OW24119   1.187   2.847   3.469  0.7509 -0.3516 -0.1271
 7371SOL    HW124120   1.281   2.851   3.448  1.1051 -1.1946  1.1585
 7371SOL    HW224121   1.179   2.898   3.549  0.0790 -0.1847 -0.2987
 7372SOL     OW24122   5.369   8.007   1.524 -0.2575  0.8602  0.1159
 7372SOL    HW124123   5.444   8.023   1.466  0.1008  0.5549  0.4867
 7372SOL    HW224124   5.358   8.090   1.572 -0.9562  1.3344 -0.8179
 7373SOL     OW24125   5.416  10.996   5.101  0.3203  0.1713 -0.1666
 7373SOL    HW124126   5.387  11.013   5.011  0.6127  1.0654 -0.1014
 7373SOL    HW224127   5.512  10.998   5.096  0.3352  0.4562  0.2039
 7374SOL     OW24128   4.295   8.798   8.539  0.0901  0.0601 -0.4450
 7374SOL    HW124129   4.324   8.773   8.627  2.0419 -0.8803 -1.3077
 7374SOL    HW224130   4.364   8.855   8.507 -0.2977 -0.1175 -1.6248
 7375SOL     OW24131   5.208   2.042   6.064 -0.4998  0.5448  0.2024
 7375SOL    HW124132   5.257   1.999   6.135 -0.1060  2.0277  0.8652
 7375SOL    HW224133   5.220   1.984   5.989  0.4437 -0.2400  0.9249
 7376SOL     OW24134   8.065   7.625   1.889 -0.2495  0.3490  0.1965
 7376SOL    HW124135   8.129   7.670   1.944 -0.2196  0.8722 -0.2654
 7376SOL    HW224136   8.113   7.604   1.809 -0.7696  1.1284 -0.3311
 7377SOL     OW24137   6.220   0.847   4.252  0.3250  0.4923 -0.6708
 7377SOL    HW124138   6.190   0.786   4.319 -0.9825 -0.1454 -1.7686
 7377SOL    HW224139   6.257   0.921   4.300  2.6662 -1.4459  0.7083
 7378SOL     OW24140  10.080   2.547   9.209 -0.2633 -0.2848 -0.5055
 7378SOL    HW124141  10.168   2.577   9.231  0.0938  0.1381 -2.2813
 7378SOL    HW224142  10.022   2.606   9.256  0.4274  0.8510 -1.0340
 7379SOL     OW24143   2.958   9.724   6.834  0.2530 -0.3466 -0.5195
 7379SOL    HW124144   2.993   9.642   6.869  1.4137  0.6590  0.7948
 7379SOL    HW224145   2.901   9.757   6.903  0.6541  0.4793 -0.5668
 7380SOL     OW24146   5.944   9.299   4.383 -0.2790  0.2689 -0.6044
 7380SOL    HW124147   6.034   9.310   4.414 -1.2023 -0.5331  2.7895
 7380SOL    HW224148   5.913   9.388   4.368  1.3223  0.5236 -2.9385
 7381SOL     OW24149   1.705   5.720  10.096  0.0109 -0.4044 -0.4028
 7381SOL    HW124150   1.764   5.712  10.171 -1.0888 -0.0562  0.5086
 7381SOL    HW224151   1.695   5.814  10.083 -2.3313 -0.3971  1.0610
 7382SOL     OW24152   4.895   8.020   1.354 -0.1309 -0.1116  0.4286
 7382SOL    HW124153   4.907   8.107   1.315 -1.5470  1.3440  2.9585
 7382SOL    HW224154   4.979   8.002   1.396  0.8396 -0.9536 -1.7031
 7383SOL     OW24155   4.701   2.676   6.782  0.0945  0.1642  0.2336
 7383SOL    HW124156   4.714   2.749   6.843 -0.5867  0.4194  0.0811
 7383SOL    HW224157   4.699   2.717   6.696  0.7713 -0.1639  0.0613
 7384SOL     OW24158   7.426   8.018   3.616  0.6773  0.7214 -0.4311
 7384SOL    HW124159   7.364   8.021   3.689 -1.0715 -0.6170 -1.7618
 7384SOL    HW224160   7.378   8.058   3.543  0.5810 -2.0110 -1.9894
 7385SOL     OW24161   5.142   5.383   5.051 -0.2434  0.3130  0.2269
 7385SOL    HW124162   5.127   5.342   5.136  2.1591  0.2621  0.6866
 7385SOL    HW224163   5.134   5.311   4.988 -1.6849  0.2849  0.4087
 7386SOL     OW24164   5.287   4.313   5.103  0.3673 -0.0098 -0.2125
 7386SOL    HW124165   5.266   4.372   5.030  0.0768 -0.1044 -0.2063
 7386SOL    HW224166   5.212   4.321   5.162 -0.0665 -1.0197 -0.6080
 7387SOL     OW24167   5.238   5.001   0.190 -0.5085 -0.0827 -0.1821
 7387SOL    HW124168   5.204   4.966   0.107 -0.0620  0.6220 -0.6784
 7387SOL    HW224169   5.262   5.091   0.169 -0.1404  0.0192  0.6511
 7388SOL     OW24170   6.582   1.577   6.397 -0.8247  0.0816 -0.0800
 7388SOL    HW124171   6.574   1.635   6.321 -1.4168 -3.2104 -2.7512
 7388SOL    HW224172   6.510   1.604   6.454 -2.3164  0.7724 -2.1353
 7389SOL     OW24173   3.660   2.867   4.760  0.3691 -0.1341  0.3463
 7389SOL    HW124174   3.665   2.810   4.683 -0.9442 -0.6649  0.6185
 7389SOL    HW224175   3.751   2.886   4.782  0.8514 -1.9254  0.0832
 7390SOL     OW24176   4.456   3.726   7.782 -0.5273  0.7841 -0.2119
 7390SOL    HW124177   4.526   3.746   7.720 -0.1397 -0.3714 -0.1669
 7390SOL    HW224178   4.394   3.673   7.731 -0.4334  0.2153  0.2522
 7391SOL     OW24179   2.468   7.748   5.349  0.4797 -0.0484  0.1798
 7391SOL    HW124180   2.374   7.765   5.352  0.8869  3.0621 -0.8379
 7391SOL    HW224181   2.476   7.661   5.310 -1.9488 -0.8917  1.3865
 7392SOL     OW24182   1.255   2.013   1.608 -0.7017  0.7161  0.3933
 7392SOL    HW124183   1.175   2.054   1.574 -1.1967 -0.3672  0.1890
 7392SOL    HW224184   1.309   2.085   1.639 -1.6571  1.4859  0.2904
 7393SOL     OW24185   1.036   6.480   5.618 -0.2802  0.0481 -0.5694
 7393SOL    HW124186   1.127   6.473   5.645 -0.7969 -0.7476  1.1124
 7393SOL    HW224187   0.989   6.418   5.675 -1.8502  0.3398 -1.4765
 7394SOL     OW24188   7.086   7.678   9.264  0.0594 -0.0837  0.7491
 7394SOL    HW124189   7.064   7.698   9.355 -1.2390 -2.0398  0.9343
 7394SOL    HW224190   7.002   7.671   9.220  0.6616  0.3387 -0.4994
 7395SOL     OW24191   7.088   3.203  10.176  0.0874  1.0439  0.0763
 7395SOL    HW124192   7.086   3.270  10.108 -1.1587  1.4502  0.4928
 7395SOL    HW224193   7.146   3.240  10.244  1.9121  0.3316 -1.0259
 7396SOL     OW24194   4.122   2.622  10.994  0.3915 -0.3341  0.0087
 7396SOL    HW124195   4.117   2.589  11.084  2.0378 -1.2038 -0.1872
 7396SOL    HW224196   4.215   2.640  10.980  0.2304 -0.6293 -1.6558
 7397SOL     OW24197   3.748   2.926  10.518 -0.0257  0.9408  0.4227
 7397SOL    HW124198   3.769   3.013  10.553 -2.5222  2.1108 -0.7722
 7397SOL    HW224199   3.826   2.902  10.468  0.4531  2.8689  0.1407
 7398SOL     OW24200   9.617   9.405  10.391 -0.3886  0.1107  0.1621
 7398SOL    HW124201   9.699   9.356  10.386 -1.1344 -1.1049 -0.8693
 7398SOL    HW224202   9.629   9.479  10.332 -0.5690 -0.9434 -1.2474
 7399SOL     OW24203  10.885   4.434   1.453 -0.2433 -0.2936 -0.3357
 7399SOL    HW124204  10.839   4.378   1.390 -0.7870 -0.7012  0.4180
 7399SOL    HW224205  10.815   4.472   1.506  0.2578 -0.4790  0.4656
 7400SOL     OW24206   7.856   2.177   2.813  0.5325 -0.5050  0.0050
 7400SOL    HW124207   7.890   2.106   2.868  1.2356  1.3062  2.0058
 7400SOL    HW224208   7.934   2.226   2.787  0.0418 -0.3864 -1.3013
 7401SOL     OW24209   4.798   1.780   2.056  0.3533 -0.1086 -0.3680
 7401SOL    HW124210   4.754   1.698   2.035  0.5953 -0.0977 -0.9177
 7401SOL    HW224211   4.838   1.808   1.974  1.3236 -0.0777  0.1089
 7402SOL     OW24212   7.594   8.427   1.229 -0.1348 -0.2373 -0.3473
 7402SOL    HW124213   7.603   8.392   1.318  0.0747  0.2275 -0.1808
 7402SOL    HW224214   7.546   8.360   1.182 -0.8045 -0.2184  0.2819
 7403SOL     OW24215   8.634   9.329  10.317  0.0309  0.3790  0.0503
 7403SOL    HW124216   8.660   9.278  10.241 -1.0475 -1.4166  0.7957
 7403SOL    HW224217   8.568   9.391  10.284 -0.0129  0.0046 -0.5709
 7404SOL     OW24218   4.807   8.488   6.823  0.2978  0.3387  0.3680
 7404SOL    HW124219   4.749   8.483   6.746  0.7249 -1.3739  0.1108
 7404SOL    HW224220   4.835   8.579   6.826 -2.3378  1.2320  0.4547
 7405SOL     OW24221   3.108   2.395   9.505  0.1914  0.0117  0.4240
 7405SOL    HW124222   3.083   2.487   9.514  0.3954  0.1715 -0.5545
 7405SOL    HW224223   3.072   2.368   9.421  3.3432  0.3060 -1.1777
 7406SOL     OW24224   3.570   9.791   8.744 -0.1041 -0.5300 -0.2605
 7406SOL    HW124225   3.557   9.885   8.757 -1.0808 -0.7759  0.7545
 7406SOL    HW224226   3.482   9.755   8.735  0.0955 -1.6087  1.4858
 7407SOL     OW24227   5.244   3.018   6.134 -0.1786  0.1525 -0.3364
 7407SOL    HW124228   5.219   3.023   6.042 -0.1112  0.5069 -0.3350
 7407SOL    HW224229   5.317   2.956   6.135 -0.3751 -0.0834 -0.4791
 7408SOL     OW24230  11.034   0.362   2.150 -0.5376 -0.3637  0.2325
 7408SOL    HW124231  11.085   0.440   2.172 -0.2575 -1.0276  2.0519
 7408SOL    HW224232  10.945   0.394   2.138 -0.8587  0.0292  3.0197
 7409SOL     OW24233   3.425   0.252   3.065  0.6322 -0.2004 -0.0807
 7409SOL    HW124234   3.357   0.252   2.998 -1.0469 -2.4724  1.4906
 7409SOL    HW224235   3.419   0.339   3.105  0.6162  0.6176 -1.7551
 7410SOL     OW24236   6.427  10.706   0.143  0.7570  0.2765  0.1022
 7410SOL    HW124237   6.390  10.794   0.146  0.4265  0.1506 -0.1967
 7410SOL    HW224238   6.430  10.678   0.235 -1.9768 -0.5622  0.0341
 7411SOL     OW24239   2.547   0.974  10.462 -0.6043 -0.1353 -0.0181
 7411SOL    HW124240   2.516   1.035  10.529  0.2137  0.0197  0.2238
 7411SOL    HW224241   2.467   0.944  10.419 -0.9926  2.1136 -1.0234
 7412SOL     OW24242   9.033  10.338  10.604  0.0369 -0.1187 -0.3730
 7412SOL    HW124243   9.009  10.431  10.601 -0.4112 -0.2419 -0.6220
 7412SOL    HW224244   9.106  10.331  10.543 -0.6568 -0.1424 -1.2093
 7413SOL     OW24245  11.017   8.819   8.711 -0.3061 -0.2259  0.0231
 7413SOL    HW124246  11.087   8.869   8.753 -2.0787  2.0588  0.4175
 7413SOL    HW224247  11.048   8.806   8.621  0.8068  0.3271  0.3063
 7414SOL     OW24248   4.231   8.515   7.438  0.5776  0.1811  0.1116
 7414SOL    HW124249   4.206   8.457   7.367  1.9868 -0.3466  0.0285
 7414SOL    HW224250   4.315   8.552   7.412  0.4386  1.0752  0.8637
 7415SOL     OW24251   6.879   7.247   9.001 -0.2199  0.2813  0.1159
 7415SOL    HW124252   6.872   7.192   9.079 -1.2818 -1.5070 -1.1489
 7415SOL    HW224253   6.790   7.279   8.987 -0.3015 -0.3989 -1.0085
 7416SOL     OW24254   1.551   0.943   2.191 -0.1499 -0.2964  0.0160
 7416SOL    HW124255   1.486   0.891   2.237  0.0020  0.2963  0.9278
 7416SOL    HW224256   1.619   0.880   2.166 -1.6223 -1.1513 -2.0758
 7417SOL     OW24257   0.306   5.586   3.606 -0.4174 -1.0636  0.1496
 7417SOL    HW124258   0.326   5.677   3.630 -0.1696 -1.2665  0.7315
 7417SOL    HW224259   0.330   5.535   3.684 -1.1605 -1.5544  0.0638
 7418SOL     OW24260   4.361   7.410   4.229 -0.0987 -0.1383  0.0682
 7418SOL    HW124261   4.322   7.429   4.144  0.2329 -0.3856 -0.1428
 7418SOL    HW224262   4.355   7.315   4.238  0.9839 -0.2570 -0.2419
 7419SOL     OW24263   1.249   2.081   2.621  0.4672  0.2085 -0.2003
 7419SOL    HW124264   1.257   2.085   2.525  1.1956  3.4422 -0.1268
 7419SOL    HW224265   1.264   2.171   2.650  0.6656 -0.7318  3.0203
 7420SOL     OW24266   7.746   5.623   9.086  0.1810 -0.4151 -0.3231
 7420SOL    HW124267   7.806   5.653   9.155 -0.2286  0.4759 -0.3334
 7420SOL    HW224268   7.784   5.657   9.005 -0.7868  0.9588 -0.2433
 7421SOL     OW24269   3.720  10.307   3.575 -0.4686 -0.7603  0.0663
 7421SOL    HW124270   3.813  10.326   3.569 -0.7454  0.9844  0.7475
 7421SOL    HW224271   3.706  10.234   3.514  1.5546 -2.0048  0.9853
 7422SOL     OW24272   4.820  10.145   9.720 -0.0647 -0.2885 -0.4750
 7422SOL    HW124273   4.907  10.111   9.699  0.1213 -2.2850  2.8350
 7422SOL    HW224274   4.833  10.198   9.799 -1.6911  0.5431 -0.7107
 7423SOL     OW24275   9.522   7.325   9.100 -0.2380 -0.3008  0.0879
 7423SOL    HW124276   9.483   7.243   9.070 -0.2473  0.2286 -1.4361
 7423SOL    HW224277   9.539   7.374   9.020  1.8752  0.2646  0.8154
 7424SOL     OW24278   8.858   6.933   3.968 -0.3734 -0.4526  0.5080
 7424SOL    HW124279   8.833   6.894   4.052 -0.5305  0.2661  0.8001
 7424SOL    HW224280   8.845   7.027   3.980 -1.1987 -0.4121 -0.6025
 7425SOL     OW24281   4.208   1.255  10.621  0.1192  0.1322 -0.3015
 7425SOL    HW124282   4.224   1.196  10.548  1.1469  1.5435 -1.2763
 7425SOL    HW224283   4.294   1.292  10.640 -0.1383 -0.1320  1.5936
 7426SOL     OW24284   5.904   7.714   2.269  0.3671  0.1568 -0.0638
 7426SOL    HW124285   5.995   7.736   2.287  0.8481 -1.5154 -0.2125
 7426SOL    HW224286   5.877   7.664   2.346 -0.2198  0.1137 -0.2969
 7427SOL     OW24287   2.690   2.145   2.834  0.2305  0.4761  0.6155
 7427SOL    HW124288   2.775   2.162   2.875  0.1503  0.6962  0.6932
 7427SOL    HW224289   2.632   2.122   2.906  0.3829 -0.3371  0.4920
 7428SOL     OW24290   0.008   8.259   1.183 -0.4266 -0.0499 -0.0577
 7428SOL    HW124291  -0.021   8.226   1.268  0.8932 -1.1675 -0.0107
 7428SOL    HW224292   0.061   8.336   1.205 -0.2621 -0.2146  0.1355
 7429SOL     OW24293   1.707   6.006   5.042 -0.6072 -0.2707 -0.5999
 7429SOL    HW124294   1.680   5.917   5.022 -1.8806  0.0116 -0.2277
 7429SOL    HW224295   1.647   6.061   4.991 -0.5051  0.3788 -0.0283
 7430SOL     OW24296   5.762   0.580   1.581 -0.1651  0.4902  0.5680
 7430SOL    HW124297   5.842   0.630   1.599 -0.4660  0.9673  0.5989
 7430SOL    HW224298   5.748   0.590   1.487  0.3540 -0.4260  0.3752
 7431SOL     OW24299   9.473   2.690   0.730  0.2523 -0.5760  0.1562
 7431SOL    HW124300   9.515   2.754   0.788  1.0656 -0.4653 -0.5387
 7431SOL    HW224301   9.515   2.703   0.645 -0.8044 -0.8579 -0.4280
 7432SOL     OW24302   2.559   9.905  10.667 -0.1220 -0.4552  0.7901
 7432SOL    HW124303   2.566   9.986  10.719 -0.4345  0.8951 -1.1458
 7432SOL    HW224304   2.498   9.927  10.597 -1.5546 -2.9661  1.1584
 7433SOL     OW24305   7.411   8.510   5.873 -0.0277  0.1997  0.4934
 7433SOL    HW124306   7.378   8.434   5.825 -2.3671  2.2535 -1.3717
 7433SOL    HW224307   7.462   8.559   5.808  0.4868  0.8440  1.3598
 7434SOL     OW24308   5.098   2.289   5.482  0.1462  0.5315  0.1896
 7434SOL    HW124309   5.036   2.267   5.551  1.6534 -2.4486  0.7447
 7434SOL    HW224310   5.135   2.373   5.509  0.2095 -0.2312  2.6742
 7435SOL     OW24311   8.747   8.823   4.495 -0.2735  0.1519 -0.0749
 7435SOL    HW124312   8.777   8.810   4.405  0.4051  0.8193  0.0428
 7435SOL    HW224313   8.728   8.734   4.526  1.9399 -0.3908 -0.0511
 7436SOL     OW24314   1.213  10.566   6.588 -0.5030 -0.2578 -0.4689
 7436SOL    HW124315   1.257  10.576   6.672  0.8854 -0.5167 -1.1407
 7436SOL    HW224316   1.125  10.535   6.610  0.2072 -1.4284  0.8386
 7437SOL     OW24317   9.150   2.128   2.537 -0.5686 -0.2450 -0.3452
 7437SOL    HW124318   9.056   2.137   2.554 -0.6918 -1.0324 -0.5609
 7437SOL    HW224319   9.185   2.217   2.546 -1.2834  0.0052  0.0295
 7438SOL     OW24320   2.536   4.624   9.567  0.3705 -0.5102 -0.3799
 7438SOL    HW124321   2.487   4.621   9.484  0.3946  0.1842 -0.4242
 7438SOL    HW224322   2.486   4.685   9.622  0.7599 -0.3994 -0.1495
 7439SOL     OW24323   6.332  10.032   8.778 -0.3214  0.1288 -1.0372
 7439SOL    HW124324   6.329   9.937   8.772 -0.8643 -0.0514  1.3808
 7439SOL    HW224325   6.424  10.052   8.795 -0.3699 -0.0361 -0.5799
 7440SOL     OW24326   4.862   4.143   8.506  0.0306 -0.4597  0.2400
 7440SOL    HW124327   4.942   4.141   8.559 -0.4340 -0.4306  0.9512
 7440SOL    HW224328   4.825   4.230   8.522 -1.0808 -1.1001  1.3460
 7441SOL     OW24329   2.895   9.567  10.903  0.0047  0.6438  0.1374
 7441SOL    HW124330   2.832   9.519  10.850 -1.4440  1.9857  0.5842
 7441SOL    HW224331   2.878   9.659  10.884  3.1543  1.0835 -1.2328
 7442SOL     OW24332   6.427   6.689   8.694 -0.1884 -0.3484  0.1341
 7442SOL    HW124333   6.340   6.727   8.691  0.1272  0.3573 -0.3046
 7442SOL    HW224334   6.486   6.762   8.678  0.6376 -0.3449  2.8089
 7443SOL     OW24335   9.461   2.086   5.931 -0.1990  0.3135 -0.2596
 7443SOL    HW124336   9.411   2.015   5.891 -0.8509 -0.0241  1.1098
 7443SOL    HW224337   9.468   2.061   6.023  1.1882  1.1146 -0.1355
 7444SOL     OW24338   1.798   1.340   0.787 -0.3566 -0.2576 -0.2156
 7444SOL    HW124339   1.790   1.433   0.804 -0.7003 -0.1709 -0.8077
 7444SOL    HW224340   1.869   1.310   0.843 -0.0667  0.4128 -0.2283
 7445SOL     OW24341   1.964  10.992   5.068 -0.5335  0.1034 -0.0352
 7445SOL    HW124342   1.947  10.923   5.005 -1.1005  0.7486 -0.6023
 7445SOL    HW224343   2.045  10.966   5.112 -0.9223 -1.0817 -0.0031
 7446SOL     OW24344   2.965   4.374  11.030 -0.2301  0.1130 -0.3477
 7446SOL    HW124345   3.041   4.414  10.988  0.0798  0.8939  0.8766
 7446SOL    HW224346   2.971   4.403  11.121 -2.1025  0.3397 -0.2585
 7447SOL     OW24347   7.484   9.603   0.219  0.7935 -0.1491 -0.0339
 7447SOL    HW124348   7.441   9.540   0.276  1.8368 -0.6556  0.2130
 7447SOL    HW224349   7.480   9.686   0.266 -1.5666  0.2767 -0.8303
 7448SOL     OW24350   7.789   5.723   8.388  0.0956 -0.3701 -0.0746
 7448SOL    HW124351   7.847   5.690   8.456 -0.9031 -1.3710  0.3327
 7448SOL    HW224352   7.828   5.806   8.360  0.4288  0.1488  1.8295
 7449SOL     OW24353   7.240   8.561   8.662  0.5585 -0.6833 -0.2259
 7449SOL    HW124354   7.304   8.600   8.602  0.3599  0.7646  0.4720
 7449SOL    HW224355   7.214   8.632   8.720 -1.5467 -1.2702 -0.3494
 7450SOL     OW24356   6.563   2.754   3.551  0.2080 -0.0672 -0.7232
 7450SOL    HW124357   6.530   2.760   3.641  1.3550 -1.2070 -0.1969
 7450SOL    HW224358   6.488   2.725   3.499 -0.0237 -1.1401  0.1852
 7451SOL     OW24359   2.418   5.811   2.494 -0.7060  0.0170 -0.2418
 7451SOL    HW124360   2.417   5.899   2.456  0.4172 -0.2011 -0.8365
 7451SOL    HW224361   2.450   5.755   2.423  0.0712 -0.6230  0.5897
 7452SOL     OW24362   0.859   5.196  10.657  0.4431 -0.1868  0.6653
 7452SOL    HW124363   0.914   5.157  10.725  0.4647 -0.4598  0.4981
 7452SOL    HW224364   0.897   5.163  10.575  1.2748  1.2389  0.4523
 7453SOL     OW24365   7.439   4.516   7.576 -0.6661  0.2320  0.1352
 7453SOL    HW124366   7.406   4.430   7.550  1.8121 -1.1455  1.1307
 7453SOL    HW224367   7.413   4.575   7.505 -2.3168 -1.3494 -0.6471
 7454SOL     OW24368   9.190   2.240   7.585  0.0557  0.6110  0.6410
 7454SOL    HW124369   9.268   2.185   7.590 -0.6903 -0.9271 -2.2528
 7454SOL    HW224370   9.125   2.193   7.638 -0.9373 -2.2589 -2.7209
 7455SOL     OW24371   0.924   9.592   1.351  0.0782 -0.3106 -0.3717
 7455SOL    HW124372   0.832   9.611   1.369 -0.2832 -0.7433 -1.6691
 7455SOL    HW224373   0.961   9.568   1.436 -0.9479  0.0789  0.1989
 7456SOL     OW24374   4.302   8.904   0.868 -0.2289  0.2716  0.2012
 7456SOL    HW124375   4.364   8.851   0.919  0.1009  0.5895  0.1312
 7456SOL    HW224376   4.230   8.844   0.849  0.8831 -0.6666 -1.3224
 7457SOL     OW24377   8.770   2.811   2.316 -0.4762 -0.1294  0.3343
 7457SOL    HW124378   8.801   2.890   2.271 -0.3036 -0.6092 -0.4145
 7457SOL    HW224379   8.762   2.837   2.408  2.7306 -0.1137  0.7075
 7458SOL     OW24380  10.717   3.336   0.112  0.0219  0.6194 -0.0004
 7458SOL    HW124381  10.682   3.347   0.201  2.1030 -1.1293  1.1385
 7458SOL    HW224382  10.701   3.421   0.070 -1.1762  1.4631  1.9820
 7459SOL     OW24383   7.647   3.507   4.495  0.5523  0.1369  0.3321
 7459SOL    HW124384   7.674   3.428   4.543 -0.9329  0.0580  1.1061
 7459SOL    HW224385   7.726   3.535   4.449  1.9214 -0.1401  2.3409
 7460SOL     OW24386   0.320   5.569   0.764  0.3064  0.0525  0.2008
 7460SOL    HW124387   0.344   5.661   0.767 -1.2644  0.5108 -0.0273
 7460SOL    HW224388   0.356   5.538   0.681  1.1977  0.3393  0.4696
 7461SOL     OW24389   4.939   2.033   8.121 -0.3627  0.2616  0.1970
 7461SOL    HW124390   4.902   2.008   8.037  2.3203 -0.2966 -0.9178
 7461SOL    HW224391   4.995   2.109   8.102  2.0258 -1.1897  0.9397
 7462SOL     OW24392   5.162   4.324   9.958  0.5810  0.1563  0.4975
 7462SOL    HW124393   5.137   4.404   9.911 -0.0270  0.5083  1.4001
 7462SOL    HW224394   5.084   4.269   9.955  1.4199 -1.0320 -1.3336
 7463SOL     OW24395   1.916   8.068   2.758  0.0673  0.0341 -0.1657
 7463SOL    HW124396   1.854   8.040   2.691  1.6631 -0.0365 -1.6922
 7463SOL    HW224397   1.910   8.000   2.826  0.0977 -1.2007 -1.3574
 7464SOL     OW24398   8.471   4.785   0.722  0.0074  0.0696  0.1648
 7464SOL    HW124399   8.534   4.727   0.764  0.4866  0.6610  0.2768
 7464SOL    HW224400   8.454   4.853   0.786  0.5394  0.8296 -0.4692
 7465SOL     OW24401   8.547   2.819   2.165  0.1242 -0.0286  0.0363
 7465SOL    HW124402   8.491   2.875   2.218  0.0169 -0.6203  0.5663
 7465SOL    HW224403   8.617   2.792   2.225  0.2254 -0.3784 -0.2349
 7466SOL     OW24404   9.070   5.970   3.516  0.0874 -0.2893  0.0840
 7466SOL    HW124405   9.059   5.901   3.581 -1.3101 -0.7173 -0.5696
 7466SOL    HW224406   8.991   5.966   3.463  0.3028  1.3574 -0.4185
 7467SOL     OW24407   1.607   6.145   8.765 -0.7818 -0.1195  0.0165
 7467SOL    HW124408   1.524   6.099   8.772 -0.4541 -0.5841  1.0714
 7467SOL    HW224409   1.590   6.217   8.704 -1.1519 -1.9582 -2.1700
 7468SOL     OW24410   1.373   4.385   1.240 -0.1054 -0.3804  0.0448
 7468SOL    HW124411   1.456   4.372   1.193 -1.3347 -0.5322 -2.2557
 7468SOL    HW224412   1.335   4.297   1.246 -0.5812 -0.1713  0.1168
 7469SOL     OW24413   8.390   7.793   4.369 -0.0214  0.3437 -0.2365
 7469SOL    HW124414   8.371   7.863   4.431  1.3761  0.3184  0.2628
 7469SOL    HW224415   8.434   7.837   4.296 -0.7999  0.2347 -0.7873
 7470SOL     OW24416   7.486   6.413   9.458 -0.0049 -0.4604  0.6471
 7470SOL    HW124417   7.479   6.432   9.551  1.5153 -2.3642  1.2079
 7470SOL    HW224418   7.580   6.407   9.441 -0.2658 -0.9140 -0.8354
 7471SOL     OW24419   0.499   7.152   9.553 -0.9703  0.0073  0.3388
 7471SOL    HW124420   0.570   7.180   9.495 -0.2996 -2.2099 -0.0164
 7471SOL    HW224421   0.463   7.234   9.589 -0.5146  1.3810 -2.1175
 7472SOL     OW24422   3.040  10.014   3.809 -0.2955 -0.0032  0.2402
 7472SOL    HW124423   3.075   9.934   3.848  0.4261  0.9046  1.5275
 7472SOL    HW224424   2.950   9.991   3.785 -0.3710 -0.9832  1.3458
 7473SOL     OW24425   5.182   8.033   4.431  0.5256 -0.1844 -0.0940
 7473SOL    HW124426   5.215   7.954   4.388  1.3024  0.3965 -0.5643
 7473SOL    HW224427   5.167   8.005   4.522  2.8174 -0.3538  0.2960
 7474SOL     OW24428   8.074   1.021   0.439  0.3378  0.0148 -0.1895
 7474SOL    HW124429   8.066   0.934   0.479  0.9495 -0.1255 -0.3675
 7474SOL    HW224430   7.983   1.050   0.427  0.0812 -1.1605 -1.3417
 7475SOL     OW24431   9.251   1.399   7.058 -0.1827 -0.2354  0.2039
 7475SOL    HW124432   9.322   1.356   7.104 -0.6345  0.4937  1.6426
 7475SOL    HW224433   9.192   1.329   7.032  1.6549 -1.0355 -2.2534
 7476SOL     OW24434  10.730   1.553   6.194  0.8132  0.3064  0.1449
 7476SOL    HW124435  10.697   1.547   6.105 -0.6288  1.5347  0.5656
 7476SOL    HW224436  10.783   1.473   6.206  1.3273  0.3026 -1.8942
 7477SOL     OW24437   4.173   0.001   0.832  0.3291  0.5960  0.1158
 7477SOL    HW124438   4.138  -0.021   0.919 -0.0335 -0.7650 -0.3491
 7477SOL    HW224439   4.108  -0.033   0.771  1.0124  0.7547 -0.7115
 7478SOL     OW24440   7.730   3.855   2.563  0.2947  0.1670 -0.1613
 7478SOL    HW124441   7.743   3.948   2.584 -0.0231 -0.1082  1.4261
 7478SOL    HW224442   7.801   3.833   2.503  1.0166  1.1908  0.2875
 7479SOL     OW24443   9.739   7.548   5.652 -0.4315  0.7132  0.0752
 7479SOL    HW124444   9.666   7.609   5.668 -1.0861  0.0714 -0.4071
 7479SOL    HW224445   9.697   7.468   5.621  0.5966  1.1186 -2.6715
 7480SOL     OW24446   5.829   4.819  10.189 -0.0268 -0.3321 -0.0803
 7480SOL    HW124447   5.771   4.895  10.184 -0.8545 -1.0046 -1.1647
 7480SOL    HW224448   5.772   4.747  10.217  0.4149 -0.8571 -0.5098
 7481SOL     OW24449   3.517   8.221   5.122 -0.5555 -0.0863 -0.5162
 7481SOL    HW124450   3.572   8.197   5.047  0.7705  0.2845  0.3018
 7481SOL    HW224451   3.578   8.226   5.195 -1.2711  2.6656 -0.0226
 7482SOL     OW24452  10.468   8.911   3.480 -0.3654  0.2177 -0.1030
 7482SOL    HW124453  10.527   8.836   3.477 -0.3742  0.1465  1.2362
 7482SOL    HW224454  10.426   8.906   3.565 -3.5858 -0.6636 -1.6000
 7483SOL     OW24455   8.228   7.863   6.322  0.5006  0.1986 -0.1385
 7483SOL    HW124456   8.240   7.772   6.351  1.0458 -0.0101 -0.9876
 7483SOL    HW224457   8.172   7.902   6.389  0.9971 -0.5115  0.7149
 7484SOL     OW24458   8.454   9.199   1.043 -0.5694 -0.0903 -0.5356
 7484SOL    HW124459   8.526   9.173   1.101 -0.0448  0.1874 -1.0519
 7484SOL    HW224460   8.383   9.138   1.064  0.0893 -0.8976 -0.5883
 7485SOL     OW24461   1.405   2.925   2.991  0.0515 -0.0876  0.0186
 7485SOL    HW124462   1.334   2.964   2.941 -0.6011  1.2260  1.8801
 7485SOL    HW224463   1.366   2.850   3.036 -0.3896  1.0155  1.5565
 7486SOL     OW24464   6.502   5.675   3.941  0.7683  0.4041 -0.3458
 7486SOL    HW124465   6.580   5.730   3.947  1.7898 -1.0358  0.2639
 7486SOL    HW224466   6.536   5.585   3.939 -0.7988 -0.2093 -2.1224
 7487SOL     OW24467   1.275   6.182  10.150 -0.3380  0.1305  0.0623
 7487SOL    HW124468   1.335   6.213  10.082 -0.3485 -3.7522 -1.9793
 7487SOL    HW224469   1.196   6.158  10.103 -0.5294 -2.2440  1.4516
 7488SOL     OW24470   3.166   8.774   0.592 -0.2426 -0.5404  0.7429
 7488SOL    HW124471   3.234   8.833   0.625  0.5811 -1.7043  1.1746
 7488SOL    HW224472   3.184   8.765   0.499 -0.4183 -0.0611  0.6603
 7489SOL     OW24473   5.951   0.260   4.399 -0.0337 -0.5681  0.0841
 7489SOL    HW124474   6.044   0.251   4.421  0.2796 -0.0743 -0.9577
 7489SOL    HW224475   5.912   0.302   4.476  0.8952  0.5185 -0.0175
 7490SOL     OW24476   9.643   5.611   0.947  0.1030  0.6613  0.2242
 7490SOL    HW124477   9.662   5.682   0.886 -1.6460  1.3748  0.4500
 7490SOL    HW224478   9.596   5.546   0.894 -0.4046  0.7617  0.5462
 7491SOL     OW24479   7.614   5.415   2.432  0.5011 -0.2866  0.4230
 7491SOL    HW124480   7.646   5.397   2.521 -0.8383 -0.1578  0.9516
 7491SOL    HW224481   7.692   5.443   2.384  1.0044  1.1133  1.9587
 7492SOL     OW24482   4.904  10.290   9.927  0.0911 -0.1422  0.1074
 7492SOL    HW124483   4.844  10.356   9.964 -0.7949 -0.7836 -0.1539
 7492SOL    HW224484   4.977  10.288   9.988 -1.0356 -0.7184  1.5115
 7493SOL     OW24485   8.526   4.397   7.587 -0.8036 -0.0528  0.1005
 7493SOL    HW124486   8.572   4.409   7.670  0.0405 -0.6649 -0.2717
 7493SOL    HW224487   8.502   4.304   7.587  0.1607 -0.3125 -0.8229
 7494SOL     OW24488   3.611   0.088   0.665  0.7499  0.4696  0.3392
 7494SOL    HW124489   3.586   0.155   0.600 -1.5414 -0.5032  0.1069
 7494SOL    HW224490   3.606   0.005   0.617  0.8251 -0.1106  1.3094
 7495SOL     OW24491   3.188   0.390   7.643  0.3719 -0.5722 -0.2590
 7495SOL    HW124492   3.151   0.322   7.587 -0.0848 -1.9004  1.5505
 7495SOL    HW224493   3.225   0.342   7.717  0.5337  1.1336  0.8189
 7496SOL     OW24494   8.203   5.650   2.293  0.2830 -0.4362  0.4825
 7496SOL    HW124495   8.184   5.733   2.337  0.9074  0.8665 -1.5754
 7496SOL    HW224496   8.217   5.588   2.365 -1.0263  1.0042  2.0884
 7497SOL     OW24497   1.003   8.614   7.818  0.1336 -0.4614  0.4745
 7497SOL    HW124498   0.958   8.655   7.892  0.7248  0.6924  0.2138
 7497SOL    HW224499   1.015   8.684   7.755  1.6426 -0.9071  0.2331
 7498SOL     OW24500   1.195   0.056   6.679  0.0857 -0.5315  0.7095
 7498SOL    HW124501   1.125   0.028   6.738 -1.2714 -0.3125 -0.7100
 7498SOL    HW224502   1.272   0.008   6.707 -0.8213 -1.3408  1.8767
 7499SOL     OW24503   1.370   8.529   1.131  0.2959 -0.2968  0.0706
 7499SOL    HW124504   1.402   8.620   1.136 -2.0758  0.7219 -1.3146
 7499SOL    HW224505   1.438   8.483   1.082  2.0280  0.4373  1.6500
 7500SOL     OW24506  10.534   4.946   3.205 -0.1951  0.0949 -0.4536
 7500SOL    HW124507  10.547   4.987   3.290 -0.1913 -0.5062 -0.1618
 7500SOL    HW224508  10.610   4.973   3.153 -0.9076  1.6327 -0.7367
 7501SOL     OW24509   2.784   2.498   5.751 -0.0276  0.6800 -0.0287
 7501SOL    HW124510   2.876   2.508   5.727  0.0548 -2.2176 -1.2513
 7501SOL    HW224511   2.769   2.404   5.752 -2.4855  0.9572  2.2520
 7502SOL     OW24512  10.725   1.001   9.320  0.0790  0.4574  0.7359
 7502SOL    HW124513  10.778   0.935   9.364 -1.3093 -3.5827 -2.9189
 7502SOL    HW224514  10.655   1.021   9.382  0.1119 -2.2266  1.7662
 7503SOL     OW24515   0.246   6.178   1.619 -0.3603  0.2041 -0.3835
 7503SOL    HW124516   0.317   6.221   1.667 -0.2926  0.5682 -0.8056
 7503SOL    HW224517   0.290   6.120   1.556 -0.4400  0.2773 -0.5078
 7504SOL     OW24518   7.813   0.886   7.288 -0.1555 -0.0963 -0.1796
 7504SOL    HW124519   7.768   0.849   7.364  0.2987  0.9155  0.5939
 7504SOL    HW224520   7.787   0.978   7.287 -1.2002 -0.3513 -2.0265
 7505SOL     OW24521   1.914   2.427   7.985  0.2160 -0.4174 -0.3090
 7505SOL    HW124522   1.836   2.460   8.030  1.4493  0.2918  1.4212
 7505SOL    HW224523   1.988   2.462   8.036  1.7342  0.3504 -2.8343
 7506SOL     OW24524   7.595   2.037   9.842  0.2306 -0.2068  0.0345
 7506SOL    HW124525   7.559   1.980   9.911 -0.9866  1.1619  0.5847
 7506SOL    HW224526   7.518   2.065   9.792  0.9986 -0.3563 -1.2479
 7507SOL     OW24527   0.894   2.102   3.658 -0.0983  0.1559 -0.0792
 7507SOL    HW124528   0.823   2.147   3.613  0.2136  0.1673 -0.5594
 7507SOL    HW224529   0.857   2.079   3.744 -0.1772  1.5177  0.2666
 7508SOL     OW24530   4.272   8.180   9.493  0.0596 -0.1788 -0.0276
 7508SOL    HW124531   4.345   8.189   9.432  1.4098  1.6553  1.7340
 7508SOL    HW224532   4.255   8.269   9.523 -1.8110 -0.7943  0.8732
 7509SOL     OW24533   0.162   2.106   5.326  0.4023 -0.0561 -0.2013
 7509SOL    HW124534   0.241   2.157   5.309  0.0841 -0.0841 -1.9944
 7509SOL    HW224535   0.188   2.015   5.307  0.3878 -0.3011  0.8926
 7510SOL     OW24536   3.064   4.624   1.612 -0.2348 -0.4225  0.4289
 7510SOL    HW124537   3.103   4.550   1.659  0.5378  0.9151  1.9799
 7510SOL    HW224538   3.091   4.701   1.662  1.2171  1.1959 -2.5883
 7511SOL     OW24539   3.015   0.816   8.299  0.3177  0.3420 -0.7710
 7511SOL    HW124540   3.105   0.785   8.296  0.3128  0.1376  0.4118
 7511SOL    HW224541   2.963   0.740   8.274  0.2727 -0.9683  2.6620
 7512SOL     OW24542   4.403   0.335   0.442 -1.1007  0.8484  0.2138
 7512SOL    HW124543   4.376   0.273   0.509  1.8459  0.1573  0.8677
 7512SOL    HW224544   4.377   0.294   0.359  1.5563 -1.8458  0.5659
 7513SOL     OW24545   5.592   3.803   8.409  0.3353  0.2506  0.3052
 7513SOL    HW124546   5.631   3.846   8.485  3.1822 -2.1528  0.3929
 7513SOL    HW224547   5.637   3.842   8.333  0.0166  0.2297  0.1038
 7514SOL     OW24548   9.274   5.158   9.236 -0.2767  0.1947 -0.4795
 7514SOL    HW124549   9.230   5.081   9.273 -3.3659  1.9893 -0.0295
 7514SOL    HW224550   9.316   5.200   9.311 -1.5331  0.6983 -0.0203
 7515SOL     OW24551   6.935   8.484   3.749  0.0430  0.0488  0.2511
 7515SOL    HW124552   6.934   8.577   3.726 -1.9828  0.4991  1.8937
 7515SOL    HW224553   6.961   8.482   3.841 -0.0746 -0.9936  0.2746
 7516SOL     OW24554   0.418   9.789  10.348 -0.3808 -0.0308 -0.0925
 7516SOL    HW124555   0.373   9.844  10.412 -0.0864 -1.0724  1.0473
 7516SOL    HW224556   0.482   9.847  10.307 -0.7587  0.7273  0.3559
 7517SOL     OW24557  10.369   1.423   7.283  0.4178  0.0148  0.2793
 7517SOL    HW124558  10.437   1.446   7.221  0.9642 -1.0156  0.4871
 7517SOL    HW224559  10.355   1.329   7.271 -0.9186  0.1879  0.2926
 7518SOL     OW24560   9.099   2.049   3.157 -0.1799  0.2851 -0.1273
 7518SOL    HW124561   9.193   2.055   3.138 -0.1483  0.5785  0.1002
 7518SOL    HW224562   9.058   2.038   3.072  0.0254  0.6814 -0.2830
 7519SOL     OW24563  10.867   7.511   6.779 -0.3080  0.1454  0.2883
 7519SOL    HW124564  10.806   7.539   6.711 -2.0791  1.0318  2.1057
 7519SOL    HW224565  10.853   7.417   6.786 -1.2218  0.2793  0.4146
 7520SOL     OW24566   1.613   1.990   9.563  0.0927  0.1376 -0.4141
 7520SOL    HW124567   1.590   2.074   9.523  2.3633  0.9260 -0.2620
 7520SOL    HW224568   1.533   1.939   9.560 -1.6981  2.6791  0.4821
 7521SOL     OW24569   4.236   7.823   7.145 -0.6780 -0.0948  0.5960
 7521SOL    HW124570   4.166   7.780   7.193 -1.6856  1.2922  0.4140
 7521SOL    HW224571   4.299   7.849   7.212  0.8204 -3.2084  0.5953
 7522SOL     OW24572  10.953   6.196  10.166  0.0788 -0.3383  0.3489
 7522SOL    HW124573  10.964   6.213  10.260 -0.9768 -2.0385  0.8206
 7522SOL    HW224574  10.909   6.111  10.162  0.6497 -0.5800 -1.7193
 7523SOL     OW24575   4.027   7.933   7.813 -0.3318  0.0390 -0.7013
 7523SOL    HW124576   3.940   7.918   7.774  0.0745 -0.0706 -1.5860
 7523SOL    HW224577   4.031   8.028   7.826  0.4827  0.4272 -3.3035
 7524SOL     OW24578   5.331   0.950   1.250 -0.1411 -0.2185 -0.0725
 7524SOL    HW124579   5.423   0.928   1.264  0.3142  0.9999 -1.0421
 7524SOL    HW224580   5.307   1.002   1.327 -0.0954 -0.6953  0.2739
 7525SOL     OW24581   2.301   2.037   5.365  0.2751  0.5911 -0.1682
 7525SOL    HW124582   2.242   2.047   5.440 -0.7612 -0.6245 -0.7728
 7525SOL    HW224583   2.364   1.970   5.393 -0.5201 -0.3644 -0.5761
 7526SOL     OW24584   2.192   0.305   9.251 -0.3871 -0.3795  0.8689
 7526SOL    HW124585   2.278   0.268   9.232  0.1657  1.5610 -0.7697
 7526SOL    HW224586   2.196   0.330   9.343  1.0359  0.1464  0.6963
 7527SOL     OW24587   5.175  10.578   9.053  0.2329 -0.2800 -0.2206
 7527SOL    HW124588   5.199  10.559   9.143  0.1466 -2.9850 -0.7076
 7527SOL    HW224589   5.251  10.624   9.017  0.2932  0.7761  1.1481
 7528SOL     OW24590   5.518   6.088  10.710 -0.8376 -0.7127 -0.4184
 7528SOL    HW124591   5.552   5.999  10.723  0.3191 -0.2818 -0.4090
 7528SOL    HW224592   5.487   6.088  10.619  0.7315 -0.6566 -0.9912
 7529SOL     OW24593   9.145   1.477   1.058 -0.6593 -0.2758 -0.1085
 7529SOL    HW124594   9.138   1.530   0.979  0.3057  1.3784  0.8489
 7529SOL    HW224595   9.062   1.490   1.104 -0.8158 -0.4023 -0.3561
 7530SOL     OW24596   9.630   6.407  11.028  0.5429 -0.1791 -0.2792
 7530SOL    HW124597   9.689   6.428  10.956  4.7371 -0.4410  2.6941
 7530SOL    HW224598   9.595   6.321  11.006  3.6324 -1.3965 -1.0794
 7531SOL     OW24599   1.309   6.676   8.999  0.2155  0.0912  0.4580
 7531SOL    HW124600   1.404   6.682   9.008  0.3142  1.6502 -1.1429
 7531SOL    HW224601   1.278   6.766   9.006 -0.9803 -0.2082 -0.6228
 7532SOL     OW24602   9.942   7.513   3.542 -0.3812  0.0669  1.0794
 7532SOL    HW124603   9.859   7.562   3.535  0.4208  1.4688  0.9335
 7532SOL    HW224604   9.976   7.511   3.453 -0.5365 -1.0574  1.0326
 7533SOL     OW24605   7.458   5.489   3.464  0.1989 -0.2345  0.4241
 7533SOL    HW124606   7.455   5.534   3.548  0.2846 -1.5288  1.1546
 7533SOL    HW224607   7.551   5.475   3.447  0.1421 -0.9498  0.6715
 7534SOL     OW24608   9.360   3.430   5.472  0.2864 -0.5040  0.0135
 7534SOL    HW124609   9.320   3.361   5.419 -0.1523 -0.0211 -0.2961
 7534SOL    HW224610   9.411   3.482   5.410 -0.4109  0.1990  0.0051
 7535SOL     OW24611   7.171   0.281   5.038  0.0001 -0.0417 -0.2212
 7535SOL    HW124612   7.188   0.357   5.093  0.7537 -0.5946  0.3253
 7535SOL    HW224613   7.079   0.259   5.055  0.5380 -0.9442  1.7758
 7536SOL     OW24614  10.023  10.352   2.833 -0.4297  0.6535  0.2994
 7536SOL    HW124615  10.083  10.330   2.762 -0.3364 -1.4633  0.9419
 7536SOL    HW224616  10.067  10.421   2.882  1.2659 -0.4744  0.4420
 7537SOL     OW24617   8.371   4.058   7.160  0.7711  0.3230  0.2369
 7537SOL    HW124618   8.461   4.041   7.131  1.3413 -0.0136  2.0643
 7537SOL    HW224619   8.379   4.132   7.220 -0.6834  2.4670 -2.0044
 7538SOL     OW24620   7.615   4.507   8.116 -0.5130 -0.1967  0.3519
 7538SOL    HW124621   7.595   4.417   8.140 -0.7496 -0.0959  0.5326
 7538SOL    HW224622   7.554   4.560   8.167 -0.1237  0.0874  0.5266
 7539SOL     OW24623   5.533   1.140   3.074  0.0814 -1.2110 -0.2241
 7539SOL    HW124624   5.584   1.070   3.114  1.5753 -0.0989 -0.1433
 7539SOL    HW224625   5.507   1.196   3.147 -2.4785 -2.4289 -0.0579
 7540SOL     OW24626   3.062   3.793   1.231 -0.2138 -0.3210 -0.0717
 7540SOL    HW124627   3.139   3.847   1.215  0.1562 -0.2569  1.7081
 7540SOL    HW224628   3.096   3.715   1.276 -1.0029 -1.0096 -0.6359
 7541SOL     OW24629  10.679   5.674   7.254 -0.0607 -0.3507  0.0804
 7541SOL    HW124630  10.761   5.721   7.263 -0.0399 -0.2704 -0.4950
 7541SOL    HW224631  10.702   5.582   7.271  0.2040 -0.3683 -0.3747
 7542SOL     OW24632   4.496   8.190   5.725 -0.2594  0.1197 -0.3563
 7542SOL    HW124633   4.560   8.137   5.677  0.4256  1.5253 -1.0739
 7542SOL    HW224634   4.449   8.238   5.658 -0.7371  0.5590  0.2777
 7543SOL     OW24635   8.673   0.477   3.066 -0.2905 -0.1566 -0.5229
 7543SOL    HW124636   8.617   0.416   3.018  0.2207 -1.2484  0.2205
 7543SOL    HW224637   8.761   0.458   3.034 -0.4084  2.7577 -3.0009
 7544SOL     OW24638   3.763   5.095   0.742 -0.1086 -0.1376  0.3843
 7544SOL    HW124639   3.668   5.084   0.733 -0.5339  2.7907  0.4832
 7544SOL    HW224640   3.793   5.113   0.653 -0.1679  1.9454  0.7397
 7545SOL     OW24641   0.103  10.991   8.767  0.4744  0.7092 -0.1830
 7545SOL    HW124642   0.020  11.036   8.752 -1.9102 -3.4406 -1.2201
 7545SOL    HW224643   0.107  10.976   8.861 -0.1992  0.5762 -0.1738
 7546SOL     OW24644   5.444   3.107  10.020  0.4283  0.2068 -0.0410
 7546SOL    HW124645   5.375   3.044  10.042  0.6267 -0.2064 -0.5663
 7546SOL    HW224646   5.510   3.055   9.974  0.9718  0.6491  0.2305
 7547SOL     OW24647   0.722  10.828   7.730  0.1794  0.0510 -0.5729
 7547SOL    HW124648   0.702  10.773   7.806 -1.0145  0.3283 -0.6634
 7547SOL    HW224649   0.771  10.902   7.765  0.9366 -0.5709 -0.3015
 7548SOL     OW24650   0.833  10.005   8.704 -0.6251  0.0442  0.1331
 7548SOL    HW124651   0.797   9.993   8.616  0.7114  0.2705 -0.4605
 7548SOL    HW224652   0.872  10.092   8.702  1.6725 -0.9386  0.1191
 7549SOL     OW24653   4.037   2.863  10.485  0.6151  0.2855  0.3066
 7549SOL    HW124654   4.111   2.811  10.517  0.3442 -0.9072 -0.9322
 7549SOL    HW224655   4.074   2.949  10.466  1.1034  0.5663  2.2691
 7550SOL     OW24656   1.784   3.754   9.271  0.1203  0.0276 -0.2295
 7550SOL    HW124657   1.783   3.658   9.272 -0.7544  0.0185 -1.0122
 7550SOL    HW224658   1.876   3.777   9.286  0.3421 -0.9293 -0.0523
 7551SOL     OW24659   3.287   4.338   3.671 -0.2709  0.3626  0.2551
 7551SOL    HW124660   3.219   4.404   3.658 -0.4065  0.1035 -0.3878
 7551SOL    HW224661   3.328   4.328   3.585  0.4511  0.3668  0.5848
 7552SOL     OW24662   5.666  10.038   5.658  0.0522 -0.6488  0.4059
 7552SOL    HW124663   5.705  10.100   5.597  0.2934 -1.0400  0.1536
 7552SOL    HW224664   5.689  10.071   5.744  1.6308 -1.2805  0.2630
 7553SOL     OW24665   2.051   7.934   1.186  0.5250 -0.2817 -0.7817
 7553SOL    HW124666   1.968   7.953   1.141  0.1723 -0.5174 -0.2535
 7553SOL    HW224667   2.118   7.979   1.135  0.2527 -1.2662 -2.0566
 7554SOL     OW24668   3.890   0.835   9.661  0.0512  0.2731 -0.4523
 7554SOL    HW124669   3.944   0.880   9.596  0.0526 -0.0399 -0.6722
 7554SOL    HW224670   3.878   0.899   9.731  1.8006 -0.0622  0.2063
 7555SOL     OW24671   8.253   8.793   2.839 -0.0990 -0.2977  0.2173
 7555SOL    HW124672   8.324   8.762   2.783 -0.4107  1.1146 -1.0350
 7555SOL    HW224673   8.284   8.878   2.871 -2.1219  1.5720 -2.3630
 7556SOL     OW24674   2.546   5.349   5.566  0.2243 -0.0771  0.0731
 7556SOL    HW124675   2.524   5.421   5.625  2.6756 -1.3980  2.8636
 7556SOL    HW224676   2.462   5.321   5.529 -1.3552  1.3187  2.3702
 7557SOL     OW24677   7.988   6.435   3.629 -0.1045  0.0918  0.5443
 7557SOL    HW124678   8.075   6.420   3.591  0.1685  1.3218  0.6455
 7557SOL    HW224679   7.928   6.431   3.554  0.1350  0.0277  0.3555
 7558SOL     OW24680   7.581   7.943   1.561 -0.6197 -0.3690 -0.6018
 7558SOL    HW124681   7.565   7.870   1.620 -2.4681 -0.2657 -0.9317
 7558SOL    HW224682   7.675   7.938   1.542 -0.1346 -0.8619  1.6912
 7559SOL     OW24683   7.409   4.893   8.317  0.2556 -0.4074  0.6569
 7559SOL    HW124684   7.422   4.986   8.333 -3.4123  0.2990  0.3594
 7559SOL    HW224685   7.396   4.855   8.404 -1.6030  0.0635  0.6279
 7560SOL     OW24686   8.073   9.502   5.825  0.0245 -0.3158 -0.1870
 7560SOL    HW124687   8.055   9.440   5.754 -0.4094 -1.5485  0.9514
 7560SOL    HW224688   7.988   9.540   5.846 -0.2655 -1.5584  1.0676
 7561SOL     OW24689   2.296   4.667   4.978  0.2784  0.0151 -0.2634
 7561SOL    HW124690   2.204   4.645   4.964  0.0464  0.9365 -0.2452
 7561SOL    HW224691   2.317   4.627   5.062 -0.2591  0.2387 -0.0148
 7562SOL     OW24692   4.061   8.237   1.801 -0.1102  0.1381  0.3125
 7562SOL    HW124693   4.080   8.158   1.751  1.2915 -1.7348  3.4870
 7562SOL    HW224694   4.135   8.296   1.782  0.1247 -0.3148 -0.1990
 7563SOL     OW24695   2.271   1.858   6.360 -0.2536 -0.2927 -0.2756
 7563SOL    HW124696   2.313   1.851   6.445  0.7358 -0.0523 -0.7399
 7563SOL    HW224697   2.282   1.949   6.334 -1.2522 -0.1673 -0.3184
 7564SOL     OW24698   3.528   4.179   1.607 -0.5097  0.1961 -0.3014
 7564SOL    HW124699   3.623   4.169   1.603 -0.6429 -0.8331 -1.9578
 7564SOL    HW224700   3.497   4.097   1.645 -0.6834  1.1615  1.7594
 7565SOL     OW24701   8.209   0.017   0.174  0.1219 -0.2292 -0.3578
 7565SOL    HW124702   8.253   0.079   0.231 -0.7214  0.1989 -0.1498
 7565SOL    HW224703   8.169   0.071   0.106  1.1410 -0.7323 -1.3897
 7566SOL     OW24704  10.058   8.587   7.049 -0.3165 -0.0553 -0.0303
 7566SOL    HW124705   9.964   8.587   7.029  0.0131  0.7878 -1.7377
 7566SOL    HW224706  10.067   8.653   7.118 -0.9693 -0.1603  0.1683
 7567SOL     OW24707   7.898   1.716   1.642 -0.1097 -0.2402  0.3646
 7567SOL    HW124708   7.959   1.642   1.645  1.9802  1.3323 -0.5745
 7567SOL    HW224709   7.870   1.720   1.550  1.2564  1.1885 -0.0266
 7568SOL     OW24710   6.924  10.197   2.886  0.2022 -0.6069 -0.0024
 7568SOL    HW124711   6.896  10.106   2.892  0.3619 -0.6164  0.7450
 7568SOL    HW224712   6.982  10.200   2.810 -0.4606 -0.9475 -0.5305
 7569SOL     OW24713   9.235   1.989   9.383  0.0772 -0.8961 -0.2972
 7569SOL    HW124714   9.248   2.042   9.304  0.7892 -0.5190  0.0721
 7569SOL    HW224715   9.191   1.910   9.351  2.1300 -1.6657 -1.4190
 7570SOL     OW24716   0.106   3.284   9.255  0.1817 -0.1441 -0.1611
 7570SOL    HW124717   0.137   3.333   9.179  0.6637  2.0520  1.3913
 7570SOL    HW224718   0.076   3.200   9.218 -0.5712  1.2235 -2.8963
 7571SOL     OW24719   2.398   6.319   4.107  0.3752  0.1615 -0.4965
 7571SOL    HW124720   2.439   6.233   4.096  0.9206  0.6491 -2.8779
 7571SOL    HW224721   2.472   6.379   4.117 -0.0163  0.3350  1.9659
 7572SOL     OW24722  10.295   0.392   3.435 -0.3369  0.4853  0.5771
 7572SOL    HW124723  10.257   0.429   3.515 -0.0290  0.9937  0.4972
 7572SOL    HW224724  10.313   0.301   3.457 -3.7272 -0.4616 -0.1232
 7573SOL     OW24725   8.998   5.626   9.627 -0.3118 -0.3462 -0.1953
 7573SOL    HW124726   9.007   5.563   9.699  0.3884  1.1814  1.0968
 7573SOL    HW224727   9.051   5.589   9.557  2.1253 -0.0607  1.3816
 7574SOL     OW24728  10.160   8.893  10.239 -0.6867  0.0742  0.1981
 7574SOL    HW124729  10.180   8.969  10.293 -0.0953  1.2811 -1.6049
 7574SOL    HW224730  10.180   8.818  10.294  1.3634  1.2183  1.1311
 7575SOL     OW24731  10.158   1.893   7.187 -0.0084  0.9084  0.3314
 7575SOL    HW124732  10.212   1.898   7.266  0.3248  2.3422  0.0567
 7575SOL    HW224733  10.154   1.984   7.155 -0.9182  0.5119 -0.7739
 7576SOL     OW24734   1.684   4.542   3.299  0.1189 -0.5118  0.7751
 7576SOL    HW124735   1.635   4.506   3.225  1.7651  1.1605 -1.2778
 7576SOL    HW224736   1.732   4.468   3.335  0.5707 -1.1022 -0.9497
 7577SOL     OW24737   9.390   9.381   9.988  0.0322 -0.2769  0.3058
 7577SOL    HW124738   9.390   9.471   9.957  0.7303 -0.4386 -0.1799
 7577SOL    HW224739   9.429   9.385  10.075  0.3740 -0.1566  0.1467
 7578SOL     OW24740   8.704   2.643   2.827  0.6488 -0.1806 -0.3121
 7578SOL    HW124741   8.638   2.708   2.851  0.8483 -0.1706  0.2351
 7578SOL    HW224742   8.744   2.618   2.911  1.3651 -0.1499 -0.6389
 7579SOL     OW24743   1.685   1.579   5.394 -0.0031 -0.2922 -0.1838
 7579SOL    HW124744   1.607   1.635   5.393  0.0492 -0.1705 -2.7257
 7579SOL    HW224745   1.696   1.551   5.303  1.9648 -1.6728  0.4194
 7580SOL     OW24746   8.134   4.142   8.233 -0.0391 -0.1367 -0.0664
 7580SOL    HW124747   8.080   4.072   8.269  0.2916 -0.9203 -1.0427
 7580SOL    HW224748   8.199   4.161   8.302 -1.2519  0.5099  0.9342
 7581SOL     OW24749   9.937   4.238   7.383  0.0362 -0.3521  0.6178
 7581SOL    HW124750   9.848   4.203   7.384  0.3469 -1.1472  0.8359
 7581SOL    HW224751   9.979   4.201   7.461  0.9625 -1.0455 -0.1942
 7582SOL     OW24752  10.624   5.097   8.914  0.7529  0.3942  0.7096
 7582SOL    HW124753  10.709   5.117   8.874  0.3476 -0.2160 -0.5144
 7582SOL    HW224754  10.566   5.081   8.840 -0.6131  1.4666  1.5076
 7583SOL     OW24755  10.086   0.581   1.510  0.2470  0.0478  0.0861
 7583SOL    HW124756  10.081   0.651   1.445 -0.5502 -0.4724 -0.4308
 7583SOL    HW224757  10.125   0.623   1.587 -0.0983  1.0296 -0.2551
 7584SOL     OW24758   9.777   5.768   9.855 -0.1330  0.3102 -0.4809
 7584SOL    HW124759   9.858   5.773   9.905  0.3319  0.2727 -1.2206
 7584SOL    HW224760   9.736   5.854   9.866 -0.7791 -0.1649  1.1673
 7585SOL     OW24761  10.128   3.608   1.110 -0.4984  0.0459 -0.0785
 7585SOL    HW124762  10.219   3.619   1.139  0.0324 -4.2755  0.5587
 7585SOL    HW224763  10.121   3.663   1.032  2.6730  0.5024 -0.1787
 7586SOL     OW24764   8.003   3.892   4.607  0.3611 -0.2399 -0.4949
 7586SOL    HW124765   8.068   3.827   4.633  0.1729 -0.7654 -1.3075
 7586SOL    HW224766   7.956   3.851   4.534  0.1100  0.7259 -0.8864
 7587SOL     OW24767   3.920   7.552   4.013 -0.7556  0.0450  0.5730
 7587SOL    HW124768   3.877   7.638   4.010 -0.7601  0.0824  1.4817
 7587SOL    HW224769   3.991   7.559   3.948  0.1427  1.2465  1.6122
 7588SOL     OW24770   7.474   9.589   0.931  0.7458  0.1330 -0.1893
 7588SOL    HW124771   7.431   9.519   0.981 -0.5026  0.5296 -0.6838
 7588SOL    HW224772   7.500   9.548   0.849  0.3673  0.1512 -0.3181
 7589SOL     OW24773   0.297   6.023   7.333  0.1406  0.7767 -0.3948
 7589SOL    HW124774   0.381   5.982   7.350  1.8739  3.6011 -1.4359
 7589SOL    HW224775   0.264   5.979   7.255  1.5740  0.8526 -1.0723
 7590SOL     OW24776   0.110   5.422   0.740  0.0982 -0.0922  0.0556
 7590SOL    HW124777   0.175   5.490   0.722 -0.2600  0.1732 -0.2342
 7590SOL    HW224778   0.155   5.362   0.800  1.0258 -0.5357 -1.0338
 7591SOL     OW24779   2.012  10.698   1.126 -0.3449 -0.4479 -0.2995
 7591SOL    HW124780   2.086  10.740   1.169 -1.0974 -0.8197  1.4268
 7591SOL    HW224781   1.942  10.763   1.128 -0.7160 -0.8502  0.0460
 7592SOL     OW24782   6.392   9.036  10.221  0.0931 -0.1534 -0.4457
 7592SOL    HW124783   6.375   9.128  10.243 -0.7193 -0.3812 -0.0753
 7592SOL    HW224784   6.484   9.023  10.243 -0.5066 -0.2135  2.3429
 7593SOL     OW24785   2.542   3.134  10.682 -0.2192  0.0335  0.0775
 7593SOL    HW124786   2.592   3.118  10.761 -0.0135 -0.9815 -0.2499
 7593SOL    HW224787   2.591   3.090  10.612  0.0752  1.6191 -0.7875
 7594SOL     OW24788   3.028   2.175   9.690 -0.0194 -0.5804  0.6612
 7594SOL    HW124789   3.043   2.234   9.764 -0.9056 -0.6156  0.8774
 7594SOL    HW224790   3.042   2.230   9.612  1.8307 -0.7697  0.8186
 7595SOL     OW24791   0.954   5.582   1.632 -0.6918 -0.4024 -0.0460
 7595SOL    HW124792   0.921   5.498   1.664 -0.0211 -0.3360  0.8961
 7595SOL    HW224793   1.019   5.608   1.698 -0.7378  0.7540 -0.4340
 7596SOL     OW24794   0.367  10.394   7.611  0.4170 -0.2410  0.5290
 7596SOL    HW124795   0.325  10.472   7.647  1.3894  0.4347  0.2427
 7596SOL    HW224796   0.424  10.427   7.542 -0.0727 -1.3449 -0.4296
 7597SOL     OW24797   5.554   1.444   9.610  0.5163  0.0678 -0.1570
 7597SOL    HW124798   5.596   1.528   9.627 -1.0567  0.7281  0.8018
 7597SOL    HW224799   5.470   1.451   9.656  0.4180 -2.0945  0.0799
 7598SOL     OW24800  10.906   2.131   6.118 -0.1486 -0.0868 -0.3564
 7598SOL    HW124801  10.964   2.079   6.174 -0.3065  0.6403  0.5158
 7598SOL    HW224802  10.818   2.111   6.149 -0.1623  1.6861  0.9506
 7599SOL     OW24803   9.139   7.156   2.192 -0.0203 -0.2799 -0.0677
 7599SOL    HW124804   9.053   7.134   2.229 -0.3528 -0.3552 -0.8637
 7599SOL    HW224805   9.162   7.080   2.139  0.9534 -0.6363  0.8275
 7600SOL     OW24806   8.068   9.322   6.683  0.1805  0.0579 -0.3939
 7600SOL    HW124807   8.118   9.397   6.715  1.1101 -0.2112 -1.1741
 7600SOL    HW224808   8.051   9.269   6.761  2.3491 -0.5631 -0.2757
 7601SOL     OW24809   4.869   6.071   0.407  0.2222  0.2364 -0.3762
 7601SOL    HW124810   4.932   6.068   0.335  1.2349  0.7262  0.4634
 7601SOL    HW224811   4.899   6.003   0.468  0.0984  0.6361  0.1456
 7602SOL     OW24812   4.560   0.404  10.176  0.1068 -0.1697 -0.5894
 7602SOL    HW124813   4.648   0.392  10.139 -0.6266  1.4808 -3.1800
 7602SOL    HW224814   4.548   0.499  10.179 -0.5479 -0.2616  2.5896
 7603SOL     OW24815   6.695   3.315   1.057  0.4770  0.6715 -0.0641
 7603SOL    HW124816   6.777   3.349   1.021  2.0557 -1.0023  1.7609
 7603SOL    HW224817   6.628   3.368   1.015  2.5028  2.6090 -1.0887
 7604SOL     OW24818   4.958   9.134   5.745 -0.0665  0.7650  0.1656
 7604SOL    HW124819   4.961   9.107   5.653  0.4296 -2.5449  1.0232
 7604SOL    HW224820   4.899   9.071   5.786  2.7175 -0.3727  2.7551
 7605SOL     OW24821   2.241   1.365  11.019  0.4844 -0.5423  0.0048
 7605SOL    HW124822   2.269   1.337  11.107 -0.0468 -4.3094 -0.8458
 7605SOL    HW224823   2.322   1.381  10.972  0.8920 -1.3903  0.3920
 7606SOL     OW24824   2.563   5.799  10.167 -0.5093 -0.4453  0.0878
 7606SOL    HW124825   2.499   5.728  10.155 -1.4617  0.2344  1.0772
 7606SOL    HW224826   2.514   5.879  10.148  0.1268  0.0687  0.6047
 7607SOL     OW24827   4.411  10.574   4.639 -0.1636 -0.2255  0.2439
 7607SOL    HW124828   4.346  10.642   4.623  1.7959  2.2630  1.8650
 7607SOL    HW224829   4.394  10.544   4.728  1.1754  0.8790  0.9070
 7608SOL     OW24830   4.650   1.075   4.098  0.5336 -0.4973 -0.0235
 7608SOL    HW124831   4.566   1.038   4.127  0.3417  1.5281  2.3409
 7608SOL    HW224832   4.649   1.064   4.003 -2.2405 -0.8882 -0.0393
 7609SOL     OW24833   4.874   5.751   4.768 -0.6769  0.9358  0.3864
 7609SOL    HW124834   4.845   5.835   4.732 -1.6723  0.9083  1.0922
 7609SOL    HW224835   4.949   5.773   4.823  0.3291  1.0840 -0.9817
 7610SOL     OW24836   8.332   1.062   0.397 -0.3957  0.4063  0.1073
 7610SOL    HW124837   8.352   1.111   0.477 -0.2869  0.5633 -0.0159
 7610SOL    HW224838   8.237   1.054   0.397 -0.3701  0.1198  0.4233
 7611SOL     OW24839   7.505   5.529   0.624 -0.1376 -0.1847 -0.3966
 7611SOL    HW124840   7.525   5.498   0.535  1.7277  1.3480 -0.5687
 7611SOL    HW224841   7.589   5.556   0.659 -0.7365 -1.3254  2.1286
 7612SOL     OW24842   2.987   9.875   9.827  0.5927 -0.8089  0.3888
 7612SOL    HW124843   2.894   9.852   9.833  0.4815 -0.4673  0.0326
 7612SOL    HW224844   3.025   9.846   9.910  0.4937 -2.4107 -0.1020
 7613SOL     OW24845   9.636   5.937   9.249  0.4143 -0.4034 -0.1867
 7613SOL    HW124846   9.595   5.986   9.177 -0.7663  0.7051  1.1752
 7613SOL    HW224847   9.729   5.955   9.240  0.0544  1.8715  0.0302
 7614SOL     OW24848   4.361   9.067   1.188  0.0142 -0.3728  0.4861
 7614SOL    HW124849   4.391   8.995   1.133  0.5750 -1.2920  1.9533
 7614SOL    HW224850   4.275   9.038   1.220 -1.3886  1.1358 -1.6328
 7615SOL     OW24851   6.506   8.374   0.192 -0.2590 -0.4350  0.4325
 7615SOL    HW124852   6.427   8.389   0.245 -1.0240 -1.8694 -0.2485
 7615SOL    HW224853   6.500   8.441   0.123 -0.4879 -0.0610  0.8053
 7616SOL     OW24854   5.692   4.506   9.580  1.0203 -0.3659 -0.3951
 7616SOL    HW124855   5.762   4.465   9.631  1.8018  0.1047 -1.0733
 7616SOL    HW224856   5.674   4.588   9.625 -0.1531 -1.1499  0.6369
 7617SOL     OW24857   1.342   2.653  10.060 -0.1325  0.2225  0.4102
 7617SOL    HW124858   1.333   2.692   9.973  0.4127 -0.9016 -0.1709
 7617SOL    HW224859   1.429   2.613  10.060 -0.2440 -0.0563  1.3798
 7618SOL     OW24860   4.499   9.855  10.122  0.5545  0.1111 -0.2698
 7618SOL    HW124861   4.536   9.879  10.207  2.3101 -0.1831 -0.8954
 7618SOL    HW224862   4.538   9.917  10.061 -2.0005  1.4109 -0.6823
 7619SOL     OW24863   5.157   0.750   5.637  0.0783  0.2199 -0.2405
 7619SOL    HW124864   5.092   0.735   5.568 -0.8103  0.8934  0.4207
 7619SOL    HW224865   5.240   0.760   5.590 -0.5280  0.7794 -1.2278
 7620SOL     OW24866  10.144   9.818   6.952  0.6804 -0.5462  0.1587
 7620SOL    HW124867  10.135   9.731   6.990  0.6833 -0.3680  0.5781
 7620SOL    HW224868  10.076   9.870   6.994 -1.5536 -1.1051 -2.4792
 7621SOL     OW24869   7.275   2.852   0.568 -0.1553 -0.7830  0.4116
 7621SOL    HW124870   7.239   2.928   0.613 -0.2532  0.3307 -1.4350
 7621SOL    HW224871   7.369   2.857   0.581 -0.2363 -0.8331  1.0135
 7622SOL     OW24872   0.542   6.078   3.972 -0.0663 -0.2165  0.3610
 7622SOL    HW124873   0.516   6.069   3.881  0.1398  0.0844  0.2708
 7622SOL    HW224874   0.552   5.988   4.003  1.1889 -0.3388 -0.3042
 7623SOL     OW24875   3.067   9.140   9.568  0.4734  0.5705 -0.1357
 7623SOL    HW124876   3.118   9.069   9.608  1.0310  0.5138 -0.9193
 7623SOL    HW224877   3.058   9.205   9.637  0.1321 -0.1716  0.5361
 7624SOL     OW24878   1.298   5.020   1.188  0.1809  0.1218  0.3503
 7624SOL    HW124879   1.220   4.982   1.227 -0.4456  1.8695  0.9156
 7624SOL    HW224880   1.360   5.028   1.261  0.2691  0.2655  0.2607
 7625SOL     OW24881   3.465   3.192   1.886  0.2469 -0.9486 -0.5456
 7625SOL    HW124882   3.547   3.149   1.909  0.7117  0.9041  1.6364
 7625SOL    HW224883   3.401   3.155   1.947  0.9239  2.0948  2.3243
 7626SOL     OW24884   2.125   5.399   9.663 -0.0992 -0.2053 -0.3646
 7626SOL    HW124885   2.151   5.315   9.700  0.6752 -0.2656 -1.0018
 7626SOL    HW224886   2.072   5.376   9.586 -0.6221 -0.0948 -0.0451
 7627SOL     OW24887   1.817   0.768   3.645 -0.2144 -0.7545 -0.2281
 7627SOL    HW124888   1.838   0.741   3.556  0.6192  0.3916 -0.3921
 7627SOL    HW224889   1.723   0.786   3.643 -0.2677 -1.0676 -0.7746
 7628SOL     OW24890  10.972   7.290  10.635  0.1314 -0.2597  0.0214
 7628SOL    HW124891  10.965   7.367  10.691  0.9495 -0.6263  0.6651
 7628SOL    HW224892  11.035   7.313  10.568 -0.0065 -0.2006 -0.0884
 7629SOL     OW24893  10.745  10.252   4.952 -0.0845 -0.2238 -0.4893
 7629SOL    HW124894  10.822  10.299   4.985 -0.3596  0.7362 -1.1596
 7629SOL    HW224895  10.747  10.167   4.996  1.5423 -0.3435 -0.7517
 7630SOL     OW24896   6.333   6.325  10.612 -0.2437  0.1179  0.3595
 7630SOL    HW124897   6.361   6.301  10.524 -0.7837 -0.1943  0.2648
 7630SOL    HW224898   6.399   6.287  10.670  0.8802  1.5135  0.0320
 7631SOL     OW24899   8.116   3.026   6.632  0.8332  0.0983 -0.3083
 7631SOL    HW124900   8.087   2.971   6.705  0.5995 -0.3658 -0.7454
 7631SOL    HW224901   8.037   3.075   6.607  0.2304 -1.5566 -1.8499
 7632SOL     OW24902   5.047   7.090   4.494 -0.6756  0.2467 -0.0560
 7632SOL    HW124903   5.095   7.097   4.577 -1.6960 -1.0400  0.6664
 7632SOL    HW224904   5.105   7.040   4.437 -1.0201 -1.0645  0.7206
 7633SOL     OW24905   0.003   5.784   7.576 -0.1122 -0.8320 -0.2270
 7633SOL    HW124906   0.033   5.817   7.491  0.0495  0.2363  0.2319
 7633SOL    HW224907  -0.092   5.792   7.572 -0.0402  0.3018  0.1150
 7634SOL     OW24908   1.465   2.633   2.346  0.2714 -0.2685 -0.1223
 7634SOL    HW124909   1.549   2.606   2.382 -0.4733 -2.7084 -0.0285
 7634SOL    HW224910   1.430   2.554   2.304 -2.0569  0.6132 -0.0022
 7635SOL     OW24911   4.060  10.334   8.531  0.4223 -0.5142  0.0202
 7635SOL    HW124912   4.090  10.371   8.448  0.4673 -1.6663 -0.5035
 7635SOL    HW224913   3.991  10.273   8.506  0.0149 -0.4220  0.8953
 7636SOL     OW24914   2.161   8.681   1.066 -0.1320  0.0675 -0.0564
 7636SOL    HW124915   2.186   8.759   1.115  0.0744 -0.8095  1.2807
 7636SOL    HW224916   2.071   8.699   1.037 -0.4314  0.4401  1.0473
 7637SOL     OW24917   4.828  10.915   6.782 -0.4428  0.2718  0.1289
 7637SOL    HW124918   4.852  10.884   6.694 -1.4542  1.6519 -0.6745
 7637SOL    HW224919   4.803  10.836   6.829  2.0302 -0.7730 -0.1276
 7638SOL     OW24920   8.987   0.506   1.908  0.7568 -0.2153 -0.4510
 7638SOL    HW124921   9.080   0.529   1.917  0.3883  1.4707 -0.5331
 7638SOL    HW224922   8.981   0.416   1.939  2.3639 -0.2247 -0.0873
 7639SOL     OW24923   9.443   2.515   0.301  0.0370 -0.4066 -0.9640
 7639SOL    HW124924   9.485   2.557   0.225  0.6972 -0.2603 -0.5256
 7639SOL    HW224925   9.443   2.422   0.280  0.0504 -0.3490 -1.2247
 7640SOL     OW24926   4.276   7.309  10.910 -0.3518  0.1914 -0.0723
 7640SOL    HW124927   4.293   7.386  10.963  0.2202  0.5957 -0.8181
 7640SOL    HW224928   4.358   7.293  10.864 -0.4064 -0.9785  0.2061
 7641SOL     OW24929   2.366   7.337  10.536  0.0888  0.0380  0.1719
 7641SOL    HW124930   2.384   7.245  10.519  0.5545  0.0721  0.4546
 7641SOL    HW224931   2.436   7.365  10.595 -0.2055  0.5017  0.3113
 7642SOL     OW24932   3.063   1.577   5.375  0.1593 -0.1507 -0.0501
 7642SOL    HW124933   3.020   1.492   5.388  1.9297 -1.3383 -1.4826
 7642SOL    HW224934   3.079   1.609   5.463 -2.5521 -0.1606  0.5561
 7643SOL     OW24935   1.603   9.670  10.693 -0.1431  0.1573  0.1924
 7643SOL    HW124936   1.593   9.765  10.693 -0.0288  0.1707  0.4752
 7643SOL    HW224937   1.682   9.654  10.746 -1.4446 -0.2177  2.1130
 7644SOL     OW24938   1.745   4.797   5.154  0.3780 -0.4796  0.0538
 7644SOL    HW124939   1.777   4.867   5.210  0.3750 -1.1507  0.9155
 7644SOL    HW224940   1.728   4.839   5.070  1.9149  0.2356  0.0636
 7645SOL     OW24941   3.692   7.622   4.809  0.3827  0.6037 -0.2253
 7645SOL    HW124942   3.693   7.589   4.898 -0.5906 -0.4531 -0.5796
 7645SOL    HW224943   3.615   7.679   4.805  1.0560  1.5479 -0.1009
 7646SOL     OW24944   9.437   1.922   9.122  0.0695 -0.4516 -1.0407
 7646SOL    HW124945   9.453   1.834   9.157 -1.9673 -0.5756 -0.2864
 7646SOL    HW224946   9.352   1.915   9.078  0.2452  0.9664 -1.6693
 7647SOL     OW24947   7.141   0.721   1.983 -0.0275  0.7970  0.7463
 7647SOL    HW124948   7.169   0.692   2.070  0.7558  1.7338  0.8334
 7647SOL    HW224949   7.188   0.804   1.970 -1.6080  1.6669  0.2418
 7648SOL     OW24950   2.551   7.607   8.911  0.0763 -0.4295 -0.1668
 7648SOL    HW124951   2.582   7.550   8.982 -2.1776  1.2407  2.3744
 7648SOL    HW224952   2.595   7.690   8.926  0.3541 -0.3326 -1.4191
 7649SOL     OW24953   1.702   9.349   2.803  0.5316  0.5866  0.1714
 7649SOL    HW124954   1.636   9.375   2.738  2.5736  2.9683 -1.1133
 7649SOL    HW224955   1.742   9.270   2.766  1.0133  1.3610 -1.0249
 7650SOL     OW24956   0.777   7.083   1.740 -0.7236 -0.2579  0.4915
 7650SOL    HW124957   0.799   7.109   1.650  0.5636  2.7684  1.5600
 7650SOL    HW224958   0.752   6.991   1.732 -0.5783 -0.1503 -2.9368
 7651SOL     OW24959   5.406   4.044  10.235 -1.0545  0.3980 -0.3568
 7651SOL    HW124960   5.491   4.005  10.217 -1.1257 -0.0453  0.2378
 7651SOL    HW224961   5.406   4.060  10.329 -1.6257  0.3885 -0.3494
 7652SOL     OW24962   4.317   4.771   1.836 -0.7483 -0.2442  0.4777
 7652SOL    HW124963   4.308   4.816   1.751  0.0770  0.8378  0.9330
 7652SOL    HW224964   4.243   4.711   1.839 -0.9625 -0.0911 -0.8837
 7653SOL     OW24965   8.620   6.468   0.278  0.6651  0.4531  0.3868
 7653SOL    HW124966   8.680   6.529   0.235  0.1029  0.2503 -0.7433
 7653SOL    HW224967   8.548   6.523   0.309  0.0162  0.3690 -0.8898
 7654SOL     OW24968   2.575  10.894   7.411 -0.1775  0.3620  0.2698
 7654SOL    HW124969   2.661  10.865   7.439 -0.9530 -2.0411  0.4017
 7654SOL    HW224970   2.546  10.954   7.479  0.9879  0.4140  0.7345
 7655SOL     OW24971   9.837  10.095   4.174  0.3290 -0.0859  0.6678
 7655SOL    HW124972   9.856  10.001   4.175  0.2808 -0.2291 -2.5630
 7655SOL    HW224973   9.919  10.136   4.148  0.4827  0.8723  2.5206
 7656SOL     OW24974   9.274   2.473   2.097  0.1385  0.3886 -0.1993
 7656SOL    HW124975   9.307   2.393   2.138  0.8924 -0.0602 -1.6129
 7656SOL    HW224976   9.191   2.491   2.141  0.5906 -0.4275  1.0354
 7657SOL     OW24977   3.041   0.469   9.864 -0.3340  0.0033 -0.0077
 7657SOL    HW124978   3.003   0.500   9.782 -0.3718  0.5799  0.2206
 7657SOL    HW224979   3.063   0.549   9.912  1.2927 -0.2919 -0.1790
 7658SOL     OW24980   2.254  10.398   9.438  0.1103 -0.1898 -0.7614
 7658SOL    HW124981   2.338  10.379   9.396 -0.0115 -1.4878 -0.4750
 7658SOL    HW224982   2.213  10.463   9.381  0.2629 -1.3406 -2.2432
 7659SOL     OW24983  10.455   0.656   4.888 -0.7516 -0.1339 -0.5509
 7659SOL    HW124984  10.546   0.675   4.911 -0.5292 -0.7702 -0.8986
 7659SOL    HW224985  10.407   0.664   4.970  0.1865 -3.4497  0.4501
 7660SOL     OW24986  10.842   9.715   2.599 -0.1380  0.1432 -0.8615
 7660SOL    HW124987  10.760   9.730   2.645  0.9488  1.2955  0.8069
 7660SOL    HW224988  10.888   9.798   2.604  1.6280 -0.7934 -0.7398
 7661SOL     OW24989   8.061   1.309   6.726  0.0208 -0.3684 -0.2586
 7661SOL    HW124990   8.094   1.398   6.714  1.7787 -0.8503  0.6645
 7661SOL    HW224991   8.055   1.274   6.638  1.7449 -0.1263 -0.5159
 7662SOL     OW24992   8.958   5.182   5.755  0.4248  0.0308 -0.4440
 7662SOL    HW124993   8.969   5.090   5.778  0.4841  0.6721  2.4651
 7662SOL    HW224994   8.888   5.213   5.813  1.0394  2.0303 -0.6778
 7663SOL     OW24995   1.383   9.934   7.821  0.1826  0.2401  0.2291
 7663SOL    HW124996   1.356   9.924   7.912  2.6756  1.4635  1.1938
 7663SOL    HW224997   1.412   9.847   7.795  1.7477  0.3310  1.4841
 7664SOL     OW24998   9.344   3.119   1.532 -0.3509 -0.3108 -0.0544
 7664SOL    HW124999   9.365   3.152   1.445  0.3172 -2.6745 -0.8664
 7664SOL    HW225000   9.427   3.122   1.580 -0.0286 -1.6353 -0.4713
 7665SOL     OW25001   0.635   8.012   5.894  0.1028  0.3870  0.1800
 7665SOL    HW125002   0.624   8.007   5.799  1.0565 -0.1112  0.0883
 7665SOL    HW225003   0.568   7.953   5.929  1.9822 -2.2215 -0.3492
 7666SOL     OW25004   2.662  10.816   0.156 -0.1586 -0.0328  0.5492
 7666SOL    HW125005   2.605  10.892   0.161 -0.9637 -0.6521  1.2341
 7666SOL    HW225006   2.751  10.851   0.158 -0.5129  0.9380 -0.2870
 7667SOL     OW25007   3.762   5.716   0.314  0.7115 -0.1333  0.3299
 7667SOL    HW125008   3.737   5.694   0.404  1.8526 -0.6349  0.5389
 7667SOL    HW225009   3.694   5.777   0.285 -1.3602 -2.2538  0.4732
 7668SOL     OW25010   5.017   0.756  10.800  0.2453  0.2745 -0.0576
 7668SOL    HW125011   5.076   0.820  10.761  1.6860  0.4512  2.2056
 7668SOL    HW225012   4.945   0.809  10.835 -0.2621  0.2718 -1.0635
 7669SOL     OW25013   3.381   9.952   9.910  0.0556 -0.0500  0.0653
 7669SOL    HW125014   3.319   9.957   9.983  0.7340 -1.1789  0.7385
 7669SOL    HW225015   3.413  10.042   9.900  0.1082  0.0827  1.2878
 7670SOL     OW25016   5.450   9.347   5.923 -1.2200 -0.2588 -0.2318
 7670SOL    HW125017   5.507   9.390   5.987 -0.0234  0.5853 -1.8103
 7670SOL    HW225018   5.368   9.333   5.970 -0.1813 -0.2329  1.6708
 7671SOL     OW25019  10.192   2.935   4.982 -0.6773 -0.6955 -0.1710
 7671SOL    HW125020  10.105   2.899   4.967 -1.3085  1.5164 -2.4744
 7671SOL    HW225021  10.198   3.010   4.923  2.8440 -0.7907 -0.1524
 7672SOL     OW25022  10.839   0.702   8.803  0.1659 -0.1288  0.2280
 7672SOL    HW125023  10.786   0.663   8.733  0.5731 -0.7934  0.2889
 7672SOL    HW225024  10.895   0.765   8.757  0.4676 -0.5981 -0.0540
 7673SOL     OW25025   2.650   2.277   9.135 -0.0002 -0.1844 -0.0577
 7673SOL    HW125026   2.640   2.207   9.201  0.6866  0.2819  0.5575
 7673SOL    HW225027   2.724   2.248   9.081 -0.6439 -0.6279 -0.7166
 7674SOL     OW25028   5.222   2.202   1.600 -0.3877 -0.0227  0.5172
 7674SOL    HW125029   5.210   2.174   1.509  2.4527 -0.6305  0.2405
 7674SOL    HW225030   5.162   2.276   1.610  0.2234  0.9992 -2.3399
 7675SOL     OW25031   1.242   7.019   2.990  0.0473 -0.9493 -0.0863
 7675SOL    HW125032   1.328   7.051   3.019 -1.0712  0.7414  1.6653
 7675SOL    HW225033   1.191   7.011   3.071 -1.7675 -0.8439 -1.1663
 7676SOL     OW25034   5.885  10.124   8.631  0.0369 -0.2134 -0.9097
 7676SOL    HW125035   5.842  10.119   8.716  0.4644  1.5251 -0.5383
 7676SOL    HW225036   5.887  10.034   8.599 -0.4812 -0.8460  0.7424
 7677SOL     OW25037   3.997   3.422   1.133 -0.2251 -0.2516 -0.4861
 7677SOL    HW125038   4.027   3.505   1.095 -1.8550  0.0089 -1.3070
 7677SOL    HW225039   3.907   3.413   1.102 -0.5093 -1.7049  0.6477
 7678SOL     OW25040   8.086   1.302   3.270  0.2541  0.4334  0.0384
 7678SOL    HW125041   8.164   1.352   3.246  0.4894  0.4830  0.8802
 7678SOL    HW225042   8.083   1.230   3.207 -1.0807  2.4381 -2.3568
 7679SOL     OW25043   4.323   5.828   3.250 -0.0859  0.3793  0.4098
 7679SOL    HW125044   4.251   5.771   3.275 -1.5460  1.2753 -1.5103
 7679SOL    HW225045   4.289   5.879   3.177  2.5277  0.7798 -0.6389
 7680SOL     OW25046   9.110   6.002   4.192  0.0437 -0.1466  0.1065
 7680SOL    HW125047   9.046   6.054   4.143  1.3805 -0.3168 -1.9805
 7680SOL    HW225048   9.117   6.045   4.277 -0.0691  2.1314 -0.9705
 7681SOL     OW25049   8.518   6.168   5.969  0.3161 -0.1695  0.4068
 7681SOL    HW125050   8.565   6.085   5.978  0.3890 -0.2897 -0.8858
 7681SOL    HW225051   8.558   6.225   6.034  2.4216 -0.2170 -0.7542
 7682SOL     OW25052   7.039   5.216   8.804 -0.4258  0.0421 -0.3857
 7682SOL    HW125053   7.081   5.249   8.724 -3.2892  0.8373 -1.7005
 7682SOL    HW225054   7.023   5.294   8.857  2.4040 -0.5790  1.6065
 7683SOL     OW25055   7.998   8.882  10.439  0.2172 -0.2219  0.4489
 7683SOL    HW125056   7.938   8.856  10.369  0.6400 -0.1394  0.0535
 7683SOL    HW225057   7.948   8.869  10.520  0.5408 -2.7000  0.3367
 7684SOL     OW25058   3.377   4.495   6.425 -0.4675  0.1281 -0.1380
 7684SOL    HW125059   3.308   4.547   6.386  0.2489  1.3686  0.1709
 7684SOL    HW225060   3.458   4.542   6.402  0.2204 -0.9761 -0.0275
 7685SOL     OW25061   7.657   7.671   7.184  0.4328 -0.4989  0.5581
 7685SOL    HW125062   7.690   7.685   7.095  1.2416 -0.5123  0.8475
 7685SOL    HW225063   7.595   7.599   7.176  0.7502 -0.7223  0.0539
 7686SOL     OW25064   5.273   7.523   8.209 -0.2306 -0.0188  0.0764
 7686SOL    HW125065   5.268   7.462   8.282 -0.2506  0.5453  0.5546
 7686SOL    HW225066   5.228   7.602   8.241 -0.3525  0.1872 -0.5882
 7687SOL     OW25067   1.325   0.151   0.989  0.2989  0.7772 -0.5439
 7687SOL    HW125068   1.397   0.202   1.025  0.1124 -0.7179  2.2966
 7687SOL    HW225069   1.262   0.147   1.061 -1.4684 -0.1247 -2.0643
 7688SOL     OW25070   0.747   7.325  10.551  0.2719  0.2991  0.1171
 7688SOL    HW125071   0.749   7.265  10.477 -0.4061 -0.0877  0.4039
 7688SOL    HW225072   0.656   7.327  10.579  0.5400  0.3100  1.0481
 7689SOL     OW25073   1.668   5.361   2.203  0.1345  0.5430  0.2831
 7689SOL    HW125074   1.738   5.408   2.156  1.8100 -3.8167 -2.1876
 7689SOL    HW225075   1.588   5.387   2.159  0.4233  3.3970  1.2129
 7690SOL     OW25076   3.343   7.799   6.119 -0.1619 -0.0401 -0.3007
 7690SOL    HW125077   3.367   7.848   6.198 -0.2915 -0.9853  0.3496
 7690SOL    HW225078   3.354   7.861   6.048 -0.1069  0.8601  0.4701
 7691SOL     OW25079   2.150   8.217   8.355  0.0220  0.0662  0.1919
 7691SOL    HW125080   2.219   8.277   8.383 -1.4670  1.1142  1.8535
 7691SOL    HW225081   2.076   8.238   8.412 -0.7807 -2.9387  0.4147
 7692SOL     OW25082   4.026   3.663   1.015 -0.2240  0.3818 -0.3142
 7692SOL    HW125083   4.110   3.701   1.039 -0.5753  0.1620  1.3818
 7692SOL    HW225084   4.035   3.642   0.922  1.9512 -0.5363  0.0338
 7693SOL     OW25085   1.236   6.414   8.279 -0.0815 -0.2574  0.3903
 7693SOL    HW125086   1.317   6.464   8.294  0.4626 -1.5268  1.9330
 7693SOL    HW225087   1.173   6.452   8.340 -0.4845  0.3022 -0.3573
 7694SOL     OW25088   5.840   7.629   5.081 -0.0240  0.5384  0.0644
 7694SOL    HW125089   5.765   7.594   5.129  1.1120 -0.5978  1.1068
 7694SOL    HW225090   5.857   7.564   5.012  0.4608  0.3795  0.3277
 7695SOL     OW25091   3.318   1.501   1.478  0.1048  0.1355 -0.1280
 7695SOL    HW125092   3.236   1.474   1.520  0.1756  0.3626  0.1574
 7695SOL    HW225093   3.384   1.495   1.548  0.8595 -2.5541 -0.9551
 7696SOL     OW25094   5.786   1.037   8.727 -0.4644  0.1443 -0.6173
 7696SOL    HW125095   5.859   0.983   8.758 -0.8637 -0.0006  0.0908
 7696SOL    HW225096   5.823   1.088   8.655  0.3913  0.2037 -0.1518
 7697SOL     OW25097   0.878  10.831   4.567 -0.3341 -0.1514 -0.3567
 7697SOL    HW125098   0.944  10.774   4.528 -1.3719 -0.5950 -1.4996
 7697SOL    HW225099   0.876  10.908   4.510  0.6787  0.8187  0.8745
 7698SOL     OW25100   8.826   3.532   7.994  0.1002 -0.0981  0.0524
 7698SOL    HW125101   8.751   3.566   8.042  1.9029  0.0159  3.0555
 7698SOL    HW225102   8.795   3.449   7.958 -2.2736  1.2995 -1.3897
 7699SOL     OW25103   6.902   1.746   3.708  0.2553  0.0327 -1.0942
 7699SOL    HW125104   6.857   1.780   3.785  1.1040  1.7713 -1.3057
 7699SOL    HW225105   6.916   1.654   3.727  0.6167  0.4504  0.9428
 7700SOL     OW25106   9.470  10.608   9.379 -0.7648  0.3555 -0.2956
 7700SOL    HW125107   9.441  10.527   9.337  0.3067  0.2841 -0.9614
 7700SOL    HW225108   9.504  10.661   9.306  0.3594  0.5790  0.3659
 7701SOL     OW25109   0.237   0.353   2.479 -0.1170  0.1737  0.0427
 7701SOL    HW125110   0.192   0.416   2.423 -1.6273  0.3122  1.3398
 7701SOL    HW225111   0.330   0.368   2.462 -0.5001  0.2241 -2.3491
 7702SOL     OW25112   3.053   5.072   9.713 -0.6258  0.3040 -0.5394
 7702SOL    HW125113   3.097   5.046   9.632 -0.9079  0.8918 -0.8854
 7702SOL    HW225114   3.112   5.136   9.753 -1.5807  1.8489 -1.4959
 7703SOL     OW25115   5.739  10.964   9.244  0.6380  0.1206  0.4397
 7703SOL    HW125116   5.712  10.969   9.336 -0.5418 -0.2604  0.1266
 7703SOL    HW225117   5.742  11.055   9.215 -0.1673  0.1785  0.5281
 7704SOL     OW25118   3.024  10.747   5.182 -0.7251  0.3920  0.5078
 7704SOL    HW125119   2.955  10.812   5.189  0.4599  1.5206  2.6906
 7704SOL    HW225120   3.060  10.759   5.094 -3.0393 -0.0378 -0.5680
 7705SOL     OW25121   7.071  10.606   7.040  0.5674  0.3330 -0.1363
 7705SOL    HW125122   6.978  10.592   7.052  0.5368  0.6298 -0.0289
 7705SOL    HW225123   7.106  10.519   7.017  0.5342 -0.1376  1.4708
 7706SOL     OW25124   2.691   7.757   9.755 -0.0291 -0.2805  0.1273
 7706SOL    HW125125   2.683   7.711   9.671 -2.4937  0.3488 -0.0497
 7706SOL    HW225126   2.738   7.696   9.811  1.4912 -0.8171 -1.6009
 7707SOL     OW25127  10.021   8.166  10.384 -0.1309 -0.2740 -0.0837
 7707SOL    HW125128  10.052   8.237  10.439  0.2089 -2.0722  2.2108
 7707SOL    HW225129   9.929   8.186  10.368 -1.0208 -0.8941  3.4419
 7708SOL     OW25130   5.119   3.439   8.415  0.1798 -0.1074 -0.4281
 7708SOL    HW125131   5.145   3.476   8.331 -2.0197 -0.5293 -1.3504
 7708SOL    HW225132   5.099   3.515   8.470 -0.6313  0.1314 -1.0514
 7709SOL     OW25133   5.424   2.696   0.900 -0.0736  0.4287 -0.5121
 7709SOL    HW125134   5.443   2.651   0.982  0.5776  0.0126 -0.8855
 7709SOL    HW225135   5.507   2.695   0.852 -0.4388  0.6990 -1.1647
 7710SOL     OW25136   5.614   0.112   2.999  0.0311  0.5029 -0.2856
 7710SOL    HW125137   5.652   0.038   3.048 -1.1079  1.3172  1.9614
 7710SOL    HW225138   5.535   0.075   2.959 -0.5061  0.4421  0.7835
 7711SOL     OW25139   0.847   8.310   2.714 -0.5284 -0.0616  0.6856
 7711SOL    HW125140   0.779   8.292   2.650 -0.9202 -0.9810  1.3516
 7711SOL    HW225141   0.918   8.350   2.663 -0.8846 -0.6531 -0.2905
 7712SOL     OW25142   6.185   1.026   3.529 -0.0392  0.0834 -0.4516
 7712SOL    HW125143   6.208   0.965   3.599  1.7417  0.0908 -0.9853
 7712SOL    HW225144   6.188   1.112   3.571  0.2287  0.0221 -0.3417
 7713SOL     OW25145   9.328   3.438   7.354 -0.3276 -0.2098  0.5982
 7713SOL    HW125146   9.340   3.435   7.449 -0.2468 -2.3883  0.5777
 7713SOL    HW225147   9.376   3.361   7.322 -1.9907 -0.6365 -0.9979
 7714SOL     OW25148   2.884   4.144   6.206  0.4609  0.4892  0.6877
 7714SOL    HW125149   2.935   4.110   6.279  0.4706  1.1228  0.9821
 7714SOL    HW225150   2.932   4.115   6.127  0.2461 -0.5164  0.9095
 7715SOL     OW25151   1.575   9.263   8.226  0.0635 -0.2043  0.4029
 7715SOL    HW125152   1.589   9.238   8.134 -2.4923 -1.7982  0.3560
 7715SOL    HW225153   1.508   9.331   8.222 -0.6550 -0.8605  1.1115
 7716SOL     OW25154   7.111   6.307   5.266 -0.3785  0.4125 -0.3011
 7716SOL    HW125155   7.026   6.347   5.285 -1.1723 -1.2264 -0.2062
 7716SOL    HW225156   7.156   6.371   5.211 -1.3192  1.6843  0.3572
 7717SOL     OW25157   4.498  10.041   6.927 -0.3699 -0.7407 -0.4000
 7717SOL    HW125158   4.483   9.947   6.935  0.3788 -0.8529 -0.3014
 7717SOL    HW225159   4.592  10.050   6.915 -0.1513  0.1240  1.6265
 7718SOL     OW25160   4.460   0.624   8.032 -0.9168  0.0224 -0.2262
 7718SOL    HW125161   4.496   0.646   7.945  1.1418  0.1691  0.5944
 7718SOL    HW225162   4.456   0.707   8.078  1.1187 -0.4070  0.8572
 7719SOL     OW25163   0.108  10.267  10.270  0.1849 -0.6893 -0.2072
 7719SOL    HW125164   0.169  10.298  10.336 -0.8533 -1.9605  1.4522
 7719SOL    HW225165   0.056  10.200  10.315 -1.6391 -0.4923 -1.8582
 7720SOL     OW25166   4.684   1.421  10.833 -0.3214 -0.1981  0.1118
 7720SOL    HW125167   4.649   1.490  10.776 -0.0534 -0.4769 -0.4033
 7720SOL    HW225168   4.675   1.456  10.922  0.8832  1.0087 -0.2007
 7721SOL     OW25169   9.983  10.616   2.334 -0.6416 -0.5184 -0.5700
 7721SOL    HW125170  10.052  10.682   2.335 -0.4281 -0.6559 -2.5887
 7721SOL    HW225171   9.963  10.600   2.426 -0.9886  2.6330 -0.0156
 7722SOL     OW25172   9.400  10.248   4.698  0.5168  0.1755  0.0952
 7722SOL    HW125173   9.452  10.309   4.645  0.7478  0.0023  0.1178
 7722SOL    HW225174   9.438  10.163   4.680  1.5361  0.2625  1.6030
 7723SOL     OW25175   0.453   3.086   2.279  0.9091 -0.2348  0.2093
 7723SOL    HW125176   0.534   3.039   2.257  0.7090 -0.6917  0.4484
 7723SOL    HW225177   0.459   3.168   2.229 -0.0283 -1.6618 -2.4382
 7724SOL     OW25178   7.028   5.369   1.549  0.2873 -0.5930  0.1198
 7724SOL    HW125179   7.093   5.366   1.479  0.1813 -0.7523  0.0273
 7724SOL    HW225180   7.079   5.375   1.629  0.4162 -0.6644  0.0428
 7725SOL     OW25181   3.355   5.074   1.579 -0.3941  0.0177  0.1964
 7725SOL    HW125182   3.345   5.004   1.514  1.4933 -0.8563  0.7655
 7725SOL    HW225183   3.450   5.091   1.580 -0.7911  2.6769  0.0090
 7726SOL     OW25184   4.322   2.748   7.779  0.0164 -0.2765 -0.5348
 7726SOL    HW125185   4.236   2.714   7.757  0.4035 -0.8970 -1.1096
 7726SOL    HW225186   4.307   2.841   7.797 -0.7198 -0.3006 -0.9838
 7727SOL     OW25187   9.871   6.776   4.659 -0.6446  0.0512 -0.5074
 7727SOL    HW125188   9.902   6.828   4.585 -1.0449  1.6721  0.4053
 7727SOL    HW225189   9.947   6.766   4.716 -0.3237 -1.2390 -1.1242
 7728SOL     OW25190   5.118   8.826   5.942  0.1051 -0.3720 -0.3023
 7728SOL    HW125191   5.182   8.786   5.883 -0.2284 -0.8842 -0.3221
 7728SOL    HW225192   5.065   8.882   5.885  0.5536  0.0800 -0.2795
 7729SOL     OW25193   3.343   1.992  10.085 -0.2439 -0.2648 -0.1975
 7729SOL    HW125194   3.265   1.938  10.099  0.0605 -1.1621 -1.6810
 7729SOL    HW225195   3.333   2.065  10.146 -1.9827 -0.6315  0.0198
 7730SOL     OW25196   0.449   4.871   8.825 -0.4664 -0.0441 -0.5325
 7730SOL    HW125197   0.397   4.949   8.804  0.9415  0.9221 -0.5667
 7730SOL    HW225198   0.390   4.817   8.879 -1.0625  1.6323  0.5873
 7731SOL     OW25199   0.326   3.973   6.121 -0.1175  0.1288  0.2751
 7731SOL    HW125200   0.340   4.021   6.039  1.9137  1.3606  1.2693
 7731SOL    HW225201   0.287   3.890   6.093  0.0829  0.6934 -1.8890
 7732SOL     OW25202  10.361   2.752   9.830  0.1719 -0.2328 -0.1516
 7732SOL    HW125203  10.415   2.724   9.904  2.1544  0.9902 -1.0376
 7732SOL    HW225204  10.281   2.700   9.837  0.5747 -0.6411  2.4376
 7733SOL     OW25205  10.662   0.037   7.431 -0.4320  0.0638 -0.5749
 7733SOL    HW125206  10.735   0.073   7.380 -1.1423 -0.0554 -1.7296
 7733SOL    HW225207  10.699  -0.037   7.478  0.4527  0.7119 -0.2080
 7734SOL     OW25208   4.500   5.826   4.530  0.5892  0.6317  0.3045
 7734SOL    HW125209   4.532   5.802   4.443  0.6146 -0.0704  0.5069
 7734SOL    HW225210   4.463   5.914   4.518  0.5746  0.5318 -0.4155
 7735SOL     OW25211  10.144   2.060   5.635 -0.0516 -0.1765 -0.5492
 7735SOL    HW125212  10.171   2.053   5.543  1.0499 -1.7437 -0.1517
 7735SOL    HW225213  10.052   2.032   5.635  0.2235 -1.1040 -1.0399
 7736SOL     OW25214   9.356   2.027   2.841 -0.1903  0.6730 -0.3878
 7736SOL    HW125215   9.387   1.960   2.780 -1.4395  0.4496 -0.8117
 7736SOL    HW225216   9.266   2.044   2.814 -0.1768  1.8979  0.2699
 7737SOL     OW25217   2.468  10.665   1.347 -0.3605  0.0303  0.3523
 7737SOL    HW125218   2.469  10.592   1.285  1.8691  1.1789 -1.1292
 7737SOL    HW225219   2.464  10.624   1.433 -0.6783 -1.7598 -0.4731
 7738SOL     OW25220   7.859   4.124   5.841 -0.6507 -0.7669  0.0057
 7738SOL    HW125221   7.868   4.058   5.773 -0.2941 -1.0154  0.2897
 7738SOL    HW225222   7.765   4.135   5.852 -0.7084 -0.8924 -0.3669
 7739SOL     OW25223   3.871   9.696   3.593  0.3704  0.6537 -0.0161
 7739SOL    HW125224   3.954   9.684   3.639  0.6368 -0.1525 -0.6950
 7739SOL    HW225225   3.805   9.666   3.656  0.9112 -3.6437 -1.1753
 7740SOL     OW25226   8.421   5.323   1.968  0.3280 -0.2322 -0.3505
 7740SOL    HW125227   8.424   5.395   1.905 -1.1856 -0.2245 -0.4567
 7740SOL    HW225228   8.395   5.247   1.917  1.4902 -0.7685 -0.1600
 7741SOL     OW25229   2.361   7.184   6.083 -0.6821 -0.0968 -0.1768
 7741SOL    HW125230   2.355   7.260   6.025 -0.2480 -0.2295 -0.3965
 7741SOL    HW225231   2.393   7.220   6.166 -1.6618  0.1560  0.1162
 7742SOL     OW25232   8.084   2.601   6.325  0.5221 -0.2272 -0.7684
 7742SOL    HW125233   8.069   2.643   6.240 -1.3218 -0.5686 -0.6406
 7742SOL    HW225234   8.178   2.609   6.339  0.6242  1.3503 -2.0563
 7743SOL     OW25235   1.711   2.800   5.773  0.3584  0.5978 -0.3540
 7743SOL    HW125236   1.638   2.840   5.726 -2.0490 -2.1248  0.7800
 7743SOL    HW225237   1.769   2.767   5.704 -0.8700  0.4650 -1.3510
 7744SOL     OW25238   1.354   6.823   3.779 -0.9571 -0.1946  0.3279
 7744SOL    HW125239   1.349   6.915   3.752 -0.5048 -0.1603  0.3557
 7744SOL    HW225240   1.290   6.816   3.850 -1.4241 -0.0474 -0.0738
 7745SOL     OW25241   1.817   6.453   4.732 -0.6394  0.7545 -0.3162
 7745SOL    HW125242   1.867   6.415   4.804 -0.1172  1.0443 -0.5273
 7745SOL    HW225243   1.868   6.528   4.703 -0.9606  0.7776 -0.8393
 7746SOL     OW25244   6.866   1.729   1.193  0.0674  0.7071  0.0018
 7746SOL    HW125245   6.799   1.792   1.221 -0.7928 -0.7282  1.3871
 7746SOL    HW225246   6.926   1.723   1.268  0.3555  0.1859 -0.2657
 7747SOL     OW25247   4.535   4.785   7.358 -0.3536  0.0235  0.5227
 7747SOL    HW125248   4.578   4.868   7.374 -2.0671  0.7693  1.6022
 7747SOL    HW225249   4.580   4.723   7.415  1.5410 -0.0476 -0.9698
 7748SOL     OW25250   1.625   0.811  10.983 -0.1766 -0.7635 -0.3622
 7748SOL    HW125251   1.665   0.880  10.930 -0.7808  0.4722  0.7274
 7748SOL    HW225252   1.697   0.770  11.030  0.2982 -1.5136 -1.6941
 7749SOL     OW25253   9.275  10.562   4.485  0.4159 -0.4100  0.1086
 7749SOL    HW125254   9.270  10.633   4.421 -0.7472  2.3739  3.0349
 7749SOL    HW225255   9.223  10.491   4.447 -2.2067  1.9891 -1.0822
 7750SOL     OW25256   2.563   2.159   2.461 -0.0296 -0.6251 -0.1632
 7750SOL    HW125257   2.615   2.082   2.484 -0.8920 -1.2141 -0.1621
 7750SOL    HW225258   2.569   2.164   2.366  1.0104  0.0274 -0.0882
 7751SOL     OW25259   8.952   9.414   9.325 -0.1562 -0.0656  0.0068
 7751SOL    HW125260   8.928   9.447   9.239 -0.5668  1.0493  0.5233
 7751SOL    HW225261   9.003   9.486   9.364  0.2656 -0.6679  0.5869
 7752SOL     OW25262   5.553  10.043   6.289  0.0452  0.0919 -0.0266
 7752SOL    HW125263   5.495   9.968   6.279  0.7169 -0.1633 -2.7726
 7752SOL    HW225264   5.493  10.118   6.297 -0.6492 -0.4691  0.1246
 7753SOL     OW25265   8.152   2.472   8.574  0.1417 -0.3718 -0.3280
 7753SOL    HW125266   8.145   2.514   8.660  0.9758 -0.2272 -0.3185
 7753SOL    HW225267   8.195   2.388   8.592  3.0013  0.8418 -0.8848
 7754SOL     OW25268  10.552   9.687   0.264 -0.4582 -0.2468 -0.5449
 7754SOL    HW125269  10.509   9.773   0.269 -1.6961 -0.8833  0.4340
 7754SOL    HW225270  10.489   9.632   0.218 -0.7450 -1.2160  0.9436
 7755SOL     OW25271   6.033   8.486   0.185 -0.6027 -0.8753 -0.2529
 7755SOL    HW125272   5.982   8.503   0.106 -0.9839 -0.3729  0.0922
 7755SOL    HW225273   5.968   8.471   0.253 -0.2825 -0.8546  0.0622
 7756SOL     OW25274   8.916   4.225   2.890  0.7031 -0.2595 -0.2834
 7756SOL    HW125275   8.837   4.222   2.945  0.6160  0.1078 -0.3858
 7756SOL    HW225276   8.893   4.285   2.820  1.4547  0.7034  0.2771
 7757SOL     OW25277   8.096   9.179   1.631  0.1560  0.0054 -0.0403
 7757SOL    HW125278   8.182   9.137   1.638  0.7316  1.3203  1.5545
 7757SOL    HW225279   8.083   9.220   1.716 -1.7086  0.5307 -0.5331
 7758SOL     OW25280   7.844   2.563   1.084 -0.1832  0.1357  0.1577
 7758SOL    HW125281   7.753   2.555   1.054  0.0829 -1.9598 -0.2687
 7758SOL    HW225282   7.842   2.634   1.148 -2.0330  0.4239 -0.1470
 7759SOL     OW25283   8.113   6.945   7.806  0.4717  0.5763 -0.2362
 7759SOL    HW125284   8.157   7.028   7.821 -1.0625  1.2673  0.5773
 7759SOL    HW225285   8.081   6.918   7.892  1.3312 -1.1116 -0.3975
 7760SOL     OW25286   3.124   9.463   1.364 -0.2252 -0.1026 -0.5153
 7760SOL    HW125287   3.184   9.437   1.294 -0.0320  0.4267 -0.5490
 7760SOL    HW225288   3.074   9.384   1.383  0.6679 -0.6343 -0.3042
 7761SOL     OW25289  10.140   1.585   9.898  0.4913  0.2059 -0.3143
 7761SOL    HW125290  10.094   1.591   9.982 -0.7475 -0.6555 -0.9023
 7761SOL    HW225291  10.158   1.675   9.873 -0.8068  0.5599 -0.0177
 7762SOL     OW25292   1.242   4.589   7.867 -0.7807 -0.1164  0.3582
 7762SOL    HW125293   1.178   4.608   7.797  0.0294 -0.9751 -0.6576
 7762SOL    HW225294   1.313   4.650   7.851 -1.5028  1.1434  1.7606
 7763SOL     OW25295   4.599   8.472   0.046 -0.8428  0.0732 -0.1898
 7763SOL    HW125296   4.635   8.517  -0.030 -1.0966 -1.0636 -0.9967
 7763SOL    HW225297   4.645   8.388   0.049 -0.7094  0.1642  1.0185
 7764SOL     OW25298   7.224   9.088   2.561 -0.2506  0.0067 -0.5026
 7764SOL    HW125299   7.259   9.003   2.587 -2.4634 -0.9702 -0.4927
 7764SOL    HW225300   7.291   9.151   2.588  1.0362 -1.6365  0.3280
 7765SOL     OW25301   0.516   1.839   9.408  0.0791  0.2485  0.2101
 7765SOL    HW125302   0.525   1.876   9.496  1.4898 -0.6878  0.4843
 7765SOL    HW225303   0.591   1.780   9.398 -1.2379 -1.3611 -0.7788
 7766SOL     OW25304   3.053   3.718   6.619 -0.0692  0.0108  0.1228
 7766SOL    HW125305   3.024   3.676   6.700  1.9203  0.2288  1.0090
 7766SOL    HW225306   2.973   3.731   6.569 -1.1572 -1.7859  1.2603
 7767SOL     OW25307   5.245   4.136   4.225 -0.0777  0.0946 -0.1266
 7767SOL    HW125308   5.175   4.099   4.172  0.2092  0.8948 -1.0990
 7767SOL    HW225309   5.238   4.230   4.211 -1.5243  0.5969  3.1932
 7768SOL     OW25310  10.873   4.147   4.214  1.0633  0.0263  0.0595
 7768SOL    HW125311  10.860   4.168   4.306  1.1048 -0.0032  0.0718
 7768SOL    HW225312  10.953   4.095   4.212  0.5852 -0.7139  0.1048
 7769SOL     OW25313   2.173  10.007   0.325 -0.5850  0.0449  0.3097
 7769SOL    HW125314   2.082   9.996   0.298 -0.0683 -0.9746 -1.1416
 7769SOL    HW225315   2.209  10.072   0.265 -0.2823  0.2259  0.6843
 7770SOL     OW25316   0.668   1.724   9.137 -0.1245 -0.0270 -0.2727
 7770SOL    HW125317   0.603   1.654   9.130 -0.1316  0.1385 -2.4697
 7770SOL    HW225318   0.700   1.717   9.227 -1.7910 -1.3370  0.2854
 7771SOL     OW25319   3.757   6.703   6.838 -0.5245  0.0005 -0.0242
 7771SOL    HW125320   3.768   6.798   6.837 -1.5081  0.1263 -0.2560
 7771SOL    HW225321   3.793   6.675   6.922  1.2844  0.3619 -0.6403
 7772SOL     OW25322   6.619   6.164   3.924  0.1553 -0.1018  0.5568
 7772SOL    HW125323   6.657   6.223   3.989 -1.0795 -0.1008  1.3014
 7772SOL    HW225324   6.526   6.159   3.947 -0.4151  0.2804 -1.4997
 7773SOL     OW25325  11.012   8.160   9.594 -0.3660  0.5382 -0.2453
 7773SOL    HW125326  11.095   8.190   9.631  0.5520 -1.7064 -0.3746
 7773SOL    HW225327  10.971   8.110   9.665 -0.0329 -1.1664 -1.2102
 7774SOL     OW25328   3.575   4.626   0.491  0.3034 -0.2429  0.1394
 7774SOL    HW125329   3.660   4.638   0.534  0.4532  0.8515 -0.4255
 7774SOL    HW225330   3.554   4.534   0.504  1.4364 -0.4538  0.5558
 7775SOL     OW25331   5.268   0.175  10.099 -0.4233  0.0024 -0.1616
 7775SOL    HW125332   5.178   0.149  10.118 -0.4680  0.7549  0.6975
 7775SOL    HW225333   5.261   0.265  10.068 -0.3621 -1.1222 -3.9354
 7776SOL     OW25334   8.836   7.858   2.047  0.1424  0.1765  0.4667
 7776SOL    HW125335   8.799   7.877   2.133 -2.2789 -1.0830 -0.2038
 7776SOL    HW225336   8.889   7.779   2.060  0.7636  0.6662  0.9909
 7777SOL     OW25337   4.401   9.181   2.167 -0.1515 -0.2177  0.2779
 7777SOL    HW125338   4.358   9.267   2.165 -0.9113 -0.6023 -1.3607
 7777SOL    HW225339   4.435   9.169   2.078  0.7400 -1.2420  0.7269
 7778SOL     OW25340   7.411   2.450   7.474 -0.6152 -0.3841 -0.2407
 7778SOL    HW125341   7.426   2.395   7.551  0.8086  1.7911  1.1596
 7778SOL    HW225342   7.417   2.539   7.507 -1.0988  0.6419 -2.7076
 7779SOL     OW25343   5.647   5.937   7.633  0.0930 -0.4072  0.2563
 7779SOL    HW125344   5.718   5.995   7.662 -1.7376  2.5977 -0.8277
 7779SOL    HW225345   5.683   5.893   7.556  1.0100  0.5476  0.1146
 7780SOL     OW25346   5.089   2.245   4.442  0.2998 -0.7454  0.5050
 7780SOL    HW125347   4.994   2.246   4.457  0.3222  2.2936  1.2173
 7780SOL    HW225348   5.102   2.302   4.366  1.5266 -1.7874 -0.0983
 7781SOL     OW25349   1.866   3.586   1.928 -0.0507  1.0455  0.0696
 7781SOL    HW125350   1.868   3.547   1.840 -1.7881 -1.4634  1.0222
 7781SOL    HW225351   1.810   3.663   1.919 -1.1087  0.2045 -0.8464
 7782SOL     OW25352   5.354   5.910   4.044  0.0200 -0.2301 -0.0506
 7782SOL    HW125353   5.271   5.938   4.084 -1.0546 -2.3528 -0.6131
 7782SOL    HW225354   5.375   5.979   3.981  0.1252  1.6451  1.9640
 7783SOL     OW25355   9.529   9.673   6.571 -0.2382  0.3205 -0.1634
 7783SOL    HW125356   9.526   9.673   6.475 -0.0837  0.5750 -0.1680
 7783SOL    HW225357   9.585   9.598   6.593  1.5438  1.5464 -0.3374
 7784SOL     OW25358   8.937   4.449   2.675  0.0368 -0.2402  0.4832
 7784SOL    HW125359   8.989   4.496   2.610 -2.9605 -0.8643 -2.6319
 7784SOL    HW225360   8.872   4.512   2.705 -1.4004 -1.1252 -0.6154
 7785SOL     OW25361  10.346  10.484   5.219  0.1454  0.5360 -0.0831
 7785SOL    HW125362  10.356  10.468   5.313 -1.5815 -2.1209 -0.2364
 7785SOL    HW225363  10.298  10.567   5.214 -1.8429 -0.4006  1.5858
 7786SOL     OW25364   8.782   5.503   7.406  0.3329 -0.3565 -0.0144
 7786SOL    HW125365   8.812   5.416   7.433  0.4339 -0.2294  0.3027
 7786SOL    HW225366   8.810   5.511   7.315  0.1717 -0.7201 -0.0987
 7787SOL     OW25367   2.722   8.687   8.306 -0.1288 -0.0385  0.5123
 7787SOL    HW125368   2.656   8.744   8.266  1.2048  1.6166  0.5430
 7787SOL    HW225369   2.700   8.687   8.399  0.4041  1.2729  0.6668
 7788SOL     OW25370   9.567   8.245   5.508  0.7641  0.4430 -0.2474
 7788SOL    HW125371   9.644   8.197   5.480  2.6885  2.8976  0.4882
 7788SOL    HW225372   9.568   8.326   5.457 -1.2036  0.6596 -0.0499
 7789SOL     OW25373   8.617   5.273   0.959 -0.1820 -0.1530 -0.1379
 7789SOL    HW125374   8.533   5.227   0.960 -0.3662  0.0639  2.3050
 7789SOL    HW225375   8.681   5.206   0.983  0.1617 -0.0323 -0.7039
 7790SOL     OW25376   8.238   9.501   4.413  0.0033  0.0813  0.1988
 7790SOL    HW125377   8.199   9.485   4.327 -0.7304 -0.9184  0.6971
 7790SOL    HW225378   8.182   9.453   4.475  0.7478  0.4416  1.1914
 7791SOL     OW25379   1.460   5.839   0.678 -0.0329 -0.2356 -0.2655
 7791SOL    HW125380   1.554   5.835   0.694  0.0175 -0.1350 -0.5209
 7791SOL    HW225381   1.452   5.833   0.582 -0.3710 -1.8170 -0.1617
 7792SOL     OW25382   3.085   9.960   7.770 -0.2350 -0.6596  0.3950
 7792SOL    HW125383   3.025   9.970   7.697 -0.9123 -0.4721  0.9706
 7792SOL    HW225384   3.170   9.942   7.729 -0.9863 -2.6910 -0.4027
 7793SOL     OW25385  10.395   2.184   7.309  0.8502 -0.4156  0.5304
 7793SOL    HW125386  10.333   2.227   7.368 -1.8326 -1.5576 -1.3071
 7793SOL    HW225387  10.384   2.229   7.226  1.2852 -1.7307 -0.2627
 7794SOL     OW25388   8.185   1.272   6.409 -0.1613  0.0312 -0.2924
 7794SOL    HW125389   8.190   1.245   6.318 -2.2810 -1.3211 -0.0753
 7794SOL    HW225390   8.229   1.202   6.457  0.7730  0.6432 -0.2206
 7795SOL     OW25391   8.457   7.801  10.146  0.2108  0.5070  0.6135
 7795SOL    HW125392   8.508   7.878  10.119 -0.4091  0.9495  0.6878
 7795SOL    HW225393   8.370   7.836  10.166 -0.3728 -0.3682 -0.3268
 7796SOL     OW25394  10.951   8.179   8.353  0.0860  0.1007 -0.5471
 7796SOL    HW125395  10.884   8.223   8.301  0.8534  0.1020 -1.5623
 7796SOL    HW225396  10.914   8.175   8.442 -0.7297  1.1936 -0.8194
 7797SOL     OW25397   6.094   1.125   6.763 -0.3652 -0.1415  0.2742
 7797SOL    HW125398   6.151   1.172   6.702 -0.0977  0.9435  1.3325
 7797SOL    HW225399   6.140   1.127   6.846 -1.4682 -0.1348  0.9126
 7798SOL     OW25400   0.374   0.819   8.888  0.2011 -0.9084  0.4296
 7798SOL    HW125401   0.410   0.752   8.946  1.8646  1.3050  2.1357
 7798SOL    HW225402   0.305   0.861   8.940  0.9212  0.3329  0.4385
 7799SOL     OW25403   2.548   0.254   1.004  0.4257 -0.3494  0.4457
 7799SOL    HW125404   2.467   0.299   1.030  0.5115  0.0313  0.0551
 7799SOL    HW225405   2.596   0.318   0.952  1.1317 -0.4681  0.9394
 7800SOL     OW25406   2.386   5.924   5.379  0.3492 -0.1350  0.5664
 7800SOL    HW125407   2.323   5.855   5.400  1.0483 -0.3228  2.2363
 7800SOL    HW225408   2.421   5.951   5.464 -0.5715  2.9528  0.0736
 7801SOL     OW25409   2.453   4.976   9.406 -0.0962 -0.1557  0.0447
 7801SOL    HW125410   2.484   4.934   9.486 -0.4957 -1.1080 -0.2838
 7801SOL    HW225411   2.447   4.905   9.342 -0.7253  0.4090 -0.5452
 7802SOL     OW25412   4.595   3.437   9.837 -0.1031  0.1027 -0.3796
 7802SOL    HW125413   4.542   3.392   9.770  0.5319 -0.5726 -0.4383
 7802SOL    HW225414   4.670   3.380   9.850 -0.1269  0.3115  0.7893
 7803SOL     OW25415   6.135   9.147   9.378 -0.7034  0.5066 -0.4652
 7803SOL    HW125416   6.076   9.081   9.342 -2.1493  0.7092  1.3605
 7803SOL    HW225417   6.139   9.126   9.472  1.9000  0.7069 -0.4487
 7804SOL     OW25418   6.279   9.892   6.813 -0.0774 -0.7181  0.3535
 7804SOL    HW125419   6.325   9.953   6.870  1.1864 -0.5108 -0.8467
 7804SOL    HW225420   6.347   9.834   6.778 -0.9384 -1.3855 -0.2877
 7805SOL     OW25421   1.880   9.492   3.156  0.4979 -0.4769  0.6848
 7805SOL    HW125422   1.912   9.473   3.244  1.0093  0.2345  0.6617
 7805SOL    HW225423   1.960   9.501   3.103  0.2589  0.7542  0.5045
 7806SOL     OW25424   0.803   5.621   3.996  0.0605 -0.2772 -0.0532
 7806SOL    HW125425   0.781   5.529   3.987 -2.8607  0.1206  1.8808
 7806SOL    HW225426   0.861   5.625   4.072  0.0661 -0.4584 -0.0483
 7807SOL     OW25427  10.704   9.480   4.062  0.3254 -0.1620 -0.4155
 7807SOL    HW125428  10.716   9.537   4.139  0.2990  0.2050 -0.6779
 7807SOL    HW225429  10.748   9.398   4.085  0.6160  0.0683 -0.1424
 7808SOL     OW25430   6.342   2.599   0.392 -0.3069  0.3679  0.1120
 7808SOL    HW125431   6.325   2.646   0.473  0.9452 -0.1892  0.7199
 7808SOL    HW225432   6.305   2.655   0.324 -1.2544  0.9094  1.0429
 7809SOL     OW25433   0.396  10.651   7.100  0.0230  0.6303 -0.2053
 7809SOL    HW125434   0.302  10.670   7.089  0.0457  0.4301 -0.7983
 7809SOL    HW225435   0.439  10.710   7.039  0.1760 -0.3926 -1.1055
 7810SOL     OW25436   3.811   2.556   6.981  0.4216  0.3295  0.2089
 7810SOL    HW125437   3.870   2.537   7.054  0.3546 -0.3082  0.1093
 7810SOL    HW225438   3.825   2.648   6.961  1.0976  0.2816  0.4459
 7811SOL     OW25439   7.643   9.077   1.303  0.5834 -0.1421  0.2759
 7811SOL    HW125440   7.720   9.070   1.247  1.4085 -1.8313  1.5179
 7811SOL    HW225441   7.578   9.019   1.262  1.4015 -1.8728  1.3176
 7812SOL     OW25442  10.381   5.225   6.368  0.0878 -0.1622 -0.0547
 7812SOL    HW125443  10.357   5.180   6.287  0.6237 -0.4556 -0.0569
 7812SOL    HW225444  10.299   5.263   6.400 -0.2424 -0.5549 -0.4179
 7813SOL     OW25445   8.415   0.991   9.980  0.2564  0.1263  0.7404
 7813SOL    HW125446   8.405   1.033   9.894  2.2602 -0.0193  0.3713
 7813SOL    HW225447   8.450   1.060  10.036  1.2796 -0.3862  0.7609
 7814SOL     OW25448   4.700   7.616   4.490 -0.1865 -0.2243  0.7345
 7814SOL    HW125449   4.693   7.711   4.483 -0.4357 -0.1407  1.8235
 7814SOL    HW225450   4.640   7.582   4.424  0.6316  0.3522 -0.3405
 7815SOL     OW25451   4.032   0.311   6.114  0.7931  0.1662 -0.0761
 7815SOL    HW125452   4.052   0.224   6.148 -0.6919 -0.2930 -0.2895
 7815SOL    HW225453   4.001   0.296   6.025  0.1842  0.8676  0.0030
 7816SOL     OW25454  10.637   2.511   7.633 -0.0077  0.3945  0.7851
 7816SOL    HW125455  10.725   2.513   7.669 -0.5471  2.2021  2.1444
 7816SOL    HW225456  10.590   2.580   7.680 -1.6291  0.7617 -1.2302
 7817SOL     OW25457  10.920   3.157   4.035 -0.1957 -0.0052  0.1625
 7817SOL    HW125458  10.927   3.242   3.992 -0.5132 -0.3230 -0.5480
 7817SOL    HW225459  10.923   3.094   3.963  0.4489 -0.6131  0.7126
 7818SOL     OW25460   2.677   5.651   4.549  0.5664 -0.1142  0.1029
 7818SOL    HW125461   2.753   5.697   4.513  1.2836 -1.6333 -0.3895
 7818SOL    HW225462   2.656   5.584   4.484 -0.9890  0.0516  0.3996
 7819SOL     OW25463   1.536   2.134   0.910 -0.5388 -0.2761  0.2924
 7819SOL    HW125464   1.564   2.165   0.823 -2.2583  0.7571  0.0637
 7819SOL    HW225465   1.605   2.162   0.969  0.5353 -0.7630 -0.6996
 7820SOL     OW25466   2.430   9.317   9.654 -0.0676  0.2051 -0.1811
 7820SOL    HW125467   2.383   9.342   9.574  0.5084  1.4186 -0.1588
 7820SOL    HW225468   2.503   9.263   9.622  1.2067  2.1169 -0.7127
 7821SOL     OW25469   2.112   5.186   8.934 -0.0448  0.5598  0.2917
 7821SOL    HW125470   2.161   5.164   9.013 -0.4789  3.3502  1.4570
 7821SOL    HW225471   2.178   5.217   8.873  0.2028 -0.9054 -0.2289
 7822SOL     OW25472   9.388   5.763  10.495  0.1118  0.3043  0.2430
 7822SOL    HW125473   9.319   5.703  10.468 -0.0783 -0.1334  1.6359
 7822SOL    HW225474   9.360   5.796  10.581  0.4261  2.0538 -0.2834
 7823SOL     OW25475   7.299   4.822   9.246 -0.0690 -0.5352 -0.0023
 7823SOL    HW125476   7.285   4.914   9.225 -0.0696 -0.6386 -0.4656
 7823SOL    HW225477   7.297   4.777   9.162  0.6383 -0.8677  0.1478
 7824SOL     OW25478   1.483   3.100  10.265  0.1971  0.3310 -1.0989
 7824SOL    HW125479   1.470   3.064  10.178 -1.5694 -0.3232 -0.6062
 7824SOL    HW225480   1.400   3.085  10.310  0.5463  2.0053  0.2225
 7825SOL     OW25481   8.577   7.101   1.699  0.1486 -0.4762 -0.2705
 7825SOL    HW125482   8.523   7.094   1.777  0.7065  0.3304  0.2119
 7825SOL    HW225483   8.550   7.184   1.659  1.0256 -0.0573 -0.0129
 7826SOL     OW25484   2.060   2.805   1.679 -0.1705 -0.5857  0.5056
 7826SOL    HW125485   2.099   2.765   1.756  0.9557  1.1430  0.8633
 7826SOL    HW225486   1.976   2.839   1.709 -0.1072 -0.6540  0.7568
 7827SOL     OW25487   5.041   6.151   5.511 -0.0155  0.1711  0.0652
 7827SOL    HW125488   4.991   6.170   5.590 -0.4825  0.9606 -0.4020
 7827SOL    HW225489   4.980   6.108   5.453 -0.0923  0.8958 -0.4061
 7828SOL     OW25490   3.618   1.519   9.175  0.0106  0.0999  0.1855
 7828SOL    HW125491   3.667   1.447   9.135 -1.0785  0.4567 -1.9626
 7828SOL    HW225492   3.664   1.598   9.149 -0.3002  0.3124  0.2702
 7829SOL     OW25493   8.268   5.499   9.278  0.0610  0.3021 -0.1851
 7829SOL    HW125494   8.289   5.557   9.204  1.9016  0.1302  0.1544
 7829SOL    HW225495   8.186   5.534   9.312  0.3881  1.8665 -0.8626
 7830SOL     OW25496   1.072   6.241   0.218 -0.0625  0.1927 -0.4788
 7830SOL    HW125497   1.019   6.258   0.140  3.2908 -1.6137 -3.4320
 7830SOL    HW225498   1.155   6.286   0.200  0.9837 -0.6684  1.8494
 7831SOL     OW25499  10.111   4.278   9.489 -0.5889 -0.9497  0.0062
 7831SOL    HW125500  10.075   4.191   9.471  1.8510 -1.8058 -1.0187
 7831SOL    HW225501  10.176   4.263   9.558  0.4605 -0.0986 -0.7845
 7832SOL     OW25502   3.237   6.049   4.836 -0.1689  0.3736  0.0375
 7832SOL    HW125503   3.289   6.056   4.916 -0.9159 -2.3586  0.8662
 7832SOL    HW225504   3.187   5.969   4.847 -1.2405  0.5644 -2.6714
 7833SOL     OW25505   0.763   0.317   9.646  0.2423  0.2283  0.3871
 7833SOL    HW125506   0.837   0.377   9.649 -0.4209  1.0490  0.5072
 7833SOL    HW225507   0.737   0.314   9.554  1.3859 -1.2826  0.0691
 7834SOL     OW25508   0.902   3.024   9.748  0.4689 -0.4128  0.1678
 7834SOL    HW125509   0.843   3.043   9.675  0.1055  0.0920  0.5815
 7834SOL    HW225510   0.848   2.977   9.811  0.8534 -1.0954  0.0045
 7835SOL     OW25511   5.309   6.914   0.478 -0.0658 -0.1986  0.2902
 7835SOL    HW125512   5.261   6.929   0.560 -2.9753 -1.2715 -1.0688
 7835SOL    HW225513   5.322   6.819   0.475 -0.6662 -0.2615 -0.8027
 7836SOL     OW25514   6.883   6.291   6.592  0.2502 -0.1490 -0.0029
 7836SOL    HW125515   6.962   6.343   6.607 -1.3170  1.9556  1.7257
 7836SOL    HW225516   6.815   6.357   6.578 -1.3567 -1.8608 -0.5030
 7837SOL     OW25517   5.761   9.291   1.272  0.0986  0.3178 -0.4830
 7837SOL    HW125518   5.795   9.371   1.234  1.0478 -0.1757 -0.6880
 7837SOL    HW225519   5.817   9.274   1.348  0.4877 -0.6340 -0.9679
 7838SOL     OW25520   2.139   1.117   8.027  0.5937  0.1765  0.2615
 7838SOL    HW125521   2.065   1.110   8.088 -0.4938  0.8155 -0.9533
 7838SOL    HW225522   2.128   1.043   7.968  0.0840  1.0914 -0.8085
 7839SOL     OW25523  10.861   7.155   4.859 -0.0947  0.7882  0.6095
 7839SOL    HW125524  10.786   7.100   4.881  0.0472  0.7673  1.0378
 7839SOL    HW225525  10.928   7.132   4.923  0.3098  0.7476  0.1791
 7840SOL     OW25526   4.346   1.004   2.932  0.8685 -0.5564  0.2317
 7840SOL    HW125527   4.351   0.915   2.897  1.9905  0.2230 -1.7426
 7840SOL    HW225528   4.432   1.020   2.971  0.4535 -0.5318  1.1732
 7841SOL     OW25529  10.634  10.108   7.004 -0.1446  0.1125 -0.4205
 7841SOL    HW125530  10.551  10.113   6.957  0.1760  0.6200 -0.9387
 7841SOL    HW225531  10.692  10.057   6.946  0.5006  1.4345 -0.9772
 7842SOL     OW25532   3.535   1.417   3.564 -0.2610 -0.5208  0.2491
 7842SOL    HW125533   3.546   1.468   3.484 -1.9300  0.2559  0.4701
 7842SOL    HW225534   3.440   1.413   3.577 -0.1635 -2.9236  0.7410
 7843SOL     OW25535   6.767   5.712   9.456 -0.5706 -0.7935  0.1797
 7843SOL    HW125536   6.737   5.635   9.504  1.7552 -1.5902  0.4966
 7843SOL    HW225537   6.818   5.677   9.383 -0.3397  0.4404 -0.2869
 7844SOL     OW25538   7.445  10.704   8.448 -0.1667  0.1399 -0.1096
 7844SOL    HW125539   7.487  10.787   8.425 -0.2729  0.1961 -0.1014
 7844SOL    HW225540   7.498  10.669   8.520 -0.8383  0.8070  0.7438
 7845SOL     OW25541   6.835   3.848   2.473  0.3298  0.0739  0.6837
 7845SOL    HW125542   6.741   3.827   2.471 -0.3181  2.6552  0.4362
 7845SOL    HW225543   6.866   3.828   2.385  0.0897 -0.9890  0.8238
 7846SOL     OW25544   1.706  11.007   2.644 -0.6512  0.4837 -0.7411
 7846SOL    HW125545   1.712  10.961   2.560  0.7006  1.6439 -1.3205
 7846SOL    HW225546   1.639  10.959   2.693 -0.1235 -1.3874 -1.7528
 7847SOL     OW25547   2.463   1.767   2.531 -0.2627 -0.4449 -0.0302
 7847SOL    HW125548   2.527   1.834   2.554 -2.1369  1.5298 -0.1887
 7847SOL    HW225549   2.470   1.757   2.436 -1.7600  1.6271 -0.4368
 7848SOL     OW25550   9.757   8.210   2.464 -0.0223 -0.1374 -0.1474
 7848SOL    HW125551   9.803   8.209   2.380  1.2751  1.3365  0.5147
 7848SOL    HW225552   9.817   8.252   2.525 -0.6911 -1.6896  1.7061
 7849SOL     OW25553   6.653   4.873   4.136  0.7312  0.1597  0.4677
 7849SOL    HW125554   6.725   4.910   4.084  0.3772  0.4527  0.1870
 7849SOL    HW225555   6.621   4.946   4.188 -0.8883  0.6290 -1.1061
 7850SOL     OW25556   8.476   9.281   0.451 -0.0961  0.2808 -0.3765
 7850SOL    HW125557   8.469   9.344   0.522  1.2065  0.2522 -0.1910
 7850SOL    HW225558   8.537   9.214   0.485  0.8482  0.4656 -1.6435
 7851SOL     OW25559   5.339   2.644   5.954  0.0161  0.2603  0.2318
 7851SOL    HW125560   5.271   2.582   5.927 -1.2881  1.5045  0.5525
 7851SOL    HW225561   5.418   2.613   5.910 -0.7910 -1.1174 -0.3067
 7852SOL     OW25562   0.649   0.357   7.956 -0.3272 -0.0591 -0.0634
 7852SOL    HW125563   0.602   0.426   7.910  0.4564 -0.0574 -0.8832
 7852SOL    HW225564   0.733   0.396   7.978  0.3742 -0.9235 -1.0799
 7853SOL     OW25565   8.419   6.534   9.413 -0.3471 -0.6075 -0.1512
 7853SOL    HW125566   8.487   6.467   9.425 -1.4300 -1.5428  1.0223
 7853SOL    HW225567   8.433   6.566   9.324  0.8553 -1.6447 -0.3735
 7854SOL     OW25568   6.740   5.771   2.116  0.1804 -0.8718 -0.2874
 7854SOL    HW125569   6.755   5.836   2.048  2.0758 -2.0209 -1.0405
 7854SOL    HW225570   6.809   5.786   2.180  0.4291 -1.9119 -0.2985
 7855SOL     OW25571   8.876   8.130   0.800  0.2215  0.1649 -0.1700
 7855SOL    HW125572   8.801   8.090   0.755  0.1423  0.0801  0.0360
 7855SOL    HW225573   8.837   8.181   0.871  0.4359 -1.3312  1.0729
 7856SOL     OW25574   7.300   0.134   3.525 -0.0640  0.5159 -0.0045
 7856SOL    HW125575   7.236   0.121   3.455 -0.5222  1.9841  0.1146
 7856SOL    HW225576   7.261   0.199   3.582  0.2710 -0.6907  1.6963
 7857SOL     OW25577   2.597   9.934  10.124 -1.0714 -0.1822 -0.2382
 7857SOL    HW125578   2.686   9.967  10.136 -1.1193 -0.4810  1.1769
 7857SOL    HW225579   2.595   9.900  10.035  0.6556 -1.3726  0.1300
 7858SOL     OW25580  10.972   7.801   5.092 -0.4565  0.0554 -0.5884
 7858SOL    HW125581  10.908   7.872   5.087 -1.7167 -0.9036  0.9552
 7858SOL    HW225582  10.961   7.753   5.010 -0.6818  0.7089 -0.9533
 7859SOL     OW25583   1.555   1.923   3.611 -0.5751 -0.2334  0.0423
 7859SOL    HW125584   1.524   1.955   3.696 -1.8650 -1.1764 -0.0433
 7859SOL    HW225585   1.572   2.002   3.560 -0.5403  0.3326  0.9239
 7860SOL     OW25586   8.956   7.925   3.056  0.0637 -0.0170 -0.1715
 7860SOL    HW125587   8.862   7.945   3.053 -0.2010 -0.7454  1.6098
 7860SOL    HW225588   8.961   7.830   3.046  0.8805  0.2317 -3.0209
 7861SOL     OW25589   6.568   1.113   0.399  0.3650  0.2499 -0.6049
 7861SOL    HW125590   6.592   1.024   0.425 -0.7746  0.0821 -0.0217
 7861SOL    HW225591   6.639   1.168   0.433 -0.6242 -0.0691  2.2366
 7862SOL     OW25592  10.897   5.713   6.568  0.4675 -0.3106 -0.2712
 7862SOL    HW125593  10.961   5.641   6.568  0.6676 -0.1566 -1.7523
 7862SOL    HW225594  10.812   5.670   6.558  0.4532 -0.4160  0.2479
 7863SOL     OW25595   2.026   4.708   9.191  0.3290  0.3537 -0.4632
 7863SOL    HW125596   1.971   4.702   9.113 -0.0850 -1.1909 -0.0981
 7863SOL    HW225597   1.993   4.785   9.238 -0.3965  0.4393 -1.0965
 7864SOL     OW25598   5.353   8.355  10.329 -0.1709  0.0352 -0.1201
 7864SOL    HW125599   5.294   8.422  10.296  2.7265  2.3045 -1.1492
 7864SOL    HW225600   5.391   8.315  10.251  3.5903  2.4948  0.2221
 7865SOL     OW25601   5.374   4.003   7.285 -0.0857  0.0168  0.2727
 7865SOL    HW125602   5.336   4.064   7.348  0.5155  3.0540 -2.0815
 7865SOL    HW225603   5.445   4.052   7.243  1.8258 -3.0480 -0.3908
 7866SOL     OW25604  10.443   3.311   7.447 -0.2078 -0.1952  0.2251
 7866SOL    HW125605  10.454   3.216   7.438  2.6841 -0.0043  0.6361
 7866SOL    HW225606  10.465   3.346   7.361 -1.1677  0.1375  0.1023
 7867SOL     OW25607   4.857   8.167   2.436  0.4801 -0.0405  0.2702
 7867SOL    HW125608   4.932   8.108   2.430  2.0329  1.6134  1.9203
 7867SOL    HW225609   4.809   8.137   2.513  0.7125  0.2031  0.5158
 7868SOL     OW25610   3.308  10.082   7.168 -0.1718 -0.0676 -0.4134
 7868SOL    HW125611   3.386  10.137   7.177  0.6257 -1.1230 -0.6022
 7868SOL    HW225612   3.301  10.066   7.074 -2.0992  2.0318 -0.7106
 7869SOL     OW25613  10.970   1.410   3.154 -0.2458  0.3572  0.7621
 7869SOL    HW125614  10.989   1.466   3.078 -2.4515  0.6011  0.3255
 7869SOL    HW225615  10.908   1.345   3.121 -2.5126  1.4140  2.6462
 7870SOL     OW25616  10.222   7.225   0.287  0.2980  0.1681  0.0679
 7870SOL    HW125617  10.132   7.193   0.299  0.2069  0.7796  1.1383
 7870SOL    HW225618  10.217   7.280   0.209  0.0355 -0.8158 -0.6382
 7871SOL     OW25619   6.769   2.147   5.698 -0.2774 -0.2577 -0.0866
 7871SOL    HW125620   6.755   2.053   5.702  1.1865 -0.5812 -1.4863
 7871SOL    HW225621   6.685   2.185   5.724 -0.8443 -1.9258  0.6656
 7872SOL     OW25622   9.967   2.938  10.485 -0.3017  0.1651 -0.6416
 7872SOL    HW125623  10.058   2.965  10.493 -0.6158  1.1156 -0.1347
 7872SOL    HW225624   9.958   2.866  10.548  0.1486 -0.0879 -0.8610
 7873SOL     OW25625   2.904   7.245   2.791  0.2219  0.0028  0.3342
 7873SOL    HW125626   2.853   7.284   2.720  0.1189  1.8714  1.3517
 7873SOL    HW225627   2.971   7.310   2.810  2.1689 -1.8018 -0.0317
 7874SOL     OW25628   3.353   0.051   8.290  0.0121 -0.2861  0.8422
 7874SOL    HW125629   3.411  -0.018   8.258 -0.6404 -0.8526  0.8586
 7874SOL    HW225630   3.363   0.122   8.227 -1.4147 -1.4544 -0.8033
 7875SOL     OW25631   1.916   5.571   2.513  0.0739  0.5983 -0.0313
 7875SOL    HW125632   1.840   5.621   2.484  0.8238  0.9719 -1.4571
 7875SOL    HW225633   1.991   5.616   2.474  1.1614  0.9314  2.2956
 7876SOL     OW25634   0.002   1.414   2.595  0.4067  0.3676  0.3130
 7876SOL    HW125635   0.073   1.477   2.584 -1.3379  2.3950 -0.0158
 7876SOL    HW225636  -0.051   1.451   2.666 -0.1906 -1.2426  0.7467
 7877SOL     OW25637   7.863   7.587   8.633 -0.4253  0.1214 -0.3302
 7877SOL    HW125638   7.859   7.676   8.670  0.7350 -0.9934  2.8944
 7877SOL    HW225639   7.951   7.581   8.596  0.5296 -0.4182  1.8702
 7878SOL     OW25640   8.925   2.899   9.423 -0.2640  0.4728 -0.0247
 7878SOL    HW125641   8.886   2.928   9.506 -0.6667  3.0382 -1.0346
 7878SOL    HW225642   9.018   2.919   9.433 -0.1883  0.0826  0.0722
 7879SOL     OW25643   8.203   0.212   9.204 -0.1575  0.0375  0.0561
 7879SOL    HW125644   8.127   0.268   9.215 -0.8942 -0.9769  0.2749
 7879SOL    HW225645   8.184   0.161   9.125  0.3883 -0.0767 -0.0065
 7880SOL     OW25646   9.234  10.674   3.166 -0.7639 -0.2182  0.3130
 7880SOL    HW125647   9.207  10.629   3.086  1.6011 -1.6060  0.1941
 7880SOL    HW225648   9.205  10.764   3.154  2.1599  0.4591 -3.6083
 7881SOL     OW25649   2.392   3.980   8.246  0.1631  0.2476  0.0119
 7881SOL    HW125650   2.377   3.957   8.155  1.6453  1.6270 -0.6177
 7881SOL    HW225651   2.380   4.075   8.250  4.0282  0.8951  0.2972
 7882SOL     OW25652   4.269   0.242   5.886  0.5429 -0.1152  0.3799
 7882SOL    HW125653   4.199   0.183   5.912 -0.4234 -0.3048 -2.3678
 7882SOL    HW225654   4.254   0.258   5.793  2.7689  1.7633  0.2533
 7883SOL     OW25655   4.982   4.009   8.174 -0.1967  0.0961 -0.2297
 7883SOL    HW125656   5.035   4.077   8.214  0.6469  0.0118 -1.1691
 7883SOL    HW225657   4.973   3.942   8.242  2.6317 -0.8295 -0.6375
 7884SOL     OW25658   4.467   7.472   8.841 -0.3004  1.1839  0.1404
 7884SOL    HW125659   4.412   7.400   8.870 -1.5938  1.6940 -0.9765
 7884SOL    HW225660   4.553   7.453   8.879 -0.7417 -0.6485  0.2956
 7885SOL     OW25661   4.661   7.307   8.388  0.8780 -0.5005  0.0741
 7885SOL    HW125662   4.699   7.264   8.311  0.9788  0.5897 -0.5075
 7885SOL    HW225663   4.592   7.363   8.352  1.2011  0.3402  0.7340
 7886SOL     OW25664   5.232   1.724   6.706 -0.3917 -0.9262  0.7385
 7886SOL    HW125665   5.318   1.744   6.669 -0.7824 -2.1488 -0.9625
 7886SOL    HW225666   5.252   1.687   6.793  0.6311  0.6990  1.2491
 7887SOL     OW25667   5.232   1.158   3.569  0.1477  0.0728 -0.3340
 7887SOL    HW125668   5.264   1.247   3.555  0.0516  0.1686  0.0598
 7887SOL    HW225669   5.194   1.159   3.656 -0.8962 -0.0580 -0.7686
 7888SOL     OW25670   2.242   5.124   9.511  0.7213 -0.6958 -0.2472
 7888SOL    HW125671   2.264   5.067   9.438 -0.3634 -1.2503 -0.1614
 7888SOL    HW225672   2.320   5.122   9.567  2.1856  0.9432 -2.0703
 7889SOL     OW25673   6.985   8.854   1.647  0.3452 -0.0996  0.1624
 7889SOL    HW125674   7.001   8.945   1.622  1.8142 -0.1577  0.7610
 7889SOL    HW225675   7.020   8.847   1.736 -1.1444 -0.8852  0.7236
 7890SOL     OW25676   2.577  10.889  10.947  0.0403 -0.7981 -0.4377
 7890SOL    HW125677   2.608  10.828  11.013 -0.3059 -0.6417 -0.1285
 7890SOL    HW225678   2.655  10.912  10.897  0.2592 -1.1034 -0.2388
 7891SOL     OW25679   0.398   8.474   5.381  0.2847  0.2051 -0.0770
 7891SOL    HW125680   0.335   8.425   5.327  0.4546  0.0552 -0.1379
 7891SOL    HW225681   0.482   8.432   5.364  0.2923 -0.0225  0.5307
 7892SOL     OW25682   3.371   4.919   9.499 -0.1868  0.0691  0.2371
 7892SOL    HW125683   3.304   4.985   9.482  0.7325  0.7188 -1.0900
 7892SOL    HW225684   3.372   4.866   9.419  1.9899  1.1087 -0.5090
 7893SOL     OW25685  10.388   0.751   2.932 -0.0180 -0.4566 -0.2830
 7893SOL    HW125686  10.330   0.768   2.858 -1.8194  2.0238  1.5105
 7893SOL    HW225687  10.365   0.818   2.996  1.8794 -2.0736  2.2974
 7894SOL     OW25688   0.882   6.216   1.142 -0.2418 -0.3952 -0.1129
 7894SOL    HW125689   0.791   6.203   1.166  0.0053  0.6702  1.5636
 7894SOL    HW225690   0.904   6.141   1.087 -2.3758 -0.1788 -1.3361
 7895SOL     OW25691   8.206   5.524   5.486  0.9572 -1.0581 -0.6403
 7895SOL    HW125692   8.292   5.492   5.463  0.7754 -0.9670 -1.4761
 7895SOL    HW225693   8.189   5.596   5.425 -0.6055 -2.4757 -1.9927
 7896SOL     OW25694   1.499   4.740   5.303 -0.4899  0.1948  0.1785
 7896SOL    HW125695   1.561   4.775   5.240 -1.5821  0.0826 -1.0035
 7896SOL    HW225696   1.552   4.712   5.377  0.9002 -0.3493 -0.9895
 7897SOL     OW25697   1.155   2.359   2.387  0.3734  0.5781 -0.8316
 7897SOL    HW125698   1.112   2.371   2.302 -1.6290  1.7234  0.2823
 7897SOL    HW225699   1.242   2.324   2.365  0.0099  1.0809 -3.3508
 7898SOL     OW25700   7.309  10.786   2.022 -0.7621  0.0140  0.1934
 7898SOL    HW125701   7.243  10.773   2.090  1.1621  0.1657  2.2143
 7898SOL    HW225702   7.361  10.706   2.024  0.4267  0.7648  0.2339
 7899SOL     OW25703   1.026   9.566   8.740  0.2709  0.2887  0.2694
 7899SOL    HW125704   1.063   9.499   8.796  3.2857  1.2319 -0.4382
 7899SOL    HW225705   0.965   9.519   8.684 -0.4568 -1.1823  2.1729
 7900SOL     OW25706   4.106   1.869   3.124  0.2546 -0.6888 -0.5251
 7900SOL    HW125707   4.184   1.861   3.069 -0.3594 -0.1585 -1.5072
 7900SOL    HW225708   4.125   1.815   3.200  2.6875  1.5503  0.5874
 7901SOL     OW25709   0.548   2.557  10.522 -0.4660  0.2121 -0.6723
 7901SOL    HW125710   0.554   2.645  10.484  1.6831  0.5551  0.2944
 7901SOL    HW225711   0.564   2.570  10.616 -3.5019 -0.8660  0.0932
 7902SOL     OW25712  10.750   2.642   9.032 -0.1171  0.4382 -0.1004
 7902SOL    HW125713  10.800   2.661   9.111 -0.0381  0.8911 -0.2516
 7902SOL    HW225714  10.662   2.673   9.052  0.1804  1.6876 -0.6086
 7903SOL     OW25715   4.680   1.091   7.059  0.0006  0.4407  0.0788
 7903SOL    HW125716   4.646   1.075   6.971  2.7020 -1.9726 -0.6588
 7903SOL    HW225717   4.650   1.015   7.110  0.7773  0.4102  0.5000
 7904SOL     OW25718   7.263   2.661   5.946  0.2568 -0.3187  0.3054
 7904SOL    HW125719   7.299   2.675   5.859 -1.7488  0.3879 -0.4673
 7904SOL    HW225720   7.213   2.741   5.965 -0.2494 -0.9115  1.6194
 7905SOL     OW25721   8.208   1.961  10.283 -0.1583 -0.0919  0.3081
 7905SOL    HW125722   8.182   2.047  10.248  0.2730  0.1548  0.5949
 7905SOL    HW225723   8.233   1.911  10.205  0.1887  0.2476  0.1967
 7906SOL     OW25724   8.408   1.372   8.332  0.6640 -0.0057  0.1641
 7906SOL    HW125725   8.452   1.290   8.352  0.4281 -0.0456  0.5154
 7906SOL    HW225726   8.383   1.363   8.240 -0.3522 -0.7864  0.5036
 7907SOL     OW25727   3.156   9.821   0.042 -0.4408 -0.1293 -0.1534
 7907SOL    HW125728   3.247   9.845   0.062 -0.3538 -0.4127 -0.2055
 7907SOL    HW225729   3.162   9.769  -0.038 -0.4357 -1.8269  0.9026
 7908SOL     OW25730   0.966   3.137   1.881  0.3140  0.3532  0.1889
 7908SOL    HW125731   1.051   3.178   1.895 -0.2889  1.7221  0.0396
 7908SOL    HW225732   0.932   3.121   1.969  0.6700 -0.0910  0.2482
 7909SOL     OW25733   9.710  10.619   3.495 -0.1110  0.7971  0.0840
 7909SOL    HW125734   9.782  10.662   3.449 -0.6205 -0.8669 -2.4598
 7909SOL    HW225735   9.637  10.681   3.487  0.0536  0.9141 -0.5516
 7910SOL     OW25736   1.552   8.634   0.838  0.3427  0.0292  0.8836
 7910SOL    HW125737   1.565   8.612   0.931  2.0217  0.9104  0.8932
 7910SOL    HW225738   1.593   8.721   0.828  1.4102 -0.6306 -0.9609
 7911SOL     OW25739   5.403   5.568   9.265  0.0931  0.7068  0.4746
 7911SOL    HW125740   5.336   5.627   9.300 -1.9362 -0.3623 -1.3494
 7911SOL    HW225741   5.429   5.608   9.182 -0.0548 -0.0914  0.0355
 7912SOL     OW25742   0.669   9.542  10.553  0.0927 -0.1039  0.5284
 7912SOL    HW125743   0.702   9.630  10.535  2.0249 -0.6719  1.0989
 7912SOL    HW225744   0.658   9.503  10.466  0.4425  0.2582  0.3178
 7913SOL     OW25745   4.902   5.498   9.245 -0.4447 -0.7273 -0.9708
 7913SOL    HW125746   4.994   5.480   9.225 -0.2494 -0.4651 -0.3274
 7913SOL    HW225747   4.862   5.511   9.159  0.4107  0.5695 -1.2056
 7914SOL     OW25748   5.702   2.555   0.245  0.2734  0.1092  0.1679
 7914SOL    HW125749   5.727   2.637   0.288  0.6016 -1.1778  2.5776
 7914SOL    HW225750   5.617   2.533   0.281  0.3638 -0.8131 -0.1402
 7915SOL     OW25751   5.853   7.280   9.719 -0.6087 -0.2285  0.2478
 7915SOL    HW125752   5.897   7.236   9.792 -0.1272  0.1062  0.1616
 7915SOL    HW225753   5.787   7.218   9.689 -1.6423  0.0794  1.7472
 7916SOL     OW25754   9.830   4.586   4.662  0.3071 -0.3432  0.4992
 7916SOL    HW125755   9.786   4.586   4.576  2.2322  2.4354 -0.6183
 7916SOL    HW225756   9.782   4.652   4.713  0.2760 -0.7071  0.9433
 7917SOL     OW25757  10.518   5.370   5.359 -0.0211 -0.1173  0.0406
 7917SOL    HW125758  10.428   5.336   5.359 -0.4761  1.0078 -1.2520
 7917SOL    HW225759  10.523   5.425   5.281  1.6887  0.1432  0.2986
 7918SOL     OW25760   1.004   1.672   6.546  0.0388  0.4024  0.0821
 7918SOL    HW125761   1.008   1.595   6.603 -1.3809  1.0613  1.1220
 7918SOL    HW225762   0.925   1.658   6.493 -0.4976  1.3569  0.6154
 7919SOL     OW25763   5.041   0.238   2.417  0.1933  0.0814 -0.3129
 7919SOL    HW125764   5.006   0.265   2.501  2.2412  1.5626  0.1442
 7919SOL    HW225765   5.136   0.238   2.430  0.5061 -1.0470 -2.2289
 7920SOL     OW25766   6.982  10.950   5.152  0.5600  0.4956  0.3005
 7920SOL    HW125767   6.942  10.880   5.100  0.0240  0.9045  0.1635
 7920SOL    HW225768   7.016  10.905   5.229 -0.4387  0.1766  0.5732
 7921SOL     OW25769   7.594   4.471   9.509 -0.3492  0.0558  0.2379
 7921SOL    HW125770   7.500   4.489   9.498 -0.7086 -0.5883  2.0237
 7921SOL    HW225771   7.614   4.499   9.598  0.9336 -0.7596  0.2316
 7922SOL     OW25772   6.596   6.118   1.296 -0.1570  0.0640  0.2415
 7922SOL    HW125773   6.529   6.080   1.240 -0.4160  1.0618 -0.1498
 7922SOL    HW225774   6.563   6.103   1.385  0.9249 -2.7696  0.2582
 7923SOL     OW25775  10.129   5.279  10.689  0.0575  0.0003 -0.1220
 7923SOL    HW125776  10.217   5.299  10.657  0.3016 -2.1541 -1.0072
 7923SOL    HW225777  10.089   5.229  10.618 -1.7432  0.6028  0.4362
 7924SOL     OW25778   7.822   8.873   7.545 -0.2688 -0.4982  0.5727
 7924SOL    HW125779   7.785   8.826   7.470 -2.1196 -1.0437  1.7602
 7924SOL    HW225780   7.787   8.828   7.622  1.6624 -0.0251  1.8021
 7925SOL     OW25781   8.324   8.991   3.245  0.2437 -0.1036  0.2220
 7925SOL    HW125782   8.340   9.005   3.338 -1.1928  0.0165  0.4657
 7925SOL    HW225783   8.334   8.897   3.232 -0.2597 -0.2187  0.6460
 7926SOL     OW25784   3.526   5.049   2.375 -0.1463 -0.1392  0.4382
 7926SOL    HW125785   3.526   5.029   2.469 -1.3799  0.5669  0.6046
 7926SOL    HW225786   3.520   4.963   2.333  3.4966 -0.7640  0.8546
 7927SOL     OW25787   7.435   5.772   7.994  0.0854 -0.1255  0.3229
 7927SOL    HW125788   7.488   5.694   8.011 -0.4270 -1.0575 -1.9437
 7927SOL    HW225789   7.366   5.742   7.934  0.0181  2.1048 -0.8513
 7928SOL     OW25790   1.679   6.785   6.928  0.0617  0.0944 -0.6210
 7928SOL    HW125791   1.633   6.860   6.967 -0.1535 -0.0337 -0.6302
 7928SOL    HW225792   1.752   6.825   6.881  0.5430  0.2234  0.2184
 7929SOL     OW25793   5.893   0.535   9.104  0.5838  0.1285 -0.1094
 7929SOL    HW125794   5.925   0.490   9.026  0.6681  0.2699 -0.1560
 7929SOL    HW225795   5.908   0.628   9.086 -1.7924  0.4089 -1.0463
 7930SOL     OW25796   8.956   0.623   1.342 -0.3925  0.2689 -0.2652
 7930SOL    HW125797   8.996   0.651   1.260 -0.2385  0.5300 -0.0988
 7930SOL    HW225798   8.936   0.530   1.328  1.8535 -0.3386  0.2775
 7931SOL     OW25799   0.300   4.385   3.908  0.3610  0.3900 -0.2637
 7931SOL    HW125800   0.339   4.347   3.829 -0.3166 -0.4451 -0.2128
 7931SOL    HW225801   0.372   4.431   3.950  1.7669 -2.3656  0.6237
 7932SOL     OW25802   4.696   3.537   8.578 -0.5317  0.0238  0.3209
 7932SOL    HW125803   4.765   3.476   8.552 -0.3513  0.4731 -0.2825
 7932SOL    HW225804   4.617   3.504   8.535 -0.5481 -0.0819  0.4299
 7933SOL     OW25805   1.341   2.548   8.757 -0.5593  0.3508 -0.3967
 7933SOL    HW125806   1.405   2.503   8.812 -1.8761 -0.8028  0.2417
 7933SOL    HW225807   1.391   2.618   8.715  1.0859 -0.4415  0.1593
 7934SOL     OW25808   4.069   5.121   4.618  0.1604 -0.0293 -0.1019
 7934SOL    HW125809   4.039   5.055   4.556  0.6054 -0.2382 -0.0959
 7934SOL    HW225810   4.120   5.073   4.683 -2.4757 -0.2574  1.9946
 7935SOL     OW25811   7.715   3.596   5.811 -0.1143  0.9925 -0.1725
 7935SOL    HW125812   7.669   3.518   5.841  0.3844  0.7772  0.0429
 7935SOL    HW225813   7.664   3.626   5.736 -0.6741  0.8330  0.1388
 7936SOL     OW25814   8.161   4.104  10.577  0.1691 -0.0315 -1.0107
 7936SOL    HW125815   8.093   4.157  10.620  0.7580 -0.6890  0.8564
 7936SOL    HW225816   8.240   4.158  10.585 -0.0233  0.5927 -2.8926
 7937SOL     OW25817   1.305   3.269   5.204 -0.6863  0.5224 -0.3775
 7937SOL    HW125818   1.292   3.341   5.266 -0.0820 -0.0880  0.4745
 7937SOL    HW225819   1.220   3.223   5.203 -1.1910  1.4382 -1.2009
 7938SOL     OW25820   2.012   1.981   8.975 -0.0205 -0.3920  0.2976
 7938SOL    HW125821   2.030   1.918   8.905 -1.2013  0.8957 -1.2523
 7938SOL    HW225822   2.096   2.024   8.991 -0.2284  1.3379 -2.5073
 7939SOL     OW25823   8.329   9.938   9.285 -0.1001  0.0395  0.0032
 7939SOL    HW125824   8.296   9.984   9.362 -2.8245 -2.9844  0.8896
 7939SOL    HW225825   8.423   9.929   9.301  0.3039  3.6350  0.5011
 7940SOL     OW25826   8.129  10.401   5.447  0.5742 -0.2958  0.8631
 7940SOL    HW125827   8.144  10.431   5.537 -1.2129  1.8578  0.5319
 7940SOL    HW225828   8.083  10.318   5.458  0.7175 -0.2549  1.9305
 7941SOL     OW25829  10.194   7.255  10.171  0.0236 -0.0224 -0.1589
 7941SOL    HW125830  10.104   7.269  10.201 -1.8603 -1.0496 -4.5439
 7941SOL    HW225831  10.228   7.188  10.230 -1.7209  0.9716  2.1475
 7942SOL     OW25832   2.103   3.323   1.739 -0.2213 -0.0763  0.0814
 7942SOL    HW125833   2.051   3.367   1.671  1.0728  1.0102 -0.2588
 7942SOL    HW225834   2.099   3.383   1.814 -0.1896 -0.4187  0.3565
 7943SOL     OW25835   4.754   8.963   7.388 -0.7388  0.1133  0.0801
 7943SOL    HW125836   4.830   8.964   7.329  0.1895  0.2013  1.2490
 7943SOL    HW225837   4.726   8.872   7.390 -0.8972  0.1329 -0.6124
 7944SOL     OW25838   8.279   0.391   4.432  0.2355  0.1580  0.5390
 7944SOL    HW125839   8.281   0.390   4.336  0.9536 -0.1683  0.5512
 7944SOL    HW225840   8.309   0.304   4.458 -2.2567 -0.6383  1.0671
 7945SOL     OW25841   9.551   7.006   2.689 -0.2553 -0.4564 -0.2765
 7945SOL    HW125842   9.643   6.991   2.711 -0.3379  1.0822  1.3548
 7945SOL    HW225843   9.504   6.934   2.733  0.1763 -1.7121 -1.7771
 7946SOL     OW25844   7.183   5.908   0.287 -0.0491  0.1521  0.2871
 7946SOL    HW125845   7.140   5.993   0.290 -0.2515  0.1197 -0.9316
 7946SOL    HW225846   7.131   5.858   0.223  2.9106  0.7801 -2.9387
 7947SOL     OW25847   3.428   3.776   6.452 -0.0558 -0.2143  0.0227
 7947SOL    HW125848   3.410   3.831   6.375  0.6320 -1.0804 -0.7895
 7947SOL    HW225849   3.518   3.798   6.475  0.3167 -1.1582 -0.4699
 7948SOL     OW25850   1.331   0.242   7.747  0.4944 -0.3650 -0.3891
 7948SOL    HW125851   1.369   0.186   7.815  0.6544  0.3486  0.1260
 7948SOL    HW225852   1.404   0.298   7.719 -0.6283  3.1529  2.7483
 7949SOL     OW25853   7.820   4.152  10.058  0.1473 -0.3069 -0.0303
 7949SOL    HW125854   7.860   4.218  10.002 -0.9080 -0.0023 -0.4630
 7949SOL    HW225855   7.798   4.080   9.999  1.2693 -1.0509  0.4346
 7950SOL     OW25856   3.691  10.878  10.676  0.1516 -0.1122 -0.0417
 7950SOL    HW125857   3.753  10.849  10.744 -0.2457  0.3874  0.5453
 7950SOL    HW225858   3.746  10.897  10.600  0.9123  1.6268  0.8800
 7951SOL     OW25859  10.019   0.292   3.220  0.1482  0.0139 -0.4826
 7951SOL    HW125860  10.101   0.334   3.194  0.5678  0.0180  0.7717
 7951SOL    HW225861   9.963   0.299   3.143  2.0202 -1.8456 -2.1594
 7952SOL     OW25862   0.318  10.894   9.856 -0.2144  0.1869  0.3131
 7952SOL    HW125863   0.413  10.899   9.865 -0.1683  1.6359 -0.5919
 7952SOL    HW225864   0.297  10.802   9.868  1.3530 -0.2223  0.0991
 7953SOL     OW25865   0.542   4.960   3.775  0.4982  0.3767  0.4601
 7953SOL    HW125866   0.502   4.874   3.765  1.8453 -0.2619  0.2871
 7953SOL    HW225867   0.561   4.988   3.685  0.6148  0.5705  0.5442
 7954SOL     OW25868  10.710   1.591   2.911 -0.2304 -0.3575 -0.3966
 7954SOL    HW125869  10.674   1.642   2.839  1.3836 -0.6025 -1.4325
 7954SOL    HW225870  10.742   1.511   2.870 -0.2549 -0.9837  0.7683
 7955SOL     OW25871   8.751   6.407   8.957  0.2007 -0.2405 -0.0646
 7955SOL    HW125872   8.731   6.496   8.926  0.0060 -1.2820 -3.2719
 7955SOL    HW225873   8.769   6.418   9.051 -0.3155  3.0793 -0.2287
 7956SOL     OW25874   3.929   9.199   6.027  0.3623  0.4203  0.0960
 7956SOL    HW125875   3.991   9.131   6.053  0.0847  0.0692 -0.1431
 7956SOL    HW225876   3.846   9.172   6.065  0.2251  0.5655 -0.0966
 7957SOL     OW25877   7.541   8.592  10.044  0.1357  0.1329  0.1263
 7957SOL    HW125878   7.532   8.512   9.993  1.5514 -0.4291  0.6939
 7957SOL    HW225879   7.452   8.622  10.059 -0.4438 -1.5952  0.3052
 7958SOL     OW25880   9.730   5.637   5.765  0.0598 -0.0989 -0.0054
 7958SOL    HW125881   9.661   5.580   5.798 -1.6389 -0.0721 -3.1814
 7958SOL    HW225882   9.786   5.580   5.713  0.5063  0.4807 -0.1732
 7959SOL     OW25883  10.325   0.365  10.050 -0.6411  0.6115 -1.0149
 7959SOL    HW125884  10.293   0.283  10.087  2.8045  0.7780  3.2551
 7959SOL    HW225885  10.288   0.433  10.107  1.4149  1.3242 -0.4069
 7960SOL     OW25886   9.185   1.323   0.643  0.1707 -0.0908 -0.5640
 7960SOL    HW125887   9.264   1.337   0.591 -1.4019  1.1063 -2.7811
 7960SOL    HW225888   9.175   1.403   0.694  0.8229 -0.5933  0.3732
 7961SOL     OW25889   7.319   9.296   7.835 -0.6402 -0.7764 -0.6115
 7961SOL    HW125890   7.308   9.257   7.922  0.4857 -0.3658 -0.2719
 7961SOL    HW225891   7.259   9.246   7.780 -0.0346 -2.2983  0.0317
 7962SOL     OW25892   7.502   3.039   7.291  0.0127  0.0226 -0.8423
 7962SOL    HW125893   7.553   2.986   7.352 -0.0654  0.3068 -0.5251
 7962SOL    HW225894   7.449   2.976   7.242 -0.5438 -0.1469 -0.0314
 7963SOL     OW25895   7.683   6.901   3.017 -0.2758 -0.3528  0.2610
 7963SOL    HW125896   7.723   6.822   3.055  0.6809  0.2086  0.4434
 7963SOL    HW225897   7.736   6.973   3.050  0.1888  0.2038 -1.6101
 7964SOL     OW25898   6.749   0.717   3.126 -0.2586  0.1926 -0.0209
 7964SOL    HW125899   6.671   0.712   3.182 -0.7283 -1.1267 -0.7524
 7964SOL    HW225900   6.749   0.634   3.078  2.0935 -0.2507  0.6131
 7965SOL     OW25901   5.015   7.190  10.663 -1.0796 -0.1250  0.3893
 7965SOL    HW125902   5.031   7.242  10.741  0.0048  1.1855 -0.6628
 7965SOL    HW225903   5.043   7.102  10.687  1.4843  0.7036  0.8171
 7966SOL     OW25904  10.225   4.482   0.750  0.3267  0.0941  0.3427
 7966SOL    HW125905  10.184   4.429   0.681  0.8792  0.4172 -0.2386
 7966SOL    HW225906  10.318   4.480   0.730  0.4455  0.5501  0.8366
 7967SOL     OW25907   7.754   8.186   3.148 -0.2079 -0.3599  0.2642
 7967SOL    HW125908   7.681   8.208   3.207  0.0964  3.5986 -0.5923
 7967SOL    HW225909   7.832   8.214   3.195  0.4975 -1.5517 -0.1654
 7968SOL     OW25910   7.508  10.675   5.688 -0.2402  0.7470  0.2268
 7968SOL    HW125911   7.563  10.677   5.767 -1.0647 -0.6796  0.8874
 7968SOL    HW225912   7.453  10.597   5.700 -0.0867  0.2329 -1.9708
 7969SOL     OW25913   0.886   0.620   9.256 -0.8976  0.5233 -0.1445
 7969SOL    HW125914   0.834   0.541   9.245 -0.4111  0.1521  0.1880
 7969SOL    HW225915   0.915   0.643   9.168 -0.6732  0.0784 -0.1884
 7970SOL     OW25916   4.731   4.337   2.950 -0.0973  0.1950 -0.1282
 7970SOL    HW125917   4.700   4.402   3.012 -0.9692  2.0085 -2.3108
 7970SOL    HW225918   4.658   4.276   2.940  0.4070 -0.6885  1.2832
 7971SOL     OW25919  10.340   3.933   5.286  0.2935  0.5131  0.2393
 7971SOL    HW125920  10.330   3.876   5.210  1.0036  0.8796 -0.1354
 7971SOL    HW225921  10.350   4.021   5.249  0.4112  0.7249  0.7620
 7972SOL     OW25922   3.236   6.672   6.136 -0.4559  0.6256  1.4804
 7972SOL    HW125923   3.266   6.637   6.220 -1.3352  0.2907  1.6653
 7972SOL    HW225924   3.266   6.607   6.071  1.1113  1.3856  1.3910
 7973SOL     OW25925   8.074  10.641   8.863  0.0181  0.1457  0.3877
 7973SOL    HW125926   8.158  10.605   8.837  1.3081  0.7925  3.2829
 7973SOL    HW225927   8.082  10.735   8.847 -0.6885  0.0582 -0.5578
 7974SOL     OW25928   7.731   1.826   8.612 -0.0758 -0.7517 -0.5535
 7974SOL    HW125929   7.729   1.730   8.615  1.9829 -0.8207  1.3624
 7974SOL    HW225930   7.762   1.846   8.524  2.7552 -2.0628  0.0183
 7975SOL     OW25931   2.785   5.979   7.659 -0.0207  0.1484  0.3421
 7975SOL    HW125932   2.690   5.971   7.655  0.0395  0.0535 -1.3425
 7975SOL    HW225933   2.818   5.925   7.588  1.2327  1.2054  0.0679
 7976SOL     OW25934   3.135   0.355   7.359 -0.1592  0.2943  0.1561
 7976SOL    HW125935   3.080   0.293   7.408  0.3793 -0.8644 -0.6657
 7976SOL    HW225936   3.086   0.437   7.361 -1.8164 -0.6359 -0.3386
 7977SOL     OW25937   7.028   9.355   8.135  0.1940 -0.3900 -0.1878
 7977SOL    HW125938   7.087   9.421   8.099  1.4638 -0.5113  1.5512
 7977SOL    HW225939   7.050   9.351   8.228 -0.4016 -2.6888 -0.0889
 7978SOL     OW25940   6.992   1.102   1.918  0.2333 -0.4284  0.1554
 7978SOL    HW125941   6.976   1.187   1.958  1.2062  0.5402 -1.4036
 7978SOL    HW225942   7.077   1.074   1.953 -0.9811 -1.7775  2.2320
 7979SOL     OW25943  10.386   2.753   7.216 -0.0105 -0.1507  0.4503
 7979SOL    HW125944  10.446   2.826   7.201  1.7129 -1.6170 -0.0672
 7979SOL    HW225945  10.351   2.733   7.129  0.4102 -0.6773  0.4010
 7980SOL     OW25946   3.249   3.733   6.178 -0.4439  0.2361 -0.5100
 7980SOL    HW125947   3.305   3.661   6.208  1.7859  2.5042  1.2231
 7980SOL    HW225948   3.163   3.712   6.214  0.3810 -1.0681  0.8515
 7981SOL     OW25949   1.362  10.723   8.741 -0.0411  0.3507  0.6301
 7981SOL    HW125950   1.356  10.627   8.743 -0.2082  0.3656  0.8455
 7981SOL    HW225951   1.315  10.748   8.661 -0.3762  0.2801  0.8033
 7982SOL     OW25952   2.508  10.292   4.928 -0.4311 -0.2560  0.2581
 7982SOL    HW125953   2.566  10.229   4.971  0.7106 -1.1786 -2.4155
 7982SOL    HW225954   2.564  10.369   4.914 -0.8481  0.1016  0.4992
 7983SOL     OW25955   3.570   1.110   1.346  0.3223  0.3227  0.0080
 7983SOL    HW125956   3.537   1.163   1.418  0.5764  0.9010 -0.2999
 7983SOL    HW225957   3.665   1.118   1.352  0.3247  1.3843 -1.1346
 7984SOL     OW25958   1.180   9.474   1.174  0.0610  0.1385 -0.0333
 7984SOL    HW125959   1.145   9.511   1.255 -1.2284 -0.3991 -0.3275
 7984SOL    HW225960   1.103   9.451   1.122  0.8562  0.8583 -1.6049
 7985SOL     OW25961   7.502   0.873   0.598 -0.6667 -0.0256 -0.2120
 7985SOL    HW125962   7.417   0.884   0.554 -0.7252 -0.5894 -0.2483
 7985SOL    HW225963   7.504   0.943   0.664 -1.4743 -0.4304  0.2696
 7986SOL     OW25964   9.293   0.956   9.128 -0.4228  0.0863  0.0637
 7986SOL    HW125965   9.379   0.932   9.162 -1.0492  0.1617  1.7872
 7986SOL    HW225966   9.282   0.901   9.051  0.4012 -1.2856  0.8880
 7987SOL     OW25967   5.890   8.559   1.880 -0.4266  0.4255 -0.1671
 7987SOL    HW125968   5.850   8.571   1.966  0.0309 -1.4158  0.3434
 7987SOL    HW225969   5.817   8.565   1.818 -1.1489 -0.6159  0.5622
 7988SOL     OW25970  10.607   6.831   3.166  0.0791 -0.3268  0.0374
 7988SOL    HW125971  10.639   6.893   3.100  1.2498 -1.9327 -0.9813
 7988SOL    HW225972  10.650   6.858   3.247  0.9300 -0.0739 -0.4858
 7989SOL     OW25973   3.893   7.970   6.334  0.1592 -0.0537  0.1204
 7989SOL    HW125974   3.983   7.945   6.355  0.2736 -1.9819 -2.2019
 7989SOL    HW225975   3.839   7.904   6.377 -0.0955  0.4882  0.6451
 7990SOL     OW25976   6.196   8.669   7.536  0.0405 -0.1822 -0.0439
 7990SOL    HW125977   6.210   8.726   7.612 -0.1313 -1.9587  1.3805
 7990SOL    HW225978   6.283   8.662   7.495 -0.0326  1.4407 -0.5234
 7991SOL     OW25979   5.612  10.312   7.950 -0.2941  0.0369 -0.2805
 7991SOL    HW125980   5.520  10.341   7.949  0.3374  2.2791  0.5861
 7991SOL    HW225981   5.607  10.217   7.947 -2.6320  0.1229 -1.0381
 7992SOL     OW25982   0.700   4.939   3.054 -0.0008 -0.3464 -0.4687
 7992SOL    HW125983   0.756   5.014   3.032  0.4445 -0.3751  0.4895
 7992SOL    HW225984   0.743   4.900   3.131 -1.2151 -0.5017  0.1477
 7993SOL     OW25985   1.355   5.328   6.443 -0.2785 -0.2286 -0.1331
 7993SOL    HW125986   1.319   5.417   6.442  0.6939  0.1744 -0.7002
 7993SOL    HW225987   1.421   5.328   6.373  2.8234 -0.0477  2.5296
 7994SOL     OW25988   4.091   0.683   9.852 -0.1502  0.2401  0.1068
 7994SOL    HW125989   4.039   0.727   9.785 -0.0751 -1.0872 -0.8506
 7994SOL    HW225990   4.034   0.678   9.928 -0.7470  0.4859 -0.3195
 7995SOL     OW25991   5.441   6.262   2.829 -0.1487 -0.1262 -0.3674
 7995SOL    HW125992   5.406   6.298   2.747  0.4531 -0.3051 -0.7046
 7995SOL    HW225993   5.450   6.168   2.812  1.0680  0.0060 -0.4905
 7996SOL     OW25994   8.453   9.302   9.600  0.4129 -0.3496  0.2087
 7996SOL    HW125995   8.376   9.344   9.562  1.2637  0.4874 -0.6251
 7996SOL    HW225996   8.467   9.224   9.547 -0.5627 -1.1688  1.1208
 7997SOL     OW25997   3.386  10.154   7.739 -0.1245 -0.0204  0.1927
 7997SOL    HW125998   3.414  10.148   7.830 -2.4576  0.0811  0.9750
 7997SOL    HW225999   3.465  10.132   7.688  1.0644 -0.6875  2.2177
 7998SOL     OW26000   2.388   4.053   9.665 -0.2658  0.1559 -0.8215
 7998SOL    HW126001   2.297   4.053   9.695 -0.1346 -0.0127 -0.4124
 7998SOL    HW226002   2.433   4.112   9.725 -0.2036  0.6456 -1.3438
 7999SOL     OW26003  10.939   3.564   1.722  0.0884 -0.3149 -0.4198
 7999SOL    HW126004  10.958   3.636   1.783 -0.0067  0.0556 -0.8219
 7999SOL    HW226005  10.850   3.580   1.693  0.3567 -0.1145 -1.1595
 8000SOL     OW26006   7.478   3.844  10.030 -0.0336 -0.1178 -0.3603
 8000SOL    HW126007   7.513   3.832  10.119  0.2283  0.4387 -0.3799
 8000SOL    HW226008   7.553   3.875   9.979  0.0253 -1.2471 -0.9842
 8001SOL     OW26009   7.269   3.445   3.184  0.0217  0.5266 -0.5729
 8001SOL    HW126010   7.293   3.356   3.158  2.1306  1.8886 -3.8496
 8001SOL    HW226011   7.173   3.444   3.184 -0.0212 -1.7011 -0.5784
 8002SOL     OW26012   2.513   9.694   1.311  0.1693 -0.0835 -0.0005
 8002SOL    HW126013   2.496   9.677   1.403  0.2652  1.3956  0.3162
 8002SOL    HW226014   2.609   9.695   1.304  0.1655  0.6067  0.0469
 8003SOL     OW26015   1.185   0.739   5.726  0.5202  0.4880 -0.0583
 8003SOL    HW126016   1.187   0.810   5.661  2.4328  1.0288  0.5275
 8003SOL    HW226017   1.273   0.702   5.723  0.6640  0.5140  2.1817
 8004SOL     OW26018  10.909   9.607   9.603  0.5722 -0.3266 -0.4111
 8004SOL    HW126019  10.951   9.529   9.566  1.4521 -0.9853  1.7777
 8004SOL    HW226020  10.969   9.635   9.672 -1.1599  0.5092  0.8164
 8005SOL     OW26021   3.496   8.100   3.858  0.5011 -0.2822 -0.1143
 8005SOL    HW126022   3.552   8.140   3.924  0.7989  0.9620 -1.0899
 8005SOL    HW226023   3.556   8.074   3.788 -0.0032  0.0102 -0.6621
 8006SOL     OW26024   8.699   7.269   4.277 -1.1481  0.0024  0.1769
 8006SOL    HW126025   8.741   7.219   4.207 -0.0822 -0.0730  0.8407
 8006SOL    HW226026   8.717   7.360   4.256 -1.2654  0.0059  0.0898
 8007SOL     OW26027   3.857   9.968   8.035  0.1033 -0.2132  0.7204
 8007SOL    HW126028   3.924   9.922   8.085 -0.0594 -1.9605 -0.5431
 8007SOL    HW226029   3.904  10.030   7.981  0.5457 -0.2960  1.0096
 8008SOL     OW26030   7.100   6.211   3.072  0.2783 -0.1639  0.1863
 8008SOL    HW126031   7.053   6.214   2.988 -0.8703  1.7449  0.8385
 8008SOL    HW226032   7.134   6.299   3.084  1.5383 -0.7527  1.1519
 8009SOL     OW26033   5.030  10.982   1.317  0.2161  0.0555 -0.5288
 8009SOL    HW126034   5.115  10.981   1.273  0.1897 -2.3421 -0.6440
 8009SOL    HW226035   5.048  11.020   1.403  1.2180  0.3886 -0.8783
 8010SOL     OW26036   5.090   8.319   1.461  0.1421 -1.1168 -0.5185
 8010SOL    HW126037   5.138   8.267   1.397  1.6486 -0.4488  0.0211
 8010SOL    HW226038   5.065   8.256   1.529  1.0844 -1.3243 -0.3542
 8011SOL     OW26039   4.141   1.423   6.377  0.0186 -0.1889  0.6137
 8011SOL    HW126040   4.087   1.364   6.430 -1.0973 -1.1466 -1.4651
 8011SOL    HW226041   4.078   1.485   6.338  0.5700 -0.4652 -0.7677
 8012SOL     OW26042   9.799  10.887   0.250  0.4142  0.2878  0.1520
 8012SOL    HW126043   9.820  10.921   0.164 -1.4969 -1.5661 -1.1461
 8012SOL    HW226044   9.728  10.942   0.282  0.2860  0.2061  0.0044
 8013SOL     OW26045   0.897   5.846   4.584  0.2740  0.3555 -0.3616
 8013SOL    HW126046   0.894   5.940   4.599  0.2806  0.5945 -1.7401
 8013SOL    HW226047   0.908   5.836   4.489  3.2180 -1.0025  0.0069
 8014SOL     OW26048   5.565   7.120   6.660 -0.3789 -0.6005  0.5606
 8014SOL    HW126049   5.538   7.179   6.731  1.4180  0.0037  0.7918
 8014SOL    HW226050   5.553   7.171   6.581 -0.7893 -0.6851  0.5620
 8015SOL     OW26051   0.183   7.371   9.865 -0.2552  0.5012 -0.0030
 8015SOL    HW126052   0.170   7.318   9.787 -0.6109 -0.3469  0.6152
 8015SOL    HW226053   0.258   7.332   9.909  0.9245  1.9105 -0.6703
 8016SOL     OW26054  10.195   3.022  10.153 -0.1719 -0.4676  0.8191
 8016SOL    HW126055  10.125   3.084  10.134  1.4196  1.1481 -0.1595
 8016SOL    HW226056  10.167   2.940  10.111 -0.6175  0.6738 -1.2777
 8017SOL     OW26057   7.369   2.440   0.080 -0.0938 -0.1325 -0.2734
 8017SOL    HW126058   7.440   2.425   0.018 -0.0917  0.4600 -0.4218
 8017SOL    HW226059   7.349   2.533   0.071  1.0979  0.4109  1.8761
 8018SOL     OW26060   6.927   8.176   3.727 -0.8486  0.5442  0.4296
 8018SOL    HW126061   6.896   8.149   3.640 -0.2580 -0.8965  0.6357
 8018SOL    HW226062   6.922   8.272   3.725 -0.0250  0.6012 -1.5073
 8019SOL     OW26063  10.427   3.493   7.663 -0.1822  0.0778 -0.4553
 8019SOL    HW126064  10.436   3.585   7.640  1.3607 -0.2653 -1.3897
 8019SOL    HW226065  10.423   3.447   7.579  1.0529 -0.8434 -0.0566
 8020SOL     OW26066   4.754   2.868   3.522 -0.1013  0.0510 -0.0283
 8020SOL    HW126067   4.781   2.846   3.433 -0.8127  0.3073 -0.3148
 8020SOL    HW226068   4.741   2.963   3.521  0.2166  0.1045  0.4453
 8021SOL     OW26069   8.176   0.727   3.887  0.0107  0.1025  0.1572
 8021SOL    HW126070   8.104   0.698   3.831  0.2533  0.2707 -0.2461
 8021SOL    HW226071   8.158   0.687   3.971  0.4330 -1.3879 -0.4300
 8022SOL     OW26072   5.540   3.790  10.978  0.5094  0.5687 -0.2290
 8022SOL    HW126073   5.486   3.864  11.006 -1.2217 -0.2941 -1.0756
 8022SOL    HW226074   5.547   3.799  10.883  0.5168 -0.1782 -0.3118
 8023SOL     OW26075   9.262   4.901   5.929 -0.3547  0.2996 -0.2644
 8023SOL    HW126076   9.344   4.891   5.879  0.0124 -0.1109  0.4065
 8023SOL    HW226077   9.254   4.995   5.942 -0.4190  0.4077 -1.0355
 8024SOL     OW26078   3.706   1.058   8.752  0.1107 -0.1690 -0.0351
 8024SOL    HW126079   3.733   0.967   8.760 -0.4662 -0.3184  0.2624
 8024SOL    HW226080   3.656   1.075   8.831  3.1426  1.4612  1.7175
 8025SOL     OW26081   6.751   9.289   9.652  0.0376  0.1170 -0.1255
 8025SOL    HW126082   6.718   9.255   9.735  0.6493 -1.4463 -0.4796
 8025SOL    HW226083   6.846   9.283   9.660  0.1138  0.3859 -0.7584
 8026SOL     OW26084   3.636  10.941   9.439  0.4903  0.4641  0.1829
 8026SOL    HW126085   3.589  10.989   9.371  1.5504 -1.1335 -1.8264
 8026SOL    HW226086   3.727  10.968   9.428  0.9729 -1.2688 -0.4288
 8027SOL     OW26087   0.216   5.033   7.001  0.0885 -0.3989  0.1986
 8027SOL    HW126088   0.305   5.063   6.979 -0.4177  1.6866  0.7235
 8027SOL    HW226089   0.195   5.079   7.082 -1.2638 -1.3150  0.4013
 8028SOL     OW26090   0.152   5.397  10.457  0.3311 -0.1103 -0.3022
 8028SOL    HW126091   0.084   5.402  10.390 -0.6296 -1.1338  0.5336
 8028SOL    HW226092   0.107   5.360  10.533  0.3576  4.3259  2.2269
 8029SOL     OW26093   1.635   4.499   6.778  0.3553 -0.4525 -0.3501
 8029SOL    HW126094   1.573   4.561   6.740  0.0873 -0.1181  0.6157
 8029SOL    HW226095   1.644   4.431   6.712 -1.8809 -1.0838 -0.0780
 8030SOL     OW26096   6.011   0.849   6.116 -0.0325 -0.3639  0.4632
 8030SOL    HW126097   5.960   0.775   6.083  0.3600 -0.8526  0.9382
 8030SOL    HW226098   6.006   0.841   6.211 -0.8197  0.8024  0.5434
 8031SOL     OW26099   2.373   4.037   4.320  0.0012  0.2672  0.2276
 8031SOL    HW126100   2.390   4.024   4.226 -1.1665 -1.5124  0.2163
 8031SOL    HW226101   2.447   4.090   4.350  0.9063  0.0702 -1.4941
 8032SOL     OW26102   9.221   0.282   6.310  0.1916  0.6780  0.5705
 8032SOL    HW126103   9.150   0.345   6.321 -0.1489  1.2104 -3.2871
 8032SOL    HW226104   9.301   0.335   6.308  0.2792  0.5585  0.8094
 8033SOL     OW26105   7.180   1.370   0.173 -0.7756 -0.6152 -0.0667
 8033SOL    HW126106   7.128   1.314   0.115 -3.2519  0.9509  0.4991
 8033SOL    HW226107   7.158   1.340   0.261  0.9330 -1.2562  0.1739
 8034SOL     OW26108   6.079   9.752   7.345 -0.0870  0.3079  0.0404
 8034SOL    HW126109   6.064   9.661   7.321 -1.1543  0.7398 -1.0304
 8034SOL    HW226110   6.007   9.800   7.305  0.4226  1.6260  0.6291
 8035SOL     OW26111  10.059   4.309   3.099  0.0819  0.1453  0.5780
 8035SOL    HW126112  10.012   4.379   3.053  1.7111  0.9632  0.1083
 8035SOL    HW226113  10.100   4.258   3.030  1.7238  0.7884  1.0422
 8036SOL     OW26114   3.977   5.103   7.204 -0.1512 -0.5195  0.4343
 8036SOL    HW126115   4.009   5.028   7.254  0.3778  0.5537  1.7478
 8036SOL    HW226116   3.948   5.065   7.121 -0.8426 -2.3180  1.4479
 8037SOL     OW26117   8.861   9.135   2.309  0.2498 -0.0333  0.5137
 8037SOL    HW126118   8.806   9.153   2.233  0.9049  0.0430  0.0518
 8037SOL    HW226119   8.873   9.040   2.308 -0.6496 -0.1685  1.1683
 8038SOL     OW26120   6.119   3.112   4.041 -0.0039  0.9598  0.1353
 8038SOL    HW126121   6.043   3.087   4.094 -1.8425  0.5125 -2.5233
 8038SOL    HW226122   6.191   3.062   4.079 -1.2071  0.6246  2.1368
 8039SOL     OW26123  10.963   7.470   8.475  0.3783  0.4814  0.0232
 8039SOL    HW126124  10.895   7.479   8.408  1.0398 -1.8538 -1.0643
 8039SOL    HW226125  10.974   7.376   8.486  3.5552  0.7122 -0.0127
 8040SOL     OW26126   1.901  10.593   4.691  0.1444 -0.0105  0.0300
 8040SOL    HW126127   1.833  10.658   4.677 -0.7200 -0.8772  0.0718
 8040SOL    HW226128   1.922  10.560   4.604  0.5449  0.2887  0.0128
 8041SOL     OW26129   7.014   6.642   8.417  0.2741 -0.0380 -0.0066
 8041SOL    HW126130   6.971   6.594   8.488 -0.6184 -1.0890 -1.1982
 8041SOL    HW226131   6.943   6.694   8.378  0.9705  1.3148  0.4788
 8042SOL     OW26132   8.036   6.266   5.745 -0.4016  0.3352  0.0079
 8042SOL    HW126133   7.992   6.186   5.771  0.7669  0.2699  1.9757
 8042SOL    HW226134   8.128   6.251   5.766 -0.1709  2.2446  0.5723
 8043SOL     OW26135   9.426   0.297   2.150 -0.0670 -0.3215  0.0827
 8043SOL    HW126136   9.448   0.292   2.243  1.2014  1.8141 -0.0322
 8043SOL    HW226137   9.332   0.281   2.146 -0.7188  2.3438  2.1138
 8044SOL     OW26138   8.644   1.370   7.225 -0.2653  0.1682  0.6939
 8044SOL    HW126139   8.557   1.336   7.202 -0.1994 -0.5205  1.4175
 8044SOL    HW226140   8.651   1.452   7.176 -0.2643 -1.0239 -1.4288
 8045SOL     OW26141   7.316   1.150   1.343 -0.1060 -0.1284  0.3236
 8045SOL    HW126142   7.234   1.197   1.358  0.0946  0.9482 -1.5797
 8045SOL    HW226143   7.289   1.067   1.303 -0.3523 -0.7869  1.7977
 8046SOL     OW26144   9.365   7.560   2.655  0.2383  0.7844  0.2228
 8046SOL    HW126145   9.389   7.483   2.603 -0.7807 -0.3265  1.3219
 8046SOL    HW226146   9.449   7.597   2.683  0.7446 -0.5728  0.5751
 8047SOL     OW26147   8.849   8.187   2.012  0.2181 -0.2285  0.1873
 8047SOL    HW126148   8.899   8.266   2.035 -1.1822  1.2336 -1.4993
 8047SOL    HW226149   8.860   8.129   2.087  4.4443 -0.0584 -0.0227
 8048SOL     OW26150   6.634   6.132   9.781 -0.5316 -0.2642 -0.3778
 8048SOL    HW126151   6.557   6.166   9.826 -0.7053  0.7544 -1.3896
 8048SOL    HW226152   6.620   6.037   9.779 -0.3030 -0.4066  2.0110
 8049SOL     OW26153   0.568  10.099   7.496 -0.6555 -0.0061  0.0285
 8049SOL    HW126154   0.641  10.037   7.489 -0.9200 -0.3878  0.5547
 8049SOL    HW226155   0.540  10.113   7.406  1.4774  1.8800 -0.4242
 8050SOL     OW26156   5.648   8.855   7.372 -0.3748 -0.3317 -0.4085
 8050SOL    HW126157   5.637   8.820   7.284  0.6960 -1.1310 -0.2455
 8050SOL    HW226158   5.696   8.936   7.360 -0.8996 -0.0472 -0.6134
 8051SOL     OW26159   1.726   7.448   9.785  0.5268  0.0869  0.1239
 8051SOL    HW126160   1.815   7.457   9.751  0.9137 -1.1292  0.7553
 8051SOL    HW226161   1.737   7.403   9.869 -0.6499  0.3189  0.4126
 8052SOL     OW26162   1.976   5.752   9.963  0.1995 -0.4593  0.1324
 8052SOL    HW126163   1.955   5.722  10.051  0.5502 -1.5809 -0.1538
 8052SOL    HW226164   1.914   5.823   9.946 -0.7531 -1.1172  0.7825
 8053SOL     OW26165   8.124   9.668   3.925 -0.7548  0.5695  0.1221
 8053SOL    HW126166   8.164   9.740   3.974 -0.6911  1.1755 -0.8027
 8053SOL    HW226167   8.150   9.590   3.973  2.8460  0.7885 -1.2233
 8054SOL     OW26168   6.574   8.656   4.053  0.0140  0.0351 -0.6075
 8054SOL    HW126169   6.485   8.628   4.033 -0.2142  0.0895  0.2668
 8054SOL    HW226170   6.565   8.710   4.132  0.5947  1.5373 -1.5356
 8055SOL     OW26171   7.810   1.440   9.696  0.3627 -0.2279 -0.5558
 8055SOL    HW126172   7.796   1.448   9.602  1.5428  0.4600 -0.7081
 8055SOL    HW226173   7.725   1.457   9.735 -0.2603 -1.0749 -1.5133
 8056SOL     OW26174   8.349   5.728   8.470  0.4048  0.2129 -0.2657
 8056SOL    HW126175   8.393   5.643   8.473 -0.8170 -0.4389  2.3213
 8056SOL    HW226176   8.374   5.771   8.552 -2.1593  0.5936  0.4008
 8057SOL     OW26177   1.779   6.373   2.031 -0.4132 -0.3174  0.3856
 8057SOL    HW126178   1.763   6.279   2.033 -1.8487 -0.0925  0.4952
 8057SOL    HW226179   1.780   6.395   1.938  0.0131 -0.4431  0.3569
 8058SOL     OW26180   6.810   1.095   2.207  0.5757 -0.5306 -0.3853
 8058SOL    HW126181   6.744   1.129   2.268 -1.8002 -1.2371 -2.3709
 8058SOL    HW226182   6.825   1.167   2.146  0.6553 -0.8026 -0.6870
 8059SOL     OW26183   2.434   8.745   3.386  0.3693  0.3583 -0.3242
 8059SOL    HW126184   2.361   8.746   3.323  0.2190  1.2268 -0.1411
 8059SOL    HW226185   2.429   8.829   3.430  0.3293 -0.3191  1.0261
 8060SOL     OW26186   9.827   6.313   2.818  0.3395  0.0256  0.4277
 8060SOL    HW126187   9.918   6.343   2.823  1.1586 -1.9050 -1.3050
 8060SOL    HW226188   9.811   6.271   2.902  0.8157  0.9363  0.9951
 8061SOL     OW26189   1.512   0.609   6.745 -0.0037 -1.1179  0.3132
 8061SOL    HW126190   1.453   0.575   6.813  0.2722 -1.8307  0.2021
 8061SOL    HW226191   1.591   0.556   6.753 -0.3772 -1.9920 -1.3066
 8062SOL     OW26192   8.945   8.743   0.285  0.3479 -0.6068  0.1239
 8062SOL    HW126193   8.917   8.699   0.365 -0.1490  0.9989  0.8601
 8062SOL    HW226194   8.880   8.718   0.220 -1.1324  0.6680  1.0611
 8063SOL     OW26195   9.192   8.585   9.841  0.5476 -0.3637  0.5613
 8063SOL    HW126196   9.221   8.520   9.776 -2.7304  0.0920 -1.5683
 8063SOL    HW226197   9.118   8.543   9.886 -0.8149  1.3731  0.0312
 8064SOL     OW26198   0.139   3.688   9.121 -0.8066  1.0881  0.1591
 8064SOL    HW126199   0.216   3.714   9.070  0.5455 -0.6085  1.2259
 8064SOL    HW226200   0.065   3.706   9.063  0.6986 -2.5455 -3.3917
 8065SOL     OW26201   5.007   4.980   9.028 -0.4704 -0.3490 -0.0005
 8065SOL    HW126202   5.000   4.891   9.064 -0.7478 -0.1490  0.4577
 8065SOL    HW226203   5.052   5.030   9.096 -0.6398 -0.0561 -0.1004
 8066SOL     OW26204   0.091   4.080   4.125  0.2152 -0.4781 -0.0520
 8066SOL    HW126205   0.111   4.138   4.199 -0.5238 -0.6179  0.2722
 8066SOL    HW226206   0.164   4.019   4.121  0.3592 -0.3402  0.4375
 8067SOL     OW26207   6.183   6.589   7.981  0.2414  0.2628 -0.4575
 8067SOL    HW126208   6.222   6.641   8.052 -0.3478 -0.4196  0.3849
 8067SOL    HW226209   6.235   6.612   7.904  1.1588  0.7236  0.2717
 8068SOL     OW26210   8.446   8.561   0.613  0.3448 -0.1398 -0.1533
 8068SOL    HW126211   8.461   8.567   0.518  0.8753 -1.2223 -0.1505
 8068SOL    HW226212   8.471   8.647   0.646 -1.9164  1.0354 -1.2337
 8069SOL     OW26213   3.096   9.887   0.782  0.3684  0.1250  0.2176
 8069SOL    HW126214   3.148   9.954   0.738  1.4831 -2.7706 -3.3889
 8069SOL    HW226215   3.009   9.894   0.741  0.0514  0.3203  0.9202
 8070SOL     OW26216   4.595   4.387   8.538  0.0786 -0.1444 -0.0488
 8070SOL    HW126217   4.506   4.390   8.505  0.1393 -0.1161 -0.2095
 8070SOL    HW226218   4.598   4.454   8.606 -0.0700 -0.2621  0.0734
 8071SOL     OW26219  10.484  10.078   1.653 -0.1543 -0.4222 -0.3379
 8071SOL    HW126220  10.439  10.078   1.737 -0.7846 -2.5860 -0.6216
 8071SOL    HW226221  10.440  10.146   1.602 -2.0684 -1.3677 -0.0371
 8072SOL     OW26222   7.496   0.125  10.251 -0.2771  0.2651  0.1865
 8072SOL    HW126223   7.407   0.144  10.221 -0.6281 -1.0151  0.3509
 8072SOL    HW226224   7.484   0.083  10.337  0.3377 -1.7791 -0.6758
 8073SOL     OW26225   0.050   9.098   7.830  0.3502  0.3119  0.3189
 8073SOL    HW126226  -0.001   9.119   7.909  0.6562  1.0786  0.3220
 8073SOL    HW226227   0.141   9.099   7.860  0.5487  1.6868 -0.2569
 8074SOL     OW26228   0.598   4.294   6.081  0.5210  0.3668 -0.1413
 8074SOL    HW126229   0.601   4.375   6.132 -2.3879 -0.3502  1.3799
 8074SOL    HW226230   0.561   4.321   5.996 -1.2253  0.5631  0.6482
 8075SOL     OW26231   3.301   5.756   7.785  0.0818  0.0196 -0.2688
 8075SOL    HW126232   3.276   5.804   7.864 -2.0819 -1.2941 -0.0867
 8075SOL    HW226233   3.396   5.746   7.792  0.1819  1.6260  1.1615
 8076SOL     OW26234   2.936   8.921  11.004 -0.2536  0.4045  0.5227
 8076SOL    HW126235   2.912   8.988  10.940 -3.9890  0.3971  1.6766
 8076SOL    HW226236   2.921   8.963  11.089  0.0180 -1.0368  1.3125
 8077SOL     OW26237   6.324   1.566   6.528 -0.1721 -0.0757  0.3407
 8077SOL    HW126238   6.316   1.652   6.569 -1.5150 -0.7954  1.7126
 8077SOL    HW226239   6.280   1.576   6.443 -3.2970 -0.1242  1.7880
 8078SOL     OW26240   1.068   3.239   9.761  0.3067 -0.0106  0.2659
 8078SOL    HW126241   1.043   3.147   9.766  1.1399 -0.2359  0.3885
 8078SOL    HW226242   1.107   3.249   9.675  2.1169 -0.2850  1.0005
 8079SOL     OW26243   6.298   2.453   3.309 -0.0340 -0.2114 -0.1136
 8079SOL    HW126244   6.203   2.451   3.298  0.0451  0.2784 -0.9814
 8079SOL    HW226245   6.332   2.444   3.220  0.7003  1.7577 -0.0754
 8080SOL     OW26246   1.935   7.094   1.559 -0.5904 -0.5757 -0.6423
 8080SOL    HW126247   2.026   7.075   1.534 -0.9044  0.5217 -2.9043
 8080SOL    HW226248   1.914   7.175   1.513 -2.5484 -0.4936  0.2970
 8081SOL     OW26249   0.682   8.008   1.027 -0.3458  0.0340 -0.0981
 8081SOL    HW126250   0.649   8.009   0.938  0.9686  1.2084 -0.6248
 8081SOL    HW226251   0.701   8.100   1.046  2.1818 -0.4946  0.2664
 8082SOL     OW26252   4.758   2.534   2.167 -0.0611 -0.1174  0.0277
 8082SOL    HW126253   4.784   2.585   2.244  1.2286 -0.5467 -0.0947
 8082SOL    HW226254   4.807   2.452   2.174 -0.4026 -0.4233 -0.9261
 8083SOL     OW26255   2.746   4.852   0.891 -0.5932  0.1760  1.2650
 8083SOL    HW126256   2.727   4.888   0.978 -2.3595 -0.4505  1.1740
 8083SOL    HW226257   2.663   4.857   0.845  0.1745 -0.0888 -0.1990
 8084SOL     OW26258   2.598   2.323   3.175  0.2818 -0.5719 -0.1090
 8084SOL    HW126259   2.647   2.315   3.257 -0.5026  0.7573  0.5319
 8084SOL    HW226260   2.660   2.362   3.114  0.5663 -0.6006  0.1596
 8085SOL     OW26261   4.494   6.288   8.182  0.0330  0.2504  0.0506
 8085SOL    HW126262   4.409   6.330   8.176  0.8463  1.8486 -0.6127
 8085SOL    HW226263   4.504   6.240   8.100 -0.6031 -0.7362  0.5263
 8086SOL     OW26264   5.403   5.941   6.449 -0.3200 -0.1454  0.2226
 8086SOL    HW126265   5.341   6.011   6.470  0.4474  0.9089 -0.8533
 8086SOL    HW226266   5.374   5.909   6.363  1.2777  1.2039 -0.8844
 8087SOL     OW26267   1.846   7.273   9.201 -0.0278 -0.0859  0.8208
 8087SOL    HW126268   1.885   7.198   9.156  1.2463  1.0016  0.0417
 8087SOL    HW226269   1.816   7.330   9.130 -0.0122  0.6426  1.3922
 8088SOL     OW26270   9.766   6.249   2.432 -0.7422  0.2080 -0.5491
 8088SOL    HW126271   9.822   6.324   2.452 -0.6786  0.5757 -2.0105
 8088SOL    HW226272   9.682   6.269   2.474  0.0596 -0.1754  1.3374
 8089SOL     OW26273   4.044   9.776   0.625 -0.2504  0.9301  0.4473
 8089SOL    HW126274   3.964   9.750   0.579  0.4904 -1.1316  0.2441
 8089SOL    HW226275   4.103   9.805   0.555  0.1492 -0.2441  0.2778
 8090SOL     OW26276   3.685   1.634   3.835  0.4181 -0.1365 -0.3159
 8090SOL    HW126277   3.775   1.639   3.801  0.7497  1.7788  0.6925
 8090SOL    HW226278   3.659   1.543   3.820  2.3694 -0.6396 -1.0146
 8091SOL     OW26279   2.425  10.510   1.935  0.1213  0.2661  1.2485
 8091SOL    HW126280   2.494  10.479   1.993  1.5891  1.8973  0.4852
 8091SOL    HW226281   2.422  10.446   1.864  0.8721  0.1857  1.2838
 8092SOL     OW26282   6.493   7.965   6.938 -0.2458  0.3033  0.2997
 8092SOL    HW126283   6.420   7.958   6.999 -0.2913 -1.4299  0.0995
 8092SOL    HW226284   6.502   8.059   6.921 -2.3784  0.5657  0.3862
 8093SOL     OW26285   2.644   2.014   5.246 -0.0010  0.6774 -0.3415
 8093SOL    HW126286   2.739   2.007   5.255  0.0893 -2.6013 -2.1879
 8093SOL    HW226287   2.631   2.071   5.169  0.4134  1.4992  0.1851
 8094SOL     OW26288  10.347   7.483   9.403  0.2312 -0.0666 -0.6566
 8094SOL    HW126289  10.268   7.527   9.434 -0.1366 -0.9357 -0.3419
 8094SOL    HW226290  10.379   7.539   9.332  0.5422  1.4214  0.6265
 8095SOL     OW26291   5.825   3.122   5.100  0.1380  0.7203  0.2344
 8095SOL    HW126292   5.849   3.209   5.133  1.9377  1.0450 -1.6926
 8095SOL    HW226293   5.786   3.140   5.014  1.3836 -0.3849 -0.5935
 8096SOL     OW26294   3.069  10.372   6.695 -0.2116  0.0499  0.1456
 8096SOL    HW126295   3.129  10.445   6.710 -1.0516  0.6770  0.4874
 8096SOL    HW226296   3.121  10.309   6.645  0.6184  0.7418  0.1111
 8097SOL     OW26297   3.116   7.900   0.661  0.1942  0.5331 -0.1564
 8097SOL    HW126298   3.027   7.928   0.680 -0.4995 -0.9966 -0.9483
 8097SOL    HW226299   3.133   7.931   0.572 -0.3836 -0.9959 -0.8343
 8098SOL     OW26300   1.287   0.222  10.217 -0.4034  0.2432  0.2391
 8098SOL    HW126301   1.361   0.169  10.247 -0.9214 -1.6495 -1.5870
 8098SOL    HW226302   1.321   0.311  10.212  1.9403 -0.6420 -1.0258
 8099SOL     OW26303   4.903   3.115   6.846  0.0703 -0.2860  0.5002
 8099SOL    HW126304   4.980   3.086   6.798 -0.8064 -0.6858 -0.7206
 8099SOL    HW226305   4.936   3.138   6.933  1.2781 -2.2278  0.6175
 8100SOL     OW26306   2.666   3.847   2.064 -0.2644  0.0493 -0.2027
 8100SOL    HW126307   2.671   3.830   2.158  1.9290  1.7986  0.0794
 8100SOL    HW226308   2.681   3.762   2.023 -1.3043 -0.7461  0.9972
 8101SOL     OW26309   0.742   0.287   5.612  0.0317 -0.0021  0.2976
 8101SOL    HW126310   0.811   0.320   5.555  0.0651  0.4705  0.6007
 8101SOL    HW226311   0.706   0.366   5.653 -0.9671 -0.1877 -0.1663
 8102SOL     OW26312  10.949   9.588   6.568 -0.2513  0.0258  0.5661
 8102SOL    HW126313  10.980   9.526   6.635 -2.2169  1.0827  2.5700
 8102SOL    HW226314  11.010   9.576   6.495  1.3469 -1.9709  2.0974
 8103SOL     OW26315   3.603   1.753   6.517 -0.3222 -0.5076  0.2812
 8103SOL    HW126316   3.572   1.809   6.588  1.5464 -0.1186  0.8212
 8103SOL    HW226317   3.591   1.664   6.550  0.8073 -0.3268  1.2410
 8104SOL     OW26318   8.130   2.405   6.033  0.4267 -0.2041 -0.4839
 8104SOL    HW126319   8.038   2.390   6.012  0.7383  0.1840 -2.2528
 8104SOL    HW226320   8.161   2.465   5.965  1.7744  0.3618  0.5748
 8105SOL     OW26321   8.864   7.361   7.105 -1.1039 -0.4507 -0.0726
 8105SOL    HW126322   8.844   7.316   7.022  0.9083  0.7016 -1.2500
 8105SOL    HW226323   8.866   7.454   7.082  3.3143 -0.2697  0.2540
 8106SOL     OW26324  10.359  10.740   0.826  0.3979  0.2130  0.2955
 8106SOL    HW126325  10.367  10.645   0.813 -0.1433  0.0111  1.3702
 8106SOL    HW226326  10.354  10.775   0.737  0.6331 -0.7653 -0.1199
 8107SOL     OW26327  10.373   9.602   5.233 -0.3707  0.1440 -0.5844
 8107SOL    HW126328  10.441   9.648   5.184  0.9333  1.0317  1.8890
 8107SOL    HW226329  10.414   9.520   5.261 -0.2768  0.6710  0.9012
 8108SOL     OW26330   8.617   0.689   8.603 -0.3088 -0.5006 -0.5163
 8108SOL    HW126331   8.622   0.646   8.518  1.0929  0.9530 -1.2070
 8108SOL    HW226332   8.691   0.653   8.652 -0.3395 -0.3765 -0.3778
 8109SOL     OW26333   1.039   3.887   8.278 -0.0865 -0.1275 -0.3591
 8109SOL    HW126334   1.102   3.938   8.329 -1.1244  0.2054  0.6321
 8109SOL    HW226335   0.954   3.926   8.299 -1.0477 -2.7215  1.0924
 8110SOL     OW26336   2.521   0.185  11.013  0.3180  0.1207  0.7076
 8110SOL    HW126337   2.428   0.165  11.020 -0.3610  2.1705 -1.3886
 8110SOL    HW226338   2.548   0.146  10.930  1.4436 -0.6469  1.3930
 8111SOL     OW26339   5.220   8.050   2.541  0.0182  0.0276 -0.7061
 8111SOL    HW126340   5.217   8.098   2.624 -0.4580  0.3131 -0.8870
 8111SOL    HW226341   5.205   8.116   2.474 -2.0675 -0.5595 -0.8862
 8112SOL     OW26342   7.219   6.704   4.912  0.6084 -0.0374  0.2040
 8112SOL    HW126343   7.307   6.702   4.876  1.1485  2.3715  1.2379
 8112SOL    HW226344   7.169   6.756   4.849 -0.1736 -1.4719 -0.4324
 8113SOL     OW26345   3.873   1.787  10.572 -0.0239 -0.2094 -0.2344
 8113SOL    HW126346   3.834   1.868  10.606 -0.7635 -0.0792 -1.3616
 8113SOL    HW226347   3.819   1.717  10.608 -0.1224 -0.1361 -0.2400
 8114SOL     OW26348   1.204   7.422   3.652  0.1866  0.0989  0.0543
 8114SOL    HW126349   1.211   7.327   3.637  2.6831  0.0088  1.2547
 8114SOL    HW226350   1.162   7.430   3.738  1.3095 -0.0219  0.6383
 8115SOL     OW26351   6.412  10.242  10.631 -0.4465 -0.0211  0.1047
 8115SOL    HW126352   6.436  10.168  10.687  0.9408  1.0961  1.0701
 8115SOL    HW226353   6.379  10.308  10.692 -0.1103  0.7637 -0.5417
 8116SOL     OW26354   2.664   3.848   6.255 -0.0678  0.0329 -0.3701
 8116SOL    HW126355   2.678   3.884   6.168 -0.5955 -1.0536 -0.9249
 8116SOL    HW226356   2.570   3.833   6.261  0.1965 -2.0614 -0.5409
 8117SOL     OW26357   7.857   2.783   6.679 -0.0988  0.0209 -0.2378
 8117SOL    HW126358   7.935   2.747   6.637 -0.7540 -0.5974 -0.9644
 8117SOL    HW226359   7.837   2.721   6.750 -1.1226 -1.0218 -1.3769
 8118SOL     OW26360   9.396   6.751   8.872  0.3168 -0.3644 -0.0347
 8118SOL    HW126361   9.481   6.751   8.828  0.8280 -0.6393  0.9446
 8118SOL    HW226362   9.369   6.659   8.874 -0.4178 -0.1919 -1.1030
 8119SOL     OW26363   7.487   8.235   0.659 -0.1070  0.0571  0.5496
 8119SOL    HW126364   7.562   8.238   0.719 -0.2686 -0.6644  0.8003
 8119SOL    HW226365   7.411   8.244   0.715 -0.2462 -0.2832  0.4215
 8120SOL     OW26366   8.875   1.034   2.720 -0.2257  0.3218 -0.0896
 8120SOL    HW126367   8.843   1.031   2.810 -1.5151 -2.1956 -0.5380
 8120SOL    HW226368   8.933   0.959   2.712  0.2747  0.8066 -1.2278
 8121SOL     OW26369   9.281   1.602   3.593  0.1511 -0.3747 -0.2226
 8121SOL    HW126370   9.376   1.609   3.578  0.2236  0.3380  0.4968
 8121SOL    HW226371   9.243   1.598   3.505  0.8829 -1.2182 -0.5136
 8122SOL     OW26372   2.879   0.061   3.725 -0.2331 -0.0886  0.3706
 8122SOL    HW126373   2.936   0.129   3.688  0.3958 -0.6633  0.2614
 8122SOL    HW226374   2.933   0.018   3.791 -0.3661 -0.9885 -0.0957
 8123SOL     OW26375   5.771   7.628   4.292 -0.1226 -0.1589 -0.3868
 8123SOL    HW126376   5.729   7.552   4.251 -0.2241 -0.2051 -0.1969
 8123SOL    HW226377   5.700   7.691   4.304 -0.2583 -0.4648  0.4761
 8124SOL     OW26378   4.723   5.854   8.800  0.2913  0.3262 -0.7406
 8124SOL    HW126379   4.630   5.853   8.774  0.3709  1.3885 -1.1345
 8124SOL    HW226380   4.728   5.924   8.865  0.5024 -0.9173  0.6284
 8125SOL     OW26381  10.979   7.565   2.722  1.0991 -0.6516  0.4860
 8125SOL    HW126382  10.888   7.573   2.751  0.9023  0.8844 -0.4353
 8125SOL    HW226383  11.028   7.547   2.801  0.4286  2.1489  1.6839
 8126SOL     OW26384   1.738   2.507   1.520  0.2512  0.3037 -0.2086
 8126SOL    HW126385   1.756   2.415   1.540 -1.5797  0.2803  1.5780
 8126SOL    HW226386   1.662   2.505   1.462 -1.0905  0.7154  1.4807
 8127SOL     OW26387   9.325   6.186   1.667 -0.0134  0.0885 -0.4476
 8127SOL    HW126388   9.303   6.242   1.593 -1.6265  0.3603  0.1882
 8127SOL    HW226389   9.421   6.187   1.671  0.1363 -0.4640 -2.8889
 8128SOL     OW26390   9.732  10.341   0.861  0.1920  0.0351  0.7597
 8128SOL    HW126391   9.684  10.268   0.901  1.3297 -1.8963 -1.1675
 8128SOL    HW226392   9.684  10.361   0.781  1.3066 -0.4282 -0.0588
 8129SOL     OW26393  10.437   0.520   7.991  0.4544 -0.3264  0.6071
 8129SOL    HW126394  10.393   0.526   8.076  2.7678  1.9519  1.8046
 8129SOL    HW226395  10.490   0.441   7.998 -0.3984 -0.9007  0.7145
 8130SOL     OW26396   1.169   9.196   0.007 -0.0270  0.0463  0.1710
 8130SOL    HW126397   1.080   9.179  -0.024  0.1761 -0.5760 -0.0787
 8130SOL    HW226398   1.180   9.290  -0.005 -0.5518  0.0839 -0.0643
 8131SOL     OW26399   8.149   9.030   5.438 -0.1204  0.4634 -0.3150
 8131SOL    HW126400   8.138   9.122   5.416 -0.8046  0.0207 -1.9525
 8131SOL    HW226401   8.241   9.023   5.464 -0.7228  2.1144  2.8064
 8132SOL     OW26402   6.870   2.738   4.923 -0.7079  0.1800 -0.7027
 8132SOL    HW126403   6.946   2.725   4.980 -0.8194  0.8726 -0.3905
 8132SOL    HW226404   6.899   2.804   4.860 -1.1611  0.6879 -0.3788
 8133SOL     OW26405   7.222   2.033   3.769 -0.1431 -0.1197 -0.3382
 8133SOL    HW126406   7.312   2.021   3.797 -0.1936 -1.2096 -0.6180
 8133SOL    HW226407   7.220   2.005   3.678 -0.9194 -0.8519 -0.1143
 8134SOL     OW26408   5.121  10.332   0.030 -0.0739  0.1321  0.1642
 8134SOL    HW126409   5.195  10.283   0.066 -0.3895 -0.0323  0.6086
 8134SOL    HW226410   5.150  10.423   0.030 -0.2256  0.1993  1.2923
 8135SOL     OW26411   5.730   8.504   8.279 -0.0484  0.7021  0.1698
 8135SOL    HW126412   5.730   8.530   8.187  1.3126 -0.6851 -0.2552
 8135SOL    HW226413   5.822   8.491   8.301 -0.4739 -1.5019  0.9549
 8136SOL     OW26414   9.063   7.173   9.050 -0.0270 -0.0705  0.8203
 8136SOL    HW126415   9.105   7.139   8.971  0.5994  1.1662  0.5791
 8136SOL    HW226416   8.990   7.226   9.017 -0.7488 -0.8429  1.1581
 8137SOL     OW26417   2.732   5.319   3.278  0.1930 -0.3914 -0.0011
 8137SOL    HW126418   2.815   5.276   3.297 -0.0343 -1.1402 -0.6229
 8137SOL    HW226419   2.667   5.269   3.328 -0.0615 -0.7093 -0.6373
 8138SOL     OW26420   5.273   1.107  10.045 -0.8103  0.0431  0.1974
 8138SOL    HW126421   5.333   1.165  10.092  0.4814  0.2556 -1.6153
 8138SOL    HW226422   5.291   1.020  10.082  1.1292 -0.0046 -0.7217
 8139SOL     OW26423   4.950   8.598   8.765  0.1487 -0.5345 -0.0409
 8139SOL    HW126424   4.875   8.568   8.714 -1.1367  2.8119 -0.3730
 8139SOL    HW226425   5.018   8.615   8.699  0.2484 -0.9308 -0.0457
 8140SOL     OW26426   2.886   8.949   1.512  0.2210  0.1584 -0.0596
 8140SOL    HW126427   2.867   9.007   1.438 -0.0139  0.6048  0.3410
 8140SOL    HW226428   2.969   8.908   1.490  1.5647  2.3256  0.6185
 8141SOL     OW26429   4.781  10.113   4.942 -0.6321  0.7424 -0.7194
 8141SOL    HW126430   4.804  10.206   4.946 -1.4636  0.9935 -1.5172
 8141SOL    HW226431   4.864  10.067   4.960 -0.3384  1.6260  0.2786
 8142SOL     OW26432   2.957  10.297   3.733  0.1044  0.6122  0.1019
 8142SOL    HW126433   3.027  10.361   3.720  0.4586  0.9151  2.8991
 8142SOL    HW226434   2.991  10.237   3.799 -1.1240 -1.1219 -0.7456
 8143SOL     OW26435   3.480   5.352   6.756 -0.7923 -0.4726 -0.1010
 8143SOL    HW126436   3.428   5.388   6.828  0.3439  3.5927 -1.0088
 8143SOL    HW226437   3.563   5.325   6.796  0.0563  2.2922  0.2188
 8144SOL     OW26438   2.902   1.666   1.076  0.2515 -0.1989 -0.3257
 8144SOL    HW126439   2.816   1.637   1.046 -1.4373  1.9527  2.0283
 8144SOL    HW226440   2.893   1.761   1.085  2.0234 -0.1973  2.4371
 8145SOL     OW26441   2.642   2.372   0.282  0.1103  0.0881  0.2362
 8145SOL    HW126442   2.555   2.398   0.252 -0.1569 -0.4521  0.5131
 8145SOL    HW226443   2.703   2.431   0.238 -0.3712  0.2031 -0.2726
 8146SOL     OW26444   6.625   4.950   3.125  0.2198  0.0883 -0.5595
 8146SOL    HW126445   6.535   4.920   3.139  0.4015  0.1809  1.0271
 8146SOL    HW226446   6.679   4.874   3.146  0.5636  0.6282  0.6401
 8147SOL     OW26447   6.758   8.656   3.299 -0.2163  0.0974 -0.9936
 8147SOL    HW126448   6.742   8.657   3.394  1.1146  2.2593 -0.7289
 8147SOL    HW226449   6.712   8.733   3.266 -0.5156 -0.5375 -2.1165
 8148SOL     OW26450   4.135   0.276  10.784  0.3549 -0.6272 -0.4010
 8148SOL    HW126451   4.145   0.294  10.690  1.2491  0.9231 -0.0532
 8148SOL    HW226452   4.044   0.297  10.802 -0.1628 -2.1411 -1.1424
 8149SOL     OW26453   9.978  10.761   1.996 -0.3001  0.2392 -0.0599
 8149SOL    HW126454  10.014  10.691   2.050 -1.4551 -0.1045  0.2963
 8149SOL    HW226455  10.045  10.777   1.929 -0.8804 -2.7463 -1.5236
 8150SOL     OW26456  10.282   0.118   8.062  1.1147  0.0710  0.2081
 8150SOL    HW126457  10.291   0.183   8.132 -0.0418  0.4201  0.0546
 8150SOL    HW226458  10.275   0.170   7.982  0.7923 -0.2558  0.0186
 8151SOL     OW26459   4.299  10.542  10.175 -0.1808 -0.0101 -0.0291
 8151SOL    HW126460   4.369  10.476  10.178 -1.4474 -1.3938  1.2954
 8151SOL    HW226461   4.343  10.623  10.153  1.7435 -0.9543  0.1352
 8152SOL     OW26462   4.245  10.596   5.858  0.0000 -0.7181  0.1494
 8152SOL    HW126463   4.282  10.511   5.837 -0.0203 -0.2582 -1.9979
 8152SOL    HW226464   4.175  10.578   5.920 -0.2799 -2.3204 -0.5977
 8153SOL     OW26465   0.855   3.356   9.874  0.0767  0.2016  0.0449
 8153SOL    HW126466   0.913   3.325   9.806  1.9138 -0.4244  1.7922
 8153SOL    HW226467   0.911   3.368   9.951 -2.2041 -1.1778  2.0871
 8154SOL     OW26468   4.451   4.259   1.577 -0.1544  0.4127 -0.4347
 8154SOL    HW126469   4.540   4.224   1.584  0.0630  1.1474  0.8022
 8154SOL    HW226470   4.461   4.352   1.596 -1.2408  0.4393  0.0733
 8155SOL     OW26471  10.653   4.054   4.091 -0.2019  0.2943  0.5458
 8155SOL    HW126472  10.729   4.083   4.140 -1.0282  2.0299  0.8730
 8155SOL    HW226473  10.640   3.963   4.119  1.2286  0.2316  1.1042
 8156SOL     OW26474   7.681   2.317   7.625  0.5317 -0.4730  0.1002
 8156SOL    HW126475   7.726   2.400   7.640  0.2543  0.2678 -2.6247
 8156SOL    HW226476   7.737   2.271   7.563 -1.0892 -0.6863 -1.2799
 8157SOL     OW26477   1.540   5.185   7.806  0.2655  0.0803  0.1407
 8157SOL    HW126478   1.531   5.277   7.827 -0.1820 -0.2546  1.5192
 8157SOL    HW226479   1.624   5.178   7.760  0.1494  1.2016 -0.2550
 8158SOL     OW26480   9.144   6.150   8.024  0.1676  0.4658 -0.5663
 8158SOL    HW126481   9.097   6.227   7.994 -0.5046 -0.3501 -1.7140
 8158SOL    HW226482   9.234   6.162   7.992 -0.0734  0.5135 -1.2302
 8159SOL     OW26483   6.445   3.769  10.897  0.4687 -0.3188 -0.4806
 8159SOL    HW126484   6.386   3.777  10.972  1.4325  0.9907  0.1769
 8159SOL    HW226485   6.404   3.703  10.841  0.1924 -1.9943  1.5945
 8160SOL     OW26486   6.949   2.533  10.068  0.2562 -0.1454  0.0744
 8160SOL    HW126487   7.016   2.524  10.135  0.1739  1.2945  0.3880
 8160SOL    HW226488   6.910   2.619  10.084 -1.2766 -0.7005 -0.4500
 8161SOL     OW26489  10.115   8.916   1.394 -0.3789 -0.6369 -0.2392
 8161SOL    HW126490  10.127   8.992   1.451  5.3310 -0.9498 -0.4477
 8161SOL    HW226491  10.149   8.943   1.309 -1.3449 -2.5094 -1.2912
 8162SOL     OW26492   7.546   6.904   8.382  0.5921 -0.4301 -0.0086
 8162SOL    HW126493   7.486   6.907   8.456  0.6649  0.0724  0.0333
 8162SOL    HW226494   7.490   6.905   8.305  0.4848 -1.7078  0.0316
 8163SOL     OW26495  10.899   2.149   1.014  0.4024 -0.5018 -0.2950
 8163SOL    HW126496  10.814   2.170   0.975  0.7293  0.8512 -0.3356
 8163SOL    HW226497  10.959   2.146   0.939  0.2846 -2.2453 -0.3629
 8164SOL     OW26498   9.948   9.526   8.561  0.0028 -0.2582 -0.0627
 8164SOL    HW126499   9.945   9.510   8.467 -3.9247  0.4860 -0.2223
 8164SOL    HW226500   9.960   9.621   8.569 -0.6099 -0.1970  0.1477
 8165SOL     OW26501   6.206   3.286   6.572  0.4255  0.3498  0.2465
 8165SOL    HW126502   6.223   3.349   6.641  1.9723  1.3491 -0.9772
 8165SOL    HW226503   6.206   3.201   6.616  1.3040  0.9565  1.4671
 8166SOL     OW26504   1.623   7.307   7.041 -0.2596 -0.5898  0.1567
 8166SOL    HW126505   1.583   7.272   7.121  0.5345 -1.3223  0.2447
 8166SOL    HW226506   1.635   7.401   7.060 -1.2531 -0.5020  0.4010
 8167SOL     OW26507   1.677   1.832   5.951 -0.0384 -0.5250  0.3227
 8167SOL    HW126508   1.726   1.753   5.931  1.1860  0.5748 -1.3560
 8167SOL    HW226509   1.658   1.827   6.045  0.7827 -2.3548  0.4153
 8168SOL     OW26510   9.723   5.807   1.156  0.0115  0.0362  0.2227
 8168SOL    HW126511   9.709   5.728   1.105  2.1762 -0.7142  0.6805
 8168SOL    HW226512   9.793   5.784   1.218  2.2130  2.8113 -0.9866
 8169SOL     OW26513   6.284   1.933  10.095 -0.3715 -0.1254 -0.0735
 8169SOL    HW126514   6.229   1.925  10.173  1.8145  0.2374  1.5946
 8169SOL    HW226515   6.281   2.026  10.073  0.2638  0.0574  0.5763
 8170SOL     OW26516   5.433   8.119   7.848 -0.6536 -0.2385 -0.4479
 8170SOL    HW126517   5.442   8.098   7.941 -0.0140 -1.4797 -0.7690
 8170SOL    HW226518   5.464   8.040   7.803  1.0268  1.0976 -1.7420
 8171SOL     OW26519   7.942   9.159   4.934 -0.1249  0.1425 -0.0583
 8171SOL    HW126520   7.958   9.065   4.939  1.5517  0.4079  0.1301
 8171SOL    HW226521   7.862   9.173   4.985 -0.2298 -1.1341  0.1572
 8172SOL     OW26522   8.333   8.260   9.121  0.2103 -0.2638 -0.1612
 8172SOL    HW126523   8.314   8.168   9.141  1.3025 -0.4276  0.1285
 8172SOL    HW226524   8.278   8.309   9.182 -0.6251 -0.7098 -0.5334
 8173SOL     OW26525   5.175   6.098   3.085  0.5435 -0.0588 -0.3250
 8173SOL    HW126526   5.258   6.143   3.102  0.3606  0.9943 -1.9191
 8173SOL    HW226527   5.168   6.032   3.153  2.3195  0.3487  0.2949
 8174SOL     OW26528   9.775   0.274   3.003 -0.4971 -0.1875 -0.1683
 8174SOL    HW126529   9.727   0.336   2.948 -1.8998 -1.1756 -0.1427
 8174SOL    HW226530   9.813   0.212   2.941 -2.2361 -1.4104 -0.0870
 8175SOL     OW26531   6.779   5.037  10.766  0.3066  0.5355 -0.1119
 8175SOL    HW126532   6.850   5.028  10.830  0.1952 -1.1940 -0.1817
 8175SOL    HW226533   6.823   5.030  10.681  0.1288 -0.0397 -0.1621
 8176SOL     OW26534   6.527   6.402   5.597 -0.2471 -0.2997 -0.3490
 8176SOL    HW126535   6.622   6.392   5.588  0.0849  1.8108  0.0804
 8176SOL    HW226536   6.503   6.466   5.530 -1.3288 -0.5631 -0.2375
 8177SOL     OW26537   4.205   8.806  10.829 -0.3174 -0.4137 -0.0355
 8177SOL    HW126538   4.218   8.714  10.809 -0.9363 -0.3752 -0.6746
 8177SOL    HW226539   4.189   8.847  10.744  2.0884  0.6765 -0.0590
 8178SOL     OW26540   7.759  10.736   8.430  0.5782  0.0490  0.3153
 8178SOL    HW126541   7.844  10.691   8.427  0.7027  0.2752  0.3890
 8178SOL    HW226542   7.712  10.694   8.502  0.0255 -1.1243 -0.6924
 8179SOL     OW26543  10.454   1.893   0.182  0.3847 -0.4959  0.6593
 8179SOL    HW126544  10.438   1.948   0.259  1.0713  0.3858  0.1993
 8179SOL    HW226545  10.416   1.808   0.205 -0.0187 -0.0600  1.6995
 8180SOL     OW26546   6.810   9.036   6.434  0.2957 -0.1022 -0.6100
 8180SOL    HW126547   6.855   9.072   6.358  0.8967  0.4379 -0.0162
 8180SOL    HW226548   6.866   9.061   6.509 -1.4093  1.3994  0.2561
 8181SOL     OW26549   2.953   2.704   0.573 -0.0252  0.2434 -0.5210
 8181SOL    HW126550   3.027   2.762   0.559  0.5785 -0.5833 -0.8337
 8181SOL    HW226551   2.877   2.754   0.543  0.4022  1.0852 -0.2304
 8182SOL     OW26552   0.297   6.034   1.405  0.1110 -0.3270  0.4699
 8182SOL    HW126553   0.284   5.995   1.318 -0.0458 -2.2541  1.2948
 8182SOL    HW226554   0.375   5.991   1.439 -0.4524 -0.4318  1.6956
 8183SOL     OW26555   9.412   9.141   6.240 -0.0907 -0.4898 -0.0727
 8183SOL    HW126556   9.458   9.080   6.183 -0.8314 -1.1387  0.0159
 8183SOL    HW226557   9.324   9.104   6.249 -0.4603  0.4361  0.2137
 8184SOL     OW26558   6.753   6.617   9.652 -0.0834  0.1635  0.8805
 8184SOL    HW126559   6.722   6.598   9.563  1.2414  2.2522 -0.1099
 8184SOL    HW226560   6.702   6.559   9.708 -3.1096  0.8382 -0.9470
 8185SOL     OW26561   4.976   2.834  10.203  0.5980 -0.1375 -0.1715
 8185SOL    HW126562   5.032   2.762  10.171  0.4246  0.1097 -1.0569
 8185SOL    HW226563   4.898   2.830  10.148  0.1610  0.1324  0.4179
 8186SOL     OW26564   3.137   5.392   4.013  0.0420 -0.2785  0.4407
 8186SOL    HW126565   3.115   5.410   4.105 -0.6236  0.0272  0.2297
 8186SOL    HW226566   3.147   5.478   3.973  0.3580 -0.4114  0.2290
 8187SOL     OW26567   4.798   1.599   0.593 -0.0475 -0.4293  0.1200
 8187SOL    HW126568   4.729   1.630   0.650 -0.1318  0.9651 -0.6993
 8187SOL    HW226569   4.816   1.510   0.623 -1.3325 -0.3735  1.1242
 8188SOL     OW26570   3.850   3.912   7.271  0.3350 -0.0716  0.0414
 8188SOL    HW126571   3.894   3.843   7.222  0.8842  0.2680  0.0478
 8188SOL    HW226572   3.891   3.910   7.358  0.4390  0.3374  0.0050
 8189SOL     OW26573   0.185   4.698   8.178 -0.0267 -0.1830  0.1583
 8189SOL    HW126574   0.122   4.736   8.116 -0.2480  0.4428  0.7557
 8189SOL    HW226575   0.269   4.701   8.132 -0.1816  0.3231 -0.0960
 8190SOL     OW26576   1.806   2.311   5.326 -0.0192 -0.2690 -0.3246
 8190SOL    HW126577   1.854   2.386   5.290  0.1487 -1.1817 -2.1108
 8190SOL    HW226578   1.774   2.264   5.249 -0.8331 -1.5844  0.7757
 8191SOL     OW26579   2.750   1.604   7.199 -0.0546 -0.0467  0.2576
 8191SOL    HW126580   2.691   1.678   7.185 -0.9416 -0.7771  0.0307
 8191SOL    HW226581   2.834   1.644   7.224 -0.6700  1.0005  0.6990
 8192SOL     OW26582   3.221   3.057   1.087 -0.3690  0.9240 -0.1901
 8192SOL    HW126583   3.285   3.122   1.057 -0.0418  0.3599 -0.7437
 8192SOL    HW226584   3.170   3.103   1.153 -0.5044  1.9256 -0.9603
 8193SOL     OW26585   5.750   3.486   1.020  0.0361  0.2851  0.0451
 8193SOL    HW126586   5.665   3.529   1.012  0.4916  1.1160 -0.4337
 8193SOL    HW226587   5.814   3.557   1.017  0.8751 -0.4696 -1.7656
 8194SOL     OW26588   4.968   1.600   8.773 -0.6089  0.2501  0.2358
 8194SOL    HW126589   5.031   1.549   8.722  0.0822  0.9370  0.3732
 8194SOL    HW226590   4.887   1.549   8.771 -0.0197 -0.6908  0.1211
 8195SOL     OW26591   3.516   9.651  10.304 -0.5656 -0.2733 -0.1861
 8195SOL    HW126592   3.586   9.635  10.368 -1.6482 -0.5031  0.9743
 8195SOL    HW226593   3.546   9.727  10.255  0.3646 -0.1769  0.4920
 8196SOL     OW26594  10.777  10.268   7.628 -0.3353  0.6360 -0.1787
 8196SOL    HW126595  10.851  10.207   7.629 -0.0866  0.9293 -0.4405
 8196SOL    HW226596  10.708  10.223   7.677  0.3093  0.7325  0.8421
 8197SOL     OW26597   7.245   0.436   8.503  0.2996  0.4231  0.0230
 8197SOL    HW126598   7.243   0.362   8.443  1.4185  0.9126 -0.6439
 8197SOL    HW226599   7.313   0.414   8.566 -1.0859 -0.2395  1.3704
 8198SOL     OW26600   7.860   7.212  10.214 -0.3664  0.1655 -0.0515
 8198SOL    HW126601   7.932   7.234  10.273  0.3571 -0.7810 -0.5598
 8198SOL    HW226602   7.901   7.202  10.128 -0.7886 -2.1161 -0.0426
 8199SOL     OW26603   0.450  10.447   0.342  0.1349 -0.1522  0.1866
 8199SOL    HW126604   0.482  10.413   0.426 -1.2052 -2.4875 -0.1674
 8199SOL    HW226605   0.359  10.470   0.358 -0.4084 -1.4998 -0.8326
 8200SOL     OW26606   5.757   1.266  10.251  0.1554  0.0390 -0.5400
 8200SOL    HW126607   5.793   1.272  10.162  1.6151  1.1479  0.0866
 8200SOL    HW226608   5.786   1.181  10.283  0.9521  0.2808 -0.5975
 8201SOL     OW26609   8.126   2.004   1.571 -0.4715 -0.5960  0.5885
 8201SOL    HW126610   8.146   1.915   1.600 -0.2048  0.0133  2.3976
 8201SOL    HW226611   8.211   2.042   1.551 -0.6287 -0.9001 -0.7131
 8202SOL     OW26612   7.610   0.972   3.500 -0.1856  0.6135  0.2919
 8202SOL    HW126613   7.572   1.046   3.547  0.2140  0.2793  1.1503
 8202SOL    HW226614   7.534   0.920   3.472 -0.4133  0.7206  0.7125
 8203SOL     OW26615   2.301   3.663   2.551 -0.5156 -0.5458 -0.2996
 8203SOL    HW126616   2.296   3.579   2.505 -0.4053 -0.6346 -0.1512
 8203SOL    HW226617   2.234   3.717   2.509 -0.7096 -0.7661 -0.2782
 8204SOL     OW26618  10.463   0.700   4.002 -0.0677  0.5269 -0.5509
 8204SOL    HW126619  10.459   0.638   4.075 -2.4324  1.2307  0.0012
 8204SOL    HW226620  10.550   0.740   4.009  0.2152 -0.3011  1.1438
 8205SOL     OW26621   9.530   3.927  10.317 -0.0150  0.5451 -0.9759
 8205SOL    HW126622   9.565   3.889  10.236 -0.1233 -0.9912 -0.3165
 8205SOL    HW226623   9.602   3.922  10.379 -0.5681 -0.1669 -0.3834
 8206SOL     OW26624   9.311   8.158   4.771 -0.1963  0.7973  0.1305
 8206SOL    HW126625   9.360   8.111   4.839 -1.3871  2.4867  2.3089
 8206SOL    HW226626   9.378   8.204   4.720  0.7519 -0.7503 -0.0671
 8207SOL     OW26627  10.653   1.013   0.835  0.0806 -0.0304 -0.0700
 8207SOL    HW126628  10.630   0.968   0.917 -0.5152 -2.2455 -1.3741
 8207SOL    HW226629  10.732   0.967   0.805  1.3742  1.9617  0.1194
 8208SOL     OW26630   5.632  10.086   4.725  0.1431  0.1878  0.4563
 8208SOL    HW126631   5.590  10.025   4.664  1.7685  0.6186 -1.1722
 8208SOL    HW226632   5.644  10.166   4.674  1.6638  0.5275  1.3127
 8209SOL     OW26633   6.092   0.438   6.294  0.3056 -0.2136  0.4460
 8209SOL    HW126634   5.997   0.447   6.301  0.1019 -1.5778 -0.1264
 8209SOL    HW226635   6.105   0.345   6.275  1.7218  0.0630 -0.0402
 8210SOL     OW26636   0.992   8.420   9.866 -0.1700 -0.1068  0.2520
 8210SOL    HW126637   1.008   8.363   9.790 -2.7579  0.4914 -0.8799
 8210SOL    HW226638   1.069   8.475   9.872  1.2420 -1.9319 -0.2789
 8211SOL     OW26639   2.115   1.690   8.996 -0.1057 -0.0943  0.5602
 8211SOL    HW126640   2.182   1.659   8.934  0.6219 -1.4156  1.9564
 8211SOL    HW226641   2.163   1.745   9.057 -0.5236 -0.0886  0.8860
 8212SOL     OW26642   6.529   1.307   6.316 -0.5567  0.5846  0.4307
 8212SOL    HW126643   6.623   1.291   6.310 -0.3945  1.6607 -0.0308
 8212SOL    HW226644   6.521   1.388   6.366 -1.2518  0.3862  0.6543
 8213SOL     OW26645   2.460   2.116  10.303  0.1970  0.0408  0.1006
 8213SOL    HW126646   2.489   2.136  10.214  1.7971  0.8360  0.7607
 8213SOL    HW226647   2.442   2.201  10.343  2.5543 -0.0277  1.4893
 8214SOL     OW26648   4.796   0.949   3.356  0.0249  0.3815  0.1253
 8214SOL    HW126649   4.768   0.899   3.280 -0.9329  0.3200  0.5034
 8214SOL    HW226650   4.892   0.949   3.352 -0.0104 -0.1055 -0.7540
 8215SOL     OW26651   5.507  10.851   9.151  0.2596  0.2763  0.1708
 8215SOL    HW126652   5.590  10.877   9.191 -0.1767  1.7570  0.1943
 8215SOL    HW226653   5.442  10.908   9.193 -0.1558  2.4364 -3.0434
 8216SOL     OW26654   8.315   5.791   9.885  0.5036  0.9426  0.4645
 8216SOL    HW126655   8.294   5.876   9.847 -0.4311  0.7110  0.4394
 8216SOL    HW226656   8.230   5.755   9.911  0.9913  0.4898  1.4803
 8217SOL     OW26657   7.799   0.569   6.271 -0.4565 -0.0659  0.6618
 8217SOL    HW126658   7.723   0.521   6.305  0.2694 -0.6339  1.5234
 8217SOL    HW226659   7.839   0.608   6.348  0.5027 -0.3154  0.2983
 8218SOL     OW26660   5.649   8.852   5.078 -0.2153 -0.3854  0.7619
 8218SOL    HW126661   5.672   8.941   5.106 -0.6944 -0.8668  2.8456
 8218SOL    HW226662   5.731   8.814   5.046 -0.2692  1.2249 -1.5539
 8219SOL     OW26663   9.350   9.495   7.644 -0.1456  0.3592  0.1482
 8219SOL    HW126664   9.354   9.403   7.619  0.0618  0.7409 -1.3245
 8219SOL    HW226665   9.281   9.498   7.711  1.9391 -1.3168  2.5437
 8220SOL     OW26666   7.594   8.173   4.870  0.0658 -0.0781 -0.1184
 8220SOL    HW126667   7.644   8.141   4.796 -0.1603 -0.2201 -0.2130
 8220SOL    HW226668   7.518   8.218   4.831  0.2544  0.3675  0.0168
 8221SOL     OW26669   3.178   7.246   3.243 -0.5849 -0.1733 -0.1077
 8221SOL    HW126670   3.092   7.214   3.269 -0.4799 -0.7810 -0.4880
 8221SOL    HW226671   3.196   7.201   3.161  0.4982 -0.7580  0.4351
 8222SOL     OW26672   4.648   5.542   2.863  0.3134  0.3141 -0.3185
 8222SOL    HW126673   4.741   5.546   2.841  0.2092 -2.0318 -1.5578
 8222SOL    HW226674   4.645   5.505   2.951  0.5630  0.1344 -0.3832
 8223SOL     OW26675   8.869   7.745   6.476 -1.0425 -0.0605 -0.2098
 8223SOL    HW126676   8.838   7.654   6.477  1.1827 -0.8814 -0.6120
 8223SOL    HW226677   8.841   7.778   6.391 -0.3357 -0.9734 -0.8243
 8224SOL     OW26678   6.200   1.786   4.564 -0.2419  0.5933  0.0523
 8224SOL    HW126679   6.178   1.860   4.621  0.4808  0.5510  0.4014
 8224SOL    HW226680   6.222   1.826   4.480  1.2742  0.8964  0.5625
 8225SOL     OW26681   5.892   9.614   9.797 -0.1492 -0.0007  0.2841
 8225SOL    HW126682   5.852   9.655   9.873  1.6057  2.1107  0.1936
 8225SOL    HW226683   5.921   9.529   9.828  1.1229  1.0649  2.2481
 8226SOL     OW26684   7.509   4.132   2.000 -0.0027  0.3742 -1.0023
 8226SOL    HW126685   7.431   4.094   1.961 -0.3119  0.6094 -0.6149
 8226SOL    HW226686   7.575   4.063   1.993 -0.8618 -0.6720  0.6923
 8227SOL     OW26687  10.304   8.470  10.222 -0.7662  0.3941 -0.5377
 8227SOL    HW126688  10.271   8.380  10.220  2.6017 -1.0070 -0.1074
 8227SOL    HW226689  10.279   8.503  10.308  0.2707 -1.2058  0.4410
 8228SOL     OW26690   6.947   5.551   5.343  0.6210  0.6502 -0.0117
 8228SOL    HW126691   6.888   5.626   5.340 -0.8593 -0.4687 -0.4584
 8228SOL    HW226692   6.943   5.515   5.254 -2.0282 -2.3251  1.1075
 8229SOL     OW26693   4.115   0.144   7.246 -0.3415  0.4102 -0.0604
 8229SOL    HW126694   4.106   0.238   7.233  0.5382  0.3082 -1.6198
 8229SOL    HW226695   4.074   0.104   7.169 -1.7548 -0.5594  1.1304
 8230SOL     OW26696   3.134   0.601   5.222 -0.3450 -0.0571  0.0186
 8230SOL    HW126697   3.175   0.583   5.138  0.0938 -1.5221  0.5227
 8230SOL    HW226698   3.204   0.589   5.286  0.1396  3.8597  0.4685
 8231SOL     OW26699   1.134   2.600   9.487  0.1507 -0.3774  0.3316
 8231SOL    HW126700   1.120   2.516   9.443 -0.2130 -0.5061  0.6869
 8231SOL    HW226701   1.089   2.591   9.571  0.1639  0.1503  0.3997
 8232SOL     OW26702  10.310   0.945   7.570 -0.2571  0.0317  0.2324
 8232SOL    HW126703  10.275   0.859   7.592 -1.9807  0.4611 -0.6154
 8232SOL    HW226704  10.277   1.002   7.640 -1.8046  0.5324 -0.8361
 8233SOL     OW26705   4.986   0.550   9.991  0.0507  0.0209 -0.0010
 8233SOL    HW126706   5.006   0.545  10.084  0.8223  2.3322  0.0285
 8233SOL    HW226707   5.027   0.632   9.962 -2.3511  0.7150 -1.7894
 8234SOL     OW26708   7.516   2.488   5.838  0.2863  0.3511 -0.0963
 8234SOL    HW126709   7.465   2.407   5.843 -0.9610  1.0957 -0.2837
 8234SOL    HW226710   7.485   2.531   5.759  0.9636  0.9963 -0.0201
 8235SOL     OW26711   9.620   0.364   4.418  0.4648 -0.1833 -0.2084
 8235SOL    HW126712   9.541   0.363   4.364 -0.4678 -0.6229  1.1164
 8235SOL    HW226713   9.628   0.274   4.450  0.0561  0.3880  1.6474
 8236SOL     OW26714   0.486   8.476   3.627 -0.9602  0.1468 -0.1232
 8236SOL    HW126715   0.395   8.472   3.658 -1.0117 -0.7357 -0.3646
 8236SOL    HW226716   0.538   8.469   3.707 -1.0987  1.1877  0.0693
 8237SOL     OW26717   3.716   5.121   0.178 -0.0726 -0.1654  0.2823
 8237SOL    HW126718   3.739   5.208   0.211  0.9542 -0.3745  0.1289
 8237SOL    HW226719   3.621   5.115   0.192 -0.1527  0.9634  0.3296
 8238SOL     OW26720   2.705   3.802   6.660 -0.8766  0.2461  0.3256
 8238SOL    HW126721   2.707   3.777   6.753 -0.3977 -1.0706 -0.0047
 8238SOL    HW226722   2.630   3.860   6.652 -1.3430 -0.1728  1.4177
 8239SOL     OW26723   4.219   5.199   5.932  0.4113  0.2373  0.0531
 8239SOL    HW126724   4.265   5.264   5.985 -0.0322 -0.0715  0.8280
 8239SOL    HW226725   4.150   5.248   5.887  1.3658  0.6749 -0.9902
 8240SOL     OW26726   2.021   9.175  10.215  0.6065  0.2022 -0.4164
 8240SOL    HW126727   2.110   9.210  10.224  0.6882 -0.0499 -0.2277
 8240SOL    HW226728   2.033   9.080  10.210  0.4567  0.2362 -1.7969
 8241SOL     OW26729   2.510   9.331   5.329 -0.0421  0.2422 -0.0920
 8241SOL    HW126730   2.511   9.279   5.409  1.2868 -0.4459 -0.5322
 8241SOL    HW226731   2.504   9.267   5.258  1.3107  0.6910 -0.6273
 8242SOL     OW26732   1.105   0.965   3.122 -0.3578  0.3321 -0.0958
 8242SOL    HW126733   1.049   0.955   3.199  2.5573 -1.6693  1.9733
 8242SOL    HW226734   1.159   1.041   3.141  0.6750 -0.4274  0.1051
 8243SOL     OW26735   8.345   2.601   6.362 -0.6553 -0.3068 -0.3550
 8243SOL    HW126736   8.353   2.632   6.452 -0.1110 -2.6035  0.4411
 8243SOL    HW226737   8.415   2.648   6.315  0.3359 -0.5286  0.8548
 8244SOL     OW26738   0.014  10.736   8.318 -0.5226  0.4436 -0.1717
 8244SOL    HW126739   0.093  10.699   8.278 -1.1787  0.7835 -1.8527
 8244SOL    HW226740  -0.001  10.818   8.270 -1.8526  0.4138  0.1674
 8245SOL     OW26741   8.160   3.838   0.947 -0.8796  0.5223  0.0644
 8245SOL    HW126742   8.190   3.827   1.037 -1.9462 -0.8635  0.2961
 8245SOL    HW226743   8.186   3.927   0.923 -0.4475  0.8662  1.6902
 8246SOL     OW26744  10.009  10.099   5.466  0.5716  0.3012  0.1251
 8246SOL    HW126745   9.926  10.106   5.512 -0.0854  2.5467 -1.2534
 8246SOL    HW226746  10.021  10.184   5.424  2.5206 -0.6685 -1.4908
 8247SOL     OW26747   8.625   4.621   3.375  0.1298  0.1094 -0.0281
 8247SOL    HW126748   8.584   4.660   3.297 -0.6658  1.4266  1.0054
 8247SOL    HW226749   8.582   4.537   3.386 -0.5971  0.4355 -0.3377
 8248SOL     OW26750   8.520   1.774   0.643 -0.1863 -0.4644 -0.1752
 8248SOL    HW126751   8.539   1.721   0.566  2.1230 -2.1082  1.3981
 8248SOL    HW226752   8.538   1.716   0.717  1.4959  2.1905  1.6579
 8249SOL     OW26753   6.925   1.605   4.858  0.4316 -0.1721  0.3219
 8249SOL    HW126754   7.002   1.568   4.815  0.4916 -0.7387  0.8910
 8249SOL    HW226755   6.895   1.535   4.917  0.2943  0.5347  1.1099
 8250SOL     OW26756   3.880   0.043   0.690 -0.2302  0.4352 -0.3203
 8250SOL    HW126757   3.913  -0.040   0.724 -1.4040  0.4876  1.0516
 8250SOL    HW226758   3.784   0.034   0.692 -0.3785  1.7602 -0.2903
 8251SOL     OW26759   4.502   4.715   6.677 -0.1554 -0.1566  0.1801
 8251SOL    HW126760   4.532   4.787   6.622 -1.3308 -1.1746 -1.9383
 8251SOL    HW226761   4.408   4.731   6.687  0.0741  0.1506  2.2047
 8252SOL     OW26762   1.984  10.057   3.703  0.1274 -0.2815 -0.3453
 8252SOL    HW126763   1.985  10.132   3.763 -1.2727  0.0503 -0.6921
 8252SOL    HW226764   1.892  10.031   3.700  0.0372  0.0656 -2.7725
 8253SOL     OW26765   1.393   6.417   4.362  0.1300  0.2964  0.0665
 8253SOL    HW126766   1.393   6.322   4.349  1.3810  0.3317 -0.3241
 8253SOL    HW226767   1.482   6.437   4.390 -0.3799  1.2444  1.0762
 8254SOL     OW26768   7.087   6.448   5.652  0.3886  0.3176 -0.6465
 8254SOL    HW126769   7.165   6.416   5.698  0.2770  0.4798 -0.3377
 8254SOL    HW226770   7.121   6.492   5.574  0.5316 -0.7255 -1.1827
 8255SOL     OW26771   5.710   6.558   1.600  0.1069 -0.1758 -0.1978
 8255SOL    HW126772   5.645   6.499   1.640 -1.7738 -0.2748 -3.1370
 8255SOL    HW226773   5.764   6.501   1.546 -0.8063  0.5542 -1.9368
 8256SOL     OW26774   8.365   6.613   6.813 -0.0965  1.0263  0.1675
 8256SOL    HW126775   8.297   6.679   6.826  0.5968  1.8753 -0.3911
 8256SOL    HW226776   8.447   6.663   6.813  0.5042  0.0560  0.5671
 8257SOL     OW26777   2.342   5.270   5.442 -0.1006  0.4274 -0.7672
 8257SOL    HW126778   2.249   5.275   5.463 -0.4130 -1.6753 -1.4654
 8257SOL    HW226779   2.346   5.272   5.347  0.7002  1.7410 -0.7373
 8258SOL     OW26780   6.450   7.128   0.547  0.1522  0.2364  0.0690
 8258SOL    HW126781   6.360   7.108   0.521  0.0265 -0.5658  1.0289
 8258SOL    HW226782   6.498   7.138   0.465 -0.6868  0.0408 -0.4510
 8259SOL     OW26783  10.236   3.566  10.490  0.0429  0.3614  0.0612
 8259SOL    HW126784  10.258   3.651  10.527  0.8027 -0.4853  1.6262
 8259SOL    HW226785  10.219   3.510  10.565 -0.2698 -0.9411 -0.9335
 8260SOL     OW26786   6.943   4.898   9.431  0.2213  0.7525  0.1033
 8260SOL    HW126787   7.006   4.839   9.472 -1.3595 -0.6347  0.6568
 8260SOL    HW226788   6.920   4.961   9.499  1.4849  1.7265 -0.3182
 8261SOL     OW26789   9.012   7.990   3.492 -0.1100 -0.1672 -0.4009
 8261SOL    HW126790   9.106   8.005   3.496 -0.1138 -0.3823  1.1061
 8261SOL    HW226791   8.998   7.910   3.544 -1.3514  1.1578  1.4225
 8262SOL     OW26792   1.353   2.345   7.687 -0.1641  0.4826 -0.4074
 8262SOL    HW126793   1.290   2.313   7.752  0.7599 -1.0625 -0.2346
 8262SOL    HW226794   1.376   2.268   7.635  0.8224  1.2300 -1.1202
 8263SOL     OW26795   5.535   1.140   5.011 -0.1676  0.1544 -0.4609
 8263SOL    HW126796   5.484   1.075   5.061 -0.6817  1.1170  0.2936
 8263SOL    HW226797   5.482   1.219   5.014  0.9086  0.8910 -0.5396
 8264SOL     OW26798   1.999   2.616   2.799 -0.8734  0.1796 -0.0391
 8264SOL    HW126799   1.958   2.566   2.869 -1.6962 -1.5219 -1.6360
 8264SOL    HW226800   2.078   2.566   2.777  0.0453  1.3560  0.4345
 8265SOL     OW26801   5.758   9.802   4.839  0.4424 -0.2062  0.0638
 8265SOL    HW126802   5.681   9.756   4.872  1.0437 -1.8680 -0.7459
 8265SOL    HW226803   5.828   9.778   4.899  0.4817  0.7857  0.4291
 8266SOL     OW26804   7.808   2.594   8.460 -0.4209  0.1980 -0.2678
 8266SOL    HW126805   7.817   2.610   8.554  1.2734  0.5701 -0.4685
 8266SOL    HW226806   7.722   2.631   8.438 -1.7360 -1.6207  1.4541
 8267SOL     OW26807   8.473   2.795   9.057  0.0041 -0.2441  0.1223
 8267SOL    HW126808   8.413   2.829   8.991  1.1663  0.4540 -0.5969
 8267SOL    HW226809   8.487   2.869   9.117  2.4430  0.6268 -1.3796
 8268SOL     OW26810   5.905   0.747   2.672  0.5907 -0.2260  0.3005
 8268SOL    HW126811   5.810   0.739   2.685  0.6873  0.1470  1.3345
 8268SOL    HW226812   5.919   0.720   2.581 -0.1749 -2.9547  0.9092
 8269SOL     OW26813   1.479   4.548   1.426  0.2897 -0.3766 -0.2194
 8269SOL    HW126814   1.449   4.500   1.503 -0.2630  0.7635  0.2856
 8269SOL    HW226815   1.437   4.504   1.353 -0.6562 -0.3256  0.2838
 8270SOL     OW26816   8.479   5.944   0.801 -0.6579 -0.1074  0.2094
 8270SOL    HW126817   8.411   5.927   0.735 -0.9617  0.7240  0.3073
 8270SOL    HW226818   8.431   5.975   0.878 -0.0745  2.1227 -0.2637
 8271SOL     OW26819   5.912   6.590   5.661  0.2909 -0.0827  0.1360
 8271SOL    HW126820   5.912   6.604   5.755 -0.1090  1.1048 -0.0236
 8271SOL    HW226821   5.820   6.578   5.638  0.4988 -1.8318  0.0730
 8272SOL     OW26822   5.115   8.389   9.258  0.3210 -0.0001  0.4307
 8272SOL    HW126823   5.099   8.366   9.166  1.6314 -1.9853  0.6325
 8272SOL    HW226824   5.104   8.307   9.306 -0.2543  0.9901  2.0570
 8273SOL     OW26825   4.325  10.601   9.651  0.2118 -0.2131  0.1185
 8273SOL    HW126826   4.281  10.686   9.652  0.2612 -0.1935  0.8749
 8273SOL    HW226827   4.400  10.614   9.593 -0.9254 -0.3360 -1.4534
 8274SOL     OW26828   7.429   6.016   8.173 -0.7649 -0.4665 -0.3832
 8274SOL    HW126829   7.353   6.031   8.229 -0.2725 -2.1604  0.8148
 8274SOL    HW226830   7.422   5.923   8.148  0.4437 -0.4193 -0.9429
 8275SOL     OW26831   5.297   0.877   4.816  0.1729 -0.9443  0.1066
 8275SOL    HW126832   5.386   0.850   4.796  0.5805 -0.1534  0.8230
 8275SOL    HW226833   5.259   0.898   4.730  0.7359 -1.0549 -0.1761
 8276SOL     OW26834   0.211   8.017   4.038 -0.1012  0.2515 -0.6316
 8276SOL    HW126835   0.194   8.044   3.948  0.8741  0.2873 -0.8184
 8276SOL    HW226836   0.304   8.035   4.051 -0.2171  0.1917  0.3667
 8277SOL     OW26837   6.818   9.840   8.177  0.3172  0.0839 -0.1494
 8277SOL    HW126838   6.781   9.902   8.240 -0.2839  2.7856 -2.9388
 8277SOL    HW226839   6.851   9.769   8.231  0.1016  2.3101  3.2355
 8278SOL     OW26840   7.388   1.527   0.095 -0.6416 -0.3686 -0.5504
 8278SOL    HW126841   7.461   1.522   0.157 -0.1054  2.4535 -0.7953
 8278SOL    HW226842   7.315   1.484   0.139  0.7400 -1.8526  0.3641
 8279SOL     OW26843   6.633   5.646   5.237  0.0396  0.1747 -0.0072
 8279SOL    HW126844   6.570   5.669   5.305 -1.5688  1.3185 -1.7754
 8279SOL    HW226845   6.604   5.561   5.205 -1.5510  1.3092 -1.7591
 8280SOL     OW26846   7.374   0.886   4.776  0.4924  0.2070 -0.1513
 8280SOL    HW126847   7.454   0.840   4.749 -0.2075 -0.6183 -0.8704
 8280SOL    HW226848   7.320   0.888   4.698  0.6953  2.7732 -0.3062
 8281SOL     OW26849   3.262   5.714   4.245  0.3470 -0.4030 -0.3402
 8281SOL    HW126850   3.177   5.757   4.253  0.7690  0.1629  1.8467
 8281SOL    HW226851   3.242   5.621   4.241 -0.4060 -0.2319 -0.7656
 8282SOL     OW26852   2.184   4.209   2.617  0.6511  0.2193  0.6259
 8282SOL    HW126853   2.121   4.276   2.588  1.3551  1.1625  1.2452
 8282SOL    HW226854   2.244   4.256   2.675  1.8942 -0.6748  0.1031
 8283SOL     OW26855   3.678   9.626   1.526 -0.1882 -0.3645 -0.6519
 8283SOL    HW126856   3.702   9.572   1.450  0.8590 -0.5088 -0.2300
 8283SOL    HW226857   3.689   9.716   1.495  2.4937 -0.4069 -0.0314
 8284SOL     OW26858  10.248   9.947   5.376  0.2637  0.4411  0.0400
 8284SOL    HW126859  10.315   9.926   5.440  0.1850  0.0486 -0.0049
 8284SOL    HW226860  10.193  10.013   5.419  1.1023  1.3232 -0.1976
 8285SOL     OW26861   1.193   2.082   2.338  0.0621  0.1068  0.3926
 8285SOL    HW126862   1.117   2.135   2.362 -0.2932 -0.0412 -0.3976
 8285SOL    HW226863   1.157   2.009   2.287  0.8713  0.8737 -1.3602
 8286SOL     OW26864   1.683   9.533   9.609 -0.5028  0.2422  0.3930
 8286SOL    HW126865   1.669   9.590   9.684 -1.2770  0.5347  0.0371
 8286SOL    HW226866   1.744   9.466   9.640 -1.9185 -0.4786  1.7111
 8287SOL     OW26867   0.163   5.695   6.273 -0.1551 -0.1300 -0.2438
 8287SOL    HW126868   0.137   5.742   6.194 -1.8675 -2.0730 -0.9126
 8287SOL    HW226869   0.093   5.632   6.287 -0.2334  0.5607  3.2367
 8288SOL     OW26870   1.658   7.335   3.405  0.1354  0.0914  1.0055
 8288SOL    HW126871   1.712   7.260   3.430 -0.9480 -0.5304  1.5719
 8288SOL    HW226872   1.697   7.409   3.452  2.2334  0.2653 -0.8504
 8289SOL     OW26873   4.475   7.224   5.693 -0.1308 -0.2867 -0.2976
 8289SOL    HW126874   4.381   7.211   5.706 -0.0784 -1.2519 -0.7518
 8289SOL    HW226875   4.486   7.227   5.598  0.3832 -0.9249 -0.2641
 8290SOL     OW26876   8.087   8.773   2.218  0.4043  0.1306 -0.2833
 8290SOL    HW126877   8.090   8.738   2.307 -1.5641  3.7594  1.4343
 8290SOL    HW226878   8.014   8.727   2.177  1.2961 -1.5456 -0.0718
 8291SOL     OW26879   0.402   6.398   0.818  0.3395  0.5023 -0.5574
 8291SOL    HW126880   0.362   6.392   0.905  0.9408  3.2776 -0.0106
 8291SOL    HW226881   0.488   6.357   0.829  0.8143  1.7004  0.4815
 8292SOL     OW26882   4.166   8.611   2.210  0.6835 -0.0667  0.7445
 8292SOL    HW126883   4.196   8.632   2.122 -0.6599 -0.8415  0.0748
 8292SOL    HW226884   4.215   8.533   2.235 -0.5994 -1.2301 -0.2749
 8293SOL     OW26885   6.134   3.233   8.925  0.3727 -0.4387 -0.0371
 8293SOL    HW126886   6.059   3.275   8.882  0.4512  0.8937  1.0504
 8293SOL    HW226887   6.115   3.241   9.019  2.9414  2.0845  0.3787
 8294SOL     OW26888   1.789   3.467   5.313 -0.2911 -0.2692 -0.3687
 8294SOL    HW126889   1.733   3.409   5.365 -0.2944 -0.3013 -0.4077
 8294SOL    HW226890   1.860   3.492   5.372 -0.1902 -0.4620 -0.4067
 8295SOL     OW26891   9.112   4.157   5.000  0.4155  0.0517  0.7500
 8295SOL    HW126892   9.148   4.070   5.019  0.8287  0.1146  0.2775
 8295SOL    HW226893   9.017   4.145   5.001  0.4745 -0.4588  0.4315
 8296SOL     OW26894   9.025  10.203   2.230 -0.4035  0.0545 -0.4342
 8296SOL    HW126895   9.056  10.150   2.157 -3.0143 -1.3999 -0.6179
 8296SOL    HW226896   9.008  10.289   2.192 -0.1628 -0.2096 -1.1505
 8297SOL     OW26897   7.035   9.703   0.103  0.3179 -0.2390  0.1151
 8297SOL    HW126898   6.949   9.742   0.110 -0.8194 -2.6363  0.5079
 8297SOL    HW226899   7.030   9.622   0.155  2.1937 -1.3853 -1.3291
 8298SOL     OW26900   1.291   5.751   7.278  0.2353  0.1271  0.0413
 8298SOL    HW126901   1.238   5.675   7.255 -1.0580  1.0027  0.0435
 8298SOL    HW226902   1.380   5.716   7.289 -0.3715 -1.4117  0.2789
 8299SOL     OW26903   4.602  10.460   0.895  0.1875  0.1388 -0.5830
 8299SOL    HW126904   4.626  10.371   0.920 -0.5581  0.3946  1.1808
 8299SOL    HW226905   4.677  10.493   0.845  1.1668 -0.9067  0.1649
 8300SOL     OW26906   4.851   6.007   6.488 -0.3192  0.2305  0.0162
 8300SOL    HW126907   4.778   5.957   6.526 -1.6787  1.4557 -0.8588
 8300SOL    HW226908   4.900   5.942   6.437  0.0920 -0.9166  1.7814
 8301SOL     OW26909  10.759  10.152   1.762  0.3728 -0.2954 -0.1529
 8301SOL    HW126910  10.725  10.121   1.846 -1.3653  1.9853  0.0697
 8301SOL    HW226911  10.709  10.104   1.696 -1.2828  0.8933  0.1819
 8302SOL     OW26912  10.366   4.494   4.346  0.4929  0.2543  0.2435
 8302SOL    HW126913  10.411   4.517   4.427 -0.3744 -2.2231  1.5354
 8302SOL    HW226914  10.419   4.423   4.309 -0.8129 -0.8017  0.3426
 8303SOL     OW26915   7.792   9.576   5.940 -0.1392 -0.7298  0.2950
 8303SOL    HW126916   7.780   9.495   5.989 -1.3553  0.1560  1.5288
 8303SOL    HW226917   7.707   9.593   5.900 -0.2867  0.6037  1.1232
 8304SOL     OW26918   4.353   7.043   8.381  0.4467 -0.9146 -0.2301
 8304SOL    HW126919   4.431   7.058   8.329 -0.3332 -1.9246 -1.7661
 8304SOL    HW226920   4.383   6.990   8.455  1.2916 -0.9025 -0.5537
 8305SOL     OW26921  10.714   2.348   1.550  0.4805  0.1070 -0.3996
 8305SOL    HW126922  10.718   2.345   1.455  0.2551  1.7192 -0.4983
 8305SOL    HW226923  10.622   2.369   1.569  0.9860  2.2392  0.0174
 8306SOL     OW26924   5.591   3.895   9.616  0.5044  0.0799  0.3114
 8306SOL    HW126925   5.592   3.967   9.679 -2.5747  1.6171 -1.2139
 8306SOL    HW226926   5.517   3.841   9.642  0.8904 -0.8235 -0.4021
 8307SOL     OW26927   6.231   8.419   6.394  0.5623 -0.8491 -0.1422
 8307SOL    HW126928   6.309   8.474   6.400 -0.0554  0.1341 -0.8911
 8307SOL    HW226929   6.234   8.384   6.305 -0.3403 -0.0305 -0.5103
 8308SOL     OW26930   7.337   6.353   3.968  0.0517 -0.0534 -0.3056
 8308SOL    HW126931   7.262   6.298   3.948 -0.3099  0.5363 -0.5973
 8308SOL    HW226932   7.305   6.443   3.958  0.4623  0.2327  0.7647
 8309SOL     OW26933   5.497  10.968   2.294 -0.0347  0.1360 -0.3486
 8309SOL    HW126934   5.495  10.985   2.388 -0.6497  0.9619 -0.5058
 8309SOL    HW226935   5.537  11.046   2.256 -2.6276  1.2386 -1.0418
 8310SOL     OW26936   7.053   9.666   2.296  0.1359 -0.6471  0.1135
 8310SOL    HW126937   7.050   9.570   2.306  2.0430 -0.7252  0.4155
 8310SOL    HW226938   7.103   9.679   2.215  1.7303  0.0747  1.1786
 8311SOL     OW26939   5.472   5.095   9.196 -0.0228 -0.2976  0.1938
 8311SOL    HW126940   5.415   5.057   9.263  0.8288  1.7758  2.2316
 8311SOL    HW226941   5.515   5.020   9.156 -3.5262 -1.9232 -0.9753
 8312SOL     OW26942   8.000   5.413   6.458  0.0325 -0.0115 -0.6285
 8312SOL    HW126943   8.045   5.475   6.515 -0.9086 -0.6510  0.8709
 8312SOL    HW226944   7.956   5.353   6.518 -1.0982 -0.6521 -2.0464
 8313SOL     OW26945   0.774   8.971   6.904 -0.1911  0.1399 -0.2757
 8313SOL    HW126946   0.799   9.031   6.834 -0.4811 -0.1754 -0.6607
 8313SOL    HW226947   0.679   8.981   6.911 -0.0984  0.5451  0.4288
 8314SOL     OW26948   7.145   5.359   3.799 -0.9248 -0.3352 -0.2256
 8314SOL    HW126949   7.233   5.323   3.784 -1.0392 -1.0387  0.6563
 8314SOL    HW226950   7.149   5.447   3.763 -0.2174 -0.7707 -1.2499
 8315SOL     OW26951   6.015   9.778   1.185  0.1282  0.2219 -0.0143
 8315SOL    HW126952   6.103   9.749   1.209  0.5687  1.0328 -0.5779
 8315SOL    HW226953   5.980   9.818   1.264  0.0157 -0.6412  0.3906
 8316SOL     OW26954   2.052   5.176   2.149 -0.0177  0.2345  0.3469
 8316SOL    HW126955   2.066   5.207   2.060  0.3269  0.3371  0.4364
 8316SOL    HW226956   1.964   5.137   2.148 -0.2277  0.7151  0.0988
 8317SOL     OW26957   6.858   2.183   9.371  0.3421 -0.7453 -0.6384
 8317SOL    HW126958   6.942   2.191   9.325  0.3454  0.0608 -0.4983
 8317SOL    HW226959   6.795   2.225   9.313  0.2705 -0.1137 -0.1118
 8318SOL     OW26960   5.338   3.790   5.978 -0.0915  0.2919 -0.2753
 8318SOL    HW126961   5.345   3.840   6.059 -2.1407  0.9062 -0.4107
 8318SOL    HW226962   5.313   3.702   6.006  0.6871  0.0952 -0.1809
 8319SOL     OW26963   1.753   6.324   7.057  0.1306  0.6601 -0.4643
 8319SOL    HW126964   1.750   6.329   6.961  1.2251 -0.4483 -0.5792
 8319SOL    HW226965   1.765   6.231   7.076  1.1611  1.0095  0.7020
 8320SOL     OW26966   5.967  10.503   6.143 -0.6619  0.0315  0.1482
 8320SOL    HW126967   6.055  10.537   6.125 -1.1769  0.8608 -0.9308
 8320SOL    HW226968   5.924  10.574   6.191 -0.3802 -0.8480  1.7681
 8321SOL     OW26969   4.814   0.878   0.470  0.1512  0.3075  0.2196
 8321SOL    HW126970   4.791   0.858   0.561  2.9904  0.6798  1.1037
 8321SOL    HW226971   4.904   0.910   0.474  0.4671  0.0783 -2.7774
 8322SOL     OW26972   9.803   7.628   0.948 -0.2756 -0.1245  0.4288
 8322SOL    HW126973   9.813   7.533   0.945 -1.0045 -0.2319  1.1806
 8322SOL    HW226974   9.835   7.658   0.862  0.5862 -0.9757  0.4350
 8323SOL     OW26975   3.464   0.607   2.821 -0.2910  0.9253 -0.1162
 8323SOL    HW126976   3.404   0.678   2.843 -1.2264 -0.0305  0.4811
 8323SOL    HW226977   3.436   0.576   2.735 -1.3122 -0.1753  0.5923
 8324SOL     OW26978   5.550   6.033   6.919 -0.0697 -0.1755  0.7886
 8324SOL    HW126979   5.498   5.953   6.906  1.0220 -0.7646 -0.1973
 8324SOL    HW226980   5.545   6.078   6.835  0.8183 -0.1324  0.7494
 8325SOL     OW26981   6.534   2.459   9.463  0.5590 -0.2547 -0.4385
 8325SOL    HW126982   6.570   2.411   9.387  1.7454  0.6281 -0.4610
 8325SOL    HW226983   6.609   2.508   9.497  0.0807 -0.7625  1.4237
 8326SOL     OW26984   8.611  10.868   6.176  0.1356 -0.2358  0.0001
 8326SOL    HW126985   8.550  10.843   6.244  0.1704 -1.0055 -0.2453
 8326SOL    HW226986   8.697  10.842   6.209  0.1062 -1.0336 -0.5142
 8327SOL     OW26987  10.636   4.276   7.576 -0.2562 -0.2827 -0.2297
 8327SOL    HW126988  10.677   4.343   7.632  0.2430  0.1480 -1.0895
 8327SOL    HW226989  10.672   4.193   7.608  1.7022  0.1097 -1.2485
 8328SOL     OW26990   8.678  10.466  10.530 -0.7570  0.2420  0.0818
 8328SOL    HW126991   8.709  10.375  10.524  0.0269  0.5483 -0.9569
 8328SOL    HW226992   8.656  10.489  10.440 -0.1733  1.3347  0.1982
 8329SOL     OW26993   4.797   9.986  11.038 -0.3159 -0.1160  0.0330
 8329SOL    HW126994   4.769   9.901  11.002  0.3048 -0.6585  0.7944
 8329SOL    HW226995   4.715  10.027  11.066 -0.6846 -0.2012 -0.8679
 8330SOL     OW26996  10.272   5.944   2.647  0.5474  0.2569  0.4207
 8330SOL    HW126997  10.309   5.970   2.731 -2.3771 -1.6180  2.5146
 8330SOL    HW226998  10.249   5.852   2.659 -0.3728  0.0567 -2.3007
 8331SOL     OW26999   3.038   1.849   3.278  0.3079 -0.1096  0.0278
 8331SOL    HW127000   3.099   1.885   3.213 -0.4599  2.0886  0.4573
 8331SOL    HW227001   2.952   1.854   3.235 -0.1312  0.8378  0.9785
 8332SOL     OW27002  10.885   1.512   5.683  0.0505 -0.6920 -0.0345
 8332SOL    HW127003  10.838   1.593   5.667  0.1230 -0.7215 -0.3989
 8332SOL    HW227004  10.907   1.479   5.596  1.0468 -0.4966  0.1234
 8333SOL     OW27005   8.046   2.597   6.602 -0.0613  0.0927 -0.3638
 8333SOL    HW127006   8.020   2.505   6.609  1.9294 -0.4273  0.9765
 8333SOL    HW227007   8.065   2.609   6.509 -1.0696 -0.6052 -0.6807
 8334SOL     OW27008   1.465   7.392   1.874  0.0538 -0.5753  0.1096
 8334SOL    HW127009   1.397   7.448   1.910  1.1732  0.3437  0.8568
 8334SOL    HW227010   1.450   7.306   1.914 -1.3811 -0.7344 -0.6842
 8335SOL     OW27011   1.631   7.650   8.652 -0.1025  0.1314  0.3107
 8335SOL    HW127012   1.712   7.620   8.612 -0.8970  0.5686 -1.7483
 8335SOL    HW227013   1.618   7.593   8.728  0.0370 -2.6743 -1.6399
 8336SOL     OW27014   3.356   8.900   7.003  0.4056  0.4267 -1.0616
 8336SOL    HW127015   3.412   8.874   6.930  2.2151 -2.2346  1.0576
 8336SOL    HW227016   3.416   8.937   7.068 -0.2963 -1.6577  0.9199
 8337SOL     OW27017   7.210   3.147   3.840  0.3549 -0.2647  0.1508
 8337SOL    HW127018   7.142   3.099   3.886  0.7832 -2.1331 -1.0390
 8337SOL    HW227019   7.268   3.179   3.909 -0.0707 -1.2941  1.0187
 8338SOL     OW27020   9.254   7.437   4.295  0.6286 -0.5016 -0.8990
 8338SOL    HW127021   9.175   7.489   4.297  0.6822 -0.4169 -1.0040
 8338SOL    HW227022   9.325   7.500   4.309  0.5490 -0.8607  1.6129
 8339SOL     OW27023  10.807   0.900   9.766 -0.0254 -0.2717  0.2020
 8339SOL    HW127024  10.832   0.988   9.736 -1.5194 -0.4272 -1.7038
 8339SOL    HW227025  10.792   0.851   9.685  2.7024 -2.9420  1.1613
 8340SOL     OW27026   4.857   0.694   1.449 -0.4682  0.1140 -0.1388
 8340SOL    HW127027   4.835   0.680   1.357 -3.5758  0.1471  0.4887
 8340SOL    HW227028   4.904   0.615   1.475 -0.0777 -0.1573 -1.5621
 8341SOL     OW27029  11.038   3.732   6.299  0.0303 -0.8843 -0.1901
 8341SOL    HW127030  10.949   3.764   6.317  0.4560  1.2439 -1.5871
 8341SOL    HW227031  11.042   3.647   6.344 -2.3222 -0.5318  0.8323
 8342SOL     OW27032   2.890   0.072   9.979  0.5049 -0.0430 -0.1251
 8342SOL    HW127033   2.902   0.106   9.890 -1.6157 -0.3397 -0.5790
 8342SOL    HW227034   2.923  -0.017   9.975  0.7263  0.0522 -0.5228
 8343SOL     OW27035   1.166   2.529   1.696 -0.7443  0.5620 -0.3400
 8343SOL    HW127036   1.075   2.519   1.725 -0.7434  0.7659 -0.2646
 8343SOL    HW227037   1.160   2.581   1.616 -0.7888 -0.4777 -1.0201
 8344SOL     OW27038   5.217   2.726   8.154  0.0848  0.0491 -0.4870
 8344SOL    HW127039   5.147   2.697   8.094 -0.2084 -1.5923  0.5695
 8344SOL    HW227040   5.293   2.740   8.097 -0.1177 -1.7056 -1.2708
 8345SOL     OW27041   4.326   4.421   2.564  0.0809 -0.7621 -0.8096
 8345SOL    HW127042   4.355   4.457   2.480 -0.3743 -1.0838 -1.1161
 8345SOL    HW227043   4.230   4.427   2.560  0.0799  2.2895  1.0613
 8346SOL     OW27044   3.551   3.875   7.455  0.0250 -0.4877  0.0300
 8346SOL    HW127045   3.607   3.926   7.513  1.9203 -1.8238 -0.5221
 8346SOL    HW227046   3.556   3.919   7.370 -0.0584 -0.4172  0.0608
 8347SOL     OW27047   9.625   0.462   9.556  0.0434 -0.4572 -0.0904
 8347SOL    HW127048   9.695   0.479   9.620  2.1218 -3.1912 -1.4209
 8347SOL    HW227049   9.598   0.372   9.573 -0.8488 -0.5416 -1.7171
 8348SOL     OW27050   2.022   5.452  10.963  0.0196 -0.1968 -0.2905
 8348SOL    HW127051   2.064   5.406  11.035 -0.0514  1.0569  0.5938
 8348SOL    HW227052   1.975   5.384  10.915 -0.3203 -0.9990  1.1212
 8349SOL     OW27053   2.171   6.930   4.097 -0.0233  0.5557  0.0147
 8349SOL    HW127054   2.169   6.888   4.183  0.7399 -0.2036 -0.3276
 8349SOL    HW227055   2.084   6.968   4.087 -0.8631 -1.2424  0.1994
 8350SOL     OW27056   8.269   7.916   9.420 -0.8413  0.0359 -0.0153
 8350SOL    HW127057   8.272   7.934   9.326 -0.2025  0.4233  0.0727
 8350SOL    HW227058   8.216   7.986   9.457  0.2935  0.8526  0.1179
 8351SOL     OW27059   0.297   7.418   9.380  0.2407  0.2021  0.3328
 8351SOL    HW127060   0.324   7.384   9.465  2.4467  1.0269  0.0214
 8351SOL    HW227061   0.280   7.511   9.395 -0.9580  0.0215  0.1811
 8352SOL     OW27062   6.588   8.224   3.213 -0.2481 -0.4657  0.5939
 8352SOL    HW127063   6.588   8.129   3.204  1.9968 -0.5280  0.7247
 8352SOL    HW227064   6.562   8.239   3.304 -1.1289 -0.9059  0.4256
 8353SOL     OW27065   2.520   4.260   8.347 -0.0445  0.3439 -0.0916
 8353SOL    HW127066   2.431   4.228   8.334 -0.9209  1.2239  2.9753
 8353SOL    HW227067   2.561   4.197   8.406 -0.4855  2.5501  2.7768
 8354SOL     OW27068   9.761   6.668   7.764  0.3738 -0.2679  0.5665
 8354SOL    HW127069   9.835   6.609   7.761  1.3493  0.9415 -1.0306
 8354SOL    HW227070   9.779   6.728   7.836  1.3504  0.4623 -0.2577
 8355SOL     OW27071   7.206  10.097   0.032 -0.1059 -0.4692  0.0534
 8355SOL    HW127072   7.212  10.013  -0.014 -1.2672 -0.5307 -0.0079
 8355SOL    HW227073   7.133  10.086   0.092  0.0834  0.3248  0.4359
 8356SOL     OW27074   0.684   0.095   4.011 -0.1689 -0.1600  0.3122
 8356SOL    HW127075   0.620   0.072   3.943 -0.4366  3.1978 -0.7560
 8356SOL    HW227076   0.640   0.073   4.093 -1.0679 -1.5166 -0.4906
 8357SOL     OW27077  10.791   9.901   6.339  0.1288 -0.3076  0.1217
 8357SOL    HW127078  10.786   9.911   6.243 -0.0622  1.6588  0.2858
 8357SOL    HW227079  10.885   9.896   6.358  0.2005  0.0482 -0.1239
 8358SOL     OW27080   6.174   6.084   0.448  0.3002  0.1592 -0.3093
 8358SOL    HW127081   6.240   6.048   0.507  0.4727 -0.2868 -0.7744
 8358SOL    HW227082   6.205   6.173   0.430 -0.0603  0.5163  0.7296
 8359SOL     OW27083   9.635   4.840   1.311 -0.2211  0.1638 -0.2066
 8359SOL    HW127084   9.556   4.877   1.350  0.6342 -0.2397  2.0070
 8359SOL    HW227085   9.619   4.746   1.309  0.2156  0.0738  0.3215
 8360SOL     OW27086   2.672  10.178   0.935 -0.1351  0.0199 -0.7939
 8360SOL    HW127087   2.730  10.109   0.968  1.2076  1.1880 -0.6132
 8360SOL    HW227088   2.598  10.177   0.995  0.8609  0.1086  0.4761
 8361SOL     OW27089   7.371   7.999   9.325  0.0731  0.1563 -0.0260
 8361SOL    HW127090   7.418   7.946   9.388 -1.5944  1.3993  2.4426
 8361SOL    HW227091   7.306   7.940   9.287 -1.5434  0.2156  2.4418
 8362SOL     OW27092   1.690   6.220   3.780 -0.4975 -0.6271 -0.5740
 8362SOL    HW127093   1.654   6.296   3.735  0.2022 -0.5959 -1.1014
 8362SOL    HW227094   1.771   6.201   3.733  0.1411 -0.7267  0.5473
 8363SOL     OW27095   0.473   8.102   0.481  0.2200 -0.4551 -0.0242
 8363SOL    HW127096   0.474   8.192   0.514 -1.2405 -0.8818  1.2751
 8363SOL    HW227097   0.497   8.110   0.388 -1.7638  1.5091 -0.4357
 8364SOL     OW27098   6.037   4.299   1.372  0.3434  0.2765 -0.4399
 8364SOL    HW127099   6.031   4.327   1.280  0.1477 -0.7535 -0.7508
 8364SOL    HW227100   6.129   4.279   1.385  0.3709  0.4203 -0.4052
 8365SOL     OW27101   8.898   5.516   4.624  0.5047  0.6875 -0.0446
 8365SOL    HW127102   8.891   5.423   4.645 -0.5701  0.2658 -1.9979
 8365SOL    HW227103   8.830   5.558   4.675 -0.0740  0.1474 -0.3550
 8366SOL     OW27104   5.366   0.961   2.583  0.2136  0.0280 -0.3654
 8366SOL    HW127105   5.359   0.981   2.490  0.1554 -2.2589 -0.9178
 8366SOL    HW227106   5.275   0.957   2.614  0.2077  0.1836 -0.3649
 8367SOL     OW27107   9.205   6.299   2.721  0.0760  0.3706 -0.6527
 8367SOL    HW127108   9.219   6.384   2.763 -0.1476  0.3934 -0.6223
 8367SOL    HW227109   9.274   6.243   2.758 -0.8250  0.0676  0.6682
 8368SOL     OW27110  10.268   3.401   6.345  0.1328 -0.0370  0.2156
 8368SOL    HW127111  10.237   3.333   6.405 -0.5714  0.3311  0.2794
 8368SOL    HW227112  10.326   3.355   6.284  0.1112 -0.5872  0.6079
 8369SOL     OW27113   3.233   6.905  10.977  1.1067 -0.3390  0.0727
 8369SOL    HW127114   3.237   6.978  10.915 -0.8679 -2.5256 -2.9387
 8369SOL    HW227115   3.189   6.941  11.053  2.0552  2.0782 -0.4379
 8370SOL     OW27116   9.722   8.498  10.537 -0.2099 -0.0359  0.4445
 8370SOL    HW127117   9.678   8.538  10.461  1.7081  0.3416 -0.5178
 8370SOL    HW227118   9.677   8.414  10.549 -1.7643  0.6975  0.0809
 8371SOL     OW27119   5.669   4.953   3.953 -0.3619 -0.2709  0.2945
 8371SOL    HW127120   5.643   4.866   3.986  1.1200 -0.2198  1.7261
 8371SOL    HW227121   5.753   4.938   3.910 -0.0812  0.4592  0.5899
 8372SOL     OW27122  10.261  10.906   0.574 -0.5415  0.6471  0.1091
 8372SOL    HW127123  10.304  10.893   0.489 -0.0796  1.4695  0.2021
 8372SOL    HW227124  10.295  10.990   0.605 -1.3633  0.7690  0.7178
 8373SOL     OW27125   3.283   8.191   8.623 -0.3349 -0.2041  0.0380
 8373SOL    HW127126   3.191   8.212   8.641 -0.9904 -1.5668 -1.4903
 8373SOL    HW227127   3.325   8.191   8.710 -1.7838  0.3610  0.7701
 8374SOL     OW27128   9.084   8.574  10.366  0.1685  0.8954 -0.3206
 8374SOL    HW127129   8.992   8.549  10.372  0.7131 -1.9822 -1.6580
 8374SOL    HW227130   9.091   8.619  10.282 -0.1544  1.9674  0.2192
 8375SOL     OW27131   8.081   7.676   7.678 -0.0074 -0.6020  0.1313
 8375SOL    HW127132   8.110   7.728   7.753  0.8267  0.5419 -0.9482
 8375SOL    HW227133   8.004   7.722   7.645  0.7814  0.0330 -0.8776
 8376SOL     OW27134   4.122   4.385   7.570 -0.0452  0.9457  0.2804
 8376SOL    HW127135   4.147   4.365   7.480  1.1732  1.1805  0.5419
 8376SOL    HW227136   4.201   4.366   7.621 -1.0054 -0.1184  1.4398
 8377SOL     OW27137   9.828   8.291   0.029  0.4818 -0.0224  0.2768
 8377SOL    HW127138   9.848   8.253   0.114  0.5538 -2.6921 -0.8404
 8377SOL    HW227139   9.887   8.247  -0.032  0.2885  1.6603 -1.2367
 8378SOL     OW27140   4.800  10.800   1.371  0.7348 -0.2492  0.1939
 8378SOL    HW127141   4.876  10.854   1.350  1.0500 -0.3599  1.0069
 8378SOL    HW227142   4.727  10.862   1.374  1.3407  0.4528  2.6568
 8379SOL     OW27143   2.579   5.924   8.711  0.4101  0.5603  0.0635
 8379SOL    HW127144   2.514   5.857   8.689 -0.9229  1.4198  1.2192
 8379SOL    HW227145   2.640   5.879   8.769 -0.7584  0.4216  1.2475
 8380SOL     OW27146   4.612   3.182   7.881 -0.6089  0.0135  0.5390
 8380SOL    HW127147   4.584   3.229   7.960  0.1707 -0.7867  1.3181
 8380SOL    HW227148   4.592   3.242   7.809 -0.0488  1.3443  1.4610
 8381SOL     OW27149   4.089   2.561   3.144 -0.4949 -0.2968 -0.0782
 8381SOL    HW127150   4.058   2.489   3.090 -1.4853 -0.4088  0.5933
 8381SOL    HW227151   4.035   2.556   3.223 -2.3843  2.6369 -1.0182
 8382SOL     OW27152   1.418   2.464   3.118  0.2208 -0.0859  0.2530
 8382SOL    HW127153   1.467   2.401   3.064  0.4160  1.0174 -0.9295
 8382SOL    HW227154   1.339   2.483   3.066  0.5855  1.2697  0.1523
 8383SOL     OW27155  10.682   7.787   6.675 -0.0418 -0.3570  0.2368
 8383SOL    HW127156  10.629   7.724   6.723 -0.6035  0.0311  0.1426
 8383SOL    HW227157  10.724   7.736   6.605  0.9402 -0.9619  1.2413
 8384SOL     OW27158   4.401   6.190   1.239 -0.1989  0.1241 -0.1912
 8384SOL    HW127159   4.337   6.253   1.271 -0.3403 -0.2452  0.2597
 8384SOL    HW227160   4.486   6.226   1.267 -0.3321 -0.2921  0.7815
 8385SOL     OW27161   1.284   8.210   5.267  0.2357 -0.5476  0.6105
 8385SOL    HW127162   1.238   8.192   5.349  0.5817  1.0600  1.1862
 8385SOL    HW227163   1.220   8.258   5.214  0.5965  0.0105  0.6664
 8386SOL     OW27164  10.588   0.072   1.655  0.1585  0.3062  0.3931
 8386SOL    HW127165  10.608   0.163   1.634  3.2478 -0.3734 -0.0572
 8386SOL    HW227166  10.516   0.049   1.596 -0.5751  2.3637  0.4099
 8387SOL     OW27167  10.079   0.087   0.211 -0.1481 -0.3441  0.2564
 8387SOL    HW127168   9.991   0.075   0.175 -0.4873 -1.3613  1.3884
 8387SOL    HW227169  10.134   0.028   0.159  0.1127  1.1478 -1.2357
 8388SOL     OW27170  10.172   3.415   9.268 -0.1400 -0.2759  0.2070
 8388SOL    HW127171  10.106   3.434   9.334  0.6633  0.3998  0.8333
 8388SOL    HW227172  10.158   3.480   9.200 -1.6642 -1.6326 -0.8452
 8389SOL     OW27173   7.528  10.702   9.278  0.6743  0.1807 -0.0588
 8389SOL    HW127174   7.566  10.633   9.224 -0.8018 -1.6101  1.0595
 8389SOL    HW227175   7.558  10.682   9.367  1.0346  1.6007  0.1591
 8390SOL     OW27176   1.324   6.279   0.448 -0.2995 -0.2276  0.3185
 8390SOL    HW127177   1.391   6.236   0.395 -0.5880  1.2643 -1.3558
 8390SOL    HW227178   1.363   6.363   0.472 -1.1167  0.1554  0.3402
 8391SOL     OW27179   6.724   9.303   1.497  0.3139 -0.0113  0.2497
 8391SOL    HW127180   6.648   9.272   1.546 -0.7860  2.3865  0.2331
 8391SOL    HW227181   6.799   9.265   1.542 -0.8365 -1.6682  0.8656
 8392SOL     OW27182   9.666   4.267   7.089  0.1946 -0.5148  0.0261
 8392SOL    HW127183   9.696   4.239   7.003  1.1369 -0.3575  0.2913
 8392SOL    HW227184   9.746   4.292   7.136 -0.4947  1.8392  0.0872
 8393SOL     OW27185   2.726   1.577   6.408  0.4433 -0.3563 -0.3983
 8393SOL    HW127186   2.744   1.495   6.452  1.6148 -0.4082 -0.9255
 8393SOL    HW227187   2.715   1.554   6.316  0.2840  0.0160 -0.4779
 8394SOL     OW27188   1.416   6.877   8.090 -0.3188 -0.0184  0.4240
 8394SOL    HW127189   1.474   6.823   8.144  0.3292  0.3942  0.1535
 8394SOL    HW227190   1.450   6.868   8.001 -0.3731  0.6093  0.3340
 8395SOL     OW27191   2.571  10.831   4.751  0.0790 -0.0656  0.4014
 8395SOL    HW127192   2.477  10.816   4.752  0.3047 -1.5838  0.2682
 8395SOL    HW227193   2.609  10.748   4.779  1.3846  0.4333  0.1606
 8396SOL     OW27194   2.356   5.167  10.997  0.4704 -0.0606  0.2453
 8396SOL    HW127195   2.291   5.131  10.937  0.8491 -2.1136  0.9815
 8396SOL    HW227196   2.392   5.243  10.951  0.3160 -1.1858 -1.8707
 8397SOL     OW27197   6.078   2.139   3.629 -0.0876 -1.1191  0.0031
 8397SOL    HW127198   6.118   2.221   3.655  1.7500 -1.4907 -1.4909
 8397SOL    HW227199   5.984   2.156   3.632  0.2093  0.4826  1.3669
 8398SOL     OW27200   3.970   9.730   1.817 -0.1878  0.2019 -0.0775
 8398SOL    HW127201   4.038   9.709   1.881 -0.4188 -1.1216 -0.2542
 8398SOL    HW227202   3.904   9.662   1.827 -1.0743  0.9585 -0.5404
 8399SOL     OW27203   1.678   3.756   7.857 -0.2469 -0.3480  0.0893
 8399SOL    HW127204   1.669   3.687   7.791  2.2497 -0.6082 -0.0917
 8399SOL    HW227205   1.738   3.720   7.922  0.4384  1.3303  0.4527
 8400SOL     OW27206   1.933   5.546   3.237 -0.4848  0.0120  0.6525
 8400SOL    HW127207   2.023   5.545   3.206 -0.5392  0.4001  0.4751
 8400SOL    HW227208   1.912   5.454   3.254 -0.3041 -0.1610 -0.0291
 8401SOL     OW27209   5.954   8.248   7.279 -0.0796  0.0802 -0.1790
 8401SOL    HW127210   5.989   8.318   7.225 -1.2311  0.7583 -0.0842
 8401SOL    HW227211   5.957   8.282   7.369 -2.6111  0.9529 -0.3271
 8402SOL     OW27212   7.738   9.403   4.078 -0.0425  0.1413 -0.0949
 8402SOL    HW127213   7.778   9.317   4.064  0.4157 -0.4333  3.5937
 8402SOL    HW227214   7.645   9.385   4.089 -0.0134  0.1859  0.2258
 8403SOL     OW27215   0.641   9.812   4.801 -0.2600  0.0010  0.4155
 8403SOL    HW127216   0.634   9.724   4.840  1.7075  0.6536  2.4510
 8403SOL    HW227217   0.596   9.869   4.862 -0.0824  0.6432 -0.0433
 8404SOL     OW27218   4.221   7.100  10.486  0.1233  0.1488  0.5905
 8404SOL    HW127219   4.224   7.013  10.525  1.3334  0.3507  0.9633
 8404SOL    HW227220   4.141   7.140  10.523 -0.9685 -1.1201 -0.3241
 8405SOL     OW27221   7.035   3.515   4.935  0.0348 -0.4067  0.0038
 8405SOL    HW127222   6.944   3.538   4.949 -0.0309 -1.1480  0.9196
 8405SOL    HW227223   7.033   3.444   4.870  0.0444  0.2975 -0.7754
 8406SOL     OW27224   2.555   2.556   5.599 -0.3234  0.1763  0.2255
 8406SOL    HW127225   2.628   2.608   5.634 -0.1913  0.4019 -0.3574
 8406SOL    HW227226   2.586   2.466   5.603 -0.6513  0.1095  1.4796
 8407SOL     OW27227   7.259   6.818   9.112  0.0106 -0.5248 -0.0906
 8407SOL    HW127228   7.271   6.907   9.146 -0.6749 -0.6777  0.5876
 8407SOL    HW227229   7.179   6.824   9.059 -1.3527 -1.2007  1.7836
 8408SOL     OW27230  10.209   0.837   9.189 -0.0649  0.2047  0.4979
 8408SOL    HW127231  10.127   0.872   9.156 -0.8428 -1.0767  0.9841
 8408SOL    HW227232  10.241   0.780   9.119 -0.7151 -0.9699  1.1130
 8409SOL     OW27233   8.407   0.907   1.832 -0.3421 -0.0739  0.0418
 8409SOL    HW127234   8.357   0.976   1.789 -0.5075 -0.1245  0.1513
 8409SOL    HW227235   8.394   0.923   1.925 -0.5360 -0.3630  0.0672
 8410SOL     OW27236   9.169   9.214   5.079  0.3514 -0.4865  0.2275
 8410SOL    HW127237   9.142   9.175   4.995 -0.0233 -0.2629  0.2432
 8410SOL    HW227238   9.093   9.203   5.136 -0.1645  1.2121 -0.0821
 8411SOL     OW27239   7.414   9.843  10.113 -0.0789 -0.6603 -0.1259
 8411SOL    HW127240   7.464   9.863  10.192 -0.9441 -0.6667  0.4444
 8411SOL    HW227241   7.424   9.749  10.101 -0.6298 -0.8054  0.4772
 8412SOL     OW27242   0.192   6.004   6.862 -0.4314  0.0579 -0.2785
 8412SOL    HW127243   0.138   5.971   6.790  2.6299  0.6549 -3.1122
 8412SOL    HW227244   0.183   6.099   6.857  1.6047  0.2493 -1.5884
 8413SOL     OW27245  10.220   2.367   1.136  0.4311 -0.7485  0.0239
 8413SOL    HW127246  10.293   2.426   1.154  0.6145 -1.2335  0.9061
 8413SOL    HW227247  10.257   2.299   1.079  0.4119 -0.4509 -0.3498
 8414SOL     OW27248   4.425   9.900   9.595  0.4021  0.0878  0.3445
 8414SOL    HW127249   4.395   9.870   9.681 -0.3125 -1.4412 -0.4014
 8414SOL    HW227250   4.353   9.956   9.563 -0.8536 -1.9432 -0.5789
 8415SOL     OW27251   4.300   8.256   7.644 -0.3539  0.4848 -0.8104
 8415SOL    HW127252   4.378   8.306   7.619 -0.6188  0.6238 -1.3741
 8415SOL    HW227253   4.313   8.236   7.737  0.6150  0.0280 -1.0378
 8416SOL     OW27254   2.845   8.177   5.556  0.1288  0.2139 -0.1612
 8416SOL    HW127255   2.867   8.086   5.533 -0.9085  0.4167 -2.1613
 8416SOL    HW227256   2.785   8.205   5.487 -0.7236  1.9615  1.2343
 8417SOL     OW27257   9.383   8.800   7.167  0.2108 -0.2162 -0.1229
 8417SOL    HW127258   9.471   8.835   7.183 -0.4365  1.3704  0.2006
 8417SOL    HW227259   9.380   8.719   7.218  1.0414  0.4034  0.9610
 8418SOL     OW27260   7.517   8.936   4.053  0.0701  0.2755  0.4852
 8418SOL    HW127261   7.461   8.975   4.120 -2.5540 -1.7933 -0.2625
 8418SOL    HW227262   7.598   8.914   4.098 -1.1168  0.1051  2.6722
 8419SOL     OW27263   3.181   7.398   1.234 -0.6701 -0.6264  0.4774
 8419SOL    HW127264   3.141   7.312   1.248  0.1073 -0.9323  0.8532
 8419SOL    HW227265   3.196   7.402   1.139 -1.9721 -0.3229  0.2568
 8420SOL     OW27266   1.547   5.598   1.866 -0.4665 -0.5725  0.3007
 8420SOL    HW127267   1.551   5.614   1.772  0.3391 -1.1048  0.2314
 8420SOL    HW227268   1.638   5.604   1.895 -0.8869  1.3260  1.3556
 8421SOL     OW27269  11.006   2.754   3.410  0.1219  0.4087 -0.1387
 8421SOL    HW127270  11.048   2.716   3.333 -0.3408  1.9670 -1.1909
 8421SOL    HW227271  11.007   2.683   3.475  0.6028 -0.9038 -1.5299
 8422SOL     OW27272   1.018   9.735   7.009 -0.0385 -0.0779  0.1695
 8422SOL    HW127273   0.968   9.676   7.066 -0.6686 -0.2920 -0.5910
 8422SOL    HW227274   1.071   9.787   7.070 -1.4821  0.4457  1.0479
 8423SOL     OW27275   1.242   1.457   6.167  0.0157  0.9480  0.5210
 8423SOL    HW127276   1.244   1.547   6.134 -0.0801  0.3752 -1.1588
 8423SOL    HW227277   1.201   1.407   6.096 -0.7627 -0.2832  1.7973
 8424SOL     OW27278   5.683   9.511   7.174  0.3115 -0.0711 -0.2126
 8424SOL    HW127279   5.675   9.441   7.109 -0.9675  0.4805 -0.6789
 8424SOL    HW227280   5.613   9.572   7.152  0.6630  0.7661  0.9160
 8425SOL     OW27281   0.875   3.076   9.106 -0.2505  0.2921 -0.0050
 8425SOL    HW127282   0.866   2.983   9.084  0.7907  0.8445 -3.3649
 8425SOL    HW227283   0.969   3.087   9.123 -0.5445  0.5481  1.5174
 8426SOL     OW27284  10.020   6.272   5.081  0.2226  0.6431 -0.2417
 8426SOL    HW127285  10.049   6.237   4.996 -0.8996 -0.6860 -0.1179
 8426SOL    HW227286   9.961   6.344   5.058 -0.0535  0.3090 -0.6049
 8427SOL     OW27287  10.750   4.345   1.214 -0.0237  0.1484  0.0737
 8427SOL    HW127288  10.762   4.321   1.122  0.8404 -0.5658  0.3612
 8427SOL    HW227289  10.672   4.401   1.214  1.3507  2.2024 -1.4274
 8428SOL     OW27290   5.038   3.683   2.251  0.2877 -0.5042 -0.4352
 8428SOL    HW127291   5.104   3.726   2.198  2.0919  0.0273  2.0548
 8428SOL    HW227292   5.076   3.680   2.339 -3.0819  0.0014  1.2017
 8429SOL     OW27293   9.796   8.712   5.858  0.0275  0.3879  0.4197
 8429SOL    HW127294   9.764   8.775   5.795  0.9645  0.0057 -0.4774
 8429SOL    HW227295   9.890   8.732   5.867 -0.0316  0.2724  1.5007
 8430SOL     OW27296   4.472   4.134   0.010 -0.4210 -0.0086  0.3709
 8430SOL    HW127297   4.494   4.223   0.038  0.9151 -0.4766  0.8921
 8430SOL    HW227298   4.447   4.088   0.090  0.5513 -0.5504  0.3813
 8431SOL     OW27299   8.871   2.312   2.864 -0.1251  0.4466 -0.1105
 8431SOL    HW127300   8.916   2.386   2.904 -0.4118  1.0033 -0.7958
 8431SOL    HW227301   8.797   2.293   2.923  1.0172 -0.5427  1.0801
 8432SOL     OW27302   1.338   7.898   7.554 -0.2131 -0.3180 -0.0548
 8432SOL    HW127303   1.424   7.879   7.591  1.7233  0.2188 -3.7548
 8432SOL    HW227304   1.293   7.814   7.555  1.2419 -1.1389 -0.0273
 8433SOL     OW27305  10.037   0.357   0.161  0.5601 -0.6116 -0.0159
 8433SOL    HW127306   9.949   0.391   0.177  1.3768  0.8365  1.9288
 8433SOL    HW227307  10.036   0.268   0.196  0.0017 -0.4309  0.4378
 8434SOL     OW27308   0.652   7.642   2.437 -0.2189  0.1377 -0.2011
 8434SOL    HW127309   0.603   7.598   2.367 -0.0803 -0.5738  0.1429
 8434SOL    HW227310   0.725   7.685   2.391 -0.2016 -0.2167 -0.5085
 8435SOL     OW27311   9.446   1.683   9.274  0.3806 -0.5674 -0.6804
 8435SOL    HW127312   9.424   1.590   9.279 -0.0764 -0.4606 -0.6517
 8435SOL    HW227313   9.408   1.722   9.353  0.4239 -0.3289 -0.7752
 8436SOL     OW27314   7.739   7.161   7.170  0.0528  0.2891 -0.5112
 8436SOL    HW127315   7.645   7.152   7.152  0.2130 -2.5581 -0.3733
 8436SOL    HW227316   7.748   7.132   7.261  1.1689 -0.4552 -0.8452
 8437SOL     OW27317   6.683   9.012   5.496 -0.3489 -0.7728  0.5893
 8437SOL    HW127318   6.730   9.056   5.566 -0.4035 -0.0592  0.1913
 8437SOL    HW227319   6.751   8.971   5.442  0.0262  1.7724 -1.0219
 8438SOL     OW27320   9.610   7.647   9.673  0.4983  0.1442  0.1627
 8438SOL    HW127321   9.593   7.700   9.595  0.0062  0.7799  0.6906
 8438SOL    HW227322   9.523   7.621   9.703  0.7290 -0.8207  0.0150
 8439SOL     OW27323   1.179  10.630   0.983  0.0973 -0.0976  0.2952
 8439SOL    HW127324   1.207  10.641   1.074 -0.8719 -0.2046  0.6138
 8439SOL    HW227325   1.104  10.570   0.987 -0.7823  0.9159 -0.4328
 8440SOL     OW27326   2.699   9.777   0.247  0.0622 -0.1235 -0.2645
 8440SOL    HW127327   2.708   9.862   0.204 -0.5488 -0.1310 -0.4275
 8440SOL    HW227328   2.777   9.728   0.221  0.4329  0.3978 -0.1464
 8441SOL     OW27329   2.784   2.463   5.107  0.3752  0.0334 -0.8558
 8441SOL    HW127330   2.841   2.536   5.083  0.5661 -0.0556 -0.6672
 8441SOL    HW227331   2.799   2.450   5.200 -0.1868  0.2169 -0.7308
 8442SOL     OW27332   8.270   4.149   2.387 -0.2709 -0.2986  0.2087
 8442SOL    HW127333   8.325   4.222   2.416 -1.2629  0.9630 -0.9844
 8442SOL    HW227334   8.204   4.140   2.456 -1.9798  1.9885 -0.9847
 8443SOL     OW27335  10.126   5.220  10.046 -0.0902  0.2583 -0.0913
 8443SOL    HW127336  10.053   5.233   9.985 -0.0422  0.5109 -0.0949
 8443SOL    HW227337  10.147   5.127  10.038  0.1733  0.3694 -0.7484
 8444SOL     OW27338   6.820   4.900   2.871  0.2731 -0.1298 -0.2045
 8444SOL    HW127339   6.807   4.982   2.918  1.5218 -0.8304  1.4734
 8444SOL    HW227340   6.735   4.880   2.833 -0.0074  2.0228 -0.8440
 8445SOL     OW27341   0.143   4.461   9.214  0.3610  0.3024  0.3078
 8445SOL    HW127342   0.180   4.494   9.296 -3.4625 -0.9620  2.8397
 8445SOL    HW227343   0.092   4.535   9.180  2.1071  0.8935 -1.1805
 8446SOL     OW27344   8.165   3.900   7.065 -0.9756 -0.1641 -0.8825
 8446SOL    HW127345   8.237   3.954   7.098 -1.7451  0.3991 -0.0739
 8446SOL    HW227346   8.188   3.811   7.093  0.0932 -0.2250 -1.8653
 8447SOL     OW27347   6.164   8.607   9.275 -0.5216 -0.2361 -0.3941
 8447SOL    HW127348   6.253   8.613   9.240 -0.6982  0.0752 -0.7906
 8447SOL    HW227349   6.176   8.603   9.370 -0.0299 -1.2166 -0.4793
 8448SOL     OW27350   5.954   7.431   1.901  0.0573  0.1888  0.1835
 8448SOL    HW127351   5.865   7.460   1.878 -0.8709 -1.8402  0.9542
 8448SOL    HW227352   5.957   7.440   1.997  0.2599 -0.8267  0.2772
 8449SOL     OW27353   6.338   3.417   8.852  0.0571 -0.1624 -0.2679
 8449SOL    HW127354   6.290   3.336   8.869  0.6053 -0.3381  0.4580
 8449SOL    HW227355   6.270   3.479   8.826 -0.5345 -0.4970  0.4486
 8450SOL     OW27356   2.593   2.180   5.451  0.4711  0.1621 -0.0631
 8450SOL    HW127357   2.635   2.116   5.394  0.1986  1.7263 -2.1535
 8450SOL    HW227358   2.523   2.217   5.397  0.6223  2.1971  1.0564
 8451SOL     OW27359   2.120   7.696   1.025 -0.3606  0.0363 -0.7074
 8451SOL    HW127360   2.084   7.615   0.988 -2.5220  1.2197 -1.3646
 8451SOL    HW227361   2.059   7.720   1.094  0.8937  0.5484  0.2595
 8452SOL     OW27362   3.924   5.592   1.880  0.4267 -0.4367  0.0787
 8452SOL    HW127363   4.006   5.641   1.888 -0.3962  0.7973  1.2887
 8452SOL    HW227364   3.859   5.658   1.856 -0.1143 -1.5296 -1.6668
 8453SOL     OW27365   8.622   6.209   7.770 -0.8379 -0.2335  0.2598
 8453SOL    HW127366   8.527   6.212   7.757 -0.8704  0.7187  0.5967
 8453SOL    HW227367   8.633   6.185   7.862 -0.8498  2.3774  1.0209
 8454SOL     OW27368   0.389  10.978   5.566  0.3206 -0.2881  0.2482
 8454SOL    HW127369   0.301  10.987   5.530  0.2620  2.4435  0.8259
 8454SOL    HW227370   0.423  10.898   5.526 -1.0202  0.6005 -3.0097
 8455SOL     OW27371   1.722   0.956   1.570 -0.3484  0.0490  0.2890
 8455SOL    HW127372   1.651   0.904   1.531 -0.0499 -1.5934  1.7708
 8455SOL    HW227373   1.770   0.893   1.624 -0.0194  1.9262  2.3076
 8456SOL     OW27374   5.138   0.333   0.319  0.0931 -0.3661 -0.1446
 8456SOL    HW127375   5.083   0.374   0.252  0.6121  1.1300  0.3044
 8456SOL    HW227376   5.075   0.288   0.376 -0.6944  1.1834  0.2719
 8457SOL     OW27377   2.247   5.230   8.688 -0.2645 -0.5874  0.0438
 8457SOL    HW127378   2.163   5.222   8.643 -0.8492 -0.2758  1.0380
 8457SOL    HW227379   2.312   5.234   8.618 -1.2246  0.9151 -0.7946
 8458SOL     OW27380   3.490   3.211   6.634 -0.2474  0.6938 -0.1083
 8458SOL    HW127381   3.471   3.225   6.726 -0.9963 -0.5070 -0.0676
 8458SOL    HW227382   3.538   3.290   6.607  0.9640  0.5613  1.5610
 8459SOL     OW27383   3.386   5.685   3.437  0.0586  0.1263 -0.0820
 8459SOL    HW127384   3.424   5.689   3.350  0.1391 -0.3474 -0.0756
 8459SOL    HW227385   3.336   5.603   3.437  2.0156 -1.1671  1.0737
 8460SOL     OW27386   0.199   8.411   1.309  0.1823 -0.4242 -0.2296
 8460SOL    HW127387   0.227   8.329   1.348 -0.8190 -0.4714  0.4535
 8460SOL    HW227388   0.280   8.459   1.291  0.7515 -1.3572 -0.2013
 8461SOL     OW27389   0.801   3.531   1.219  0.5617 -0.3744 -0.0180
 8461SOL    HW127390   0.764   3.500   1.302  1.3518 -1.3200  0.0103
 8461SOL    HW227391   0.857   3.605   1.244  0.3786 -0.3172  0.2239
 8462SOL     OW27392   0.932   2.247   0.825 -0.3601 -0.0109  0.1707
 8462SOL    HW127393   1.003   2.281   0.771  0.5600 -0.2459  1.1842
 8462SOL    HW227394   0.856   2.300   0.802 -0.2688 -0.7284 -2.0301
 8463SOL     OW27395   7.740  10.096   2.869  0.2152  0.2382 -0.3906
 8463SOL    HW127396   7.805  10.040   2.913  0.9061  1.1528 -0.2144
 8463SOL    HW227397   7.784  10.180   2.859 -1.1041  1.0332  0.1624
 8464SOL     OW27398   4.457   7.903   3.756  0.2484 -0.1297  0.8063
 8464SOL    HW127399   4.507   7.932   3.680  1.5297  0.7223  1.9156
 8464SOL    HW227400   4.437   7.984   3.804  0.4954 -0.7188  1.9579
 8465SOL     OW27401   4.102   3.774   2.665 -0.0607  0.5520  0.2507
 8465SOL    HW127402   4.165   3.723   2.615  0.0341 -1.8255  2.5614
 8465SOL    HW227403   4.020   3.765   2.616  0.7560  1.4096 -1.3513
 8466SOL     OW27404   4.188   2.625   1.560 -0.3550 -0.4761  0.5869
 8466SOL    HW127405   4.254   2.652   1.624 -0.2732 -0.1754  0.3790
 8466SOL    HW227406   4.116   2.687   1.571 -0.2632 -0.3084  0.2617
 8467SOL     OW27407   8.967   6.199   4.021 -0.8772  0.1619  0.4403
 8467SOL    HW127408   8.883   6.159   3.997 -0.3654 -0.8203  0.2673
 8467SOL    HW227409   8.942   6.271   4.079 -1.8518 -0.0432  0.3060
 8468SOL     OW27410   1.184   5.009   6.187 -0.7210 -0.3038 -0.5837
 8468SOL    HW127411   1.118   5.073   6.161 -0.2473  0.9094  1.0663
 8468SOL    HW227412   1.203   5.029   6.278  1.7822 -0.7297 -0.9334
 8469SOL     OW27413   6.939   2.590   5.732  0.2075  0.0369  0.2170
 8469SOL    HW127414   6.857   2.584   5.684  1.0910 -0.7294 -1.2544
 8469SOL    HW227415   6.980   2.670   5.699  1.3538 -1.1008 -1.2529
 8470SOL     OW27416   9.696   9.706   3.742  0.0725 -0.0547  0.4790
 8470SOL    HW127417   9.734   9.675   3.824  0.5375 -0.2524  0.1953
 8470SOL    HW227418   9.602   9.695   3.753  0.1574 -0.4200  0.8461
 8471SOL     OW27419   0.178   0.122  10.848 -0.3670  0.4042  0.8715
 8471SOL    HW127420   0.220   0.172  10.779  1.8625 -0.6864  1.3640
 8471SOL    HW227421   0.093   0.164  10.859  0.2869  2.2692 -0.6662
 8472SOL     OW27422  10.731   7.973  10.443  0.5427  0.0304 -0.1913
 8472SOL    HW127423  10.708   8.015  10.526 -1.3110 -0.8197 -0.2155
 8472SOL    HW227424  10.805   7.916  10.464  0.4574  0.2549  0.7464
 8473SOL     OW27425   6.869   3.264   6.354 -0.0909 -0.0457 -0.0117
 8473SOL    HW127426   6.827   3.286   6.271  0.6505  2.1108  0.1423
 8473SOL    HW227427   6.962   3.281   6.339  0.1892 -0.6723  0.9463
 8474SOL     OW27428   0.846   5.855  10.203  0.0284  0.6009  0.2439
 8474SOL    HW127429   0.788   5.782  10.227 -0.3950 -0.0455 -2.4783
 8474SOL    HW227430   0.927   5.814  10.174 -0.1411  1.1806 -1.1326
 8475SOL     OW27431   9.390   3.381   8.068  0.4727  0.2795 -0.2753
 8475SOL    HW127432   9.353   3.373   8.156  0.1711 -1.6292 -0.5493
 8475SOL    HW227433   9.425   3.470   8.066 -1.0598  0.9720  1.1642
 8476SOL     OW27434   5.588   5.278   7.814 -0.2196  0.0317  0.7448
 8476SOL    HW127435   5.628   5.363   7.795  0.4899 -0.7090 -1.2774
 8476SOL    HW227436   5.640   5.243   7.887  0.0532  0.9181  0.9933
 8477SOL     OW27437   3.474   5.058   1.941  0.5790 -0.3070  0.2714
 8477SOL    HW127438   3.546   5.108   1.982 -1.0329  0.6911  2.0526
 8477SOL    HW227439   3.417   5.035   2.014 -1.5231 -0.0351 -1.2161
 8478SOL     OW27440   2.690  10.836   6.570 -0.0763  0.2379 -0.2498
 8478SOL    HW127441   2.698  10.851   6.476  2.8864  0.7349 -0.0178
 8478SOL    HW227442   2.711  10.921   6.610 -0.8288 -0.0874  0.8891
 8479SOL     OW27443   1.490   2.836   7.595  0.7336 -0.0754 -0.6338
 8479SOL    HW127444   1.472   2.826   7.501  2.5640 -1.0569 -0.9263
 8479SOL    HW227445   1.586   2.831   7.601  0.6557  0.1879  1.2787
 8480SOL     OW27446   2.996   0.321   2.792 -0.0204 -0.2769 -0.1523
 8480SOL    HW127447   3.026   0.261   2.861  0.4208 -0.8081 -0.7969
 8480SOL    HW227448   3.071   0.329   2.733 -0.4028  0.1525 -0.5919
 8481SOL     OW27449   2.460   5.792   6.120  0.5326 -0.4689  0.5262
 8481SOL    HW127450   2.386   5.743   6.157  1.8715 -0.5481  3.4117
 8481SOL    HW227451   2.538   5.752   6.160  2.2412 -0.4541 -2.4422
 8482SOL     OW27452   9.369   9.580  10.215 -0.0569  0.5176  0.5492
 8482SOL    HW127453   9.356   9.546  10.303  1.5097 -1.7452 -0.0152
 8482SOL    HW227454   9.291   9.634  10.198 -1.4217 -0.7235  2.4928
 8483SOL     OW27455   8.478   1.214  10.972  0.0507  0.6708  0.2089
 8483SOL    HW127456   8.427   1.139  10.941  1.5153  0.0417 -0.7959
 8483SOL    HW227457   8.424   1.253  11.040 -1.9522  0.2884 -1.0625
 8484SOL     OW27458   0.987   8.004   2.442 -0.5071 -0.8580  0.2673
 8484SOL    HW127459   1.050   8.037   2.378  0.5874  0.9459  2.1828
 8484SOL    HW227460   1.036   7.999   2.524 -2.9661  1.2066  1.9931
 8485SOL     OW27461   2.441   3.141   3.544 -0.4935  0.2594 -0.1241
 8485SOL    HW127462   2.399   3.056   3.559 -0.7450  0.4630  0.3800
 8485SOL    HW227463   2.373   3.195   3.504  0.1640 -0.2641 -2.0283
 8486SOL     OW27464   0.346   5.201   3.669 -0.0619  0.2245 -0.1219
 8486SOL    HW127465   0.351   5.257   3.746 -0.9618  0.5375 -0.2820
 8486SOL    HW227466   0.409   5.239   3.608  0.3165  0.2496  0.2711
 8487SOL     OW27467   5.181   2.885   4.964  0.0924 -0.0146 -0.1178
 8487SOL    HW127468   5.138   2.804   4.993 -0.7697  0.1055 -1.0127
 8487SOL    HW227469   5.258   2.892   5.020 -0.8892 -0.3804  1.3498
 8488SOL     OW27470   8.581   7.579   7.507 -0.5096 -0.0514 -0.4756
 8488SOL    HW127471   8.488   7.595   7.522 -0.0644  1.5754  0.9094
 8488SOL    HW227472   8.600   7.622   7.424 -1.1539 -1.1117 -1.1785
 8489SOL     OW27473   2.828   8.402   7.881  0.3646  0.3188 -0.3797
 8489SOL    HW127474   2.852   8.481   7.928  0.2448 -0.3431  0.8323
 8489SOL    HW227475   2.885   8.402   7.804  0.1570  1.7165 -0.5650
 8490SOL     OW27476   8.481   7.515   3.887  0.8774 -0.3693 -0.6884
 8490SOL    HW127477   8.492   7.424   3.913  2.7929 -0.2470 -0.9654
 8490SOL    HW227478   8.526   7.522   3.803  0.4797  0.7684 -0.8259
 8491SOL     OW27479   8.309   8.975   4.286 -0.0773 -0.3252 -0.1320
 8491SOL    HW127480   8.283   8.884   4.269 -0.5321 -0.2901  0.3412
 8491SOL    HW227481   8.314   9.015   4.200  3.0674 -1.5518 -0.6691
 8492SOL     OW27482  10.334   1.513   1.714  0.0702 -0.0325  0.0096
 8492SOL    HW127483  10.347   1.580   1.781  1.3773 -0.6541  0.4222
 8492SOL    HW227484  10.319   1.562   1.633  1.9459  0.8036  0.1243
 8493SOL     OW27485   4.695   0.713   6.566  0.4000 -0.7496 -0.1342
 8493SOL    HW127486   4.775   0.767   6.566  0.8251 -1.3684  0.5747
 8493SOL    HW227487   4.650   0.738   6.485 -0.2382  1.8613  0.9299
 8494SOL     OW27488   7.905   1.431   0.916 -0.2811 -0.0660  0.1260
 8494SOL    HW127489   7.838   1.459   0.978 -0.7249 -0.7054 -0.0544
 8494SOL    HW227490   7.867   1.449   0.830 -0.2594 -0.5106  0.0205
 8495SOL     OW27491   7.067   0.646   6.789 -0.3219 -0.7036 -0.0717
 8495SOL    HW127492   7.087   0.657   6.882 -0.8941  0.4001 -0.0632
 8495SOL    HW227493   7.018   0.563   6.784 -0.5427 -0.6208  0.6560
 8496SOL     OW27494   2.001   1.428   2.268 -0.3180 -0.6909 -0.0402
 8496SOL    HW127495   2.068   1.451   2.333 -1.0798  0.3733  0.3892
 8496SOL    HW227496   2.023   1.480   2.191 -0.2244 -0.9146 -0.1679
 8497SOL     OW27497   8.613   5.481   3.987 -0.2397 -0.4602  0.0092
 8497SOL    HW127498   8.707   5.487   3.969 -0.4716  0.7651 -0.9219
 8497SOL    HW227499   8.586   5.398   3.948  0.6919 -1.5177  1.5225
 8498SOL     OW27500   3.128   1.842   0.905 -0.4014 -0.3392  0.3198
 8498SOL    HW127501   3.102   1.756   0.873 -0.7590 -0.2648  0.4077
 8498SOL    HW227502   3.156   1.826   0.996  0.8232 -0.5874 -0.0752
 8499SOL     OW27503   6.239   5.094  10.271  0.6699  0.2031 -0.3153
 8499SOL    HW127504   6.268   5.178  10.306  1.7667 -0.2222 -0.1496
 8499SOL    HW227505   6.236   5.107  10.177  0.6262  0.4802 -0.2779
 8500SOL     OW27506   7.575  10.793   3.528 -0.0142  0.0708  0.3054
 8500SOL    HW127507   7.558  10.881   3.561  2.3934  0.0251  1.8807
 8500SOL    HW227508   7.505  10.777   3.465 -0.9788  2.7817  0.5803
 8501SOL     OW27509   8.222   5.351   2.749 -0.5762 -0.0123 -0.0704
 8501SOL    HW127510   8.212   5.292   2.824 -0.6336 -0.5480 -0.4893
 8501SOL    HW227511   8.313   5.342   2.723 -0.0462  1.5863  1.0639
 8502SOL     OW27512   6.003   3.253   4.744  0.1177  0.5408  0.8562
 8502SOL    HW127513   5.967   3.167   4.723  1.5838  0.3811 -1.2872
 8502SOL    HW227514   5.926   3.310   4.749 -0.6814 -0.4040 -0.2384
 8503SOL     OW27515   0.472   3.855   2.830  0.2959  0.4997  0.4281
 8503SOL    HW127516   0.377   3.855   2.820  0.1058 -1.2132  1.8347
 8503SOL    HW227517   0.503   3.791   2.766  0.5170  1.0294 -0.0032
 8504SOL     OW27518   8.229   9.324   0.892 -0.7870  0.5050 -0.0559
 8504SOL    HW127519   8.242   9.286   0.979 -2.1320  1.9536  0.8456
 8504SOL    HW227520   8.174   9.261   0.846 -1.4541  0.4730  0.7497
 8505SOL     OW27521   7.022   6.917   5.567 -0.1032  0.2626 -0.2071
 8505SOL    HW127522   6.950   6.958   5.519 -0.9004  0.2901  0.9784
 8505SOL    HW227523   7.062   6.989   5.616  0.9055  0.2942 -1.0230
 8506SOL     OW27524   9.862   9.824   7.715  0.3104  0.3857 -0.4393
 8506SOL    HW127525   9.914   9.786   7.786  1.0015  2.1027  0.0262
 8506SOL    HW227526   9.790   9.869   7.759  0.1047  0.5148 -0.8989
 8507SOL     OW27527   5.609   5.768   1.359  0.5964 -0.7332 -0.1558
 8507SOL    HW127528   5.613   5.815   1.442 -0.0289 -0.8932 -0.0326
 8507SOL    HW227529   5.614   5.676   1.383 -2.7140 -0.9725  0.0005
 8508SOL     OW27530   3.792   0.515   5.153 -0.6174  0.0409  0.3116
 8508SOL    HW127531   3.788   0.561   5.236 -2.0681  0.4168  0.0537
 8508SOL    HW227532   3.706   0.474   5.144 -0.8914  0.9173 -1.5066
 8509SOL     OW27533   0.191   0.162   1.564 -0.2245  0.2390 -0.1621
 8509SOL    HW127534   0.221   0.072   1.570  1.1996  0.6929  0.0866
 8509SOL    HW227535   0.231   0.195   1.483 -0.0593  0.8615  0.1664
 8510SOL     OW27536  10.136   6.738   4.768  0.2278 -0.3316  0.1969
 8510SOL    HW127537  10.145   6.675   4.840  0.9853 -1.2745 -0.6885
 8510SOL    HW227538  10.159   6.822   4.806  1.4771 -0.9478  0.8527
 8511SOL     OW27539   8.566   9.196   0.806  0.4552  0.1398 -0.0588
 8511SOL    HW127540   8.533   9.279   0.770  1.1894  1.0995  1.3967
 8511SOL    HW227541   8.554   9.205   0.901 -0.9587 -2.1010  0.0501
 8512SOL     OW27542   9.791   5.309   9.228 -0.2700 -0.0251  0.0365
 8512SOL    HW127543   9.828   5.224   9.204  0.4442  0.3969 -0.3849
 8512SOL    HW227544   9.710   5.315   9.177  1.3269  0.9556 -2.6119
 8513SOL     OW27545   3.246   9.244   8.512  0.0637 -0.1921 -0.3025
 8513SOL    HW127546   3.265   9.227   8.420  1.0642  1.6064 -0.4839
 8513SOL    HW227547   3.297   9.323   8.533 -0.5065 -0.2850  1.6630
 8514SOL     OW27548   7.141   1.569   7.005  0.4491 -0.2140  0.5781
 8514SOL    HW127549   7.081   1.598   6.937 -0.1159 -1.2055  0.6251
 8514SOL    HW227550   7.093   1.582   7.087  0.6204 -0.2335  0.6837
 8515SOL     OW27551   6.604   9.860   5.701  0.0993  0.2243 -0.2326
 8515SOL    HW127552   6.562   9.931   5.749 -0.2643  1.2089 -1.9255
 8515SOL    HW227553   6.697   9.877   5.709  0.0021  1.2478 -1.1010
 8516SOL     OW27554   3.220  10.151   8.837  0.3486  0.6968  0.2824
 8516SOL    HW127555   3.232  10.210   8.911 -3.0705  0.8692  0.8801
 8516SOL    HW227556   3.141  10.102   8.858  0.9852 -1.4868 -1.9032
 8517SOL     OW27557   9.221   1.153   3.820  0.4275 -0.3436 -0.1760
 8517SOL    HW127558   9.215   1.245   3.796  0.2840 -0.4176 -0.4299
 8517SOL    HW227559   9.208   1.106   3.738  1.0451 -0.5843 -0.1423
 8518SOL     OW27560   4.825   4.233   0.685  0.2738 -0.5976 -0.2397
 8518SOL    HW127561   4.805   4.157   0.632 -0.0093 -1.6691  1.3260
 8518SOL    HW227562   4.749   4.290   0.677  0.6067 -0.3293 -1.6407
 8519SOL     OW27563   3.773   9.125   2.175  0.5777  0.2002 -0.4568
 8519SOL    HW127564   3.843   9.061   2.192 -0.3486 -0.7858 -0.2745
 8519SOL    HW227565   3.703   9.075   2.135 -1.2019  0.5180  1.9940
 8520SOL     OW27566   4.286   6.718   4.619 -0.4769  0.3273  0.0144
 8520SOL    HW127567   4.303   6.727   4.526  1.2630 -1.1842  0.1193
 8520SOL    HW227568   4.195   6.746   4.630 -0.8764  0.0737 -2.1983
 8521SOL     OW27569  10.195   0.787   2.701  0.1128 -0.5230  0.2088
 8521SOL    HW127570  10.173   0.694   2.698  0.7423 -0.6568 -0.4677
 8521SOL    HW227571  10.174   0.819   2.613 -0.1712 -0.0049  0.4614
 8522SOL     OW27572   1.944   2.665   1.989 -0.1500 -0.1949  0.1028
 8522SOL    HW127573   1.873   2.611   1.953 -1.1186  0.4131  1.0778
 8522SOL    HW227574   1.900   2.736   2.034  1.0704 -0.2311  1.4028
 8523SOL     OW27575   6.269   7.955   6.172  0.1572  0.1522  0.0116
 8523SOL    HW127576   6.205   7.949   6.101  0.0733  0.8887  0.0253
 8523SOL    HW227577   6.220   7.993   6.246  0.0121 -1.3831  0.7557
 8524SOL     OW27578  10.994   4.573  10.557 -0.4056 -0.0992  0.0823
 8524SOL    HW127579  10.934   4.584  10.631 -0.3339 -0.3626  0.1794
 8524SOL    HW227580  10.989   4.480  10.535 -0.6310  0.0329 -0.4173
 8525SOL     OW27581   0.718   1.290   2.999  0.0883  0.0495 -0.7986
 8525SOL    HW127582   0.680   1.324   2.919  1.3317  2.0396 -0.5903
 8525SOL    HW227583   0.798   1.246   2.972 -0.0946 -0.3206 -0.7544
 8526SOL     OW27584   3.820   4.959   9.085  0.0074  0.2661  0.5050
 8526SOL    HW127585   3.825   4.920   8.998  2.1053  0.4803  0.4789
 8526SOL    HW227586   3.781   5.045   9.071 -1.4937 -0.4656  0.0799
 8527SOL     OW27587   5.517  10.239   3.285 -0.9261  0.1380  0.4233
 8527SOL    HW127588   5.490  10.214   3.374 -0.2337  0.1577  0.6499
 8527SOL    HW227589   5.504  10.161   3.232  0.7407 -0.5854  1.0161
 8528SOL     OW27590   1.053  10.487   1.454  0.0207 -0.7323 -0.1728
 8528SOL    HW127591   1.038  10.399   1.490 -3.7832 -1.0536 -2.1175
 8528SOL    HW227592   0.967  10.529   1.458  0.9924  1.6627 -2.4517
 8529SOL     OW27593   0.854   3.771  10.653  0.5429 -0.3187 -0.4541
 8529SOL    HW127594   0.844   3.824  10.575 -1.2244  0.1997  0.0601
 8529SOL    HW227595   0.821   3.826  10.724  2.1069 -0.7680  0.6859
 8530SOL     OW27596   7.070   2.347   4.303 -0.0101 -0.1125 -0.0948
 8530SOL    HW127597   7.012   2.342   4.379 -0.9344  0.6928 -0.7218
 8530SOL    HW227598   7.029   2.291   4.237  0.4323 -0.2899 -0.2228
 8531SOL     OW27599   5.716   9.401   0.936 -0.0095  0.2809 -0.2146
 8531SOL    HW127600   5.756   9.462   0.998  0.1615  1.7226 -1.6771
 8531SOL    HW227601   5.736   9.438   0.850 -0.3655 -1.5770 -1.1406
 8532SOL     OW27602   0.955  10.560   5.548  0.0909 -0.2172  0.1794
 8532SOL    HW127603   0.934  10.481   5.598  0.9110 -0.3240  0.3716
 8532SOL    HW227604   0.939  10.632   5.609  0.2357 -0.2930  0.3065
 8533SOL     OW27605   6.150   8.452  10.572  0.3446  0.7097 -0.4225
 8533SOL    HW127606   6.058   8.475  10.574  0.5326  1.4755 -0.4811
 8533SOL    HW227607   6.175   8.441  10.664 -0.0020 -0.3570 -0.4352
 8534SOL     OW27608  10.445  10.576   5.823  0.4686  0.7296 -0.5122
 8534SOL    HW127609  10.368  10.546   5.872  1.5741  1.0679  1.5835
 8534SOL    HW227610  10.410  10.631   5.753 -1.2249  0.0745 -0.2230
 8535SOL     OW27611   9.751   8.060   5.394 -0.5869  0.1438  1.0640
 8535SOL    HW127612   9.843   8.086   5.391 -1.4273  3.6961 -1.4487
 8535SOL    HW227613   9.727   8.046   5.302 -2.5417 -0.6940  1.6463
 8536SOL     OW27614   6.893   4.742   5.403  0.4505 -0.1565 -0.6305
 8536SOL    HW127615   6.885   4.706   5.491 -1.0913  1.4104 -0.0620
 8536SOL    HW227616   6.981   4.719   5.375  1.3744  0.2356  1.7502
 8537SOL     OW27617   0.675   8.903   7.755  0.2673 -0.5416 -0.3531
 8537SOL    HW127618   0.724   8.851   7.692 -0.2310 -3.0870  1.1943
 8537SOL    HW227619   0.597   8.932   7.708  1.3471  0.2850 -1.7187
 8538SOL     OW27620   3.392   2.142   4.358 -0.0569 -0.3469  0.0100
 8538SOL    HW127621   3.391   2.060   4.309  0.4269 -0.5608  0.3520
 8538SOL    HW227622   3.356   2.207   4.298  0.8529 -0.5295 -0.7523
 8539SOL     OW27623   6.548   6.014   7.875  0.5384 -0.1636 -0.1663
 8539SOL    HW127624   6.621   6.062   7.836 -0.1711  0.4939 -0.7076
 8539SOL    HW227625   6.549   6.039   7.967  0.2335  0.8319 -0.4222
 8540SOL     OW27626  10.459   2.167   1.620 -0.9238  0.0465  0.0933
 8540SOL    HW127627  10.400   2.122   1.559 -2.3502 -0.1818  1.5628
 8540SOL    HW227628  10.518   2.098   1.651 -0.4590  0.0789 -0.6894
 8541SOL     OW27629   4.635   2.442   1.150 -0.3345 -0.0681 -0.3758
 8541SOL    HW127630   4.577   2.414   1.079  1.8675 -1.9229 -1.5471
 8541SOL    HW227631   4.670   2.361   1.186 -0.0123  0.9317  1.6948
 8542SOL     OW27632   9.781   2.336   0.236 -0.1327 -0.2544 -0.2864
 8542SOL    HW127633   9.855   2.277   0.250 -0.9989 -1.6350 -1.2116
 8542SOL    HW227634   9.814   2.423   0.261  0.9382 -1.2137  1.9585
 8543SOL     OW27635   1.060   9.496   6.404  0.3494  0.2017 -0.2183
 8543SOL    HW127636   1.097   9.495   6.316  0.9127 -2.1290 -0.0325
 8543SOL    HW227637   1.016   9.411   6.412 -0.4521  0.7295  1.4471
 8544SOL     OW27638   5.542   6.715   3.943  0.2294  0.0968 -0.1913
 8544SOL    HW127639   5.462   6.669   3.917 -1.1561  0.8975  2.3567
 8544SOL    HW227640   5.533   6.801   3.903 -0.1766  0.1727  0.0563
 8545SOL     OW27641   3.088   3.805   9.892 -0.3100  0.3136 -0.2028
 8545SOL    HW127642   3.111   3.857   9.815 -1.1793  1.7867  0.4764
 8545SOL    HW227643   3.171   3.770   9.923  0.5180  2.3495  0.0223
 8546SOL     OW27644   3.781   0.496   1.977 -0.0822 -0.1809 -0.0916
 8546SOL    HW127645   3.765   0.550   1.900 -0.8060 -1.2623 -0.7337
 8546SOL    HW227646   3.773   0.406   1.946  1.7802 -0.7062  0.7986
 8547SOL     OW27647   8.075   9.328   0.164 -0.2758  0.1321  0.2941
 8547SOL    HW127648   8.132   9.365   0.096  1.6284  0.4684  1.9903
 8547SOL    HW227649   8.135   9.292   0.229 -2.0126  0.4317  2.1499
 8548SOL     OW27650   5.464   8.220  10.063 -0.1946 -0.4358 -0.4050
 8548SOL    HW127651   5.505   8.147  10.108 -0.5291  0.4903  1.4904
 8548SOL    HW227652   5.535   8.283  10.049 -0.4092 -0.0077  0.3804
 8549SOL     OW27653   1.519   2.061   3.871 -0.3003  0.0815 -0.3064
 8549SOL    HW127654   1.467   2.136   3.843  1.9159  0.8778 -2.6139
 8549SOL    HW227655   1.546   2.082   3.960  0.8720  2.4241 -1.1501
 8550SOL     OW27656   6.315   2.665   3.477 -0.6952  0.2349 -0.0296
 8550SOL    HW127657   6.238   2.658   3.534  0.1611 -2.0453  0.9741
 8550SOL    HW227658   6.315   2.584   3.426 -1.4688  2.2226 -3.5215
 8551SOL     OW27659   0.100   3.001  10.117  0.0754  0.3496  0.0421
 8551SOL    HW127660   0.173   2.969  10.170  0.2334  1.0609  0.2687
 8551SOL    HW227661   0.067   2.924  10.072 -0.3600 -0.3661  1.5301
 8552SOL     OW27662   7.156   8.681   7.469  0.0177  0.1399 -0.3311
 8552SOL    HW127663   7.101   8.603   7.474  0.5863 -0.2192  0.8992
 8552SOL    HW227664   7.232   8.660   7.523 -0.2797  1.9245  0.8795
 8553SOL     OW27665   1.260   6.997  10.681  0.2285  0.0259  0.1249
 8553SOL    HW127666   1.197   7.017  10.612  0.0832 -0.2761  0.1646
 8553SOL    HW227667   1.331   6.951  10.635  0.0806 -0.2722  0.1909
 8554SOL     OW27668   6.270   5.403   0.201 -0.0571  0.2101 -0.2168
 8554SOL    HW127669   6.222   5.343   0.144  1.4012 -0.4268 -0.8111
 8554SOL    HW227670   6.261   5.488   0.159 -1.6813  0.3523  0.3446
 8555SOL     OW27671   7.970   4.710   2.398  0.1799  0.5240 -0.0780
 8555SOL    HW127672   8.017   4.739   2.320  1.3230 -0.4338  0.2095
 8555SOL    HW227673   8.025   4.738   2.471  1.2364 -2.0012  0.2161
 8556SOL     OW27674   3.356   2.637   1.084 -0.2599  0.0174 -0.1579
 8556SOL    HW127675   3.361   2.661   0.991 -0.3764  0.5656 -0.0293
 8556SOL    HW227676   3.439   2.594   1.102 -0.0224  0.3629 -0.3948
 8557SOL     OW27677   1.134   7.310   6.634  0.6042  0.3180 -0.0580
 8557SOL    HW127678   1.072   7.342   6.569  1.1757 -1.0741 -1.3359
 8557SOL    HW227679   1.215   7.358   6.614  0.8585 -0.3186 -0.5641
 8558SOL     OW27680   2.958   4.254   1.927 -0.6725  0.2462  0.2097
 8558SOL    HW127681   3.003   4.259   2.011 -0.9830  2.0904  0.2933
 8558SOL    HW227682   2.865   4.249   1.950 -0.7641  0.8429 -0.0260
 8559SOL     OW27683   1.162   3.108   0.145 -0.0005 -0.0404 -0.4361
 8559SOL    HW127684   1.126   3.186   0.188 -2.0042 -2.5944  3.0121
 8559SOL    HW227685   1.091   3.078   0.088 -0.4999 -1.0524  0.7000
 8560SOL     OW27686   0.527   7.533   3.367  0.0109 -0.4478  0.5423
 8560SOL    HW127687   0.434   7.544   3.387 -0.1707 -0.3933 -0.3176
 8560SOL    HW227688   0.571   7.594   3.427 -0.5591  0.1263  0.3807
 8561SOL     OW27689   8.763   3.455   7.377  0.0110 -0.2992  0.1354
 8561SOL    HW127690   8.749   3.370   7.335 -1.7233 -0.1465  0.3516
 8561SOL    HW227691   8.762   3.436   7.471 -0.7757 -0.0056  0.1951
 8562SOL     OW27692   1.271   5.662   6.892  0.5790  0.3332  0.4856
 8562SOL    HW127693   1.194   5.690   6.843  0.2356 -0.8119  0.3483
 8562SOL    HW227694   1.345   5.690   6.839  0.2507  0.8737  0.3067
 8563SOL     OW27695   3.471   7.357   1.308  0.3531  0.3577 -0.1677
 8563SOL    HW127696   3.384   7.396   1.317 -0.2287 -0.7883 -0.5501
 8563SOL    HW227697   3.498   7.377   1.219  1.6108  2.8472  0.6755
 8564SOL     OW27698   2.837   2.754   8.959  0.3052  0.4442 -0.2567
 8564SOL    HW127699   2.752   2.720   8.984 -0.5379  1.6576 -1.3485
 8564SOL    HW227700   2.885   2.679   8.926 -0.7709 -0.0541 -0.7236
 8565SOL     OW27701   9.967   4.420   6.017  0.1939  0.2682 -0.8987
 8565SOL    HW127702  10.047   4.462   6.049 -0.4906  0.4514  0.6927
 8565SOL    HW227703   9.997   4.358   5.951  1.5016  1.3247 -1.3543
 8566SOL     OW27704   9.610   0.031   8.828  0.2358 -0.2894 -0.0302
 8566SOL    HW127705   9.612   0.087   8.751 -0.8129 -0.3579 -0.1183
 8566SOL    HW227706   9.597  -0.058   8.793  2.5930 -0.7311  0.0557
 8567SOL     OW27707   3.667   6.402   5.467 -0.0851  0.1935  0.0611
 8567SOL    HW127708   3.716   6.395   5.385  0.2316 -0.6030  0.3060
 8567SOL    HW227709   3.725   6.364   5.533 -0.6076  0.2162  0.5380
 8568SOL     OW27710   8.107   5.190   4.571 -0.2313  0.0842 -0.0532
 8568SOL    HW127711   8.092   5.110   4.621  0.0759  0.3805  0.5182
 8568SOL    HW227712   8.201   5.192   4.555 -0.5041 -0.9414 -2.2523
 8569SOL     OW27713   4.541   7.564   9.757  0.5667 -0.3565  0.0248
 8569SOL    HW127714   4.581   7.477   9.764 -0.0207 -0.5395  1.4856
 8569SOL    HW227715   4.470   7.553   9.694  0.5338 -0.9108  0.1593
 8570SOL     OW27716   4.032   7.228   3.059 -0.2662  0.0007 -0.1474
 8570SOL    HW127717   4.036   7.133   3.069  0.7135 -0.1857 -1.9098
 8570SOL    HW227718   3.960   7.243   2.997 -1.3392  0.5337  1.1881
 8571SOL     OW27719   1.552   0.781   9.456  0.3509  0.0558 -0.1097
 8571SOL    HW127720   1.642   0.812   9.463  0.5732 -0.3308 -1.1325
 8571SOL    HW227721   1.511   0.808   9.538  2.0426 -1.9580  1.5228
 8572SOL     OW27722   1.165   2.966   0.383 -0.0553  0.0844  0.3448
 8572SOL    HW127723   1.179   3.043   0.328 -0.1123 -0.5551 -0.5815
 8572SOL    HW227724   1.242   2.964   0.441 -0.4299  1.2621  0.9047
 8573SOL     OW27725   3.111   2.608   9.958  0.3136 -0.5745 -0.0413
 8573SOL    HW127726   3.127   2.514   9.948 -0.0510 -0.5456 -1.1181
 8573SOL    HW227727   3.047   2.628   9.889  2.2196  0.9360 -1.4952
 8574SOL     OW27728   8.775   1.193   6.087 -0.5157 -0.4421  0.2617
 8574SOL    HW127729   8.760   1.245   6.166  1.5106  0.0547  0.3635
 8574SOL    HW227730   8.760   1.255   6.015  0.4664 -0.0749  0.3528
 8575SOL     OW27731   3.593   9.585   8.454 -0.1035  0.5544  0.4235
 8575SOL    HW127732   3.601   9.676   8.427 -2.6048  0.1978 -1.8995
 8575SOL    HW227733   3.647   9.536   8.391 -2.3441  0.1190 -1.2691
 8576SOL     OW27734   8.889   2.315   0.327  0.1174  0.1976 -0.2522
 8576SOL    HW127735   8.827   2.375   0.369  0.4288  1.5414 -1.6197
 8576SOL    HW227736   8.932   2.270   0.399 -0.4419  1.3199  0.8104
 8577SOL     OW27737   8.031   6.001   7.036  0.3528 -0.2033  0.0173
 8577SOL    HW127738   8.033   6.095   7.018 -1.8487  0.2522  1.8259
 8577SOL    HW227739   7.979   5.964   6.965 -0.3360  0.2166  0.3002
 8578SOL     OW27740  10.284  10.495   3.960 -0.3929  0.3820  0.0192
 8578SOL    HW127741  10.362  10.510   3.907  0.3667  0.4416  1.1065
 8578SOL    HW227742  10.316  10.453   4.039 -1.6026 -0.4796  0.0885
 8579SOL     OW27743   3.024  10.638   3.225  0.6172  0.4102 -0.1811
 8579SOL    HW127744   3.058  10.549   3.215 -0.3806  0.1069 -1.0478
 8579SOL    HW227745   3.019  10.651   3.320 -1.6143 -1.4489  0.0585
 8580SOL     OW27746  10.519  10.478   3.755  0.0700  1.1365  0.0168
 8580SOL    HW127747  10.580  10.438   3.817  1.4229  1.5635 -1.0029
 8580SOL    HW227748  10.485  10.405   3.704 -1.3087  0.7342  1.4107
 8581SOL     OW27749   0.943   6.525   4.316  0.1335  0.0205  0.3551
 8581SOL    HW127750   1.023   6.569   4.343 -0.5613  1.1118  0.7140
 8581SOL    HW227751   0.882   6.596   4.295 -1.1052 -0.7463  1.1884
 8582SOL     OW27752   7.349   2.298   5.288 -0.5516 -0.2526 -0.3320
 8582SOL    HW127753   7.385   2.291   5.377 -1.5262  2.5449  0.3690
 8582SOL    HW227754   7.421   2.268   5.232  0.9076 -0.0023  1.2962
 8583SOL     OW27755   7.796   8.123   5.039 -0.0711  0.1204 -0.3699
 8583SOL    HW127756   7.805   8.029   5.024  2.4847  0.6134 -2.7848
 8583SOL    HW227757   7.707   8.143   5.009 -0.8486 -1.5460  0.6592
 8584SOL     OW27758  11.009   6.745   3.460 -0.2111  0.0395  0.3469
 8584SOL    HW127759  11.026   6.660   3.419  0.3321  0.5459 -0.4987
 8584SOL    HW227760  11.020   6.729   3.554  2.3039 -0.2870  0.0508
 8585SOL     OW27761   7.750   2.159   6.081 -0.2776  0.0119  0.2956
 8585SOL    HW127762   7.758   2.158   6.177  0.3432  0.8078  0.2684
 8585SOL    HW227763   7.826   2.110   6.051  0.5572  1.3023  0.1919
 8586SOL     OW27764   0.427   2.969   6.677 -0.1793 -0.0809  0.0809
 8586SOL    HW127765   0.364   2.899   6.660 -1.7602  1.4864 -0.8431
 8586SOL    HW227766   0.429   2.977   6.772  0.5182 -1.7763  0.2334
 8587SOL     OW27767   4.158   7.955   6.223  0.8888  0.0432  0.0387
 8587SOL    HW127768   4.215   8.004   6.281  0.7201  0.8096 -0.4242
 8587SOL    HW227769   4.141   8.015   6.150  1.0076 -0.8443 -0.7474
 8588SOL     OW27770   8.733   5.954   9.618  0.4387 -0.5949  0.0773
 8588SOL    HW127771   8.694   5.872   9.586  1.3396 -0.7866 -0.5791
 8588SOL    HW227772   8.659   6.004   9.653 -0.5677 -0.5858 -1.9051
 8589SOL     OW27773   4.856   0.155   3.552  0.2278  0.4371  0.3240
 8589SOL    HW127774   4.945   0.139   3.521 -0.2605 -3.7791  0.5222
 8589SOL    HW227775   4.860   0.139   3.646 -0.7346  0.2591  0.3408
 8590SOL     OW27776   7.895   3.296   7.495 -0.4956  0.6113 -0.1535
 8590SOL    HW127777   7.891   3.279   7.588  0.1010  0.8878 -0.0697
 8590SOL    HW227778   7.873   3.389   7.487  1.0451  1.0174 -0.1085
 8591SOL     OW27779   8.226  10.148   4.814  0.2371 -0.6098  0.0118
 8591SOL    HW127780   8.278  10.222   4.845 -4.2797  4.3571 -2.5292
 8591SOL    HW227781   8.166  10.129   4.886 -1.2507  1.3031 -0.6293
 8592SOL     OW27782  10.345   6.434   5.222 -0.1445 -0.1013  0.2593
 8592SOL    HW127783  10.293   6.512   5.240  0.5340  0.0985  1.4836
 8592SOL    HW227784  10.324   6.374   5.294  0.6066 -0.3796  0.2583
 8593SOL     OW27785   8.538   7.731   6.078  0.4947 -1.0098 -0.1122
 8593SOL    HW127786   8.491   7.648   6.085  1.5208 -1.9754 -3.2501
 8593SOL    HW227787   8.473   7.792   6.044  0.2576 -1.0200  0.3112
 8594SOL     OW27788   9.498  10.779  10.464 -0.3262  0.7730 -0.0372
 8594SOL    HW127789   9.457  10.721  10.400 -0.5313 -0.5491  1.2479
 8594SOL    HW227790   9.574  10.816  10.418  0.4162 -1.3086 -0.5922
 8595SOL     OW27791  10.871   0.216   9.553 -0.5164  0.4392 -0.3488
 8595SOL    HW127792  10.861   0.278   9.481  1.1093  0.1279 -0.8881
 8595SOL    HW227793  10.915   0.141   9.513 -1.3239 -0.5440  0.5676
 8596SOL     OW27794   5.525   5.737   0.270  0.4302 -0.1936 -0.3075
 8596SOL    HW127795   5.560   5.677   0.336  0.1265  1.8073  1.7910
 8596SOL    HW227796   5.599   5.758   0.214  0.7040 -1.9005 -0.6522
 8597SOL     OW27797   4.543   7.952  10.335 -0.0449  0.7059 -0.0434
 8597SOL    HW127798   4.483   7.987  10.400  0.5214  0.7292  0.4732
 8597SOL    HW227799   4.554   7.860  10.359  2.6124  1.3916  1.8598
 8598SOL     OW27800   0.346   7.951   2.849 -0.0212 -0.1200  0.2109
 8598SOL    HW127801   0.381   8.017   2.791  3.0790 -2.3257 -0.6933
 8598SOL    HW227802   0.299   7.890   2.792  0.5180 -0.7426  0.4132
 8599SOL     OW27803   3.461   0.105   5.778 -0.6036 -0.1108 -0.8100
 8599SOL    HW127804   3.548   0.093   5.815 -0.0478 -0.4928 -2.1694
 8599SOL    HW227805   3.451   0.032   5.716 -1.2622  0.7696 -1.7779
 8600SOL     OW27806   3.634  10.416   0.690 -0.1790  0.1100  0.3807
 8600SOL    HW127807   3.635  10.487   0.754  0.7328 -0.2278  0.7674
 8600SOL    HW227808   3.566  10.357   0.721 -1.6347  1.2647 -0.4891
 8601SOL     OW27809   9.148   7.619   7.327  0.0169 -0.2166  0.6168
 8601SOL    HW127810   9.141   7.590   7.236  1.4738  0.9607  0.0761
 8601SOL    HW227811   9.064   7.659   7.346  0.1365  0.7573 -0.7080
 8602SOL     OW27812   2.926   6.628   8.893  0.2845 -0.4907 -0.3166
 8602SOL    HW127813   2.966   6.541   8.888 -0.7039 -0.8925 -2.6637
 8602SOL    HW227814   3.001   6.688   8.898  1.2053 -1.2961 -2.8875
 8603SOL     OW27815   7.302   2.205   6.353  0.1973 -0.1991 -0.1946
 8603SOL    HW127816   7.236   2.245   6.297 -1.4657 -1.0361  1.0420
 8603SOL    HW227817   7.294   2.111   6.335 -0.0964 -0.4437  1.1025
 8604SOL     OW27818   6.813   9.798   3.083 -0.1658  0.2363 -0.3505
 8604SOL    HW127819   6.805   9.876   3.138  1.8320 -0.0005  0.3341
 8604SOL    HW227820   6.824   9.832   2.994 -1.2235  0.6565 -0.3435
 8605SOL     OW27821   6.255   5.018   4.352  0.2388 -0.4011 -0.0714
 8605SOL    HW127822   6.232   4.973   4.271 -0.7358  0.2779 -0.1824
 8605SOL    HW227823   6.343   5.052   4.337 -0.3362  0.6374 -1.2601
 8606SOL     OW27824   5.239   4.577   1.984  0.1864  0.4941 -0.2897
 8606SOL    HW127825   5.236   4.521   1.906  0.9224 -0.2613  0.2067
 8606SOL    HW227826   5.331   4.578   2.010 -0.3137 -1.1171  1.8379
 8607SOL     OW27827   6.113   3.896   7.948  0.1588  0.0283 -0.3220
 8607SOL    HW127828   6.137   3.810   7.913 -0.2267 -0.5141  0.6809
 8607SOL    HW227829   6.047   3.877   8.015 -0.6236  1.2001 -0.7247
 8608SOL     OW27830   7.182   9.578   8.088 -0.5147 -0.1381 -0.9979
 8608SOL    HW127831   7.101   9.629   8.087 -0.0806  0.5732 -0.8664
 8608SOL    HW227832   7.248   9.637   8.050  0.3950  0.1078  0.8267
 8609SOL     OW27833   0.754   3.949   0.080 -0.1458 -0.0048 -0.2347
 8609SOL    HW127834   0.703   4.030   0.071 -1.8598 -1.1578 -1.6503
 8609SOL    HW227835   0.728   3.914   0.165  1.1056  1.2179  0.6860
 8610SOL     OW27836   4.056   0.402   4.764  0.1272 -0.6263 -0.1726
 8610SOL    HW127837   3.979   0.391   4.819 -1.4445  3.2554 -1.2244
 8610SOL    HW227838   4.125   0.430   4.824 -1.3304  2.7295  0.1611
 8611SOL     OW27839   8.345   4.253   6.255  0.0568 -0.3129  0.2622
 8611SOL    HW127840   8.379   4.302   6.180 -0.2076  0.0148  0.3530
 8611SOL    HW227841   8.356   4.161   6.231 -0.0292 -0.2091 -0.1837
 8612SOL     OW27842   4.619   6.340   1.778 -0.2671  0.0941  0.4076
 8612SOL    HW127843   4.713   6.354   1.791 -0.2946 -0.5793  1.4798
 8612SOL    HW227844   4.613   6.295   1.694  0.2669  1.1159 -0.1987
 8613SOL     OW27845   0.553   7.906   9.195 -0.2991  0.0511 -0.2160
 8613SOL    HW127846   0.473   7.958   9.195 -0.9013 -0.8233  0.8375
 8613SOL    HW227847   0.533   7.832   9.252  0.2425 -1.7647 -2.2525
 8614SOL     OW27848   6.404   8.197   4.222 -0.4569 -0.4140  0.2122
 8614SOL    HW127849   6.413   8.249   4.142 -2.1481 -0.2366  0.1031
 8614SOL    HW227850   6.310   8.184   4.232 -0.1638 -2.4824  0.8694
 8615SOL     OW27851   5.901   1.527   0.583 -0.3106 -0.1956  0.3546
 8615SOL    HW127852   5.909   1.617   0.612  0.7066 -0.5120  1.0951
 8615SOL    HW227853   5.876   1.534   0.490 -1.1876  0.8191  0.6432
 8616SOL     OW27854   0.793   1.840   3.568 -0.2400 -0.6377 -0.5823
 8616SOL    HW127855   0.703   1.839   3.534 -0.7994 -0.3349  0.8357
 8616SOL    HW227856   0.834   1.915   3.524 -0.4618 -1.1541 -1.7172
 8617SOL     OW27857   4.895   9.157   8.713  0.0058  0.1610  0.5757
 8617SOL    HW127858   4.899   9.252   8.715  0.0651  0.1967 -0.4253
 8617SOL    HW227859   4.982   9.128   8.740  1.8587  0.5517 -3.9840
 8618SOL     OW27860   2.733   1.426   1.753 -0.2602 -0.2172 -0.2971
 8618SOL    HW127861   2.705   1.430   1.844  1.2354  0.2787  0.1747
 8618SOL    HW227862   2.773   1.511   1.736  2.2545 -1.3131 -0.4167
 8619SOL     OW27863   6.530   5.781   2.935 -0.0725 -0.2840  0.0450
 8619SOL    HW127864   6.546   5.766   3.028  1.6453  2.1801  0.2436
 8619SOL    HW227865   6.469   5.855   2.933  1.4245  0.9891 -0.7236
 8620SOL     OW27866   9.754   4.858   3.448 -0.3701 -0.5384  0.6171
 8620SOL    HW127867   9.709   4.916   3.388 -0.7703  0.4708  1.8500
 8620SOL    HW227868   9.721   4.881   3.535  3.1114  0.9547  1.7495
 8621SOL     OW27869   1.589   5.891   8.932 -0.2397  0.4567  0.2797
 8621SOL    HW127870   1.614   5.975   8.971 -0.6194  1.6557 -1.8470
 8621SOL    HW227871   1.562   5.837   9.006 -2.6441  3.1458  1.5848
 8622SOL     OW27872   2.973  10.048   0.372 -0.2581 -0.3566  0.1767
 8622SOL    HW127873   2.919   9.996   0.431 -0.8624  0.2254  0.1518
 8622SOL    HW227874   3.059  10.052   0.414 -0.4260 -0.7236  0.5534
 8623SOL     OW27875   0.835  10.688   7.338 -0.4224  0.0966 -0.3196
 8623SOL    HW127876   0.873  10.637   7.409  0.1383 -0.2001 -0.8149
 8623SOL    HW227877   0.780  10.753   7.381 -0.1379 -0.1117  0.3758
 8624SOL     OW27878   5.863   3.591   5.714  0.3418  0.6989 -0.3197
 8624SOL    HW127879   5.837   3.632   5.797  0.2728  2.0878 -0.9981
 8624SOL    HW227880   5.846   3.498   5.727 -0.6188  1.0104  0.8673
 8625SOL     OW27881   7.686   9.588  10.108  0.3024 -0.0400  0.1503
 8625SOL    HW127882   7.777   9.560  10.107  0.4897  0.5513  0.5954
 8625SOL    HW227883   7.641   9.521  10.160  0.6458  0.1537  0.7035
 8626SOL     OW27884   4.611   9.766   8.286  0.2260 -0.1575  0.2803
 8626SOL    HW127885   4.673   9.698   8.259  1.9475  1.1210  0.7967
 8626SOL    HW227886   4.526   9.736   8.253  1.5208 -0.6305 -3.0063
 8627SOL     OW27887   1.459   6.895   7.644  0.0153  0.2890  0.0815
 8627SOL    HW127888   1.528   6.857   7.589 -0.6312 -0.2343 -0.3759
 8627SOL    HW227889   1.436   6.826   7.706 -0.7381  0.1394 -0.3605
 8628SOL     OW27890   8.885   8.407   9.475 -0.2094 -0.5509  0.2148
 8628SOL    HW127891   8.827   8.406   9.551  0.5724  0.9099  0.8630
 8628SOL    HW227892   8.839   8.461   9.410 -0.9348 -1.9010 -0.4434
 8629SOL     OW27893  10.367   1.595   7.499 -0.3061  0.2487 -0.4094
 8629SOL    HW127894  10.395   1.542   7.424  0.0513 -0.3823  0.1545
 8629SOL    HW227895  10.396   1.684   7.478  1.9152 -0.3117  0.0028
 8630SOL     OW27896   9.733   1.340   0.870 -0.3947  0.1834 -0.8292
 8630SOL    HW127897   9.818   1.376   0.895 -0.3792  0.6971 -1.5842
 8630SOL    HW227898   9.698   1.404   0.808 -0.7603 -0.6659 -1.5132
 8631SOL     OW27899   9.681   9.854   5.354 -0.2574 -0.1443 -0.2658
 8631SOL    HW127900   9.635   9.935   5.376  0.9983  0.1982  1.2212
 8631SOL    HW227901   9.704   9.815   5.438  1.7236 -0.5377 -0.9350
 8632SOL     OW27902   3.728   3.667   1.626  0.2799  0.3057  0.0714
 8632SOL    HW127903   3.762   3.634   1.543 -1.4861 -0.3072 -0.4505
 8632SOL    HW227904   3.774   3.750   1.639 -0.4746  1.1868 -2.3174
 8633SOL     OW27905   8.417   7.169   0.058 -0.7763 -0.1880 -0.5040
 8633SOL    HW127906   8.324   7.150   0.069 -0.6406 -0.4783  0.2103
 8633SOL    HW227907   8.439   7.224   0.134 -0.2570 -0.5358 -0.3997
 8634SOL     OW27908   8.532   6.242   2.042 -0.8667  0.0281  0.2157
 8634SOL    HW127909   8.516   6.148   2.034 -0.4139 -0.1983  1.6243
 8634SOL    HW227910   8.565   6.253   2.131 -0.1858  1.4320 -0.1811
 8635SOL     OW27911   7.808   9.740   1.289  0.5737 -0.5531  0.2680
 8635SOL    HW127912   7.715   9.758   1.275  0.7466  0.2849  0.1039
 8635SOL    HW227913   7.811   9.649   1.318 -0.0554 -1.5873 -2.5723
 8636SOL     OW27914   8.690   2.666   8.332  0.2751  0.3660 -0.3612
 8636SOL    HW127915   8.689   2.757   8.300 -0.9941 -0.0433 -1.5850
 8636SOL    HW227916   8.730   2.616   8.262  1.0886 -0.0245  0.3677
 8637SOL     OW27917   1.500   6.691   3.565 -0.4454 -0.5124  0.2368
 8637SOL    HW127918   1.511   6.757   3.634  0.9568 -1.0629  0.5651
 8637SOL    HW227919   1.411   6.657   3.578 -0.2064 -0.6139  1.7887
 8638SOL     OW27920   7.275   1.774   1.288 -0.1362  0.1494 -0.1391
 8638SOL    HW127921   7.338   1.802   1.354 -0.0329 -0.1168 -0.1272
 8638SOL    HW227922   7.297   1.828   1.211  0.2513 -0.1045 -0.2079
 8639SOL     OW27923   2.991   6.434  10.981 -0.1370 -0.3571  0.1767
 8639SOL    HW127924   2.917   6.438  10.921 -0.4018  0.7966  0.5665
 8639SOL    HW227925   3.045   6.510  10.960  1.7138 -1.9097 -1.0369
 8640SOL     OW27926  10.112   9.068   8.510  0.2841 -0.3128  0.1233
 8640SOL    HW127927  10.151   9.006   8.571 -1.9533 -0.2525  1.7316
 8640SOL    HW227928  10.180   9.081   8.443  2.6960 -0.7338  2.2980
 8641SOL     OW27929  10.584   6.038   7.330  0.0188  0.5214  0.3856
 8641SOL    HW127930  10.646   6.031   7.257 -0.3504  1.4121 -0.0263
 8641SOL    HW227931  10.517   6.098   7.299 -0.8760 -0.1526  0.9605
 8642SOL     OW27932  10.816   7.830  10.195  0.1002  0.4591 -0.1562
 8642SOL    HW127933  10.830   7.878  10.277  1.6745  0.5399 -0.4462
 8642SOL    HW227934  10.783   7.745  10.223  0.8787  0.3876  0.5920
 8643SOL     OW27935  11.008   5.732   2.323 -0.3541 -0.3413  0.6949
 8643SOL    HW127936  11.041   5.815   2.290 -2.1351  0.7478  1.4904
 8643SOL    HW227937  10.963   5.692   2.248  1.5162 -1.2111 -0.0206
 8644SOL     OW27938   7.921  10.534   6.230 -0.6351 -0.0646  0.1184
 8644SOL    HW127939   7.893  10.444   6.220 -1.4111  0.2062 -0.1882
 8644SOL    HW227940   7.925  10.569   6.141  0.1441  0.0685  0.1917
 8645SOL     OW27941   7.989   0.775   5.563  0.3917 -0.0433 -0.5185
 8645SOL    HW127942   7.950   0.837   5.502 -0.8717  1.0419  1.2919
 8645SOL    HW227943   7.930   0.699   5.561  0.4250 -0.0644 -0.7299
 8646SOL     OW27944   8.711   9.849   7.697 -0.0981  0.2705 -0.1602
 8646SOL    HW127945   8.672   9.899   7.768  0.9561 -1.0403  1.3998
 8646SOL    HW227946   8.659   9.871   7.620 -1.1628  1.8509  0.9730
 8647SOL     OW27947   4.221  10.385   9.464  0.0036 -0.5877  0.0299
 8647SOL    HW127948   4.262  10.433   9.536  0.6793  0.7346 -1.1928
 8647SOL    HW227949   4.166  10.449   9.421  0.8788 -0.8981 -1.6141
 8648SOL     OW27950   7.281   8.037   1.990 -0.2428 -0.5108  0.0009
 8648SOL    HW127951   7.277   8.113   1.932  0.4038 -2.0094 -2.1650
 8648SOL    HW227952   7.330   8.067   2.066  0.0424  1.2249 -0.8209
 8649SOL     OW27953  10.319   1.363   6.232 -0.0763  0.0724  0.6212
 8649SOL    HW127954  10.266   1.289   6.259  1.6563 -1.2351  0.5715
 8649SOL    HW227955  10.255   1.429   6.203 -1.6767 -1.0619  1.4357
 8650SOL     OW27956  10.466  10.487   4.211  0.4189  0.2018  0.6602
 8650SOL    HW127957  10.521  10.449   4.143 -1.8456 -0.1908 -1.0877
 8650SOL    HW227958  10.501  10.452   4.293  2.8992  0.2403 -0.2962
 8651SOL     OW27959   0.481   6.016   5.130 -0.5724 -0.2616  0.1389
 8651SOL    HW127960   0.426   5.944   5.161  1.4151 -1.2780  1.5145
 8651SOL    HW227961   0.539   5.976   5.065  0.4259  0.0786  0.7830
 8652SOL     OW27962   2.485   4.053   2.039 -0.1863  0.2501 -0.5206
 8652SOL    HW127963   2.555   3.993   2.065 -0.2763  1.1599  2.1398
 8652SOL    HW227964   2.446   4.012   1.962  2.0988 -1.1855 -1.0111
 8653SOL     OW27965  10.198   0.542   5.582 -0.4966 -0.5236 -0.0050
 8653SOL    HW127966  10.147   0.489   5.643 -0.9855  2.3355  2.2622
 8653SOL    HW227967  10.133   0.597   5.538  0.1443 -0.6284 -1.1290
 8654SOL     OW27968   2.759   6.662   2.223  0.1020 -0.2957  0.4389
 8654SOL    HW127969   2.726   6.688   2.309 -0.0243 -0.5702  0.4764
 8654SOL    HW227970   2.741   6.736   2.166 -0.9591 -0.5964  0.3626
 8655SOL     OW27971   5.746   1.556   2.811 -0.4986  0.3126  0.1948
 8655SOL    HW127972   5.658   1.527   2.836 -0.2237 -0.2498  0.5473
 8655SOL    HW227973   5.759   1.637   2.860 -0.6956  0.2257  0.3943
 8656SOL     OW27974  10.813   9.747   0.232  0.0124 -0.0856 -0.8839
 8656SOL    HW127975  10.721   9.742   0.207 -0.0903  0.1297 -0.5604
 8656SOL    HW227976  10.815   9.810   0.305  0.6983  1.5803 -2.2575
 8657SOL     OW27977  10.294   8.941   9.247  0.0418  0.2045 -0.2660
 8657SOL    HW127978  10.277   8.918   9.338  1.4194  1.7871  0.4426
 8657SOL    HW227979  10.377   8.988   9.249  0.0380  0.3993 -2.3330
 8658SOL     OW27980  10.119   5.189   4.057  0.3815 -0.1008  0.3457
 8658SOL    HW127981  10.101   5.098   4.032 -0.6650 -0.0121  0.7047
 8658SOL    HW227982  10.054   5.208   4.126  0.2524  1.0712 -0.0755
 8659SOL     OW27983   2.371   2.764   2.599 -0.3491 -0.0191 -0.7503
 8659SOL    HW127984   2.379   2.836   2.661  2.7694  0.4492 -1.5250
 8659SOL    HW227985   2.324   2.696   2.647  2.1124  0.2013  2.3354
 8660SOL     OW27986   9.547   4.702   3.564  0.2390 -0.4412  0.2287
 8660SOL    HW127987   9.618   4.645   3.534  0.2520  0.0086 -0.6316
 8660SOL    HW227988   9.517   4.746   3.484 -1.2274 -0.8704  0.5173
 8661SOL     OW27989   4.213   5.587   9.230  0.3940 -0.4205  0.3248
 8661SOL    HW127990   4.246   5.521   9.170  0.3130  1.1028 -1.4698
 8661SOL    HW227991   4.132   5.549   9.265  1.8070 -2.4449  1.6071
 8662SOL     OW27992   0.832   4.931   9.191  0.3942 -0.3666 -0.3691
 8662SOL    HW127993   0.776   4.905   9.118 -1.9133  0.6835  0.9149
 8662SOL    HW227994   0.770   4.959   9.259  2.4037 -1.7029  2.1666
 8663SOL     OW27995   0.469   3.108   3.808 -0.0576 -0.5081 -0.3166
 8663SOL    HW127996   0.488   3.186   3.860  0.6271 -0.4322 -0.6695
 8663SOL    HW227997   0.432   3.142   3.727 -0.8169 -0.6100 -0.0182
 8664SOL     OW27998   3.514   5.163   1.304  0.3198  0.1975 -0.6805
 8664SOL    HW127999   3.473   5.232   1.252  0.0384  1.4429  1.0834
 8664SOL    HW228000   3.593   5.203   1.340 -0.2078 -0.1076  0.9381
 8665SOL     OW28001   4.571   9.259   6.233  0.0708 -0.0452  0.2671
 8665SOL    HW128002   4.658   9.220   6.231 -1.3067 -3.4106 -1.0984
 8665SOL    HW228003   4.568   9.316   6.155  0.8303 -0.4044 -0.0315
 8666SOL     OW28004   0.673   5.377   4.725  0.1216  0.3378  0.5428
 8666SOL    HW128005   0.711   5.448   4.673 -0.9405  1.2142  0.9303
 8666SOL    HW228006   0.744   5.314   4.734  0.7413  0.7910 -0.8119
 8667SOL     OW28007   3.945   4.964   6.966  0.2014 -0.9371  0.2200
 8667SOL    HW128008   3.923   4.992   6.877  0.8109  1.4420  0.7543
 8667SOL    HW228009   4.036   4.936   6.960  1.1184  1.7112  0.5188
 8668SOL     OW28010   0.484   4.481   6.786  0.4105 -0.8774 -0.2470
 8668SOL    HW128011   0.471   4.565   6.829 -0.6472 -0.8285 -0.6419
 8668SOL    HW228012   0.399   4.459   6.748  1.1017 -1.2828 -1.6422
 8669SOL     OW28013   5.173   9.112   6.094 -0.6969  0.0251  0.6537
 8669SOL    HW128014   5.116   9.035   6.098 -0.5349 -0.0915  0.6725
 8669SOL    HW228015   5.227   9.107   6.172  0.3733 -0.6605 -0.1114
 8670SOL     OW28016   5.429  10.453   9.728  0.2762  0.1507 -0.3976
 8670SOL    HW128017   5.404  10.471   9.818  1.4577 -1.4248  0.2868
 8670SOL    HW228018   5.496  10.519   9.709 -0.5716  1.0250 -0.4479
 8671SOL     OW28019   5.717   8.294  10.434  0.7488 -0.0557  0.1058
 8671SOL    HW128020   5.744   8.205  10.413 -1.4889 -0.9285  0.6501
 8671SOL    HW228021   5.624   8.287  10.456  0.1802  2.6154 -1.0320
 8672SOL     OW28022  10.613   7.471  10.975  0.2979 -0.2180 -0.0839
 8672SOL    HW128023  10.611   7.553  10.926 -0.7294 -0.9056 -1.2516
 8672SOL    HW228024  10.580   7.494  11.062  1.2063  0.8297  0.0024
 8673SOL     OW28025   3.269   0.640   3.632  0.3481  0.6792 -0.2544
 8673SOL    HW128026   3.270   0.735   3.616  1.6323  0.5701 -0.8900
 8673SOL    HW228027   3.261   0.632   3.727  2.9371  1.4934  0.1129
 8674SOL     OW28028   9.911   3.796   8.287 -0.1490  0.1424 -0.0805
 8674SOL    HW128029   9.817   3.800   8.306 -0.1431  0.1429 -0.0501
 8674SOL    HW228030   9.953   3.842   8.359 -0.1170  0.0311 -0.0275
 8675SOL     OW28031   7.838   8.354   8.339  0.0003 -0.0238  0.1326
 8675SOL    HW128032   7.822   8.362   8.433 -2.1358  0.2039 -0.1901
 8675SOL    HW228033   7.842   8.259   8.324 -1.1743 -0.1123  0.2697
 8676SOL     OW28034   9.417   3.645   8.133 -0.2427  0.1610  0.0201
 8676SOL    HW128035   9.363   3.722   8.120  0.3899  0.8083  1.1182
 8676SOL    HW228036   9.456   3.656   8.220  1.4775 -0.3862 -0.6282
 8677SOL     OW28037   3.496  10.590   5.946 -0.1583 -0.0553 -0.1705
 8677SOL    HW128038   3.513  10.677   5.911  2.3265 -0.1099  0.6713
 8677SOL    HW228039   3.436  10.550   5.883 -0.7453  1.9717 -0.9732
 8678SOL     OW28040   3.141   5.152   9.147 -0.4221 -0.6801 -0.1667
 8678SOL    HW128041   3.235   5.170   9.146 -0.7450  1.4300  0.9418
 8678SOL    HW228042   3.134   5.068   9.193  0.9531 -1.4824 -1.3179
 8679SOL     OW28043   0.339   2.230   6.286 -0.4400 -0.8017  0.2194
 8679SOL    HW128044   0.383   2.172   6.223 -0.3062 -1.7520  1.1464
 8679SOL    HW228045   0.274   2.277   6.234 -1.4755 -2.7647 -0.3747
 8680SOL     OW28046   0.351   6.746   1.434  0.2015  0.8542  0.5834
 8680SOL    HW128047   0.373   6.839   1.443 -2.2095  1.7807 -1.6932
 8680SOL    HW228048   0.370   6.726   1.342 -1.0330 -0.3788  0.5649
 8681SOL     OW28049  10.147   5.614   8.365 -0.0008  0.6782  0.4014
 8681SOL    HW128050  10.143   5.635   8.271 -1.8600  0.7021  0.4630
 8681SOL    HW228051  10.153   5.699   8.409 -2.9059  0.9477  0.4354
 8682SOL     OW28052   3.151   2.543   1.780  1.2142 -0.3595 -0.1351
 8682SOL    HW128053   3.208   2.534   1.857  1.6492 -0.5574 -0.4713
 8682SOL    HW228054   3.204   2.592   1.717  0.9653 -0.4438 -0.4100
 8683SOL     OW28055   2.047   0.225   8.838 -0.0242  0.2354  0.2879
 8683SOL    HW128056   2.012   0.276   8.766  0.7008 -0.6035 -0.6850
 8683SOL    HW228057   2.043   0.134   8.808  1.9790  0.0144  0.5379
 8684SOL     OW28058   9.638   2.651  10.249  0.2016  0.1139  0.3420
 8684SOL    HW128059   9.610   2.604  10.171 -3.2627  1.6969  0.4578
 8684SOL    HW228060   9.650   2.583  10.315  0.8327 -1.0253 -0.8924
 8685SOL     OW28061   3.227   7.459   3.535 -0.0764  0.1292 -0.0007
 8685SOL    HW128062   3.135   7.449   3.509 -0.2181 -0.2312  0.6036
 8685SOL    HW228063   3.268   7.375   3.513  0.5621  0.9090 -1.9699
 8686SOL     OW28064   0.573   8.481   9.002  0.4919  0.2262 -0.8380
 8686SOL    HW128065   0.576   8.566   9.046  0.0074  0.6571 -1.6157
 8686SOL    HW228066   0.492   8.441   9.032  0.4812  0.2453 -0.8422
 8687SOL     OW28067   5.318   3.091   7.070  0.1146  0.5082 -0.1761
 8687SOL    HW128068   5.350   3.177   7.043  0.4731 -0.1824 -2.0501
 8687SOL    HW228069   5.367   3.029   7.016 -0.9287 -0.8302  0.3659
 8688SOL     OW28070   9.591   0.585   7.431  0.2930 -0.1115 -0.8778
 8688SOL    HW128071   9.657   0.639   7.387  1.0416 -0.9423 -0.7973
 8688SOL    HW228072   9.627   0.496   7.428  0.7825 -0.1076  2.1489
 8689SOL     OW28073   4.315   6.695   9.666 -0.3566 -0.7478 -0.5590
 8689SOL    HW128074   4.285   6.759   9.602  0.9443  0.3347 -0.1294
 8689SOL    HW228075   4.333   6.746   9.745 -0.9870 -1.9130  0.3670
 8690SOL     OW28076   2.207  10.809   5.472 -0.0426 -0.3838 -0.4754
 8690SOL    HW128077   2.220  10.789   5.379  0.8887 -0.2957 -0.3776
 8690SOL    HW228078   2.295  10.831   5.503 -0.8857  3.8932 -0.5751
 8691SOL     OW28079   7.673   7.577   3.560 -0.1711  0.0281 -0.1809
 8691SOL    HW128080   7.608   7.507   3.554  0.3585 -0.3682 -1.7356
 8691SOL    HW228081   7.676   7.616   3.473 -0.9471  2.5063  0.8176
 8692SOL     OW28082   3.666   4.420   8.843  0.2360  0.0929 -0.4655
 8692SOL    HW128083   3.703   4.350   8.790  0.9482 -0.6431  0.9323
 8692SOL    HW228084   3.576   4.392   8.860  0.3964 -0.2947 -0.2420
 8693SOL     OW28085   7.347  11.038   0.265 -0.3990 -0.4674  0.0878
 8693SOL    HW128086   7.405  11.096   0.216 -0.2231  0.1766  1.0201
 8693SOL    HW228087   7.280  11.012   0.202 -1.8948  2.6968  0.1808
 8694SOL     OW28088   6.155   3.301   4.966 -0.2209 -0.3778  0.1546
 8694SOL    HW128089   6.232   3.356   4.952 -2.7989  3.8914  1.0657
 8694SOL    HW228090   6.112   3.298   4.880 -1.6909  1.9923  0.7027
 8695SOL     OW28091   4.129   3.122   5.048  0.8408 -0.7328 -0.9692
 8695SOL    HW128092   4.119   3.067   5.126  0.3802  0.1438 -0.3949
 8695SOL    HW228093   4.041   3.156   5.032  1.4008  1.2248 -0.2519
 8696SOL     OW28094   1.397  10.643   7.295 -0.3223  0.1927  0.5703
 8696SOL    HW128095   1.463  10.697   7.340  0.4186 -2.0571  2.3463
 8696SOL    HW228096   1.354  10.594   7.365 -2.1869 -0.2691 -0.8136
 8697SOL     OW28097   5.862   7.678  10.452 -0.1703  0.3667  0.0295
 8697SOL    HW128098   5.954   7.669  10.477  0.0771 -1.0859 -1.1985
 8697SOL    HW228099   5.818   7.708  10.531  1.0369 -0.9273  1.2551
 8698SOL     OW28100   3.597   7.389   3.809  0.2634 -0.1420  0.0504
 8698SOL    HW128101   3.525   7.334   3.777 -1.8114  2.2136  0.3520
 8698SOL    HW228102   3.595   7.467   3.753  0.7357  1.2154  1.8304
 8699SOL     OW28103   9.839   9.070   1.283  0.3979 -0.5215  0.1068
 8699SOL    HW128104   9.821   9.094   1.192  0.5946 -2.4705 -0.4745
 8699SOL    HW228105   9.925   9.028   1.281  0.0432 -1.3301  1.0449
 8700SOL     OW28106   7.605   0.808   4.673 -0.5396  0.3000 -0.4490
 8700SOL    HW128107   7.698   0.792   4.688 -0.4123  0.2400 -1.2555
 8700SOL    HW228108   7.602   0.881   4.612 -0.9940 -0.3376 -1.2085
 8701SOL     OW28109   8.664   2.429   2.496 -0.9343  0.2580  0.2537
 8701SOL    HW128110   8.640   2.403   2.585 -0.8722  0.4155  0.3161
 8701SOL    HW228111   8.749   2.388   2.481 -1.6656 -1.1469 -0.3307
 8702SOL     OW28112   2.382   2.602   5.142  0.0650  0.0481  0.2454
 8702SOL    HW128113   2.446   2.636   5.079  0.4410  2.2724  1.7476
 8702SOL    HW228114   2.300   2.644   5.118 -0.4192 -1.1511 -0.3307
 8703SOL     OW28115   9.708   9.661   1.025 -0.1119  0.5996  0.0090
 8703SOL    HW128116   9.747   9.712   0.954 -0.7374  0.1446 -0.6768
 8703SOL    HW228117   9.749   9.696   1.105  0.5773  1.1377 -0.5648
 8704SOL     OW28118   9.941   8.856   9.249  0.4873  0.4290  0.0487
 8704SOL    HW128119  10.005   8.860   9.179  1.7885  1.0822  1.2253
 8704SOL    HW228120   9.858   8.835   9.205  1.2687  0.7339 -1.6404
 8705SOL     OW28121   6.132   7.554   0.935  0.0886  0.4861  0.6033
 8705SOL    HW128122   6.182   7.570   0.855 -2.4494  3.3049 -0.5912
 8705SOL    HW228123   6.080   7.476   0.916  0.6340  0.2304  0.1350
 8706SOL     OW28124   1.150   3.516   2.750  0.2742  0.2312 -0.3123
 8706SOL    HW128125   1.244   3.521   2.769  0.3960  0.5153 -0.9629
 8706SOL    HW228126   1.109   3.499   2.835  1.0921 -2.2863 -0.3290
 8707SOL     OW28127   7.815   0.518   0.020 -0.0562  0.4625  0.2812
 8707SOL    HW128128   7.795   0.521   0.114  1.0353  2.5832  0.4845
 8707SOL    HW228129   7.773   0.437  -0.010 -1.4901  0.3639  2.3380
 8708SOL     OW28130   4.299   6.985   2.177  0.2591 -0.2334 -0.3205
 8708SOL    HW128131   4.332   7.057   2.123 -3.3247  1.0610 -1.1033
 8708SOL    HW228132   4.293   7.022   2.265 -0.4212  0.0785 -0.4846
 8709SOL     OW28133   2.621   7.398   5.531  0.3531 -0.0420 -0.2719
 8709SOL    HW128134   2.700   7.384   5.584  0.3269  1.9573  0.3651
 8709SOL    HW228135   2.559   7.333   5.564  0.6437  0.5492  1.5805
 8710SOL     OW28136   0.679   7.412   4.273  0.5702 -0.5202  0.2888
 8710SOL    HW128137   0.627   7.477   4.321 -0.6784  0.0437 -1.6939
 8710SOL    HW228138   0.644   7.327   4.301  0.4439 -0.2418  0.9842
 8711SOL     OW28139   7.966   4.357   0.666  0.3202 -0.4405  0.0362
 8711SOL    HW128140   7.904   4.413   0.713 -1.0851 -1.0416 -1.0363
 8711SOL    HW228141   7.976   4.400   0.581 -0.5005 -1.5992 -0.6682
 8712SOL     OW28142   3.702   5.944   7.780  0.0031  0.3591 -0.0600
 8712SOL    HW128143   3.785   5.902   7.803 -1.2474 -2.5300 -0.3629
 8712SOL    HW228144   3.714   5.972   7.689  0.8989  0.7660  0.1639
 8713SOL     OW28145   0.881   6.706   5.541 -0.3529 -0.9942  0.5243
 8713SOL    HW128146   0.803   6.702   5.596 -0.3571 -1.4318  0.4928
 8713SOL    HW228147   0.949   6.742   5.597 -0.6753 -0.2221  0.4337
 8714SOL     OW28148   6.965  10.487   0.845 -0.1316  0.0863 -0.6387
 8714SOL    HW128149   7.015  10.406   0.845 -0.4103 -0.0967 -0.0031
 8714SOL    HW228150   6.912  10.483   0.925  0.5084  1.3000 -0.1198
 8715SOL     OW28151   6.329   5.979   2.911 -0.6276 -0.2426  0.6323
 8715SOL    HW128152   6.260   5.939   2.856 -0.3312 -1.0169  0.8110
 8715SOL    HW228153   6.327   6.072   2.887  0.6844 -0.7881 -2.0499
 8716SOL     OW28154   5.766   8.755   9.689  0.6402 -0.3112  0.3644
 8716SOL    HW128155   5.741   8.755   9.596  1.2209 -0.2011  0.2019
 8716SOL    HW228156   5.812   8.838   9.701 -0.4744  0.2298  1.0511
 8717SOL     OW28157   9.629   7.112  10.719  0.0676 -0.1318  0.0849
 8717SOL    HW128158   9.584   7.157  10.647 -2.5567  0.6289  2.0376
 8717SOL    HW228159   9.558   7.073  10.771  1.8050 -0.3814  2.4347
 8718SOL     OW28160   5.824   8.878   2.621  0.0039 -0.3538  0.1535
 8718SOL    HW128161   5.916   8.871   2.645 -0.0581  0.6884  0.7928
 8718SOL    HW228162   5.819   8.955   2.565 -0.7864  1.1613  2.1416
 8719SOL     OW28163  10.117   7.301   4.240 -0.5173  0.1807  0.0639
 8719SOL    HW128164  10.206   7.334   4.247 -0.0520 -0.9105 -0.5203
 8719SOL    HW228165  10.062   7.379   4.248  0.5249  1.0339 -0.8320
 8720SOL     OW28166   6.463   1.886   9.871 -0.1604 -0.4300  0.1569
 8720SOL    HW128167   6.386   1.890   9.929 -1.4033 -0.7159 -1.4244
 8720SOL    HW228168   6.447   1.811   9.814 -0.9763  2.0371 -3.1880
 8721SOL     OW28169  10.652   9.384  10.424  0.1247 -0.9732  0.7158
 8721SOL    HW128170  10.595   9.355  10.352 -1.0138 -1.2532  1.6939
 8721SOL    HW228171  10.705   9.308  10.444  0.4860 -0.8797  0.1575
 8722SOL     OW28172   0.712   5.326   6.935 -0.0116 -0.2129  0.2498
 8722SOL    HW128173   0.710   5.411   6.980  1.0558  0.4678 -0.9108
 8722SOL    HW228174   0.771   5.273   6.988 -0.9231 -0.3488  1.1505
 8723SOL     OW28175   4.343   0.628   0.060  0.3447 -0.3384 -0.0806
 8723SOL    HW128176   4.424   0.666   0.027  0.3319  1.2747  1.6172
 8723SOL    HW228177   4.326   0.554   0.001  3.1717 -0.9141 -0.3396
 8724SOL     OW28178   7.424   3.936   0.805  0.1207  0.6020  0.0557
 8724SOL    HW128179   7.472   3.882   0.867 -2.0882 -0.5113  0.8994
 8724SOL    HW228180   7.387   4.007   0.857 -0.5411  0.4899 -0.2489
 8725SOL     OW28181  10.242   6.296   5.437 -0.2448 -0.1614  0.5466
 8725SOL    HW128182  10.284   6.269   5.518  1.8592  1.5624  0.1079
 8725SOL    HW228183  10.184   6.368   5.462 -1.0339 -0.8608  0.7697
 8726SOL     OW28184   6.635   3.253   9.944  0.8109 -0.2273 -0.3676
 8726SOL    HW128185   6.670   3.226  10.029  1.8427 -0.2804 -0.7993
 8726SOL    HW228186   6.698   3.318   9.912 -0.1949  0.6765 -0.5612
 8727SOL     OW28187   9.007   4.090   4.581  0.3357  0.0114 -0.4794
 8727SOL    HW128188   8.966   4.018   4.534  0.8760 -0.8099  0.2631
 8727SOL    HW228189   8.976   4.169   4.537 -0.6571 -0.6526 -0.9991
 8728SOL     OW28190   5.983   6.269   7.057  0.0008 -0.0061  0.0750
 8728SOL    HW128191   6.012   6.181   7.036  0.3448  0.1411 -0.0707
 8728SOL    HW228192   5.931   6.259   7.137 -0.5993 -0.4508 -0.3544
 8729SOL     OW28193  10.372  10.912   1.543 -0.0858  0.9487 -0.3999
 8729SOL    HW128194  10.341  10.827   1.512  0.1931  1.1112 -1.1380
 8729SOL    HW228195  10.436  10.892   1.611 -1.2590  0.5966  0.6412
 8730SOL     OW28196   4.454  10.569   5.529 -0.3136  0.2036  0.3645
 8730SOL    HW128197   4.532  10.516   5.545  1.1238  2.1347 -0.0057
 8730SOL    HW228198   4.415  10.531   5.450  0.7592 -0.2302  0.0306
 8731SOL     OW28199   1.761   2.180   7.576  0.0320 -0.0461  0.0092
 8731SOL    HW128200   1.792   2.196   7.488 -0.4227  0.9553  0.0225
 8731SOL    HW228201   1.734   2.266   7.609  0.5016 -0.3482  1.2443
 8732SOL     OW28202  10.732   4.705  10.424  0.4024  0.3566 -0.5719
 8732SOL    HW128203  10.746   4.630  10.367 -0.0126  0.4742 -0.8363
 8732SOL    HW228204  10.669   4.760  10.377 -0.2830  0.2466  0.1860
 8733SOL     OW28205   8.327   6.118   8.544 -0.0149 -0.1617  0.1526
 8733SOL    HW128206   8.257   6.169   8.584 -1.9238 -2.0443 -0.5356
 8733SOL    HW228207   8.349   6.052   8.609  1.5667  0.7201  0.5664
 8734SOL     OW28208   4.522   8.212   6.962  0.5373 -0.3405 -0.0774
 8734SOL    HW128209   4.490   8.266   7.034  0.0692  1.9861 -1.9127
 8734SOL    HW228210   4.617   8.226   6.962  0.8080 -1.9231  1.2415
 8735SOL     OW28211  10.670   6.091   9.733  0.0737 -0.0522 -0.7292
 8735SOL    HW128212  10.624   6.172   9.714 -0.5415 -0.1851  0.1354
 8735SOL    HW228213  10.659   6.038   9.655 -0.1002  0.4337 -1.0365
 8736SOL     OW28214   5.181   8.563   7.867  0.2847 -0.7612 -0.3115
 8736SOL    HW128215   5.236   8.592   7.939  0.1060 -0.0496 -0.4462
 8736SOL    HW228216   5.101   8.615   7.876  0.5067 -0.2049 -1.3755
 8737SOL     OW28217   5.319   8.280   1.598  0.4341  0.6332  0.2993
 8737SOL    HW128218   5.326   8.302   1.691  0.4490 -0.3986  0.5465
 8737SOL    HW228219   5.242   8.328   1.568 -0.1275  0.2308  1.0624
 8738SOL     OW28220   2.619   6.255   1.536  0.3360 -0.1213 -0.4814
 8738SOL    HW128221   2.602   6.175   1.487 -1.7041  1.7278 -3.0850
 8738SOL    HW228222   2.534   6.298   1.544  1.1183  1.1849  2.0646
 8739SOL     OW28223   3.973   6.176  10.023  0.2363 -0.1379 -0.4366
 8739SOL    HW128224   4.027   6.234  10.077 -0.9040  2.0735 -1.5409
 8739SOL    HW228225   3.898   6.154  10.078 -0.2831  1.0584 -0.6389
 8740SOL     OW28226   0.099   4.504   8.573  0.2169 -0.0821 -0.4134
 8740SOL    HW128227   0.055   4.502   8.488 -1.7898 -0.7894  0.5789
 8740SOL    HW228228   0.028   4.498   8.637  1.7124 -0.1940  1.3177
 8741SOL     OW28229   2.162   1.261   3.795 -0.3013 -0.4626 -0.3870
 8741SOL    HW128230   2.127   1.238   3.709 -1.0922  0.0070 -0.2032
 8741SOL    HW228231   2.103   1.330   3.826  0.1035 -0.4884  0.4406
 8742SOL     OW28232   5.595   9.693   1.251  0.1377  0.8091 -0.0047
 8742SOL    HW128233   5.561   9.745   1.178  0.8942  1.7503  0.2872
 8742SOL    HW228234   5.518   9.671   1.303 -0.2501  1.2963 -0.3645
 8743SOL     OW28235   9.867   3.238   6.167  0.5004  0.0271  0.0548
 8743SOL    HW128236   9.903   3.324   6.193  2.1024 -1.0029  1.5066
 8743SOL    HW228237   9.908   3.220   6.082  0.5197  0.4970 -0.0411
 8744SOL     OW28238  10.619   3.403   6.475  0.2954  0.1559  0.5445
 8744SOL    HW128239  10.691   3.449   6.432  0.0862  0.4220  0.4779
 8744SOL    HW228240  10.540   3.438   6.433  0.1750 -1.0117 -0.2400
 8745SOL     OW28241   3.716   2.346   2.114  0.4218 -0.1814  0.4729
 8745SOL    HW128242   3.799   2.297   2.119 -0.6530 -1.9964  1.7790
 8745SOL    HW228243   3.724   2.414   2.180  0.6432 -0.7500  1.0415
 8746SOL     OW28244   2.480   8.033   7.428 -0.7108 -0.0097 -0.1688
 8746SOL    HW128245   2.495   8.126   7.449 -2.7903  0.7763 -1.7415
 8746SOL    HW228246   2.427   8.001   7.501  1.5057 -0.5352  1.2939
 8747SOL     OW28247   4.091   4.749   9.611 -0.4496  0.9571  1.1416
 8747SOL    HW128248   4.072   4.750   9.518  0.1390  0.9862  1.0200
 8747SOL    HW228249   4.004   4.747   9.653 -0.7045  0.0865  0.5931
 8748SOL     OW28250   9.463   2.598   9.026  0.5933  0.4482 -0.3324
 8748SOL    HW128251   9.516   2.676   9.042  2.0489 -0.4422 -0.6310
 8748SOL    HW228252   9.503   2.557   8.949 -0.0546 -0.6688 -0.0966
 8749SOL     OW28253   8.164   4.137   0.920 -0.0367 -0.3378 -0.1898
 8749SOL    HW128254   8.236   4.196   0.942  0.3002 -1.1465  0.9265
 8749SOL    HW228255   8.154   4.146   0.825 -0.4783  2.0536  0.0313
 8750SOL     OW28256   5.334   1.426   4.079 -0.7444 -0.2279  0.1836
 8750SOL    HW128257   5.318   1.462   3.992 -0.6589  1.4375  0.8186
 8750SOL    HW228258   5.295   1.489   4.139  0.6445 -0.4916  1.4228
 8751SOL     OW28259   2.743   2.216   5.696  0.0354  0.1568  0.4394
 8751SOL    HW128260   2.762   2.125   5.716 -2.6781  0.1282  3.7136
 8751SOL    HW228261   2.725   2.217   5.602  0.2995 -2.6047  0.2921
 8752SOL     OW28262   7.719   2.791   0.293 -0.4170  0.4068 -0.5141
 8752SOL    HW128263   7.637   2.743   0.305  0.2272 -0.7156 -0.5009
 8752SOL    HW228264   7.773   2.765   0.368  1.3380 -1.8037 -2.4187
 8753SOL     OW28265   6.562   6.047   5.967  0.2664 -0.2933  0.2505
 8753SOL    HW128266   6.631   6.057   5.902 -0.1777  0.7976 -0.0696
 8753SOL    HW228267   6.549   5.952   5.973  1.6863 -0.5168  0.2267
 8754SOL     OW28268   1.472   7.316  10.923  0.9405 -0.0262  0.1910
 8754SOL    HW128269   1.504   7.404  10.938 -1.6210  1.0002  0.2337
 8754SOL    HW228270   1.399   7.306  10.985  0.8941 -2.0173 -0.1081
 8755SOL     OW28271   7.605  10.899   8.209 -0.0483 -0.0493 -0.0976
 8755SOL    HW128272   7.652  10.962   8.263  0.0002 -0.8761  0.8476
 8755SOL    HW228273   7.650  10.816   8.224 -2.0883 -0.9986  1.2764
 8756SOL     OW28274   7.813   2.865   9.028 -0.1059  0.0336  0.1773
 8756SOL    HW128275   7.903   2.841   9.005  0.1636 -0.2717  1.4823
 8756SOL    HW228276   7.762   2.785   9.011 -0.0464  0.0522 -0.0894
 8757SOL     OW28277   6.265   7.392   0.390  0.0041 -0.4090 -0.3532
 8757SOL    HW128278   6.241   7.305   0.422  1.1404 -1.7927 -2.9579
 8757SOL    HW228279   6.187   7.446   0.405 -1.6111 -2.4990 -0.7959
 8758SOL     OW28280   5.206   6.693   0.213  0.4324 -0.4452 -0.3877
 8758SOL    HW128281   5.294   6.726   0.233 -0.1656  1.2864 -0.4454
 8758SOL    HW228282   5.162   6.689   0.297 -0.5510  2.2464 -0.6617
 8759SOL     OW28283   9.476   7.771   3.628 -0.1990 -0.0874 -0.8004
 8759SOL    HW128284   9.442   7.682   3.638  3.0701 -1.4772 -0.6627
 8759SOL    HW228285   9.507   7.775   3.537  1.5447  0.1369 -0.2254
 8760SOL     OW28286   1.292   6.651   1.441 -0.1424 -0.4873  0.7831
 8760SOL    HW128287   1.240   6.572   1.422  1.1772 -1.2143  0.0268
 8760SOL    HW228288   1.373   6.617   1.479  0.9212  0.3895 -0.5903
 8761SOL     OW28289   2.260   6.732   2.069 -0.4613 -0.3095  0.6839
 8761SOL    HW128290   2.239   6.781   1.990  1.2200  0.3735  0.6247
 8761SOL    HW228291   2.261   6.640   2.041  1.8279  0.0241 -0.5717
 8762SOL     OW28292   8.934   1.646   2.132 -0.1326  0.0331  0.0426
 8762SOL    HW128293   8.919   1.642   2.038 -0.0055 -0.6341  0.0414
 8762SOL    HW228294   8.945   1.554   2.158  0.3067  0.2460  0.6300
 8763SOL     OW28295   1.893   1.516   0.144 -0.1571 -0.4370  0.0399
 8763SOL    HW128296   1.906   1.510   0.049  0.1384  1.7721 -0.1159
 8763SOL    HW228297   1.848   1.435   0.167 -0.2891 -1.0090 -1.9874
 8764SOL     OW28298  10.253   7.490   4.611  0.3062  0.1871 -0.3318
 8764SOL    HW128299  10.289   7.430   4.676  0.7737 -0.7713 -1.4379
 8764SOL    HW228300  10.328   7.541   4.581  0.8247 -1.7036 -2.5263
 8765SOL     OW28301   2.308   2.208   8.102  0.2812  0.6693 -0.0702
 8765SOL    HW128302   2.253   2.167   8.035  0.0754  1.1250 -0.1866
 8765SOL    HW228303   2.264   2.186   8.185  1.1855 -0.8942  0.0219
 8766SOL     OW28304   7.287   1.344   7.749 -0.0121  1.0313 -0.2815
 8766SOL    HW128305   7.280   1.252   7.721 -0.5583  0.9892 -0.0187
 8766SOL    HW228306   7.197   1.372   7.762  0.0250  2.1886 -2.1979
 8767SOL     OW28307   6.426   6.285   8.912 -0.0658 -0.2257  0.3613
 8767SOL    HW128308   6.424   6.380   8.912 -3.0753 -0.1732 -1.5384
 8767SOL    HW228309   6.454   6.261   8.823  1.1926 -1.1707  0.9688
 8768SOL     OW28310   6.981   7.962   2.553 -0.5085  0.4314 -0.2259
 8768SOL    HW128311   6.974   7.881   2.604 -1.5336  0.6057 -0.0794
 8768SOL    HW228312   6.894   7.976   2.517  0.3618 -0.1416 -2.7707
 8769SOL     OW28313   2.539  10.925   2.700 -0.4585 -0.4282  0.4603
 8769SOL    HW128314   2.493  11.008   2.695  0.8031  0.4006  1.8893
 8769SOL    HW228315   2.631  10.947   2.685 -0.0095 -1.4430  1.5295
 8770SOL     OW28316   3.556   0.979  10.881 -0.2018 -0.5146 -0.3457
 8770SOL    HW128317   3.533   0.982  10.974  0.2848  0.6536 -0.2449
 8770SOL    HW228318   3.643   1.019  10.877 -0.2316 -0.5373 -1.3091
 8771SOL     OW28319   0.834   2.583   9.113 -0.4428  0.5092 -0.0956
 8771SOL    HW128320   0.864   2.588   9.203 -0.8314  0.0766  0.0599
 8771SOL    HW228321   0.840   2.672   9.080 -2.2445  1.0781  0.9811
 8772SOL     OW28322   9.841   7.307   3.973  0.2039 -0.1563 -0.4460
 8772SOL    HW128323   9.930   7.337   3.992  0.2221 -0.3267 -0.2644
 8772SOL    HW228324   9.829   7.326   3.880  0.5475 -0.4398 -0.5486
 8773SOL     OW28325   5.042   5.600   0.381 -0.1161  0.3819  0.4541
 8773SOL    HW128326   5.031   5.621   0.288  0.4598  0.5662  0.4195
 8773SOL    HW228327   5.136   5.610   0.396 -0.3546  1.5642  1.3492
 8774SOL     OW28328   9.342   5.704   4.982 -0.1020 -0.1558  0.6763
 8774SOL    HW128329   9.317   5.794   4.963  2.4702  0.7852  1.2445
 8774SOL    HW228330   9.326   5.657   4.901 -0.6326  1.0385  0.0665
 8775SOL     OW28331  10.388   6.720   3.393  0.2958 -0.8922  0.0920
 8775SOL    HW128332  10.386   6.766   3.309  1.1659  1.2682  1.1927
 8775SOL    HW228333  10.341   6.778   3.453 -2.1297 -3.3209  0.7525
 8776SOL     OW28334   1.090   0.806   4.079 -0.2294  0.3034 -0.1962
 8776SOL    HW128335   1.087   0.857   4.160 -0.8112  0.1462 -0.1187
 8776SOL    HW228336   1.165   0.842   4.032 -0.6836  1.2959 -0.1885
 8777SOL     OW28337   9.447   7.090   3.779  0.0724 -0.0055 -0.5419
 8777SOL    HW128338   9.398   7.114   3.857  0.9319  0.9075 -0.2569
 8777SOL    HW228339   9.533   7.063   3.812  0.6784  1.0421 -1.1844
 8778SOL     OW28340   2.434   5.693   0.304 -1.0973 -0.1751  0.2276
 8778SOL    HW128341   2.504   5.633   0.330  2.2239  2.5777 -1.5850
 8778SOL    HW228342   2.398   5.725   0.387  1.1821 -0.2519  1.3251
 8779SOL     OW28343   9.346   4.975   7.343 -0.1344  0.4138 -0.8234
 8779SOL    HW128344   9.271   5.021   7.380 -0.5635  0.3692 -1.6170
 8779SOL    HW228345   9.315   4.885   7.329  0.5070  0.0145  0.1526
 8780SOL     OW28346   5.016   7.327   0.688 -0.1531  0.2187 -0.3461
 8780SOL    HW128347   5.099   7.286   0.711  0.2441  1.7330  1.1070
 8780SOL    HW228348   4.986   7.280   0.610  1.0685 -1.6598  0.2670
 8781SOL     OW28349   3.709  10.285   4.218 -0.3031 -0.0846 -0.2270
 8781SOL    HW128350   3.749  10.356   4.269  2.6013 -0.8745 -1.1840
 8781SOL    HW228351   3.663  10.330   4.146  0.5939  0.8800 -0.2208
 8782SOL     OW28352   7.401  10.306   9.038 -0.7146 -0.5126 -0.3703
 8782SOL    HW128353   7.426  10.383   8.987  0.1440 -0.1870  0.5001
 8782SOL    HW228354   7.340  10.340   9.104 -3.2473 -1.2227 -2.1789
 8783SOL     OW28355   7.107   5.897   0.548  0.1673  0.4714 -0.7702
 8783SOL    HW128356   7.119   5.824   0.487 -1.2840  0.5575 -1.1993
 8783SOL    HW228357   7.045   5.955   0.505 -0.8240  0.5891  0.7104
 8784SOL     OW28358   8.655   4.164  10.814  0.2360  0.8233  0.2563
 8784SOL    HW128359   8.609   4.085  10.842 -0.4020  1.2448  0.4090
 8784SOL    HW228360   8.748   4.144  10.830  0.0402  0.3000  0.7834
 8785SOL     OW28361   0.090   5.443   8.142 -0.6924 -0.3169 -0.2346
 8785SOL    HW128362   0.060   5.450   8.052  1.1997 -0.8815 -0.9404
 8785SOL    HW228363   0.175   5.400   8.137 -0.4246 -0.1556  1.8047
 8786SOL     OW28364   6.609  11.016   7.481  0.5512 -0.0546 -0.1323
 8786SOL    HW128365   6.642  10.945   7.535 -1.2232 -1.7562 -1.1617
 8786SOL    HW228366   6.534  11.052   7.529 -0.5591 -1.0711 -1.0367
 8787SOL     OW28367   3.351   9.051   9.710  0.5207  0.3061  0.1156
 8787SOL    HW128368   3.304   9.042   9.793  0.6572 -0.7257  0.0986
 8787SOL    HW228369   3.375   9.143   9.705  0.5071  0.3756  1.2208
 8788SOL     OW28370   4.359   8.572  11.038 -0.5695  0.1692 -0.1873
 8788SOL    HW128371   4.452   8.554  11.052 -0.1833  2.6152  1.0876
 8788SOL    HW228372   4.355   8.668  11.032 -3.0984  0.1693  0.6538
 8789SOL     OW28373   7.572   3.865   5.682 -0.2209 -0.4728 -0.9354
 8789SOL    HW128374   7.666   3.859   5.663 -0.2595  1.9578 -2.3003
 8789SOL    HW228375   7.530   3.825   5.606 -0.3394 -1.6278 -0.2900
 8790SOL     OW28376   3.615   3.982  10.979 -0.0725  0.1531  0.8523
 8790SOL    HW128377   3.614   4.077  10.988  0.0672  0.3490 -0.9094
 8790SOL    HW228378   3.703   3.955  11.007  0.5474  0.7697 -0.4310
 8791SOL     OW28379   8.619  10.223   5.053  0.4991  0.0898  0.1121
 8791SOL    HW128380   8.701  10.194   5.092  0.5292 -0.2514 -0.1974
 8791SOL    HW228381   8.621  10.188   4.964  0.0215  0.0791  0.1015
 8792SOL     OW28382   0.458   2.620  10.767 -0.2921 -0.2632 -0.3359
 8792SOL    HW128383   0.410   2.602  10.848 -1.0188  0.9362 -0.4870
 8792SOL    HW228384   0.457   2.715  10.758  0.1803 -0.3473 -1.5158
 8793SOL     OW28385   1.914   7.989   1.635 -0.3551 -0.1709  0.3981
 8793SOL    HW128386   1.948   7.938   1.708 -0.1754 -1.2704 -0.4262
 8793SOL    HW228387   1.991   8.004   1.579 -0.8388 -0.9675 -0.4952
 8794SOL     OW28388   2.442   0.308  10.659 -0.1358  0.5163 -0.7923
 8794SOL    HW128389   2.429   0.268  10.573 -0.3700  0.6945 -0.8405
 8794SOL    HW228390   2.489   0.241  10.709  0.5673  0.6562 -1.2537
 8795SOL     OW28391   9.882   7.724  10.395  0.6272  0.1976 -0.6766
 8795SOL    HW128392   9.825   7.653  10.366 -0.1683  0.8612 -0.7496
 8795SOL    HW228393   9.970   7.693  10.373  0.2932 -0.7347 -0.7735
 8796SOL     OW28394  10.933   0.183   8.513 -0.2806  0.3617  0.2492
 8796SOL    HW128395  10.936   0.212   8.421 -0.7320 -0.3469  0.0061
 8796SOL    HW228396  10.960   0.091   8.509 -0.0795  0.3941  0.8601
 8797SOL     OW28397   6.257   6.098   7.966 -0.1329 -0.1857  0.7876
 8797SOL    HW128398   6.281   6.098   8.058  1.0165  0.5886  0.5201
 8797SOL    HW228399   6.224   6.186   7.950  0.5158 -0.0269  0.2736
 8798SOL     OW28400   6.974   6.030   4.789 -0.0290 -0.8611  0.2772
 8798SOL    HW128401   7.044   6.095   4.787 -1.5288  0.8235 -0.7876
 8798SOL    HW228402   6.895   6.080   4.773 -1.3463 -2.8840  0.1312
 8799SOL     OW28403   7.287   8.540   1.940  0.4204 -0.0134 -0.2499
 8799SOL    HW128404   7.290   8.489   1.859 -2.9489 -1.9846  0.6640
 8799SOL    HW228405   7.369   8.521   1.983  0.2195 -3.0127 -0.9956
 8800SOL     OW28406   7.166   3.046   1.713 -0.5596 -0.5071 -0.5206
 8800SOL    HW128407   7.236   3.049   1.777 -0.3313  0.7653 -0.8066
 8800SOL    HW228408   7.099   2.990   1.753 -0.1048 -0.3394  0.4975
 8801SOL     OW28409   5.964  10.503   2.671  0.8925 -1.1893  0.7330
 8801SOL    HW128410   6.041  10.558   2.685  0.0604 -0.1740  1.4061
 8801SOL    HW228411   5.908  10.519   2.747 -0.7787 -0.5718 -0.5772
 8802SOL     OW28412  10.856   4.943   4.041  0.2583 -0.0134  0.5054
 8802SOL    HW128413  10.919   4.878   4.010  0.8312  0.4322  0.7265
 8802SOL    HW228414  10.877   5.023   3.993  0.6897  0.4834  1.4956
 8803SOL     OW28415   7.331   3.606  10.026  0.2395 -0.0879 -0.6324
 8803SOL    HW128416   7.243   3.645  10.033 -0.4038 -1.7739  2.5312
 8803SOL    HW228417   7.391   3.679  10.043 -0.6850  0.5612 -0.0594
 8804SOL     OW28418   5.470  10.714   5.326 -0.2049  0.2575  0.4383
 8804SOL    HW128419   5.392  10.740   5.374 -0.1966 -0.1171  0.6544
 8804SOL    HW228420   5.501  10.635   5.370 -0.5461 -0.4552 -0.5550
 8805SOL     OW28421   8.278   5.699   4.905 -0.0667  0.0764 -0.4305
 8805SOL    HW128422   8.309   5.789   4.916 -2.5589  1.4453 -3.1406
 8805SOL    HW228423   8.322   5.669   4.825 -1.0213 -0.1947 -0.8689
 8806SOL     OW28424   6.748  10.216   7.108 -0.2692 -0.3850 -0.5961
 8806SOL    HW128425   6.716  10.253   7.190  0.9321  1.5201 -0.9151
 8806SOL    HW228426   6.801  10.141   7.135  2.0732  1.5837  0.6645
 8807SOL     OW28427   6.292   0.093   8.955  0.1046  0.2964 -0.2581
 8807SOL    HW128428   6.301   0.173   9.006  1.2042 -0.7668  1.2902
 8807SOL    HW228429   6.248   0.121   8.875  2.3493  2.8548 -0.7499
 8808SOL     OW28430  10.610   4.622   3.061 -0.6822  0.0972  0.0929
 8808SOL    HW128431  10.644   4.670   2.985 -2.7001  1.3980 -0.0731
 8808SOL    HW228432  10.637   4.532   3.047  0.1913  0.5660 -1.4545
 8809SOL     OW28433   9.839   0.444   1.607 -0.2782  0.7596 -0.4934
 8809SOL    HW128434   9.870   0.505   1.540  0.2651  0.0044 -0.9462
 8809SOL    HW228435   9.894   0.366   1.596 -1.8208 -0.3514 -0.8472
 8810SOL     OW28436   0.405   3.771  10.183  0.5454  0.4670  0.2924
 8810SOL    HW128437   0.484   3.718  10.172  0.6393  0.3539  1.3605
 8810SOL    HW228438   0.378   3.756  10.274 -0.9623  0.1662 -0.1674
 8811SOL     OW28439   4.133   3.134   6.399 -0.0757  0.1521 -0.3136
 8811SOL    HW128440   4.152   3.228   6.397 -0.4702  0.2383 -0.1287
 8811SOL    HW228441   4.039   3.129   6.383 -0.4193 -0.0974  1.6097
 8812SOL     OW28442   0.024   2.425   1.916 -0.2186  0.0073  0.0637
 8812SOL    HW128443  -0.058   2.450   1.958 -0.6469  0.6292 -1.0923
 8812SOL    HW228444  -0.002   2.384   1.833  0.6127 -0.6228  0.1023
 8813SOL     OW28445   7.683   2.051   2.092 -0.1022  0.2528 -0.6985
 8813SOL    HW128446   7.602   2.101   2.085 -0.2241  0.2858  0.6189
 8813SOL    HW228447   7.752   2.115   2.076 -0.3161  0.1815 -2.0299
 8814SOL     OW28448  10.817   5.427   3.176 -0.4789 -0.1622  0.1901
 8814SOL    HW128449  10.895   5.411   3.123 -0.0335 -0.1000  0.8139
 8814SOL    HW228450  10.840   5.393   3.263 -0.5805  1.1795  0.7759
 8815SOL     OW28451   2.840   5.284   1.175  0.2633 -0.0105  0.0959
 8815SOL    HW128452   2.831   5.309   1.083  1.5129  0.5092  0.1042
 8815SOL    HW228453   2.835   5.188   1.173  1.6415 -0.0976 -0.7047
 8816SOL     OW28454   0.101   5.879   6.080 -0.0466  0.6278  0.2821
 8816SOL    HW128455   0.097   5.834   5.996  0.5772  0.4142  0.3667
 8816SOL    HW228456   0.020   5.931   6.083 -1.0599 -0.9007  0.4371
 8817SOL     OW28457   9.427   4.500   5.504  0.0969  0.9106  0.4792
 8817SOL    HW128458   9.430   4.444   5.427  0.5102  2.3909 -0.6348
 8817SOL    HW228459   9.394   4.444   5.574 -2.8599  0.1515 -1.3455
 8818SOL     OW28460   2.219   2.613   1.845 -0.1900 -0.0976  0.4610
 8818SOL    HW128461   2.248   2.534   1.800 -1.0294  0.0053 -0.2886
 8818SOL    HW228462   2.162   2.581   1.915  0.2922 -0.1963  0.8216
 8819SOL     OW28463  10.111   1.209   8.540 -0.0930  0.0201 -0.6485
 8819SOL    HW128464  10.206   1.194   8.532  0.3319  1.3050  1.3455
 8819SOL    HW228465  10.072   1.139   8.488  1.9423 -0.0371 -2.2649
 8820SOL     OW28466   6.784   8.083   4.374  0.2944 -0.0599  0.1671
 8820SOL    HW128467   6.722   8.156   4.366 -1.2846 -1.4223 -0.5298
 8820SOL    HW228468   6.852   8.103   4.310  0.0739  0.9772  0.2408
 8821SOL     OW28469   5.033   4.626  10.332  0.3850  0.1766 -0.0713
 8821SOL    HW128470   5.108   4.573  10.307  0.1854 -0.9412  1.5368
 8821SOL    HW228471   4.969   4.611  10.262  0.1342 -2.1758  0.5976
 8822SOL     OW28472   2.970   0.229   5.375  0.1503 -0.2200 -0.0675
 8822SOL    HW128473   2.921   0.244   5.294  1.3561 -0.7495 -0.9191
 8822SOL    HW228474   3.044   0.290   5.370  1.2748 -1.5510 -0.2967
 8823SOL     OW28475   2.355   1.862   1.372 -0.1926  0.4705 -0.9117
 8823SOL    HW128476   2.445   1.866   1.340 -0.3601  0.2595 -1.4155
 8823SOL    HW228477   2.362   1.881   1.466  0.2643  1.4442 -1.1252
 8824SOL     OW28478   5.684   1.989   5.558 -0.6214  1.1701  0.2356
 8824SOL    HW128479   5.618   1.944   5.506 -0.5079  1.5039 -0.2059
 8824SOL    HW228480   5.669   1.959   5.648  0.7020 -1.2745 -0.2674
 8825SOL     OW28481   8.981   9.799   5.632 -0.4645 -0.0994 -0.5604
 8825SOL    HW128482   8.991   9.774   5.724 -0.4463  1.7200 -0.0177
 8825SOL    HW228483   9.025   9.884   5.625  0.0168 -0.4469 -2.3964
 8826SOL     OW28484   3.275   0.610   4.175  1.0932 -0.0331 -0.7366
 8826SOL    HW128485   3.300   0.603   4.267  1.2235  1.0059 -0.6752
 8826SOL    HW228486   3.258   0.704   4.162  2.3946  0.0507 -2.1074
 8827SOL     OW28487   6.091   3.056   6.064 -0.3240 -0.2578 -0.3087
 8827SOL    HW128488   6.106   3.136   6.013  0.7640  0.4091  0.9604
 8827SOL    HW228489   6.179   3.022   6.081 -0.7365 -1.2497 -0.0848
 8828SOL     OW28490   4.532   7.681   6.538 -0.0651 -0.2303  0.4980
 8828SOL    HW128491   4.455   7.724   6.503 -0.5909 -1.5274 -0.0100
 8828SOL    HW228492   4.606   7.728   6.500 -0.6191 -0.2271 -0.5932
 8829SOL     OW28493   3.222  10.871   4.621  0.3427 -0.2043  0.2986
 8829SOL    HW128494   3.176  10.789   4.639 -1.5836  0.9070  0.7414
 8829SOL    HW228495   3.170  10.913   4.553  0.0026  1.6144  1.5948
 8830SOL     OW28496   1.684   9.350   6.029 -0.3303  0.8114  0.5091
 8830SOL    HW128497   1.761   9.383   5.982  0.0937 -1.2408 -0.3284
 8830SOL    HW228498   1.686   9.395   6.114  2.6133 -0.1551  1.0608
 8831SOL     OW28499   7.671   5.289   8.055  0.0070 -0.2767 -0.1030
 8831SOL    HW128500   7.719   5.284   7.972  0.1178 -0.1073 -0.0480
 8831SOL    HW228501   7.611   5.214   8.052  1.2450 -1.3238  0.4397
 8832SOL     OW28502   0.700   2.051   8.888 -0.1627  0.6772 -0.1687
 8832SOL    HW128503   0.691   2.129   8.834 -0.1684  0.4455 -0.5054
 8832SOL    HW228504   0.721   1.981   8.826 -0.6121  0.3227  0.0679
 8833SOL     OW28505   5.513   9.954   9.906  0.3361  0.4048  0.1430
 8833SOL    HW128506   5.516  10.027   9.968  1.2526  0.3121  0.2213
 8833SOL    HW228507   5.573   9.889   9.943 -0.5815 -0.4623  0.1555
 8834SOL     OW28508   1.755   8.083   7.714  0.1601 -0.6385 -0.1280
 8834SOL    HW128509   1.844   8.076   7.749  0.3413  1.1848 -0.1469
 8834SOL    HW228510   1.698   8.068   7.790  0.4874 -0.6635  0.1149
 8835SOL     OW28511   9.863   8.835   7.121  0.6342  0.1907  0.0855
 8835SOL    HW128512   9.950   8.821   7.157  1.0250 -0.1228 -0.9389
 8835SOL    HW228513   9.870   8.806   7.030 -0.8076 -0.8412  0.2600
 8836SOL     OW28514   2.295  10.308   5.149  0.1161 -0.0390 -0.0616
 8836SOL    HW128515   2.390  10.300   5.137  0.5750  1.0296  2.2765
 8836SOL    HW228516   2.260  10.223   5.123  1.7473 -0.5795 -0.6282
 8837SOL     OW28517   8.550   8.117   4.771 -0.2559  0.1727 -0.4222
 8837SOL    HW128518   8.557   8.022   4.762 -0.6545  0.0904  0.0969
 8837SOL    HW228519   8.637   8.145   4.801 -0.2450 -0.0725 -0.2224
 8838SOL     OW28520  10.620   4.678   5.450 -0.2204 -0.4847 -0.1000
 8838SOL    HW128521  10.551   4.675   5.384  1.0469 -0.7324 -1.4608
 8838SOL    HW228522  10.639   4.586   5.469  1.0219 -0.4781 -1.1679
 8839SOL     OW28523   0.585   4.224   4.518  0.2083 -0.1842 -0.0152
 8839SOL    HW128524   0.633   4.149   4.553 -0.5015 -0.4536  0.4008
 8839SOL    HW228525   0.560   4.197   4.430  0.4092 -0.2283 -0.0589
 8840SOL     OW28526   2.703   6.389   2.683  0.1699  0.3711 -0.0126
 8840SOL    HW128527   2.792   6.353   2.685 -0.1699 -0.5923 -0.9036
 8840SOL    HW228528   2.695   6.437   2.766  1.6225  0.7702 -0.0651
 8841SOL     OW28529   6.654   3.770   5.187  0.2122  0.4494  0.4573
 8841SOL    HW128530   6.614   3.844   5.232  0.5145  0.8709  0.0460
 8841SOL    HW228531   6.587   3.702   5.188 -1.3031  1.7739 -1.9220
 8842SOL     OW28532   7.987   8.139  10.326  0.4618  0.2457 -0.2087
 8842SOL    HW128533   7.913   8.100  10.373  1.8860 -0.9123  1.1866
 8842SOL    HW228534   7.978   8.107  10.237  0.6049 -1.9327  0.4987
 8843SOL     OW28535   8.480   6.038   4.799 -0.1297  0.4412  0.3100
 8843SOL    HW128536   8.515   5.967   4.852  2.7914  3.2785  2.5434
 8843SOL    HW228537   8.543   6.048   4.728 -2.2610 -1.1218 -2.0136
 8844SOL     OW28538   1.698   6.003   1.107  0.1004 -0.0093 -0.4882
 8844SOL    HW128539   1.644   6.049   1.172  0.7116  0.6172 -0.4086
 8844SOL    HW228540   1.788   6.032   1.126  0.2087  0.8932 -2.1806
 8845SOL     OW28541   0.829   4.200   6.962 -0.1156 -0.0965 -0.2304
 8845SOL    HW128542   0.740   4.221   6.990 -0.7167  0.2601 -2.2477
 8845SOL    HW228543   0.882   4.272   6.994 -0.8138  0.4245 -0.2253
 8846SOL     OW28544   2.671   8.747   4.134  0.0945  0.0308 -0.0273
 8846SOL    HW128545   2.661   8.799   4.214  0.8884 -0.1343  0.1970
 8846SOL    HW228546   2.587   8.753   4.090 -0.1403  0.6771  0.4957
 8847SOL     OW28547   4.338   5.409   6.029  0.2806  0.2240  0.1370
 8847SOL    HW128548   4.428   5.439   6.015  0.9732 -1.0665  1.5650
 8847SOL    HW228549   4.290   5.489   6.053  1.1616  0.8311 -0.0830
 8848SOL     OW28550   0.234   3.967  10.554  0.1787  0.0909 -0.2004
 8848SOL    HW128551   0.229   3.901  10.485  0.9488 -1.4233  1.1498
 8848SOL    HW228552   0.143   3.991  10.570 -0.0260  0.3295 -1.5856
 8849SOL     OW28553   6.006   1.515   1.007  0.2190 -0.2123  0.1278
 8849SOL    HW128554   6.097   1.537   0.986  0.1702  0.1274  0.2640
 8849SOL    HW228555   5.995   1.426   0.974  1.0665 -0.8735  1.5268
 8850SOL     OW28556   2.443   1.468   1.449  0.9178 -0.0747  0.0710
 8850SOL    HW128557   2.481   1.536   1.504 -1.0171 -0.7012  2.3632
 8850SOL    HW228558   2.471   1.386   1.490  2.1311 -0.7079 -1.8826
 8851SOL     OW28559   7.510   0.927  10.037 -0.2804 -0.1383  0.4701
 8851SOL    HW128560   7.487   0.835  10.054  1.7194 -0.7714 -0.0607
 8851SOL    HW228561   7.463   0.948   9.956  0.8965 -1.3979 -0.5916
 8852SOL     OW28562  10.981   9.284   3.532  0.2397 -0.1617 -0.5768
 8852SOL    HW128563  10.901   9.320   3.493  0.5414  0.3882 -0.6952
 8852SOL    HW228564  11.047   9.293   3.464  0.4634 -0.4031 -0.3932
 8853SOL     OW28565   8.860   4.794  10.919  0.2822 -0.3981  0.0590
 8853SOL    HW128566   8.825   4.729  10.980 -0.1361  1.4178  1.8903
 8853SOL    HW228567   8.945   4.818  10.957  0.2736  0.3516 -0.3885
 8854SOL     OW28568   3.557   3.566   9.632 -0.5341  0.1654  0.1724
 8854SOL    HW128569   3.567   3.661   9.631 -0.6828  0.1923  0.8560
 8854SOL    HW228570   3.638   3.532   9.595 -0.7557  0.5750 -0.7099
 8855SOL     OW28571   6.778   4.470   8.770 -0.5590  0.0611  0.6298
 8855SOL    HW128572   6.832   4.391   8.775 -1.6120 -0.6588  0.9926
 8855SOL    HW228573   6.797   4.518   8.850  1.3452  1.0494 -0.3529
 8856SOL     OW28574   0.467  10.136   0.408  0.2915  0.2076 -0.0993
 8856SOL    HW128575   0.494  10.168   0.322  0.1179 -1.0066 -0.6258
 8856SOL    HW228576   0.498  10.202   0.469 -1.2754  2.1111 -1.2484
 8857SOL     OW28577   4.151  10.828   1.440 -0.0001 -0.1637 -0.3749
 8857SOL    HW128578   4.224  10.768   1.424  0.8071  0.7942 -0.4339
 8857SOL    HW228579   4.154  10.846   1.534  2.9242  3.5091 -0.9109
 8858SOL     OW28580   8.373   9.790   5.464 -0.5366 -0.7509 -0.0595
 8858SOL    HW128581   8.422   9.781   5.382 -1.7863  2.7792 -1.3877
 8858SOL    HW228582   8.427   9.848   5.517 -1.1469 -0.5286  0.3219
 8859SOL     OW28583   5.899   0.037   0.696  0.2265  0.0560 -0.3189
 8859SOL    HW128584   5.865   0.057   0.783 -0.7287  3.4505 -1.3105
 8859SOL    HW228585   5.993   0.049   0.703  0.1053  0.7843  0.1758
 8860SOL     OW28586  10.625   3.523   4.759 -0.2345 -0.0271  0.0509
 8860SOL    HW128587  10.553   3.544   4.700 -1.3207 -2.7890  0.2532
 8860SOL    HW228588  10.669   3.449   4.718  1.1517  0.2149  1.0375
 8861SOL     OW28589   7.873   3.478   2.629  0.1747  0.0817  0.1349
 8861SOL    HW128590   7.910   3.509   2.711 -1.3763  0.6042  0.6713
 8861SOL    HW228591   7.874   3.382   2.637  0.8128  0.1036  0.3886
 8862SOL     OW28592   6.811   9.980   5.814 -0.2362  0.1159 -0.1465
 8862SOL    HW128593   6.891  10.032   5.816 -0.4403  0.4222  0.3116
 8862SOL    HW228594   6.766  10.002   5.896 -0.6357 -0.2901 -0.2525
 8863SOL     OW28595  10.652   1.126   2.569  0.0394 -0.6579 -0.0642
 8863SOL    HW128596  10.664   1.043   2.523  1.1284 -1.6797  1.9269
 8863SOL    HW228597  10.557   1.135   2.578 -0.0940 -1.7734 -0.2058
 8864SOL     OW28598   7.673   3.125   2.237 -0.2731 -0.5453  0.6177
 8864SOL    HW128599   7.765   3.100   2.232 -0.6675 -1.8351 -1.5973
 8864SOL    HW228600   7.652   3.157   2.149 -1.5925  1.1421  1.4896
 8865SOL     OW28601   2.130   0.413   6.107  0.1483 -0.4985 -0.0642
 8865SOL    HW128602   2.096   0.413   6.197  1.4110  0.9366  0.4589
 8865SOL    HW228603   2.061   0.370   6.056 -0.5444 -1.4736  1.5917
 8866SOL     OW28604   5.539   6.187   2.294  0.1476 -0.5223  0.4113
 8866SOL    HW128605   5.579   6.231   2.370 -1.8268  2.9699 -0.3728
 8866SOL    HW228606   5.445   6.193   2.309 -0.3604  1.0115 -2.5671
 8867SOL     OW28607   4.252   3.451   8.240  0.0588  0.2362  0.7068
 8867SOL    HW128608   4.315   3.417   8.177 -1.6444 -1.6476 -0.0691
 8867SOL    HW228609   4.175   3.395   8.231 -1.6866  2.2869  1.7599
 8868SOL     OW28610   6.097   5.700   2.238  0.6888  0.5506 -0.3459
 8868SOL    HW128611   6.026   5.636   2.245  0.1934  1.1013 -0.2592
 8868SOL    HW228612   6.175   5.647   2.219  0.4328 -0.1471  0.4636
 8869SOL     OW28613   2.424  10.163   5.858 -0.0824  1.0131 -0.3505
 8869SOL    HW128614   2.487  10.234   5.852 -0.6179  1.4022 -2.2754
 8869SOL    HW228615   2.463  10.100   5.918  1.1197  2.2121  0.1663
 8870SOL     OW28616   2.703   1.366   4.204  0.4363 -0.0969 -0.0908
 8870SOL    HW128617   2.609   1.349   4.202  0.0826  1.6666 -1.1298
 8870SOL    HW228618   2.743   1.281   4.221 -1.3832 -0.6344  1.8308
 8871SOL     OW28619   0.318   3.107   4.907  0.0452 -0.3764  0.6574
 8871SOL    HW128620   0.371   3.150   4.974  0.6882 -0.1891  0.0506
 8871SOL    HW228621   0.332   3.013   4.923 -1.3310 -0.3800  1.9560
 8872SOL     OW28622   4.725   8.843   2.478 -0.1088  0.0514  0.4893
 8872SOL    HW128623   4.649   8.797   2.442 -0.8722  1.4725  0.2394
 8872SOL    HW228624   4.695   8.878   2.562  0.0383  1.2197  0.0701
 8873SOL     OW28625   5.624   5.445   0.157  0.0579  0.2431  0.0500
 8873SOL    HW128626   5.564   5.373   0.138  0.0035 -0.0663  1.3444
 8873SOL    HW228627   5.599   5.476   0.243  2.3558 -0.5463  1.0964
 8874SOL     OW28628   3.376   4.838  10.176 -0.0583 -0.2668  0.3508
 8874SOL    HW128629   3.420   4.870  10.255  0.0393 -0.3826  0.3452
 8874SOL    HW228630   3.320   4.767  10.207 -2.0418  1.3827  0.7284
 8875SOL     OW28631   4.014   2.331   7.864  0.1740  0.8530 -0.2131
 8875SOL    HW128632   3.978   2.406   7.910  2.7744  1.6860  0.5919
 8875SOL    HW228633   4.005   2.353   7.771 -2.9515  0.1798 -0.2012
 8876SOL     OW28634  10.046   1.693   9.415  0.4860 -0.7081 -0.5707
 8876SOL    HW128635   9.957   1.685   9.449  0.7478 -1.7187 -0.1004
 8876SOL    HW228636  10.043   1.772   9.360 -0.0581  0.7335  1.4037
 8877SOL     OW28637   9.500  10.010   6.514  0.3955  0.0626  0.5497
 8877SOL    HW128638   9.486  10.024   6.421 -1.0417 -0.9487  0.5822
 8877SOL    HW228639   9.415   9.983   6.548  1.2258 -1.0719  1.8732
 8878SOL     OW28640   8.478   4.616   8.661 -0.2392  0.3336  0.0778
 8878SOL    HW128641   8.464   4.705   8.695 -0.0671  0.7487 -0.8892
 8878SOL    HW228642   8.549   4.581   8.714  0.5529  1.2552 -0.3318
 8879SOL     OW28643   1.066   0.808   3.684 -0.1366 -0.0906 -0.2447
 8879SOL    HW128644   1.036   0.898   3.680 -1.3432 -0.3496  1.6905
 8879SOL    HW228645   1.030   0.767   3.605 -2.2119  0.3997  0.4022
 8880SOL     OW28646   0.390   8.779   1.944  0.6632  0.0434  0.4987
 8880SOL    HW128647   0.400   8.793   1.850 -1.0675 -0.4621  0.2010
 8880SOL    HW228648   0.307   8.822   1.966  0.3449 -1.0383  1.5153
 8881SOL     OW28649   5.335   5.112   4.349  0.5190  0.1103  0.1218
 8881SOL    HW128650   5.348   5.067   4.265 -1.7566 -0.9162  0.2293
 8881SOL    HW228651   5.251   5.079   4.381  0.6952  1.4611  2.2017
 8882SOL     OW28652   4.321   1.635   9.543  0.2686  0.1929  0.0450
 8882SOL    HW128653   4.366   1.575   9.483 -1.0795 -0.6707 -0.1315
 8882SOL    HW228654   4.264   1.687   9.486  1.8546  2.1300  0.1116
 8883SOL     OW28655   2.345   9.804   6.260  0.3890  0.0283 -0.4685
 8883SOL    HW128656   2.300   9.731   6.217  1.0972 -0.3009 -0.6800
 8883SOL    HW228657   2.275   9.859   6.295 -0.1554 -1.3493  0.7225
 8884SOL     OW28658   6.899  10.554   4.444 -0.0178  0.0408  0.0816
 8884SOL    HW128659   6.813  10.532   4.407  0.7472 -1.1770 -1.0670
 8884SOL    HW228660   6.958  10.551   4.369  0.9826  1.2463  0.7907
 8885SOL     OW28661   4.800   5.243   0.445  0.0605  0.1267  0.7570
 8885SOL    HW128662   4.791   5.335   0.470 -0.3113  0.0840  0.7889
 8885SOL    HW228663   4.731   5.229   0.380 -0.0452 -0.1889  0.9330
 8886SOL     OW28664   9.637  10.676   5.816  0.2486 -0.4877  0.5299
 8886SOL    HW128665   9.634  10.771   5.815 -0.1967 -0.5002  0.1070
 8886SOL    HW228666   9.636  10.651   5.723 -0.0871 -0.9160  0.6440
 8887SOL     OW28667   1.957   6.270   2.808 -0.1850 -0.0846 -0.2606
 8887SOL    HW128668   1.920   6.319   2.734 -2.5533  0.2919  1.0713
 8887SOL    HW228669   1.921   6.182   2.798 -0.9384  0.1067  0.7077
 8888SOL     OW28670   1.204   1.610   7.616 -0.7681 -0.1186  0.2064
 8888SOL    HW128671   1.158   1.526   7.630  0.0054 -0.6010 -0.1143
 8888SOL    HW228672   1.159   1.671   7.674 -0.6886 -0.9969  1.2211
 8889SOL     OW28673   8.067  10.824   2.625  0.0513 -0.1577 -0.4981
 8889SOL    HW128674   8.107  10.890   2.683  1.0513 -1.5343  0.4651
 8889SOL    HW228675   7.997  10.786   2.677 -0.4306  0.0288 -1.0002
 8890SOL     OW28676   2.361   9.559   0.928  0.6796  0.0393 -0.7337
 8890SOL    HW128677   2.285   9.510   0.898  0.9449 -0.7656 -0.1232
 8890SOL    HW228678   2.435   9.499   0.915  0.9433  0.0673  0.5102
 8891SOL     OW28679   6.666   9.704  10.869 -0.1331 -0.2121  0.4575
 8891SOL    HW128680   6.634   9.688  10.780 -0.8030 -1.3257  0.8763
 8891SOL    HW228681   6.762   9.702  10.861 -0.1839  0.2890 -0.3292
 8892SOL     OW28682   0.445  10.778   5.129 -0.1117 -0.3007  0.2134
 8892SOL    HW128683   0.534  10.780   5.164 -0.6018 -1.0563  1.5543
 8892SOL    HW228684   0.457  10.775   5.034  1.2774  0.2623  0.3491
 8893SOL     OW28685   6.073   9.965   0.173  0.8015 -0.3180  0.4780
 8893SOL    HW128686   6.120   9.904   0.229  0.3986 -1.0585  0.0147
 8893SOL    HW228687   6.002   9.914   0.134  1.4955 -0.0099 -1.2778
 8894SOL     OW28688   1.893  11.000   9.534  0.1060 -0.3225  0.0410
 8894SOL    HW128689   1.819  11.028   9.587  0.8740  0.2048  0.8759
 8894SOL    HW228690   1.859  10.996   9.444 -1.1355 -0.9307  0.5178
 8895SOL     OW28691   8.911   9.840   0.979  0.0272 -0.5074  0.0854
 8895SOL    HW128692   8.961   9.773   1.026 -0.2449  0.1768  1.4131
 8895SOL    HW228693   8.830   9.850   1.030  1.1850  2.7082  1.5742
 8896SOL     OW28694   8.706   8.052   1.152  0.4126  0.1064 -0.5663
 8896SOL    HW128695   8.775   7.987   1.164  0.7556  0.0428 -2.4386
 8896SOL    HW228696   8.752   8.136   1.150  0.2167  0.2268 -0.1130
 8897SOL     OW28697   1.296   3.467   1.818 -0.1975  0.7412 -0.6559
 8897SOL    HW128698   1.202   3.482   1.822 -0.0874  1.2723  0.1185
 8897SOL    HW228699   1.310   3.423   1.734 -1.2720 -0.3577 -0.2917
 8898SOL     OW28700   7.198   4.306   6.662  0.0930 -0.1506  0.0726
 8898SOL    HW128701   7.246   4.270   6.587 -0.4995 -1.6599  0.3727
 8898SOL    HW228702   7.126   4.356   6.624  0.8062  0.5679 -0.3622
 8899SOL     OW28703   5.689   1.497  11.017  0.2293 -0.6032  0.3562
 8899SOL    HW128704   5.637   1.576  11.004  0.6008  0.0684  2.5970
 8899SOL    HW228705   5.780   1.527  11.015  0.3735 -0.9621  1.2546
 8900SOL     OW28706   6.113   0.324   0.473  0.0058 -0.4269 -0.0276
 8900SOL    HW128707   6.176   0.268   0.426  0.7678  0.2869  0.1189
 8900SOL    HW228708   6.041   0.336   0.412  1.1370  0.7764 -1.1933
 8901SOL     OW28709   2.294   6.238   7.458 -0.4007  0.5148  0.2355
 8901SOL    HW128710   2.265   6.294   7.386  1.1943  0.3976 -0.5277
 8901SOL    HW228711   2.304   6.298   7.532 -1.0244  0.8099  0.0945
 8902SOL     OW28712   3.024   5.504   0.180 -0.1803 -0.0727 -0.0405
 8902SOL    HW128713   3.056   5.519   0.269  0.8515 -0.4616 -0.3264
 8902SOL    HW228714   2.961   5.574   0.165 -2.2070 -1.3610  1.8350
 8903SOL     OW28715  10.021   0.179   1.757 -0.5290 -0.0573  0.0424
 8903SOL    HW128716  10.038   0.109   1.694 -1.2894 -2.1984  2.0887
 8903SOL    HW228717  10.093   0.173   1.820 -1.0433  0.4779  0.6970
 8904SOL     OW28718   7.486   8.143   1.745  0.0653 -0.3132  0.6120
 8904SOL    HW128719   7.561   8.115   1.798  0.2809  0.0315  0.4907
 8904SOL    HW228720   7.473   8.072   1.682  1.5354  0.4759 -0.6541
 8905SOL     OW28721   1.597  10.267   3.665  0.0634  0.0871 -0.1623
 8905SOL    HW128722   1.599  10.327   3.740  1.5900 -1.5029  1.1478
 8905SOL    HW228723   1.666  10.300   3.607  2.6070 -1.6507  1.6831
 8906SOL     OW28724   0.908   8.856   4.393  0.0636  0.3432 -0.2491
 8906SOL    HW128725   0.914   8.899   4.308 -0.8612  1.1494  0.0806
 8906SOL    HW228726   0.816   8.832   4.401  0.6773 -2.7974 -0.9242
 8907SOL     OW28727   6.001  10.727  10.773 -0.2205 -0.0103 -0.3029
 8907SOL    HW128728   5.984  10.820  10.767  0.5403  0.0681 -1.6834
 8907SOL    HW228729   6.094  10.717  10.748 -0.5587 -1.2071 -1.2396
 8908SOL     OW28730   1.926   4.467   4.755 -0.0609  0.1057 -0.0314
 8908SOL    HW128731   1.897   4.384   4.793  2.6516 -1.2856 -0.7720
 8908SOL    HW228732   1.859   4.487   4.689 -1.1424 -1.0913  0.6396
 8909SOL     OW28733   7.159   8.509   5.262  0.3388  0.4621 -0.3121
 8909SOL    HW128734   7.070   8.539   5.281 -0.2577  1.9231 -4.2838
 8909SOL    HW228735   7.216   8.578   5.296 -0.2112  0.6290  0.2904
 8910SOL     OW28736   9.508   4.368   7.531 -0.0100 -0.1622  0.0642
 8910SOL    HW128737   9.540   4.458   7.542  1.1134 -0.6303  0.8007
 8910SOL    HW228738   9.493   4.360   7.436  1.2906  0.3565 -0.2143
 8911SOL     OW28739   8.929   8.782  10.701  0.0659  0.0222  0.4984
 8911SOL    HW128740   8.877   8.707  10.671  0.8140  0.1079 -1.1360
 8911SOL    HW228741   8.881   8.858  10.668  0.1154  0.1920  0.8225
 8912SOL     OW28742   1.340   5.188   4.494 -0.1623  0.5096  0.0054
 8912SOL    HW128743   1.283   5.237   4.434  0.1495  2.0847  0.9350
 8912SOL    HW228744   1.384   5.256   4.545  0.2140 -0.7745  1.4449
 8913SOL     OW28745   0.724  10.708   6.247 -0.1996  0.3422  0.1539
 8913SOL    HW128746   0.807  10.754   6.233  0.0815 -0.3932 -0.6633
 8913SOL    HW228747   0.711  10.711   6.342  1.8080 -1.3262  0.5640
 8914SOL     OW28748   3.857   0.830   6.479 -0.1377  0.2936 -0.0423
 8914SOL    HW128749   3.936   0.871   6.446 -0.2314  0.1104 -0.5002
 8914SOL    HW228750   3.793   0.838   6.408 -0.3081 -0.2020  0.0445
 8915SOL     OW28751   0.261   4.027   8.795 -0.6572 -0.0544 -0.3075
 8915SOL    HW128752   0.300   3.994   8.714 -2.0593  1.3172 -1.5890
 8915SOL    HW228753   0.324   4.092   8.827 -0.4947  0.0165 -0.7646
 8916SOL     OW28754   8.344   1.675   2.089 -0.1808  0.4231 -0.3779
 8916SOL    HW128755   8.381   1.682   2.177 -1.4868 -1.4685  0.3949
 8916SOL    HW228756   8.252   1.699   2.099  0.0670  2.1190 -1.6730
 8917SOL     OW28757   7.128   7.962  10.682  0.5696 -0.2888  0.2442
 8917SOL    HW128758   7.082   7.992  10.761 -0.2732 -0.0317 -0.3333
 8917SOL    HW228759   7.065   7.907  10.637  1.1636 -0.6941 -0.0998
 8918SOL     OW28760   7.185   6.483   8.633  0.2105  0.2086 -0.1089
 8918SOL    HW128761   7.183   6.387   8.637  0.8092  0.1915 -0.0343
 8918SOL    HW228762   7.251   6.502   8.566 -0.2279  0.5681 -0.4388
 8919SOL     OW28763   4.749   1.488   2.008  0.5916 -0.3227  0.1592
 8919SOL    HW128764   4.822   1.440   2.046  1.0248  0.1997  0.0040
 8919SOL    HW228765   4.736   1.447   1.922  0.4114 -0.6963  0.3585
 8920SOL     OW28766   4.635   8.075   5.528 -0.0614 -0.0812 -0.0308
 8920SOL    HW128767   4.697   8.005   5.549  0.0183 -0.0782 -0.2607
 8920SOL    HW228768   4.682   8.131   5.467  0.2900  0.8032  1.0203
 8921SOL     OW28769   4.945   6.987   9.328 -0.3383 -0.1229 -0.0828
 8921SOL    HW128770   4.939   7.078   9.356 -0.4401 -0.1225 -0.1044
 8921SOL    HW228771   5.008   6.988   9.256 -0.2356 -0.0912  0.0086
 8922SOL     OW28772   5.412   2.395   9.315 -0.4654  0.0322 -0.2012
 8922SOL    HW128773   5.398   2.460   9.384  1.3283 -0.1808  0.4006
 8922SOL    HW228774   5.450   2.445   9.242 -1.8185  0.1499 -0.8608
 8923SOL     OW28775   0.057   5.143   6.601 -0.5786 -0.0360 -0.2252
 8923SOL    HW128776   0.028   5.202   6.670 -1.6064 -0.6370 -0.1212
 8923SOL    HW228777  -0.023   5.125   6.551  0.1804  0.5920 -1.7403
 8924SOL     OW28778  10.449   9.773   9.903 -0.0458  0.5477 -0.4552
 8924SOL    HW128779  10.371   9.719   9.893  0.9582 -1.2369  0.9528
 8924SOL    HW228780  10.498   9.759   9.822 -0.0845 -0.1778 -0.3585
 8925SOL     OW28781   3.932   4.423   4.280 -0.3250  0.4255  0.4779
 8925SOL    HW128782   4.006   4.387   4.328  0.0491 -0.6338 -0.8169
 8925SOL    HW228783   3.928   4.370   4.200 -0.6968  2.3108 -0.8138
 8926SOL     OW28784   9.995   9.259   4.302  0.3922  0.2066 -0.5899
 8926SOL    HW128785   9.964   9.276   4.391 -0.8651 -1.1841 -0.7297
 8926SOL    HW228786   9.974   9.167   4.286  0.5286  0.4458 -2.3546
 8927SOL     OW28787   7.281   7.711   8.644 -0.4063 -0.2848 -0.2819
 8927SOL    HW128788   7.224   7.677   8.713  0.4927 -0.3945  0.4239
 8927SOL    HW228789   7.321   7.789   8.682  0.7185 -0.8008 -0.3603
 8928SOL     OW28790   2.768   0.997   8.672 -0.1027 -0.3395 -0.1120
 8928SOL    HW128791   2.733   0.908   8.679 -0.3101 -0.4191 -1.8238
 8928SOL    HW228792   2.842   0.989   8.612  0.8829  0.4006  0.9385
 8929SOL     OW28793   8.545   9.397   6.928 -0.7097 -0.1737  0.0121
 8929SOL    HW128794   8.591   9.369   6.849  0.9113 -0.8638  1.1169
 8929SOL    HW228795   8.498   9.476   6.903  2.1942  1.4167 -0.9643
 8930SOL     OW28796   1.298   0.155   4.244  0.5636  0.0794  0.1882
 8930SOL    HW128797   1.208   0.143   4.273  0.0429  0.9754 -0.9816
 8930SOL    HW228798   1.349   0.161   4.325 -0.5240  0.2668  0.8716
 8931SOL     OW28799   1.290   9.976   2.842  0.4528  0.6834 -0.1353
 8931SOL    HW128800   1.271   9.899   2.896  0.4797 -2.4403 -4.0943
 8931SOL    HW228801   1.384   9.974   2.828  0.2972  0.6562 -1.2747
 8932SOL     OW28802   7.863  10.075   3.551  0.4145 -0.3239  0.0649
 8932SOL    HW128803   7.911   9.998   3.582 -2.4226 -1.6074  1.6392
 8932SOL    HW228804   7.851  10.060   3.457 -1.5044 -2.7362  0.6152
 8933SOL     OW28805   5.175   6.877   7.134 -0.2142  0.0338  0.1615
 8933SOL    HW128806   5.252   6.866   7.077 -0.8551 -1.4198 -0.4708
 8933SOL    HW228807   5.122   6.800   7.117 -1.8561  1.0413  0.5438
 8934SOL     OW28808   5.747   7.941  10.915 -0.3313 -0.0766  0.3798
 8934SOL    HW128809   5.693   7.942  10.994 -0.8953 -0.7950  0.0104
 8934SOL    HW228810   5.700   7.997  10.853 -0.1713  0.0353  0.3565
 8935SOL     OW28811   6.671   0.708   5.555  0.0163 -0.1208 -0.4672
 8935SOL    HW128812   6.585   0.720   5.514  0.0271  1.0975 -0.1900
 8935SOL    HW228813   6.732   0.753   5.497  0.3754 -0.4414 -0.3403
 8936SOL     OW28814   6.167   0.115   7.167 -0.3298 -0.1346  0.0296
 8936SOL    HW128815   6.186   0.204   7.198 -1.8367 -0.1690  1.1254
 8936SOL    HW228816   6.161   0.063   7.247 -1.7320 -0.7577 -0.4641
 8937SOL     OW28817   3.463   6.317  10.515 -0.0866 -0.1811 -0.3392
 8937SOL    HW128818   3.461   6.380  10.587  0.7209  0.3358 -0.7501
 8937SOL    HW228819   3.426   6.237  10.552 -1.1691  0.5342  0.1828
 8938SOL     OW28820   9.852   9.139   4.017  0.0316  0.2133 -0.3614
 8938SOL    HW128821   9.883   9.097   4.097 -0.8896 -0.5142 -0.3680
 8938SOL    HW228822   9.758   9.118   4.013 -0.6257  2.8264 -0.0395
 8939SOL     OW28823   2.765   7.165  10.453  0.1513  0.2661 -0.3910
 8939SOL    HW128824   2.847   7.206  10.424  0.5594 -0.4986 -0.3435
 8939SOL    HW228825   2.705   7.176  10.379  0.4742  0.3310 -0.6439
 8940SOL     OW28826   0.753   5.345  11.015  0.1394  0.1462  0.1140
 8940SOL    HW128827   0.798   5.262  11.024 -3.6325 -2.4491 -2.2487
 8940SOL    HW228828   0.688   5.346  11.086 -1.1233  0.0558 -0.9968
 8941SOL     OW28829   6.336   8.055   0.789  0.1385  0.0287 -0.5311
 8941SOL    HW128830   6.302   8.007   0.865  2.1419 -0.2135  0.2712
 8941SOL    HW228831   6.427   8.026   0.780  0.4327  1.2405 -2.0660
 8942SOL     OW28832   0.675   5.086   8.795  0.2925 -0.0135  0.5708
 8942SOL    HW128833   0.723   5.016   8.751  0.5082  0.3523  0.2168
 8942SOL    HW228834   0.624   5.042   8.862  0.9659 -0.4333  0.8147
 8943SOL     OW28835   5.715   7.526   5.615  0.5808 -0.1167 -0.5365
 8943SOL    HW128836   5.741   7.488   5.531 -1.1878  0.9564 -1.6519
 8943SOL    HW228837   5.667   7.456   5.659  1.3112 -0.6100 -0.4957
 8944SOL     OW28838   7.604   1.453   3.918  0.7884  0.6752  0.4626
 8944SOL    HW128839   7.648   1.533   3.945 -0.5714  2.8705 -3.0168
 8944SOL    HW228840   7.511   1.477   3.915  0.2633 -1.2381 -0.0328
 8945SOL     OW28841   1.596   8.662   2.945 -0.2484  0.3440 -0.5185
 8945SOL    HW128842   1.534   8.707   3.004 -0.4795  0.9736 -1.2264
 8945SOL    HW228843   1.598   8.572   2.977 -0.4278  0.6544  0.4108
 8946SOL     OW28844   9.750   1.872   3.286  0.5733  0.3603 -0.2624
 8946SOL    HW128845   9.755   1.920   3.368  1.8889 -0.5932  0.2558
 8946SOL    HW228846   9.665   1.828   3.290  1.5103 -1.4814  1.6967
 8947SOL     OW28847   2.237   4.185   4.872  0.4649  0.2108 -0.3777
 8947SOL    HW128848   2.242   4.231   4.956  1.3256  1.3490 -1.0374
 8947SOL    HW228849   2.287   4.105   4.886  0.5759  0.3741  0.2035
 8948SOL     OW28850   2.957   8.700   1.978  0.7658 -0.1096 -0.1715
 8948SOL    HW128851   2.922   8.614   2.001  0.0580 -0.0200 -0.8394
 8948SOL    HW228852   2.883   8.759   1.991  0.3169 -0.0498 -2.4976
 8949SOL     OW28853   4.696   1.110   1.439  0.9091 -0.3112  0.3553
 8949SOL    HW128854   4.738   1.193   1.460  0.8784 -0.0660 -0.5309
 8949SOL    HW228855   4.602   1.126   1.452  0.8903 -0.1591  0.0456
 8950SOL     OW28856   8.749   5.278   4.127  0.3555  0.2605  0.0899
 8950SOL    HW128857   8.740   5.272   4.223  1.5647  0.5196  0.2367
 8950SOL    HW228858   8.757   5.371   4.109 -0.9005  0.2874 -0.3826
 8951SOL     OW28859   0.774   9.068   5.099 -0.1040  0.7182  0.0800
 8951SOL    HW128860   0.796   8.981   5.063  1.3228  1.3979 -0.8145
 8951SOL    HW228861   0.742   9.117   5.023 -0.0844  1.2229  0.3985
 8952SOL     OW28862   6.550   0.730   3.582  0.2024 -0.4326  0.1839
 8952SOL    HW128863   6.511   0.725   3.670 -0.8449 -0.8190 -0.2927
 8952SOL    HW228864   6.607   0.806   3.587  0.1217 -0.4127  1.1927
 8953SOL     OW28865   2.864   1.113   2.219 -0.0988 -0.4563 -0.2440
 8953SOL    HW128866   2.799   1.046   2.241 -0.7299  0.0613 -0.5198
 8953SOL    HW228867   2.936   1.098   2.281 -1.6386  0.7090  1.9465
 8954SOL     OW28868   4.322  10.805   0.258 -0.2473 -0.4409  0.1537
 8954SOL    HW128869   4.325  10.883   0.203  0.7843 -1.3393 -1.1374
 8954SOL    HW228870   4.404  10.807   0.307 -0.4632 -0.4302  0.5161
 8955SOL     OW28871   0.044   0.596   2.863 -0.0329 -0.2770 -0.2418
 8955SOL    HW128872   0.137   0.600   2.842 -0.1903  0.0063 -0.9071
 8955SOL    HW228873   0.029   0.671   2.921  0.1583 -0.3425 -0.1080
 8956SOL     OW28874   4.832   7.207   3.564 -0.8648 -1.1302 -0.5788
 8956SOL    HW128875   4.842   7.126   3.615  0.2729 -0.8639 -0.3458
 8956SOL    HW228876   4.743   7.203   3.530 -0.7796 -2.5731 -0.7121
 8957SOL     OW28877   1.163   9.295   3.278  0.7329 -0.4164  0.2639
 8957SOL    HW128878   1.100   9.303   3.206  1.0994 -0.1807 -0.0364
 8957SOL    HW228879   1.207   9.380   3.281 -0.0392 -0.0454  1.4936
 8958SOL     OW28880   5.240   9.519  10.374  0.3387 -0.0846  0.2178
 8958SOL    HW128881   5.160   9.549  10.331  1.1435  0.7467 -0.7527
 8958SOL    HW228882   5.233   9.552  10.464 -1.5417 -2.1713  0.9252
 8959SOL     OW28883   3.108   4.728   0.145  0.2045  0.2147  0.4078
 8959SOL    HW128884   3.114   4.823   0.141  1.2056  0.1009 -2.1295
 8959SOL    HW228885   3.022   4.707   0.107  1.0147  0.0252 -1.3745
 8960SOL     OW28886   0.244   8.521   8.168  0.1593  0.1320  0.2716
 8960SOL    HW128887   0.326   8.503   8.123  0.0517  0.4340 -0.0533
 8960SOL    HW228888   0.176   8.505   8.102 -0.2162 -2.2656  1.1325
 8961SOL     OW28889   4.630   0.868  10.326 -0.1221  0.3312  0.3626
 8961SOL    HW128890   4.612   0.960  10.348  0.3445  0.8689 -1.3144
 8961SOL    HW228891   4.705   0.872  10.267 -1.2411 -0.9290 -1.2538
 8962SOL     OW28892   0.123   9.826   4.663  0.4569 -0.2697  0.5875
 8962SOL    HW128893   0.066   9.854   4.734  1.2568 -0.8762  1.4834
 8962SOL    HW228894   0.086   9.743   4.633  0.1795 -0.0644  0.3594
 8963SOL     OW28895   9.701   5.041   6.871  0.2294  0.6323  0.1301
 8963SOL    HW128896   9.732   5.082   6.791 -1.7564  0.0630 -1.0221
 8963SOL    HW228897   9.677   5.114   6.928 -0.9326  1.1127 -0.9212
 8964SOL     OW28898   2.793   3.562   1.448 -0.1750  0.8204  0.4880
 8964SOL    HW128899   2.757   3.575   1.361  0.5494  0.5807  0.1422
 8964SOL    HW228900   2.756   3.634   1.500 -0.2373  1.2479 -0.1317
 8965SOL     OW28901   4.471   0.981  11.024 -0.1125  0.8855 -0.6461
 8965SOL    HW128902   4.401   1.038  10.990  0.9259  2.0635 -0.8951
 8965SOL    HW228903   4.552   1.024  10.997  0.7557 -1.5095 -2.1251
 8966SOL     OW28904   7.830   1.998   4.028 -0.1092  0.5610  0.1648
 8966SOL    HW128905   7.919   2.021   4.053  0.1278 -0.4597  0.3111
 8966SOL    HW228906   7.832   1.994   3.932  0.5316 -1.3322  0.2042
 8967SOL     OW28907   5.784   6.913   1.223 -0.3330 -0.5078  0.0446
 8967SOL    HW128908   5.843   6.881   1.291 -1.2113 -0.0668  1.0490
 8967SOL    HW228909   5.697   6.891   1.255 -0.7489 -0.5841 -1.1077
 8968SOL     OW28910   2.131   6.737   8.508 -0.2054  0.6771  0.2012
 8968SOL    HW128911   2.213   6.738   8.557 -0.9258  0.9412  1.4697
 8968SOL    HW228912   2.124   6.648   8.473  0.9924  0.8868 -0.6120
 8969SOL     OW28913   6.081   3.147   7.682 -0.5355 -0.4181 -0.1632
 8969SOL    HW128914   6.149   3.086   7.709 -0.4104 -0.4792 -0.6173
 8969SOL    HW228915   6.000   3.111   7.719 -0.5090 -1.0213 -0.6742
 8970SOL     OW28916   8.935   9.891   7.276  0.1600 -0.1702  0.6092
 8970SOL    HW128917   8.937   9.973   7.226  0.2360 -1.4871 -1.7068
 8970SOL    HW228918   9.028   9.871   7.291  0.2778 -0.9125 -0.8528
 8971SOL     OW28919   7.309   4.482   2.063 -0.0673 -0.1763  0.2596
 8971SOL    HW128920   7.394   4.469   2.105 -0.3044  0.1667  0.8568
 8971SOL    HW228921   7.270   4.395   2.060  0.4329 -0.3887 -0.3083
 8972SOL     OW28922   7.508   6.026   5.160  0.1940 -0.0123 -0.0699
 8972SOL    HW128923   7.593   5.984   5.147  0.2440 -0.4494  1.4790
 8972SOL    HW228924   7.527   6.120   5.159  0.5453 -0.0851 -0.6263
 8973SOL     OW28925   3.960   7.532   4.286 -0.4097 -0.0541 -0.3146
 8973SOL    HW128926   3.932   7.569   4.202 -1.3392  0.1045  0.0461
 8973SOL    HW228927   4.035   7.584   4.312  0.1988 -0.4260 -1.2854
 8974SOL     OW28928   1.200   9.926   7.124  0.0510 -0.2279 -0.5311
 8974SOL    HW128929   1.277   9.870   7.129 -0.6880 -1.1064  2.1483
 8974SOL    HW228930   1.216   9.996   7.187 -0.5996  0.6125 -1.2558
 8975SOL     OW28931   2.638   8.473   6.382 -0.0090 -0.0148 -0.0923
 8975SOL    HW128932   2.710   8.527   6.348  0.9222 -2.1477 -1.7666
 8975SOL    HW228933   2.622   8.507   6.470  1.6685  1.8345 -0.4257
 8976SOL     OW28934  10.576   2.010   4.042  0.5049 -0.0144  0.3697
 8976SOL    HW128935  10.627   2.089   4.023 -0.0470  0.1729 -0.4145
 8976SOL    HW228936  10.521   1.998   3.964  0.1980 -0.8728  0.7038
 8977SOL     OW28937   2.496   3.080  10.164  0.3814  0.0037  0.2629
 8977SOL    HW128938   2.463   3.101  10.251  0.7617 -0.2687  0.4686
 8977SOL    HW228939   2.512   2.986  10.166 -1.4620 -0.3877 -0.7108
 8978SOL     OW28940   4.157  10.786   2.311  0.2389 -0.2639 -0.1141
 8978SOL    HW128941   4.184  10.842   2.383  0.8381 -0.4180 -0.2142
 8978SOL    HW228942   4.107  10.716   2.352 -1.4391  0.8910 -0.0886
 8979SOL     OW28943   8.612   4.629   4.758 -0.4074  0.1211  0.2524
 8979SOL    HW128944   8.603   4.544   4.715 -0.2455  1.0719 -1.7303
 8979SOL    HW228945   8.681   4.615   4.823  0.2858 -1.0162 -0.6854
 8980SOL     OW28946   7.480   7.793   6.427  0.1082  0.2443  0.0836
 8980SOL    HW128947   7.475   7.880   6.386  1.4032 -0.1893 -1.0952
 8980SOL    HW228948   7.559   7.797   6.481 -0.7092  0.2857  1.3135
 8981SOL     OW28949   1.631   0.158   3.185 -0.5267 -0.0269 -0.3324
 8981SOL    HW128950   1.633   0.098   3.109  2.7179 -0.2707 -0.1948
 8981SOL    HW228951   1.645   0.245   3.147  0.3506 -0.0602 -0.1048
 8982SOL     OW28952   6.859   3.682   0.751  0.4717  0.2218 -0.2763
 8982SOL    HW128953   6.791   3.688   0.685  0.1655  1.9490  0.1464
 8982SOL    HW228954   6.844   3.758   0.808  2.6221  0.5301 -0.0542
 8983SOL     OW28955   8.075  10.750   9.807  0.8391  0.5283 -0.2210
 8983SOL    HW128956   8.056  10.756   9.714  1.7493 -1.2318 -0.5716
 8983SOL    HW228957   8.160  10.791   9.818 -0.3285  3.0085  0.3283
 8984SOL     OW28958   0.540   9.633   2.631  0.0045  0.0961 -0.4162
 8984SOL    HW128959   0.448   9.629   2.607 -0.2168  1.8374  0.0190
 8984SOL    HW228960   0.580   9.688   2.564  1.3780 -2.8917 -2.2777
 8985SOL     OW28961   7.684   4.158   8.741  0.3559  0.3939 -0.0544
 8985SOL    HW128962   7.616   4.127   8.681  1.6538 -0.1847 -1.3013
 8985SOL    HW228963   7.658   4.247   8.764 -1.0130  0.0475 -0.1720
 8986SOL     OW28964   6.525   9.648   8.237 -0.3844  0.5065 -0.0071
 8986SOL    HW128965   6.550   9.558   8.257 -0.7134 -0.0023 -1.6861
 8986SOL    HW228966   6.550   9.699   8.314 -0.0443 -0.9951  0.8941
 8987SOL     OW28967   5.670   9.048   0.556 -0.6269  0.0181  0.5687
 8987SOL    HW128968   5.684   9.142   0.547  1.5732 -0.2399  0.9010
 8987SOL    HW228969   5.678   9.014   0.467  1.4760 -0.1615  0.7830
 8988SOL     OW28970   0.214   5.307   8.847  0.0368  0.1076 -0.7324
 8988SOL    HW128971   0.259   5.385   8.815 -0.4639  0.6460 -0.1698
 8988SOL    HW228972   0.122   5.334   8.854  0.3633  0.8427  3.3152
 8989SOL     OW28973   2.322   0.686   4.023  0.5836  0.0091  0.4425
 8989SOL    HW128974   2.336   0.769   4.067 -0.6507 -0.6475  2.2195
 8989SOL    HW228975   2.236   0.657   4.054  1.1182 -2.0747  0.1663
 8990SOL     OW28976   0.913   1.535   0.543 -0.5535  0.0527  0.3437
 8990SOL    HW128977   0.911   1.484   0.462 -0.9205 -0.6094  0.7618
 8990SOL    HW228978   0.837   1.594   0.537 -0.0356  0.6796 -0.2120
 8991SOL     OW28979   1.239   8.381  10.219  0.2473 -0.0078 -0.0489
 8991SOL    HW128980   1.174   8.342  10.276  0.9388 -0.5893  0.3680
 8991SOL    HW228981   1.259   8.466  10.259 -0.6421  0.4085 -0.4823
 8992SOL     OW28982   7.232   3.145   2.178 -0.7470 -0.4722 -0.6847
 8992SOL    HW128983   7.210   3.232   2.209 -1.3259 -1.5992  2.4336
 8992SOL    HW228984   7.151   3.110   2.142 -2.2186 -1.6150  3.2266
 8993SOL     OW28985   3.731   6.686   2.592 -0.4976 -0.2588 -0.3895
 8993SOL    HW128986   3.756   6.757   2.651 -1.3023 -0.5051  0.2552
 8993SOL    HW228987   3.809   6.630   2.588  0.0532  0.5013 -0.6958
 8994SOL     OW28988   2.274   3.337   7.392  0.4630 -0.0608 -0.4555
 8994SOL    HW128989   2.261   3.263   7.333 -0.2690 -0.9165  0.7120
 8994SOL    HW228990   2.303   3.296   7.474 -2.3968  0.6158  1.0316
 8995SOL     OW28991   5.591   3.719   1.312  0.1148  0.3557  0.0682
 8995SOL    HW128992   5.685   3.718   1.328  0.0912 -0.2214  0.1842
 8995SOL    HW228993   5.582   3.730   1.218  0.3459 -2.1193 -0.2894
 8996SOL     OW28994  10.052   7.164   7.101  0.3109 -0.0665  0.5791
 8996SOL    HW128995  10.080   7.179   7.011  0.3068  0.5671  0.6819
 8996SOL    HW228996   9.962   7.133   7.093  0.3820 -0.2188  0.3552
 8997SOL     OW28997   2.590   0.715   9.827 -0.4653  0.1338  0.4014
 8997SOL    HW128998   2.551   0.629   9.814 -1.9830  0.9433 -0.6043
 8997SOL    HW228999   2.588   0.728   9.922 -2.8372  0.2000  0.4019
 8998SOL     OW29000   6.763   4.248   2.160 -0.1254  0.4706 -0.2892
 8998SOL    HW129001   6.747   4.185   2.090  2.0324  0.5649 -0.9231
 8998SOL    HW229002   6.700   4.224   2.228  0.1413 -1.9399 -0.7931
 8999SOL     OW29003   9.922   4.825   3.210 -0.1815  0.0677  0.1049
 8999SOL    HW129004   9.881   4.814   3.297 -0.5772  0.5284 -0.0197
 8999SOL    HW229005   9.903   4.743   3.165  2.2137 -1.2540  1.3154
 9000SOL     OW29006   8.111   0.406   5.719 -0.3661 -0.4408  0.0294
 9000SOL    HW129007   8.188   0.359   5.688 -1.0679 -2.0405  0.5413
 9000SOL    HW229008   8.042   0.339   5.719 -1.4542  0.6458  0.6884
 9001SOL     OW29009   7.980   0.191   4.204  0.1221 -0.0986 -0.0190
 9001SOL    HW129010   7.894   0.220   4.172 -0.7149 -2.1689  0.1387
 9001SOL    HW229011   7.990   0.234   4.289 -0.3794  0.8225 -0.4150
 9002SOL     OW29012   6.417   9.795   3.959  0.2500  0.1460 -0.5201
 9002SOL    HW129013   6.444   9.703   3.962 -0.7473 -0.1555 -0.4947
 9002SOL    HW229014   6.492   9.841   3.922  0.9408 -0.6102 -0.0867
 9003SOL     OW29015   4.032   6.744   4.658 -0.4660 -0.3353 -0.0423
 9003SOL    HW129016   3.994   6.670   4.611  1.3789  0.1519 -2.5552
 9003SOL    HW229017   3.959   6.803   4.673 -1.4803 -1.4074 -0.5928
 9004SOL     OW29018   2.663   2.784   4.214 -0.3371 -0.0156  0.3426
 9004SOL    HW129019   2.655   2.862   4.159  0.0596 -0.8924 -1.0037
 9004SOL    HW229020   2.676   2.819   4.303 -1.5544  1.4260 -0.0039
 9005SOL     OW29021   2.594   6.204   0.068 -0.8763  0.3031  0.4104
 9005SOL    HW129022   2.546   6.129   0.104  0.5540 -1.1629 -0.5936
 9005SOL    HW229023   2.643   6.168  -0.006 -1.3566  2.5825 -1.1230
 9006SOL     OW29024   1.228   5.227   4.763 -0.2390 -0.5006 -0.5665
 9006SOL    HW129025   1.189   5.215   4.677  1.0848 -0.3752 -1.2168
 9006SOL    HW229026   1.290   5.155   4.771  3.1116  1.9941 -1.7813
 9007SOL     OW29027   8.858   3.942   3.455  0.0783 -0.2398 -0.1008
 9007SOL    HW129028   8.767   3.968   3.444  0.4274  0.8242 -0.5898
 9007SOL    HW229029   8.856   3.846   3.452 -0.8447 -0.2060 -1.5147
 9008SOL     OW29030   5.227   8.466   2.350  0.3601 -0.6281  0.5415
 9008SOL    HW129031   5.296   8.451   2.415  0.0256 -1.1065  0.7966
 9008SOL    HW229032   5.146   8.467   2.401  0.0359 -1.6190  0.0730
 9009SOL     OW29033   1.185   3.410   6.093 -0.5214  0.2900 -0.4187
 9009SOL    HW129034   1.111   3.438   6.147  1.6896  2.7008  1.6397
 9009SOL    HW229035   1.156   3.428   6.003 -1.8857  2.8025  0.4147
 9010SOL     OW29036   2.397   2.955   4.409  0.3279  0.5910  0.4995
 9010SOL    HW129037   2.407   2.861   4.427  2.3044  0.6342 -0.1183
 9010SOL    HW229038   2.400   2.961   4.313  0.7465  1.3263  0.5539
 9011SOL     OW29039  10.491   5.573   8.814 -0.1372  0.4306 -0.0320
 9011SOL    HW129040  10.571   5.591   8.863  0.8366 -0.9493 -1.0249
 9011SOL    HW229041  10.427   5.547   8.880  0.0800  1.9378  0.8182
 9012SOL     OW29042   1.955   2.942   7.124 -0.7239  0.1764 -0.0112
 9012SOL    HW129043   2.042   2.955   7.086 -0.4258  0.3367  0.7003
 9012SOL    HW229044   1.935   2.850   7.107 -0.9651  0.4474 -1.2709
 9013SOL     OW29045   6.570   3.394   0.054 -0.1858 -0.0832  0.2573
 9013SOL    HW129046   6.512   3.439   0.116 -0.6127 -1.7035  1.1017
 9013SOL    HW229047   6.532   3.412  -0.032 -0.6148  0.7456  0.6073
 9014SOL     OW29048   9.741  10.103  10.739 -0.0746 -0.0520 -0.0366
 9014SOL    HW129049   9.828  10.069  10.717 -0.0959  0.7597 -1.5363
 9014SOL    HW229050   9.687  10.025  10.753  0.0544 -0.7081 -2.6306
 9015SOL     OW29051   3.910   1.232   6.956  0.2591 -0.6535 -0.0911
 9015SOL    HW129052   3.980   1.297   6.947 -2.1768  2.1631 -0.2135
 9015SOL    HW229053   3.907   1.213   7.049  0.0122  0.6567  0.1897
 9016SOL     OW29054   2.838   1.925   3.099 -0.8184 -0.1766 -0.0019
 9016SOL    HW129055   2.822   1.870   3.022 -0.8052  0.3324 -0.3772
 9016SOL    HW229056   2.877   2.005   3.063 -1.3830  0.3177  0.4615
 9017SOL     OW29057   5.542   5.301   9.338 -0.3464  0.6853  0.0402
 9017SOL    HW129058   5.478   5.369   9.357 -0.4540  0.0656  2.1912
 9017SOL    HW229059   5.498   5.244   9.274 -1.9001  0.4112  1.2702
 9018SOL     OW29060  10.884   6.051   0.200 -0.8799  0.2401  0.3678
 9018SOL    HW129061  10.957   6.112   0.191  1.0498 -1.6903  1.6917
 9018SOL    HW229062  10.916   5.985   0.262 -2.5944 -2.3728 -1.2988
 9019SOL     OW29063   6.960   4.996   0.434 -0.2733 -0.5349 -0.0824
 9019SOL    HW129064   6.930   4.956   0.351 -2.9218  1.3270 -0.1343
 9019SOL    HW229065   6.992   5.082   0.409 -0.7451 -0.0987  0.7929
 9020SOL     OW29066   1.029  11.011   7.239  0.4520 -0.0492  0.4740
 9020SOL    HW129067   0.997  10.999   7.329  0.7244  1.5661  0.8153
 9020SOL    HW229068   1.078  10.931   7.221 -2.7601 -2.2070  0.3191
 9021SOL     OW29069   2.371   2.475   3.230 -0.2927 -0.2063 -0.0471
 9021SOL    HW129070   2.445   2.535   3.243  0.2060 -0.7331 -0.3909
 9021SOL    HW229071   2.412   2.392   3.207 -0.8685 -1.2138  2.2822
 9022SOL     OW29072  10.136   4.041   6.172  0.3407 -0.3202 -1.1850
 9022SOL    HW129073  10.159   4.106   6.238  0.3764  0.1203 -1.6299
 9022SOL    HW229074  10.215   4.031   6.119  0.7191 -1.5569 -0.4543
 9023SOL     OW29075   6.353   7.967   9.911 -0.0502  0.2945  0.0718
 9023SOL    HW129076   6.359   7.973  10.007 -0.2661 -0.4459  0.1413
 9023SOL    HW229077   6.354   7.873   9.893  0.6564  0.4372 -0.7034
 9024SOL     OW29078   2.574   2.112   3.744  0.1108  0.3388  0.1802
 9024SOL    HW129079   2.559   2.186   3.684 -0.1149  0.2432  0.1200
 9024SOL    HW229080   2.601   2.040   3.688 -0.0938  0.2509  0.1929
 9025SOL     OW29081  10.139   5.314   6.467 -0.0671 -0.0877 -0.5182
 9025SOL    HW129082  10.106   5.301   6.555 -0.2082 -2.9937 -0.8861
 9025SOL    HW229083  10.117   5.404   6.445 -0.0231  0.6989  2.3796
 9026SOL     OW29084   2.537   6.354   8.426 -0.3656 -0.4235  0.0069
 9026SOL    HW129085   2.545   6.285   8.492 -0.1693  1.2543  1.8342
 9026SOL    HW229086   2.582   6.429   8.465  0.3064  0.4611 -2.3522
 9027SOL     OW29087   2.396   0.126   5.192 -0.1049  0.3046 -0.0852
 9027SOL    HW129088   2.419   0.093   5.105 -0.2254 -0.4262  0.1541
 9027SOL    HW229089   2.382   0.220   5.179  0.0722  0.2369 -0.8153
 9028SOL     OW29090  10.224   9.994   8.593  0.3011  0.3633 -0.3848
 9028SOL    HW129091  10.134  10.026   8.590  0.6446  1.4496  0.1327
 9028SOL    HW229092  10.237   9.969   8.685  0.3117 -0.4595 -0.6062
 9029SOL     OW29093   0.836   8.828   3.524  0.0524 -0.4425  0.1014
 9029SOL    HW129094   0.845   8.810   3.618  0.7071  1.8409  0.5555
 9029SOL    HW229095   0.746   8.859   3.514  0.3116  0.3990  0.2314
 9030SOL     OW29096   3.329   7.664   1.058 -0.5524 -0.0724  0.5312
 9030SOL    HW129097   3.348   7.757   1.048  0.9773 -0.3343  0.7973
 9030SOL    HW229098   3.275   7.658   1.137 -2.6270  0.7861 -0.7242
 9031SOL     OW29099   1.868   9.255   3.745  0.3927 -0.1346  0.3974
 9031SOL    HW129100   1.964   9.254   3.738  0.3990  0.5359  0.3121
 9031SOL    HW229101   1.843   9.343   3.718 -0.5049 -1.1737 -2.5005
 9032SOL     OW29102   5.513   6.513   9.626 -0.5063  0.3016  0.8730
 9032SOL    HW129103   5.559   6.573   9.567  0.9093  0.3408  1.9543
 9032SOL    HW229104   5.494   6.565   9.704  0.6301 -0.5670  1.7804
 9033SOL     OW29105   8.615   0.988   5.583 -0.0837 -0.2729  0.4683
 9033SOL    HW129106   8.705   0.973   5.614  1.0406  0.4552 -2.1325
 9033SOL    HW229107   8.603   1.083   5.590 -0.9567 -0.4450  1.4809
 9034SOL     OW29108   9.368   7.387   6.736  0.0421  0.3301  0.6161
 9034SOL    HW129109   9.388   7.463   6.681 -1.8200  0.2024 -0.3285
 9034SOL    HW229110   9.399   7.312   6.685  1.4353  0.3992  1.3282
 9035SOL     OW29111   8.101   9.082   6.202 -0.3847 -0.6379 -0.6054
 9035SOL    HW129112   8.094   9.154   6.264 -0.1506 -0.5061 -0.7308
 9035SOL    HW229113   8.105   9.004   6.256 -3.0555 -0.7805 -0.4866
 9036SOL     OW29114   1.357   9.093   4.194 -0.3994 -0.3830 -0.0856
 9036SOL    HW129115   1.290   9.051   4.249 -2.4458  0.7039 -1.6115
 9036SOL    HW229116   1.325   9.183   4.184  1.1830  0.0882 -1.1091
 9037SOL     OW29117   5.194   6.842   4.028  0.1203 -0.2944  0.2747
 9037SOL    HW129118   5.275   6.861   4.075  1.5593 -1.0437 -1.8048
 9037SOL    HW229119   5.211   6.761   3.981 -2.0518 -0.7765  0.1997
 9038SOL     OW29120  10.452   9.491   9.521  0.2897 -0.1395  0.1146
 9038SOL    HW129121  10.413   9.577   9.539 -2.2134 -0.7887 -1.6875
 9038SOL    HW229122  10.385   9.429   9.550  1.7456 -1.5049  0.6680
 9039SOL     OW29123   4.029   7.892   4.269  0.5302  0.1790 -0.0597
 9039SOL    HW129124   4.072   7.905   4.353 -1.2322 -0.8259  1.0741
 9039SOL    HW229125   4.040   7.975   4.222  2.1675  0.5066  0.8324
 9040SOL     OW29126   6.352   8.808   0.262  0.5657 -0.2086 -0.3184
 9040SOL    HW129127   6.365   8.897   0.229 -3.0442 -0.0228 -1.5986
 9040SOL    HW229128   6.281   8.772   0.210  0.1349 -2.9466  1.8796
 9041SOL     OW29129   9.519   7.639   8.176 -0.1892  0.2034 -0.3000
 9041SOL    HW129130   9.482   7.675   8.256 -0.4203  1.0441 -0.7739
 9041SOL    HW229131   9.567   7.712   8.136  1.1589 -0.5803 -0.2089
 9042SOL     OW29132   5.406   1.447   1.847 -0.2219  0.3973  0.7652
 9042SOL    HW129133   5.341   1.514   1.823 -0.2021  0.5307  1.0732
 9042SOL    HW229134   5.374   1.413   1.931 -0.1921  0.0706  0.6436
 9043SOL     OW29135   4.002  10.604   7.114  0.4814 -0.0807 -0.2006
 9043SOL    HW129136   4.012  10.577   7.023  0.5441 -1.4702  0.1907
 9043SOL    HW229137   3.958  10.688   7.110  0.8300  0.0467 -1.5256
 9044SOL     OW29138   8.704   9.161   3.642  0.5528  0.4785 -0.5484
 9044SOL    HW129139   8.620   9.116   3.634  0.2728  0.7159  0.8150
 9044SOL    HW229140   8.682   9.254   3.649  0.9050  0.5288 -0.0114
 9045SOL     OW29141   0.472   1.328   7.268  0.6886  0.2462  0.4967
 9045SOL    HW129142   0.471   1.241   7.307  0.4352 -0.5666 -1.2381
 9045SOL    HW229143   0.554   1.332   7.219  0.8694  1.1258  0.8577
 9046SOL     OW29144   8.275   0.718   9.570  0.8426 -0.0555 -0.8746
 9046SOL    HW129145   8.326   0.641   9.545  1.8712 -0.0132  0.8885
 9046SOL    HW229146   8.243   0.697   9.658 -1.0968  0.4874 -1.3879
 9047SOL     OW29147   3.836  10.847   7.154  0.2979  0.6531 -0.5501
 9047SOL    HW129148   3.748  10.821   7.127 -1.0095  1.8332  2.1909
 9047SOL    HW229149   3.841  10.822   7.247  2.9612  0.4404 -0.6611
 9048SOL     OW29150   8.892   6.426   9.220  0.0998 -0.9689  0.0715
 9048SOL    HW129151   8.967   6.485   9.231  0.6250 -1.4049 -1.0929
 9048SOL    HW229152   8.927   6.339   9.241 -0.2116 -1.1012  0.0358
 9049SOL     OW29153   0.488   2.407   8.866  0.0012 -0.4330 -0.1411
 9049SOL    HW129154   0.543   2.338   8.828 -1.4766 -1.7304 -0.0762
 9049SOL    HW229155   0.471   2.377   8.956 -1.8003 -0.7381 -0.5470
 9050SOL     OW29156   2.323   1.389   0.709 -0.3182  0.3719 -0.3042
 9050SOL    HW129157   2.366   1.467   0.674  0.4386  0.1844  0.1832
 9050SOL    HW229158   2.338   1.394   0.803 -1.1790  0.1802 -0.1515
 9051SOL     OW29159   3.965   7.342   5.085  0.2180 -0.1037 -0.3425
 9051SOL    HW129160   3.984   7.359   5.177  1.2498  0.9201 -0.7043
 9051SOL    HW229161   3.966   7.247   5.077  1.8146 -0.1911  0.3986
 9052SOL     OW29162   6.530   8.367   4.041 -0.0373 -0.2634  0.2487
 9052SOL    HW129163   6.515   8.367   3.947 -0.8478  0.5888  0.3613
 9052SOL    HW229164   6.608   8.420   4.053  2.2018 -3.2094 -0.1907
 9053SOL     OW29165   0.375   3.863   5.166  0.0863 -0.5427 -0.2922
 9053SOL    HW129166   0.359   3.913   5.246  3.2385  2.1458 -1.1026
 9053SOL    HW229167   0.290   3.826   5.143 -1.8550  2.0312  2.0432
 9054SOL     OW29168   4.056   6.088   7.293  0.3127 -0.3691  0.4991
 9054SOL    HW129169   3.997   6.129   7.356 -1.6461 -0.2904 -1.2730
 9054SOL    HW229170   4.082   6.006   7.334  0.9585  0.7080  2.3405
 9055SOL     OW29171   2.027   5.393   6.330  0.1170  0.1424 -0.2585
 9055SOL    HW129172   1.981   5.326   6.281  0.0418 -0.6449  0.8540
 9055SOL    HW229173   1.959   5.443   6.374  0.2356  0.0399  0.0475
 9056SOL     OW29174   3.166   1.925   7.407  0.4496  0.6249 -0.0733
 9056SOL    HW129175   3.106   1.866   7.453 -2.2056  1.5224 -2.1412
 9056SOL    HW229176   3.242   1.870   7.386 -0.4952 -1.1479  0.8804
 9057SOL     OW29177   0.232   7.371   4.137  0.4180  0.0040 -0.0504
 9057SOL    HW129178   0.190   7.432   4.077 -0.8406 -1.0074 -0.2613
 9057SOL    HW229179   0.320   7.358   4.101  0.9368  2.0962  0.3331
 9058SOL     OW29180   3.561   7.166  10.910 -0.4797  0.2209 -0.1891
 9058SOL    HW129181   3.561   7.093  10.972 -0.8684 -0.6263 -1.1403
 9058SOL    HW229182   3.646   7.208  10.922 -0.8842  0.6147  1.4938
 9059SOL     OW29183   5.215   6.326   0.311  0.3792  0.0299  0.0441
 9059SOL    HW129184   5.142   6.282   0.268 -0.2020  0.1663  0.8649
 9059SOL    HW229185   5.286   6.263   0.309  0.0358 -0.3490 -0.1984
 9060SOL     OW29186   0.782   7.268   4.755 -0.5036 -0.0932  0.1065
 9060SOL    HW129187   0.734   7.207   4.700 -0.7336  0.1356  0.0512
 9060SOL    HW229188   0.768   7.236   4.844  1.5615 -1.6695 -0.0802
 9061SOL     OW29189   3.097   5.397   8.649  0.2456 -0.9385  0.5359
 9061SOL    HW129190   3.190   5.419   8.645  0.0953 -0.3801 -1.6827
 9061SOL    HW229191   3.080   5.351   8.566 -1.1657 -2.3683  1.5529
 9062SOL     OW29192   7.270   0.343   9.112 -0.3274 -0.0035  0.5710
 9062SOL    HW129193   7.232   0.292   9.040  0.1957 -2.4074  1.8600
 9062SOL    HW229194   7.217   0.320   9.188  1.1591 -0.2060  1.5925
 9063SOL     OW29195   5.908   2.160   7.570  0.5669  0.1843 -0.2786
 9063SOL    HW129196   5.859   2.117   7.499 -0.4260  2.0059 -0.7526
 9063SOL    HW229197   5.983   2.199   7.527  0.9832 -0.2915  0.0047
 9064SOL     OW29198   1.437   7.496   5.704  0.3616  0.0213 -0.3499
 9064SOL    HW129199   1.506   7.430   5.702 -1.3640 -1.8804 -0.5763
 9064SOL    HW229200   1.456   7.553   5.628  2.2647  0.2707  0.2598
 9065SOL     OW29201   3.990   4.914   7.616 -0.1908 -0.4092 -0.5584
 9065SOL    HW129202   3.914   4.925   7.674 -0.0897 -1.4598 -0.2055
 9065SOL    HW229203   4.008   4.820   7.619  0.1223 -0.4043 -1.9123
 9066SOL     OW29204   8.487   2.663   7.978 -0.6821 -0.4031 -0.1534
 9066SOL    HW129205   8.409   2.718   7.986  0.9003  1.8199  1.4136
 9066SOL    HW229206   8.509   2.665   7.885 -1.3085  0.7236 -0.2919
 9067SOL     OW29207   9.912   4.185   8.006 -0.2636  0.6762 -0.1833
 9067SOL    HW129208   9.879   4.214   7.921 -0.8185 -2.1169 -1.0291
 9067SOL    HW229209   9.876   4.097   8.017  1.9515 -0.0953  1.7270
 9068SOL     OW29210   1.354   3.772   4.846  0.6818  0.0712  0.5783
 9068SOL    HW129211   1.393   3.718   4.914  2.0544  1.1128  0.6728
 9068SOL    HW229212   1.420   3.839   4.828 -0.1975  0.6134 -0.8337
 9069SOL     OW29213   5.161   2.770   3.784 -0.3561  0.2250 -0.1786
 9069SOL    HW129214   5.103   2.805   3.716 -2.3367 -3.9513 -0.9544
 9069SOL    HW229215   5.106   2.767   3.863 -0.8479 -2.3519 -0.5362
 9070SOL     OW29216   8.006   6.057  10.228  0.1133  0.2764  0.5384
 9070SOL    HW129217   8.094   6.050  10.191 -0.3871 -1.8332 -0.4475
 9070SOL    HW229218   8.002   5.986  10.292 -1.8024 -1.8440 -1.7030
 9071SOL     OW29219   4.538   3.986   5.477  0.5437 -0.0496  0.3226
 9071SOL    HW129220   4.559   4.068   5.521 -0.1809  0.5007 -0.3424
 9071SOL    HW229221   4.495   4.012   5.395 -0.8085 -1.1004  0.6633
 9072SOL     OW29222   2.285   7.201   5.037  0.1525  0.0701 -0.1956
 9072SOL    HW129223   2.311   7.292   5.047  1.6456 -0.1183 -1.9356
 9072SOL    HW229224   2.270   7.171   5.127 -0.5606  2.0414  0.4059
 9073SOL     OW29225   5.191   2.304   5.827  0.2655 -0.4185  0.1038
 9073SOL    HW129226   5.239   2.222   5.818 -1.6482 -1.4586 -1.2654
 9073SOL    HW229227   5.188   2.320   5.922  0.1532 -2.2490  0.4308
 9074SOL     OW29228   0.591   7.233   1.863  0.1801  0.4192 -0.0444
 9074SOL    HW129229   0.655   7.176   1.820 -0.9525 -0.1826 -0.9693
 9074SOL    HW229230   0.642   7.279   1.930  1.2961 -1.0864  0.2006
 9075SOL     OW29231   2.086   7.460   8.720 -0.2966 -0.1772 -0.2347
 9075SOL    HW129232   2.163   7.471   8.776 -0.0335 -0.5058 -0.5290
 9075SOL    HW229233   2.090   7.369   8.692  1.0416  0.5850 -2.9202
 9076SOL     OW29234   7.229   6.162   7.335 -0.4019 -0.1062  0.2849
 9076SOL    HW129235   7.166   6.158   7.406 -2.2561  0.1509 -1.2613
 9076SOL    HW229236   7.204   6.090   7.277  1.0702 -0.3196 -0.1185
 9077SOL     OW29237   1.128   6.310   9.602 -0.8586 -0.2172  0.4692
 9077SOL    HW129238   1.130   6.405   9.614 -0.5064  0.0284 -1.2204
 9077SOL    HW229239   1.040   6.292   9.569 -1.4256 -0.6955  2.1882
 9078SOL     OW29240   4.528   3.454   7.944 -0.2289  0.2603 -0.2548
 9078SOL    HW129241   4.440   3.489   7.941  0.0276  0.8818 -0.6733
 9078SOL    HW229242   4.545   3.440   8.037 -0.7491  0.1806 -0.1714
 9079SOL     OW29243   8.620   9.913   4.949 -0.2617 -0.2914  0.2444
 9079SOL    HW129244   8.628   9.975   4.877  1.8653 -1.7462 -0.8716
 9079SOL    HW229245   8.547   9.946   5.001 -1.3790  1.2432 -2.1371
 9080SOL     OW29246   1.174   6.210   8.739 -0.4463  0.2641 -0.0381
 9080SOL    HW129247   1.168   6.288   8.794 -0.0231 -0.4245  1.0139
 9080SOL    HW229248   1.086   6.171   8.742 -1.4039  1.9582 -2.5647
 9081SOL     OW29249   5.428   8.909   1.227  0.3471 -0.5532 -0.4551
 9081SOL    HW129250   5.393   8.931   1.313  1.5945 -1.2751  0.2643
 9081SOL    HW229251   5.454   8.993   1.189  1.1562 -0.3586  0.5009
 9082SOL     OW29252   3.413   2.820   3.579  0.8106  0.1267 -0.0858
 9082SOL    HW129253   3.500   2.838   3.544  0.8532  0.4115  0.1581
 9082SOL    HW229254   3.428   2.803   3.672  0.6786 -0.4403 -0.1648
 9083SOL     OW29255   0.206   7.858   6.416  0.0813  0.7621 -0.0231
 9083SOL    HW129256   0.274   7.910   6.374  0.7891 -0.6808 -0.7009
 9083SOL    HW229257   0.208   7.774   6.371 -1.8231  0.5123  0.2666
 9084SOL     OW29258   0.239   2.778   9.628  0.2080  0.0480 -0.1951
 9084SOL    HW129259   0.185   2.702   9.606  2.1110 -0.9832 -1.5853
 9084SOL    HW229260   0.241   2.830   9.548  1.8259 -0.3209 -0.4390
 9085SOL     OW29261  10.594   4.957   9.164 -0.0009 -0.1235 -0.3685
 9085SOL    HW129262  10.556   4.875   9.131  1.0288  0.2238 -2.6490
 9085SOL    HW229263  10.609   5.009   9.085  0.2009  1.9282  0.9426
 9086SOL     OW29264   4.546   5.684   9.825 -0.0870  0.4694 -0.1570
 9086SOL    HW129265   4.554   5.597   9.786 -1.9498  0.3471 -0.3933
 9086SOL    HW229266   4.451   5.697   9.835  0.1528  2.3522  0.1410
 9087SOL     OW29267   6.592   2.233   7.302 -0.1346 -0.2911  0.0653
 9087SOL    HW129268   6.604   2.183   7.221 -0.1158 -2.5477  1.3666
 9087SOL    HW229269   6.679   2.264   7.324  0.2167 -1.3023  0.1769
 9088SOL     OW29270  10.996  10.775   3.071  0.1833 -0.9564 -0.0938
 9088SOL    HW129271  11.010  10.869   3.081  0.0360 -0.8765 -0.6078
 9088SOL    HW229272  11.051  10.735   3.137 -0.9924 -0.4398  1.2435
 9089SOL     OW29273   8.481   5.424   6.497 -0.2117 -0.3378  0.4631
 9089SOL    HW129274   8.421   5.489   6.462 -0.5806 -1.6061 -1.3811
 9089SOL    HW229275   8.434   5.341   6.490  1.0751 -1.1141  0.6876
 9090SOL     OW29276   6.233   9.264   8.501 -0.2454  0.2837 -0.2690
 9090SOL    HW129277   6.219   9.355   8.477 -2.2572 -0.2256 -1.2643
 9090SOL    HW229278   6.150   9.221   8.481 -0.0476 -1.4029  2.0987
 9091SOL     OW29279   4.895   0.045   5.391 -0.1184  0.4587  0.2363
 9091SOL    HW129280   4.829   0.110   5.416  0.5751  0.9876  0.7432
 9091SOL    HW229281   4.845  -0.034   5.372 -0.7389  0.1674  2.8180
 9092SOL     OW29282   5.678   4.310   5.467 -0.3159  0.6006 -0.5166
 9092SOL    HW129283   5.690   4.373   5.538  0.7358  0.7233 -0.7820
 9092SOL    HW229284   5.584   4.296   5.462 -0.3736  0.0635  1.3661
 9093SOL     OW29285   0.152   5.453   5.467 -0.4524  0.2588 -0.4243
 9093SOL    HW129286   0.078   5.396   5.443 -1.3552  1.0465  0.3880
 9093SOL    HW229287   0.157   5.445   5.562  0.7606 -0.0612 -0.5047
 9094SOL     OW29288   2.397   0.244   2.013  0.1981  0.0755 -0.1330
 9094SOL    HW129289   2.314   0.197   2.010  0.2813 -0.0066 -1.8187
 9094SOL    HW229290   2.436   0.231   1.927  1.7918  0.4450  0.4847
 9095SOL     OW29291   0.916   1.022   7.901 -0.4742  0.2177  0.1571
 9095SOL    HW129292   0.837   1.070   7.876  1.0708  2.0923 -1.4583
 9095SOL    HW229293   0.967   1.016   7.820  0.5817 -1.9548  0.8993
 9096SOL     OW29294   1.102   7.561   4.988 -0.0498  0.0013  0.4216
 9096SOL    HW129295   1.116   7.604   5.072 -0.4605  0.2727  0.3547
 9096SOL    HW229296   1.155   7.481   4.992 -0.9815 -0.5846  1.3898
 9097SOL     OW29297   3.468   3.332   8.249 -0.1200  0.4861  0.4066
 9097SOL    HW129298   3.401   3.304   8.311  0.5934 -0.9751  0.5669
 9097SOL    HW229299   3.420   3.371   8.176 -1.0253  1.1206  1.3110
 9098SOL     OW29300   1.781   9.261   1.829  0.2119  0.3498 -0.5275
 9098SOL    HW129301   1.846   9.330   1.842  1.0583 -0.5530  0.2472
 9098SOL    HW229302   1.826   9.196   1.776 -0.1624 -0.1506 -0.2332
 9099SOL     OW29303   0.971   9.999   9.006  0.5411 -0.2527 -0.5723
 9099SOL    HW129304   0.945  10.025   8.918  2.1466 -0.9645 -1.2984
 9099SOL    HW229305   1.031   9.926   8.993 -0.3943 -1.4152  1.2046
 9100SOL     OW29306   1.551   9.909   7.186 -0.3803  0.0485 -0.5403
 9100SOL    HW129307   1.593   9.900   7.100  0.8324  2.3347 -0.2758
 9100SOL    HW229308   1.535  10.003   7.194  0.0914 -0.0307  1.9819
 9101SOL     OW29309   4.178   3.765   3.469  0.2580 -0.3175 -0.1489
 9101SOL    HW129310   4.242   3.728   3.409  2.4326  1.0339  1.1897
 9101SOL    HW229311   4.170   3.857   3.444 -0.5346 -0.2691  0.2289
 9102SOL     OW29312  10.408   1.641   6.893  0.1496  0.3620 -0.2461
 9102SOL    HW129313  10.401   1.547   6.905  0.9373  0.3670  0.3557
 9102SOL    HW229314  10.448   1.652   6.807  1.7383  0.0736  0.4181
 9103SOL     OW29315   8.016   6.315   9.981  0.4158  0.0566  0.0693
 9103SOL    HW129316   7.961   6.302   9.904 -1.2397 -0.9421  1.3412
 9103SOL    HW229317   8.067   6.235   9.988  0.1458 -0.0974  0.3131
 9104SOL     OW29318   5.874   6.166   0.892  0.0614  0.1207 -0.4016
 9104SOL    HW129319   5.909   6.236   0.947 -0.1328 -0.4310  0.4426
 9104SOL    HW229320   5.947   6.105   0.881 -0.0954 -0.1076 -0.1878
 9105SOL     OW29321   4.339   9.694   4.631 -0.0051 -0.1393 -0.0020
 9105SOL    HW129322   4.299   9.704   4.544 -0.5207 -0.2507  0.2190
 9105SOL    HW229323   4.268   9.661   4.686  0.0711  0.8257  0.6830
 9106SOL     OW29324   1.572   4.323   9.360  0.2449  1.3680 -0.5605
 9106SOL    HW129325   1.629   4.259   9.402  0.1076  0.6804 -1.3889
 9106SOL    HW229326   1.621   4.353   9.284 -0.7721  0.1390 -1.7705
 9107SOL     OW29327   5.274   8.318   5.128  0.1297 -0.0973  0.0139
 9107SOL    HW129328   5.212   8.376   5.172  1.2452  0.5231  0.8582
 9107SOL    HW229329   5.267   8.339   5.035  0.4618  1.3860  0.2962
 9108SOL     OW29330   5.561   1.462   0.219  0.0350  0.5618 -0.1335
 9108SOL    HW129331   5.589   1.451   0.128  0.7765  1.6935 -0.0581
 9108SOL    HW229332   5.566   1.556   0.235 -1.5237  0.5446  0.6449
 9109SOL     OW29333   7.574   5.366   0.387 -0.2277 -0.7283  0.1367
 9109SOL    HW129334   7.650   5.336   0.436  1.1725  3.7753  1.1696
 9109SOL    HW229335   7.604   5.370   0.296 -0.6369 -2.7124 -0.1279
 9110SOL     OW29336   5.407   2.135   3.221 -0.6411 -0.6518 -0.2332
 9110SOL    HW129337   5.370   2.209   3.269  0.2154  0.5884 -1.4028
 9110SOL    HW229338   5.350   2.125   3.145  0.0751 -0.2062 -0.8482
 9111SOL     OW29339   1.813   8.029   8.616 -0.2330 -0.0803  0.2339
 9111SOL    HW129340   1.788   8.082   8.540 -0.3302 -1.2780 -0.6001
 9111SOL    HW229341   1.881   7.971   8.583 -1.5687 -1.9231  0.5150
 9112SOL     OW29342   8.677   1.556   2.410  0.5409  0.0049 -0.4087
 9112SOL    HW129343   8.624   1.521   2.482  0.4629 -2.1292 -1.4338
 9112SOL    HW229344   8.765   1.567   2.448  0.4609 -0.9472  0.0983
 9113SOL     OW29345   7.935   7.589   7.949 -0.1653 -0.3500  0.3471
 9113SOL    HW129346   7.858   7.632   7.912 -1.6034 -1.2077  2.1875
 9113SOL    HW229347   7.976   7.656   8.003  0.6423  0.2155 -0.9104
 9114SOL     OW29348   6.690   4.749   1.275 -0.0628 -0.3373  0.8677
 9114SOL    HW129349   6.644   4.665   1.274 -0.2842 -0.2194  1.0203
 9114SOL    HW229350   6.769   4.732   1.327  0.1082 -0.5594  0.5410
 9115SOL     OW29351   4.172  10.708   4.969 -0.3240 -0.5699  0.3717
 9115SOL    HW129352   4.150  10.690   5.061  0.6164 -0.6482  0.5873
 9115SOL    HW229353   4.087  10.719   4.926 -0.7696  1.1062  1.5750
 9116SOL     OW29354   6.105   1.448   1.924  0.7731  0.3655  0.5621
 9116SOL    HW129355   6.178   1.509   1.933  0.5846  0.7235 -0.2137
 9116SOL    HW229356   6.040   1.479   1.987  0.5542  1.1739 -0.0424
 9117SOL     OW29357   6.695   6.620   7.443 -0.7917 -0.5016 -0.2357
 9117SOL    HW129358   6.782   6.614   7.403 -0.4976  0.0092  0.3045
 9117SOL    HW229359   6.636   6.579   7.380 -0.0699 -1.4340 -0.3165
 9118SOL     OW29360   2.505   7.865  10.547  0.8764 -0.2206 -0.2891
 9118SOL    HW129361   2.457   7.897  10.623  0.0589 -1.4329 -0.2700
 9118SOL    HW229362   2.595   7.852  10.580  0.6864 -0.1006  0.2919
 9119SOL     OW29363   4.194   1.523   9.237  0.1876  0.1286 -0.4606
 9119SOL    HW129364   4.179   1.610   9.274  2.6548  0.2044  0.5667
 9119SOL    HW229365   4.281   1.529   9.196 -0.5359 -1.2592 -2.3488
 9120SOL     OW29366   8.023   7.326  10.456 -0.0528  0.2615 -0.7103
 9120SOL    HW129367   8.005   7.360  10.544  1.6847 -1.6223  0.4655
 9120SOL    HW229368   8.112   7.355  10.437  0.0215 -0.3586 -1.3454
 9121SOL     OW29369   0.728   5.292   1.111 -0.4080  0.1298  0.1807
 9121SOL    HW129370   0.660   5.225   1.105  0.3714 -0.7142  0.5385
 9121SOL    HW229371   0.683   5.374   1.092 -1.6431 -0.3397  0.9631
 9122SOL     OW29372   4.447   3.811   9.643 -0.2792  0.3302  0.1530
 9122SOL    HW129373   4.396   3.731   9.656  0.6592 -0.2903  0.1229
 9122SOL    HW229374   4.383   3.876   9.613 -0.8643 -0.7275 -1.0052
 9123SOL     OW29375   6.360   2.529   3.715 -0.1675 -0.4757 -0.6316
 9123SOL    HW129376   6.356   2.623   3.734  0.1053 -0.2187 -1.7311
 9123SOL    HW229377   6.288   2.491   3.764  0.1391  0.2045  0.3774
 9124SOL     OW29378   4.782   3.151   6.307  0.8753 -0.2541  0.4281
 9124SOL    HW129379   4.817   3.116   6.225  2.2133  2.2478 -0.1396
 9124SOL    HW229380   4.812   3.088   6.374  1.4683 -1.2599 -0.7383
 9125SOL     OW29381   1.172   6.598   5.335 -0.0404  0.1705  0.1058
 9125SOL    HW129382   1.239   6.531   5.350  0.5620  0.4026 -1.3644
 9125SOL    HW229383   1.193   6.667   5.398  1.2777  0.3397 -0.4648
 9126SOL     OW29384   4.856   7.915   5.598 -0.2677 -0.5007 -0.8910
 9126SOL    HW129385   4.797   7.839   5.601  0.6174 -1.1619  1.6484
 9126SOL    HW229386   4.827   7.971   5.670 -0.0923  1.0345 -1.9432
 9127SOL     OW29387   4.635  10.828   7.464  0.2192  0.1476  0.8269
 9127SOL    HW129388   4.620  10.739   7.432 -0.1107  0.7899 -0.8960
 9127SOL    HW229389   4.547  10.863   7.480  0.0584  1.4089 -2.1940
 9128SOL     OW29390  10.622   5.622   8.111 -0.8214  0.3735  0.1389
 9128SOL    HW129391  10.557   5.628   8.181 -0.4074  0.5673  0.5140
 9128SOL    HW229392  10.665   5.538   8.126  0.5888  1.2565  1.3103
 9129SOL     OW29393   9.937   1.701   7.972 -0.3411 -0.1529  0.1407
 9129SOL    HW129394   9.928   1.779   7.917 -1.8206 -0.1749  0.3219
 9129SOL    HW229395   9.890   1.723   8.053 -1.3907 -1.4777 -0.0811
 9130SOL     OW29396   0.803   3.103   3.207  0.1889  0.3915 -0.5854
 9130SOL    HW129397   0.869   3.037   3.225  1.0891  1.3895 -0.1393
 9130SOL    HW229398   0.729   3.079   3.263 -0.4293 -1.5512 -2.1235
 9131SOL     OW29399   7.420   9.072   9.583 -0.6810  0.3350  0.2571
 9131SOL    HW129400   7.443   8.987   9.622  0.1724 -0.1400 -1.2069
 9131SOL    HW229401   7.409   9.053   9.490 -2.2418  1.5182  0.1692
 9132SOL     OW29402   2.941   6.065   0.762  0.0589 -0.3886 -0.0255
 9132SOL    HW129403   2.860   6.096   0.801  0.6298  1.8012 -0.4604
 9132SOL    HW229404   2.944   6.107   0.676  2.4745  1.0333  0.6766
 9133SOL     OW29405   5.095   1.429   5.363 -0.2147  0.3006 -0.6521
 9133SOL    HW129406   5.027   1.482   5.405 -1.3141 -0.9855 -0.7498
 9133SOL    HW229407   5.119   1.480   5.285  0.2373  1.6244  0.3157
 9134SOL     OW29408   3.699   7.371   5.717 -0.1364 -0.5248 -0.0023
 9134SOL    HW129409   3.774   7.349   5.771 -0.3169 -1.2624 -0.0283
 9134SOL    HW229410   3.690   7.296   5.657 -1.9117 -1.2996  1.1353
 9135SOL     OW29411   6.324   4.780  10.782 -0.2378 -0.1977  0.0707
 9135SOL    HW129412   6.323   4.734  10.698  0.5462  1.7383 -1.0505
 9135SOL    HW229413   6.243   4.751  10.825  0.2712 -2.6978 -0.4674
 9136SOL     OW29414   0.742   7.246   9.915  0.6090 -0.0464  0.2353
 9136SOL    HW129415   0.671   7.253   9.979 -2.1392 -2.0790 -2.2931
 9136SOL    HW229416   0.788   7.166   9.939  1.6650  0.8997  1.4702
 9137SOL     OW29417   1.698   7.110   0.171  0.5686 -0.8242 -0.5623
 9137SOL    HW129418   1.765   7.074   0.230 -0.6007  1.5677  2.4894
 9137SOL    HW229419   1.645   7.034   0.147  0.9931 -1.9338  1.7176
 9138SOL     OW29420   6.927   9.536   5.779  0.0367 -0.2837  0.1866
 9138SOL    HW129421   6.835   9.540   5.805 -0.2110  1.6928 -0.7739
 9138SOL    HW229422   6.926   9.495   5.692  0.1262 -0.6915  0.3756
 9139SOL     OW29423   6.444   8.152  10.508  0.1212 -0.7329  0.2621
 9139SOL    HW129424   6.394   8.213  10.454  0.5227  0.7880  1.5186
 9139SOL    HW229425   6.380   8.119  10.571  0.3245 -0.0081  0.8661
 9140SOL     OW29426   4.241   3.458   0.696 -0.2456  0.4636 -0.0424
 9140SOL    HW129427   4.207   3.399   0.628  0.6239 -0.0850 -0.0172
 9140SOL    HW229428   4.260   3.539   0.649  1.6367 -0.3291 -0.7993
 9141SOL     OW29429   4.372   8.604   9.728  0.5553 -0.0398 -0.1130
 9141SOL    HW129430   4.312   8.678   9.737 -0.6792 -0.9200 -0.7366
 9141SOL    HW229431   4.447   8.640   9.681  1.2033  1.4191  1.8813
 9142SOL     OW29432   7.185   8.582   9.419  0.0315 -0.2803  0.7496
 9142SOL    HW129433   7.124   8.511   9.401 -0.0011  0.1152 -0.8014
 9142SOL    HW229434   7.171   8.645   9.348  0.6294  0.9018  1.6394
 9143SOL     OW29435   3.797   4.242   6.456 -1.0506 -0.5943 -0.2999
 9143SOL    HW129436   3.818   4.292   6.377 -0.9013 -1.3822 -0.7721
 9143SOL    HW229437   3.738   4.299   6.506 -0.9398  0.0181 -0.8529
 9144SOL     OW29438   2.028   2.525   0.875 -0.8031 -0.5303  0.4198
 9144SOL    HW129439   2.047   2.606   0.827  0.1188 -0.3342  1.0960
 9144SOL    HW229440   1.939   2.503   0.849 -0.5235 -0.1491 -0.9871
 9145SOL     OW29441   2.781   8.339   7.521  0.2428  0.4183  0.2156
 9145SOL    HW129442   2.692   8.303   7.515 -0.3456  1.6845  0.8703
 9145SOL    HW229443   2.814   8.307   7.605  0.8240 -0.9073 -0.4973
 9146SOL     OW29444   5.640   3.799   7.599 -0.5322  0.1555 -0.2395
 9146SOL    HW129445   5.688   3.769   7.522 -0.3992 -0.3022  0.0204
 9146SOL    HW229446   5.707   3.834   7.657 -0.4591 -0.8169  0.2796
 9147SOL     OW29447   3.954   1.919   6.547  0.1565  0.3205 -0.6520
 9147SOL    HW129448   3.952   1.834   6.590 -0.1312  0.2911 -0.7153
 9147SOL    HW229449   4.029   1.964   6.585 -0.4990  0.5592  0.4015
 9148SOL     OW29450   5.167   2.639  10.177  0.7232  0.6355  0.1604
 9148SOL    HW129451   5.149   2.595  10.094 -0.7306  1.9591 -0.2828
 9148SOL    HW229452   5.218   2.576  10.228  0.6320 -0.6537 -1.2850
 9149SOL     OW29453   6.415   3.775   1.245 -0.5712  0.3174 -0.3487
 9149SOL    HW129454   6.396   3.683   1.260  1.4433 -0.2064 -0.6667
 9149SOL    HW229455   6.416   3.814   1.333 -1.9254  0.1726 -0.2533
 9150SOL     OW29456   3.906   6.832   9.573  0.1457  0.3725 -0.0750
 9150SOL    HW129457   3.867   6.843   9.486  0.8058 -0.0104 -0.4278
 9150SOL    HW229458   3.964   6.909   9.582  1.2766 -0.3777 -0.6444
 9151SOL     OW29459  10.254   0.332   6.496 -0.4272  0.4539 -0.1042
 9151SOL    HW129460  10.179   0.388   6.515  0.6066  1.7956  0.1447
 9151SOL    HW229461  10.326   0.370   6.546  0.4084 -0.8790 -0.2420
 9152SOL     OW29462  10.844   9.859  10.683  0.1146  0.2973  0.3307
 9152SOL    HW129463  10.863   9.952  10.676 -0.0741  0.2609 -0.9196
 9152SOL    HW229464  10.801   9.849  10.768  0.1982  1.3377  0.5022
 9153SOL     OW29465   5.863   2.429   0.788 -0.0965 -0.6618 -0.3380
 9153SOL    HW129466   5.876   2.350   0.840 -1.1706  0.6239  2.0772
 9153SOL    HW229467   5.952   2.458   0.766  0.3590 -1.7197  0.0399
 9154SOL     OW29468   5.063   3.011   2.131  0.2172 -0.1974 -0.0710
 9154SOL    HW129469   5.054   3.052   2.045  1.0465 -0.5140 -0.3171
 9154SOL    HW229470   5.105   3.077   2.185  1.6462 -0.7257 -0.4946
 9155SOL     OW29471   5.695   5.420   9.930 -0.0107  0.5106 -0.2108
 9155SOL    HW129472   5.645   5.412  10.011 -1.1239  1.1950 -0.7936
 9155SOL    HW229473   5.630   5.405   9.860  0.3247  2.4415 -1.0182
 9156SOL     OW29474   7.572  11.026  10.909 -0.8226  0.0564  0.3035
 9156SOL    HW129475   7.627  10.948  10.905  0.8719  1.1414  1.4239
 9156SOL    HW229476   7.513  11.017  10.834  0.2872 -1.5816 -0.4311
 9157SOL     OW29477   6.155   1.709   0.043  0.2386  0.2139  0.2142
 9157SOL    HW129478   6.224   1.717   0.108 -0.6899  1.0011  1.1444
 9157SOL    HW229479   6.139   1.615   0.036  2.6816 -0.1734 -1.4658
 9158SOL     OW29480   0.329   5.130   4.681 -0.1640 -0.0657  0.5779
 9158SOL    HW129481   0.417   5.096   4.666  0.8806  0.6600  4.1566
 9158SOL    HW229482   0.274   5.053   4.685  0.2385 -0.5407 -1.5275
 9159SOL     OW29483   4.167   7.387   0.756  0.1708 -0.0166 -0.3023
 9159SOL    HW129484   4.129   7.307   0.792 -0.2024  0.2631 -0.0616
 9159SOL    HW229485   4.098   7.453   0.767  0.0714  0.0972 -1.4426
 9160SOL     OW29486   3.297   0.133   2.327  0.0231 -0.7381  0.3867
 9160SOL    HW129487   3.267   0.173   2.246 -0.7982 -2.1697 -0.0452
 9160SOL    HW229488   3.351   0.059   2.299 -0.3136 -1.2795  1.1345
 9161SOL     OW29489   5.724  10.045   6.478 -0.1334  0.5342 -0.1145
 9161SOL    HW129490   5.673  10.042   6.397  0.5996  0.3215 -0.5793
 9161SOL    HW229491   5.668  10.092   6.540 -0.7875  0.5173 -0.6823
 9162SOL     OW29492   7.979   4.804   8.517 -0.0204 -0.1842  0.1620
 9162SOL    HW129493   7.963   4.744   8.443 -0.1169  0.5242 -0.4054
 9162SOL    HW229494   7.894   4.844   8.534 -0.1772 -0.9258  1.1942
 9163SOL     OW29495  10.693  10.837   8.083 -0.0015 -0.2915  0.2522
 9163SOL    HW129496  10.700  10.753   8.127 -0.5702 -0.9721 -0.9140
 9163SOL    HW229497  10.680  10.900   8.154 -0.2409 -1.2658  1.0927
 9164SOL     OW29498   4.305   3.822   4.922 -0.1168 -0.0189  0.4545
 9164SOL    HW129499   4.332   3.868   4.843 -0.4733 -2.6487 -1.3481
 9164SOL    HW229500   4.211   3.836   4.928  0.0348  0.8452  0.9021
 9165SOL     OW29501   1.578   8.698   4.732 -1.3358  0.3796  0.1407
 9165SOL    HW129502   1.607   8.775   4.781  0.0139  0.1658 -0.2719
 9165SOL    HW229503   1.650   8.635   4.742 -1.3192  0.0928 -1.5500
 9166SOL     OW29504   8.282   2.964   3.520 -0.5588  0.9851  0.5306
 9166SOL    HW129505   8.231   2.891   3.556 -0.5270  0.9205  0.4429
 9166SOL    HW229506   8.235   3.042   3.548  1.1535  1.1203  3.5148
 9167SOL     OW29507   9.606   5.757   7.506 -0.3601 -0.9005  0.4014
 9167SOL    HW129508   9.667   5.794   7.570 -0.5936  0.9032 -0.3585
 9167SOL    HW229509   9.663   5.719   7.439 -0.0590  0.0448  0.1040
 9168SOL     OW29510   1.790   6.094   9.623 -0.3891 -0.2042  0.1159
 9168SOL    HW129511   1.798   5.998   9.624  0.9607 -0.1229 -0.4403
 9168SOL    HW229512   1.869   6.125   9.668 -0.2164  0.6668 -0.7606
 9169SOL     OW29513   3.465   2.991   1.695  0.2347 -0.2313  0.2470
 9169SOL    HW129514   3.504   2.906   1.715 -1.2489 -0.9319  0.3340
 9169SOL    HW229515   3.482   3.045   1.771 -1.5575 -1.4882  1.6325
 9170SOL     OW29516   2.188   8.419   1.167 -0.5733  0.4089 -0.3678
 9170SOL    HW129517   2.149   8.380   1.089 -0.8399  0.1654 -0.1129
 9170SOL    HW229518   2.176   8.513   1.155  1.1589  0.5138 -1.5695
 9171SOL     OW29519   3.349   3.235   3.696  0.4681 -0.0155 -0.3891
 9171SOL    HW129520   3.371   3.167   3.759  0.2668  0.7362  0.5132
 9171SOL    HW229521   3.427   3.242   3.641  0.8370 -0.3462  0.0787
 9172SOL     OW29522   0.799   0.691  10.877 -0.3161 -0.5810  0.5620
 9172SOL    HW129523   0.776   0.651  10.794 -0.5682 -0.8129  0.7401
 9172SOL    HW229524   0.874   0.747  10.857  0.8983 -2.1545  0.5680
 9173SOL     OW29525  10.049   7.349   9.904 -0.5241  0.0312 -0.1359
 9173SOL    HW129526  10.137   7.352   9.866 -1.3716 -1.4792 -2.4519
 9173SOL    HW229527  10.048   7.268   9.955 -0.7727 -0.3533 -0.7386
 9174SOL     OW29528   1.878  10.159   1.272 -0.0273 -0.5523 -0.0419
 9174SOL    HW129529   1.953  10.100   1.272  0.5384  0.1522 -0.5825
 9174SOL    HW229530   1.903  10.229   1.213 -0.5105  0.4578  0.9156
 9175SOL     OW29531   8.630   3.665   9.850 -0.5548  1.3322  0.6174
 9175SOL    HW129532   8.590   3.749   9.875 -1.0989  0.5244  2.7342
 9175SOL    HW229533   8.556   3.606   9.836 -0.2204  1.4877 -2.2175
 9176SOL     OW29534   2.121   9.655   7.782 -0.5092  0.1939 -0.5194
 9176SOL    HW129535   2.044   9.651   7.726 -0.6099  2.9099 -0.6749
 9176SOL    HW229536   2.181   9.715   7.737  0.2471  0.8461  1.2573
 9177SOL     OW29537   4.362   1.688   8.097  0.1735 -0.3301 -0.1534
 9177SOL    HW129538   4.448   1.727   8.108 -0.6106  1.7055 -0.8399
 9177SOL    HW229539   4.331   1.721   8.013 -1.1874 -1.2240 -0.0360
 9178SOL     OW29540   6.738   6.159   2.135 -0.1120  0.4601  0.5008
 9178SOL    HW129541   6.808   6.161   2.199 -0.9724 -1.2426  1.5582
 9178SOL    HW229542   6.780   6.182   2.052  1.5893 -0.1017  1.1796
 9179SOL     OW29543   8.749   2.937   5.473  0.4838  0.2196  0.3748
 9179SOL    HW129544   8.711   2.881   5.405 -0.2688  2.7466 -1.4112
 9179SOL    HW229545   8.835   2.899   5.490 -0.2659 -1.8784 -0.1935
 9180SOL     OW29546   7.987   8.191   5.988 -0.4989 -0.1788  0.6899
 9180SOL    HW129547   7.903   8.224   5.959  0.0449 -0.6658 -1.6180
 9180SOL    HW229548   7.985   8.097   5.967 -0.2201 -0.7034  2.7378
 9181SOL     OW29549   0.264   4.179   6.444 -0.0144  0.1235 -0.1712
 9181SOL    HW129550   0.299   4.266   6.424 -1.0398  0.3927 -0.8327
 9181SOL    HW229551   0.341   4.128   6.469  0.4678  1.5746  1.5768
 9182SOL     OW29552  10.397   3.950   6.852 -0.3529 -0.0965  0.6076
 9182SOL    HW129553  10.434   3.951   6.764  1.5173  0.9912  1.3325
 9182SOL    HW229554  10.307   3.980   6.842  0.6434  2.7844 -0.6497
 9183SOL     OW29555   1.416   5.879  10.905  0.8122 -0.3914 -0.5430
 9183SOL    HW129556   1.482   5.850  10.967  1.7127  1.0747 -0.7592
 9183SOL    HW229557   1.332   5.859  10.947  1.4020 -0.2523  0.7372
 9184SOL     OW29558   3.178  10.583   9.202  0.2118  0.3338 -0.0134
 9184SOL    HW129559   3.181  10.677   9.186  2.2565  0.3810  0.3905
 9184SOL    HW229560   3.253  10.565   9.259 -0.1722 -1.5270 -0.0084
 9185SOL     OW29561   0.692   4.579   7.966 -0.0807  0.1028 -0.4446
 9185SOL    HW129562   0.772   4.630   7.974  1.4369 -1.5969 -3.1753
 9185SOL    HW229563   0.706   4.504   8.024 -1.3346  1.4689  1.7919
 9186SOL     OW29564   5.190   1.404   8.219  0.2043  0.6378  0.2732
 9186SOL    HW129565   5.184   1.498   8.235  0.3768  0.6010  0.5594
 9186SOL    HW229566   5.219   1.367   8.302  2.0449  0.5537 -0.3692
 9187SOL     OW29567   1.599   9.833   3.901 -0.1924  0.2591 -0.0071
 9187SOL    HW129568   1.622   9.829   3.993 -0.2445 -0.1512 -0.0120
 9187SOL    HW229569   1.608   9.743   3.869  1.2986  0.6329 -0.7595
 9188SOL     OW29570   1.276   1.643  10.586 -0.1931 -0.4890  0.1358
 9188SOL    HW129571   1.276   1.737  10.566  2.1458  0.4078  3.3499
 9188SOL    HW229572   1.273   1.640  10.682 -1.1429 -3.7779  0.1068
 9189SOL     OW29573   6.877   8.914   4.785 -0.0639  0.3025  0.4401
 9189SOL    HW129574   6.906   8.823   4.779 -0.2685  0.3126 -0.9910
 9189SOL    HW229575   6.849   8.924   4.876  1.8982 -0.4558  1.1725
 9190SOL     OW29576  10.205   7.569   8.127 -0.1497 -0.1714  0.0764
 9190SOL    HW129577  10.195   7.651   8.078  0.5816 -0.5124 -0.6746
 9190SOL    HW229578  10.122   7.524   8.114 -0.3738  0.2312  0.0782
 9191SOL     OW29579  10.146  10.882   9.124 -0.4493 -0.3368 -0.0667
 9191SOL    HW129580  10.164  10.955   9.064  0.5395 -1.2290 -0.8956
 9191SOL    HW229581  10.121  10.809   9.066 -2.7851 -0.3303  0.8139
 9192SOL     OW29582   7.439   8.913   6.019 -0.3526 -0.0346  0.3255
 9192SOL    HW129583   7.455   8.869   5.935 -1.1855 -1.4330  0.8564
 9192SOL    HW229584   7.474   8.854   6.085 -1.3735  0.1440  1.0631
 9193SOL     OW29585   9.306   9.101   7.854  0.1883 -0.0366 -0.1460
 9193SOL    HW129586   9.310   9.182   7.905 -0.1470 -1.1492  1.7689
 9193SOL    HW229587   9.291   9.130   7.764 -0.1492  2.0070  0.5051
 9194SOL     OW29588  10.443   2.048   8.143 -0.0258 -0.0544  0.4567
 9194SOL    HW129589  10.511   2.095   8.095  1.6782  0.3025  3.0426
 9194SOL    HW229590  10.368   2.107   8.143  0.0779  0.1332 -1.2516
 9195SOL     OW29591   5.166  10.156   8.922  0.1727 -0.2318  0.4482
 9195SOL    HW129592   5.141  10.065   8.932  2.0796 -0.7579  0.7635
 9195SOL    HW229593   5.084  10.205   8.934 -1.1524 -1.9182 -1.0204
 9196SOL     OW29594   7.320   5.285   9.324 -0.2061 -0.0608 -0.1021
 9196SOL    HW129595   7.343   5.368   9.366 -1.5190  1.7415 -2.7220
 9196SOL    HW229596   7.225   5.288   9.315 -0.4892 -2.6845  1.2598
 9197SOL     OW29597   0.784   1.777   9.671 -0.4735 -0.0326  0.0404
 9197SOL    HW129598   0.785   1.714   9.744  3.2740 -0.6732 -0.3540
 9197SOL    HW229599   0.870   1.819   9.675 -0.5379  0.6695 -3.3736
 9198SOL     OW29600   1.580   9.360   7.021 -0.3297  0.5732  0.1099
 9198SOL    HW129601   1.596   9.267   7.036 -1.6141  0.2230 -0.5482
 9198SOL    HW229602   1.514   9.385   7.086  0.6899  1.2806  0.9134
 9199SOL     OW29603   0.867   2.830   7.999  0.2162 -0.1635  1.2185
 9199SOL    HW129604   0.856   2.755   7.941 -1.7417  1.5813 -0.8576
 9199SOL    HW229605   0.953   2.866   7.976 -0.0455 -0.1623  0.2086
 9200SOL     OW29606   0.783   5.980   0.448  0.2231 -0.3678 -0.4386
 9200SOL    HW129607   0.864   5.931   0.436  0.5745  0.0666  0.1095
 9200SOL    HW229608   0.715   5.913   0.456  0.6404 -0.7573 -0.1191
 9201SOL     OW29609   0.721   5.957   9.452 -0.2724  0.2132  0.3337
 9201SOL    HW129610   0.667   6.009   9.393  0.4111 -1.2372 -1.6954
 9201SOL    HW229611   0.802   5.941   9.403  1.1104  0.4403  2.4061
 9202SOL     OW29612   9.922   3.531   1.721  0.7644 -0.7034  0.5375
 9202SOL    HW129613  10.011   3.539   1.687  0.4365 -0.7021 -0.3630
 9202SOL    HW229614   9.888   3.451   1.679  0.6336 -1.2095  1.5721
 9203SOL     OW29615   6.227   7.423   7.223  0.1589 -0.5935  0.6843
 9203SOL    HW129616   6.201   7.406   7.132 -3.3652  0.2576  1.4046
 9203SOL    HW229617   6.321   7.442   7.217 -0.4375  2.6868 -3.3168
 9204SOL     OW29618   5.485   9.605  10.548  0.2318 -0.3603  0.0714
 9204SOL    HW129619   5.523   9.664  10.612  0.3170 -1.4048  1.0172
 9204SOL    HW229620   5.395   9.591  10.578 -0.4249  0.8102 -1.2419
 9205SOL     OW29621   0.815   1.217   4.662  0.0943  0.4252  0.3037
 9205SOL    HW129622   0.786   1.223   4.571 -1.2994  2.0691  0.8095
 9205SOL    HW229623   0.796   1.126   4.687  1.3890 -0.3376 -1.2735
 9206SOL     OW29624   5.774   1.041   3.204 -0.2060  0.1968 -0.0268
 9206SOL    HW129625   5.817   1.112   3.155  0.0824 -0.8241 -1.3089
 9206SOL    HW229626   5.841   1.008   3.263 -0.2769  0.8438  0.4243
 9207SOL     OW29627   8.690   2.959   4.147 -0.1155  0.2078 -0.0297
 9207SOL    HW129628   8.597   2.958   4.125  0.2268  0.2070 -1.5825
 9207SOL    HW229629   8.696   3.018   4.222 -1.2429  1.0340 -0.5552
 9208SOL     OW29630   5.705   5.200   3.013 -0.4805 -0.3160 -0.4287
 9208SOL    HW129631   5.785   5.246   3.038 -0.8092 -0.3867  0.8037
 9208SOL    HW229632   5.683   5.235   2.927 -0.4020  1.4102  0.2254
 9209SOL     OW29633   6.134   1.640  10.297  0.0797 -0.7595  0.2233
 9209SOL    HW129634   6.190   1.631  10.374  0.3816 -0.6357  0.0202
 9209SOL    HW229635   6.106   1.551  10.277 -2.2810 -0.5531  2.1427
 9210SOL     OW29636   3.597   6.354   5.077  0.5267  0.1656  0.3341
 9210SOL    HW129637   3.668   6.383   5.134  0.9776 -1.8193  0.8885
 9210SOL    HW229638   3.534   6.311   5.136  0.4604 -0.9376 -0.4934
 9211SOL     OW29639   3.229   0.485   8.532  0.0027  0.0866  0.3381
 9211SOL    HW129640   3.318   0.504   8.503 -0.5380  2.9028  0.1641
 9211SOL    HW229641   3.223   0.526   8.618 -1.1315  0.0222  0.3006
 9212SOL     OW29642   1.752   1.562   0.925 -0.0813  0.6503 -0.0720
 9212SOL    HW129643   1.760   1.640   0.869 -1.4401  0.4100 -0.6366
 9212SOL    HW229644   1.795   1.588   1.007  0.6504  1.5262 -0.6977
 9213SOL     OW29645   6.349   5.605   2.187 -0.0773  0.0617 -0.2522
 9213SOL    HW129646   6.384   5.683   2.231 -1.0126  0.9362 -1.0140
 9213SOL    HW229647   6.389   5.606   2.100  0.5728 -0.8088  0.0207
 9214SOL     OW29648   0.783   8.263   8.577 -0.0399 -0.2461 -0.7987
 9214SOL    HW129649   0.856   8.319   8.601 -0.0284 -0.1387 -1.0813
 9214SOL    HW229650   0.783   8.194   8.643  0.8303 -0.7170 -1.2853
 9215SOL     OW29651   2.430   4.554   5.907  0.2009 -0.5367  0.1020
 9215SOL    HW129652   2.364   4.590   5.847 -0.6192  0.1428  1.3709
 9215SOL    HW229653   2.506   4.536   5.851 -0.0654  1.3077 -0.9333
 9216SOL     OW29654   5.377   1.330   0.363  0.1762  0.1636  0.4380
 9216SOL    HW129655   5.440   1.381   0.313 -0.2103  0.2731  0.0511
 9216SOL    HW229656   5.422   1.307   0.444  1.1805 -0.9069 -0.3975
 9217SOL     OW29657   7.076   7.784   5.503  0.3089 -0.2527 -0.3647
 9217SOL    HW129658   7.106   7.729   5.576 -2.0343 -0.7103  0.3361
 9217SOL    HW229659   7.004   7.735   5.464 -0.1146  1.1519 -1.4004
 9218SOL     OW29660   6.088   8.964   7.294  0.3520 -0.3140  0.2639
 9218SOL    HW129661   6.114   8.992   7.382  0.1480 -0.7857  0.4774
 9218SOL    HW229662   6.149   8.893   7.273 -0.4278 -1.0917  0.5664
 9219SOL     OW29663   3.831   9.455   8.985 -0.1443  0.0412 -0.3505
 9219SOL    HW129664   3.778   9.438   8.907  1.1650  0.3940 -1.3630
 9219SOL    HW229665   3.857   9.368   9.016 -1.9255 -0.1820  0.6469
 9220SOL     OW29666   4.673   9.732   1.192 -0.3009  0.4621 -0.1389
 9220SOL    HW129667   4.622   9.702   1.117  1.3690 -3.0720 -0.0700
 9220SOL    HW229668   4.764   9.722   1.165  0.3427 -0.7135  2.1955
 9221SOL     OW29669   2.116   7.806   0.428  1.2187  0.4317  0.0157
 9221SOL    HW129670   2.067   7.875   0.382  1.0355  0.0036 -0.4388
 9221SOL    HW229671   2.170   7.766   0.360 -0.5809 -1.6001 -0.3150
 9222SOL     OW29672   3.450   9.337   2.735 -0.0867  0.0332  0.1609
 9222SOL    HW129673   3.421   9.345   2.826  0.9667 -0.1410  0.5177
 9222SOL    HW229674   3.426   9.421   2.696 -1.0041 -0.0774  0.4566
 9223SOL     OW29675   1.197   1.160   6.498  0.0024  0.3475 -0.2030
 9223SOL    HW129676   1.154   1.163   6.583  1.8193  2.1675  0.7329
 9223SOL    HW229677   1.182   1.246   6.460  1.2955  0.4289 -0.5979
 9224SOL     OW29678   9.183   7.220   7.986 -0.6995 -0.1438  0.1004
 9224SOL    HW129679   9.232   7.292   8.026  1.7858 -1.9685  0.5845
 9224SOL    HW229680   9.126   7.187   8.055  0.3827 -0.5179  0.8401
 9225SOL     OW29681   9.543   9.877   2.972 -0.6220  0.1039 -0.8265
 9225SOL    HW129682   9.574   9.788   2.957 -0.7959 -0.4892  1.9206
 9225SOL    HW229683   9.448   9.872   2.958 -0.8482 -0.5464  0.7229
 9226SOL     OW29684   3.546   6.924   1.869  0.2669 -0.1030 -0.1772
 9226SOL    HW129685   3.581   6.913   1.780 -0.7161  1.1173 -0.7405
 9226SOL    HW229686   3.508   6.838   1.890 -1.8806  0.2963 -2.0334
 9227SOL     OW29687   9.154   3.428   6.074 -0.4036 -0.3012 -0.0289
 9227SOL    HW129688   9.103   3.424   5.993 -0.1982 -2.9132 -0.1050
 9227SOL    HW229689   9.105   3.372   6.135  0.4611  0.0892  1.0515
 9228SOL     OW29690   4.556   1.320   7.939 -0.1190 -0.4931  0.0662
 9228SOL    HW129691   4.543   1.298   7.847 -1.8245 -0.3247  0.2412
 9228SOL    HW229692   4.603   1.403   7.937  0.2726 -0.7231 -0.6411
 9229SOL     OW29693   0.399   9.627   1.029  0.3652 -0.5975 -0.0724
 9229SOL    HW129694   0.359   9.710   1.004  0.2246 -0.3787  0.8341
 9229SOL    HW229695   0.410   9.579   0.947 -1.4133 -0.5138 -0.4042
 9230SOL     OW29696   3.274   3.393   0.496 -0.1350  0.1515  0.3087
 9230SOL    HW129697   3.322   3.310   0.499  2.5838  1.6059  3.1890
 9230SOL    HW229698   3.280   3.420   0.404  0.0797 -2.1383 -0.4255
 9231SOL     OW29699  10.245   6.319   2.386  0.3331 -0.2044  0.6077
 9231SOL    HW129700  10.205   6.315   2.299  0.3428  0.5632  0.5626
 9231SOL    HW229701  10.297   6.239   2.392  2.4815  0.9390 -1.1613
 9232SOL     OW29702   2.501   5.855   0.753  0.3987  0.3005  0.2210
 9232SOL    HW129703   2.476   5.823   0.839  0.2673 -1.3399 -0.3852
 9232SOL    HW229704   2.524   5.946   0.767  1.8628 -0.3102  2.2834
 9233SOL     OW29705   9.524   8.507   8.560  0.0884  0.1795  0.9601
 9233SOL    HW129706   9.559   8.476   8.644  0.8104  0.3170  0.7145
 9233SOL    HW229707   9.431   8.482   8.563 -0.0041  0.5783  1.9843
 9234SOL     OW29708   4.114   7.466   8.801 -0.2448  0.1531  0.5950
 9234SOL    HW129709   4.190   7.444   8.854  0.7133  0.6258 -0.5451
 9234SOL    HW229710   4.115   7.562   8.796 -1.5587  0.2445  1.4615
 9235SOL     OW29711   3.445   2.841   5.888  0.7976 -0.5656 -0.0710
 9235SOL    HW129712   3.447   2.746   5.903  1.4391 -0.2748  1.8946
 9235SOL    HW229713   3.393   2.875   5.961 -0.3114  0.5275 -1.3243
 9236SOL     OW29714   9.730  10.721   8.942 -0.4921 -0.2398 -0.0206
 9236SOL    HW129715   9.800  10.700   8.880 -0.2853  0.4459 -0.0328
 9236SOL    HW229716   9.653  10.736   8.886 -0.4964 -0.3869 -0.0544
 9237SOL     OW29717   6.951   3.375   9.717  0.3024 -0.3677 -0.1452
 9237SOL    HW129718   6.870   3.424   9.705  1.1140  0.8595 -0.7911
 9237SOL    HW229719   6.985   3.361   9.628  0.3638 -1.6641  0.0550
 9238SOL     OW29720   9.673   6.373   4.449 -0.1865 -0.4920 -0.1259
 9238SOL    HW129721   9.686   6.352   4.542 -0.1651 -1.1600 -0.2721
 9238SOL    HW229722   9.761   6.377   4.412 -0.2212 -1.3472 -0.3411
 9239SOL     OW29723   7.631   4.008  10.531  0.3063 -0.4092 -0.0437
 9239SOL    HW129724   7.549   4.016  10.482  0.7594 -0.6116 -0.8494
 9239SOL    HW229725   7.699   3.998  10.464  0.6370 -3.6382  0.6145
 9240SOL     OW29726   7.995   4.541   5.440  0.3315  0.1274 -0.1959
 9240SOL    HW129727   8.014   4.514   5.530  1.0210  1.4679  0.0796
 9240SOL    HW229728   7.916   4.594   5.447  1.1460  1.3783 -0.1568
 9241SOL     OW29729   1.548   0.180   7.144  0.2649  0.1117  0.1280
 9241SOL    HW129730   1.632   0.203   7.106  0.3009 -1.3344 -0.7246
 9241SOL    HW229731   1.541   0.235   7.222  2.4478 -0.4802  0.7881
 9242SOL     OW29732   3.769   0.786   3.712 -0.4848  0.1941 -0.5972
 9242SOL    HW129733   3.743   0.865   3.760 -1.7824 -0.1740 -0.6547
 9242SOL    HW229734   3.686   0.739   3.697  0.3792 -1.9801  0.8583
 9243SOL     OW29735   3.633   1.361   3.806 -0.3188 -0.2665 -0.2992
 9243SOL    HW129736   3.662   1.270   3.809 -0.2703 -0.2610 -0.5279
 9243SOL    HW229737   3.604   1.373   3.716  1.1830  0.4004 -0.7379
 9244SOL     OW29738   0.157   6.771   7.934 -0.3419  0.6807 -0.1568
 9244SOL    HW129739   0.231   6.710   7.925 -0.6545  0.1064  0.9342
 9244SOL    HW229740   0.112   6.766   7.851 -1.0751 -1.5779  0.3040
 9245SOL     OW29741   5.250   1.100   0.267 -0.1254 -0.0316  0.1747
 9245SOL    HW129742   5.287   1.186   0.288 -0.3810  0.7150 -2.1094
 9245SOL    HW229743   5.326   1.046   0.244 -0.1820  0.7295 -1.9817
 9246SOL     OW29744   0.278   2.851   7.709 -0.8239  0.3597  0.0034
 9246SOL    HW129745   0.234   2.933   7.732 -2.0128  0.0326 -1.0389
 9246SOL    HW229746   0.315   2.867   7.622 -2.3696 -0.6736 -0.8838
 9247SOL     OW29747   6.391   9.464   7.187  0.4758  0.2796 -0.2970
 9247SOL    HW129748   6.368   9.433   7.274  0.9552 -0.6685 -0.4865
 9247SOL    HW229749   6.401   9.559   7.196 -0.2691  0.2881  0.4889
 9248SOL     OW29750  10.090   4.092   1.564 -0.5806  0.0019 -0.1755
 9248SOL    HW129751  10.042   4.030   1.509 -1.2259 -0.4939  0.9096
 9248SOL    HW229752  10.168   4.114   1.513  0.8543 -3.4271  0.2525
 9249SOL     OW29753   3.587   9.095   1.429 -0.2544  0.2656 -0.1524
 9249SOL    HW129754   3.658   9.051   1.383  1.0873  1.5972  0.5654
 9249SOL    HW229755   3.631   9.157   1.488 -1.9960  0.7431  0.7044
 9250SOL     OW29756   5.605   1.444   4.792  0.3776  0.4233 -0.2512
 9250SOL    HW129757   5.603   1.369   4.732  0.0855  0.6314 -0.5039
 9250SOL    HW229758   5.539   1.422   4.859  0.0531  0.6040 -0.5087
 9251SOL     OW29759   1.776   6.647   1.539 -0.0701  0.0105  0.0194
 9251SOL    HW129760   1.707   6.710   1.518 -0.6412 -0.5022  0.2867
 9251SOL    HW229761   1.854   6.699   1.554 -0.1598  0.5410 -1.2665
 9252SOL     OW29762   6.266   6.732   2.818 -0.1332 -0.7548  0.1380
 9252SOL    HW129763   6.175   6.721   2.792 -0.4906  1.2182  0.4092
 9252SOL    HW229764   6.269   6.701   2.909  0.0510 -3.0682 -0.5860
 9253SOL     OW29765   4.265   1.841  10.432  0.0577 -0.1972 -0.1173
 9253SOL    HW129766   4.266   1.747  10.412  0.7815  0.2025 -2.1500
 9253SOL    HW229767   4.181   1.872  10.399  0.3356  0.0767 -0.5838
 9254SOL     OW29768   0.748   1.557   8.170  0.4187  0.4795 -0.1572
 9254SOL    HW129769   0.740   1.495   8.243  0.4264 -0.9965 -1.3658
 9254SOL    HW229770   0.788   1.506   8.100 -3.4905  0.4789 -2.7188
 9255SOL     OW29771   9.483   1.911   7.825  0.1056 -0.7833  0.3073
 9255SOL    HW129772   9.531   1.975   7.772 -1.2763  0.3359  0.3444
 9255SOL    HW229773   9.481   1.949   7.912  0.5799 -1.6263  0.6936
 9256SOL     OW29774   5.023   5.138   3.439 -0.3556 -0.3716  0.2907
 9256SOL    HW129775   4.945   5.193   3.448 -2.4150 -3.0886  0.5783
 9256SOL    HW229776   5.057   5.130   3.528  0.4422  0.9991  0.1342
 9257SOL     OW29777   4.504   8.345   0.685 -0.5018 -0.4074 -0.5118
 9257SOL    HW129778   4.506   8.428   0.638 -1.5462 -0.0268  0.0742
 9257SOL    HW229779   4.565   8.288   0.637  1.3105  1.1007 -0.1085
 9258SOL     OW29780  10.354   1.437   3.057 -0.6327  0.0218 -0.1344
 9258SOL    HW129781  10.324   1.461   2.969 -0.5940 -0.4238 -0.2749
 9258SOL    HW229782  10.437   1.483   3.067  1.1987 -2.6454 -1.7582
 9259SOL     OW29783   8.409   2.106   0.373  0.2857  0.5048 -0.3499
 9259SOL    HW129784   8.481   2.077   0.316  0.8688  0.5704  0.3364
 9259SOL    HW229785   8.435   2.193   0.402  0.5444  0.0350  0.8940
 9260SOL     OW29786   7.438   2.019   4.319  0.0474 -0.4462 -0.0272
 9260SOL    HW129787   7.456   2.113   4.326 -0.5598 -0.4019  1.5078
 9260SOL    HW229788   7.344   2.012   4.337 -0.2325 -1.2236 -1.6352
 9261SOL     OW29789   7.563   3.429   1.958  0.6167 -0.5099  0.7139
 9261SOL    HW129790   7.531   3.504   1.908  0.0030  0.4089  2.4349
 9261SOL    HW229791   7.656   3.447   1.971  0.9043 -1.0106 -0.4920
 9262SOL     OW29792  10.003   0.001   2.109  0.0104 -0.1398  0.1660
 9262SOL    HW129793   9.999  -0.092   2.088 -0.1184 -0.2142  0.5256
 9262SOL    HW229794  10.071   0.007   2.176  0.9050  0.1861 -0.7365
 9263SOL     OW29795   0.959  10.352   3.190  0.2745 -0.0500  0.3300
 9263SOL    HW129796   0.918  10.353   3.276 -0.2975  1.3287  0.0644
 9263SOL    HW229797   1.030  10.288   3.198 -0.0383 -0.2543  1.6882
 9264SOL     OW29798   1.711   4.342   5.927  0.1160  0.5011 -0.6901
 9264SOL    HW129799   1.754   4.269   5.971 -1.9585 -0.7001 -0.5144
 9264SOL    HW229800   1.735   4.332   5.835  0.4928  0.0617 -0.5472
 9265SOL     OW29801   2.072   8.562   3.201  0.0485  0.5618 -0.3093
 9265SOL    HW129802   2.109   8.495   3.143 -1.1010 -0.8230  0.4712
 9265SOL    HW229803   1.977   8.548   3.195 -0.1824  1.8279  0.2460
 9266SOL     OW29804   0.389   8.845   2.814 -0.2945  0.3187 -0.0578
 9266SOL    HW129805   0.349   8.759   2.800 -0.2884  0.0817  1.2283
 9266SOL    HW229806   0.378   8.891   2.731 -1.5356 -0.4206 -0.3208
 9267SOL     OW29807   7.960   8.093   4.380 -0.0227 -0.8691 -0.1553
 9267SOL    HW129808   8.038   8.053   4.340  0.7299 -1.2352  1.6108
 9267SOL    HW229809   7.993   8.134   4.460 -1.3611  0.4916 -0.2717
 9268SOL     OW29810   0.329   2.524   2.318 -0.7529 -0.3096 -0.3483
 9268SOL    HW129811   0.249   2.572   2.342 -1.2056 -0.8169 -0.8273
 9268SOL    HW229812   0.319   2.507   2.225 -0.0287 -0.2899 -0.4344
 9269SOL     OW29813   3.193   5.850   5.912 -0.4522  0.4035 -0.5228
 9269SOL    HW129814   3.116   5.901   5.939 -0.8705  0.4721 -1.7743
 9269SOL    HW229815   3.258   5.868   5.979 -0.6357  2.4700 -0.8310
 9270SOL     OW29816   8.085   8.680   8.962  0.2771 -0.0193 -0.0663
 9270SOL    HW129817   8.015   8.729   8.919  1.8398  0.8490 -1.8345
 9270SOL    HW229818   8.118   8.621   8.893  0.2247 -1.5975  1.2116
 9271SOL     OW29819   5.049   4.709   8.810  0.1951 -0.0791  0.4115
 9271SOL    HW129820   5.079   4.733   8.723 -2.2975  0.9475 -0.2437
 9271SOL    HW229821   5.033   4.792   8.854 -3.8363 -0.3562 -0.1582
 9272SOL     OW29822   6.809   5.292   5.906  0.5119 -0.7717 -0.0582
 9272SOL    HW129823   6.761   5.212   5.926 -1.0668  0.6740  2.4261
 9272SOL    HW229824   6.800   5.302   5.811 -1.1993 -2.3448 -0.1178
 9273SOL     OW29825   4.048   4.197  10.508 -0.4845 -0.0288 -0.2646
 9273SOL    HW129826   4.087   4.188  10.421  0.7513  1.4608  0.1076
 9273SOL    HW229827   4.048   4.108  10.543  2.1257 -0.2062 -0.5070
 9274SOL     OW29828   4.827   9.628  10.344 -0.0681 -0.6627  0.0479
 9274SOL    HW129829   4.783   9.606  10.426 -0.0566  1.8459  0.8032
 9274SOL    HW229830   4.759   9.617  10.277 -0.6035 -0.9993  0.6380
 9275SOL     OW29831   2.028   5.609   6.947 -0.5360 -0.1877 -0.1837
 9275SOL    HW129832   2.089   5.540   6.971 -0.5187 -0.1861 -0.2228
 9275SOL    HW229833   2.021   5.663   7.026  1.2652  1.1156 -0.8299
 9276SOL     OW29834   8.364   8.259   3.634  0.1123 -0.2750  0.7380
 9276SOL    HW129835   8.360   8.292   3.724  0.3206  1.1461  0.2533
 9276SOL    HW229836   8.348   8.165   3.642  1.4447 -0.4012  2.3966
 9277SOL     OW29837  10.107   5.479   2.073 -0.3400  0.0265  0.2498
 9277SOL    HW129838  10.054   5.464   2.151 -2.7781  1.5096 -0.9833
 9277SOL    HW229839  10.065   5.554   2.030  2.6447  1.1130 -1.0156
 9278SOL     OW29840   5.233   2.639   9.351 -0.0308  0.0989  0.3143
 9278SOL    HW129841   5.138   2.632   9.339  0.0211  0.7050 -0.5552
 9278SOL    HW229842   5.260   2.704   9.286  0.7158  1.4163  1.8660
 9279SOL     OW29843   6.536   6.132  10.682  0.0183 -0.0612  0.2794
 9279SOL    HW129844   6.508   6.108  10.593 -0.2988  0.5591  0.2121
 9279SOL    HW229845   6.630   6.152  10.672  0.0292 -0.1877  0.1212
 9280SOL     OW29846   8.380   6.077   7.613  0.7923 -0.0467 -0.0935
 9280SOL    HW129847   8.442   6.023   7.564  0.4025 -1.2088  0.6663
 9280SOL    HW229848   8.353   6.022   7.686 -1.4180  0.3002 -0.5833
 9281SOL     OW29849   7.251   5.017   4.814  0.0662 -0.0223 -0.2967
 9281SOL    HW129850   7.326   4.958   4.816  0.5962  0.6355  1.4399
 9281SOL    HW229851   7.185   4.972   4.761  1.1378 -1.2851 -0.6004
 9282SOL     OW29852   8.442   4.577   0.506 -0.1100  0.1668  0.0396
 9282SOL    HW129853   8.452   4.655   0.560 -1.4121 -0.1252  0.7334
 9282SOL    HW229854   8.409   4.510   0.566 -1.9034 -0.0769 -1.1322
 9283SOL     OW29855  10.735   8.345  10.504  0.6264  0.3505  0.0755
 9283SOL    HW129856  10.739   8.278  10.572  0.2610 -0.2678 -0.4957
 9283SOL    HW229857  10.799   8.318  10.438  1.4133  1.2661  0.4320
 9284SOL     OW29858   4.800   9.500   0.255  0.3616  0.4276 -0.1351
 9284SOL    HW129859   4.745   9.522   0.330 -0.0403 -0.9935  0.0154
 9284SOL    HW229860   4.741   9.507   0.180  0.4543  0.6679 -0.1874
 9285SOL     OW29861   8.664   7.785   8.803 -0.3121 -0.0163 -0.0715
 9285SOL    HW129862   8.669   7.818   8.713 -2.6942 -1.0766 -0.6722
 9285SOL    HW229863   8.752   7.750   8.820  0.2621  0.4098 -1.9023
 9286SOL     OW29864   6.610   7.489   2.903  0.3279  0.3651 -0.3862
 9286SOL    HW129865   6.643   7.477   2.992  2.4428  2.4529 -0.7915
 9286SOL    HW229866   6.657   7.424   2.851  0.0774  0.0416 -0.2182
 9287SOL     OW29867   7.327  10.141   1.953 -0.1056  0.6332 -0.0025
 9287SOL    HW129868   7.274  10.202   1.903  0.1658  0.4523 -0.5164
 9287SOL    HW229869   7.337  10.065   1.896 -1.0389 -0.1994  0.9080
 9288SOL     OW29870   1.399   4.097   1.136 -0.1661  0.0766 -0.0773
 9288SOL    HW129871   1.367   4.033   1.199 -1.2257  0.1660 -0.5145
 9288SOL    HW229872   1.486   4.064   1.111  0.1865 -0.0686  1.2439
 9289SOL     OW29873   1.381   9.135   3.271 -0.4941 -0.0147  0.0360
 9289SOL    HW129874   1.428   9.134   3.354 -0.1303  0.3149 -0.1656
 9289SOL    HW229875   1.309   9.197   3.286 -0.9803 -0.6430  0.3962
 9290SOL     OW29876   5.709   0.270   3.199 -0.2582 -0.1624  0.0668
 9290SOL    HW129877   5.618   0.288   3.226 -0.2244  0.8855 -0.4614
 9290SOL    HW229878   5.701   0.213   3.123 -0.4617 -0.5021  0.3437
 9291SOL     OW29879   3.892  10.364  10.244  0.0999  0.1171  0.6841
 9291SOL    HW129880   3.845  10.431  10.194  0.9354  0.7668  0.7584
 9291SOL    HW229881   3.878  10.283  10.195 -0.2688  0.4876  0.1744
 9292SOL     OW29882   2.803   7.554   1.790  0.0635  0.3028 -0.4281
 9292SOL    HW129883   2.809   7.478   1.849 -0.0036  1.3242  0.9356
 9292SOL    HW229884   2.722   7.540   1.741 -0.3216 -0.1720  0.3153
 9293SOL     OW29885   1.181  10.851   5.748  0.2529 -0.1305 -0.1240
 9293SOL    HW129886   1.209  10.935   5.712  0.6883  0.8218  2.2082
 9293SOL    HW229887   1.086  10.850   5.738  0.2852  0.4643 -0.5254
 9294SOL     OW29888   7.960   1.103   8.490  0.1077  0.0378  0.0265
 9294SOL    HW129889   7.991   1.048   8.418 -0.1504  0.0591 -0.1021
 9294SOL    HW229890   8.036   1.156   8.515 -0.2427  1.2500 -1.3530
 9295SOL     OW29891   8.720   9.411   1.169  0.0542  0.6053 -0.2549
 9295SOL    HW129892   8.815   9.421   1.180 -0.1706  1.1342  1.5695
 9295SOL    HW229893   8.706   9.415   1.075  2.1092 -1.9093 -0.8126
 9296SOL     OW29894   0.850   1.607   5.285 -0.1826 -0.6120  0.2792
 9296SOL    HW129895   0.933   1.653   5.275  0.1352 -1.1914  0.2266
 9296SOL    HW229896   0.813   1.606   5.197  0.3072 -1.3760  0.0721
 9297SOL     OW29897   0.689   4.420   6.586 -0.3264 -0.0210 -0.6167
 9297SOL    HW129898   0.619   4.403   6.649 -1.6261  0.5099 -1.8581
 9297SOL    HW229899   0.739   4.491   6.625 -1.0577  0.2345 -0.1239
 9298SOL     OW29900   0.808   8.603   9.723  0.5508  0.0942  0.6979
 9298SOL    HW129901   0.757   8.659   9.782  0.2192  1.1386 -0.5326
 9298SOL    HW229902   0.855   8.543   9.782  1.4628  2.0991  2.1539
 9299SOL     OW29903   5.057  10.904   3.587  0.0961  0.1166  0.2053
 9299SOL    HW129904   4.996  10.943   3.650 -0.5288 -0.2153 -0.1894
 9299SOL    HW229905   5.124  10.862   3.641 -0.8629 -0.8592  0.6788
 9300SOL     OW29906   0.009   8.383  10.734  0.2588  0.5800 -0.2488
 9300SOL    HW129907  -0.007   8.397  10.641 -0.4681 -1.9506 -0.5761
 9300SOL    HW229908  -0.078   8.388  10.774  0.0748 -1.5367 -0.2574
 9301SOL     OW29909   2.842   0.715   6.640  0.3227 -0.1464  0.7336
 9301SOL    HW129910   2.819   0.774   6.712  1.5441 -0.1934  1.1819
 9301SOL    HW229911   2.849   0.772   6.564  0.0829  0.0674  0.8703
 9302SOL     OW29912   0.445   7.530   6.431  0.2625 -0.1538  0.1607
 9302SOL    HW129913   0.521   7.568   6.474  0.4602  0.1363 -0.4273
 9302SOL    HW229914   0.370   7.560   6.484  0.4888  0.2940  0.2335
 9303SOL     OW29915   3.298   2.398   2.559 -0.7995 -0.2479 -0.1277
 9303SOL    HW129916   3.228   2.449   2.600 -0.2431 -0.6492  1.3896
 9303SOL    HW229917   3.378   2.443   2.586 -0.2835 -1.9865  1.4090
 9304SOL     OW29918   3.198  10.369   3.019 -0.4888 -0.0186 -0.2746
 9304SOL    HW129919   3.104  10.381   3.027 -0.4924 -0.2905  0.1449
 9304SOL    HW229920   3.213  10.352   2.926 -0.4005  3.9296 -1.1637
 9305SOL     OW29921   5.182   1.723  10.431 -0.5615  0.2952  0.2736
 9305SOL    HW129922   5.127   1.727  10.509  0.3341 -0.2778  0.9570
 9305SOL    HW229923   5.174   1.810  10.392 -1.5461  0.3794  0.6238
 9306SOL     OW29924   6.092   3.692   9.779  0.2397  0.0543  0.3201
 9306SOL    HW129925   6.177   3.652   9.757  0.5163  0.9984 -0.3623
 9306SOL    HW229926   6.096   3.779   9.740 -0.3324  0.7833  1.8245
 9307SOL     OW29927  10.561   7.531   6.215  0.2782 -0.0451 -0.0445
 9307SOL    HW129928  10.469   7.523   6.189  0.1132  0.6904  0.3079
 9307SOL    HW229929  10.593   7.608   6.168  0.7067 -0.2769 -0.1353
 9308SOL     OW29930   7.503   2.654   2.284 -0.5823  0.3193  0.2942
 9308SOL    HW129931   7.481   2.737   2.241  2.2426  1.2949  0.5575
 9308SOL    HW229932   7.522   2.678   2.375  1.4905 -0.3617  0.0856
 9309SOL     OW29933   8.508   0.004   6.793 -0.1398  0.4108 -0.6384
 9309SOL    HW129934   8.600  -0.017   6.772  0.0195 -0.5318  0.8826
 9309SOL    HW229935   8.464  -0.081   6.794 -0.8664  0.7832 -0.5496
 9310SOL     OW29936   8.154   6.848   0.761 -0.0784  0.0026 -0.2473
 9310SOL    HW129937   8.131   6.935   0.727  0.4043 -0.9798 -3.3623
 9310SOL    HW229938   8.086   6.790   0.729  0.2824 -1.0003  0.7359
 9311SOL     OW29939   1.990   3.694   2.799  0.1126  0.1256  0.2150
 9311SOL    HW129940   1.981   3.766   2.736  1.7514 -0.1475 -0.3546
 9311SOL    HW229941   1.985   3.737   2.885  0.0382  0.7812 -0.1131
 9312SOL     OW29942   5.045   7.362   7.876 -0.0291 -0.7202  0.3318
 9312SOL    HW129943   4.965   7.403   7.911  0.7323  2.6457 -1.3674
 9312SOL    HW229944   5.018   7.325   7.792 -0.1406 -1.0022  0.4942
 9313SOL     OW29945   5.957   6.504  10.648  0.0050  0.1925  0.2686
 9313SOL    HW129946   6.012   6.429  10.670 -0.2105 -0.3445 -0.9260
 9313SOL    HW229947   6.009   6.554  10.585  0.6017  1.6682  1.8660
 9314SOL     OW29948  10.669   4.227   6.150 -0.1901 -0.4305  0.0533
 9314SOL    HW129949  10.645   4.312   6.185 -1.7718 -0.1274 -1.6358
 9314SOL    HW229950  10.713   4.183   6.223  0.7072  1.8105  0.9545
 9315SOL     OW29951   2.473   2.501   6.180 -0.2816  0.5029  0.4586
 9315SOL    HW129952   2.554   2.539   6.213  1.0089 -1.6319 -0.0319
 9315SOL    HW229953   2.479   2.511   6.085  0.7269 -1.8926  0.1914
 9316SOL     OW29954   3.791   0.563   4.691 -0.1301 -0.1230 -0.2891
 9316SOL    HW129955   3.803   0.497   4.623 -1.4177  0.0143 -0.6805
 9316SOL    HW229956   3.768   0.513   4.769  1.6233 -0.3008  0.1573
 9317SOL     OW29957  10.458   4.514  10.414 -0.2686  0.6114 -0.8214
 9317SOL    HW129958  10.533   4.474  10.369  0.3114  0.2625  0.4085
 9317SOL    HW229959  10.422   4.575  10.350  0.6806  0.3278 -1.6653
 9318SOL     OW29960  10.675  10.778  10.035 -0.1551  0.0929 -0.4959
 9318SOL    HW129961  10.730  10.846   9.997 -2.0118  2.1765  0.3433
 9318SOL    HW229962  10.597  10.777   9.979  0.0133 -1.7176 -0.7669
 9319SOL     OW29963   2.664  10.162   9.794 -0.5016 -0.0573 -0.5849
 9319SOL    HW129964   2.694  10.200   9.712 -1.7234 -0.1769 -1.1137
 9319SOL    HW229965   2.616  10.083   9.767 -0.1216 -0.6024  0.3100
 9320SOL     OW29966   4.924   7.153   9.646 -0.2826  0.1224 -0.3643
 9320SOL    HW129967   4.991   7.110   9.594 -0.2061  2.5477 -2.4473
 9320SOL    HW229968   4.972   7.217   9.698 -0.7837  0.4534 -0.3034
 9321SOL     OW29969   1.245   7.501   2.081  0.4752 -0.4481  0.0967
 9321SOL    HW129970   1.327   7.485   2.129  1.4237 -0.8355 -1.5759
 9321SOL    HW229971   1.197   7.419   2.089  0.6993 -0.5664  0.2472
 9322SOL     OW29972   9.175   0.731   3.209 -0.4561  0.5498  0.2722
 9322SOL    HW129973   9.105   0.767   3.263 -0.6736 -0.5156  0.7342
 9322SOL    HW229974   9.254   0.740   3.262 -0.6704 -0.5035  0.8035
 9323SOL     OW29975   5.496   8.207   6.255 -0.0121 -0.3145 -0.3198
 9323SOL    HW129976   5.568   8.191   6.316 -0.7428 -1.5089  0.2851
 9323SOL    HW229977   5.525   8.169   6.173 -0.5752 -2.3703  0.3658
 9324SOL     OW29978   8.379   8.013   8.537  0.3950 -0.1665 -0.3395
 9324SOL    HW129979   8.318   8.087   8.544 -1.8982 -1.8315 -1.1672
 9324SOL    HW229980   8.441   8.039   8.469 -0.4494  0.9551 -0.7112
 9325SOL     OW29981   9.896   2.760  10.245 -0.3446 -0.2673  0.4591
 9325SOL    HW129982   9.932   2.784  10.330  2.5617 -0.7021 -0.5517
 9325SOL    HW229983   9.814   2.715  10.266 -0.6595  1.2371  2.8809
 9326SOL     OW29984   8.751   3.112   1.439  0.0102  0.2482  0.0424
 9326SOL    HW129985   8.752   3.196   1.486  1.1941  0.6075 -0.5887
 9326SOL    HW229986   8.679   3.119   1.377  0.2254  0.8885 -0.1421
 9327SOL     OW29987   2.801   5.690   3.319  0.0200  0.3455 -0.2857
 9327SOL    HW129988   2.851   5.609   3.315 -0.7642 -0.1106 -1.0468
 9327SOL    HW229989   2.764   5.701   3.232 -1.1725  0.6869  0.2365
 9328SOL     OW29990   5.426   2.581   8.576 -0.1933 -0.2943  0.4040
 9328SOL    HW129991   5.476   2.583   8.495 -0.1458  0.5395  0.4425
 9328SOL    HW229992   5.342   2.620   8.553 -0.0875  0.1842  0.8099
 9329SOL     OW29993   2.008   5.223   2.892 -0.2377  0.2304  0.1076
 9329SOL    HW129994   1.969   5.142   2.924  1.0271 -0.7555 -0.7482
 9329SOL    HW229995   1.980   5.229   2.801 -1.8375  1.7611  0.6354
 9330SOL     OW29996   7.058   2.680   8.251 -0.1494 -0.3694 -0.2936
 9330SOL    HW129997   7.105   2.762   8.266  0.0647 -0.4062 -0.7545
 9330SOL    HW229998   6.980   2.686   8.306 -0.6771  0.6044 -1.1165
 9331SOL     OW29999   7.157   5.208  10.312  0.1398  0.3205 -0.4126
 9331SOL    HW130000   7.208   5.285  10.339 -1.3550  1.2565 -0.1159
 9331SOL    HW230001   7.221   5.150  10.270  1.8805  0.3924  1.9684
 9332SOL     OW30002   3.764   2.028   6.963  0.3361  0.4320  0.1223
 9332SOL    HW130003   3.742   2.018   6.870 -3.2620 -2.1734  1.0109
 9332SOL    HW230004   3.717   2.107   6.990 -0.1161  0.1844  0.0714
 9333SOL     OW30005  10.440   5.811   1.840  0.2192  0.1754  0.1535
 9333SOL    HW130006  10.469   5.786   1.752  0.5251 -0.0348  0.3125
 9333SOL    HW230007  10.353   5.849   1.826  0.1506 -0.0995 -0.2094
 9334SOL     OW30008   8.305   5.556   6.839  0.0584  0.1383 -0.1343
 9334SOL    HW130009   8.371   5.489   6.818 -1.3540 -0.7309 -2.1267
 9334SOL    HW230010   8.252   5.562   6.760 -0.7153  2.6671  0.5060
 9335SOL     OW30011   2.821   0.415  10.418  0.4030  0.8292  0.9471
 9335SOL    HW130012   2.752   0.434  10.481 -0.0620 -0.7460  0.9381
 9335SOL    HW230013   2.828   0.320  10.417  2.1886  0.9316  0.5179
 9336SOL     OW30014   2.170   2.307   3.563 -0.4089  0.2895 -0.2560
 9336SOL    HW130015   2.235   2.377   3.556 -2.0417  1.7845 -1.3924
 9336SOL    HW230016   2.195   2.259   3.643  1.0718  1.8295  0.2726
 9337SOL     OW30017   3.750   4.701   2.344 -0.6910  0.1831  0.6102
 9337SOL    HW130018   3.807   4.739   2.277 -1.3769 -0.0042 -0.0920
 9337SOL    HW230019   3.773   4.749   2.424 -1.6871  2.2783 -0.2812
 9338SOL     OW30020   8.584   8.549   1.226 -0.0984  0.3647 -0.9693
 9338SOL    HW130021   8.550   8.639   1.229  0.8325  0.7058  0.3002
 9338SOL    HW230022   8.678   8.559   1.237  0.1219 -0.7336 -1.7149
 9339SOL     OW30023   1.889   4.102   5.964 -0.3807 -0.7192 -0.4080
 9339SOL    HW130024   1.879   4.071   6.054  1.0880 -0.7265 -0.2222
 9339SOL    HW230025   1.979   4.080   5.941 -0.5805 -0.2667 -1.7132
 9340SOL     OW30026   9.128   3.771   3.792 -0.5410 -0.6960 -0.2221
 9340SOL    HW130027   9.038   3.771   3.826 -0.2449 -0.8090  0.5972
 9340SOL    HW230028   9.120   3.743   3.701 -1.4655  0.4590 -0.5239
 9341SOL     OW30029   9.992   0.583   0.379 -0.2016  0.3142  0.1589
 9341SOL    HW130030  10.046   0.538   0.315 -0.9682  0.2400 -0.4502
 9341SOL    HW230031   9.919   0.524   0.395 -0.9534  1.1008 -0.2622
 9342SOL     OW30032   9.984   2.318   8.745  0.2368  0.6935 -0.0231
 9342SOL    HW130033   9.935   2.266   8.809  0.3084  1.8406  0.9829
 9342SOL    HW230034  10.055   2.357   8.795  3.2329 -2.1043 -1.7090
 9343SOL     OW30035   5.970   3.714   6.536 -0.0319 -0.1848 -0.5298
 9343SOL    HW130036   6.016   3.754   6.610 -0.5418 -0.6456  0.0482
 9343SOL    HW230037   5.983   3.620   6.547 -1.9576 -0.4124  0.2671
 9344SOL     OW30038   3.718   2.614   3.202 -0.3800  0.0685 -0.0223
 9344SOL    HW130039   3.783   2.612   3.272  0.8009 -0.6256 -1.0782
 9344SOL    HW230040   3.641   2.654   3.241 -0.0121 -0.9538  1.8806
 9345SOL     OW30041   5.303   9.856   8.866  0.5567  0.5331 -0.2754
 9345SOL    HW130042   5.397   9.842   8.881  0.5979  1.8048  0.7857
 9345SOL    HW230043   5.261   9.806   8.936  0.4488  0.2773 -0.5219
 9346SOL     OW30044   3.211   1.059   8.870 -0.1748  0.0903 -0.0834
 9346SOL    HW130045   3.167   0.974   8.876 -1.0713  0.4881 -0.8311
 9346SOL    HW230046   3.304   1.037   8.862 -0.4733 -0.8647 -1.1856
 9347SOL     OW30047   6.114   6.535   3.411 -0.6475 -0.1922  0.4856
 9347SOL    HW130048   6.053   6.560   3.342  2.4457  2.0973 -1.7297
 9347SOL    HW230049   6.086   6.585   3.487 -1.4005  0.9924 -0.5228
 9348SOL     OW30050   1.837   3.102   9.611 -0.3292 -0.7260  0.2343
 9348SOL    HW130051   1.914   3.046   9.614  1.5035  1.6420 -0.1626
 9348SOL    HW230052   1.849   3.164   9.683 -0.6705  1.0712 -1.1731
 9349SOL     OW30053   7.685   9.218   6.833 -0.5056  0.1053 -0.0679
 9349SOL    HW130054   7.700   9.278   6.760 -0.4018 -1.1773 -1.1403
 9349SOL    HW230055   7.653   9.138   6.792 -0.8313 -0.5147  1.3437
 9350SOL     OW30056   1.931   7.091   4.386 -0.0181 -0.0171  0.3767
 9350SOL    HW130057   1.896   7.005   4.411  0.4527 -0.3266  0.0070
 9350SOL    HW230058   2.026   7.080   4.391  0.0449  0.8658  1.5657
 9351SOL     OW30059   1.593   7.393   9.535  0.2224 -0.2135  0.3040
 9351SOL    HW130060   1.624   7.427   9.619 -1.6238  1.3381  0.4281
 9351SOL    HW230061   1.657   7.326   9.511  0.8319 -0.6843  2.9140
 9352SOL     OW30062   0.977  10.289   6.981  0.0347 -0.6960 -0.7096
 9352SOL    HW130063   0.905  10.295   7.043 -1.2388  0.2148 -2.2228
 9352SOL    HW230064   0.983  10.195   6.960  0.2619 -0.9709  0.4756
 9353SOL     OW30065   3.730   3.113   4.622 -0.1012 -0.1910 -0.6063
 9353SOL    HW130066   3.724   3.198   4.667  1.7630 -0.7857  0.8968
 9353SOL    HW230067   3.682   3.053   4.679  0.2804 -0.5162 -0.6287
 9354SOL     OW30068   4.977   7.956   0.997 -0.8480 -0.0347 -0.3481
 9354SOL    HW130069   4.940   7.868   0.991 -1.0003 -0.1734  1.8681
 9354SOL    HW230070   4.919   8.003   1.058 -1.6086  2.0946 -2.5283
 9355SOL     OW30071   0.827   4.652   7.474  0.1836  0.5978  0.0280
 9355SOL    HW130072   0.810   4.565   7.509 -0.4197 -0.2339 -2.1558
 9355SOL    HW230073   0.740   4.687   7.456  0.4736  0.4461 -1.8019
 9356SOL     OW30074   2.784   9.687   5.565  0.5379  0.0937  0.0261
 9356SOL    HW130075   2.873   9.683   5.600  1.4837  1.1327 -2.1063
 9356SOL    HW230076   2.746   9.765   5.606  1.1598  0.5534 -0.2626
 9357SOL     OW30077   1.080   2.552   4.030 -0.5270 -0.3194  0.1309
 9357SOL    HW130078   1.025   2.622   4.064 -1.6486 -1.8866  1.7678
 9357SOL    HW230079   1.017   2.488   3.995  0.4012 -0.9244 -0.4630
 9358SOL     OW30080   9.378   3.078   5.361 -0.4139  0.4544 -1.0524
 9358SOL    HW130081   9.296   3.120   5.333 -2.4161 -1.6334  1.1578
 9358SOL    HW230082   9.396   3.012   5.295 -1.8575 -0.6083 -0.4225
 9359SOL     OW30083   9.909   2.297   8.026 -0.6305 -1.0153  0.7220
 9359SOL    HW130084   9.868   2.326   7.944 -0.9707 -1.6250  0.6711
 9359SOL    HW230085   9.848   2.233   8.062 -1.4378  0.6097  2.4140
 9360SOL     OW30086   3.558   9.090   4.293 -0.1837 -0.0768 -0.0308
 9360SOL    HW130087   3.498   9.055   4.359 -0.9848  0.7476 -0.2998
 9360SOL    HW230088   3.611   9.015   4.266 -0.1139 -0.5144  1.2516
 9361SOL     OW30089   8.785   4.992  10.317 -0.5382  0.2674  0.3820
 9361SOL    HW130090   8.877   5.003  10.342 -0.5964  0.8508  0.3710
 9361SOL    HW230091   8.787   4.944  10.235 -0.2854 -0.5571  0.8614
 9362SOL     OW30092   5.168   2.538   3.609  0.1601  0.2815 -0.7574
 9362SOL    HW130093   5.127   2.596   3.672  0.3231  2.3236 -2.4245
 9362SOL    HW230094   5.104   2.530   3.538  0.1672 -1.5749 -0.6019
 9363SOL     OW30095   7.111   6.236  10.482  0.2991 -0.7429 -0.0492
 9363SOL    HW130096   7.031   6.204  10.522  0.7604 -0.7614  0.8759
 9363SOL    HW230097   7.118   6.187  10.400  0.5205 -2.3702  0.9129
 9364SOL     OW30098   1.853   5.121   8.886  0.5394 -0.2660  0.5205
 9364SOL    HW130099   1.806   5.174   8.950  0.5245  1.4100 -0.8084
 9364SOL    HW230100   1.945   5.128   8.913  0.5126  0.2687  0.4833
 9365SOL     OW30101   9.055  10.060   8.853  0.5747 -0.4262  0.2525
 9365SOL    HW130102   9.012  10.046   8.937 -0.9657 -0.4371 -0.5091
 9365SOL    HW230103   9.047   9.976   8.808  0.2538 -0.0545 -0.3941
 9366SOL     OW30104   1.541  10.464   4.893  0.0964 -0.0039 -0.3273
 9366SOL    HW130105   1.493  10.524   4.950 -1.9752 -0.3525 -1.6358
 9366SOL    HW230106   1.475  10.427   4.834  1.5977 -2.2517 -0.7330
 9367SOL     OW30107   6.196   3.560   9.209 -0.0470 -0.2259 -0.6985
 9367SOL    HW130108   6.257   3.633   9.221 -0.8349  0.3212  0.0743
 9367SOL    HW230109   6.150   3.554   9.292 -2.5302  0.7333 -1.9128
 9368SOL     OW30110   7.559   3.951   7.802  0.3944 -0.0658 -0.2666
 9368SOL    HW130111   7.542   3.870   7.849 -0.1946 -0.0419 -0.4242
 9368SOL    HW230112   7.652   3.948   7.782  0.5134 -0.3854  0.3136
 9369SOL     OW30113   2.633   3.532   9.988  0.3466  0.1025  0.7816
 9369SOL    HW130114   2.640   3.439  10.010  1.4938 -0.3184 -1.1493
 9369SOL    HW230115   2.609   3.533   9.895 -0.3137  1.7478  0.9395
 9370SOL     OW30116   6.087  10.422   8.744 -0.2685 -0.0080 -0.1526
 9370SOL    HW130117   6.014  10.483   8.748 -0.4642 -0.1954 -0.6769
 9370SOL    HW230118   6.091  10.383   8.831 -0.8217 -0.0273 -0.1321
 9371SOL     OW30119   0.585   2.315   6.972 -0.0584  0.2313 -0.1634
 9371SOL    HW130120   0.656   2.363   7.014  0.9759 -0.5008 -1.0143
 9371SOL    HW230121   0.591   2.340   6.880 -0.9278  0.1831 -0.2394
 9372SOL     OW30122   8.703   8.116   8.978  0.6113  0.5250 -0.1508
 9372SOL    HW130123   8.630   8.068   8.940 -0.1922  1.0935  0.6485
 9372SOL    HW230124   8.675   8.137   9.067  1.5736  1.1213  0.0296
 9373SOL     OW30125   4.568  10.889   7.065  0.8503 -0.1486 -0.7597
 9373SOL    HW130126   4.515  10.835   7.123  1.3060 -0.2406 -0.4249
 9373SOL    HW230127   4.621  10.827   7.015 -0.9234 -0.2101 -2.7121
 9374SOL     OW30128  10.490   6.858  10.898 -0.1189  0.1630 -0.3100
 9374SOL    HW130129  10.559   6.837  10.834  1.9803  0.7444  1.6280
 9374SOL    HW230130  10.472   6.951  10.883 -0.1351  0.1261 -0.5209
 9375SOL     OW30131   7.109   7.843   3.817  0.5160  0.2726 -0.1219
 9375SOL    HW130132   7.050   7.874   3.886 -0.0491  0.0206 -0.4868
 9375SOL    HW230133   7.152   7.767   3.856 -0.4696 -0.4236 -0.3426
 9376SOL     OW30134   4.047   1.840   0.095 -0.0011  0.1845  0.7301
 9376SOL    HW130135   4.103   1.785   0.150 -1.2667 -0.9416  0.9380
 9376SOL    HW230136   4.059   1.807   0.006 -2.4439 -2.0564  1.1061
 9377SOL     OW30137   0.426   0.492   6.815 -0.5466  0.1073  0.0756
 9377SOL    HW130138   0.490   0.449   6.759 -0.4920  0.6321 -0.2748
 9377SOL    HW230139   0.462   0.580   6.830  0.2135 -0.5146  2.2097
 9378SOL     OW30140  10.932   9.504   7.341 -0.5431  0.2982 -0.2653
 9378SOL    HW130141  10.895   9.488   7.427 -0.2464  1.2102  0.0535
 9378SOL    HW230142  10.890   9.441   7.283  0.2686 -1.2650  0.7955
 9379SOL     OW30143   2.956   9.489   7.574 -0.3641 -0.1174  0.0234
 9379SOL    HW130144   2.896   9.531   7.635  1.4727  1.1867  1.0463
 9379SOL    HW230145   2.900   9.454   7.505 -2.4112 -0.5800  1.8210
 9380SOL     OW30146   9.501   2.516   7.272  0.4077 -0.0378  0.1554
 9380SOL    HW130147   9.422   2.519   7.325  0.4100  0.4818  0.1395
 9380SOL    HW230148   9.520   2.423   7.261 -0.4164 -0.1783 -0.1585
 9381SOL     OW30149   2.077   4.467   9.684  0.2898 -0.1991  0.3541
 9381SOL    HW130150   2.110   4.538   9.740  2.0373 -0.1876 -0.6327
 9381SOL    HW230151   1.984   4.486   9.674  0.3466  0.9082  1.6251
 9382SOL     OW30152   2.099   4.057   4.400  0.6245 -0.1387 -0.0632
 9382SOL    HW130153   2.118   4.145   4.432 -1.0203  0.5237 -0.8072
 9382SOL    HW230154   2.179   4.030   4.355  1.4022  0.6661  0.7898
 9383SOL     OW30155   0.900   1.725   0.909 -0.1665 -0.1578  0.0771
 9383SOL    HW130156   0.832   1.658   0.899  1.3565 -1.5532 -1.6790
 9383SOL    HW230157   0.906   1.740   1.003 -1.2890 -1.7090  0.4304
 9384SOL     OW30158   4.549   4.015   2.246  0.3517 -0.0269 -0.3321
 9384SOL    HW130159   4.608   3.943   2.270 -1.1193 -1.6124 -1.2807
 9384SOL    HW230160   4.575   4.038   2.157 -0.5216 -0.8455 -0.8165
 9385SOL     OW30161   3.706   2.149   8.553 -0.4159 -0.3638 -0.3289
 9385SOL    HW130162   3.677   2.138   8.462 -1.9541 -1.4968  0.2511
 9385SOL    HW230163   3.633   2.193   8.596  0.8080  1.3240  0.1201
 9386SOL     OW30164   5.342   4.901   8.165  0.0973  0.2161  0.8215
 9386SOL    HW130165   5.273   4.842   8.134 -0.5628  1.0060  0.7345
 9386SOL    HW230166   5.407   4.900   8.095  0.3288 -0.7597  1.0322
 9387SOL     OW30167   0.350   8.109   9.187  0.0338 -0.0775  0.5510
 9387SOL    HW130168   0.384   8.188   9.228 -1.8328 -0.2728  2.7155
 9387SOL    HW230169   0.344   8.130   9.094  0.1048  2.1417  1.0032
 9388SOL     OW30170   9.383   8.780   6.886 -0.0037  0.4131  0.0927
 9388SOL    HW130171   9.401   8.796   6.979  0.0816 -0.5116  0.2470
 9388SOL    HW230172   9.313   8.715   6.886 -0.0113  0.4184 -0.4916
 9389SOL     OW30173   5.014  10.190   3.570 -0.2789  0.2621 -0.1107
 9389SOL    HW130174   5.002  10.244   3.648  0.3713 -0.3955  0.4566
 9389SOL    HW230175   5.105  10.204   3.544 -0.0457 -0.6696  0.1442
 9390SOL     OW30176   9.672   1.720   3.914 -0.6315 -0.1358  0.3694
 9390SOL    HW130177   9.615   1.796   3.922 -0.9361 -0.4457  1.3326
 9390SOL    HW230178   9.616   1.652   3.877 -0.1943  0.2659 -1.0831
 9391SOL     OW30179   8.891   5.106   0.267  0.2697 -1.2320  0.3578
 9391SOL    HW130180   8.836   5.078   0.341 -0.6268 -1.1633 -0.2621
 9391SOL    HW230181   8.908   5.025   0.219 -0.7500 -1.0178 -0.3985
 9392SOL     OW30182   7.543   6.530   8.832  0.3790 -0.0442  0.1918
 9392SOL    HW130183   7.560   6.592   8.903 -0.5543 -0.8746  1.1750
 9392SOL    HW230184   7.501   6.583   8.764 -0.1367  0.4612  0.8880
 9393SOL     OW30185   0.340   4.023   4.912 -0.1675 -0.1500 -0.3423
 9393SOL    HW130186   0.334   4.006   5.006 -0.7369  1.7431 -0.0017
 9393SOL    HW230187   0.321   4.116   4.903 -0.4037 -0.3555 -2.3764
 9394SOL     OW30188   5.312   7.655   1.014  0.3890 -0.3351  0.2663
 9394SOL    HW130189   5.363   7.687   0.940  2.1063  0.7106  1.8067
 9394SOL    HW230190   5.339   7.564   1.025  0.5686 -0.3170 -0.0261
 9395SOL     OW30191   1.862  10.044   0.009 -0.6188 -0.5933 -0.7888
 9395SOL    HW130192   1.927  10.109  -0.018 -0.3545 -0.6932 -0.3939
 9395SOL    HW230193   1.779  10.092   0.009 -0.3474 -0.1067  0.0282
 9396SOL     OW30194  10.643   0.569   6.225  0.1344  0.3655  0.1542
 9396SOL    HW130195  10.652   0.662   6.202  0.3144  0.9538  2.3948
 9396SOL    HW230196  10.560   0.564   6.272  0.7361 -0.3661  1.1649
 9397SOL     OW30197  11.005   7.391   1.178 -0.4799 -0.4570  0.2784
 9397SOL    HW130198  11.009   7.472   1.228 -1.5074 -0.9819  1.2477
 9397SOL    HW230199  10.914   7.385   1.149 -0.4644 -1.3649  0.3900
 9398SOL     OW30200  10.465   1.662   8.930 -0.5527 -0.4395  0.6111
 9398SOL    HW130201  10.390   1.615   8.892 -0.9261  0.8171 -0.2921
 9398SOL    HW230202  10.492   1.723   8.861  1.2093 -0.7439  0.9907
 9399SOL     OW30203   9.814   6.294   5.727 -0.4248  0.1246  0.2372
 9399SOL    HW130204   9.831   6.244   5.807  1.2077  0.6732  0.2791
 9399SOL    HW230205   9.855   6.243   5.657  0.9781  1.1821  0.2369
 9400SOL     OW30206   3.561   4.855   3.043 -0.2618  0.0204  0.2760
 9400SOL    HW130207   3.513   4.922   2.995  0.2266  1.1665  1.3313
 9400SOL    HW230208   3.528   4.861   3.133  0.7296 -0.2436  0.6741
 9401SOL     OW30209   3.359   5.089   5.308 -0.4103  0.0352 -1.0576
 9401SOL    HW130210   3.359   5.151   5.382 -0.3702  0.9264 -1.7869
 9401SOL    HW230211   3.269   5.091   5.276 -1.2916 -2.6921  0.8256
 9402SOL     OW30212  10.680   1.473   5.248 -0.7407  0.0948 -0.0089
 9402SOL    HW130213  10.625   1.493   5.324 -0.8819 -0.6344  0.0877
 9402SOL    HW230214  10.618   1.450   5.179 -0.6318  1.2879 -0.5097
 9403SOL     OW30215   0.852   3.921   6.905 -0.0904 -0.1441 -0.4254
 9403SOL    HW130216   0.815   3.954   6.987  0.5579 -0.3307 -0.0518
 9403SOL    HW230217   0.798   3.845   6.883 -1.7093  1.1922 -1.3781
 9404SOL     OW30218   5.496   5.471   7.104 -0.3409  0.2153  0.0113
 9404SOL    HW130219   5.539   5.519   7.175  1.2568 -1.3491  0.1711
 9404SOL    HW230220   5.562   5.468   7.034 -1.2005  0.1038 -0.8103
 9405SOL     OW30221   0.790   6.376   2.357 -0.3848 -0.3823 -0.4248
 9405SOL    HW130222   0.737   6.297   2.350  0.7237 -1.2242  0.5217
 9405SOL    HW230223   0.879   6.345   2.372 -0.1802  1.0326  1.6625
 9406SOL     OW30224   7.090   5.467   4.260 -0.0713 -0.2875  0.0158
 9406SOL    HW130225   7.154   5.398   4.279 -0.0352 -0.2405  0.0658
 9406SOL    HW230226   7.028   5.426   4.201  0.1727 -0.2458 -0.2733
 9407SOL     OW30227   0.867   2.657  10.607 -0.4290  0.6767  0.4430
 9407SOL    HW130228   0.847   2.652  10.701 -1.4685 -0.6317  0.1897
 9407SOL    HW230229   0.885   2.566  10.582 -3.1777  0.4577 -1.2089
 9408SOL     OW30230   0.346   0.543   8.144 -0.0393  0.2442 -0.6796
 9408SOL    HW130231   0.391   0.608   8.089  2.6789  1.9041  3.0446
 9408SOL    HW230232   0.267   0.588   8.174 -1.1674 -0.4183 -2.4671
 9409SOL     OW30233  10.887   7.758   8.001 -0.3707  0.5100 -0.6266
 9409SOL    HW130234  10.797   7.773   8.031 -0.1463 -0.0309  0.3564
 9409SOL    HW230235  10.926   7.845   8.001 -0.6027  0.6240 -0.0424
 9410SOL     OW30236   1.263   3.879   8.547  0.3200  0.5711  0.5320
 9410SOL    HW130237   1.308   3.795   8.540 -0.8022  0.0282 -0.8610
 9410SOL    HW230238   1.224   3.878   8.635  1.3694  0.2070  1.0067
 9411SOL     OW30239   0.528  10.816   4.554  0.1232  0.1120 -0.6124
 9411SOL    HW130240   0.442  10.830   4.516 -0.7352  0.1182  1.2318
 9411SOL    HW230241   0.582  10.886   4.519 -1.0013  0.9582 -0.6958
 9412SOL     OW30242   4.093   5.917   1.985  0.9342  0.2602  0.4460
 9412SOL    HW130243   4.117   5.836   2.030 -0.0502 -0.0345  0.4623
 9412SOL    HW230244   3.998   5.911   1.974  1.1144  0.3756 -1.5715
 9413SOL     OW30245   4.513   4.750  10.455  0.5947 -0.5911  0.2366
 9413SOL    HW130246   4.572   4.692  10.503 -0.4974 -0.0545  2.3583
 9413SOL    HW230247   4.436   4.757  10.512 -0.5407  0.5525 -1.3795
 9414SOL     OW30248   9.062   1.712   0.478 -0.0499 -0.6783 -0.5693
 9414SOL    HW130249   9.109   1.796   0.480  0.9259 -1.1799 -1.4135
 9414SOL    HW230250   9.058   1.685   0.570  0.6886 -0.2779 -0.4080
 9415SOL     OW30251   6.016   4.406   8.627 -0.0005  0.1879 -0.5182
 9415SOL    HW130252   6.065   4.486   8.648  0.1368 -0.1488  0.4970
 9415SOL    HW230253   5.964   4.389   8.706 -0.5755 -0.3262 -1.0006
 9416SOL     OW30254   1.740   6.722   7.528 -0.1069 -0.3018 -0.1025
 9416SOL    HW130255   1.704   6.705   7.441 -1.4558 -0.6387  0.5047
 9416SOL    HW230256   1.758   6.816   7.528 -0.0359 -0.3109 -0.7613
 9417SOL     OW30257   1.247   6.171   2.957  0.2010 -0.3789 -0.3276
 9417SOL    HW130258   1.323   6.225   2.981 -0.5213 -0.3770  2.2834
 9417SOL    HW230259   1.195   6.228   2.900 -0.4443  1.7317  2.1691
 9418SOL     OW30260  10.435   0.999   1.750 -0.0834  0.0029 -0.4018
 9418SOL    HW130261  10.369   0.954   1.803 -0.6272 -0.4719 -1.4458
 9418SOL    HW230262  10.416   1.092   1.762  0.1769 -0.0640  0.6808
 9419SOL     OW30263   1.067   6.218  10.906  0.5772  0.0369  0.7686
 9419SOL    HW130264   1.097   6.234  10.816  0.8260 -0.1390  0.8179
 9419SOL    HW230265   1.028   6.131  10.902  1.0792 -0.1998  0.9486
 9420SOL     OW30266   1.359   8.915   9.227 -0.4738  0.1998 -0.2552
 9420SOL    HW130267   1.446   8.929   9.265 -0.2827 -0.8542 -0.2760
 9420SOL    HW230268   1.306   8.987   9.262  0.5721  1.2700 -0.8081
 9421SOL     OW30269   0.527   6.238   9.072  0.1928  0.2348  0.0602
 9421SOL    HW130270   0.559   6.310   9.017 -0.3198 -0.9433 -1.8616
 9421SOL    HW230271   0.432   6.238   9.059  0.0487 -0.0363  1.0241
 9422SOL     OW30272   5.980   1.149   2.016  0.8455 -0.0776 -0.1373
 9422SOL    HW130273   6.017   1.225   1.971 -0.8671  1.1362  0.4060
 9422SOL    HW230274   6.002   1.162   2.108  0.0172  0.0833  0.0402
 9423SOL     OW30275   9.744   1.709   9.384  0.4691  0.1695  0.8558
 9423SOL    HW130276   9.678   1.744   9.323 -0.2058 -1.5985  0.5153
 9423SOL    HW230277   9.736   1.764   9.462 -0.8002  0.5492  0.4831
 9424SOL     OW30278   2.683   7.309   0.094 -0.0366 -0.3375 -0.2354
 9424SOL    HW130279   2.625   7.376   0.130  1.9837  1.5249 -0.2692
 9424SOL    HW230280   2.722   7.268   0.170  0.8412  0.4980 -0.2199
 9425SOL     OW30281   7.972   3.599   2.857  0.0672 -0.6498 -0.0268
 9425SOL    HW130282   7.906   3.663   2.830 -0.6839 -2.5720 -3.3296
 9425SOL    HW230283   8.047   3.652   2.885 -0.1648  1.8126 -3.4291
 9426SOL     OW30284   6.209   0.757   7.560  0.3937  0.2249 -0.0188
 9426SOL    HW130285   6.285   0.744   7.502  1.0502 -1.7656  1.1686
 9426SOL    HW230286   6.133   0.747   7.503  1.0229  0.3316 -0.8977
 9427SOL     OW30287   1.984   5.710   3.467 -0.2731  0.0395  0.1864
 9427SOL    HW130288   1.970   5.662   3.385  0.1481 -0.2090  0.2572
 9427SOL    HW230289   2.043   5.655   3.518 -0.0369  0.4818  0.4014
 9428SOL     OW30290   1.186   8.355   2.115 -0.8499 -0.1225  0.1579
 9428SOL    HW130291   1.100   8.398   2.107  0.1710  1.8006 -1.3764
 9428SOL    HW230292   1.188   8.293   2.042 -1.3727 -1.0433  0.9099
 9429SOL     OW30293   2.386   3.003   8.790  0.0739  0.0349  0.1286
 9429SOL    HW130294   2.316   2.950   8.828  0.9977  0.0924  2.0469
 9429SOL    HW230295   2.456   3.001   8.856  1.1514  1.4750 -0.9054
 9430SOL     OW30296   2.368   5.404   8.986  0.0149  0.4820 -0.0056
 9430SOL    HW130297   2.319   5.340   9.038  2.7713 -2.8115 -1.0873
 9430SOL    HW230298   2.421   5.451   9.049 -1.2166  0.9572  0.7044
 9431SOL     OW30299   9.560   6.198   3.723 -0.1312  0.7475 -0.3602
 9431SOL    HW130300   9.534   6.268   3.664  1.2832 -0.8389 -3.0878
 9431SOL    HW230301   9.656   6.198   3.721 -0.0773 -0.7017  0.2485
 9432SOL     OW30302   3.701   2.063   8.845  0.1827  0.8901  0.3981
 9432SOL    HW130303   3.738   2.149   8.823  0.8768  0.2484 -1.0670
 9432SOL    HW230304   3.662   2.032   8.764  0.4844 -0.4521  0.7438
 9433SOL     OW30305   8.649   3.620   3.921 -0.8288  0.2683  0.0334
 9433SOL    HW130306   8.646   3.652   4.011 -0.3546 -0.0874  0.1768
 9433SOL    HW230307   8.648   3.525   3.928 -0.6841  0.2346 -0.3280
 9434SOL     OW30308   1.870   7.489   3.895 -0.1896 -0.0498  0.2599
 9434SOL    HW130309   1.825   7.560   3.941  0.0325 -0.6379  1.4263
 9434SOL    HW230310   1.905   7.433   3.965  1.1517 -0.3620 -0.6190
 9435SOL     OW30311   4.387   3.219   9.305 -0.3306 -0.4229 -0.0216
 9435SOL    HW130312   4.345   3.212   9.219  0.3203 -0.3737 -0.3531
 9435SOL    HW230313   4.473   3.178   9.293  0.4401  1.0684  0.1280
 9436SOL     OW30314   2.048   2.269   5.846  0.4220 -0.0073 -0.0512
 9436SOL    HW130315   2.099   2.308   5.918 -2.4857 -0.1023  2.2720
 9436SOL    HW230316   2.061   2.175   5.856  1.9645  0.0479 -1.2763
 9437SOL     OW30317   9.356   9.554   4.467 -0.3494 -0.3319 -0.0314
 9437SOL    HW130318   9.441   9.598   4.466 -0.4843 -0.0592  0.3378
 9437SOL    HW230319   9.365   9.485   4.533 -1.0377  0.9770  1.5141
 9438SOL     OW30320  10.677   6.508   5.511 -0.2009 -0.2421  0.3552
 9438SOL    HW130321  10.766   6.532   5.535  0.1922 -0.8096 -0.4636
 9438SOL    HW230322  10.624   6.531   5.587  0.8079 -0.9110  1.2972
 9439SOL     OW30323   4.258   4.759   0.630 -0.0953 -0.1914 -0.6122
 9439SOL    HW130324   4.311   4.837   0.616  0.1192  1.1011  4.9902
 9439SOL    HW230325   4.170   4.792   0.650  0.2018 -1.0895  2.7685
 9440SOL     OW30326   0.832   1.029   1.039 -0.0850  0.7093  0.4921
 9440SOL    HW130327   0.916   1.058   1.076 -0.8544  2.0491  1.2770
 9440SOL    HW230328   0.821   0.940   1.072  0.9924  0.5347  0.4296
 9441SOL     OW30329   6.948   1.937   3.153 -0.5558  0.1439  0.5787
 9441SOL    HW130330   6.853   1.930   3.165 -0.4299  0.4764  1.9030
 9441SOL    HW230331   6.979   1.985   3.230  0.7320 -0.2657  0.3480
 9442SOL     OW30332  10.060   3.204   1.646  0.0801  0.2975 -0.3300
 9442SOL    HW130333  10.016   3.143   1.705 -0.8994  1.2583 -0.0127
 9442SOL    HW230334   9.988   3.254   1.606  0.8853  2.5016  0.8302
 9443SOL     OW30335   2.222  10.111  10.631 -0.1349  0.6853 -0.3821
 9443SOL    HW130336   2.142  10.152  10.596 -0.4907  1.9840  1.7715
 9443SOL    HW230337   2.193  10.067  10.711  0.5393 -2.6897 -1.8341
 9444SOL     OW30338   4.282   5.058  10.951  0.4157 -0.5197  0.4781
 9444SOL    HW130339   4.208   5.000  10.934  0.0980  0.2909 -1.0667
 9444SOL    HW230340   4.340   5.045  10.876  0.6570  0.6372  0.4439
 9445SOL     OW30341   5.414   6.576   3.112 -0.3895  0.1328 -0.3604
 9445SOL    HW130342   5.333   6.547   3.069 -0.7731  2.1927 -1.1517
 9445SOL    HW230343   5.434   6.507   3.174 -1.4686 -1.5497 -1.7925
 9446SOL     OW30344   6.625   8.788   1.018 -0.1013 -1.1912 -0.0906
 9446SOL    HW130345   6.543   8.805   1.063  0.8661 -0.9414  1.6783
 9446SOL    HW230346   6.646   8.697   1.040 -0.4925 -1.6754 -1.5805
 9447SOL     OW30347   0.050   5.897  10.578 -0.0407 -0.0809 -0.1175
 9447SOL    HW130348   0.059   5.852  10.494 -1.0583  0.1109 -0.3365
 9447SOL    HW230349  -0.043   5.915  10.586  0.0083 -0.2983  1.1700
 9448SOL     OW30350   4.400   5.918   4.893  0.1158  0.1281  0.4840
 9448SOL    HW130351   4.366   5.921   4.804  0.9296 -1.1481  0.1093
 9448SOL    HW230352   4.323   5.900   4.947 -0.4088  1.0749  0.0781
 9449SOL     OW30353   5.924  10.233   1.381  0.6443 -0.0683 -0.0009
 9449SOL    HW130354   5.899  10.234   1.289 -0.7129 -1.9631  0.2989
 9449SOL    HW230355   5.991  10.166   1.387  1.3114  0.6101  0.2771
 9450SOL     OW30356   3.551   2.053   1.956  0.7365 -0.1892 -0.1144
 9450SOL    HW130357   3.493   2.112   2.005 -0.3511 -1.1128 -0.2651
 9450SOL    HW230358   3.634   2.057   2.004  0.5482  1.1002  0.1424
 9451SOL     OW30359   1.885   9.943   2.866 -0.3808 -0.1447 -0.4306
 9451SOL    HW130360   1.887   9.907   2.777 -0.6482  0.0969 -0.5340
 9451SOL    HW230361   1.901   9.867   2.922 -0.1030 -0.2807 -0.6878
 9452SOL     OW30362   9.219   6.280   0.535  0.3243 -0.0681 -0.3630
 9452SOL    HW130363   9.199   6.293   0.627  1.4678  1.1571 -0.2529
 9452SOL    HW230364   9.313   6.260   0.533  0.5425  0.9567 -1.3182
 9453SOL     OW30365   5.657   8.084   1.674 -0.0967  0.2897 -0.8853
 9453SOL    HW130366   5.731   8.036   1.638  0.1925 -1.6042  1.8921
 9453SOL    HW230367   5.594   8.016   1.699 -1.6914  1.6913 -0.9245
 9454SOL     OW30368   7.949   7.914   6.103 -0.5133  0.7136 -0.3240
 9454SOL    HW130369   7.939   7.875   6.190  2.1282  0.7713  0.0821
 9454SOL    HW230370   7.979   7.842   6.048 -2.7763  0.5179 -1.4315
 9455SOL     OW30371   3.598   4.911   5.912  0.6152 -0.5476  0.4725
 9455SOL    HW130372   3.522   4.854   5.927 -0.3885  0.6431  0.1078
 9455SOL    HW230373   3.602   4.921   5.816  0.1994  0.7181  0.5720
 9456SOL     OW30374   2.411   5.558  10.091 -0.1276  0.0108 -0.6492
 9456SOL    HW130375   2.329   5.532  10.049  0.1659  0.2280 -1.3640
 9456SOL    HW230376   2.477   5.499  10.055  0.2352  0.5981 -0.9603
 9457SOL     OW30377   8.221   8.152   0.393 -0.3193  0.4499  0.5005
 9457SOL    HW130378   8.194   8.207   0.467 -1.7599 -0.4938  0.7200
 9457SOL    HW230379   8.155   8.169   0.326 -0.0157 -0.0270  0.0779
 9458SOL     OW30380   4.903   3.142   9.176  0.0854  0.2665  0.1786
 9458SOL    HW130381   4.949   3.166   9.096  1.6461 -2.1227  0.2495
 9458SOL    HW230382   4.958   3.176   9.247  0.1895 -0.0108  0.2342
 9459SOL     OW30383   4.237  10.340   8.746  0.5200 -0.1088  0.3310
 9459SOL    HW130384   4.275  10.252   8.743  0.4041 -0.1481 -0.3894
 9459SOL    HW230385   4.193  10.348   8.661  0.0163  0.4141  0.6437
 9460SOL     OW30386   8.929   4.131   5.534  0.0896  0.3166  0.3945
 9460SOL    HW130387   8.918   4.068   5.463  1.1478 -0.6632  1.0644
 9460SOL    HW230388   9.021   4.157   5.529  0.3420 -0.2134  1.7366
 9461SOL     OW30389   2.208   9.189   7.874 -0.4680  0.2700  0.4034
 9461SOL    HW130390   2.219   9.274   7.917 -0.4042 -0.8099  2.7329
 9461SOL    HW230391   2.293   9.146   7.885 -0.7303 -0.3773 -0.0559
 9462SOL     OW30392   5.557   7.163   4.426  0.6773 -0.0422  0.2822
 9462SOL    HW130393   5.568   7.068   4.423 -0.6630 -0.2075 -0.0306
 9462SOL    HW230394   5.464   7.176   4.444  0.6631  1.2069 -0.5296
 9463SOL     OW30395   9.605   0.939   7.950  0.4090  0.4539 -0.2599
 9463SOL    HW130396   9.569   1.026   7.969  0.5385  0.6265 -0.7994
 9463SOL    HW230397   9.534   0.879   7.974 -1.1304  0.8832 -3.2807
 9464SOL     OW30398   3.163   3.312   6.502 -0.2078 -0.4797  0.3141
 9464SOL    HW130399   3.210   3.251   6.559 -0.4141 -0.1561  0.8454
 9464SOL    HW230400   3.199   3.398   6.523 -1.2625 -0.1762  1.0025
 9465SOL     OW30401   2.588   7.241  10.114 -0.2415 -0.2560 -0.0509
 9465SOL    HW130402   2.672   7.245  10.067 -1.1679 -0.2878 -1.7585
 9465SOL    HW230403   2.558   7.332  10.117  0.0071 -0.1936  0.8881
 9466SOL     OW30404   6.786   3.440   6.546  0.3916 -0.2765  0.0063
 9466SOL    HW130405   6.690   3.446   6.550  0.3451 -0.3321 -0.9353
 9466SOL    HW230406   6.802   3.366   6.487  1.0087 -1.7790  1.9374
 9467SOL     OW30407   9.280   8.304   3.003  0.1892 -0.1019 -0.3323
 9467SOL    HW130408   9.211   8.338   3.060  1.3004 -1.5758  2.0372
 9467SOL    HW230409   9.319   8.382   2.964 -1.2525  0.9065  0.1683
 9468SOL     OW30410   8.178   4.576   9.694 -0.4322  0.6618 -0.1276
 9468SOL    HW130411   8.120   4.506   9.665 -0.0968  1.0187 -1.7739
 9468SOL    HW230412   8.216   4.544   9.776 -1.8647 -0.1670  0.2395
 9469SOL     OW30413   2.931   1.461   3.334  0.1102 -0.3523  0.7733
 9469SOL    HW130414   2.886   1.377   3.326  0.0056 -0.2436  0.1593
 9469SOL    HW230415   3.019   1.443   3.300 -0.4153  0.1828 -0.9679
 9470SOL     OW30416  11.008   8.713   7.332  0.6961  0.0876  0.0038
 9470SOL    HW130417  10.975   8.799   7.358 -0.6602 -0.3510 -0.1743
 9470SOL    HW230418  11.006   8.662   7.413 -0.3328 -0.3113 -0.2588
 9471SOL     OW30419   9.810   1.392   6.849 -0.0636 -0.3077  0.1318
 9471SOL    HW130420   9.826   1.297   6.852 -2.9277 -0.9541 -1.2653
 9471SOL    HW230421   9.735   1.401   6.790 -0.3084  2.8058  0.7791
 9472SOL     OW30422   5.360   8.346   1.862  0.3663 -0.0309  0.0999
 9472SOL    HW130423   5.287   8.374   1.917  0.6446 -1.0657  1.0170
 9472SOL    HW230424   5.425   8.312   1.923  0.2097 -2.3207 -0.8780
 9473SOL     OW30425   9.600   1.857   0.731  0.0408 -0.1502  0.2925
 9473SOL    HW130426   9.553   1.798   0.671 -1.0437  0.1483  0.8256
 9473SOL    HW230427   9.534   1.885   0.794  0.4695  1.7992 -0.0472
 9474SOL     OW30428  10.648   5.443   1.531 -0.0493 -0.0586  0.4936
 9474SOL    HW130429  10.670   5.535   1.540  1.8170 -0.6276  2.6599
 9474SOL    HW230430  10.553   5.442   1.519  0.0272  2.1470 -0.9315
 9475SOL     OW30431   8.420   6.055   5.140  0.4996  0.2774  0.2692
 9475SOL    HW130432   8.430   6.125   5.205 -0.0699 -0.8278  1.6095
 9475SOL    HW230433   8.505   6.051   5.097  0.9040  1.0561  0.9584
 9476SOL     OW30434   1.096   0.215   9.663 -0.4964 -0.5849 -0.2422
 9476SOL    HW130435   1.098   0.260   9.579  0.4399 -0.2444 -0.0510
 9476SOL    HW230436   1.095   0.122   9.640  2.6588 -0.6189 -0.6983
 9477SOL     OW30437   5.862   9.316   4.978 -0.3184  0.2324  0.0116
 9477SOL    HW130438   5.860   9.408   5.004 -0.5974  0.5193 -0.9532
 9477SOL    HW230439   5.854   9.319   4.882 -0.6303 -0.8042 -0.0048
 9478SOL     OW30440   8.451   3.089   0.487  0.0916 -0.0126 -0.8216
 9478SOL    HW130441   8.464   3.140   0.407  1.5055 -0.3175 -0.8169
 9478SOL    HW230442   8.532   3.101   0.537 -1.7424  2.3112  1.8597
 9479SOL     OW30443   6.212   7.608   2.715  0.5426 -0.0513  0.3961
 9479SOL    HW130444   6.136   7.551   2.725  0.5101 -0.1771 -0.4542
 9479SOL    HW230445   6.284   7.548   2.694  0.9793  0.0269  1.5947
 9480SOL     OW30446   6.565   9.078   8.767  0.0833 -0.0820 -0.2123
 9480SOL    HW130447   6.569   9.155   8.824  0.6794 -0.9519  0.9726
 9480SOL    HW230448   6.646   9.082   8.716  1.7459 -1.4783  2.0523
 9481SOL     OW30449  10.846   7.582   6.496  0.8631 -0.3095  0.2867
 9481SOL    HW130450  10.831   7.518   6.427  0.3167 -0.5365  0.6019
 9481SOL    HW230451  10.826   7.666   6.456  2.6223 -0.2023 -0.4420
 9482SOL     OW30452   9.337   5.812   3.610 -0.7686  0.5547 -0.5984
 9482SOL    HW130453   9.345   5.895   3.657 -1.2404 -0.5939  1.6939
 9482SOL    HW230454   9.242   5.801   3.599 -1.0224 -1.2182  2.3159
 9483SOL     OW30455   9.916  10.069   7.358 -0.2313 -0.7328 -0.4025
 9483SOL    HW130456   9.827  10.086   7.328 -0.5900 -0.3566  0.8181
 9483SOL    HW230457   9.918   9.975   7.377 -0.3104 -0.7723 -0.5861
 9484SOL     OW30458   4.932   6.672   5.610  0.2144 -0.4955 -0.3935
 9484SOL    HW130459   4.916   6.643   5.520  1.6741 -0.4553 -0.6999
 9484SOL    HW230460   4.983   6.600   5.649 -1.2925 -0.9811  0.7482
 9485SOL     OW30461   8.212   3.956   8.737 -0.1818  0.4496 -0.0058
 9485SOL    HW130462   8.183   3.964   8.827  0.6438  1.5281  0.1870
 9485SOL    HW230463   8.154   4.013   8.687  0.3881  1.1445  0.1045
 9486SOL     OW30464   7.445   4.508  10.624  0.0875  0.1165  0.0084
 9486SOL    HW130465   7.443   4.413  10.635  0.8201  0.0746 -0.1607
 9486SOL    HW230466   7.508   4.523  10.554 -0.1842  0.7190 -0.1159
 9487SOL     OW30467   9.954   8.191  10.728 -0.5682  0.9121 -0.1047
 9487SOL    HW130468  10.002   8.204  10.810  0.7866  2.4216 -1.0872
 9487SOL    HW230469  10.004   8.123  10.682  1.4745  3.3225 -1.6554
 9488SOL     OW30470   6.898  10.641   2.594  0.4465  0.2405  1.1168
 9488SOL    HW130471   6.851  10.699   2.654 -1.3886 -0.9188  0.8760
 9488SOL    HW230472   6.990  10.651   2.617  0.0337  2.0563  2.1059
 9489SOL     OW30473   3.754   7.091   6.486  0.4030 -0.4152  0.3155
 9489SOL    HW130474   3.827   7.050   6.439  1.5267  0.4604  1.2362
 9489SOL    HW230475   3.794   7.166   6.530 -1.5427  1.6381 -1.2158
 9490SOL     OW30476   6.302   9.824   6.537  0.3236  0.5143  0.1925
 9490SOL    HW130477   6.244   9.749   6.527  1.6578 -0.5994  0.5312
 9490SOL    HW230478   6.243   9.900   6.541 -1.1796 -0.6776  1.9872
 9491SOL     OW30479   1.965   1.229   2.066 -0.1636  0.0459 -0.3038
 9491SOL    HW130480   1.955   1.288   2.141 -1.1142 -0.0503 -0.3360
 9491SOL    HW230481   1.958   1.141   2.103  0.2651 -0.0237 -0.3860
 9492SOL     OW30482   4.976   7.525   9.109  0.0338  0.2507 -0.4427
 9492SOL    HW130483   4.886   7.555   9.099 -0.5622 -1.4433 -0.3912
 9492SOL    HW230484   5.028   7.605   9.101 -1.5352  1.4982  0.9303
 9493SOL     OW30485   0.221   0.218   3.583 -0.5487 -0.3557  0.6815
 9493SOL    HW130486   0.270   0.214   3.501 -0.3498  1.2779  0.6933
 9493SOL    HW230487   0.129   0.215   3.556 -0.4805 -0.3998  0.4488
 9494SOL     OW30488   3.229  10.086   3.618  0.6119 -0.3934  0.2736
 9494SOL    HW130489   3.169  10.076   3.692  1.5897  2.8547  1.6813
 9494SOL    HW230490   3.300  10.024   3.636 -0.1749 -1.1191  0.9234
 9495SOL     OW30491   9.242   6.886   0.562 -0.2549  0.3310 -0.3642
 9495SOL    HW130492   9.322   6.919   0.520  0.0902 -0.0068  0.0180
 9495SOL    HW230493   9.171   6.927   0.513  0.1566  1.4216 -0.0892
 9496SOL     OW30494  10.042   3.673   2.580 -0.0300 -0.0630 -0.4562
 9496SOL    HW130495   9.959   3.687   2.535 -0.0365 -0.6066 -0.6209
 9496SOL    HW230496  10.099   3.744   2.549 -1.1458  1.8440  1.5285
 9497SOL     OW30497   5.271   8.203  10.564  0.6989 -0.0799 -0.1183
 9497SOL    HW130498   5.293   8.252  10.484  0.1253 -1.9278 -1.4606
 9497SOL    HW230499   5.324   8.245  10.632  0.7605  1.9380 -1.3161
 9498SOL     OW30500   4.330   5.289   9.108 -0.4470 -0.3155 -0.1567
 9498SOL    HW130501   4.357   5.203   9.139 -0.7130 -0.6092 -0.7143
 9498SOL    HW230502   4.385   5.306   9.032  0.1369  0.3565  0.4013
 9499SOL     OW30503   2.075   2.989   9.626 -0.8771 -0.8134  0.0713
 9499SOL    HW130504   2.072   2.894   9.614  0.0107 -0.8081 -0.2985
 9499SOL    HW230505   2.165   3.013   9.604 -1.1990  0.1725 -0.2281
 9500SOL     OW30506   7.164   9.745   5.453 -0.0573  0.2221  0.3061
 9500SOL    HW130507   7.251   9.717   5.425 -0.7418 -0.7057 -1.0234
 9500SOL    HW230508   7.152   9.704   5.538  0.6843  0.0920  0.3523
 9501SOL     OW30509   3.241   8.411   4.729 -0.6119  0.6331 -0.1352
 9501SOL    HW130510   3.211   8.324   4.704 -1.5487  1.3098 -1.5106
 9501SOL    HW230511   3.249   8.407   4.824  1.6099 -1.6026 -0.3041
 9502SOL     OW30512   1.784   6.146   6.192  0.0360 -0.0472  0.3574
 9502SOL    HW130513   1.873   6.124   6.221 -0.4269  0.4400  2.2426
 9502SOL    HW230514   1.746   6.063   6.166  0.8747 -0.3269 -0.0331
 9503SOL     OW30515   9.879   1.317   5.423  0.1377  0.0483  0.0810
 9503SOL    HW130516   9.943   1.248   5.403 -1.4256 -1.5492  0.3556
 9503SOL    HW230517   9.808   1.302   5.360 -0.9041  0.4562  1.1323
 9504SOL     OW30518   2.349  10.116   9.547 -0.4428 -1.0066  0.1455
 9504SOL    HW130519   2.253  10.111   9.542 -0.7602  2.3842  0.7696
 9504SOL    HW230520   2.373  10.182   9.482  1.1892  0.0161  1.7102
 9505SOL     OW30521   5.428   0.634   9.974 -0.3473  0.0274  0.4557
 9505SOL    HW130522   5.501   0.660   9.918  0.1353 -1.9596  0.0743
 9505SOL    HW230523   5.355   0.687   9.945  0.4125  0.5000 -0.6610
 9506SOL     OW30524   6.969  10.905   7.668  0.2055 -0.3083  0.2328
 9506SOL    HW130525   7.009  10.894   7.755  0.6139 -0.7067 -0.0009
 9506SOL    HW230526   7.042  10.930   7.611 -0.1974  0.7331  0.1501
 9507SOL     OW30527   4.486   5.795   7.514 -0.8790 -0.5610  0.0713
 9507SOL    HW130528   4.438   5.862   7.466 -0.9851  0.2770  1.2950
 9507SOL    HW230529   4.524   5.841   7.589  0.3785 -1.5580  0.0869
 9508SOL     OW30530   3.131   1.296   5.646 -0.1299  0.4815  0.4715
 9508SOL    HW130531   3.191   1.231   5.609 -0.8161  0.6436 -0.9593
 9508SOL    HW230532   3.080   1.327   5.572 -1.5947  0.7748  1.5584
 9509SOL     OW30533   9.132   6.945   1.047  0.0466 -0.3352  0.0974
 9509SOL    HW130534   9.078   6.868   1.066  0.3789 -0.2674  1.4045
 9509SOL    HW230535   9.116   6.963   0.954  0.9530 -2.7650 -0.6279
 9510SOL     OW30536   4.475   6.753  10.628  0.4434  0.4382  0.7488
 9510SOL    HW130537   4.382   6.730  10.633  0.4262 -0.0913 -1.0766
 9510SOL    HW230538   4.521   6.674  10.657  0.3167 -0.2965 -0.9136
 9511SOL     OW30539   5.255   5.663  10.494  0.4217  0.0263 -0.0712
 9511SOL    HW130540   5.233   5.683  10.586  2.3422 -0.6987  0.5990
 9511SOL    HW230541   5.285   5.747  10.458 -0.4810  0.3484 -0.1187
 9512SOL     OW30542   2.923   7.015   1.970  0.4967 -1.2808 -0.4204
 9512SOL    HW130543   2.854   6.992   2.033  0.3101 -0.6991 -0.4124
 9512SOL    HW230544   2.894   6.975   1.888 -0.6738  0.2843 -0.8233
 9513SOL     OW30545   9.784  10.562   0.251  0.1699  0.7499  0.0491
 9513SOL    HW130546   9.759  10.650   0.222  3.1688  1.7631  0.1957
 9513SOL    HW230547   9.801  10.514   0.170 -3.1726 -0.3920 -0.1197
 9514SOL     OW30548   0.664   9.673   3.166  0.5634 -0.1376  0.2603
 9514SOL    HW130549   0.741   9.620   3.187  0.4555 -0.6981 -0.7025
 9514SOL    HW230550   0.645   9.653   3.074  0.8861  2.0197 -0.3444
 9515SOL     OW30551   3.007   1.611   6.550 -0.0863  0.1383  0.2705
 9515SOL    HW130552   3.064   1.686   6.529  1.2437 -1.5099 -2.7090
 9515SOL    HW230553   2.922   1.650   6.568  0.1492  2.4363 -2.7062
 9516SOL     OW30554   1.190   0.360   8.425  0.7773  0.2575  0.5411
 9516SOL    HW130555   1.253   0.407   8.480  0.5235 -0.2006  1.2421
 9516SOL    HW230556   1.176   0.277   8.471  0.6560 -0.1953 -0.2927
 9517SOL     OW30557   3.813   1.001   6.211 -0.0440 -0.2023 -0.4662
 9517SOL    HW130558   3.826   1.075   6.270  1.0118 -1.2047  0.6122
 9517SOL    HW230559   3.730   0.962   6.238  0.9836 -1.3533  1.2103
 9518SOL     OW30560   1.224   4.592   2.206 -0.8534 -0.0806  0.0267
 9518SOL    HW130561   1.188   4.610   2.293 -1.4396  0.9112 -0.3978
 9518SOL    HW230562   1.319   4.596   2.217 -0.9318  0.3046  0.5766
 9519SOL     OW30563   4.902   3.656   4.483 -0.7576 -0.9520  0.7421
 9519SOL    HW130564   4.844   3.659   4.560 -1.0050 -0.1345  0.5317
 9519SOL    HW230565   4.991   3.660   4.520 -0.8622  2.4622  0.9389
 9520SOL     OW30566   5.180   0.131   3.801 -0.2558  0.1055  0.2899
 9520SOL    HW130567   5.205   0.202   3.742 -0.0413 -0.4797 -0.3467
 9520SOL    HW230568   5.216   0.052   3.759  0.3243 -0.2732  1.4524
 9521SOL     OW30569   2.987   8.908   7.934  0.2008 -0.1345 -0.3702
 9521SOL    HW130570   2.974   9.002   7.919 -0.1371 -0.3772 -1.7651
 9521SOL    HW230571   2.913   8.866   7.890 -0.2202 -1.0311  1.1189
 9522SOL     OW30572  10.694   9.355   9.592 -0.3646 -1.1911 -0.0430
 9522SOL    HW130573  10.642   9.435   9.588  0.4076 -0.5556  1.6164
 9522SOL    HW230574  10.642   9.296   9.647 -1.0518 -1.9613 -1.4711
 9523SOL     OW30575   2.123   7.377   4.671 -0.4540 -0.3042 -0.3930
 9523SOL    HW130576   2.100   7.410   4.584 -0.5649  1.0052  0.1146
 9523SOL    HW230577   2.071   7.430   4.732  1.5801  0.6223  0.6304
 9524SOL     OW30578   1.921   7.366   7.792  0.2597  0.5818 -0.1505
 9524SOL    HW130579   1.892   7.310   7.865 -0.4466 -0.6356 -1.3216
 9524SOL    HW230580   2.016   7.365   7.797  0.3076 -1.4168 -0.5890
 9525SOL     OW30581   7.212   6.653   3.534 -0.2925 -0.6217  0.0348
 9525SOL    HW130582   7.178   6.732   3.577  0.7451  0.3782 -0.9157
 9525SOL    HW230583   7.153   6.638   3.461  0.1937 -0.0068 -0.4922
 9526SOL     OW30584   2.102   3.964   8.719 -0.3815  0.5135  0.0391
 9526SOL    HW130585   2.171   3.966   8.653 -0.6427  0.0767 -0.2530
 9526SOL    HW230586   2.137   3.906   8.787  0.2854  1.7013  0.7478
 9527SOL     OW30587  10.182   5.032   9.650  0.0627 -0.0758 -0.2152
 9527SOL    HW130588  10.094   4.997   9.665 -0.5684  1.3160 -0.5313
 9527SOL    HW230589  10.167   5.115   9.605  1.6194 -0.6760 -1.9513
 9528SOL     OW30590   9.335   1.357   6.794 -0.1878  0.3321  0.3243
 9528SOL    HW130591   9.318   1.367   6.887 -0.4436  1.1894  0.1900
 9528SOL    HW230592   9.303   1.269   6.773 -3.9314  1.5243  0.2409
 9529SOL     OW30593   8.021   8.134  10.779  0.3312  0.0908 -0.0687
 9529SOL    HW130594   8.113   8.163  10.778  0.6966 -0.8421  1.8687
 9529SOL    HW230595   7.990   8.155  10.867 -1.4387  0.6470 -0.7767
 9530SOL     OW30596   7.823   1.974   6.687 -0.3471  0.1990 -0.5757
 9530SOL    HW130597   7.808   1.989   6.781 -0.6548 -0.0308 -0.5885
 9530SOL    HW230598   7.881   2.046   6.661 -0.6822  0.5631 -0.3266
 9531SOL     OW30599  11.004   7.174  10.893  0.1183  0.4480  0.5907
 9531SOL    HW130600  10.972   7.192  10.805 -0.6504 -0.4594  0.6648
 9531SOL    HW230601  10.927   7.181  10.949 -0.0059 -1.7240  0.7768
 9532SOL     OW30602   5.371   0.005   3.986 -0.6546 -0.4196 -0.3290
 9532SOL    HW130603   5.374   0.035   3.895  1.6703  0.0452 -0.1541
 9532SOL    HW230604   5.279  -0.019   4.000 -1.3134  0.6354 -2.4093
 9533SOL     OW30605   8.247   7.549   5.475 -0.3884  0.2192 -0.1402
 9533SOL    HW130606   8.277   7.459   5.490  0.1249  0.5823  1.2311
 9533SOL    HW230607   8.328   7.600   5.472 -0.7090  1.0865  2.6193
 9534SOL     OW30608   8.656   5.819   3.557 -0.3426  0.3206 -0.2013
 9534SOL    HW130609   8.641   5.914   3.566 -2.2052  0.3172 -2.4621
 9534SOL    HW230610   8.705   5.810   3.476 -0.7598 -0.6987 -0.3484
 9535SOL     OW30611   0.015   3.050   9.635  0.7586  0.6505  0.1722
 9535SOL    HW130612   0.071   3.070   9.560 -1.3689  0.3162 -1.6111
 9535SOL    HW230613  -0.005   2.957   9.625 -0.0437  0.7505  0.7869
 9536SOL     OW30614   2.158  10.115   6.127 -0.2656  0.1482 -0.2670
 9536SOL    HW130615   2.139  10.208   6.111 -0.8767  0.2040  0.7047
 9536SOL    HW230616   2.248  10.104   6.096  0.2832  1.3838  0.7684
 9537SOL     OW30617  10.073   6.757  10.089 -0.4897 -0.1581 -0.2180
 9537SOL    HW130618  10.127   6.817  10.039 -2.7311  0.9675 -1.4286
 9537SOL    HW230619  10.093   6.671  10.054  1.5978 -0.0080  0.4515
 9538SOL     OW30620   2.428   7.310   6.304  0.5829 -0.3689 -0.6008
 9538SOL    HW130621   2.452   7.315   6.396  1.3959 -1.4248 -0.7326
 9538SOL    HW230622   2.448   7.396   6.268  2.2169 -0.5719 -0.2355
 9539SOL     OW30623   6.032   4.706  10.076 -0.0098  0.2512  0.2722
 9539SOL    HW130624   5.969   4.764  10.120  1.1532  0.7531  1.3345
 9539SOL    HW230625   6.078   4.764  10.015 -0.0651  0.0538  0.0456
 9540SOL     OW30626  10.324   8.520  10.885 -0.4748 -0.0561 -0.0214
 9540SOL    HW130627  10.260   8.585  10.857 -1.2215 -0.6988  0.1611
 9540SOL    HW230628  10.276   8.437  10.883  0.1849 -0.4654  0.6979
 9541SOL     OW30629   7.536   8.412   9.826  0.2282 -0.6455 -0.2871
 9541SOL    HW130630   7.567   8.469   9.755 -1.1054 -0.8875 -1.1075
 9541SOL    HW230631   7.535   8.324   9.787  2.1301 -1.2594  0.9164
 9542SOL     OW30632  10.898   8.833   3.108  0.0602  0.4059  0.2392
 9542SOL    HW130633  10.833   8.827   3.038  1.2297  6.0630 -1.8626
 9542SOL    HW230634  10.858   8.892   3.172  1.4798  0.5109  1.0617
 9543SOL     OW30635   1.051   7.784   3.484 -0.0842  0.1660  0.2490
 9543SOL    HW130636   1.041   7.796   3.579  0.6058 -1.7463  0.6191
 9543SOL    HW230637   0.966   7.753   3.455 -0.7163  2.0451 -0.0456
 9544SOL     OW30638   0.633   8.055   4.058 -0.0391  0.1747  0.1260
 9544SOL    HW130639   0.609   7.974   4.104  0.8425  0.7224  1.6087
 9544SOL    HW230640   0.681   8.106   4.123  0.6338  1.3028 -1.2141
 9545SOL     OW30641   0.914   2.550   0.215  0.3129  0.3708  0.0632
 9545SOL    HW130642   0.987   2.543   0.277 -0.0589  1.0493  0.5920
 9545SOL    HW230643   0.888   2.460   0.198  2.5793 -0.0538 -1.7446
 9546SOL     OW30644   1.025   9.305   9.992  0.2010  0.4651  0.3779
 9546SOL    HW130645   0.995   9.396   9.996  0.5829  0.5737  0.9098
 9546SOL    HW230646   0.950   9.256   9.957 -0.6413  0.7148  1.7485
 9547SOL     OW30647   3.362   1.377   2.151  0.7443  0.0128  0.0381
 9547SOL    HW130648   3.333   1.313   2.216  2.0473  0.6585  1.3349
 9547SOL    HW230649   3.419   1.327   2.092 -0.4107 -0.5701 -0.6123
 9548SOL     OW30650   7.969   6.877   0.360 -0.6856 -0.0710 -0.9465
 9548SOL    HW130651   7.944   6.967   0.378 -1.5438 -0.1043 -1.8475
 9548SOL    HW230652   7.996   6.842   0.445  2.2248  1.7523 -0.9835
 9549SOL     OW30653   0.016   5.240   4.654  0.4153  0.0013  0.1119
 9549SOL    HW130654   0.044   5.157   4.616  0.5218  0.0842  0.0086
 9549SOL    HW230655   0.053   5.239   4.743 -0.0722 -0.3172  0.3173
 9550SOL     OW30656   8.653   8.841   4.764 -0.3760 -0.0836 -0.2047
 9550SOL    HW130657   8.615   8.900   4.699 -0.0610 -1.7361 -1.9644
 9550SOL    HW230658   8.654   8.755   4.722  1.4453 -0.9031  1.3391
 9551SOL     OW30659   3.083   4.463   2.442  0.2025 -0.0336  0.3969
 9551SOL    HW130660   3.009   4.467   2.503 -1.5294 -0.7752 -1.5268
 9551SOL    HW230661   3.047   4.419   2.365  2.7509 -0.6193 -0.5280
 9552SOL     OW30662   0.664   6.641   9.804 -0.2736  0.2727  0.7842
 9552SOL    HW130663   0.611   6.693   9.743  0.0953  0.5379  0.6859
 9552SOL    HW230664   0.626   6.659   9.890 -0.6554  0.0715  0.6585
 9553SOL     OW30665   2.196   3.882  10.091  0.1507  0.0153  0.3044
 9553SOL    HW130666   2.143   3.863  10.013  0.8585  1.7163 -0.6445
 9553SOL    HW230667   2.268   3.820  10.086  1.8017  1.9419 -2.0962
 9554SOL     OW30668   5.155   2.831   0.375  0.1551 -0.4041 -0.2320
 9554SOL    HW130669   5.243   2.840   0.413  0.6057 -2.8732 -0.5284
 9554SOL    HW230670   5.165   2.857   0.284 -0.6074  4.0824  0.7012
 9555SOL     OW30671   1.772   1.753   3.823 -0.2812  0.1284  0.1483
 9555SOL    HW130672   1.845   1.761   3.762  0.6463  1.2460  1.3376
 9555SOL    HW230673   1.709   1.819   3.794 -0.9719 -1.0056 -1.0290
 9556SOL     OW30674   9.459   8.931   8.485  0.1666  0.3915  0.0879
 9556SOL    HW130675   9.536   8.877   8.498  0.7554  1.6996  2.8305
 9556SOL    HW230676   9.490   9.007   8.436  0.7412  0.9950  1.3258
 9557SOL     OW30677   2.253  10.976   9.298  0.5379  0.4784 -0.6439
 9557SOL    HW130678   2.169  10.961   9.341  0.6368  0.2416 -0.5311
 9557SOL    HW230679   2.310  11.010   9.367  0.7306 -0.0117 -0.5539
 9558SOL     OW30680   4.443   8.626   7.302 -0.4296 -0.2370  0.0947
 9558SOL    HW130681   4.393   8.683   7.243 -0.4078 -1.0310 -0.7114
 9558SOL    HW230682   4.473   8.555   7.246 -2.3070 -2.2312  1.4773
 9559SOL     OW30683   7.289   7.944   7.909 -0.0685  0.1291  0.2166
 9559SOL    HW130684   7.248   7.864   7.877 -1.2619  1.1843 -1.0187
 9559SOL    HW230685   7.301   7.997   7.830 -0.2453  1.5779  1.1369
 9560SOL     OW30686   1.721   0.009   5.867  0.0058 -0.0231  0.2899
 9560SOL    HW130687   1.696   0.042   5.953 -0.0055 -0.8276  0.6067
 9560SOL    HW230688   1.810  -0.026   5.879  0.6549  1.2812 -0.4170
 9561SOL     OW30689   3.359   6.272  10.940  0.0758  0.4969  0.2644
 9561SOL    HW130690   3.403   6.269  10.855  0.5916  0.6504  0.5252
 9561SOL    HW230691   3.387   6.355  10.979  0.2300  0.2027  0.7930
 9562SOL     OW30692   9.072   7.755  10.657  0.2510  0.8790  0.3122
 9562SOL    HW130693   9.086   7.708  10.739 -0.9505 -2.9998 -1.4812
 9562SOL    HW230694   8.976   7.758  10.648  0.3216  2.6388 -0.2991
 9563SOL     OW30695   2.309  10.501   7.245 -0.2331 -0.0630 -0.3574
 9563SOL    HW130696   2.336  10.592   7.260 -1.9197  0.1907  1.5732
 9563SOL    HW230697   2.297  10.495   7.150  1.3134  1.2836 -0.6810
 9564SOL     OW30698   0.174   3.108   8.911  0.3527 -0.2826  0.2119
 9564SOL    HW130699   0.203   3.047   8.980  2.6480  1.7553  1.2138
 9564SOL    HW230700   0.200   3.194   8.944 -1.5467  1.1198 -1.7539
 9565SOL     OW30701   1.132   8.546   8.097  0.2199 -0.1685 -0.1903
 9565SOL    HW130702   1.137   8.641   8.096 -1.3026 -0.0695 -0.5278
 9565SOL    HW230703   1.118   8.521   8.006  1.2203 -0.7657 -0.1922
 9566SOL     OW30704   1.943   6.264   2.391 -0.2620 -0.1128 -0.2225
 9566SOL    HW130705   1.873   6.212   2.351  0.4906 -1.1451 -0.2455
 9566SOL    HW230706   1.939   6.348   2.346 -0.6169 -0.6302 -1.1911
 9567SOL     OW30707   7.094  10.366   2.417  0.2617 -0.7004 -0.1021
 9567SOL    HW130708   7.174  10.396   2.460  0.3759 -0.8425 -0.2136
 9567SOL    HW230709   7.114  10.367   2.324 -0.2153  0.2553 -0.2003
 9568SOL     OW30710   3.199   3.591   1.963  0.1857 -0.1957  0.0130
 9568SOL    HW130711   3.127   3.649   1.984 -1.3670 -1.7073 -0.9219
 9568SOL    HW230712   3.233   3.623   1.879 -0.3942 -0.3883 -0.2965
 9569SOL     OW30713   3.376   7.263   0.760  0.4589 -0.4273  0.1836
 9569SOL    HW130714   3.318   7.339   0.753  0.3230 -0.4801  0.6588
 9569SOL    HW230715   3.328   7.203   0.818  1.2411 -0.2345  1.0588
 9570SOL     OW30716   4.534   5.469   8.773 -0.8120 -0.4520  0.2843
 9570SOL    HW130717   4.500   5.552   8.804 -0.2761  0.8384 -2.2716
 9570SOL    HW230718   4.582   5.433   8.847  0.4958  2.3927  0.9386
 9571SOL     OW30719   1.731  10.888   7.941 -0.1623 -0.2618 -0.0407
 9571SOL    HW130720   1.806  10.938   7.971 -0.2502 -0.8034  1.1258
 9571SOL    HW230721   1.666  10.898   8.010 -1.2216  0.2993 -1.0850
 9572SOL     OW30722   2.465   5.086   4.990 -0.1918 -0.0623 -0.2544
 9572SOL    HW130723   2.515   5.005   4.998  3.8940  2.0997 -0.9374
 9572SOL    HW230724   2.409   5.073   4.914  2.6856 -1.2836 -2.3398
 9573SOL     OW30725   6.552   5.450   0.690 -0.5914  0.3912 -0.4665
 9573SOL    HW130726   6.590   5.537   0.704 -2.1678  1.1245 -0.5309
 9573SOL    HW230727   6.542   5.413   0.777 -1.0493  0.7886 -0.3477
 9574SOL     OW30728   5.687   4.348   6.016 -0.2909  0.2200 -0.3502
 9574SOL    HW130729   5.617   4.414   6.021 -0.3224  0.1663 -0.0710
 9574SOL    HW230730   5.659   4.289   5.946 -0.4388  0.2989 -0.3576
 9575SOL     OW30731   7.203   0.088   4.492 -0.0086  0.3777 -0.1146
 9575SOL    HW130732   7.271   0.079   4.559  0.9670 -3.2585 -1.3562
 9575SOL    HW230733   7.199   0.002   4.450 -5.1255  0.4290 -0.4425
 9576SOL     OW30734   8.033   5.320   5.572  0.3589 -0.4288  0.3905
 9576SOL    HW130735   8.081   5.250   5.529  0.5853  0.0235 -0.1064
 9576SOL    HW230736   8.095   5.393   5.576 -0.3112  0.1949 -0.3389
 9577SOL     OW30737   3.397   1.613   0.358 -0.4112  0.3974 -0.0700
 9577SOL    HW130738   3.309   1.649   0.344 -0.0807  1.4357  0.4291
 9577SOL    HW230739   3.387   1.551   0.430 -0.8598 -0.0224 -0.4842
 9578SOL     OW30740   7.541  10.408   5.033  0.6192 -0.2180 -0.0835
 9578SOL    HW130741   7.452  10.405   5.067  0.3179 -1.1736 -0.9128
 9578SOL    HW230742   7.596  10.380   5.106 -0.0888 -3.0410 -0.5220
 9579SOL     OW30743   3.487   9.925   6.953 -0.2758  0.0069 -0.3333
 9579SOL    HW130744   3.556   9.987   6.977 -0.2296 -0.5068  0.9335
 9579SOL    HW230745   3.425   9.977   6.903 -0.0069  0.9811  0.3073
 9580SOL     OW30746   3.732   7.895   6.090 -0.2087 -0.1103  0.1117
 9580SOL    HW130747   3.680   7.974   6.103  0.6763  0.8189 -1.6503
 9580SOL    HW230748   3.787   7.889   6.168 -1.1965  0.2715  0.8527
 9581SOL     OW30749   7.652   7.149   4.544  0.4430  0.2679 -0.3093
 9581SOL    HW130750   7.560   7.170   4.528 -0.0075 -1.1361  0.3036
 9581SOL    HW230751   7.688   7.227   4.586 -0.9817  0.1023  1.2985
 9582SOL     OW30752   1.139   0.232   1.470  0.5666  0.4467 -0.5662
 9582SOL    HW130753   1.050   0.202   1.488  0.5174  0.2511 -1.1167
 9582SOL    HW230754   1.128   0.322   1.438  0.5378  0.3257 -0.9050
 9583SOL     OW30755   1.183   1.844   4.447  0.0446  0.1794 -0.1453
 9583SOL    HW130756   1.175   1.817   4.538  1.1812 -0.8970 -0.3280
 9583SOL    HW230757   1.245   1.916   4.448  1.2893 -0.8507 -0.1936
 9584SOL     OW30758  10.360  11.019   2.575 -0.2411  0.2710  0.0205
 9584SOL    HW130759  10.358  10.944   2.634  1.7169  1.3440  1.5506
 9584SOL    HW230760  10.359  10.980   2.487 -1.4581 -1.4211  0.7321
 9585SOL     OW30761   8.873   7.697  10.027  0.0920  0.0238  0.4519
 9585SOL    HW130762   8.964   7.711  10.003  1.2922 -1.4943  3.5064
 9585SOL    HW230763   8.859   7.752  10.104 -1.9217  0.9829 -0.5272
 9586SOL     OW30764   3.980   2.452   5.887  0.5195  0.2183 -0.3159
 9586SOL    HW130765   3.935   2.423   5.966 -0.6772  1.3633 -0.5419
 9586SOL    HW230766   3.952   2.543   5.876  0.6777  0.0885 -2.0289
 9587SOL     OW30767  10.038  10.040   7.693 -0.1640  0.1307 -0.4159
 9587SOL    HW130768  10.043  10.030   7.788 -1.3009 -2.9371 -0.5743
 9587SOL    HW230769   9.946  10.061   7.676 -0.1307 -0.1231 -0.9020
 9588SOL     OW30770   8.632   6.691   1.927 -0.1173  0.0703 -0.5559
 9588SOL    HW130771   8.674   6.664   2.009 -1.7014 -0.6358  0.0464
 9588SOL    HW230772   8.703   6.733   1.878  1.3692 -1.2531  0.3298
 9589SOL     OW30773   1.287   2.569   1.214  1.0695  0.2665 -0.4826
 9589SOL    HW130774   1.244   2.620   1.282  0.6701  0.3071 -0.7606
 9589SOL    HW230775   1.217   2.550   1.151  0.8046 -1.9974  0.3913
 9590SOL     OW30776   0.185   9.404   1.088 -0.0445 -0.5320 -0.7208
 9590SOL    HW130777   0.191   9.313   1.119 -3.1187 -0.4147  0.4844
 9590SOL    HW230778   0.277   9.430   1.074  1.1308 -2.8080  1.8670
 9591SOL     OW30779   2.731   7.350   3.221 -0.7133 -0.0759 -0.0504
 9591SOL    HW130780   2.773   7.282   3.169 -1.2828  0.2147 -0.9152
 9591SOL    HW230781   2.723   7.425   3.161  0.6559  1.0663  1.1069
 9592SOL     OW30782   9.182   1.378   8.586 -0.8576  0.1711  0.0105
 9592SOL    HW130783   9.132   1.459   8.595  0.5133  1.0709 -0.2948
 9592SOL    HW230784   9.261   1.392   8.638 -0.7401 -1.1106  0.2217
 9593SOL     OW30785   8.626  10.433   7.160 -0.2237 -0.0116 -0.1143
 9593SOL    HW130786   8.542  10.389   7.166 -0.2607 -0.0601 -0.9220
 9593SOL    HW230787   8.606  10.525   7.178 -0.2317 -0.2208  1.0082
 9594SOL     OW30788   7.517   0.415   8.295  0.1489  0.5243 -0.0600
 9594SOL    HW130789   7.575   0.481   8.256  0.1923  0.7066  0.3053
 9594SOL    HW230790   7.543   0.412   8.387  0.1330  0.0057 -0.0710
 9595SOL     OW30791   0.788   1.343   4.910 -0.0597 -0.7675 -0.1514
 9595SOL    HW130792   0.730   1.417   4.898  0.6040 -0.5289 -2.3951
 9595SOL    HW230793   0.799   1.307   4.822  2.3481 -1.4242  0.3477
 9596SOL     OW30794   9.090   8.339   0.775 -0.1375  0.2194 -0.5479
 9596SOL    HW130795   9.168   8.351   0.830 -1.0476  0.0989  0.8024
 9596SOL    HW230796   9.058   8.252   0.798 -1.2810  0.6882 -0.3014
 9597SOL     OW30797   3.980   8.709   8.713 -0.3415  0.2440 -0.0664
 9597SOL    HW130798   4.065   8.695   8.755  0.2425 -0.3369 -1.3864
 9597SOL    HW230799   3.998   8.702   8.619 -1.7472  0.6989 -0.3932
 9598SOL     OW30800   0.660   1.661  10.056 -0.3228 -0.3016  0.1112
 9598SOL    HW130801   0.704   1.736  10.016  0.3159 -0.1249  1.1142
 9598SOL    HW230802   0.617   1.697  10.133 -0.9851 -0.7564 -0.0424
 9599SOL     OW30803   0.480   2.157   8.540 -0.0815  0.3539 -0.2698
 9599SOL    HW130804   0.538   2.199   8.604  0.4338  1.1573 -1.2296
 9599SOL    HW230805   0.405   2.127   8.591  1.5476 -1.5335  1.1689
 9600SOL     OW30806   9.037   5.356   2.640 -0.1562 -0.5915  0.2893
 9600SOL    HW130807   9.074   5.434   2.600  0.0933 -0.3004  1.0576
 9600SOL    HW230808   8.944   5.376   2.649 -0.3236 -0.9025 -0.6832
 9601SOL     OW30809   5.940   2.155  10.526  0.5546 -0.2725 -0.2502
 9601SOL    HW130810   5.929   2.061  10.538  0.8386 -0.2758 -0.0134
 9601SOL    HW230811   5.919   2.193  10.612 -0.4260 -0.0463 -0.5785
 9602SOL     OW30812   0.424   9.256   7.042  0.4363  0.1259  0.2346
 9602SOL    HW130813   0.334   9.274   7.068 -0.1578  0.3057 -1.7669
 9602SOL    HW230814   0.459   9.340   7.014  0.8649 -0.1410 -0.0445
 9603SOL     OW30815  10.044   6.068   3.577 -0.4429 -0.0743  0.7075
 9603SOL    HW130816   9.963   6.047   3.624  0.3802  1.3963  2.9788
 9603SOL    HW230817  10.020   6.142   3.521 -0.6066  0.6622  1.7218
 9604SOL     OW30818   9.294   6.517   8.808  0.1269 -0.3532 -0.3856
 9604SOL    HW130819   9.311   6.548   8.720  0.5695 -1.7996 -0.8489
 9604SOL    HW230820   9.206   6.547   8.828 -0.3656 -0.8487 -1.7255
 9605SOL     OW30821   1.154   8.503   0.938 -0.3497  0.0003 -0.1366
 9605SOL    HW130822   1.200   8.500   1.022 -3.3169 -0.5617  1.6068
 9605SOL    HW230823   1.155   8.413   0.907 -2.0212 -0.4609  1.0092
 9606SOL     OW30824   6.136   1.689   2.369 -0.6252 -0.4879 -0.3805
 9606SOL    HW130825   6.209   1.745   2.395 -0.7938  0.9087 -2.6043
 9606SOL    HW230826   6.084   1.679   2.448  0.7982  0.3329  0.7202
 9607SOL     OW30827   9.862   6.066   6.225  0.4772 -0.4372 -0.2316
 9607SOL    HW130828   9.903   6.112   6.298  1.0856 -2.2338  0.6188
 9607SOL    HW230829   9.772   6.051   6.254 -0.1844  1.5257 -1.1594
 9608SOL     OW30830   3.892  10.045   9.426  0.1305  0.0728  0.1033
 9608SOL    HW130831   3.821   9.986   9.452 -0.0695 -0.5367 -1.7202
 9608SOL    HW230832   3.950  10.049   9.503 -1.3469 -0.1851  1.2749
 9609SOL     OW30833   2.199   0.368   0.290 -0.1984  0.0475 -0.4227
 9609SOL    HW130834   2.259   0.420   0.236 -1.0827  0.9444 -0.5768
 9609SOL    HW230835   2.130   0.340   0.230 -1.5236  1.5646  0.2982
 9610SOL     OW30836   8.744   6.865   5.045 -0.3317  0.4044  0.1850
 9610SOL    HW130837   8.824   6.894   5.089  0.5941 -2.0590  0.2371
 9610SOL    HW230838   8.674   6.906   5.095  0.8418  1.8096  0.7615
 9611SOL     OW30839   5.545   8.440   0.442 -0.1580 -0.0081  0.0860
 9611SOL    HW130840   5.463   8.481   0.469 -0.1936 -0.9853  1.6130
 9611SOL    HW230841   5.548   8.358   0.491  1.0175 -0.7118 -1.1016
 9612SOL     OW30842   3.532   7.431   9.553 -0.1935  0.2489  0.3263
 9612SOL    HW130843   3.438   7.412   9.562 -0.1796  0.0187 -0.0055
 9612SOL    HW230844   3.575   7.362   9.602 -0.2084  0.5905  0.8281
 9613SOL     OW30845   1.068   0.048   7.946 -0.4441 -0.5452 -0.0360
 9613SOL    HW130846   1.034  -0.009   8.015  1.0034 -0.4971  0.7500
 9613SOL    HW230847   1.151   0.007   7.920 -0.9196 -0.5185 -1.7029
 9614SOL     OW30848  10.280   6.128   1.362 -0.1337  0.3830  0.3579
 9614SOL    HW130849  10.235   6.136   1.278 -1.1316 -0.1695  0.8133
 9614SOL    HW230850  10.277   6.216   1.399 -0.7479  0.3771  0.3278
 9615SOL     OW30851   1.830   2.246   2.222  0.3330 -0.0541  0.4749
 9615SOL    HW130852   1.845   2.159   2.184 -2.5480 -0.0613 -0.9788
 9615SOL    HW230853   1.915   2.289   2.220  1.3872 -2.0729 -0.8649
 9616SOL     OW30854   6.737   6.768  10.584  0.1174 -0.1595  0.3370
 9616SOL    HW130855   6.690   6.723  10.654 -0.7307  0.0182 -0.1145
 9616SOL    HW230856   6.698   6.855  10.580  1.1018  0.3010  0.5590
 9617SOL     OW30857   1.610   7.876   0.950 -0.1420 -0.4705 -0.2325
 9617SOL    HW130858   1.609   7.781   0.934  0.0309 -0.5393  0.1494
 9617SOL    HW230859   1.519   7.897   0.973 -0.0005 -0.7036  0.5668
 9618SOL     OW30860  11.001   0.848   1.861  0.3714 -0.2277  0.5102
 9618SOL    HW130861  10.918   0.848   1.813 -0.1193 -0.6251  1.3411
 9618SOL    HW230862  11.000   0.929   1.911  0.4855 -0.2404  0.5332
 9619SOL     OW30863  10.111   7.623  10.313 -0.0372 -0.7994 -0.1851
 9619SOL    HW130864  10.081   7.540  10.278 -2.6463 -0.4610  1.0206
 9619SOL    HW230865  10.170   7.599  10.385 -1.6669 -1.6732  0.9085
 9620SOL     OW30866   9.780   8.368   9.064 -0.2918 -0.3690 -0.2366
 9620SOL    HW130867   9.744   8.282   9.045 -0.8621 -0.4961  1.2878
 9620SOL    HW230868   9.712   8.412   9.115 -0.1462  1.1288 -1.2512
 9621SOL     OW30869   7.127  10.050  10.331 -0.0895 -0.4108 -0.1363
 9621SOL    HW130870   7.217  10.083  10.345 -0.2170 -0.8552  2.3020
 9621SOL    HW230871   7.136   9.955  10.335 -0.6962 -0.4499  0.6430
 9622SOL     OW30872   3.189   1.269   1.343  0.3741 -0.2537 -0.0952
 9622SOL    HW130873   3.096   1.290   1.350  0.7777  1.7717 -0.1903
 9622SOL    HW230874   3.219   1.263   1.434  0.5716  1.3384 -0.0263
 9623SOL     OW30875   2.022   2.002   9.383  0.3365  0.1383  0.1487
 9623SOL    HW130876   1.984   2.071   9.329  0.2955 -1.5276 -2.0443
 9623SOL    HW230877   2.071   1.947   9.322  1.7592 -0.8600  2.0767
 9624SOL     OW30878   5.580   9.910   8.936 -0.0437  0.9652  0.1569
 9624SOL    HW130879   5.522   9.942   9.005  0.3528 -0.7736  1.3631
 9624SOL    HW230880   5.586   9.816   8.952 -2.0563 -0.0840 -3.8071
 9625SOL     OW30881   1.946   6.181   0.375 -0.6989 -0.3478  0.2082
 9625SOL    HW130882   1.954   6.085   0.381  1.4059 -0.0961  3.2484
 9625SOL    HW230883   1.902   6.207   0.456  2.6508  1.4741  1.6546
 9626SOL     OW30884   0.446   7.468   6.877  0.3355 -0.4719  0.1006
 9626SOL    HW130885   0.529   7.516   6.880  0.7818 -1.1671 -0.7433
 9626SOL    HW230886   0.409   7.489   6.792 -0.3395 -0.2196  0.4435
 9627SOL     OW30887   7.866   2.602   1.541 -0.3094  0.0553 -0.3308
 9627SOL    HW130888   7.872   2.645   1.456 -0.5183 -0.6527 -0.7156
 9627SOL    HW230889   7.933   2.645   1.595  0.6480 -0.2881 -1.2122
 9628SOL     OW30890   2.542  10.371   6.381  0.3680  0.1306 -0.1871
 9628SOL    HW130891   2.571  10.451   6.426  0.3157 -0.3194  0.6733
 9628SOL    HW230892   2.619  10.314   6.381 -0.3504 -0.9725  1.8832
 9629SOL     OW30893   7.823   7.345   8.041  0.1731  0.4780 -0.3507
 9629SOL    HW130894   7.822   7.430   7.998 -1.7705 -0.1241 -1.6438
 9629SOL    HW230895   7.800   7.364   8.132  0.2994  1.3755 -0.4979
 9630SOL     OW30896   5.394   9.353   8.494 -0.0122 -0.1494  0.2359
 9630SOL    HW130897   5.320   9.404   8.527  0.4453  1.7344 -1.4728
 9630SOL    HW230898   5.367   9.262   8.506 -1.6666  0.4621  1.6586
 9631SOL     OW30899   8.778   0.019   5.854 -0.3300  0.2090  0.7097
 9631SOL    HW130900   8.834   0.017   5.776 -1.0616  1.5195  0.1127
 9631SOL    HW230901   8.707  -0.041   5.833  0.8692 -1.5716  1.5286
 9632SOL     OW30902   6.653   1.389   7.596  0.8547 -0.0457 -0.4453
 9632SOL    HW130903   6.630   1.350   7.512  1.6459 -1.3209 -0.0930
 9632SOL    HW230904   6.688   1.317   7.647  1.0921  0.8694  0.7220
 9633SOL     OW30905   8.294   4.942   6.858  0.0027  0.0342 -0.7117
 9633SOL    HW130906   8.296   4.875   6.926  0.6802  0.6586 -0.0779
 9633SOL    HW230907   8.357   5.008   6.889 -0.1038  0.6042 -1.6694
 9634SOL     OW30908   0.931   4.424   8.161  0.2968  0.2326 -0.1066
 9634SOL    HW130909   0.926   4.463   8.074 -1.5708  2.3714  0.8852
 9634SOL    HW230910   0.946   4.497   8.220  1.5816 -1.1759  1.4348
 9635SOL     OW30911   7.755   5.494   2.901 -0.1414  0.5225  0.1692
 9635SOL    HW130912   7.692   5.422   2.889  1.3286 -0.9858  1.1693
 9635SOL    HW230913   7.828   5.472   2.844  1.4211 -0.1446  2.3264
 9636SOL     OW30914   8.471   5.473   8.512  0.5646 -0.0659  0.0650
 9636SOL    HW130915   8.512   5.419   8.444 -1.1509 -2.9544  1.1412
 9636SOL    HW230916   8.536   5.475   8.583  1.2519  0.6305 -0.5652
 9637SOL     OW30917   3.891   5.369   4.734  0.1067  0.0110 -0.0848
 9637SOL    HW130918   3.966   5.312   4.720  0.8395  0.9630 -0.1316
 9637SOL    HW230919   3.816   5.309   4.735  0.7529 -0.8602 -0.9536
 9638SOL     OW30920   3.545   2.600  10.323  0.0598 -0.0042  0.1679
 9638SOL    HW130921   3.548   2.675  10.382 -0.4718 -0.4285  0.7444
 9638SOL    HW230922   3.454   2.596  10.294  0.3680  0.3764 -0.9304
 9639SOL     OW30923   1.473   0.149   7.954  0.4232  0.5098 -0.2400
 9639SOL    HW130924   1.437   0.209   8.019  0.2367 -1.1284  1.2359
 9639SOL    HW230925   1.567   0.165   7.955  0.5325 -0.1023  1.1172
 9640SOL     OW30926   5.228   0.558   5.325 -0.6915 -0.0130 -0.0089
 9640SOL    HW130927   5.203   0.555   5.232  0.0901  0.2502 -0.2370
 9640SOL    HW230928   5.191   0.639   5.358 -0.5262  0.1500 -0.2244
 9641SOL     OW30929   7.201   0.643   3.918  0.0636  0.1473  0.0391
 9641SOL    HW130930   7.282   0.593   3.910 -0.0744  0.0492 -0.8287
 9641SOL    HW230931   7.209   0.713   3.854  0.2742  1.2930  1.2794
 9642SOL     OW30932   0.987   4.643   5.913 -0.6813  0.3947  0.1751
 9642SOL    HW130933   1.079   4.648   5.940 -0.0596  0.9106 -1.8992
 9642SOL    HW230934   0.944   4.712   5.964  0.0866  0.2177  1.0993
 9643SOL     OW30935   5.700   1.169   5.608  0.4853  0.4216 -0.0704
 9643SOL    HW130936   5.625   1.212   5.649 -0.9065 -0.8441 -1.1502
 9643SOL    HW230937   5.757   1.146   5.682 -0.4035  1.0242  0.8366
 9644SOL     OW30938  10.686   5.988   2.643  0.4615  0.2086 -0.1791
 9644SOL    HW130939  10.611   5.971   2.585  0.1705  0.7672  0.0305
 9644SOL    HW230940  10.754   5.930   2.610 -0.0426 -0.2608 -0.4161
 9645SOL     OW30941   5.473   1.586   6.727  0.1115 -0.4932 -0.3331
 9645SOL    HW130942   5.552   1.534   6.713  1.2654  1.1154 -0.1875
 9645SOL    HW230943   5.496   1.673   6.693 -1.0814  0.3965  1.0085
 9646SOL     OW30944   2.064   8.761   8.552  0.5077  0.1655  0.8400
 9646SOL    HW130945   2.120   8.799   8.620  1.9431 -0.2986 -0.0396
 9646SOL    HW230946   2.125   8.725   8.488 -0.8052  0.1111 -0.4384
 9647SOL     OW30947  10.075   9.219   3.046  0.6508 -0.1151  0.4841
 9647SOL    HW130948  10.058   9.168   3.125  0.7327  0.0958  0.6383
 9647SOL    HW230949  10.065   9.156   2.975 -1.2712  0.1048  0.5064
 9648SOL     OW30950   4.746   9.769   4.892  0.2602 -0.4287  0.2444
 9648SOL    HW130951   4.689   9.693   4.903  1.5526 -1.5088 -0.2032
 9648SOL    HW230952   4.776   9.789   4.980  0.1727 -0.6565  0.3274
 9649SOL     OW30953   2.643   6.977   9.341 -0.4823 -0.0909 -0.0282
 9649SOL    HW130954   2.670   7.043   9.278  0.8261 -0.2043  0.3907
 9649SOL    HW230955   2.669   7.013   9.426 -3.0155  0.4823  0.6015
 9650SOL     OW30956  10.876   0.623   6.592  0.0450  0.9215  0.0529
 9650SOL    HW130957  10.935   0.637   6.665  0.0944  0.1940  0.1542
 9650SOL    HW230958  10.901   0.538   6.556  0.2789  1.4356 -1.0479
 9651SOL     OW30959   5.066   5.604   6.228 -0.5304 -0.3961 -0.6222
 9651SOL    HW130960   5.008   5.547   6.178  0.4220  0.3050 -2.6161
 9651SOL    HW230961   5.145   5.612   6.174  0.7335  0.0826  1.1916
 9652SOL     OW30962   9.146   8.473  10.626  0.3480  0.0771 -0.2265
 9652SOL    HW130963   9.093   8.524  10.687 -0.8635  0.2328 -1.3586
 9652SOL    HW230964   9.119   8.503  10.539  1.3504 -0.7926 -0.8719
 9653SOL     OW30965   4.013   6.243   0.730 -0.3846  0.5982 -0.1953
 9653SOL    HW130966   3.989   6.265   0.820 -1.7740 -0.1131 -0.3658
 9653SOL    HW230967   4.096   6.289   0.716  0.5286 -0.2949  1.8570
 9654SOL     OW30968   5.266   4.465  10.305 -0.0950  0.4705  0.0713
 9654SOL    HW130969   5.243   4.386  10.257 -0.5324  0.3789  0.4281
 9654SOL    HW230970   5.362   4.469  10.301  0.0527 -0.8680  1.2859
 9655SOL     OW30971   0.668   0.022   1.954 -0.2131 -0.0394 -0.9056
 9655SOL    HW130972   0.629  -0.061   1.927  0.8235 -0.6902 -0.4828
 9655SOL    HW230973   0.698   0.005   2.044  1.0989  0.4005 -1.2454
 9656SOL     OW30974   0.257   9.335   6.144 -0.2408 -1.1359  0.5525
 9656SOL    HW130975   0.270   9.294   6.058 -0.2789 -0.5624  0.2652
 9656SOL    HW230976   0.165   9.321   6.163 -0.9515  1.1525 -0.8158
 9657SOL     OW30977   7.837  10.490   5.042  0.2528  0.0803  0.2464
 9657SOL    HW130978   7.767  10.538   4.997  1.6720 -0.4091 -2.7390
 9657SOL    HW230979   7.912  10.548   5.040  1.0983 -0.9852 -0.5514
 9658SOL     OW30980   5.866   1.563   2.090 -0.5037 -0.2573  0.2095
 9658SOL    HW130981   5.802   1.513   2.141 -0.0200  1.0595  2.2155
 9658SOL    HW230982   5.884   1.640   2.142  1.6921  0.1141 -0.9580
 9659SOL     OW30983   5.694  10.887   5.413  0.4316 -0.3098 -0.0398
 9659SOL    HW130984   5.688  10.964   5.357 -1.5542 -0.0563  0.4423
 9659SOL    HW230985   5.614  10.837   5.393 -0.0729 -0.4572  2.1606
 9660SOL     OW30986   5.721   3.320   2.089 -0.0999 -0.1033  0.3782
 9660SOL    HW130987   5.675   3.250   2.136  0.0072 -1.0187 -0.8180
 9660SOL    HW230988   5.653   3.384   2.067 -0.2357  0.0764  1.3010
 9661SOL     OW30989   2.654   3.878   8.280 -0.6155  0.2450 -0.1736
 9661SOL    HW130990   2.652   3.926   8.362 -2.3498 -1.4322  0.8577
 9661SOL    HW230991   2.579   3.912   8.230 -0.7180 -0.0598 -0.2320
 9662SOL     OW30992  10.611   9.136   3.793 -0.4601  0.2781  0.0602
 9662SOL    HW130993  10.655   9.116   3.711 -0.2809  1.7325 -0.2162
 9662SOL    HW230994  10.640   9.067   3.853  3.9791  2.2585  0.5377
 9663SOL     OW30995   6.366   4.046   0.247 -0.0749  0.2294  0.9897
 9663SOL    HW130996   6.443   3.994   0.267 -0.6769 -0.1994  2.2882
 9663SOL    HW230997   6.400   4.132   0.223  0.9588 -0.7805 -1.4740
 9664SOL     OW30998  10.920   1.080   1.271 -0.1526 -0.6875 -0.2240
 9664SOL    HW130999  10.868   1.153   1.239  1.2691  0.2989 -0.3995
 9664SOL    HW231000  10.929   1.022   1.196 -0.8013 -0.7661 -0.2489
 9665SOL     OW31001   9.454   4.764   4.241 -0.2761  0.3036  0.4335
 9665SOL    HW131002   9.409   4.679   4.246 -0.2654  0.3022  0.5093
 9665SOL    HW231003   9.533   4.746   4.190  0.1435  0.0851  1.1457
 9666SOL     OW31004   8.135   4.187   9.852 -0.2979 -0.2363  0.6912
 9666SOL    HW131005   8.044   4.197   9.824 -0.7695  1.3623  2.5601
 9666SOL    HW231006   8.185   4.194   9.771 -1.8013 -0.5870 -0.3214
 9667SOL     OW31007   1.955   3.729   5.837 -0.7933  0.1486 -0.1121
 9667SOL    HW131008   1.936   3.768   5.752 -0.7546  2.6980  0.9539
 9667SOL    HW231009   2.045   3.755   5.856 -0.1152 -2.0014 -0.0449
 9668SOL     OW31010   5.220   0.278   4.171 -0.1519  0.2551 -0.4431
 9668SOL    HW131011   5.284   0.348   4.185 -0.8300  1.0858 -1.3909
 9668SOL    HW231012   5.258   0.223   4.103 -0.1668  0.4132 -0.5808
 9669SOL     OW31013   3.467   8.234  10.763 -0.5414 -0.0855  0.3456
 9669SOL    HW131014   3.427   8.151  10.739 -1.7998  0.2181  1.3173
 9669SOL    HW231015   3.548   8.208  10.809 -1.8843 -0.8967  2.4194
 9670SOL     OW31016   8.500   2.966   1.420 -0.3703 -0.4098 -0.1463
 9670SOL    HW131017   8.546   3.032   1.473  1.4993 -1.0229 -0.9229
 9670SOL    HW231018   8.531   2.882   1.453  1.0055 -0.8098 -2.2589
 9671SOL     OW31019   7.401   6.513   4.180  0.3349 -0.2730  0.7037
 9671SOL    HW131020   7.418   6.561   4.099  1.9157 -1.7407  0.0829
 9671SOL    HW231021   7.385   6.423   4.151 -1.3364 -0.4059  1.9011
 9672SOL     OW31022   1.654   0.407  10.947  0.3620 -0.2108 -0.3201
 9672SOL    HW131023   1.588   0.476  10.953  0.1242 -0.1413 -2.6823
 9672SOL    HW231024   1.733   0.445  10.985 -0.9034 -0.3685  2.7769
 9673SOL     OW31025   2.948   8.726   3.195 -0.5952  0.3671  0.0249
 9673SOL    HW131026   2.973   8.648   3.244 -0.3948  0.7774  0.5889
 9673SOL    HW231027   3.026   8.750   3.146 -0.0117  1.3158  1.3436
 9674SOL     OW31028   5.555  10.543  10.112 -0.6251 -0.0740  0.1467
 9674SOL    HW131029   5.487  10.511  10.052  0.1844 -0.5124 -0.5591
 9674SOL    HW231030   5.617  10.589  10.056 -0.1794  0.0649  0.7399
 9675SOL     OW31031   0.724   3.129  10.968  0.2749 -0.7280  0.2609
 9675SOL    HW131032   0.705   3.184  10.891  2.4011 -0.1337  0.1063
 9675SOL    HW231033   0.638   3.115  11.008 -0.4603  2.2304 -0.0218
 9676SOL     OW31034   9.891   4.634   4.169 -0.0554 -0.0033  0.2312
 9676SOL    HW131035   9.802   4.611   4.143 -0.2000 -1.0143  1.4998
 9676SOL    HW231036   9.947   4.593   4.103 -0.4993  0.0124 -0.1584
 9677SOL     OW31037   0.259   2.516   8.075  0.0072 -0.1369 -0.1891
 9677SOL    HW131038   0.202   2.589   8.052  1.6794  1.5038  0.6091
 9677SOL    HW231039   0.291   2.483   7.991  0.5744  1.1995 -0.5185
 9678SOL     OW31040   3.423   8.939  10.066 -0.0062 -0.1360  0.1436
 9678SOL    HW131041   3.400   9.031  10.074 -0.5921 -0.1980 -0.7530
 9678SOL    HW231042   3.359   8.902  10.005  0.5880 -0.9955  0.0060
 9679SOL     OW31043   3.406   9.261   9.463  0.1708  0.4772  0.0198
 9679SOL    HW131044   3.393   9.279   9.556  0.7568  1.0562 -0.0043
 9679SOL    HW231045   3.324   9.286   9.421 -1.3847 -2.8174  0.7401
 9680SOL     OW31046   9.999   5.135   6.305  0.0484  0.2210  0.1558
 9680SOL    HW131047  10.076   5.158   6.358 -1.2285 -0.2463  2.3242
 9680SOL    HW231048   9.926   5.177   6.350 -1.1186 -0.1063 -1.3475
 9681SOL     OW31049  10.142   9.699   5.323  0.3999  0.1936  0.3667
 9681SOL    HW131050  10.230   9.672   5.299  0.4574 -0.1289  0.9245
 9681SOL    HW231051  10.148   9.794   5.332  0.6922  0.1717  0.4072
 9682SOL     OW31052  10.010   1.212   6.587 -0.1047 -0.7467  0.0824
 9682SOL    HW131053  10.025   1.198   6.681  2.6238  0.7028 -0.0494
 9682SOL    HW231054  10.031   1.128   6.547  0.0934 -0.9815  0.6594
 9683SOL     OW31055   9.138   4.513   8.273 -0.5769 -0.4427  0.0742
 9683SOL    HW131056   9.066   4.450   8.284 -0.2458 -0.9857 -0.8142
 9683SOL    HW231057   9.095   4.593   8.241 -0.7318 -0.9318 -0.9759
 9684SOL     OW31058   0.966   2.872   3.266 -0.1175  0.6745  0.6070
 9684SOL    HW131059   1.060   2.880   3.281  0.4923  0.3625 -2.4434
 9684SOL    HW231060   0.951   2.778   3.259  0.3398  0.7046 -3.3474
 9685SOL     OW31061   0.957   4.390   9.083  0.2547  0.0039  0.5349
 9685SOL    HW131062   0.960   4.345   8.999  0.9940 -0.4654  0.7959
 9685SOL    HW231063   0.952   4.319   9.148  0.6471  0.3199  0.9179
 9686SOL     OW31064   5.365   8.856   4.012  0.2702 -0.1792 -0.1235
 9686SOL    HW131065   5.445   8.812   4.042 -0.1046 -1.2437 -0.6508
 9686SOL    HW231066   5.295   8.809   4.056 -0.1593 -0.3396 -0.9701
 9687SOL     OW31067   6.091   7.002   9.038 -0.0910 -0.0241  0.4198
 9687SOL    HW131068   6.004   6.964   9.026  0.6202 -1.3587 -0.8439
 9687SOL    HW231069   6.075   7.096   9.043 -1.6535 -0.2812  0.7574
 9688SOL     OW31070   3.623   1.862   2.224  0.4209 -0.2527  0.4019
 9688SOL    HW131071   3.545   1.880   2.277  1.6238  0.6708  1.9376
 9688SOL    HW231072   3.609   1.773   2.191 -2.0749  0.5087 -0.8693
 9689SOL     OW31073   5.437   9.843   8.428  0.1813 -0.1954  0.0887
 9689SOL    HW131074   5.388   9.925   8.434 -0.2965 -0.1673 -2.6292
 9689SOL    HW231075   5.381   9.778   8.472 -0.8893  0.3966 -0.3498
 9690SOL     OW31076   5.285   7.219   5.373  0.3703 -0.6354 -0.4040
 9690SOL    HW131077   5.203   7.266   5.390  0.9467  1.2647 -2.4393
 9690SOL    HW231078   5.282   7.199   5.280  3.3911  2.0773 -1.2569
 9691SOL     OW31079   8.414   3.698   2.531 -0.4471  0.1547  0.2148
 9691SOL    HW131080   8.497   3.741   2.551 -1.0937  1.1073  0.9445
 9691SOL    HW231081   8.426   3.662   2.443 -0.0672  2.3491 -0.6825
 9692SOL     OW31082   8.917  10.612  10.597  0.0193 -0.4801 -1.2197
 9692SOL    HW131083   8.905  10.666  10.675 -0.2325  0.7400 -2.0808
 9692SOL    HW231084   8.834  10.564  10.588  0.7287 -2.0925  0.3123
 9693SOL     OW31085   4.472   1.987   8.811 -0.4672  0.1118 -0.0218
 9693SOL    HW131086   4.548   1.946   8.769 -0.6926 -0.1333 -0.1965
 9693SOL    HW231087   4.433   2.041   8.742 -0.4792  0.1995  0.0540
 9694SOL     OW31088   5.202   3.570   7.549  0.7840  0.6179  0.3193
 9694SOL    HW131089   5.295   3.580   7.573  1.2524 -0.4146 -0.9415
 9694SOL    HW231090   5.173   3.659   7.529  1.2067  1.0895  1.7124
 9695SOL     OW31091   6.467   4.264   7.686  0.1555 -0.1512  0.1566
 9695SOL    HW131092   6.388   4.220   7.719  0.5923 -1.7600 -0.8415
 9695SOL    HW231093   6.513   4.292   7.765 -0.2184 -1.3826  0.8426
 9696SOL     OW31094   9.798   5.390   0.716 -0.2736 -0.0109  0.0287
 9696SOL    HW131095   9.752   5.309   0.696  1.1391 -0.5269 -1.3073
 9696SOL    HW231096   9.799   5.438   0.634  0.6614  0.4402  0.2909
 9697SOL     OW31097   1.837   8.298   7.198  0.2584 -0.4966  0.6377
 9697SOL    HW131098   1.810   8.212   7.229  0.3079 -0.2093  1.5343
 9697SOL    HW231099   1.886   8.282   7.118  0.0072 -1.2695  0.6342
 9698SOL     OW31100   2.578   8.564   7.544  0.3154  0.7151  0.6334
 9698SOL    HW131101   2.636   8.616   7.488  1.5893  0.8994  2.0732
 9698SOL    HW231102   2.522   8.628   7.586  0.0931  0.6724  0.4050
 9699SOL     OW31103   4.297   7.465   3.644  0.3780  0.2535  0.0098
 9699SOL    HW131104   4.250   7.473   3.561 -0.3962 -1.4575  0.2463
 9699SOL    HW231105   4.389   7.457   3.619  0.2938  1.0905 -0.6017
 9700SOL     OW31106   3.903   2.674   8.614 -0.2179 -0.1381  0.3282
 9700SOL    HW131107   3.818   2.631   8.610 -0.1794 -0.2932  1.0651
 9700SOL    HW231108   3.939   2.663   8.526 -0.8357 -0.3127  0.0884
 9701SOL     OW31109   9.856   6.865   1.505 -0.8694  0.5330 -1.0043
 9701SOL    HW131110   9.820   6.878   1.592  0.9365  0.2378 -0.1747
 9701SOL    HW231111   9.780   6.844   1.450 -2.1731  1.7950  0.2472
 9702SOL     OW31112   2.197   9.594   2.775 -0.2970 -0.0793 -0.2857
 9702SOL    HW131113   2.162   9.505   2.770 -1.1080  0.2679 -0.9872
 9702SOL    HW231114   2.127   9.645   2.813  0.0519  0.3195 -0.1778
 9703SOL     OW31115  10.886   5.371   8.239  0.1560 -0.1318 -0.0255
 9703SOL    HW131116  10.969   5.399   8.199 -0.5081  1.2899 -0.4850
 9703SOL    HW231117  10.905   5.368   8.333  0.5354  1.0177 -0.0415
 9704SOL     OW31118   6.185  10.842   3.390 -0.1313  0.5963  0.3644
 9704SOL    HW131119   6.210  10.757   3.427 -2.1353 -0.8822 -1.3573
 9704SOL    HW231120   6.235  10.847   3.308 -2.5395 -0.7343 -1.3303
 9705SOL     OW31121   0.091   2.421   7.810  0.5764  0.2543 -0.1867
 9705SOL    HW131122   0.182   2.447   7.825 -0.1594  1.8699  1.8085
 9705SOL    HW231123   0.049   2.499   7.775 -0.0178 -0.5798 -1.4030
 9706SOL     OW31124   1.042   7.228   7.255 -0.2731  0.3680 -0.0136
 9706SOL    HW131125   0.990   7.262   7.328  0.2900  4.4118 -1.2262
 9706SOL    HW231126   1.130   7.261   7.271  0.0816  0.4822 -2.0007
 9707SOL     OW31127   0.882   2.268   1.530 -0.1503  0.0522 -0.2909
 9707SOL    HW131128   0.787   2.256   1.537 -0.1577  0.0447 -0.3961
 9707SOL    HW231129   0.898   2.355   1.566 -0.1557 -0.0837  0.0376
 9708SOL     OW31130   5.027   8.252  10.431 -0.2095 -0.4420  0.0110
 9708SOL    HW131131   5.078   8.231  10.510 -1.3425  0.9535  1.1826
 9708SOL    HW231132   5.041   8.178  10.373  2.5813 -0.4372  0.5463
 9709SOL     OW31133   3.782  10.835   5.655  0.0147  0.7569  0.0031
 9709SOL    HW131134   3.791  10.908   5.716  2.2375  0.6395 -0.0947
 9709SOL    HW231135   3.720  10.776   5.697 -0.9280  2.1358  0.6358
 9710SOL     OW31136   6.397   5.885   0.025 -0.3809 -0.3428 -0.1753
 9710SOL    HW131137   6.394   5.949  -0.046  0.6596  0.6017  0.6125
 9710SOL    HW231138   6.335   5.919   0.090  0.2516 -0.0692  0.2899
 9711SOL     OW31139   1.167   3.899   6.010 -0.1726  0.7272 -0.0404
 9711SOL    HW131140   1.205   3.844   6.079 -1.6267 -0.0375  0.1949
 9711SOL    HW231141   1.166   3.987   6.048  1.9077  0.9169 -0.3033
 9712SOL     OW31142   9.849   7.369   5.078  0.3504 -0.3145 -0.3572
 9712SOL    HW131143   9.937   7.335   5.060  1.6177  2.6529 -0.5192
 9712SOL    HW231144   9.860   7.420   5.159 -1.3537 -0.2681 -0.1291
 9713SOL     OW31145   3.154   2.813   1.188 -0.2726 -0.9199  0.0741
 9713SOL    HW131146   3.239   2.768   1.183  0.4048  0.3107  0.2082
 9713SOL    HW231147   3.170   2.899   1.150 -1.6025 -0.8432 -0.3736
 9714SOL     OW31148   8.443   6.382   8.508  0.2009  0.6549  0.0870
 9714SOL    HW131149   8.389   6.311   8.476  0.0393  1.4259 -1.4276
 9714SOL    HW231150   8.487   6.346   8.585 -1.4563 -0.3992  0.5954
 9715SOL     OW31151   9.025   2.726   2.456  0.1656 -0.0085 -0.1333
 9715SOL    HW131152   8.942   2.770   2.471 -0.5587 -0.6695 -1.9741
 9715SOL    HW231153   9.085   2.765   2.519 -1.0893  1.7421  0.0226
 9716SOL     OW31154   0.911   3.835   5.912 -0.4256  0.8627  0.6927
 9716SOL    HW131155   0.999   3.847   5.948 -0.9936  1.1882  2.0484
 9716SOL    HW231156   0.853   3.882   5.973 -1.5932  0.2028  0.1384
 9717SOL     OW31157   5.499   3.246   2.550 -0.3841 -0.0844 -0.8053
 9717SOL    HW131158   5.515   3.160   2.510  0.7101  0.0843 -0.7618
 9717SOL    HW231159   5.531   3.237   2.639 -3.1492 -0.5731  0.2362
 9718SOL     OW31160   3.474   9.021  10.691  0.4759 -0.2826  0.1479
 9718SOL    HW131161   3.497   9.031  10.784 -0.3152 -1.5516  0.4983
 9718SOL    HW231162   3.393   8.971  10.691  0.0980  0.2819 -1.2245
 9719SOL     OW31163   1.330   4.213   5.258  0.1615 -0.1446  0.2353
 9719SOL    HW131164   1.363   4.289   5.210 -1.4626  0.1813 -0.4509
 9719SOL    HW231165   1.240   4.237   5.281 -0.9637 -2.4263 -1.3801
 9720SOL     OW31166   5.520   5.472  10.182 -0.0658 -0.1354  0.1639
 9720SOL    HW131167   5.448   5.436  10.234  0.0038  0.6195  0.7991
 9720SOL    HW231168   5.514   5.567  10.194 -0.2496  0.0939 -1.4876
 9721SOL     OW31169   3.578   4.314   5.243  0.3770  0.1047  0.3611
 9721SOL    HW131170   3.554   4.404   5.222  2.2742  0.7623  0.7595
 9721SOL    HW231171   3.661   4.300   5.197  0.5365 -1.1427  0.9794
 9722SOL     OW31172   8.369  10.949   3.690  0.1451  0.7948  0.4482
 9722SOL    HW131173   8.359  10.895   3.768  0.3538  2.1634  1.4539
 9722SOL    HW231174   8.419  10.894   3.629 -0.4562 -0.4784  1.0708
 9723SOL     OW31175   7.823   4.656   1.527  0.4054  0.0726  0.2342
 9723SOL    HW131176   7.820   4.584   1.464  1.8126 -0.7411  1.0581
 9723SOL    HW231177   7.736   4.658   1.566 -0.3714  0.3342 -1.4141
 9724SOL     OW31178   6.415   3.618   3.112 -0.2723 -0.6129  0.1692
 9724SOL    HW131179   6.428   3.576   3.197  0.5498  0.7442  0.7481
 9724SOL    HW231180   6.500   3.656   3.091 -0.6024 -0.5045 -1.0429
 9725SOL     OW31181   6.287   8.519   0.243 -0.5393 -0.4377 -0.2722
 9725SOL    HW131182   6.198   8.500   0.212 -0.9032 -0.4607  0.7708
 9725SOL    HW231183   6.277   8.541   0.335  0.6033 -0.9789  0.0103
 9726SOL     OW31184   7.647   8.355   5.760  0.2202 -0.0514 -0.2558
 9726SOL    HW131185   7.707   8.377   5.831 -0.6277  1.6988 -0.0242
 9726SOL    HW231186   7.567   8.325   5.804  0.0920 -0.0866 -0.5066
 9727SOL     OW31187   2.208   5.936   7.823  0.0585  0.2346 -0.3790
 9727SOL    HW131188   2.203   6.026   7.792  0.0793  0.8495  1.2934
 9727SOL    HW231189   2.259   5.890   7.756 -0.4973  1.3060 -1.5728
 9728SOL     OW31190   1.880   2.456   6.424  0.6576 -0.5411  0.3158
 9728SOL    HW131191   1.914   2.533   6.379 -1.1448 -0.0284 -0.2552
 9728SOL    HW231192   1.815   2.419   6.364  0.6564 -1.8446  1.0701
 9729SOL     OW31193   5.266   7.011   0.818  0.0872  0.1456 -0.2461
 9729SOL    HW131194   5.275   7.103   0.842 -1.9470  0.0273  1.2367
 9729SOL    HW231195   5.249   6.967   0.901 -2.0556 -1.0895 -1.2567
 9730SOL     OW31196   5.792   5.369   6.623  0.0187 -0.5983  0.2286
 9730SOL    HW131197   5.697   5.376   6.615  0.0354 -0.1277  0.3902
 9730SOL    HW231198   5.823   5.358   6.533 -0.1450 -0.1749  0.1204
 9731SOL     OW31199   3.266   5.742   6.281  0.1312 -0.0519  0.7088
 9731SOL    HW131200   3.184   5.694   6.287  0.2400 -0.3801 -0.2657
 9731SOL    HW231201   3.264   5.804   6.355 -0.2877 -1.1124  1.6132
 9732SOL     OW31202   5.660   1.352   5.832 -0.7979  0.3593 -0.4913
 9732SOL    HW131203   5.587   1.383   5.886  0.3083 -1.6508  2.3916
 9732SOL    HW231204   5.735   1.402   5.863 -0.3189 -0.0667 -0.9486
 9733SOL     OW31205   1.297   4.054   6.356  0.0811  0.5032 -0.1014
 9733SOL    HW131206   1.366   4.031   6.419  0.9489  1.1324 -0.7880
 9733SOL    HW231207   1.327   4.017   6.273 -0.3005  0.9830 -0.4580
 9734SOL     OW31208   1.003   2.170   4.429 -0.0261  0.0079  0.1002
 9734SOL    HW131209   0.945   2.225   4.376 -0.2018 -0.4427 -0.1882
 9734SOL    HW231210   0.968   2.082   4.418  1.7881 -0.5798 -1.5930
 9735SOL     OW31211   0.736   4.801   6.271  0.4679  0.3567  0.2425
 9735SOL    HW131212   0.704   4.838   6.354 -1.4208 -1.1160  0.2419
 9735SOL    HW231213   0.670   4.827   6.207  0.5027 -0.7537 -0.2648
 9736SOL     OW31214   7.291   7.134   6.527 -0.4650  0.0832  0.4005
 9736SOL    HW131215   7.368   7.167   6.481  0.4443 -1.9043  0.3859
 9736SOL    HW231216   7.258   7.064   6.471 -1.5951  0.1113  1.0001
 9737SOL     OW31217   9.026   0.728   4.906  0.4023  0.2328  0.1734
 9737SOL    HW131218   9.109   0.723   4.858  0.8901  0.2804  1.0026
 9737SOL    HW231219   8.960   0.704   4.841  1.0677  0.1303 -0.4806
 9738SOL     OW31220   5.326   1.672   5.484 -0.1227  0.5729 -0.1373
 9738SOL    HW131221   5.307   1.581   5.464  1.3074  0.4794 -1.2223
 9738SOL    HW231222   5.239   1.713   5.493 -0.7875 -0.9856  1.0228
 9739SOL     OW31223   0.419   8.612   1.272 -0.2735  0.3031  0.4994
 9739SOL    HW131224   0.500   8.641   1.231  0.6630 -1.0847  1.2976
 9739SOL    HW231225   0.404   8.674   1.344  1.1405 -0.5270  1.5497
 9740SOL     OW31226   4.792  10.015   3.157 -0.3440  0.1769 -0.0588
 9740SOL    HW131227   4.871  10.043   3.110  0.0984  0.9358  1.1108
 9740SOL    HW231228   4.762  10.094   3.203 -1.0284 -0.4345  0.5685
 9741SOL     OW31229   7.039   3.370   3.377  0.2477 -0.2229 -0.2577
 9741SOL    HW131230   7.073   3.299   3.323 -1.6884 -2.7952  1.6418
 9741SOL    HW231231   6.949   3.344   3.398 -0.6771  2.9850  0.3167
 9742SOL     OW31232   2.986   7.164   0.347 -0.4919 -0.2240  0.1338
 9742SOL    HW131233   2.989   7.100   0.418  0.3500 -1.7487 -1.1948
 9742SOL    HW231234   2.893   7.174   0.327 -0.6172 -1.5535 -0.0445
 9743SOL     OW31235   5.998   3.343   0.069  0.2915  0.0082 -0.3697
 9743SOL    HW131236   6.001   3.434   0.040  1.2318  0.1752  0.2241
 9743SOL    HW231237   6.060   3.298   0.013  0.9615  0.0344  0.3345
 9744SOL     OW31238   0.113   4.670   3.850 -0.2523  0.6757  0.2236
 9744SOL    HW131239   0.025   4.636   3.866 -0.5004  0.9353 -0.5384
 9744SOL    HW231240   0.138   4.632   3.766  0.6924 -0.0323  0.8117
 9745SOL     OW31241   5.810   6.970   9.792 -0.2033 -0.7397  0.5893
 9745SOL    HW131242   5.803   6.973   9.696  0.7632 -0.2187  0.5158
 9745SOL    HW231243   5.780   6.883   9.815 -2.9167 -0.0185  0.0709
 9746SOL     OW31244   5.463   3.234   3.673 -0.2541  0.3202 -0.5030
 9746SOL    HW131245   5.530   3.183   3.629  0.9019  0.9804  0.4155
 9746SOL    HW231246   5.425   3.174   3.738 -1.0740 -0.2675 -1.5061
 9747SOL     OW31247  10.742  10.965   8.356 -0.3243  0.5573 -0.0743
 9747SOL    HW131248  10.678  10.897   8.378 -1.7854  1.7091 -0.5555
 9747SOL    HW231249  10.788  10.981   8.438  0.8489 -1.7505 -0.1954
 9748SOL     OW31250  10.890   4.733   3.314  0.2088 -0.3951  0.2883
 9748SOL    HW131251  10.915   4.641   3.321  2.0690  0.1850  1.9231
 9748SOL    HW231252  10.794   4.732   3.321  0.1796 -2.1902  0.1554
 9749SOL     OW31253   5.657   9.044   9.296 -0.0591  0.0604 -0.2042
 9749SOL    HW131254   5.664   9.095   9.377 -0.1822 -0.9233  0.4507
 9749SOL    HW231255   5.735   9.068   9.246  0.1919  0.4357  0.3505
 9750SOL     OW31256   7.112   9.773   9.082 -0.3017  0.3685  0.5297
 9750SOL    HW131257   7.016   9.763   9.081 -0.5360  2.2387 -0.4622
 9750SOL    HW231258   7.144   9.691   9.119 -2.1791 -1.2666 -1.2165
 9751SOL     OW31259   1.798   2.616  10.546 -0.0111  0.2402 -0.3797
 9751SOL    HW131260   1.721   2.590  10.597  0.1143 -1.0985 -0.8352
 9751SOL    HW231261   1.854   2.661  10.609 -1.8410  2.7159 -0.3943
 9752SOL     OW31262   4.702   8.485   4.204  0.2570 -0.4038  0.2129
 9752SOL    HW131263   4.754   8.483   4.284  0.4215  0.0084  0.1210
 9752SOL    HW231264   4.619   8.525   4.230 -0.5924 -2.3693  0.6757
 9753SOL     OW31265   7.880   1.622   2.191  0.1662 -0.2156 -0.2222
 9753SOL    HW131266   7.824   1.605   2.267  2.0523 -1.1076  1.0400
 9753SOL    HW231267   7.913   1.536   2.166 -0.4262  0.0597 -2.1113
 9754SOL     OW31268   4.120   9.357   8.325 -1.0214 -0.0112 -0.2126
 9754SOL    HW131269   4.194   9.332   8.380  1.9461 -1.3227 -4.2834
 9754SOL    HW231270   4.130   9.452   8.313 -0.3328 -0.0939 -0.2899
 9755SOL     OW31271   1.456  10.460   5.308 -0.4669 -0.8224 -0.0925
 9755SOL    HW131272   1.392  10.482   5.376  1.2433  2.4338  0.6786
 9755SOL    HW231273   1.527  10.417   5.355  0.0454  0.0682 -0.0194
 9756SOL     OW31274   6.750   3.435   8.347  0.4508 -0.0200 -0.0594
 9756SOL    HW131275   6.695   3.505   8.312  0.7081  0.8889  1.2727
 9756SOL    HW231276   6.832   3.443   8.298  0.2445  0.1927 -0.3725
 9757SOL     OW31277   2.481   6.309  10.720  0.5545 -0.1290 -0.1202
 9757SOL    HW131278   2.543   6.238  10.708  0.4557 -0.1648 -0.4283
 9757SOL    HW231279   2.469   6.346  10.632 -2.2764 -2.1441 -0.7187
 9758SOL     OW31280   1.784   2.375  10.244  0.3215  0.1041 -0.2098
 9758SOL    HW131281   1.764   2.288  10.280  0.4406  0.1014 -0.1480
 9758SOL    HW231282   1.760   2.436  10.314  1.7328  0.0281  0.3842
 9759SOL     OW31283   8.364   0.747   3.286  0.3328 -0.1640  0.6407
 9759SOL    HW131284   8.332   0.760   3.197  1.6335  0.6246  0.2555
 9759SOL    HW231285   8.439   0.807   3.294  1.8181 -2.0071  1.4075
 9760SOL     OW31286   4.093   5.676   1.183 -0.6293 -0.0300  0.0665
 9760SOL    HW131287   4.073   5.770   1.179  0.4617  0.2813  1.0902
 9760SOL    HW231288   4.185   5.673   1.211 -1.2126 -1.4014  2.0142
 9761SOL     OW31289   8.229   8.183   8.724 -0.4942  0.4851 -0.2632
 9761SOL    HW131290   8.320   8.165   8.747  0.1183  0.2822 -2.5501
 9761SOL    HW231291   8.201   8.250   8.786  0.8902 -0.1657  1.1080
 9762SOL     OW31292   6.841   5.924   2.858  0.3359  0.1855  0.4315
 9762SOL    HW131293   6.917   5.873   2.830 -0.1029  0.7650 -1.9819
 9762SOL    HW231294   6.784   5.860   2.901 -0.1457 -1.4303 -2.4070
 9763SOL     OW31295   1.470   8.684  11.020  0.0204 -0.5070 -0.2034
 9763SOL    HW131296   1.397   8.719  11.072 -1.0838 -1.2172 -1.2281
 9763SOL    HW231297   1.526   8.640  11.084 -0.0053  0.7437  0.7106
 9764SOL     OW31298   8.102   6.755   2.447 -0.5193  0.7001 -0.3488
 9764SOL    HW131299   8.143   6.834   2.411  0.4742  0.5570  0.4048
 9764SOL    HW231300   8.020   6.786   2.485  0.3284  1.5883  0.8447
 9765SOL     OW31301   0.695   5.428   4.383  0.8867 -0.6041  0.0219
 9765SOL    HW131302   0.788   5.436   4.363  1.4956 -2.7574  1.6766
 9765SOL    HW231303   0.678   5.499   4.445  1.3632 -0.1522 -0.3476
 9766SOL     OW31304   3.662   1.099   1.790 -0.1209 -0.3628  0.3780
 9766SOL    HW131305   3.744   1.147   1.779  0.2369 -1.1592 -0.4871
 9766SOL    HW231306   3.678   1.040   1.863 -0.6398  0.9609  1.6048
 9767SOL     OW31307   2.829   9.322   1.791  0.2519  0.2692  0.1539
 9767SOL    HW131308   2.801   9.258   1.856 -4.0770  0.3244 -1.3274
 9767SOL    HW231309   2.793   9.405   1.821 -0.6863  0.5431 -1.5989
 9768SOL     OW31310   7.762   2.276   3.550  0.1854 -0.1184  0.0803
 9768SOL    HW131311   7.700   2.213   3.514 -0.1049  0.4501 -0.4272
 9768SOL    HW231312   7.846   2.229   3.551 -0.4843 -1.4028  2.1271
 9769SOL     OW31313   2.784   7.737  10.118 -0.3975  0.0811  0.1663
 9769SOL    HW131314   2.865   7.769  10.157 -0.5364  0.5818  0.0390
 9769SOL    HW231315   2.715   7.772  10.175 -0.5049 -0.8061  0.6049
 9770SOL     OW31316   7.757   4.420   8.488  0.2980 -0.5518  0.7329
 9770SOL    HW131317   7.668   4.428   8.523  0.4513 -0.5169  1.1167
 9770SOL    HW231318   7.813   4.464   8.553  0.6591 -1.0688  0.7815
 9771SOL     OW31319   8.283   7.926   4.823  0.9486  0.3221  0.3132
 9771SOL    HW131320   8.194   7.954   4.844 -0.3687 -3.0101 -0.1509
 9771SOL    HW231321   8.315   7.885   4.904  1.3037 -0.1406 -0.0516
 9772SOL     OW31322   7.024   5.744   0.159 -0.2235  0.8116  0.0863
 9772SOL    HW131323   6.942   5.739   0.207 -0.9761  1.4248 -1.0946
 9772SOL    HW231324   7.033   5.657   0.119  1.7294 -0.6507  3.2996
 9773SOL     OW31325   3.635   8.893   2.609  0.1382  0.2398 -0.4491
 9773SOL    HW131326   3.558   8.873   2.662  0.5630 -0.6722 -0.1701
 9773SOL    HW231327   3.619   8.982   2.577 -1.1052  0.0069 -0.5250
 9774SOL     OW31328   9.327  10.800   7.684 -0.5087  0.5548  0.3146
 9774SOL    HW131329   9.314  10.887   7.648 -1.4978 -0.3384 -1.5986
 9774SOL    HW231330   9.363  10.749   7.612 -1.8646 -1.1214  0.7545
 9775SOL     OW31331   2.052   0.577   4.489  0.4669 -0.2472 -0.2892
 9775SOL    HW131332   1.966   0.603   4.456 -1.2212 -1.7362  2.6271
 9775SOL    HW231333   2.052   0.482   4.485  1.9407 -0.2775 -0.1008
 9776SOL     OW31334   7.928  10.942   7.880  0.5330 -0.5212  0.2049
 9776SOL    HW131335   7.938  10.866   7.823  1.9670 -0.2980  0.1208
 9776SOL    HW231336   7.946  11.017   7.824 -3.1961  0.1495 -0.3341
 9777SOL     OW31337   3.773   6.477  10.840 -0.1463  0.1515 -0.5379
 9777SOL    HW131338   3.804   6.412  10.902 -0.3837  0.5319 -0.0139
 9777SOL    HW231339   3.853   6.521  10.809 -0.0879  0.5532  0.1645
 9778SOL     OW31340   3.233   4.749   7.781 -0.1140  0.0491  0.6003
 9778SOL    HW131341   3.213   4.842   7.772 -1.3100 -0.3865 -2.6063
 9778SOL    HW231342   3.323   4.746   7.814 -0.1431  2.3048  1.0186
 9779SOL     OW31343  10.830   6.651   9.612 -0.7572  0.3565 -0.0723
 9779SOL    HW131344  10.826   6.589   9.686 -2.0943 -0.2442 -0.6018
 9779SOL    HW231345  10.923   6.655   9.589 -0.4453 -0.2226  0.9956
 9780SOL     OW31346   1.790   5.059   5.662 -0.1895 -0.1905  0.1120
 9780SOL    HW131347   1.824   4.996   5.725  0.4629  1.3585  1.3747
 9780SOL    HW231348   1.712   5.095   5.704  0.3596  0.9934  0.1427
 9781SOL     OW31349   4.193   2.230   1.263 -0.3569  0.6445 -0.1977
 9781SOL    HW131350   4.220   2.321   1.278  0.5062  0.3450  0.1574
 9781SOL    HW231351   4.108   2.237   1.221 -0.4924  1.6135  0.2025
 9782SOL     OW31352   4.853   4.087   4.868 -0.6979  0.0192  0.2723
 9782SOL    HW131353   4.933   4.067   4.916  1.1515  3.2199 -1.1075
 9782SOL    HW231354   4.805   4.148   4.925 -0.2031  1.1183 -0.4598
 9783SOL     OW31355   0.284   3.514   5.175  0.3626  0.4697 -0.1045
 9783SOL    HW131356   0.220   3.456   5.216 -1.7923  2.4538 -0.4376
 9783SOL    HW231357   0.252   3.527   5.086  2.1245  0.3202 -0.8152
 9784SOL     OW31358   0.253   3.294   4.371 -0.4297  0.3661 -0.3092
 9784SOL    HW131359   0.323   3.261   4.315 -0.3911  0.6553 -0.4274
 9784SOL    HW231360   0.268   3.250   4.455 -1.0460 -0.8025 -0.7839
 9785SOL     OW31361   7.382  10.866   4.565 -0.2521  0.1112  0.2242
 9785SOL    HW131362   7.386  10.788   4.620 -1.3198  0.6216  1.0457
 9785SOL    HW231363   7.385  10.939   4.626 -2.9381  0.6752 -0.2313
 9786SOL     OW31364   0.393   9.857   5.817 -0.4491  0.2860  0.4814
 9786SOL    HW131365   0.343   9.921   5.867  1.9174  2.2998  0.4647
 9786SOL    HW231366   0.458   9.825   5.879  0.3903  0.2982 -0.3816
 9787SOL     OW31367   9.294   7.153   4.324 -0.0323 -0.4092  0.3210
 9787SOL    HW131368   9.357   7.158   4.396  1.6143 -0.2165 -1.0369
 9787SOL    HW231369   9.281   7.245   4.298  0.1155 -0.5205 -0.1735
 9788SOL     OW31370   2.597   5.197   9.465 -0.1645 -0.1647  0.3838
 9788SOL    HW131371   2.570   5.110   9.493  0.0604 -0.6512 -0.8715
 9788SOL    HW231372   2.545   5.216   9.387  1.5733 -0.2776 -0.8735
 9789SOL     OW31373   2.380   0.579   9.465  0.5249  0.3960  0.3898
 9789SOL    HW131374   2.311   0.514   9.480  2.0707 -1.9531 -1.7867
 9789SOL    HW231375   2.455   0.545   9.513  1.3353  0.5838 -0.7009
 9790SOL     OW31376   0.418   7.911   6.044  0.1790  0.3322  0.2713
 9790SOL    HW131377   0.406   7.816   6.042 -0.3153  0.3847 -2.0597
 9790SOL    HW231378   0.331   7.946   6.027  0.3014  1.2315  1.4185
 9791SOL     OW31379   7.220   8.048   5.557 -0.0139 -0.4052  0.2426
 9791SOL    HW131380   7.168   7.969   5.542  1.3205 -1.1251 -0.7388
 9791SOL    HW231381   7.155   8.116   5.576 -1.2529 -1.4781 -0.0197
 9792SOL     OW31382   1.917   9.347   9.056  0.1190 -0.4598  0.0844
 9792SOL    HW131383   1.994   9.294   9.074 -0.6089 -0.8211  2.4189
 9792SOL    HW231384   1.927   9.424   9.112 -1.0914 -0.3964  0.2363
 9793SOL     OW31385   0.630   6.168   6.423 -0.0860  0.3668  0.6217
 9793SOL    HW131386   0.602   6.107   6.492 -1.7357 -0.8328 -1.0093
 9793SOL    HW231387   0.606   6.124   6.342  0.9830  2.1361 -0.7129
 9794SOL     OW31388   4.332   8.751   4.971 -0.9556  0.0128  0.3140
 9794SOL    HW131389   4.336   8.739   5.065 -1.1551 -2.9609  0.0197
 9794SOL    HW231390   4.239   8.751   4.950 -0.9969  2.2384  0.1947
 9795SOL     OW31391   4.873   5.786   3.520 -0.7989  0.3017 -0.3183
 9795SOL    HW131392   4.846   5.695   3.525  3.1951 -1.2870 -2.7209
 9795SOL    HW231393   4.942   5.795   3.586  1.3562  0.3322 -2.4083
 9796SOL     OW31394   2.237   1.296   8.614  0.1052 -0.0296 -0.3795
 9796SOL    HW131395   2.313   1.351   8.633  0.5449 -0.8986  0.4839
 9796SOL    HW231396   2.245   1.278   8.520  0.8337  0.0980 -0.3534
 9797SOL     OW31397  10.495   9.285   4.616  0.2551 -0.1907  0.3440
 9797SOL    HW131398  10.460   9.213   4.669 -0.0478 -0.4157 -0.1545
 9797SOL    HW231399  10.485   9.362   4.671 -0.3538 -0.3689  0.4905
 9798SOL     OW31400   2.015   3.968   2.690 -0.1283 -0.1794 -0.1863
 9798SOL    HW131401   2.090   4.028   2.692  0.0048 -0.3559  0.8310
 9798SOL    HW231402   1.968   3.991   2.611  0.2866  0.8249 -0.1562
 9799SOL     OW31403   8.672   9.861   4.107 -0.1026  0.0879 -0.2093
 9799SOL    HW131404   8.601   9.803   4.079  0.2788 -0.3106 -0.3692
 9799SOL    HW231405   8.720   9.811   4.173 -0.1081  0.4464  0.0723
 9800SOL     OW31406  11.017   7.022   1.855  0.0230 -0.1171  0.0009
 9800SOL    HW131407  10.950   6.987   1.796 -0.2197 -1.9202  1.2532
 9800SOL    HW231408  11.061   6.944   1.889  0.7978  0.9166  1.4606
 9801SOL     OW31409   1.153   1.504   7.341 -0.5797  0.1411  0.6176
 9801SOL    HW131410   1.172   1.496   7.434  0.8858 -0.5469  0.2818
 9801SOL    HW231411   1.090   1.434   7.323 -0.7934  0.2153  1.0624
 9802SOL     OW31412   1.157   2.715   7.238  0.2908 -0.2958  0.1256
 9802SOL    HW131413   1.062   2.707   7.229  0.0492  2.1181 -0.1087
 9802SOL    HW231414   1.170   2.797   7.285  2.2996 -0.1104 -0.6395
 9803SOL     OW31415   5.265   3.412   4.988  0.1736  0.5079  0.6060
 9803SOL    HW131416   5.172   3.413   5.007  0.2265 -0.1209  0.9047
 9803SOL    HW231417   5.303   3.352   5.053  0.9522  1.6561  1.2682
 9804SOL     OW31418   4.407   5.231   3.803  0.3696 -0.2098 -0.0940
 9804SOL    HW131419   4.315   5.246   3.825  0.6672 -0.1907  1.2575
 9804SOL    HW231420   4.424   5.290   3.730 -0.0056  1.8720  1.3843
 9805SOL     OW31421   3.134   6.953   5.328 -0.4746 -0.0462 -0.4610
 9805SOL    HW131422   3.202   6.918   5.386  0.0513 -0.4413 -1.2956
 9805SOL    HW231423   3.159   7.045   5.315 -0.1339 -0.1706 -0.7051
 9806SOL     OW31424   5.206   6.830   4.945  0.3086  0.3194  0.1380
 9806SOL    HW131425   5.288   6.781   4.944 -0.0070 -0.2394  1.0157
 9806SOL    HW231426   5.139   6.767   4.920  0.1494  0.8017 -0.6853
 9807SOL     OW31427   9.287   0.873  10.815 -0.2951 -0.4401  0.2449
 9807SOL    HW131428   9.243   0.901  10.734 -2.2580 -1.7275  0.7944
 9807SOL    HW231429   9.224   0.891  10.884  0.7972 -0.6580  1.3232
 9808SOL     OW31430  10.356   1.051  10.355  0.0890  0.0900 -0.4342
 9808SOL    HW131431  10.309   1.104  10.290  0.2030  4.0903  2.3794
 9808SOL    HW231432  10.441   1.033  10.315 -0.8453 -0.1611 -2.4289
 9809SOL     OW31433   8.725   7.319   3.809 -1.2637  0.0321  0.1343
 9809SOL    HW131434   8.811   7.326   3.766 -0.0662  0.0202  2.3715
 9809SOL    HW231435   8.688   7.238   3.775 -0.4609  0.1034 -0.9802
 9810SOL     OW31436   9.520   0.806   1.855  0.8828 -0.6060  0.0852
 9810SOL    HW131437   9.460   0.879   1.873  0.8863 -0.5867  0.0233
 9810SOL    HW231438   9.466   0.743   1.807  0.4307 -1.3807  1.5485
 9811SOL     OW31439   6.413   2.812   8.491  0.0890  0.2087 -0.2281
 9811SOL    HW131440   6.495   2.856   8.472  0.4972 -0.3704  0.1567
 9811SOL    HW231441   6.346   2.880   8.481  0.6662  0.8174  0.0006
 9812SOL     OW31442   2.795   1.654   3.544 -0.4398  0.3531 -0.0687
 9812SOL    HW131443   2.840   1.589   3.490 -2.5468 -0.6336 -0.7272
 9812SOL    HW231444   2.783   1.612   3.628 -0.0972  0.6445  0.1307
 9813SOL     OW31445   8.678   8.717  10.916 -0.9451 -0.0929 -0.2556
 9813SOL    HW131446   8.656   8.798  10.869 -1.8962 -0.7476 -0.9670
 9813SOL    HW231447   8.643   8.647  10.861 -1.3634 -0.9325  1.0414
 9814SOL     OW31448   3.645   9.677   3.444 -0.0856  0.0641 -0.0494
 9814SOL    HW131449   3.729   9.701   3.485 -1.4513  2.4141  1.6031
 9814SOL    HW231450   3.626   9.750   3.385  0.1824 -1.6851 -2.4392
 9815SOL     OW31451   1.300   9.933   8.071 -0.3248  0.2585 -0.1251
 9815SOL    HW131452   1.239  10.007   8.076 -0.2088  0.3134  0.6093
 9815SOL    HW231453   1.263   9.867   8.130 -1.1356 -0.8215 -1.7912
 9816SOL     OW31454   5.359   4.535   8.683  0.1677 -0.1557 -0.2835
 9816SOL    HW131455   5.320   4.622   8.670  0.6953  0.0238 -0.7178
 9816SOL    HW231456   5.311   4.498   8.757  0.7739  1.0145  0.7456
 9817SOL     OW31457   4.724   4.207   1.552  0.0893  0.1892  0.1534
 9817SOL    HW131458   4.772   4.251   1.482 -3.7704  3.2205 -0.9691
 9817SOL    HW231459   4.769   4.234   1.633  1.9612  0.3160 -0.8797
 9818SOL     OW31460  10.022   8.037   4.294 -0.2699 -0.1503  0.6975
 9818SOL    HW131461   9.950   8.067   4.238  0.5594  0.7633  0.0863
 9818SOL    HW231462  10.081   8.112   4.300  1.4235 -1.3364 -0.1171
 9819SOL     OW31463   4.006   2.468  10.224 -0.3696 -0.4543 -0.4176
 9819SOL    HW131464   4.074   2.459  10.291  0.4463  0.2253 -1.1362
 9819SOL    HW231465   4.048   2.440  10.143 -0.6252  0.8968 -1.0434
 9820SOL     OW31466   1.019   1.438   5.106 -0.1030  0.0460 -0.2969
 9820SOL    HW131467   0.965   1.394   5.041 -0.3847 -0.2768  0.1529
 9820SOL    HW231468   1.035   1.372   5.173 -1.2336  0.8457  0.8192
 9821SOL     OW31469   8.901   0.875   3.880 -0.5044  0.2243 -0.0650
 9821SOL    HW131470   8.820   0.895   3.832 -1.8215 -0.5667  1.7436
 9821SOL    HW231471   8.884   0.791   3.923  0.6527  0.8357  1.6863
 9822SOL     OW31472   0.022   0.637   5.291 -0.0512 -0.3767 -0.4408
 9822SOL    HW131473  -0.021   0.723   5.301 -1.1253 -0.7051 -1.8921
 9822SOL    HW231474   0.115   0.658   5.283 -0.2025  0.5806  0.1183
 9823SOL     OW31475   9.963   7.568   2.996 -0.1980 -0.0318 -0.7292
 9823SOL    HW131476   9.881   7.526   2.969 -0.2161  0.9618 -2.3067
 9823SOL    HW231477   9.956   7.658   2.965  1.3101  0.2089 -0.4732
 9824SOL     OW31478   8.805   0.898   8.393  0.3058  0.4621  0.5395
 9824SOL    HW131479   8.879   0.936   8.440  0.1567  1.5444 -0.0608
 9824SOL    HW231480   8.738   0.886   8.460  0.0098  2.2076  0.6087
 9825SOL     OW31481   6.572   8.265   6.933  0.3364 -0.1266  0.4034
 9825SOL    HW131482   6.584   8.259   7.028 -0.0328  1.4048  0.5867
 9825SOL    HW231483   6.648   8.315   6.903  0.0689  0.0509  0.0053
 9826SOL     OW31484   6.913   4.106   9.042  0.5567 -0.0896 -0.0435
 9826SOL    HW131485   6.930   4.077   9.132 -2.8891 -0.3824  0.6542
 9826SOL    HW231486   6.942   4.033   8.987 -2.2453 -2.3867  1.2691
 9827SOL     OW31487   2.213   7.027   6.664 -0.4728 -0.2172  0.6432
 9827SOL    HW131488   2.270   7.084   6.612 -1.8052  0.1725 -0.4592
 9827SOL    HW231489   2.239   6.938   6.640  0.0805 -0.0496  0.6240
 9828SOL     OW31490   5.607  10.415   4.623  0.2722  0.2439  0.2995
 9828SOL    HW131491   5.564  10.405   4.538 -0.3450 -3.3230  0.9122
 9828SOL    HW231492   5.545  10.465   4.675 -0.4399  0.3309 -0.5986
 9829SOL     OW31493   4.220   3.033   1.882 -0.4206 -0.0238 -0.5849
 9829SOL    HW131494   4.154   3.094   1.915 -1.5472 -0.7258 -1.5000
 9829SOL    HW231495   4.284   3.027   1.953 -2.5459 -1.1747  1.3704
 9830SOL     OW31496   7.714   3.310   7.779 -0.4739  0.0719 -0.1327
 9830SOL    HW131497   7.698   3.288   7.871  0.8777  0.1970  0.1638
 9830SOL    HW231498   7.661   3.388   7.763  1.3013  1.6970  1.3714
 9831SOL     OW31499  11.002  10.197   1.575 -0.3386 -0.0607  0.0199
 9831SOL    HW131500  10.960  10.142   1.642 -1.2632 -0.6335 -1.0080
 9831SOL    HW231501  10.933  10.218   1.513  0.1140  1.9142  0.1217
 9832SOL     OW31502   2.959   8.912   5.816 -0.1934 -0.0573 -0.5767
 9832SOL    HW131503   2.949   8.983   5.754 -1.5425 -0.6498 -1.0716
 9832SOL    HW231504   2.893   8.929   5.884  0.2136 -0.2522 -0.1227
 9833SOL     OW31505   8.563   4.506   6.738  0.1652 -0.1030 -0.3550
 9833SOL    HW131506   8.542   4.431   6.682 -0.3213  1.5050 -2.4601
 9833SOL    HW231507   8.599   4.468   6.817 -2.0640 -2.6691 -0.4275
 9834SOL     OW31508   0.082   1.069   3.720  0.2692  0.4093 -0.2806
 9834SOL    HW131509   0.153   1.094   3.780 -0.5842  1.2586  0.4020
 9834SOL    HW231510   0.080   0.974   3.724 -0.2735  0.4688  1.6693
 9835SOL     OW31511   6.936   5.700   4.274 -0.1507  0.2053  0.5402
 9835SOL    HW131512   6.980   5.619   4.247  1.0347 -0.3743  3.7424
 9835SOL    HW231513   6.949   5.760   4.201 -2.2628 -2.7805 -2.5977
 9836SOL     OW31514   8.618   2.972   3.592  0.7282  0.2330  0.1253
 9836SOL    HW131515   8.697   3.017   3.563  1.4457 -0.8837  0.2720
 9836SOL    HW231516   8.649   2.908   3.656 -0.3975  0.3058  0.7693
 9837SOL     OW31517   7.053  11.032   3.003 -1.0003 -0.0986  0.1542
 9837SOL    HW131518   7.066  11.086   2.926 -1.6553 -0.0384  0.0833
 9837SOL    HW231519   7.105  11.075   3.071  0.4760 -0.7633 -0.5084
 9838SOL     OW31520   5.051   5.313   1.179 -0.1712 -0.1896 -0.3572
 9838SOL    HW131521   5.102   5.268   1.246  1.1124  0.2101 -1.0340
 9838SOL    HW231522   5.068   5.265   1.099  1.6102  1.6638 -1.1979
 9839SOL     OW31523   9.313   1.053   6.098  0.2600 -0.3376 -0.1394
 9839SOL    HW131524   9.354   1.053   6.011 -0.3446 -0.5006 -0.4257
 9839SOL    HW231525   9.276   0.965   6.107 -0.4983 -0.0218 -0.1022
 9840SOL     OW31526   6.137   7.305   4.822 -0.2514  0.4313  0.1266
 9840SOL    HW131527   6.214   7.297   4.879  0.5629  0.4612 -0.9358
 9840SOL    HW231528   6.173   7.324   4.736 -1.4115 -0.4856 -0.5963
 9841SOL     OW31529   7.800   2.650   0.537 -0.0161 -0.0813  0.3643
 9841SOL    HW131530   7.794   2.560   0.506  0.5841  0.2909 -0.8862
 9841SOL    HW231531   7.891   2.660   0.565  0.0310  0.2694  0.0893
 9842SOL     OW31532   5.079   9.432   1.459  0.3581 -0.2271  0.1752
 9842SOL    HW131533   5.106   9.388   1.379  3.6989 -0.2389  1.1614
 9842SOL    HW231534   5.089   9.525   1.441  0.8772 -0.2192  0.4773
 9843SOL     OW31535   4.186   6.349  10.212  0.0440  0.7293 -0.2940
 9843SOL    HW131536   4.149   6.434  10.190  0.7398  1.9257  2.6847
 9843SOL    HW231537   4.272   6.349  10.171 -0.4937  0.8400 -1.4605
 9844SOL     OW31538   6.085   1.428  10.064  0.5145  0.0240 -0.1056
 9844SOL    HW131539   6.021   1.391  10.003  2.0715 -1.3410 -0.9730
 9844SOL    HW231540   6.125   1.501  10.016  0.1119  0.4601  0.1988
 9845SOL     OW31541   3.227   1.459   3.289  0.0198 -0.0552  0.0282
 9845SOL    HW131542   3.316   1.492   3.283 -0.1676  1.0197  2.2605
 9845SOL    HW231543   3.207   1.428   3.201  2.2886  0.4351 -0.7196
 9846SOL     OW31544   6.249   5.355   3.795  0.6769 -0.6361 -0.3206
 9846SOL    HW131545   6.167   5.338   3.842  0.7561 -2.1859 -0.6860
 9846SOL    HW231546   6.268   5.447   3.812 -0.9898 -0.3198  0.0053
 9847SOL     OW31547  10.215   2.775   5.992 -0.3376  0.0649 -0.5290
 9847SOL    HW131548  10.213   2.856   6.043 -2.5109  0.1561 -0.6458
 9847SOL    HW231549  10.215   2.706   6.057  0.1391  0.1684 -0.4190
 9848SOL     OW31550   0.777   7.660   5.559  0.1371 -0.3139 -0.0132
 9848SOL    HW131551   0.776   7.640   5.466  1.6941 -0.1903 -0.0924
 9848SOL    HW231552   0.764   7.575   5.602  0.9149 -0.6168 -0.3553
 9849SOL     OW31553   5.290   0.711   5.009 -0.3069  0.2281 -0.6425
 9849SOL    HW131554   5.292   0.790   4.955 -0.0881 -0.5868 -1.8470
 9849SOL    HW231555   5.349   0.731   5.082  1.7170  0.3046 -2.2098
 9850SOL     OW31556   3.579   0.228   1.163 -0.2871  0.1985 -0.2921
 9850SOL    HW131557   3.515   0.249   1.230  0.2549  0.2527  0.2179
 9850SOL    HW231558   3.544   0.267   1.083  0.1268  2.1019  0.3975
 9851SOL     OW31559   5.939   4.836   8.407  0.7166 -0.4722 -0.1394
 9851SOL    HW131560   5.938   4.892   8.329  1.0331 -1.0911 -0.5948
 9851SOL    HW231561   5.973   4.892   8.476  1.7061 -0.3023 -0.7510
 9852SOL     OW31562   4.321   0.676   2.942 -0.2556 -0.4371  0.3168
 9852SOL    HW131563   4.406   0.702   2.907 -0.5629  1.6829  1.0552
 9852SOL    HW231564   4.277   0.634   2.867  0.3686  0.9963 -0.9014
 9853SOL     OW31565   8.574   5.048   2.893  0.3982  0.5821  0.5614
 9853SOL    HW131566   8.489   5.003   2.887  0.3090  0.7233  0.7324
 9853SOL    HW231567   8.637   4.986   2.857  0.0400  0.9965 -0.8393
 9854SOL     OW31568   0.331   4.914  10.707 -0.2583  0.1909 -0.1273
 9854SOL    HW131569   0.364   4.987  10.760  2.0549 -2.3557  2.2570
 9854SOL    HW231570   0.289   4.856  10.770 -1.8074 -0.7508 -1.9125
 9855SOL     OW31571   7.990  10.574   5.929 -0.3084  0.4278  0.3884
 9855SOL    HW131572   8.069  10.530   5.960 -1.5415 -0.9597  1.7061
 9855SOL    HW231573   8.022  10.642   5.870  1.7804 -1.0730 -0.3080
 9856SOL     OW31574   2.493   8.631   3.100 -0.1828 -0.2962 -0.0708
 9856SOL    HW131575   2.434   8.687   3.049 -0.0325  1.7767  1.8865
 9856SOL    HW231576   2.439   8.597   3.171 -0.5032 -3.5135 -1.6670
 9857SOL     OW31577   0.364   5.049  10.419  0.5674  0.0083  0.1127
 9857SOL    HW131578   0.370   5.139  10.451  0.2820 -0.1556  0.6352
 9857SOL    HW231579   0.377   4.995  10.496 -0.0744 -0.3931 -0.0548
 9858SOL     OW31580   1.816   3.982   6.201  0.5857  0.0122 -0.7512
 9858SOL    HW131581   1.887   3.931   6.241 -1.5279 -1.5964  1.1831
 9858SOL    HW231582   1.799   4.051   6.265  1.7418  1.7504 -2.2073
 9859SOL     OW31583   4.388   6.666   3.429  0.0969  0.4136 -0.0853
 9859SOL    HW131584   4.460   6.724   3.405  0.4663 -0.5231 -1.3874
 9859SOL    HW231585   4.365   6.691   3.518  0.9474  1.8198 -0.2390
 9860SOL     OW31586   9.580   7.309   0.233  0.1589 -0.0065 -0.2029
 9860SOL    HW131587   9.596   7.257   0.154 -0.6338 -1.8472  0.7611
 9860SOL    HW231588   9.663   7.307   0.280 -0.3216 -2.0435  0.6718
 9861SOL     OW31589   7.405   4.064  10.410  0.0839  0.3971  0.4668
 9861SOL    HW131590   7.326   4.018  10.381 -0.3527  1.6071 -0.3069
 9861SOL    HW231591   7.417   4.134  10.346  0.1625  2.0023  2.1891
 9862SOL     OW31592   1.787   6.200   7.726 -0.5707 -0.0642  0.4523
 9862SOL    HW131593   1.798   6.219   7.633 -2.2663  1.0555  0.4361
 9862SOL    HW231594   1.699   6.232   7.747 -0.7130 -1.4055  2.1633
 9863SOL     OW31595   8.401   0.472   6.454 -0.3376 -0.1840 -0.2794
 9863SOL    HW131596   8.425   0.390   6.409  0.0513  0.0741 -0.5498
 9863SOL    HW231597   8.440   0.463   6.541  0.9542  0.3167 -0.7792
 9864SOL     OW31598   8.421   1.169   5.996 -0.0205 -0.2149  0.3124
 9864SOL    HW131599   8.459   1.257   5.993 -0.8528  0.2384  1.9135
 9864SOL    HW231600   8.390   1.153   5.907  1.4143  0.5090 -0.3516
 9865SOL     OW31601   6.883   7.904   3.985  0.8886 -0.2703  0.5298
 9865SOL    HW131602   6.859   7.814   3.965  2.0555 -0.9357  1.8724
 9865SOL    HW231603   6.814   7.957   3.945 -0.2271 -1.7911  0.3288
 9866SOL     OW31604   0.600   7.255   3.430 -0.4181 -0.4688  0.0357
 9866SOL    HW131605   0.631   7.193   3.365 -1.7789 -2.9356  1.6049
 9866SOL    HW231606   0.647   7.336   3.409  3.2846 -2.5564 -0.7068
 9867SOL     OW31607   7.783   9.514   1.418  0.5217 -0.2606 -0.0371
 9867SOL    HW131608   7.689   9.494   1.408  0.0723  2.0852 -1.0309
 9867SOL    HW231609   7.793   9.534   1.511  0.0020 -0.3010  0.0326
 9868SOL     OW31610   5.399   7.068  10.834  0.1999  0.1285 -0.0298
 9868SOL    HW131611   5.338   7.032  10.769 -0.3356 -0.6814  0.8957
 9868SOL    HW231612   5.420   6.994  10.891  0.6407  0.8290  0.7439
 9869SOL     OW31613   2.838   2.500   4.477  0.5600 -0.0673 -0.0811
 9869SOL    HW131614   2.882   2.415   4.477  0.4702 -0.1148 -0.7098
 9869SOL    HW231615   2.842   2.529   4.569  1.9696 -0.0376 -0.1233
 9870SOL     OW31616   1.916   8.001   5.494 -0.0920 -0.0768  0.1623
 9870SOL    HW131617   1.997   8.016   5.543 -0.9980  1.5261  1.2354
 9870SOL    HW231618   1.942   8.017   5.402  1.1203 -1.0274  0.3090
 9871SOL     OW31619   6.246   9.323   3.266  0.8017  0.2513  0.7035
 9871SOL    HW131620   6.197   9.274   3.200 -0.6764  0.8513  1.3195
 9871SOL    HW231621   6.213   9.291   3.350  1.2756  0.8506  1.1296
 9872SOL     OW31622   2.390   8.659   6.822 -0.4215 -0.1377 -0.0684
 9872SOL    HW131623   2.345   8.601   6.883 -0.3338  1.0647  1.1950
 9872SOL    HW231624   2.323   8.683   6.757 -1.4239  0.9633  1.3052
 9873SOL     OW31625   8.038   9.517   9.012 -0.2562 -0.8331 -0.3899
 9873SOL    HW131626   8.093   9.588   9.044  1.0025 -0.9451 -2.1430
 9873SOL    HW231627   8.088   9.437   9.028 -0.8428 -1.1476 -0.0922
 9874SOL     OW31628   6.027   2.747   0.872 -0.0261  0.3664  0.2007
 9874SOL    HW131629   6.110   2.793   0.881  0.7334 -0.3355 -2.1736
 9874SOL    HW231630   6.052   2.654   0.868 -0.4135  0.2485 -3.5088
 9875SOL     OW31631   0.575   2.941   9.309 -0.0774  0.3293 -0.1815
 9875SOL    HW131632   0.638   2.887   9.356 -0.1350  0.7569  0.3923
 9875SOL    HW231633   0.493   2.892   9.314  0.0705  0.0505 -0.4320
 9876SOL     OW31634   6.007   2.858   9.058 -0.8093  0.3449  0.4004
 9876SOL    HW131635   6.045   2.805   8.988 -0.8247 -0.3054  0.8811
 9876SOL    HW231636   6.082   2.894   9.105 -0.7395  2.6345 -1.2765
 9877SOL     OW31637   6.989   8.194   5.672 -0.1541 -0.7151 -0.1196
 9877SOL    HW131638   7.020   8.238   5.592  0.8744 -0.2388  0.5161
 9877SOL    HW231639   6.905   8.235   5.691 -0.5003 -0.9610 -1.0506
 9878SOL     OW31640   6.395   2.958   3.388  0.0269  0.0161  0.5575
 9878SOL    HW131641   6.386   2.866   3.413  0.3646 -0.0226  0.5473
 9878SOL    HW231642   6.309   2.996   3.404 -0.7793 -0.7892 -1.5141
 9879SOL     OW31643   7.180   8.112   3.776 -0.0018  0.1738  0.1389
 9879SOL    HW131644   7.093   8.143   3.750 -0.3523 -1.3486 -0.6562
 9879SOL    HW231645   7.171   8.017   3.781  1.7609 -0.0744 -0.5252
 9880SOL     OW31646   8.855   8.575   2.206  0.2420  0.0833 -0.4663
 9880SOL    HW131647   8.922   8.531   2.153 -0.3604  0.1666 -1.3131
 9880SOL    HW231648   8.868   8.540   2.294  1.0374 -0.3173 -0.7277
 9881SOL     OW31649   0.736   6.744  10.633  0.3027 -0.2000  0.2203
 9881SOL    HW131650   0.729   6.650  10.645  0.5847 -0.5043 -1.7353
 9881SOL    HW231651   0.829   6.760  10.615 -0.0122  0.1855 -1.2211
 9882SOL     OW31652   5.284   2.969   3.010 -0.2380 -0.9663 -0.6303
 9882SOL    HW131653   5.303   2.900   3.073 -0.3511 -0.2262  0.2273
 9882SOL    HW231654   5.369   2.993   2.973  0.3572  0.9383  1.7268
 9883SOL     OW31655   9.086   0.631   6.602  0.3963  0.1979 -0.9459
 9883SOL    HW131656   9.117   0.624   6.692 -0.5867 -0.1291 -0.6154
 9883SOL    HW231657   9.039   0.549   6.586  1.4308 -0.1869 -2.1191
 9884SOL     OW31658   1.746   9.423   0.647  0.0029 -0.2467 -0.2169
 9884SOL    HW131659   1.786   9.414   0.560  2.4141  0.3200  0.7314
 9884SOL    HW231660   1.776   9.345   0.694  2.3252  1.4261  1.3042
 9885SOL     OW31661   8.686   3.511   2.615  0.2967 -0.1746  0.3051
 9885SOL    HW131662   8.688   3.600   2.582  0.8956  0.2051  1.3236
 9885SOL    HW231663   8.759   3.506   2.676 -0.3159 -1.0654  0.9951
 9886SOL     OW31664   4.809   7.030   0.432  0.4294  0.4592  0.0518
 9886SOL    HW131665   4.736   7.075   0.391 -0.1543  0.7951  1.3835
 9886SOL    HW231666   4.877   7.096   0.440  0.6693  0.3061 -0.6358
 9887SOL     OW31667   9.528   5.930   9.533  0.1089  0.3054 -0.3064
 9887SOL    HW131668   9.511   6.022   9.512  0.9325  0.6337  0.4069
 9887SOL    HW231669   9.586   5.900   9.462 -1.6119 -0.2081 -1.5516
 9888SOL     OW31670   7.206  10.859   1.712 -0.1754 -0.5334  0.2475
 9888SOL    HW131671   7.213  10.907   1.795  1.0914 -1.1592  0.5230
 9888SOL    HW231672   7.264  10.905   1.652  0.4063 -1.2167  0.2721
 9889SOL     OW31673   3.873   8.451   8.816  0.0545 -0.5032  0.9021
 9889SOL    HW131674   3.865   8.450   8.912  0.8443  0.6129  1.0045
 9889SOL    HW231675   3.947   8.509   8.800 -0.5724 -0.0504 -0.4271
 9890SOL     OW31676   1.023   1.476   4.331 -0.1910 -0.3272  0.4872
 9890SOL    HW131677   0.931   1.489   4.306 -0.2621  0.4987  1.1057
 9890SOL    HW231678   1.033   1.381   4.338 -1.3408 -0.3951  1.6069
 9891SOL     OW31679   2.666   6.380   6.222 -0.2038  0.1959  0.2687
 9891SOL    HW131680   2.582   6.361   6.264 -0.8464  1.8835 -0.1620
 9891SOL    HW231681   2.645   6.388   6.129  0.5854 -0.1140  0.0530
 9892SOL     OW31682   4.523   0.087   9.347  0.0351 -0.7837 -0.1434
 9892SOL    HW131683   4.459   0.016   9.353 -0.2313 -0.6336 -1.0223
 9892SOL    HW231684   4.523   0.126   9.434 -0.6903 -1.1163  0.0195
 9893SOL     OW31685   2.123   5.293   7.507 -0.3828 -0.1824  0.1440
 9893SOL    HW131686   2.049   5.309   7.449  0.4908 -1.5506 -1.4422
 9893SOL    HW231687   2.083   5.280   7.594 -2.2953 -3.1410 -1.0174
 9894SOL     OW31688   5.312   0.427   7.950 -0.2072 -0.0593  0.7293
 9894SOL    HW131689   5.303   0.346   7.901 -0.0786  0.1697  0.3190
 9894SOL    HW231690   5.313   0.400   8.042  0.2421 -0.5565  0.5804
 9895SOL     OW31691   5.515   6.350   1.665  0.1491 -0.0327 -0.5251
 9895SOL    HW131692   5.521   6.261   1.630 -0.6869 -1.0200  1.6604
 9895SOL    HW231693   5.552   6.343   1.753  0.1080  1.8231 -0.3291
 9896SOL     OW31694   1.224   5.412   7.538  0.8976 -0.2311  0.2641
 9896SOL    HW131695   1.177   5.377   7.613  0.7689 -0.9702 -0.1536
 9896SOL    HW231696   1.230   5.506   7.555  1.8261 -0.5225  1.7337
 9897SOL     OW31697   4.655   5.694   2.260 -0.3444 -0.7235  0.5082
 9897SOL    HW131698   4.710   5.622   2.291 -0.0547 -1.1166 -0.8955
 9897SOL    HW231699   4.634   5.743   2.340 -0.2393 -2.1356  1.4304
 9898SOL     OW31700   7.582   8.395   5.409  0.1224 -0.0554 -0.2264
 9898SOL    HW131701   7.675   8.384   5.390  0.2742 -0.0053  0.4645
 9898SOL    HW231702   7.550   8.306   5.425  0.1451 -0.0342 -0.0570
 9899SOL     OW31703   3.746   6.709   4.349  0.0363  0.2472 -0.5913
 9899SOL    HW131704   3.743   6.796   4.390 -0.4910 -0.6713  1.4721
 9899SOL    HW231705   3.667   6.706   4.295  1.1046  1.7541 -2.3246
 9900SOL     OW31706   4.278   3.109   1.168  0.2957 -0.1148  0.0053
 9900SOL    HW131707   4.300   3.053   1.242 -0.4349 -0.0612  0.2624
 9900SOL    HW231708   4.183   3.118   1.170  0.4529  2.0149  0.6396
 9901SOL     OW31709   2.982   2.056   9.329 -0.1054  0.2257  0.5092
 9901SOL    HW131710   2.969   1.965   9.356 -2.3444  0.5698  0.7926
 9901SOL    HW231711   3.022   2.050   9.243 -2.9912 -1.1646 -0.8785
 9902SOL     OW31712   0.082   8.218   8.125  0.5242  0.4951 -0.4603
 9902SOL    HW131713   0.169   8.195   8.156  0.5579  2.0811  0.7450
 9902SOL    HW231714   0.025   8.208   8.201 -0.7000 -1.9368 -1.5702
 9903SOL     OW31715   3.997   2.611   0.749  0.0546  0.1493 -0.3793
 9903SOL    HW131716   3.983   2.517   0.738  0.0962  0.3369 -2.4707
 9903SOL    HW231717   3.922   2.641   0.800 -0.1251 -0.9567  0.0297
 9904SOL     OW31718   3.008   7.269   7.140  0.4503 -0.5398 -0.3440
 9904SOL    HW131719   3.089   7.220   7.144  0.0145 -1.4521 -1.8286
 9904SOL    HW231720   3.035   7.361   7.148  1.6587 -0.8089 -1.0542
 9905SOL     OW31721   8.554   4.882   4.667 -0.1182  0.1164  0.5031
 9905SOL    HW131722   8.571   4.794   4.700 -1.6046 -0.5688 -0.4508
 9905SOL    HW231723   8.469   4.875   4.623 -1.0570  2.4010  1.7761
 9906SOL     OW31724   8.835   6.370   7.679 -0.3768  0.0849  0.2125
 9906SOL    HW131725   8.757   6.316   7.691 -0.7000  0.1318 -1.5467
 9906SOL    HW231726   8.802   6.459   7.669 -0.1511  0.0533 -0.9569
 9907SOL     OW31727   1.762   7.535   0.785  0.5215  0.1523  0.0762
 9907SOL    HW131728   1.681   7.565   0.827  0.6370 -0.3157  0.6452
 9907SOL    HW231729   1.770   7.443   0.811  1.0695  0.1083 -0.2354
 9908SOL     OW31730   4.291   2.479  10.283 -0.2258 -0.1581  0.1311
 9908SOL    HW131731   4.352   2.552  10.294 -0.0795 -0.4646  1.5100
 9908SOL    HW231732   4.337   2.419  10.223 -0.3899  0.8892 -1.1017
 9909SOL     OW31733   5.013   7.358   4.308  0.2398  0.0356 -0.3161
 9909SOL    HW131734   4.960   7.344   4.230  2.3787 -2.3260 -1.5045
 9909SOL    HW231735   5.011   7.274   4.354 -0.6554  1.2535  2.0740
 9910SOL     OW31736   7.150   2.806  10.787  0.2032 -0.5710 -0.0591
 9910SOL    HW131737   7.104   2.839  10.864  0.1250 -2.3115  0.7013
 9910SOL    HW231738   7.232   2.855  10.785  0.5214 -0.9550  1.5822
 9911SOL     OW31739   4.292   0.026   0.191 -0.2987 -0.8769 -0.2970
 9911SOL    HW131740   4.313   0.108   0.146 -4.1511 -0.3665 -1.5758
 9911SOL    HW231741   4.307   0.045   0.283  0.8491  0.5331 -0.7226
 9912SOL     OW31742   0.719   0.305   4.492  0.5825  0.4276  0.5178
 9912SOL    HW131743   0.761   0.349   4.566  0.2000  1.1959  0.2910
 9912SOL    HW231744   0.627   0.300   4.516  0.5717  0.0341  0.3991
 9913SOL     OW31745   7.967   7.309   3.902  0.4265  0.2041  0.3000
 9913SOL    HW131746   7.912   7.384   3.878  2.2234  1.3835 -0.3120
 9913SOL    HW231747   7.992   7.325   3.993 -1.3836 -1.1210  1.1063
 9914SOL     OW31748   5.275   6.754  10.492  0.0654  0.0908  0.7413
 9914SOL    HW131749   5.222   6.689  10.448  0.9322 -0.0035 -0.1889
 9914SOL    HW231750   5.266   6.833  10.439  0.5821  0.1636  0.7504
 9915SOL     OW31751   1.548   9.033   1.064 -0.0602  0.2229  0.4247
 9915SOL    HW131752   1.465   9.070   1.094 -1.2037 -1.1956 -0.8160
 9915SOL    HW231753   1.549   9.048   0.970  1.4331  0.7911  0.4979
 9916SOL     OW31754   5.314   0.197   2.475  0.0067  0.1395  0.0826
 9916SOL    HW131755   5.383   0.134   2.498  0.5550  0.5098 -0.5073
 9916SOL    HW231756   5.353   0.282   2.493 -0.6835  0.3156  0.7367
 9917SOL     OW31757   4.565   0.997   5.758  0.1870 -0.2711  0.3055
 9917SOL    HW131758   4.569   1.092   5.744  0.7312 -0.5642 -1.9444
 9917SOL    HW231759   4.499   0.986   5.826  0.3998  1.7433  0.9131
 9918SOL     OW31760   8.528   5.516   7.456 -0.0350  0.1831  0.4706
 9918SOL    HW131761   8.502   5.424   7.461  0.5636  0.0568  1.7560
 9918SOL    HW231762   8.614   5.515   7.415 -0.1596  0.2033  0.2072
 9919SOL     OW31763  10.497   7.381   1.330  0.1853 -0.2547 -0.2817
 9919SOL    HW131764  10.464   7.380   1.240 -0.6793  0.2894  0.0087
 9919SOL    HW231765  10.429   7.336   1.380 -0.0027  0.6307  0.2899
 9920SOL     OW31766   8.660   8.027   0.650 -0.1442 -0.1209  0.1078
 9920SOL    HW131767   8.658   7.936   0.620  0.9728  0.2285 -1.1319
 9920SOL    HW231768   8.590   8.070   0.601 -0.6026 -0.2812  0.6151
 9921SOL     OW31769   4.346   1.187   3.810  0.3434 -0.6151 -0.4293
 9921SOL    HW131770   4.423   1.181   3.866 -0.9870  3.3804  2.2676
 9921SOL    HW231771   4.372   1.246   3.739 -0.0348  0.4327  0.2761
 9922SOL     OW31772   6.018   0.359   1.815 -0.0700  0.0064 -0.2241
 9922SOL    HW131773   5.945   0.323   1.763  0.0159  0.3054 -0.5587
 9922SOL    HW231774   6.003   0.327   1.903  0.7779 -2.0316 -0.7684
 9923SOL     OW31775   8.790   3.209   2.618  0.4516  0.1447  0.4930
 9923SOL    HW131776   8.865   3.150   2.616  1.1783  1.0220  0.9543
 9923SOL    HW231777   8.765   3.219   2.526  1.3048  0.3254  0.2674
 9924SOL     OW31778   3.335   0.876   9.617  0.0412 -0.5879  0.0472
 9924SOL    HW131779   3.314   0.947   9.677 -1.0968 -0.1464 -0.8405
 9924SOL    HW231780   3.417   0.903   9.576 -0.3220  0.1613 -0.1990
 9925SOL     OW31781   1.797  10.286   2.362  0.3775  0.4996 -0.3403
 9925SOL    HW131782   1.723  10.346   2.370 -0.2463 -0.2654 -0.2617
 9925SOL    HW231783   1.757  10.199   2.359  1.2585  0.0953 -0.5987
 9926SOL     OW31784   6.126   9.261   1.916 -0.3313  0.1610  0.8293
 9926SOL    HW131785   6.188   9.333   1.920 -2.3204  2.0581 -0.3271
 9926SOL    HW231786   6.180   9.182   1.927  2.0116  1.7559  1.4614
 9927SOL     OW31787   1.347   2.623  10.729 -0.3202 -0.2249  0.0352
 9927SOL    HW131788   1.273   2.590  10.780 -0.1229 -2.4243 -1.0004
 9927SOL    HW231789   1.307   2.676  10.660 -0.9231 -1.0513 -0.2668
 9928SOL     OW31790   8.463   5.563   3.523 -0.3374  0.2303 -0.9438
 9928SOL    HW131791   8.520   5.638   3.543  0.0158  0.2756 -2.0535
 9928SOL    HW231792   8.401   5.561   3.596  0.3459  0.9102 -0.3169
 9929SOL     OW31793   1.963   6.620   5.899  0.1057 -0.1281 -0.2318
 9929SOL    HW131794   1.971   6.525   5.906 -1.5762 -0.1748  1.9552
 9929SOL    HW231795   2.032   6.654   5.957 -0.6123 -0.0921  0.6250
 9930SOL     OW31796   8.528   1.179   7.612  0.2424  0.2744 -0.8008
 9930SOL    HW131797   8.584   1.256   7.624  0.0289  0.3409 -0.1683
 9930SOL    HW231798   8.442   1.207   7.644 -1.0397  1.2030 -4.6039
 9931SOL     OW31799   8.494   9.462   3.451  0.2351 -0.1244 -0.3916
 9931SOL    HW131800   8.512   9.552   3.480  0.1689  0.3732 -1.8201
 9931SOL    HW231801   8.548   9.407   3.508  0.1248  0.7999  0.6371
 9932SOL     OW31802   0.547   0.096   4.617 -0.0872  0.4340  0.6713
 9932SOL    HW131803   0.494   0.088   4.696 -0.6727 -0.0945  0.2290
 9932SOL    HW231804   0.632   0.061   4.642 -0.3727 -0.0570  0.9690
 9933SOL     OW31805   8.161   7.484  10.252 -0.1749 -0.1968  0.9433
 9933SOL    HW131806   8.242   7.522  10.286  0.4078 -1.5561  1.1656
 9933SOL    HW231807   8.119   7.555  10.203  1.1183  0.5527  0.8787
 9934SOL     OW31808  10.773   7.585   2.906  0.6440  0.1745  0.4884
 9934SOL    HW131809  10.815   7.668   2.931  0.6571  0.7783 -1.3748
 9934SOL    HW231810  10.681   7.609   2.892  1.0400  0.4510 -2.2299
 9935SOL     OW31811   3.270   9.371   6.586  0.6413  0.1650 -0.1500
 9935SOL    HW131812   3.199   9.408   6.534 -0.3929 -0.9821  0.4119
 9935SOL    HW231813   3.343   9.432   6.573 -0.0963  0.7931 -1.5988
 9936SOL     OW31814   4.647   0.654   4.931  0.1428  0.4057  0.3300
 9936SOL    HW131815   4.717   0.690   4.987  0.3998  0.1569  0.1718
 9936SOL    HW231816   4.685   0.652   4.844  1.6002 -3.8102  0.8199
 9937SOL     OW31817   2.566   7.969   0.682 -0.4020 -0.1787  0.0040
 9937SOL    HW131818   2.513   7.901   0.638  0.3586 -0.1550 -0.9752
 9937SOL    HW231819   2.522   8.051   0.659 -0.3625 -0.2139 -0.2021
 9938SOL     OW31820  10.805   3.923   3.391  0.1842 -0.2612  0.1534
 9938SOL    HW131821  10.814   3.842   3.442  1.7261  0.3656  0.9382
 9938SOL    HW231822  10.829   3.897   3.302 -1.6341 -1.1590 -0.1233
 9939SOL     OW31823   6.778   9.444   0.973 -0.1102 -0.5481 -0.1915
 9939SOL    HW131824   6.728   9.521   0.946  0.3380 -0.0847  0.2621
 9939SOL    HW231825   6.788   9.392   0.893  0.1154  0.1744 -0.6449
 9940SOL     OW31826   7.192   0.629   0.223  0.1267 -0.2651 -0.4560
 9940SOL    HW131827   7.199   0.682   0.144  0.7877 -0.5792 -0.6092
 9940SOL    HW231828   7.107   0.586   0.215 -0.8780  1.4832  0.1286
 9941SOL     OW31829   1.475   7.668   1.285  0.1771  0.8676  0.6191
 9941SOL    HW131830   1.461   7.598   1.222  1.8466 -1.4284  2.5871
 9941SOL    HW231831   1.402   7.659   1.346 -0.2518  1.6353  0.2192
 9942SOL     OW31832   2.037   0.664   7.017  0.1067  0.0929 -0.3300
 9942SOL    HW131833   2.075   0.600   6.956  1.1841  0.8110 -0.4470
 9942SOL    HW231834   2.046   0.624   7.103  3.4489  1.2028 -0.0381
 9943SOL     OW31835   8.919  10.199   4.730  0.4569  0.3868 -0.3421
 9943SOL    HW131836   9.007  10.173   4.701  0.1334  0.0848 -1.0825
 9943SOL    HW231837   8.898  10.275   4.675  0.7283  1.2194  0.6684
 9944SOL     OW31838  10.107   7.225   9.475  0.3308 -0.4741 -0.3106
 9944SOL    HW131839  10.095   7.188   9.563 -1.3698 -0.3937 -0.4772
 9944SOL    HW231840  10.057   7.167   9.418 -0.9357  1.0419 -0.8221
 9945SOL     OW31841   6.258   1.915   0.565  0.0389  0.0233 -0.0012
 9945SOL    HW131842   6.282   1.938   0.655  2.2775  2.7120 -1.1649
 9945SOL    HW231843   6.305   1.833   0.549 -1.3248 -1.1451  1.5602
 9946SOL     OW31844   8.871   1.124   6.454  0.1640 -0.5020  0.3213
 9946SOL    HW131845   8.903   1.088   6.536  0.6109  1.1878  0.9220
 9946SOL    HW231846   8.921   1.079   6.386  0.4895 -1.2029  1.0179
 9947SOL     OW31847   7.988   5.757   0.337  0.0514  0.1296 -0.0714
 9947SOL    HW131848   8.028   5.680   0.378  1.4167 -0.0277 -1.5712
 9947SOL    HW231849   8.060   5.820   0.328 -1.2215  1.9879  1.9064
 9948SOL     OW31850   1.503   6.144  10.866 -0.5924  0.2314 -0.5554
 9948SOL    HW131851   1.580   6.145  10.923 -0.5494 -0.4177 -0.5917
 9948SOL    HW231852   1.442   6.085  10.910 -1.2212  1.0362 -0.3352
 9949SOL     OW31853   6.190   7.906  10.954 -0.1406 -0.4649 -0.4224
 9949SOL    HW131854   6.261   7.968  10.968 -1.8297  1.4200  0.2033
 9949SOL    HW231855   6.177   7.907  10.859 -0.5452  0.6203 -0.3663
 9950SOL     OW31856   5.590   2.532   0.570 -0.3136  0.4315 -0.4116
 9950SOL    HW131857   5.615   2.554   0.659  3.0451  0.7764 -1.2978
 9950SOL    HW231858   5.635   2.597   0.515 -2.1342  0.1412 -2.3940
 9951SOL     OW31859   0.974  10.675   8.277  0.0002 -0.2359 -0.2796
 9951SOL    HW131860   1.027  10.698   8.353  0.2930 -0.3376 -0.4545
 9951SOL    HW231861   1.036  10.638   8.214  0.0978  1.6698 -1.3704
 9952SOL     OW31862   7.420  10.874   2.797  0.3064  0.4251 -0.7769
 9952SOL    HW131863   7.487  10.898   2.861  1.3183 -0.8076 -1.3241
 9952SOL    HW231864   7.395  10.785   2.820 -0.3565  0.4816 -1.2426
 9953SOL     OW31865   6.147   6.783   7.203  0.3875 -0.5884 -0.0362
 9953SOL    HW131866   6.095   6.862   7.218 -0.8898 -1.3703 -0.2076
 9953SOL    HW231867   6.129   6.727   7.279 -0.7994 -1.7791 -1.1398
 9954SOL     OW31868   7.900   8.395   6.293 -0.0351  0.0027 -0.3188
 9954SOL    HW131869   7.889   8.476   6.343 -2.4637 -1.6659  2.1991
 9954SOL    HW231870   7.981   8.358   6.326  0.0148  0.4327  0.0558
 9955SOL     OW31871   2.760   1.646   9.902 -0.0944 -0.4840  0.0398
 9955SOL    HW131872   2.770   1.619   9.994  1.7167 -1.7658 -0.4782
 9955SOL    HW231873   2.849   1.648   9.868 -0.2934  3.8643 -0.7292
 9956SOL     OW31874   9.577   8.992   3.265 -0.2856  0.2702  0.3871
 9956SOL    HW131875   9.548   8.916   3.314  0.2721 -0.1983 -0.0011
 9956SOL    HW231876   9.660   9.018   3.306  0.2457 -0.1950 -0.3619
 9957SOL     OW31877   2.132   3.244   2.857 -0.5991  0.0807  0.2820
 9957SOL    HW131878   2.204   3.299   2.887  0.8012 -1.4705 -0.0441
 9957SOL    HW231879   2.130   3.172   2.920  0.5275 -1.7487 -1.6299
 9958SOL     OW31880   3.728  10.019   9.688  0.1026 -0.7555 -0.0657
 9958SOL    HW131881   3.664  10.031   9.757  0.1133 -1.2222  0.0282
 9958SOL    HW231882   3.697   9.942   9.639  0.6811 -1.1007  0.0937
 9959SOL     OW31883  10.027   4.847   3.549  0.2591  0.0134 -0.0419
 9959SOL    HW131884   9.997   4.818   3.635 -0.5130  0.0468 -0.2837
 9959SOL    HW231885   9.946   4.875   3.505  0.5432 -0.7019 -1.0462
 9960SOL     OW31886   4.806   6.919   2.803 -0.4650 -0.4666  0.4643
 9960SOL    HW131887   4.882   6.976   2.802 -1.1350  0.5192 -1.9971
 9960SOL    HW231888   4.734   6.974   2.833 -0.3880 -1.1846  2.0462
 9961SOL     OW31889   4.639   0.007   5.823 -0.1527 -0.1457 -0.5295
 9961SOL    HW131890   4.640   0.073   5.893 -0.1684 -0.9021  0.1979
 9961SOL    HW231891   4.586   0.047   5.754  2.1728  1.7883 -1.3182
 9962SOL     OW31892   9.121   0.580  10.663  0.0208  0.1697 -0.1171
 9962SOL    HW131893   9.121   0.662  10.613 -1.1683  0.6899  0.7011
 9962SOL    HW231894   9.050   0.590  10.726  0.3115 -1.2192  0.4668
 9963SOL     OW31895   6.718  10.726   5.707 -0.2576  0.2992  0.5188
 9963SOL    HW131896   6.754  10.642   5.680 -0.2870 -0.2418  2.0789
 9963SOL    HW231897   6.734  10.784   5.632  2.5078 -0.2960  0.5442
 9964SOL     OW31898   1.442   6.373   2.949  0.0831  0.4638  0.1571
 9964SOL    HW131899   1.507   6.317   2.991 -1.7930 -1.2493  0.9469
 9964SOL    HW231900   1.461   6.365   2.855  0.2586 -1.0606  0.2929
 9965SOL     OW31901   7.610   5.508   7.494  0.2021  0.3413  0.4458
 9965SOL    HW131902   7.624   5.600   7.516 -0.8108  0.6421 -0.1047
 9965SOL    HW231903   7.596   5.464   7.577  1.3619  0.5433  0.7735
 9966SOL     OW31904   0.180  10.516   9.515 -0.0749 -0.0347  0.1030
 9966SOL    HW131905   0.105  10.562   9.553 -0.7734 -1.2271  0.2362
 9966SOL    HW231906   0.144  10.474   9.437  0.8388  0.6425 -0.6957
 9967SOL     OW31907   3.135   6.124   8.442  0.3030 -0.1652 -0.0792
 9967SOL    HW131908   3.074   6.124   8.369 -0.3094 -0.9074  0.4224
 9967SOL    HW231909   3.207   6.181   8.413 -0.2488  0.0949 -0.9775
 9968SOL     OW31910   6.454   0.915   5.912  0.7022 -0.6590 -0.1015
 9968SOL    HW131911   6.496   0.840   5.953 -0.6309 -1.3302  0.0898
 9968SOL    HW231912   6.363   0.888   5.899  0.4358  0.5516 -0.9677
 9969SOL     OW31913  10.135   1.016  11.025 -0.2266 -0.0564  0.5332
 9969SOL    HW131914  10.147   1.098  10.976  0.9043 -0.0343  0.8327
 9969SOL    HW231915  10.041   1.013  11.043 -0.4262  0.7005 -0.3025
 9970SOL     OW31916   3.616   1.702  10.358 -0.5431  0.2519  0.3624
 9970SOL    HW131917   3.588   1.750  10.280  1.8611  1.7457  0.3108
 9970SOL    HW231918   3.654   1.769  10.415 -0.4398 -1.1040  1.9596
 9971SOL     OW31919   6.738   0.974  10.605 -0.5069  0.1396 -0.3240
 9971SOL    HW131920   6.679   1.048  10.597  1.3412  1.7985  0.5276
 9971SOL    HW231921   6.826   1.012  10.597  0.5029 -2.2875 -2.2214
 9972SOL     OW31922   7.707   0.069   1.407  0.1830  0.3082 -0.5885
 9972SOL    HW131923   7.797   0.051   1.432 -0.0685  0.2889  0.3388
 9972SOL    HW231924   7.702   0.165   1.400  0.3925  0.2845 -1.1389
 9973SOL     OW31925   4.137   3.523  10.281  0.2836  0.5292  0.5852
 9973SOL    HW131926   4.116   3.506  10.372  0.0945  0.8591  0.6045
 9973SOL    HW231927   4.135   3.618  10.273 -1.8644  0.4759 -0.2616
 9974SOL     OW31928   8.024   4.452   2.160 -0.4131  0.6728  0.3485
 9974SOL    HW131929   7.972   4.457   2.080  2.9206  1.1064 -2.0247
 9974SOL    HW231930   8.025   4.360   2.183  0.4729  0.1464 -1.5978
 9975SOL     OW31931   5.556  10.102   8.738  0.1726 -0.2084  0.0515
 9975SOL    HW131932   5.610  10.088   8.661  0.4981  0.4511  0.1476
 9975SOL    HW231933   5.566  10.022   8.790  4.1156  1.1965  1.8829
 9976SOL     OW31934   9.195   1.976   0.442  0.6769  0.4791 -0.2649
 9976SOL    HW131935   9.287   1.961   0.464  0.5724 -0.5866 -0.4781
 9976SOL    HW231936   9.176   2.064   0.474  1.1782 -0.0894  1.7162
 9977SOL     OW31937   8.030   6.819   7.566  0.4758 -0.7465 -0.3319
 9977SOL    HW131938   8.070   6.875   7.633 -1.0742 -0.1674  0.1641
 9977SOL    HW231939   8.079   6.737   7.571  0.7123 -0.5522  1.1963
 9978SOL     OW31940   4.630   0.251   4.779 -0.1736  0.2769 -0.5858
 9978SOL    HW131941   4.570   0.213   4.715  1.0958 -2.2073 -0.4487
 9978SOL    HW231942   4.696   0.297   4.726 -1.6844  2.3528 -0.7649
 9979SOL     OW31943   4.560   0.329   4.395 -0.5664 -0.0157  0.1502
 9979SOL    HW131944   4.506   0.255   4.424  0.1643  0.2758  2.4418
 9979SOL    HW231945   4.529   0.403   4.448  0.7458  0.6083  0.0629
 9980SOL     OW31946   0.518   2.167   9.667 -0.5702  0.3488 -0.3804
 9980SOL    HW131947   0.504   2.079   9.701 -0.5986  0.9256  1.1431
 9980SOL    HW231948   0.442   2.217   9.696 -0.4907  0.9174 -1.1209
 9981SOL     OW31949  10.851   2.031   3.412  0.4707  0.2634  0.7536
 9981SOL    HW131950  10.880   2.098   3.473  2.9218 -0.8930  0.9649
 9981SOL    HW231951  10.868   2.068   3.325 -0.8521  0.9906  0.7809
 9982SOL     OW31952   7.609   4.110   3.229  0.6600  0.0175 -0.6668
 9982SOL    HW131953   7.687   4.167   3.229 -1.2837  2.8984 -0.3890
 9982SOL    HW231954   7.561   4.137   3.151 -0.1421 -1.6355 -0.7687
 9983SOL     OW31955   4.332  10.712   6.450 -0.2381  0.1986  0.7131
 9983SOL    HW131956   4.278  10.634   6.437 -2.0375  1.4173  0.5117
 9983SOL    HW231957   4.403  10.703   6.387  0.5661 -2.0624  1.8316
 9984SOL     OW31958   5.345   6.831   6.919  0.7042 -0.3572 -0.2663
 9984SOL    HW131959   5.435   6.819   6.888  1.0850  0.5900  0.4560
 9984SOL    HW231960   5.291   6.814   6.841  1.5136 -0.5783 -0.7950
 9985SOL     OW31961   5.277   3.883   8.674 -0.1792 -0.6115 -0.2568
 9985SOL    HW131962   5.299   3.860   8.584 -0.2205 -2.3080  0.1334
 9985SOL    HW231963   5.344   3.945   8.700 -0.5877  0.4579 -1.6779
 9986SOL     OW31964   4.498   0.935   0.245  0.5510 -0.4153 -0.0288
 9986SOL    HW131965   4.501   0.960   0.152  1.3730  2.7217  0.6945
 9986SOL    HW231966   4.405   0.921   0.263  0.1412  0.8921 -0.9240
 9987SOL     OW31967   5.425   2.767   7.959 -0.6211 -0.6791 -0.2550
 9987SOL    HW131968   5.475   2.820   7.897 -2.2152  1.8795  0.5001
 9987SOL    HW231969   5.482   2.760   8.036  0.6662 -2.4155 -1.2945
 9988SOL     OW31970   4.292   9.591   6.373 -0.8548 -0.1287 -0.6061
 9988SOL    HW131971   4.332   9.659   6.427 -1.4668  0.2773 -0.6597
 9988SOL    HW231972   4.295   9.512   6.428 -0.9739  0.1521 -0.1896
 9989SOL     OW31973   3.120   2.201   6.790  0.6615 -0.0533  0.7020
 9989SOL    HW131974   3.087   2.251   6.715  1.7443 -0.1377  0.1528
 9989SOL    HW231975   3.149   2.118   6.752  0.3735 -0.4627  1.3646
 9990SOL     OW31976   6.921   0.204   5.151  0.0147  0.6531  0.3807
 9990SOL    HW131977   6.828   0.215   5.170  0.4024  1.1852  2.1016
 9990SOL    HW231978   6.935   0.109   5.150 -0.7259  0.5384 -0.9464
 9991SOL     OW31979   6.473   8.693   7.437 -0.0524 -0.6651 -0.0468
 9991SOL    HW131980   6.491   8.787   7.433  0.9068 -0.8765 -2.3037
 9991SOL    HW231981   6.510   8.665   7.521 -0.2665  0.9286  0.6206
 9992SOL     OW31982   6.499   6.844   4.494  0.5858 -0.0580 -0.2725
 9992SOL    HW131983   6.440   6.808   4.427  0.3111  1.1007 -0.6845
 9992SOL    HW231984   6.484   6.790   4.571 -2.2699  1.1761  0.1520
 9993SOL     OW31985  10.117   4.335   3.582 -0.5860 -0.0610 -0.3459
 9993SOL    HW131986  10.100   4.429   3.582  1.4048  0.3382 -0.2739
 9993SOL    HW231987  10.094   4.306   3.670  2.1456  1.0770  0.8431
 9994SOL     OW31988   2.711   7.004   8.830  0.2814 -0.4119  0.7804
 9994SOL    HW131989   2.738   7.095   8.817 -1.3503 -0.1091 -0.9577
 9994SOL    HW231990   2.637   7.010   8.891 -0.1318 -0.4998  0.2952
 9995SOL     OW31991   4.482  10.649   9.870  0.5931  0.4214 -0.5425
 9995SOL    HW131992   4.542  10.703   9.818  0.9753 -0.2035 -0.7618
 9995SOL    HW231993   4.435  10.596   9.806  1.9706 -1.2920 -0.2413
 9996SOL     OW31994   7.693   7.947   5.478  0.0638 -0.1369 -0.0494
 9996SOL    HW131995   7.718   7.855   5.487 -2.4110 -0.8187  0.8768
 9996SOL    HW231996   7.631   7.948   5.405 -0.3203  0.6962  0.2782
 9997SOL     OW31997  10.155   1.265   6.966  0.5301 -0.4121  0.4715
 9997SOL    HW131998  10.228   1.326   6.967 -0.4266  0.7564  0.6390
 9997SOL    HW231999  10.193   1.183   6.934  1.3409  0.9055 -2.2027
 9998SOL     OW32000   6.182   0.897   5.918 -0.1429 -0.0560  0.1494
 9998SOL    HW132001   6.148   0.851   5.995  1.1953 -0.4714  0.5237
 9998SOL    HW232002   6.146   0.985   5.924 -3.8937 -1.2859 -1.2953
 9999SOL     OW32003   9.971   0.502   7.596  0.6516 -0.4043  0.0704
 9999SOL    HW132004  10.044   0.442   7.608  1.3585 -0.1418 -2.3807
 9999SOL    HW232005  10.010   0.589   7.600 -0.1294 -0.0856  2.0790
10000SOL     OW32006   3.533   6.916   0.584 -0.1185 -0.3791 -0.1937
10000SOL    HW132007   3.475   6.902   0.508 -0.9087  2.2453 -0.1874
10000SOL    HW232008   3.605   6.855   0.571 -0.7092 -0.6693 -2.5600
10001SOL     OW32009   8.122   0.805   3.117  0.5501  0.1634  0.1745
10001SOL    HW132010   8.145   0.861   3.043 -0.7844 -0.7222 -0.9674
10001SOL    HW232011   8.180   0.730   3.110  1.2416  0.6333  0.7552
10002SOL     OW32012   8.456   1.492   6.191  0.2226  0.1548 -0.3160
10002SOL    HW132013   8.377   1.441   6.173 -0.0204  0.2789  0.3510
10002SOL    HW232014   8.478   1.532   6.108 -1.0677  1.0065 -0.2796
10003SOL     OW32015   7.937   0.695   8.826 -0.1106  0.1345  0.2683
10003SOL    HW132016   7.900   0.733   8.906  0.2857  1.4266 -0.1509
10003SOL    HW232017   7.876   0.625   8.803 -0.4265 -0.0201  1.4959
10004SOL     OW32018  10.623   5.860   3.621 -0.3612  0.3252  0.3521
10004SOL    HW132019  10.581   5.774   3.623 -0.6768  0.4895  1.3477
10004SOL    HW232020  10.716   5.842   3.635 -0.2965  0.0783 -0.3729
10005SOL     OW32021   8.029   2.773   0.042  0.2372  0.1762 -0.5797
10005SOL    HW132022   8.119   2.780   0.076 -0.8202  0.9711  2.4103
10005SOL    HW232023   8.013   2.679   0.040  0.2740  0.0547  1.6920
10006SOL     OW32024   3.928   3.730   7.576 -0.1595  0.4967 -0.3217
10006SOL    HW132025   3.854   3.785   7.603  0.4291  0.7189  0.9384
10006SOL    HW232026   4.005   3.786   7.588  0.2380  0.1850 -1.3747
10007SOL     OW32027   9.365   3.421   1.410  0.1413  1.2507  0.2388
10007SOL    HW132028   9.456   3.401   1.429 -0.4337 -0.6467  1.2239
10007SOL    HW232029   9.343   3.366   1.335  0.0115  2.3030 -0.5138
10008SOL     OW32030   6.664   9.291   1.921  0.7054  0.0877  0.4499
10008SOL    HW132031   6.616   9.253   1.995  1.5579 -1.3669  0.2976
10008SOL    HW232032   6.675   9.383   1.944 -0.0618 -0.0796  1.5841
10009SOL     OW32033  10.641   5.693   5.496 -0.2337 -0.5039 -0.1383
10009SOL    HW132034  10.634   5.650   5.410 -2.0010 -0.7958  0.1115
10009SOL    HW232035  10.672   5.624   5.554 -3.0117 -1.5758  0.2503
10010SOL     OW32036   7.650   7.945   0.333  0.4229 -0.0968  0.2317
10010SOL    HW132037   7.691   7.948   0.247  0.4986  0.1141  0.2747
10010SOL    HW232038   7.723   7.945   0.395  0.3767 -0.6837  0.2866
10011SOL     OW32039   0.720   4.104   8.817  0.0654 -0.4234  0.5467
10011SOL    HW132040   0.736   4.049   8.893 -1.7027  1.9258  2.7849
10011SOL    HW232041   0.626   4.123   8.821  0.3527  1.6111 -0.8979
10012SOL     OW32042   5.314   1.077   3.955 -0.0491 -0.5229  0.0963
10012SOL    HW132043   5.372   1.089   3.880  3.3625  0.2358  2.6215
10012SOL    HW232044   5.240   1.135   3.937  1.4096  0.8618 -1.9657
10013SOL     OW32045   9.026   9.316   6.467 -0.2043 -0.3280 -0.7643
10013SOL    HW132046   8.931   9.318   6.456 -0.7982 -4.0755  1.9897
10013SOL    HW232047   9.052   9.232   6.431  1.6433 -0.5250  0.8950
10014SOL     OW32048  10.590   1.666   1.347  0.2749 -0.3498  0.2591
10014SOL    HW132049  10.604   1.704   1.260 -3.4426  1.3546  0.1890
10014SOL    HW232050  10.634   1.581   1.344  1.5375  0.2745 -2.7128
10015SOL     OW32051   0.622   9.535   5.265 -0.7414  0.7369  0.2200
10015SOL    HW132052   0.650   9.449   5.294  2.8836  0.8882 -2.1170
10015SOL    HW232053   0.528   9.528   5.252 -0.9234 -2.0923  2.3499
10016SOL     OW32054   5.664   9.374   8.508  0.0103 -0.5077  0.2940
10016SOL    HW132055   5.569   9.369   8.509  0.0091 -1.1013  2.5108
10016SOL    HW232056   5.692   9.293   8.465 -0.4604 -0.0565 -0.9066
10017SOL     OW32057   3.344   9.294  10.764  0.7077  0.0194 -0.1726
10017SOL    HW132058   3.375   9.258  10.681  0.9268  0.5224 -0.3134
10017SOL    HW232059   3.422   9.295  10.820  0.5878 -0.2016  0.0000
10018SOL     OW32060   2.424   0.819   6.878  0.0184  0.0367  0.1936
10018SOL    HW132061   2.455   0.815   6.788  0.1512 -1.4111  0.2921
10018SOL    HW232062   2.451   0.737   6.917  0.9411  1.0951  1.9006
10019SOL     OW32063   0.973   4.055   2.513 -0.3230  0.5971 -0.5327
10019SOL    HW132064   0.886   4.061   2.473 -0.2319  0.2129 -0.7961
10019SOL    HW232065   1.013   3.978   2.472 -0.9718 -1.0579  1.7646
10020SOL     OW32066  10.590   1.421  10.595  0.0501 -0.0529 -0.3812
10020SOL    HW132067  10.536   1.357  10.549  1.3707 -0.5877 -1.2758
10020SOL    HW232068  10.631   1.471  10.525 -0.2090  1.1369  0.3011
10021SOL     OW32069   5.926   6.443   5.189  0.5485  0.0498  0.5079
10021SOL    HW132070   5.947   6.351   5.200  0.8319 -0.1285 -1.2704
10021SOL    HW232071   5.924   6.478   5.278 -1.0006 -1.9615  1.3392
10022SOL     OW32072   1.516   2.848  10.480  0.4244  0.3176 -0.4767
10022SOL    HW132073   1.455   2.776  10.462  0.8500 -0.0583 -0.4294
10022SOL    HW232074   1.543   2.835  10.571  0.8178  0.2969 -0.5931
10023SOL     OW32075   9.483   0.815   2.541 -0.8377 -0.6085 -0.3050
10023SOL    HW132076   9.554   0.868   2.576 -0.6109  0.3410 -2.0917
10023SOL    HW232077   9.523   0.730   2.521 -0.8344 -0.9536  1.0575
10024SOL     OW32078   3.876   6.374   2.314  0.3273 -0.4380  0.1293
10024SOL    HW132079   3.941   6.332   2.370  0.4111  1.3272  1.4699
10024SOL    HW232080   3.792   6.346   2.351  0.3808  1.0163  1.4685
10025SOL     OW32081   6.068   0.154   7.780  0.0025  0.3361  0.0467
10025SOL    HW132082   6.149   0.111   7.809  0.7477  0.6720 -1.4774
10025SOL    HW232083   6.062   0.233   7.834 -0.3365 -0.6245  1.4837
10026SOL     OW32084   4.032   4.412   8.996  0.2701  0.2302  0.0369
10026SOL    HW132085   4.028   4.376   9.085  0.3473  0.5312  0.1637
10026SOL    HW232086   3.945   4.396   8.960  0.4901 -0.6369 -0.1287
10027SOL     OW32087   4.541   5.279   4.028  0.3281 -0.1083 -0.9066
10027SOL    HW132088   4.484   5.239   3.963 -0.4765  0.5773 -0.6354
10027SOL    HW232089   4.562   5.365   3.992 -1.9928  1.2485  0.6999
10028SOL     OW32090   3.759   7.868   5.025 -0.1127 -0.1524  0.0849
10028SOL    HW132091   3.681   7.829   5.065 -0.1132  0.7269  0.9582
10028SOL    HW232092   3.833   7.827   5.070 -0.1139  0.8765  1.0721
10029SOL     OW32093   3.055   4.356   9.128 -0.3405  0.1770 -0.4412
10029SOL    HW132094   3.008   4.427   9.085 -1.1340 -1.2330 -1.9988
10029SOL    HW232095   3.147   4.384   9.127 -0.5148  0.7443 -1.9246
10030SOL     OW32096   0.835   5.146   4.120 -0.1174  0.4854  0.7339
10030SOL    HW132097   0.751   5.100   4.129  0.5690 -1.5025 -1.7885
10030SOL    HW232098   0.895   5.098   4.177  0.2472 -0.8727 -0.7437
10031SOL     OW32099   0.726   5.324   5.438  0.3035 -0.1062 -0.6293
10031SOL    HW132100   0.673   5.356   5.511  0.6342  0.1301 -0.4872
10031SOL    HW232101   0.673   5.255   5.397  0.9822 -1.7611  1.1335
10032SOL     OW32102  10.484   4.198   1.795 -0.1829  0.3464 -0.0755
10032SOL    HW132103  10.490   4.124   1.855  0.0373 -0.1061 -0.6471
10032SOL    HW232104  10.393   4.198   1.765 -0.0887  0.0718 -0.3660
10033SOL     OW32105  10.086   4.746   3.963  0.3337  0.3099 -0.1923
10033SOL    HW132106  10.031   4.761   3.886 -0.2681  0.8101  0.3200
10033SOL    HW232107  10.078   4.653   3.981 -0.9434  0.4942  0.2945
10034SOL     OW32108   9.129   2.192   0.579 -0.0761  0.0617 -0.1356
10034SOL    HW132109   9.151   2.150   0.662 -1.8070  1.1769  0.9603
10034SOL    HW232110   9.117   2.284   0.602 -1.0657  0.3045 -1.5183
10035SOL     OW32111   0.426   1.867   7.496 -0.2390 -0.1211  0.4806
10035SOL    HW132112   0.401   1.908   7.579 -1.7828 -0.5829  0.2860
10035SOL    HW232113   0.499   1.809   7.519 -0.7893 -0.4176  1.5743
10036SOL     OW32114   6.705   9.779   7.350  0.2046 -0.0073 -0.1040
10036SOL    HW132115   6.748   9.764   7.434 -0.7584 -0.0352  0.4064
10036SOL    HW232116   6.638   9.845   7.370 -0.6934 -0.7478 -0.6209
10037SOL     OW32117  10.426   4.519   1.654 -0.3421  0.3247 -0.1973
10037SOL    HW132118  10.360   4.477   1.710  0.6583 -1.2046 -0.1138
10037SOL    HW232119  10.435   4.459   1.579  0.3544  0.9400 -0.6136
10038SOL     OW32120   1.892   3.896   3.648  0.2441 -0.6690 -0.0790
10038SOL    HW132121   1.829   3.945   3.701  0.1137 -1.4146  0.4618
10038SOL    HW232122   1.875   3.804   3.668  0.8903 -0.9199 -0.6271
10039SOL     OW32123   2.577   4.328   9.424 -0.3056 -0.4692  0.3547
10039SOL    HW132124   2.605   4.292   9.341  0.7901 -1.0763  0.9641
10039SOL    HW232125   2.482   4.317   9.425 -0.3009 -0.6361 -0.7202
10040SOL     OW32126   8.077   3.775   3.118  0.0740  0.0132 -0.5681
10040SOL    HW132127   8.121   3.781   3.033 -0.3966  1.5134 -0.7244
10040SOL    HW232128   8.042   3.862   3.134 -0.4389 -0.4211  0.8636
10041SOL     OW32129   7.452   7.709   9.407  0.2713 -0.0234  0.0692
10041SOL    HW132130   7.488   7.724   9.320  2.2474  0.7068  0.9427
10041SOL    HW232131   7.497   7.631   9.438  0.0432  0.0763  0.6604
10042SOL     OW32132   7.025   2.025   7.492 -0.3189 -0.5845 -0.0069
10042SOL    HW132133   7.079   1.979   7.557  2.4911  1.4748 -0.7216
10042SOL    HW232134   6.967   2.080   7.544  2.0446  1.2068  0.8996
10043SOL     OW32135   4.204   3.307   6.071 -0.0856 -0.0299  0.0998
10043SOL    HW132136   4.266   3.370   6.109 -0.5360  0.7155 -0.3673
10043SOL    HW232137   4.159   3.357   6.003  0.1766 -1.1103 -0.9023
10044SOL     OW32138   4.373   4.754   5.919 -0.0706  0.4913  0.5449
10044SOL    HW132139   4.311   4.823   5.941 -1.4687  0.1666 -1.9861
10044SOL    HW232140   4.332   4.673   5.951 -0.4825  0.4029 -0.1728
10045SOL     OW32141   0.742   9.105   7.350 -0.1153  0.0413 -0.3426
10045SOL    HW132142   0.746   9.199   7.332  0.4518  0.1404  0.2911
10045SOL    HW232143   0.668   9.075   7.297 -0.7129  0.9540 -0.0680
10046SOL     OW32144   1.015   1.102   3.910  0.0010  0.5472 -0.2180
10046SOL    HW132145   0.999   1.078   3.819  1.3695 -0.6405 -0.1719
10046SOL    HW232146   0.932   1.083   3.954 -0.0174 -0.9889 -0.8298
10047SOL     OW32147   8.827  10.141   4.374  0.0697  0.7006  0.2956
10047SOL    HW132148   8.894  10.161   4.308  2.4424 -2.0530  1.6605
10047SOL    HW232149   8.797  10.052   4.353 -1.3435  0.9094  1.2187
10048SOL     OW32150   3.557   8.478  10.052  0.4846  0.0684  0.0627
10048SOL    HW132151   3.613   8.499   9.977  0.1764  0.4305 -0.0650
10048SOL    HW232152   3.566   8.553  10.111 -0.9961  0.8267 -0.6182
10049SOL     OW32153   2.789   8.404   3.763  0.2904  0.2430 -0.1934
10049SOL    HW132154   2.813   8.481   3.813  1.1562 -0.7324  0.9623
10049SOL    HW232155   2.759   8.341   3.829 -0.6417 -0.3191 -1.1304
10050SOL     OW32156   9.628   3.598   5.039  0.0828  0.0239  0.6306
10050SOL    HW132157   9.701   3.660   5.048 -0.4354  0.7440 -0.0337
10050SOL    HW232158   9.590   3.617   4.953  0.4737 -1.8460  0.0082
10051SOL     OW32159   8.648   3.658   7.639 -0.1770  0.8641 -0.1666
10051SOL    HW132160   8.616   3.574   7.670  1.6480  0.1752 -0.0452
10051SOL    HW232161   8.741   3.658   7.660  0.1792  2.2828 -1.5457
10052SOL     OW32162   4.926   3.825  10.978  0.2449 -0.3859 -0.0807
10052SOL    HW132163   4.845   3.779  10.999  0.1097 -0.5645 -0.9589
10052SOL    HW232164   4.990   3.790  11.039 -0.6911  0.9454  1.7578
10053SOL     OW32165   0.940   7.401  10.233 -0.4253 -0.3878  0.2104
10053SOL    HW132166   0.976   7.331  10.177  2.0769  0.6643  0.3647
10053SOL    HW232167   0.976   7.383  10.320 -1.4660 -0.0574  0.7274
10054SOL     OW32168   8.740   4.038   1.109 -0.4805  0.5115 -0.0100
10054SOL    HW132169   8.688   4.106   1.066 -0.1672 -0.0074 -1.2688
10054SOL    HW232170   8.829   4.072   1.108 -0.3095  0.0799 -0.7151
10055SOL     OW32171   7.328   6.161   2.832  0.2727 -0.0475 -0.4537
10055SOL    HW132172   7.237   6.191   2.842  0.3381  0.1755 -0.5216
10055SOL    HW232173   7.326   6.069   2.857  0.2935  0.3132  0.9648
10056SOL     OW32174   9.685   9.346   7.726  0.3527  0.3967 -0.3123
10056SOL    HW132175   9.590   9.334   7.728  0.5606 -1.5698  1.5261
10056SOL    HW232176   9.703   9.406   7.798  0.6122 -0.4156  0.3084
10057SOL     OW32177   2.336   1.269   6.968 -0.0772  0.2305  0.0473
10057SOL    HW132178   2.316   1.274   7.062 -1.5513  0.1097 -0.2256
10057SOL    HW232179   2.256   1.234   6.929  0.1721  1.1456 -1.3607
10058SOL     OW32180   3.269   4.050   0.331  0.6134  0.1741 -0.2863
10058SOL    HW132181   3.314   3.973   0.369  1.8770  0.8579 -0.3315
10058SOL    HW232182   3.216   4.014   0.260  0.2048 -0.8087  0.4892
10059SOL     OW32183  10.354  10.267   1.502  0.5185  0.2069 -0.1694
10059SOL    HW132184  10.291  10.339   1.503  0.4292  0.1362 -0.5504
10059SOL    HW232185  10.383  10.262   1.411  1.7216  0.8083  0.1497
10060SOL     OW32186   7.491   7.910   9.837 -0.1462  0.5754 -0.0720
10060SOL    HW132187   7.494   7.943   9.927 -0.7423  1.5980 -0.4086
10060SOL    HW232188   7.581   7.920   9.805  0.2364 -0.4868  0.6332
10061SOL     OW32189   8.340   4.543   7.399 -0.1306 -0.3011  0.8394
10061SOL    HW132190   8.354   4.474   7.335 -0.7977  1.5392 -1.4456
10061SOL    HW232191   8.245   4.543   7.413 -0.4162  1.2448 -0.6462
10062SOL     OW32192   1.878   2.955   2.588  0.0948  0.1380 -0.0928
10062SOL    HW132193   1.964   2.942   2.627 -0.3482 -1.7096  0.3855
10062SOL    HW232194   1.886   2.920   2.500 -0.3436 -0.8149  0.2232
10063SOL     OW32195  10.600   2.026   1.154 -0.2878  0.3995 -0.1944
10063SOL    HW132196  10.531   1.974   1.196  1.8063 -1.8019  0.7518
10063SOL    HW232197  10.624   1.975   1.077 -0.7241  1.9549 -1.4238
10064SOL     OW32198   3.294   2.931   3.347  0.0914 -0.3143 -0.2668
10064SOL    HW132199   3.346   2.923   3.428 -2.2269  2.4017  1.6631
10064SOL    HW232200   3.328   3.010   3.304 -0.9436  0.2185 -0.1285
10065SOL     OW32201   5.989  10.524  10.516 -0.2953 -0.3714 -0.1562
10065SOL    HW132202   5.962  10.572  10.438 -0.4023  0.3668  0.3255
10065SOL    HW232203   6.035  10.589  10.569  1.5022 -1.3281 -0.4674
10066SOL     OW32204   6.149   8.157   3.883 -0.2390  0.2447  0.0339
10066SOL    HW132205   6.102   8.074   3.875  0.4103 -0.1155 -0.1012
10066SOL    HW232206   6.082   8.220   3.910 -0.4348 -0.6428  1.7498
10067SOL     OW32207   1.276   2.725   6.234 -0.3585 -0.1374 -0.0375
10067SOL    HW132208   1.320   2.669   6.297 -1.2139 -0.8103 -0.0218
10067SOL    HW232209   1.277   2.675   6.152  0.2275  0.4790 -0.4138
10068SOL     OW32210   1.217   0.385   9.128 -0.3497 -0.3627 -0.3141
10068SOL    HW132211   1.223   0.383   9.223 -0.4724  0.7659 -0.2761
10068SOL    HW232212   1.127   0.360   9.109  0.2421 -2.8451 -0.2651
10069SOL     OW32213   2.829   5.277   5.997 -0.2284  0.0681  0.1360
10069SOL    HW132214   2.744   5.243   5.966 -1.7950  2.4088  1.5253
10069SOL    HW232215   2.863   5.326   5.922 -1.1409  0.7967  0.1689
10070SOL     OW32216   8.091   0.310   6.414 -0.0063 -0.7612 -0.7441
10070SOL    HW132217   8.053   0.377   6.472  1.7034 -1.0087  0.7526
10070SOL    HW232218   8.150   0.359   6.357 -0.4443 -0.7251 -1.1707
10071SOL     OW32219   8.148   3.762   7.712  0.2578 -0.4031  0.9374
10071SOL    HW132220   8.106   3.811   7.641  0.6587  0.8690  1.5527
10071SOL    HW232221   8.092   3.686   7.724  0.2701 -0.7469 -0.8442
10072SOL     OW32222   3.071   5.494   4.585  0.0184 -0.3976 -0.3880
10072SOL    HW132223   3.046   5.566   4.528 -0.4007  1.0630  1.5495
10072SOL    HW232224   3.154   5.522   4.624 -0.9356 -0.2010  1.5881
10073SOL     OW32225   4.395   0.948   4.133 -0.0513  0.1939 -0.7708
10073SOL    HW132226   4.354   1.022   4.177  2.0066  0.6269  0.5857
10073SOL    HW232227   4.380   0.874   4.191 -2.3143 -0.5993 -2.2411
10074SOL     OW32228   2.839   8.012   2.413 -0.0123  0.7548 -0.0512
10074SOL    HW132229   2.783   8.057   2.475  0.9735 -0.4416  1.7887
10074SOL    HW232230   2.892   7.953   2.466  0.6624 -0.5668 -2.0675
10075SOL     OW32231   7.728   8.680   2.974 -0.0923  0.7956 -0.2978
10075SOL    HW132232   7.690   8.642   3.053  0.8273  1.2222  0.3641
10075SOL    HW232233   7.657   8.676   2.909 -0.6885 -0.0443  0.3803
10076SOL     OW32234   5.322   6.119   1.323  0.0451 -0.1629 -0.3184
10076SOL    HW132235   5.388   6.188   1.310  0.0061 -0.2936 -1.2997
10076SOL    HW232236   5.330   6.096   1.415  0.9314  0.2798 -0.2683
10077SOL     OW32237   3.131  10.310   5.669 -0.0151  0.1585 -0.1522
10077SOL    HW132238   3.156  10.243   5.733  1.0779  0.9262  0.2527
10077SOL    HW232239   3.165  10.277   5.586  1.3405  0.6185  0.1955
10078SOL     OW32240   6.848   0.817   6.032  0.5423  0.1310  0.0959
10078SOL    HW132241   6.804   0.739   6.066  0.0903  0.1123 -0.5160
10078SOL    HW232242   6.826   0.818   5.939  0.3271  1.1429  0.1540
10079SOL     OW32243   9.397   0.337   8.326  0.5045  0.0722  0.7729
10079SOL    HW132244   9.391   0.410   8.264  0.1555  0.2262  0.9833
10079SOL    HW232245   9.427   0.263   8.274 -2.9222 -0.7013 -0.3812
10080SOL     OW32246   9.676  10.146   3.775  0.3828 -0.3541  0.1287
10080SOL    HW132247   9.663  10.176   3.865 -0.6328 -2.1684  0.6274
10080SOL    HW232248   9.771  10.132   3.768  0.4180 -0.6089  1.0649
10081SOL     OW32249   6.282   4.471  10.902 -0.5149  0.2164 -0.3011
10081SOL    HW132250   6.216   4.536  10.926 -0.4281 -0.0522  0.7085
10081SOL    HW232251   6.352   4.482  10.967 -0.7845 -1.2883  0.2895
10082SOL     OW32252   0.083  10.181   4.862 -1.0460  0.9893  0.1593
10082SOL    HW132253   0.067  10.221   4.777  0.6967 -0.0787 -0.7200
10082SOL    HW232254   0.075  10.087   4.847 -2.5741  0.8357  1.6290
10083SOL     OW32255   5.960   6.593   2.456  0.1754 -0.4724  0.0345
10083SOL    HW132256   6.046   6.600   2.497  0.3103  2.0881 -0.4753
10083SOL    HW232257   5.904   6.556   2.524  0.6511  2.5038  2.2584
10084SOL     OW32258   2.811  10.797   9.895 -0.6900 -0.5218  0.0203
10084SOL    HW132259   2.759  10.798   9.976 -0.6270 -0.0941  0.0596
10084SOL    HW232260   2.809  10.706   9.866 -1.0829 -0.5928  0.2670
10085SOL     OW32261   8.897   0.817   7.236  0.5404 -0.1735 -0.2990
10085SOL    HW132262   8.918   0.883   7.302  0.6313  0.5792 -1.0559
10085SOL    HW232263   8.965   0.751   7.245  0.3778 -0.2314  0.5591
10086SOL     OW32264   9.184  10.327   4.379  0.2586 -0.0553  0.7062
10086SOL    HW132265   9.113  10.293   4.323  0.9451 -1.0980  0.4351
10086SOL    HW232266   9.264  10.304   4.332  0.7755  2.3491  0.3152
10087SOL     OW32267   4.514   2.233   7.721  0.1016  0.2585  0.0689
10087SOL    HW132268   4.535   2.253   7.812  1.2531 -1.5021  0.2346
10087SOL    HW232269   4.557   2.302   7.670  2.5233 -0.7202  0.6807
10088SOL     OW32270   1.902   1.965   1.599  0.0909 -0.5691 -0.2602
10088SOL    HW132271   1.840   1.922   1.657  0.9975 -2.3742 -0.5565
10088SOL    HW232272   1.959   2.015   1.657 -0.8713  0.1223  0.1120
10089SOL     OW32273   3.058   1.273   5.187  0.4707  0.2205 -0.3955
10089SOL    HW132274   3.012   1.192   5.209  0.4793 -0.0717 -1.3867
10089SOL    HW232275   3.135   1.245   5.139  1.7688  0.7015  1.2882
10090SOL     OW32276   0.877   6.849   6.009 -0.0375 -0.2954  1.2611
10090SOL    HW132277   0.880   6.766   5.962 -0.3551  1.7079 -2.7687
10090SOL    HW232278   0.784   6.867   6.023 -0.3508  1.1909 -1.8813
10091SOL     OW32279   1.730   6.965   5.814  0.1453 -0.4777  0.1164
10091SOL    HW132280   1.656   7.019   5.784  1.4081  0.9259 -0.6370
10091SOL    HW232281   1.736   6.984   5.908 -0.5865 -0.7862  0.2336
10092SOL     OW32282   5.541   5.340   6.269  0.0446 -0.2462  0.5090
10092SOL    HW132283   5.505   5.305   6.351 -0.3526  0.3776  0.6100
10092SOL    HW232284   5.486   5.416   6.250  0.4804 -0.0684 -0.0507
10093SOL     OW32285   6.450   1.662   0.842  0.0755  0.0158  0.4659
10093SOL    HW132286   6.358   1.651   0.816  0.4202 -0.2766 -0.6891
10093SOL    HW232287   6.452   1.636   0.934 -0.8447 -0.8203  0.2674
10094SOL     OW32288   3.164   7.769   6.736 -0.1863  0.4910 -0.3096
10094SOL    HW132289   3.179   7.849   6.787 -0.2933 -0.7600  1.8152
10094SOL    HW232290   3.245   7.719   6.747 -1.0502 -0.7680  0.5301
10095SOL     OW32291   6.522   3.544   5.775 -0.6079 -0.4445 -0.2608
10095SOL    HW132292   6.549   3.557   5.866 -0.4336 -1.2576 -0.1867
10095SOL    HW232293   6.525   3.632   5.736  0.3997 -0.2488  0.2207
10096SOL     OW32294  10.913   2.722   3.027  0.2782 -0.0297 -0.1307
10096SOL    HW132295  10.862   2.641   3.023 -0.7810  0.4328  2.1224
10096SOL    HW232296  10.988   2.699   3.082  0.1896  0.4020  0.1722
10097SOL     OW32297   6.159   9.171   0.832 -0.6732  0.8903  0.1332
10097SOL    HW132298   6.244   9.185   0.874 -0.5462 -2.0056  1.0802
10097SOL    HW232299   6.097   9.220   0.885  0.1690  1.6892  0.4128
10098SOL     OW32300   8.557   5.953  10.859 -0.1550  0.5336  0.0720
10098SOL    HW132301   8.631   5.902  10.892 -1.5024 -1.2694  0.4343
10098SOL    HW232302   8.541   6.020  10.926  3.1949  3.2432 -1.5141
10099SOL     OW32303   2.865   9.482   2.583  0.2746 -0.0691  0.2346
10099SOL    HW132304   2.896   9.418   2.646  1.4200  0.5685  0.3381
10099SOL    HW232305   2.830   9.429   2.511 -0.8418 -0.8002  1.2703
10100SOL     OW32306   4.637   4.575  10.611  0.1821 -0.3161  0.2034
10100SOL    HW132307   4.705   4.511  10.590  0.3551 -0.4007  1.0013
10100SOL    HW232308   4.616   4.559  10.703 -0.1220  0.4464  0.2764
10101SOL     OW32309   1.802   0.273   2.472 -0.4460  0.3137  0.1945
10101SOL    HW132310   1.772   0.213   2.403  0.2657  1.1173 -0.8405
10101SOL    HW232311   1.851   0.217   2.532 -2.1580 -0.6359  0.7904
10102SOL     OW32312   8.148   0.833   0.057 -0.1308 -0.1509 -0.3364
10102SOL    HW132313   8.217   0.785   0.103  1.4765  0.4469 -2.0247
10102SOL    HW232314   8.068   0.809   0.104  1.1564 -1.0723  1.5292
10103SOL     OW32315   1.213   7.866   5.063 -0.3129 -0.1069 -0.5290
10103SOL    HW132316   1.173   7.926   5.000 -2.8113  0.3084  1.2592
10103SOL    HW232317   1.139   7.836   5.117  1.5091 -1.2691  1.4760
10104SOL     OW32318   0.023   1.676   5.298 -0.5457 -0.3152 -0.2622
10104SOL    HW132319   0.048   1.612   5.232 -0.6785 -0.8174  0.1629
10104SOL    HW232320   0.065   1.757   5.270  0.7025 -0.8830 -0.1385
10105SOL     OW32321   0.347   8.346   7.795  0.2992  0.0380  0.4741
10105SOL    HW132322   0.390   8.347   7.709 -0.5766  0.0707  0.0294
10105SOL    HW232323   0.264   8.391   7.781 -0.2672 -0.7699  1.1201
10106SOL     OW32324   7.244   1.896   3.282  0.1023  0.4994 -0.1386
10106SOL    HW132325   7.165   1.880   3.333 -0.0706 -1.9709 -1.0714
10106SOL    HW232326   7.314   1.905   3.347  0.0679 -3.5512  0.6908
10107SOL     OW32327   1.407   3.566   2.818 -0.0199 -0.1039  0.1337
10107SOL    HW132328   1.464   3.539   2.746  2.2319 -1.1836  2.1414
10107SOL    HW232329   1.415   3.661   2.819  1.1606 -0.1768 -0.1352
10108SOL     OW32330   8.032   9.024   8.357  0.4915 -0.7053 -0.3788
10108SOL    HW132331   7.942   8.999   8.335 -0.5773  1.5245  1.0561
10108SOL    HW232332   8.062   9.076   8.282  0.1138 -0.4440 -0.3528
10109SOL     OW32333   2.797   9.752   6.605  0.1873 -0.5206  0.3109
10109SOL    HW132334   2.849   9.723   6.681 -0.0896 -1.2973  0.2091
10109SOL    HW232335   2.729   9.686   6.597 -2.7904  2.0213  2.3583
10110SOL     OW32336   2.597   8.448   8.815 -0.7737 -0.6325  0.5330
10110SOL    HW132337   2.690   8.466   8.832 -0.5342 -0.2330 -1.1018
10110SOL    HW232338   2.593   8.354   8.797 -0.2148 -0.2170 -2.0703
10111SOL     OW32339   9.986   9.523   0.037  0.1641 -0.3476  0.2782
10111SOL    HW132340   9.918   9.459   0.012  0.1328 -0.5183  0.7976
10111SOL    HW232341  10.011   9.564  -0.046 -0.0978 -0.7572 -0.0105
10112SOL     OW32342   4.517  10.867   8.406  0.1964 -0.1198  0.4250
10112SOL    HW132343   4.426  10.847   8.425  0.2495 -1.0150 -0.2098
10112SOL    HW232344   4.530  10.956   8.440 -0.2546 -0.8520  2.6440
10113SOL     OW32345   3.775   8.440   3.924  0.2892  0.3961 -0.5607
10113SOL    HW132346   3.755   8.503   3.993 -1.2335 -1.5431  0.8956
10113SOL    HW232347   3.861   8.467   3.892  1.3801  1.0775  2.5475
10114SOL     OW32348   0.722   7.937   7.867 -0.1921 -0.2072  0.3210
10114SOL    HW132349   0.799   7.960   7.919 -0.7705  0.4472  0.9174
10114SOL    HW232350   0.753   7.940   7.777  0.3910  0.4502  0.5290
10115SOL     OW32351   7.195   1.866   8.156  0.5899  0.0501 -0.2258
10115SOL    HW132352   7.119   1.831   8.203  0.6426  0.9861  0.5806
10115SOL    HW232353   7.250   1.789   8.140  0.8709 -0.2204  1.8064
10116SOL     OW32354   2.576   2.570   0.847  0.2919  0.2233 -0.2016
10116SOL    HW132355   2.556   2.594   0.757 -0.4858 -0.2252 -0.1605
10116SOL    HW232356   2.656   2.518   0.840 -0.2034 -0.5068 -0.7486
10117SOL     OW32357   5.281  10.045   2.606 -0.7455  0.2780 -0.1752
10117SOL    HW132358   5.227  10.110   2.561 -0.7312 -0.5149 -1.3842
10117SOL    HW232359   5.371  10.074   2.592 -0.6944 -0.4341 -1.4629
10118SOL     OW32360   0.247  10.280   7.001 -0.1423  0.1290  0.2230
10118SOL    HW132361   0.314  10.212   6.995  0.8384  0.8012  2.5207
10118SOL    HW232362   0.262  10.336   6.925  1.3674 -0.2322  0.2294
10119SOL     OW32363   1.032   7.568   1.461 -0.1043 -0.1546  0.1939
10119SOL    HW132364   0.956   7.547   1.516  0.0814 -1.0236  0.1275
10119SOL    HW232365   1.008   7.536   1.374  0.1477  0.0070  0.0637
10120SOL     OW32366   7.752   7.333   8.619 -0.1354  0.1212 -0.2342
10120SOL    HW132367   7.823   7.305   8.562 -0.8443  0.8658 -1.5316
10120SOL    HW232368   7.759   7.429   8.621 -0.3400  0.1228  0.6394
10121SOL     OW32369  10.548   8.340   6.462  0.4020 -0.4863 -0.5255
10121SOL    HW132370  10.525   8.261   6.511 -0.4509 -0.5447 -1.0080
10121SOL    HW232371  10.506   8.329   6.377  1.8439 -0.3765 -1.2793
10122SOL     OW32372   6.445   1.653   9.717  0.8101  0.0723  0.4525
10122SOL    HW132373   6.471   1.634   9.627  0.2920 -0.0384  0.3242
10122SOL    HW232374   6.428   1.568   9.757  2.3715  0.0238  1.0789
10123SOL     OW32375   6.923   5.292   9.844  0.4076  0.0852 -0.5177
10123SOL    HW132376   7.009   5.270   9.878 -0.1245  1.7078  2.2549
10123SOL    HW232377   6.895   5.366   9.898 -2.6874 -0.3498 -1.3450
10124SOL     OW32378   0.209   6.377   1.039 -0.3549  0.1368  0.3108
10124SOL    HW132379   0.244   6.393   1.126  1.6916  1.8054 -0.7291
10124SOL    HW232380   0.119   6.409   1.043 -0.8607 -1.3640  2.2114
10125SOL     OW32381   7.398   0.745   8.666 -0.0249  0.1932 -0.3047
10125SOL    HW132382   7.450   0.668   8.640  0.1900  0.2867 -0.1504
10125SOL    HW232383   7.346   0.715   8.741 -1.4529 -0.4052 -1.4662
10126SOL     OW32384   1.141   6.152   7.503  0.6492 -0.3710 -0.0389
10126SOL    HW132385   1.060   6.108   7.528 -0.4962  2.2951  1.3378
10126SOL    HW232386   1.136   6.160   7.408  0.0755 -1.5933 -0.1216
10127SOL     OW32387   5.734   8.916   3.988 -0.3425  0.9513 -0.2104
10127SOL    HW132388   5.735   8.846   3.923  0.1336  1.2912 -0.5758
10127SOL    HW232389   5.723   8.996   3.937 -0.5167  1.1752  0.1758
10128SOL     OW32390   5.825   9.568   1.199 -0.3814 -0.0110 -0.0078
10128SOL    HW132391   5.752   9.628   1.217  0.5350  0.8569  0.9204
10128SOL    HW232392   5.902   9.624   1.197  0.5005 -1.1507  0.8757
10129SOL     OW32393   9.888   9.018   0.737  0.0816  0.1324 -0.5106
10129SOL    HW132394   9.859   8.996   0.648 -1.9300  0.3917  0.0375
10129SOL    HW232395   9.815   9.068   0.774  2.8284  4.6185 -0.4105
10130SOL     OW32396   6.280   3.837   7.537  0.1019  0.7219  0.0009
10130SOL    HW132397   6.309   3.901   7.603  0.1821  0.3310  0.3478
10130SOL    HW232398   6.343   3.765   7.544 -0.2101  0.4360 -0.1261
10131SOL     OW32399   7.320   2.840   5.367 -0.4648  0.1582  0.1509
10131SOL    HW132400   7.329   2.808   5.277 -3.7441  0.2336 -0.3214
10131SOL    HW232401   7.292   2.763   5.416 -1.1478  0.6577  0.5563
10132SOL     OW32402   6.853   7.406   1.676 -0.8868  0.3718  0.4378
10132SOL    HW132403   6.867   7.492   1.718 -2.4566  0.5568  0.6284
10132SOL    HW232404   6.851   7.426   1.583 -0.7852  0.4594  0.4527
10133SOL     OW32405   7.873   1.929  10.868  0.3168  0.0848 -0.1608
10133SOL    HW132406   7.823   1.982  10.805 -0.9443  0.7427  1.3246
10133SOL    HW232407   7.846   1.839  10.849 -0.9270  0.3747  0.1570
10134SOL     OW32408   7.536   0.903   6.682  0.3922  0.0830 -0.4462
10134SOL    HW132409   7.580   0.942   6.758  0.3484 -1.6873  0.5395
10134SOL    HW232410   7.449   0.942   6.682  0.9286  1.3448 -0.6078
10135SOL     OW32411   7.673  10.869   4.879 -0.3039  0.2405 -0.1896
10135SOL    HW132412   7.719  10.819   4.812 -0.0921 -0.3952  0.4229
10135SOL    HW232413   7.596  10.817   4.900 -0.7668  0.7956 -0.4517
10136SOL     OW32414   2.792   0.705   0.332 -0.2625 -0.1299  0.3696
10136SOL    HW132415   2.736   0.780   0.313 -0.2395 -0.0626  0.5693
10136SOL    HW232416   2.878   0.743   0.352  0.1964 -0.2889 -1.1574
10137SOL     OW32417   3.621   8.714   5.687  0.2546  0.3378 -0.1845
10137SOL    HW132418   3.588   8.793   5.729  1.1817  0.8134 -0.3432
10137SOL    HW232419   3.641   8.655   5.760 -0.8311  0.0750 -0.0813
10138SOL     OW32420   4.598  10.859   4.459  0.2156  0.4375  0.1554
10138SOL    HW132421   4.629  10.769   4.472 -0.3549 -0.1389 -2.0383
10138SOL    HW232422   4.516  10.864   4.509 -1.0207 -1.0928 -1.5930
10139SOL     OW32423   8.575   2.171   2.664  0.1575 -0.1646  0.2327
10139SOL    HW132424   8.597   2.128   2.747  0.6892  1.0636  0.7603
10139SOL    HW232425   8.535   2.254   2.690 -2.7720 -1.1481 -0.7365
10140SOL     OW32426  10.019   8.971   2.226  0.1974  0.0048  0.2226
10140SOL    HW132427  10.086   8.988   2.292 -1.2878  0.1237  1.7952
10140SOL    HW232428   9.977   9.055   2.212  1.2303  0.2276 -1.7982
10141SOL     OW32429   3.263   1.335   3.531 -0.2881  0.2846  0.5890
10141SOL    HW132430   3.246   1.353   3.439 -1.0986 -0.0793  0.6567
10141SOL    HW232431   3.212   1.401   3.579  0.7632  0.9840  0.7792
10142SOL     OW32432  10.171   8.234   7.962  0.5252 -0.3043 -0.4069
10142SOL    HW132433  10.081   8.234   7.995  0.3637  0.2040 -0.8354
10142SOL    HW232434  10.182   8.319   7.920  1.1384 -0.4439 -0.5466
10143SOL     OW32435  10.451   3.317   6.848  0.1591  0.1415  0.5213
10143SOL    HW132436  10.462   3.273   6.764  1.9664 -0.7806  1.1922
10143SOL    HW232437  10.420   3.405   6.824  0.6125 -0.0959 -1.1047
10144SOL     OW32438   8.275   2.288   6.225  0.4770  0.5652  1.0244
10144SOL    HW132439   8.320   2.364   6.263  0.5651  0.7052  0.6467
10144SOL    HW232440   8.215   2.326   6.161  1.4232  0.2548 -0.0837
10145SOL     OW32441   6.400   0.305   8.252  0.2262  0.3962 -0.0517
10145SOL    HW132442   6.370   0.219   8.222  2.0484  0.1828 -1.4040
10145SOL    HW232443   6.339   0.327   8.323 -1.5257 -1.0836 -0.9821
10146SOL     OW32444   5.097   7.216   8.096 -0.5358 -0.3032  0.5246
10146SOL    HW132445   5.071   7.278   8.164 -1.1380  0.1716 -0.1159
10146SOL    HW232446   5.093   7.268   8.015  0.7008 -0.7063  0.1934
10147SOL     OW32447   5.615   0.041   5.602 -0.7030 -0.2232 -0.3656
10147SOL    HW132448   5.552   0.047   5.530 -0.1576 -1.1247 -0.9437
10147SOL    HW232449   5.641  -0.051   5.603 -0.5229 -0.1769  0.8460
10148SOL     OW32450   9.352   5.922   8.497 -0.1441  0.0827 -0.3702
10148SOL    HW132451   9.323   5.856   8.434 -2.1557  0.5271  0.0085
10148SOL    HW232452   9.298   5.999   8.476 -0.0691  0.5778  1.1774
10149SOL     OW32453   3.657   7.692   0.562 -0.6548 -0.4058 -0.5789
10149SOL    HW132454   3.744   7.653   0.573 -0.0760  1.1338  0.6352
10149SOL    HW232455   3.597   7.627   0.597  0.0779 -1.0976 -0.5699
10150SOL     OW32456   4.488   6.958   4.707  0.3541  0.1668 -0.0946
10150SOL    HW132457   4.490   7.054   4.711  1.6133  0.4477 -3.6855
10150SOL    HW232458   4.399   6.938   4.679  0.5498  0.4583 -0.9682
10151SOL     OW32459   9.184   3.006   9.456 -0.2610  0.1121  0.5005
10151SOL    HW132460   9.172   3.101   9.453 -0.9037  0.0110 -1.3998
10151SOL    HW232461   9.270   2.992   9.416 -0.6291 -0.1522 -0.2172
10152SOL     OW32462   0.538   5.297   3.449  0.3797  0.1969  0.1220
10152SOL    HW132463   0.477   5.326   3.381  0.7056 -0.0539 -0.2866
10152SOL    HW232464   0.625   5.312   3.410  0.6019 -3.1293 -0.9277
10153SOL     OW32465   1.285   8.282   9.752  0.2627  0.6363 -0.5050
10153SOL    HW132466   1.208   8.246   9.708  0.7404 -0.4802 -0.4846
10153SOL    HW232467   1.278   8.252   9.843  1.6968 -1.2292 -0.9418
10154SOL     OW32468   0.200  10.885   1.217 -0.8600  0.2357  0.3353
10154SOL    HW132469   0.225  10.922   1.301  0.5252  0.0526  0.0264
10154SOL    HW232470   0.181  10.793   1.236  0.7616 -0.1404  0.2504
10155SOL     OW32471   2.902   7.912   8.270 -0.9353 -0.1701 -0.0252
10155SOL    HW132472   2.942   7.984   8.317 -1.6499  0.5212 -0.4593
10155SOL    HW232473   2.826   7.950   8.225 -0.9583 -1.0442 -0.7801
10156SOL     OW32474   5.737   0.205   9.571  0.2200 -0.4543  0.3655
10156SOL    HW132475   5.677   0.275   9.545  2.1190  0.1976 -2.9262
10156SOL    HW232476   5.729   0.200   9.666 -1.1726  3.1750  0.6011
10157SOL     OW32477   5.001   8.203   3.182 -0.2142  0.1548 -0.0270
10157SOL    HW132478   5.044   8.150   3.249 -0.5096  0.8279  0.7095
10157SOL    HW232479   4.970   8.280   3.229 -0.0222  0.8609 -1.0318
10158SOL     OW32480   5.122   0.380   6.697  0.0852  0.3728  0.3090
10158SOL    HW132481   5.111   0.293   6.735  1.7601  0.5521  1.3208
10158SOL    HW232482   5.050   0.431   6.733  0.3639 -0.0461  1.5259
10159SOL     OW32483   2.595  11.019   2.992  0.4243 -0.0156  0.3615
10159SOL    HW132484   2.680  10.975   2.993  0.8036  0.6772 -0.2165
10159SOL    HW232485   2.570  11.021   2.900 -0.4644 -0.6494  0.5769
10160SOL     OW32486   4.699   8.735   9.836  0.0205 -0.4351 -0.0019
10160SOL    HW132487   4.659   8.666   9.783  1.1276 -1.6701  0.7171
10160SOL    HW232488   4.655   8.815   9.808 -0.6664 -1.2968 -1.5069
10161SOL     OW32489   8.568   8.291   5.782 -0.4696 -0.2681  0.0898
10161SOL    HW132490   8.556   8.377   5.822 -1.0126 -0.7384  0.9693
10161SOL    HW232491   8.573   8.230   5.856  3.9425 -0.6216 -0.2256
10162SOL     OW32492  10.105   7.241   5.006 -0.4334 -0.4139  0.5596
10162SOL    HW132493  10.168   7.284   4.948 -1.5923  0.6538  0.0374
10162SOL    HW232494  10.119   7.148   4.991 -0.4707 -0.1786 -1.2272
10163SOL     OW32495   3.546  10.347   3.110  0.0460  0.1979  0.1270
10163SOL    HW132496   3.509  10.427   3.073 -0.9215 -0.5949 -0.6926
10163SOL    HW232497   3.487  10.324   3.183 -0.2280 -0.2632 -0.2337
10164SOL     OW32498  10.619   1.560   2.481 -0.6852  0.2873 -0.1587
10164SOL    HW132499  10.694   1.503   2.502 -0.8403  0.1732  0.0895
10164SOL    HW232500  10.598   1.539   2.390  0.5840  1.4594 -0.7618
10165SOL     OW32501   5.575  10.658   6.081  0.1286  0.8127 -0.4167
10165SOL    HW132502   5.663  10.690   6.059  0.2888  1.1806  0.7293
10165SOL    HW232503   5.517  10.731   6.061  0.0282  0.4722 -1.4479
10166SOL     OW32504   7.134   9.803   2.527 -0.0185 -0.6850  0.4906
10166SOL    HW132505   7.105   9.751   2.453 -0.0384 -0.6412  0.4683
10166SOL    HW232506   7.150   9.891   2.491 -0.7104 -0.4757  0.6756
10167SOL     OW32507   4.055   4.865   0.970 -0.3612 -0.4873  0.6821
10167SOL    HW132508   4.122   4.926   0.940  0.5634 -1.0934  1.4369
10167SOL    HW232509   3.975   4.916   0.973  0.1116  0.3218  0.0044
10168SOL     OW32510   4.503   1.558   2.160 -0.4549  0.5294 -0.0076
10168SOL    HW132511   4.491   1.629   2.097 -0.2411 -0.2462 -0.9669
10168SOL    HW232512   4.573   1.504   2.121  0.3076  0.5076  1.3483
10169SOL     OW32513   4.945   3.527   1.079 -0.0091  0.2049  0.3667
10169SOL    HW132514   4.892   3.489   1.150  1.4853 -0.6036  1.0922
10169SOL    HW232515   4.898   3.607   1.055 -1.8453 -0.7387  0.5970
10170SOL     OW32516   3.216  10.796   5.369 -0.1904  0.4181  0.8942
10170SOL    HW132517   3.276  10.835   5.304  0.7821 -2.5612 -0.1531
10170SOL    HW232518   3.145  10.758   5.317  0.1637 -1.2796  1.5729
10171SOL     OW32519   4.752   1.172   6.585  0.0811  0.4689  0.0726
10171SOL    HW132520   4.846   1.183   6.599  0.0081  0.8737  0.2622
10171SOL    HW232521   4.741   1.176   6.490  0.1675  1.2288  0.0850
10172SOL     OW32522   1.508   4.712   7.041 -0.7125  0.1074  0.0571
10172SOL    HW132523   1.418   4.678   7.037 -0.7040  0.1389 -0.4724
10172SOL    HW232524   1.563   4.635   7.028 -0.6686  0.1237  0.1507
10173SOL     OW32525   9.193   0.502   8.229  0.1973  0.5996 -0.0886
10173SOL    HW132526   9.170   0.426   8.282  0.2107  0.6144 -0.0612
10173SOL    HW232527   9.153   0.486   8.144  0.8281  0.2018 -0.3195
10174SOL     OW32528   8.013   4.708   4.127 -0.0054 -0.0351  0.5740
10174SOL    HW132529   7.957   4.743   4.058 -0.3045  1.5769  1.5963
10174SOL    HW232530   7.968   4.628   4.156 -0.4827 -0.0854 -0.2771
10175SOL     OW32531   5.135   7.673   0.216  0.1069 -0.1191  0.2301
10175SOL    HW132532   5.220   7.714   0.200  0.4436 -1.1740 -0.8013
10175SOL    HW232533   5.141   7.640   0.306  1.2116 -1.1327 -0.1845
10176SOL     OW32534  10.803   8.092   4.221  0.2509  0.1108  0.0943
10176SOL    HW132535  10.804   8.020   4.158 -0.5720  1.1546 -1.1503
10176SOL    HW232536  10.892   8.127   4.219  0.0206  0.6996 -1.2063
10177SOL     OW32537   8.249   6.009   1.329  0.2444 -0.3261  0.1930
10177SOL    HW132538   8.160   6.015   1.294 -0.8583 -4.6651  1.6623
10177SOL    HW232539   8.289   6.092   1.305 -3.3432  0.8327 -2.8228
10178SOL     OW32540   9.990   5.047   0.715  0.5208 -0.0276  0.0726
10178SOL    HW132541   9.950   4.963   0.693  1.1028 -0.5694  1.0142
10178SOL    HW232542  10.085   5.031   0.710  0.6477  0.7778 -0.4666
10179SOL     OW32543   8.916  10.895   1.780  0.1927  0.2121  0.1373
10179SOL    HW132544   9.011  10.888   1.791  0.2005 -0.4647 -0.2737
10179SOL    HW232545   8.894  10.824   1.720 -0.5894  0.3002  0.3094
10180SOL     OW32546   3.590   6.148   2.095 -0.4748  0.0362 -0.0913
10180SOL    HW132547   3.670   6.098   2.080 -1.3619 -0.8351 -2.3929
10180SOL    HW232548   3.597   6.222   2.035 -0.3258  1.3630  1.4858
10181SOL     OW32549   1.317   9.649   7.107  0.5526  0.1903  0.7630
10181SOL    HW132550   1.263   9.584   7.063 -1.6221  1.1331  1.8462
10181SOL    HW232551   1.399   9.649   7.059  0.0647 -2.2238 -0.2105
10182SOL     OW32552   2.547   2.418   1.272  0.1850  0.3404 -0.2710
10182SOL    HW132553   2.620   2.479   1.275  0.0154  0.5870 -0.9940
10182SOL    HW232554   2.549   2.382   1.184 -1.6158  1.6695 -0.9039
10183SOL     OW32555   2.856   7.277  10.024  0.4790  0.2339 -0.0412
10183SOL    HW132556   2.891   7.291   9.936  0.0264 -1.5871 -0.5518
10183SOL    HW232557   2.922   7.316  10.082  2.3233 -1.1576 -1.0746
10184SOL     OW32558   5.310   2.796   5.703 -0.0632 -0.1940  0.0700
10184SOL    HW132559   5.297   2.891   5.699 -0.0566 -0.1705  0.5817
10184SOL    HW232560   5.335   2.779   5.794  1.0532 -0.5446 -0.2876
10185SOL     OW32561   2.598   8.528   1.954 -0.2557  0.2093  0.2965
10185SOL    HW132562   2.692   8.508   1.945 -0.1735  0.7612 -0.1800
10185SOL    HW232563   2.590   8.617   1.918 -1.0201  0.0345  0.0367
10186SOL     OW32564   2.548   0.202   0.662  0.1488 -0.4181 -0.5157
10186SOL    HW132565   2.506   0.273   0.613 -0.1410  0.5248  1.0471
10186SOL    HW232566   2.636   0.235   0.681 -1.3994  1.6864  4.2706
10187SOL     OW32567   1.538   3.941   4.763  0.7551 -0.4582 -0.1572
10187SOL    HW132568   1.503   3.941   4.674  0.1291  0.2485  0.0830
10187SOL    HW232569   1.625   3.980   4.755  0.3464  0.4340 -0.3316
10188SOL     OW32570   6.504   8.940   2.915 -0.5832 -0.0076 -0.1266
10188SOL    HW132571   6.542   8.956   3.001 -0.7645 -2.0824  0.4008
10188SOL    HW232572   6.580   8.926   2.858 -0.4481  1.8489 -0.4525
10189SOL     OW32573   2.340  10.415  10.914  0.2859  0.1773  0.4400
10189SOL    HW132574   2.352  10.446  11.004  0.2825  0.1601  0.4463
10189SOL    HW232575   2.313  10.493  10.866 -1.0557 -0.0950  0.7254
10190SOL     OW32576   4.368   6.470   7.259 -0.8577 -0.4642 -0.2896
10190SOL    HW132577   4.451   6.424   7.243 -0.8497 -0.6766  0.3100
10190SOL    HW232578   4.373   6.495   7.352 -0.8205  0.8481 -0.6264
10191SOL     OW32579  10.048   7.311  10.720 -0.3193  0.5307 -0.1092
10191SOL    HW132580  10.090   7.240  10.769 -0.7220  0.4966  0.1914
10191SOL    HW232581   9.972   7.270  10.678 -1.1778  1.0031  0.9429
10192SOL     OW32582   5.828   6.403   5.451  0.2084  0.1455 -0.3763
10192SOL    HW132583   5.818   6.355   5.368  2.2350  1.3312 -1.4005
10192SOL    HW232584   5.774   6.355   5.513 -1.2980 -0.8633 -2.3512
10193SOL     OW32585   3.316   0.794   8.315  0.2459 -0.5643  0.2144
10193SOL    HW132586   3.309   0.857   8.387 -2.3420  0.6563 -0.9369
10193SOL    HW232587   3.379   0.833   8.255 -0.1145  0.1341  0.2785
10194SOL     OW32588   9.893  10.566   5.930 -0.6108  0.1644 -0.8543
10194SOL    HW132589   9.830  10.631   5.900 -0.3819  0.8197  0.0386
10194SOL    HW232590   9.848  10.482   5.921 -1.2320  0.5288 -1.1840
10195SOL     OW32591   8.732   5.216   1.585  0.5187 -0.1518 -0.0495
10195SOL    HW132592   8.640   5.219   1.611  0.5667  0.1399  0.0921
10195SOL    HW232593   8.736   5.266   1.504  1.0112  2.2297  1.3625
10196SOL     OW32594  10.929   0.774   4.478 -0.1729 -0.1239 -0.0739
10196SOL    HW132595  10.956   0.829   4.551 -1.2125  0.7717 -0.3399
10196SOL    HW232596  10.903   0.836   4.409 -2.4916 -0.8759  0.0265
10197SOL     OW32597   5.814   7.065   9.403  0.0799  0.2395 -0.2294
10197SOL    HW132598   5.891   7.050   9.459  0.4335  1.4802 -0.3614
10197SOL    HW232599   5.740   7.065   9.464  0.2396 -0.3489 -0.0241
10198SOL     OW32600   7.099   1.894   2.403 -0.2050  0.2343  0.3030
10198SOL    HW132601   7.115   1.912   2.310 -2.6338 -1.2345 -0.5338
10198SOL    HW232602   7.184   1.902   2.445  1.2510 -0.3270 -2.3019
10199SOL     OW32603   9.224   6.392   1.474 -0.0040 -0.1638  0.4187
10199SOL    HW132604   9.193   6.482   1.464  0.6461  0.0157 -0.0610
10199SOL    HW232605   9.213   6.353   1.387  1.4229  0.0183  0.1198
10200SOL     OW32606   8.745   7.999   2.470  0.3257 -0.1650 -0.5568
10200SOL    HW132607   8.738   8.030   2.380 -1.5411 -1.8438 -1.0454
10200SOL    HW232608   8.760   8.079   2.521 -0.3710  1.0461 -2.1611
10201SOL     OW32609   2.889   0.183   6.863  0.0617  0.5594  0.5319
10201SOL    HW132610   2.961   0.245   6.860  0.0946  0.4978 -0.1679
10201SOL    HW232611   2.827   0.220   6.926 -0.4257  1.8805 -0.6652
10202SOL     OW32612   3.458   1.525   7.750 -0.8269 -0.1940  0.6712
10202SOL    HW132613   3.493   1.546   7.837 -0.7394 -0.1997  0.6381
10202SOL    HW232614   3.499   1.441   7.728  1.4000  1.1088 -0.5661
10203SOL     OW32615   7.081   4.501   6.117  0.2136  0.2480  0.4623
10203SOL    HW132616   7.105   4.520   6.026  1.9314  0.8426  0.9954
10203SOL    HW232617   7.148   4.440   6.147 -0.2357  0.1932  1.3830
10204SOL     OW32618   8.124   6.261   4.691  0.2033  0.2218 -0.5972
10204SOL    HW132619   8.049   6.203   4.702 -0.9691  1.4465 -1.6458
10204SOL    HW232620   8.170   6.257   4.775 -0.4320 -1.3549 -0.2776
10205SOL     OW32621   2.806   7.874   5.931  0.0250 -0.5108 -0.3209
10205SOL    HW132622   2.762   7.886   6.015  1.1639  1.6365  0.0655
10205SOL    HW232623   2.761   7.934   5.872  0.0264 -1.0909 -0.9191
10206SOL     OW32624   8.577   7.114   9.063  0.4064  0.1730 -0.0191
10206SOL    HW132625   8.609   7.204   9.059  1.5474 -0.1832  0.7366
10206SOL    HW232626   8.648   7.064   9.103 -0.5723 -0.9026  0.4675
10207SOL     OW32627   8.945   6.940   5.492  0.6002  0.6275 -0.2793
10207SOL    HW132628   8.944   7.031   5.521 -1.3717  0.7885 -0.7373
10207SOL    HW232629   9.038   6.917   5.489  1.0698  1.9841  1.7539
10208SOL     OW32630   2.467   5.188   0.215  0.6190 -0.0276 -0.2977
10208SOL    HW132631   2.443   5.205   0.124  1.6234  0.7088 -0.4461
10208SOL    HW232632   2.395   5.136   0.250 -0.4833  0.9400 -1.0864
10209SOL     OW32633   5.779   0.629   4.629  0.6866 -0.1123  0.3395
10209SOL    HW132634   5.841   0.686   4.673  0.1142  1.0783 -0.3474
10209SOL    HW232635   5.806   0.630   4.537  0.8429 -1.1951  0.3602
10210SOL     OW32636   5.067   5.442   2.488  0.4087 -0.4596  0.2346
10210SOL    HW132637   5.024   5.524   2.510  0.6053 -0.5396  0.9306
10210SOL    HW232638   5.139   5.468   2.430 -0.6837 -0.3504 -1.1517
10211SOL     OW32639   9.169   6.373   2.293  0.5107 -0.4587 -0.1834
10211SOL    HW132640   9.222   6.453   2.302  0.4390 -0.5544  1.2826
10211SOL    HW232641   9.132   6.379   2.205  0.5891  1.0788 -0.1365
10212SOL     OW32642   5.710   5.441   4.524 -0.2085  0.0391  0.3192
10212SOL    HW132643   5.629   5.434   4.474 -1.6181 -0.7178  2.5883
10212SOL    HW232644   5.706   5.528   4.564 -0.1345 -0.1785  0.8038
10213SOL     OW32645   9.254   0.658   9.406 -0.1079  0.4892 -0.6743
10213SOL    HW132646   9.251   0.570   9.442  1.3960 -0.2000 -2.1212
10213SOL    HW232647   9.268   0.715   9.482  0.4281 -0.6571  0.1054
10214SOL     OW32648   3.965   9.459   2.601 -0.1796  0.3783  0.2748
10214SOL    HW132649   3.893   9.517   2.626 -0.0507  0.9224 -0.6149
10214SOL    HW232650   4.014   9.507   2.535  1.1069  0.0752  0.9773
10215SOL     OW32651   8.595   2.046   0.673 -0.5835 -0.2880  0.2451
10215SOL    HW132652   8.559   2.090   0.596 -0.8394 -0.0541  0.4953
10215SOL    HW232653   8.577   1.953   0.658 -2.1694 -0.0920  0.8141
10216SOL     OW32654   2.566   4.962   1.134 -0.6379 -0.0069  0.1209
10216SOL    HW132655   2.600   5.008   1.210 -0.3834 -2.0634  1.3265
10216SOL    HW232656   2.515   5.028   1.087  1.5492  2.0965  0.4790
10217SOL     OW32657   8.134   2.771   7.846 -0.1261  0.1285  0.5822
10217SOL    HW132658   8.184   2.788   7.926  0.4691 -0.9089  0.4543
10217SOL    HW232659   8.136   2.675   7.837 -0.9087  0.1802 -0.2129
10218SOL     OW32660   9.037   0.417   8.616  0.4321 -0.2055 -0.0835
10218SOL    HW132661   8.965   0.427   8.553  0.4900  0.1257 -0.1012
10218SOL    HW232662   9.030   0.327   8.646 -1.2472  0.3828  1.4401
10219SOL     OW32663   1.923   2.764   3.386 -0.3398 -0.2317 -0.1221
10219SOL    HW132664   2.013   2.734   3.373 -0.0565  0.9785 -1.2364
10219SOL    HW232665   1.886   2.770   3.298 -0.9983  0.7595  0.1873
10220SOL     OW32666   8.197  10.430   6.012  0.0996 -0.2040 -0.2786
10220SOL    HW132667   8.282  10.471   6.028 -0.6895  1.0370  0.9528
10220SOL    HW232668   8.181  10.376   6.089 -0.4910  0.0402 -0.2245
10221SOL     OW32669   8.085  10.200   8.688  0.5734  0.6299  0.1008
10221SOL    HW132670   8.115  10.182   8.777 -2.9436  3.1709  2.0622
10221SOL    HW232671   8.043  10.119   8.659 -0.1938  0.4088  1.7313
10222SOL     OW32672   5.542   8.780   0.456  0.3026 -0.0612 -0.7131
10222SOL    HW132673   5.555   8.872   0.479 -1.0919  0.0970 -0.4326
10222SOL    HW232674   5.518   8.781   0.364  0.9699 -0.2224 -0.8944
10223SOL     OW32675   5.769   8.799   8.878  0.0214  0.1338 -0.1942
10223SOL    HW132676   5.686   8.808   8.925  0.4537 -0.3833  0.6728
10223SOL    HW232677   5.834   8.837   8.936  0.8036 -1.9497  0.3953
10224SOL     OW32678   1.286   7.268   7.775 -0.5753 -0.0936 -0.1216
10224SOL    HW132679   1.214   7.331   7.785  0.7209  1.1239  2.4504
10224SOL    HW232680   1.270   7.203   7.844 -0.4635 -1.1697 -1.0824
10225SOL     OW32681   0.907   7.453   6.531  0.4937 -0.3332 -0.1105
10225SOL    HW132682   0.835   7.516   6.537 -0.7599 -1.4582 -2.1202
10225SOL    HW232683   0.870   7.379   6.483  2.8036 -1.2743 -0.5712
10226SOL     OW32684   3.442   5.944   6.924 -0.0561 -0.7038  0.5000
10226SOL    HW132685   3.417   6.025   6.879 -0.4688  0.1842  2.2390
10226SOL    HW232686   3.536   5.936   6.907  0.0790  0.3863  0.6423
10227SOL     OW32687   7.020   6.853   0.918  0.4870  0.0595  0.2096
10227SOL    HW132688   6.936   6.854   0.870  1.2619 -0.5742 -1.2339
10227SOL    HW232689   7.026   6.765   0.954 -0.0561  0.5109  1.4762
10228SOL     OW32690   9.483   7.293   8.619 -0.6171  0.0629  0.1290
10228SOL    HW132691   9.477   7.370   8.675 -1.3362 -0.8561  1.3789
10228SOL    HW232692   9.393   7.276   8.591 -0.6541 -0.9459  0.7829
10229SOL     OW32693   2.604   6.675  10.004 -0.2319  0.3937  0.2948
10229SOL    HW132694   2.521   6.654  10.046 -0.8622  2.9091  0.4341
10229SOL    HW232695   2.629   6.760  10.039  0.6222  1.3274 -2.3345
10230SOL     OW32696   0.587   8.909   5.269  0.1008  0.2188 -0.2786
10230SOL    HW132697   0.636   8.826   5.275 -0.6651 -0.1422  3.2667
10230SOL    HW232698   0.646   8.974   5.307 -0.5763  0.5845  0.1719
10231SOL     OW32699   6.400   1.138   4.069 -0.2581 -0.5640  0.6047
10231SOL    HW132700   6.344   1.215   4.076 -0.8012 -0.9547  0.6357
10231SOL    HW232701   6.438   1.127   4.156  1.0011  0.5349  0.2237
10232SOL     OW32702   1.039   3.866   5.335 -0.3339  0.5346  0.4549
10232SOL    HW132703   1.006   3.949   5.300 -0.1844  0.0039 -1.0277
10232SOL    HW232704   1.101   3.835   5.268 -1.1785 -1.2842  0.4572
10233SOL     OW32705   5.535   7.819   4.032 -0.2525 -0.0169 -0.4512
10233SOL    HW132706   5.516   7.794   4.122 -0.2078 -0.4297 -0.5515
10233SOL    HW232707   5.584   7.901   4.039  0.3974 -0.4306 -0.0605
10234SOL     OW32708   3.477  10.087   8.752  0.2968  0.0273  0.1673
10234SOL    HW132709   3.401  10.099   8.809  0.1752  0.0749 -0.0060
10234SOL    HW232710   3.453  10.129   8.669  0.4306 -0.1391  0.0416
10235SOL     OW32711   1.449   6.046   3.923  0.9230 -0.1449  0.4351
10235SOL    HW132712   1.540   6.069   3.904  1.5632 -2.0972  0.9490
10235SOL    HW232713   1.451   5.951   3.938 -1.0223 -0.0589  1.4703
10236SOL     OW32714   5.641   4.093   5.830 -0.1508  0.3530 -0.5577
10236SOL    HW132715   5.661   4.183   5.806  0.4725  0.3964  0.0706
10236SOL    HW232716   5.558   4.074   5.787  0.7300  0.5258 -2.4303
10237SOL     OW32717   2.982   5.757   8.216  0.1625  0.3960  0.0510
10237SOL    HW132718   3.066   5.773   8.259 -0.4055 -1.0207  1.7842
10237SOL    HW232719   2.923   5.822   8.254 -0.1029 -0.2195  0.7132
10238SOL     OW32720   4.085   3.106   8.901  0.0905 -0.2502  0.3473
10238SOL    HW132721   4.125   3.074   8.820 -0.5184 -0.8136  0.2665
10238SOL    HW232722   4.093   3.033   8.963 -1.5209 -0.6769  0.0880
10239SOL     OW32723   8.371   8.997   0.826 -0.0551 -0.4126 -0.5279
10239SOL    HW132724   8.367   8.995   0.922  0.4603 -0.3855 -0.5066
10239SOL    HW232725   8.419   9.077   0.806 -1.6719  0.5356 -0.8587
10240SOL     OW32726   5.777   1.883   7.503 -0.0264 -0.0585  0.0271
10240SOL    HW132727   5.803   1.925   7.421 -0.5339 -1.7848 -1.0754
10240SOL    HW232728   5.683   1.900   7.510 -0.1506 -0.6332 -0.2050
10241SOL     OW32729   8.054   0.351   4.908  0.2760 -0.1755 -0.1388
10241SOL    HW132730   7.988   0.284   4.926  1.0298 -0.7449  0.6175
10241SOL    HW232731   8.081   0.334   4.817  0.2914 -0.7600 -0.0289
10242SOL     OW32732   6.141   7.302   2.855  0.2271  0.3334 -0.2795
10242SOL    HW132733   6.205   7.231   2.859 -1.8140 -1.7237 -1.3997
10242SOL    HW232734   6.056   7.258   2.859 -1.1462  2.7939 -0.3340
10243SOL     OW32735   2.288   8.437   8.418  0.8067 -0.3517  0.1964
10243SOL    HW132736   2.317   8.526   8.396  1.0459 -0.5858 -0.4594
10243SOL    HW232737   2.308   8.428   8.511  2.6079 -0.4083 -0.1537
10244SOL     OW32738   0.003   6.420   6.738  0.1346  0.5982 -0.1215
10244SOL    HW132739   0.016   6.506   6.777  1.6530  0.5301 -0.4188
10244SOL    HW232740   0.089   6.378   6.743 -0.4027 -0.6135 -0.6554
10245SOL     OW32741  11.025   4.099   3.846 -0.5644  0.0735 -0.6149
10245SOL    HW132742  11.054   4.134   3.931  0.9507 -0.8671 -0.7266
10245SOL    HW232743  10.929   4.101   3.852 -0.4940  0.7168  0.8244
10246SOL     OW32744  10.021   1.822   5.118 -0.3022 -0.2637  0.0214
10246SOL    HW132745  10.041   1.740   5.162  0.5808  0.5132  1.1464
10246SOL    HW232746  10.106   1.853   5.085 -0.2822  1.0668  1.2295
10247SOL     OW32747   7.157  10.477   2.782  0.1869 -0.1291 -0.1221
10247SOL    HW132748   7.168  10.382   2.777  0.6481 -0.2283  1.8646
10247SOL    HW232749   7.062  10.490   2.787  0.1069 -0.4477 -0.6809
10248SOL     OW32750   3.639   9.020   8.719  0.3268  0.0118  0.2502
10248SOL    HW132751   3.723   9.066   8.716  0.5284 -0.3891 -0.5604
10248SOL    HW232752   3.612   9.014   8.627 -2.7341  4.0437  0.6168
10249SOL     OW32753   8.001   5.862   2.427  0.1786 -0.1645 -0.0576
10249SOL    HW132754   8.042   5.929   2.482  1.3306 -0.4179 -0.5656
10249SOL    HW232755   7.936   5.910   2.375  2.2347  1.0048 -1.7645
10250SOL     OW32756   7.010   8.538   2.914  0.2287  0.1337 -0.4336
10250SOL    HW132757   7.004   8.444   2.900 -0.9547  0.1779 -0.3453
10250SOL    HW232758   7.065   8.570   2.842 -1.6004 -0.2881 -2.1173
10251SOL     OW32759   2.789   9.995   1.089 -0.4112 -0.3350 -0.0555
10251SOL    HW132760   2.726  10.016   1.158  0.5901  1.4896  0.3858
10251SOL    HW232761   2.872   9.981   1.135 -0.1621 -1.2087 -0.7390
10252SOL     OW32762   1.271   8.513   0.408 -0.1099  0.0752 -0.1270
10252SOL    HW132763   1.310   8.535   0.492 -0.3620 -0.3708  0.1140
10252SOL    HW232764   1.185   8.555   0.410  0.5453  1.5165 -0.8813
10253SOL     OW32765   7.576   1.498   9.129 -0.4252 -0.2416 -0.2964
10253SOL    HW132766   7.557   1.566   9.194  0.6424 -0.1382 -0.0795
10253SOL    HW232767   7.633   1.540   9.066  1.0046 -1.1709  0.3371
10254SOL     OW32768   3.427   5.378   8.575 -0.1832  0.4685  0.5872
10254SOL    HW132769   3.425   5.288   8.609 -0.8452  0.1178 -0.3364
10254SOL    HW232770   3.412   5.432   8.652 -0.6346 -0.2594  1.0323
10255SOL     OW32771   3.180   1.071   1.852 -0.5061 -0.1590  0.1552
10255SOL    HW132772   3.189   1.046   1.944 -0.1957 -0.2213  0.1090
10255SOL    HW232773   3.086   1.082   1.839 -0.6278 -1.0611  0.2394
10256SOL     OW32774   8.245   1.787   7.274 -0.5598 -0.0599  0.5458
10256SOL    HW132775   8.333   1.809   7.303  0.4459 -2.2199 -0.5912
10256SOL    HW232776   8.192   1.864   7.294  1.5891  1.3092  1.2200
10257SOL     OW32777   0.789   1.172   1.350  0.7028 -0.0850  0.1370
10257SOL    HW132778   0.725   1.105   1.328  0.0542  1.0998 -1.8894
10257SOL    HW232779   0.847   1.131   1.415 -0.6860 -1.9665  0.2437
10258SOL     OW32780   8.113   6.675   9.281 -0.0760 -0.2162  0.4171
10258SOL    HW132781   8.141   6.732   9.210 -0.8940 -1.0710 -0.6332
10258SOL    HW232782   8.122   6.728   9.360 -1.7548  1.7611 -0.6093
10259SOL     OW32783   3.457  10.596  10.508 -1.2312  0.3268  0.4170
10259SOL    HW132784   3.407  10.676  10.492 -1.5419  0.0073 -0.2277
10259SOL    HW232785   3.416  10.530  10.452 -0.3789 -0.0550  0.2238
10260SOL     OW32786   1.665   0.480   5.287 -0.0458  0.0840  0.6337
10260SOL    HW132787   1.613   0.472   5.367 -2.1094  0.2452 -0.6198
10260SOL    HW232788   1.689   0.572   5.283 -1.8871  0.5947 -0.0019
10261SOL     OW32789   6.896   2.217   3.635 -0.4163  0.6833  0.4945
10261SOL    HW132790   6.907   2.309   3.612  0.8339  0.3372 -0.4288
10261SOL    HW232791   6.850   2.178   3.561  1.8296 -0.0233 -0.6456
10262SOL     OW32792   0.254   0.080   2.650  0.5246  0.3452  0.1879
10262SOL    HW132793   0.224   0.132   2.575 -0.9967 -2.0183 -0.9588
10262SOL    HW232794   0.205   0.114   2.724 -0.6223  0.4353 -0.5832
10263SOL     OW32795   8.887   6.072   0.831  0.3884  0.2628 -0.2657
10263SOL    HW132796   8.878   6.042   0.921 -1.1675  0.7752 -0.2219
10263SOL    HW232797   8.895   6.167   0.837 -0.0266  0.3291 -0.6717
10264SOL     OW32798   4.462   3.797   5.656 -0.3773  0.3616  0.2918
10264SOL    HW132799   4.497   3.816   5.743 -0.4177  1.0602  0.1553
10264SOL    HW232800   4.489   3.870   5.602  0.3005 -0.4378 -0.4821
10265SOL     OW32801   9.668   7.961   5.618  0.0032  0.0830 -0.3284
10265SOL    HW132802   9.681   8.014   5.540  0.4687  1.2480  0.5140
10265SOL    HW232803   9.588   7.994   5.658  0.0297 -0.1777 -0.0510
10266SOL     OW32804   7.189   0.351   3.632 -0.6026  0.4209  0.5534
10266SOL    HW132805   7.126   0.412   3.594 -0.5305  0.0032 -0.2494
10266SOL    HW232806   7.271   0.400   3.634  0.0031 -0.3008 -2.1534
10267SOL     OW32807   3.946   6.484   2.701  0.3592  0.4041  0.1079
10267SOL    HW132808   3.890   6.406   2.693 -0.9560  1.4545 -1.8392
10267SOL    HW232809   4.020   6.465   2.643  0.1749  0.4890 -0.1568
10268SOL     OW32810  10.258   5.812   2.179  0.4119 -0.0502  0.2837
10268SOL    HW132811  10.203   5.775   2.109 -0.8434  1.1887  0.5763
10268SOL    HW232812  10.260   5.744   2.246 -1.8501  0.3276  0.8115
10269SOL     OW32813   7.931   1.892   3.231  0.8087  0.3748  0.2338
10269SOL    HW132814   8.026   1.886   3.240  0.8190  1.8850  1.4507
10269SOL    HW232815   7.897   1.820   3.285  1.2387  1.4284  1.9973
10270SOL     OW32816   1.119  10.557   2.559  0.2871  0.0033  0.1819
10270SOL    HW132817   1.160  10.494   2.618  1.2223  0.0310 -0.4269
10270SOL    HW232818   1.028  10.527   2.550  0.9403 -1.7980 -0.8266
10271SOL     OW32819   1.307  10.506   3.989  0.6073 -0.0536  0.5784
10271SOL    HW132820   1.259  10.426   4.013  0.3774 -1.1220 -2.8651
10271SOL    HW232821   1.244  10.557   3.938  1.8727  0.4401 -0.5580
10272SOL     OW32822   5.271   4.330   1.511  0.5428 -0.5498  0.1715
10272SOL    HW132823   5.230   4.315   1.426 -0.0901  0.6948  0.2411
10272SOL    HW232824   5.311   4.246   1.533  1.2171 -0.7531 -1.6204
10273SOL     OW32825   3.048  10.520  10.348  0.3134  0.5102  0.2395
10273SOL    HW132826   2.957  10.548  10.345 -0.2198 -1.1378  0.0006
10273SOL    HW232827   3.056  10.453  10.280  1.9964  1.3857 -0.4881
10274SOL     OW32828   1.255   9.355   5.237 -0.4887  0.2700  0.7226
10274SOL    HW132829   1.193   9.298   5.192 -0.0471  0.4058 -0.0917
10274SOL    HW232830   1.301   9.298   5.299 -1.0604  0.0596  0.9545
10275SOL     OW32831   9.118   2.674   7.835 -0.0070  0.4785 -0.0356
10275SOL    HW132832   9.119   2.733   7.760  0.3511  0.8258  0.2382
10275SOL    HW232833   9.175   2.716   7.899 -0.0789  0.0389  0.3193
10276SOL     OW32834   6.191   8.284   4.456  0.0930 -0.7180 -0.7520
10276SOL    HW132835   6.161   8.229   4.384  0.3343 -0.3774 -1.1153
10276SOL    HW232836   6.121   8.280   4.520 -0.7950  0.1721 -1.6395
10277SOL     OW32837   1.213   7.925   0.359  0.4411  1.1224  0.2964
10277SOL    HW132838   1.125   7.888   0.352  0.2977  1.3082  1.0145
10277SOL    HW232839   1.218   7.989   0.288  0.8317 -0.5191 -1.2157
10278SOL     OW32840   6.144  10.916   9.059  0.3094 -0.5594  0.4434
10278SOL    HW132841   6.222  10.969   9.042 -0.4288 -0.2388 -2.4219
10278SOL    HW232842   6.071  10.973   9.038 -0.5371 -2.2268 -1.4770
10279SOL     OW32843   0.942   0.676   8.550 -0.0864 -0.3778 -0.2154
10279SOL    HW132844   0.895   0.602   8.513 -0.1181 -0.3296 -0.2725
10279SOL    HW232845   0.988   0.640   8.626 -1.7181 -0.0529  0.9926
10280SOL     OW32846   5.700   3.743   2.123  0.6197  0.5663 -0.2006
10280SOL    HW132847   5.771   3.761   2.061  1.0749 -0.8698 -0.1330
10280SOL    HW232848   5.644   3.820   2.118  2.0009  1.6002 -0.5133
10281SOL     OW32849   1.910   3.040   9.920  0.6653  0.2846  0.2290
10281SOL    HW132850   1.832   2.988   9.940  1.2009 -0.1568  1.2454
10281SOL    HW232851   1.970   2.979   9.878  0.1988  0.8065 -1.2582
10282SOL     OW32852   6.498   0.981   9.433 -0.0014 -0.4269  0.3172
10282SOL    HW132853   6.475   1.048   9.370 -0.3190 -0.3194  0.5420
10282SOL    HW232854   6.414   0.940   9.456  0.1634 -0.7628  0.3348
10283SOL     OW32855  10.193   2.262   8.076 -0.0813  0.0041  0.2384
10283SOL    HW132856  10.112   2.287   8.032 -0.3925 -0.1442  0.7140
10283SOL    HW232857  10.259   2.321   8.040 -0.4215  0.1897 -0.0851
10284SOL     OW32858   2.194   3.662   9.600  0.5621 -0.3101  0.7940
10284SOL    HW132859   2.217   3.608   9.525 -0.9175  0.7409 -0.4826
10284SOL    HW232860   2.134   3.609   9.651 -0.0395 -0.2775  0.1250
10285SOL     OW32861  10.223   4.047   9.273 -0.2088 -0.0487 -0.2373
10285SOL    HW132862  10.199   3.956   9.289 -0.1173  0.0347  0.4128
10285SOL    HW232863  10.295   4.043   9.210 -0.0028 -0.4423  0.0190
10286SOL     OW32864   6.420   1.270   3.008 -0.3011  0.7643  0.4145
10286SOL    HW132865   6.474   1.283   3.086  0.4273  1.0250 -0.1264
10286SOL    HW232866   6.462   1.198   2.961  0.1399  1.5879 -0.4857
10287SOL     OW32867   4.643  10.637   1.258  0.1626 -0.1068  0.1079
10287SOL    HW132868   4.615  10.694   1.186  1.1663 -0.1140 -0.3164
10287SOL    HW232869   4.716  10.684   1.299  0.0704 -0.4368  0.6603
10288SOL     OW32870  10.177   4.519   9.738 -0.2973 -0.1800  0.2899
10288SOL    HW132871  10.157   4.492   9.648  0.5499  0.7278 -0.1910
10288SOL    HW232872  10.092   4.522   9.782 -0.9403  1.0491 -0.9661
10289SOL     OW32873   2.273   0.668   8.549  0.2578 -0.2916  0.0747
10289SOL    HW132874   2.323   0.732   8.499 -1.2024  0.1031 -0.9546
10289SOL    HW232875   2.311   0.670   8.636  1.3416  0.7380 -0.3971
10290SOL     OW32876   2.047   4.104   8.979  0.1879 -0.1245 -0.1510
10290SOL    HW132877   2.040   4.161   8.903 -1.2206 -0.9773 -0.6862
10290SOL    HW232878   1.957   4.081   9.001  0.5456  0.1727  1.8553
10291SOL     OW32879   8.300   1.419   3.168  0.1649 -0.2625  0.0471
10291SOL    HW132880   8.389   1.412   3.132  0.3330  0.2792  0.3374
10291SOL    HW232881   8.278   1.512   3.158 -0.2579 -0.3408  0.2414
10292SOL     OW32882  10.532   8.476   5.229 -0.6471 -0.4309 -0.0252
10292SOL    HW132883  10.450   8.520   5.206 -0.2289  0.5865  0.3959
10292SOL    HW232884  10.566   8.525   5.303  0.4128 -0.7603 -0.2749
10293SOL     OW32885   9.302   1.869   6.919 -0.1704  0.4080 -0.2816
10293SOL    HW132886   9.248   1.904   6.848 -2.3728 -2.8716 -0.4100
10293SOL    HW232887   9.263   1.905   6.999 -1.4614 -0.5167 -0.4731
10294SOL     OW32888   7.332   3.968   2.491 -0.0842 -0.5367  0.1923
10294SOL    HW132889   7.260   4.008   2.443 -0.7005 -0.8732  0.8300
10294SOL    HW232890   7.339   3.879   2.456 -0.1535 -0.5892  0.3091
10295SOL     OW32891  10.275   5.104   5.637  0.5435  0.4031  0.4791
10295SOL    HW132892  10.217   5.050   5.583 -0.3472 -1.2122  2.8825
10295SOL    HW232893  10.257   5.194   5.608  0.7846 -0.3922 -2.4501
10296SOL     OW32894   1.761   5.117   2.120  0.0148  0.1463 -0.3874
10296SOL    HW132895   1.695   5.067   2.073 -0.1057  1.3444 -1.5617
10296SOL    HW232896   1.714   5.193   2.154 -0.0131 -0.9224  2.1987
10297SOL     OW32897   0.846   4.575   3.905 -0.0873  0.4196 -0.0450
10297SOL    HW132898   0.816   4.588   3.815 -3.0114  0.2691  0.8139
10297SOL    HW232899   0.824   4.484   3.925 -3.0842  1.4413  1.9501
10298SOL     OW32900   5.747   2.389   6.705  0.2866  0.0981  0.5516
10298SOL    HW132901   5.767   2.330   6.632  0.8848  0.7873  0.1405
10298SOL    HW232902   5.665   2.432   6.679  1.0060  1.0625 -0.1918
10299SOL     OW32903   5.692   2.047  10.733 -0.1867  0.3221  0.2143
10299SOL    HW132904   5.751   2.120  10.752 -1.4162  1.3644  0.1802
10299SOL    HW232905   5.744   1.969  10.751  1.1664  1.1981  0.2626
10300SOL     OW32906   1.381   3.730   7.578  0.1748  0.2941 -0.8807
10300SOL    HW132907   1.301   3.759   7.533 -1.1663 -1.1975  0.3907
10300SOL    HW232908   1.388   3.789   7.653  0.0333  0.1885 -0.7832
10301SOL     OW32909   8.166   5.661   3.958  0.2848  0.1870  0.3194
10301SOL    HW132910   8.229   5.643   4.028  0.4321  1.3837  0.5144
10301SOL    HW232911   8.117   5.738   3.989  0.1258  0.5265 -0.7422
10302SOL     OW32912  10.082   2.665   0.931 -0.1040 -0.1956  0.3964
10302SOL    HW132913  10.133   2.660   1.012  2.0003 -0.5899 -0.8660
10302SOL    HW232914  10.049   2.755   0.928  1.1056  0.2818  0.9396
10303SOL     OW32915   1.578   3.093   2.376 -0.1142  0.0554 -0.1611
10303SOL    HW132916   1.488   3.104   2.345 -0.1262  1.4296  0.2712
10303SOL    HW232917   1.631   3.093   2.296 -0.3793  0.8172 -0.3501
10304SOL     OW32918   3.532   0.180   6.521 -0.2405  0.3626  0.5413
10304SOL    HW132919   3.468   0.175   6.449 -2.3606  2.8635  2.0685
10304SOL    HW232920   3.616   0.189   6.476 -0.7355 -3.3563 -1.5657
10305SOL     OW32921   4.737   4.815   8.840  0.5307  0.2445  0.4284
10305SOL    HW132922   4.783   4.851   8.764  0.3818  1.3215  0.8358
10305SOL    HW232923   4.750   4.720   8.833 -0.0306  0.2567 -1.3046
10306SOL     OW32924  10.765   3.200   5.531 -0.2423 -0.1581 -0.1323
10306SOL    HW132925  10.810   3.284   5.523  0.7609 -0.6896 -0.1340
10306SOL    HW232926  10.719   3.191   5.447 -0.4431  0.4271 -0.0963
10307SOL     OW32927   3.063   5.829  11.034 -0.1915  0.4637  0.3544
10307SOL    HW132928   3.049   5.915  10.996 -2.3171 -0.5171 -1.3321
10307SOL    HW232929   3.000   5.824  11.106 -0.1632  0.2671  0.3664
10308SOL     OW32930   2.035   8.492   2.070 -0.5396  0.2190 -0.2612
10308SOL    HW132931   2.088   8.488   2.149 -1.1098  0.0763  0.1223
10308SOL    HW232932   2.095   8.468   1.999  0.4750  2.1487 -0.1321
10309SOL     OW32933   4.449   9.966   0.341  0.6095  0.4191 -0.3626
10309SOL    HW132934   4.390   9.930   0.407  0.3674 -0.9485 -1.2969
10309SOL    HW232935   4.460  10.058   0.367 -1.5411  0.5956  0.1185
10310SOL     OW32936   1.804   4.931   6.668  0.1138 -0.2417 -0.0164
10310SOL    HW132937   1.717   4.936   6.708  0.5022  0.2832  0.8016
10310SOL    HW232938   1.822   5.020   6.639  0.7867 -0.1148  0.7460
10311SOL     OW32939   9.898   4.985   9.362  0.0483 -0.5682  0.0088
10311SOL    HW132940   9.980   4.938   9.348 -0.3504 -1.2267 -0.1483
10311SOL    HW232941   9.880   5.027   9.278  1.1881  1.1652  0.5706
10312SOL     OW32942   2.764  10.323  10.840  0.1980 -0.0577 -0.5612
10312SOL    HW132943   2.685  10.333  10.787 -0.6294 -1.0481  0.4229
10312SOL    HW232944   2.740  10.359  10.926  1.0461  0.2309 -0.4300
10313SOL     OW32945   5.454   1.169   9.238 -0.0385  0.0518  0.3763
10313SOL    HW132946   5.470   1.161   9.143  0.7322 -0.0551  0.5108
10313SOL    HW232947   5.523   1.227   9.269  1.0546 -1.6036  1.2166
10314SOL     OW32948   7.849   1.920   9.144  0.0365 -0.0054  0.1620
10314SOL    HW132949   7.937   1.901   9.176 -0.2303 -2.3553 -0.3577
10314SOL    HW232950   7.861   1.936   9.050 -0.0773 -0.2250  0.1104
10315SOL     OW32951   0.608   2.339   0.355 -0.2173  0.2716 -0.1052
10315SOL    HW132952   0.693   2.296   0.359 -0.2287  0.1178 -1.1012
10315SOL    HW232953   0.545   2.272   0.382 -0.0542  0.2787  0.2920
10316SOL     OW32954   0.795   6.804   9.051 -0.1593 -1.1079  0.2805
10316SOL    HW132955   0.869   6.785   8.994 -0.3651 -0.3543 -0.2482
10316SOL    HW232956   0.819   6.885   9.096 -1.7537  0.7233 -1.9157
10317SOL     OW32957  10.593   8.071   3.814 -0.0561  0.5078 -0.5146
10317SOL    HW132958  10.569   8.116   3.895  0.8460 -0.2755  0.2170
10317SOL    HW232959  10.600   8.140   3.748 -0.4213  1.2029  0.1678
10318SOL     OW32960   0.797   9.307   8.318  0.3560  0.4449  0.1949
10318SOL    HW132961   0.873   9.310   8.260 -0.2725  2.1433 -0.6464
10318SOL    HW232962   0.722   9.316   8.259 -0.5487 -1.5594  0.9665
10319SOL     OW32963   2.780   1.801   0.784 -0.0897 -0.1811  0.2429
10319SOL    HW132964   2.782   1.706   0.780  0.5345 -0.1848  0.4966
10319SOL    HW232965   2.810   1.830   0.698  0.8894 -0.2192  0.5676
10320SOL     OW32966   3.836   9.376   7.680  0.0989 -0.4069 -0.0647
10320SOL    HW132967   3.928   9.400   7.669  0.4530 -1.7880 -0.2640
10320SOL    HW232968   3.794   9.405   7.599  0.1379  1.0457  0.3869
10321SOL     OW32969   6.918   9.513   7.049  0.6826  0.1801 -0.1895
10321SOL    HW132970   6.828   9.544   7.053  0.5941  0.1250 -1.3409
10321SOL    HW232971   6.910   9.419   7.034  0.8768  0.4217 -2.1226
10322SOL     OW32972  10.564   0.742   2.100  0.0416 -0.2626  0.2945
10322SOL    HW132973  10.494   0.678   2.085  0.8481 -0.6538 -2.4669
10322SOL    HW232974  10.627   0.697   2.156  0.1298 -1.6199 -0.8329
10323SOL     OW32975   6.226   4.362   6.852  0.3301 -0.3150  0.2268
10323SOL    HW132976   6.260   4.348   6.764 -3.4931 -0.5743 -1.4043
10323SOL    HW232977   6.145   4.411   6.840 -1.5887 -2.3062  3.3084
10324SOL     OW32978   3.108   2.010   0.382  0.2156 -0.3263 -0.1466
10324SOL    HW132979   3.022   1.978   0.408 -0.2264 -1.6017 -2.8340
10324SOL    HW232980   3.089   2.089   0.331  0.9145  1.0889  1.6732
10325SOL     OW32981   0.218   5.911   7.725 -0.0204  0.4393  0.3667
10325SOL    HW132982   0.184   5.970   7.657 -1.7531  1.1132  1.7194
10325SOL    HW232983   0.172   5.939   7.805  2.6402  0.3212  2.0489
10326SOL     OW32984   1.923   8.971   1.992 -0.0534 -0.0356 -0.2698
10326SOL    HW132985   1.889   9.049   2.035  1.3087  0.1018  0.6310
10326SOL    HW232986   2.008   8.998   1.955  1.1091 -1.3767  1.2627
10327SOL     OW32987   1.600   3.348   5.960  0.1398 -0.6481 -0.0736
10327SOL    HW132988   1.616   3.288   5.887  3.5233 -1.2947  1.0142
10327SOL    HW232989   1.550   3.296   6.023  1.0757 -1.6166 -0.0986
10328SOL     OW32990   0.328   0.134   3.325  0.1264 -0.9897  0.6109
10328SOL    HW132991   0.420   0.154   3.311  0.2513 -0.1121  2.4215
10328SOL    HW232992   0.290   0.129   3.237  1.7905 -0.9146 -0.1337
10329SOL     OW32993   0.548   1.817   3.429  0.0046  0.0473  0.0656
10329SOL    HW132994   0.491   1.744   3.451  1.4856 -1.0057  0.5618
10329SOL    HW232995   0.548   1.820   3.334 -2.7519  1.6461  0.0097
10330SOL     OW32996   2.058   6.867   5.188 -1.0744  0.2075 -0.7059
10330SOL    HW132997   2.059   6.917   5.270 -1.9534  0.7194 -0.9883
10330SOL    HW232998   1.965   6.863   5.165 -0.8950 -0.5296 -1.3196
10331SOL     OW32999   8.708   6.886   5.720 -0.0860 -0.3912  0.6407
10331SOL    HW133000   8.720   6.885   5.625 -0.8487  0.4374  0.5192
10331SOL    HW233001   8.614   6.903   5.731  0.1085  0.1128  1.5465
10332SOL     OW33002  10.824   8.667   0.004  0.3983 -0.2923 -0.0295
10332SOL    HW133003  10.739   8.706   0.025  0.9867 -0.0035  1.9206
10332SOL    HW233004  10.861   8.725  -0.063  1.3161  2.7408  2.8783
10333SOL     OW33005   4.093   3.589   9.368  0.3130  0.4500 -0.3106
10333SOL    HW133006   4.057   3.501   9.358 -0.3929  0.4392  1.8782
10333SOL    HW233007   4.187   3.579   9.354  0.0644 -0.3542 -1.5443
10334SOL     OW33008   8.971   9.567   3.981 -0.5713  0.0625 -0.3996
10334SOL    HW133009   9.052   9.550   4.030 -1.5657  0.0790  1.3280
10334SOL    HW233010   8.986   9.651   3.939  0.1211  0.3294  0.3535
10335SOL     OW33011   0.583   8.189   4.309 -0.1290  0.4262 -0.5190
10335SOL    HW133012   0.523   8.122   4.342  0.7731 -0.6618 -1.0080
10335SOL    HW233013   0.529   8.266   4.295 -1.1905 -0.1944  0.1035
10336SOL     OW33014   9.525   2.814   5.836  0.3498 -0.1738  0.0468
10336SOL    HW133015   9.584   2.813   5.761 -0.7929 -1.5834 -0.8804
10336SOL    HW233016   9.563   2.750   5.897  0.6870  0.1692  0.1996
10337SOL     OW33017   4.001   5.152   8.144  0.3688  0.4493 -0.2271
10337SOL    HW133018   3.975   5.244   8.141 -0.5461  0.2539  0.7953
10337SOL    HW233019   3.918   5.104   8.151  0.8942 -0.2697  2.0492
10338SOL     OW33020   8.294   9.415   7.605  0.1826 -0.7842 -0.1079
10338SOL    HW133021   8.382   9.412   7.643 -0.1289  1.6019  1.0080
10338SOL    HW233022   8.256   9.330   7.627  1.8981 -1.5251  0.1673
10339SOL     OW33023   2.552   6.471   8.974 -0.1372 -0.3992  0.2799
10339SOL    HW133024   2.587   6.547   9.020 -0.8364  0.4398 -0.5173
10339SOL    HW233025   2.615   6.453   8.906 -0.0184 -0.4642  0.4081
10340SOL     OW33026   7.239   9.324   4.890  0.5672  0.1007 -0.0959
10340SOL    HW133027   7.150   9.336   4.858  1.2196 -0.0715 -2.1090
10340SOL    HW233028   7.294   9.370   4.827  2.0246 -1.1852  0.1714
10341SOL     OW33029   1.011  10.961   0.478 -0.7446  0.5252 -0.3323
10341SOL    HW133030   1.004  10.939   0.571 -0.3143  0.6519 -0.2676
10341SOL    HW233031   1.005  10.877   0.433 -2.7496  0.6162 -0.3041
10342SOL     OW33032   0.878   8.040   3.836 -0.4851 -0.1131 -0.0600
10342SOL    HW133033   0.868   8.024   3.930  0.4201 -2.7175 -0.3237
10342SOL    HW233034   0.794   8.077   3.809 -0.7293  0.7909  1.7569
10343SOL     OW33035   2.040   9.650  10.575 -0.0702  0.4434  0.0166
10343SOL    HW133036   1.989   9.653  10.494  1.6932  0.1313 -1.1916
10343SOL    HW233037   1.976   9.652  10.645 -1.6505  1.3484 -1.3827
10344SOL     OW33038   6.487   3.514   2.015  0.0995 -0.1595  0.4411
10344SOL    HW133039   6.393   3.517   1.995  0.5052  0.3476 -1.6280
10344SOL    HW233040   6.528   3.486   1.933  1.8297  0.4686  1.0501
10345SOL     OW33041   8.804   7.335   2.017  0.4172  0.1019  0.2573
10345SOL    HW133042   8.793   7.256   1.965  0.7507  0.1051  0.1791
10345SOL    HW233043   8.735   7.330   2.083 -0.1306  0.1956 -0.3018
10346SOL     OW33044   1.640   6.289   3.165 -0.4457 -0.4432 -0.3170
10346SOL    HW133045   1.635   6.364   3.224  0.6429  1.1955 -2.1841
10346SOL    HW233046   1.668   6.217   3.222  1.5720  1.2620  1.0569
10347SOL     OW33047   5.410   6.190   8.886  0.7024  0.0197 -0.0895
10347SOL    HW133048   5.376   6.110   8.925 -0.2018  1.1304  1.5345
10347SOL    HW233049   5.333   6.239   8.859  1.2831 -0.1654 -2.2370
10348SOL     OW33050  10.085   5.893   7.702 -0.3898  0.7942  0.2744
10348SOL    HW133051  10.007   5.883   7.757 -0.9616 -2.3214 -0.9039
10348SOL    HW233052  10.052   5.934   7.621 -0.6944  0.1730  0.0751
10349SOL     OW33053   0.079   6.912   5.302 -0.0160 -0.3141  0.1978
10349SOL    HW133054   0.071   6.994   5.351 -0.2887  0.0466 -0.4448
10349SOL    HW233055   0.173   6.896   5.297  0.1666  1.0658 -1.4757
10350SOL     OW33056   2.306   2.463  10.099  0.2345  0.1043 -0.1386
10350SOL    HW133057   2.384   2.467  10.044  0.2622  0.2063 -0.0926
10350SOL    HW233058   2.241   2.515  10.052 -0.0230 -0.5505 -0.5214
10351SOL     OW33059   1.631   1.588   7.291  0.0582  0.0196  0.2647
10351SOL    HW133060   1.554   1.607   7.237  0.0006 -1.4217 -0.1812
10351SOL    HW233061   1.595   1.561   7.376  0.0344 -1.4041 -0.1855
10352SOL     OW33062   5.138   4.648   0.982 -0.1823  0.1710 -0.0482
10352SOL    HW133063   5.096   4.567   1.010 -0.0149  0.0530 -0.1369
10352SOL    HW233064   5.070   4.695   0.935  0.0918 -0.5319 -1.1948
10353SOL     OW33065   6.705   2.568   0.206  0.2959 -0.2124  0.3033
10353SOL    HW133066   6.709   2.651   0.253  1.8315 -0.7278  1.1375
10353SOL    HW233067   6.645   2.514   0.257 -0.9818  0.4519 -0.4285
10354SOL     OW33068   5.807  10.537   2.886 -0.1588  0.0682  0.4158
10354SOL    HW133069   5.730  10.484   2.904 -0.2408  0.3410  0.8933
10354SOL    HW233070   5.809  10.601   2.957  1.1088 -0.6146  1.0283
10355SOL     OW33071   1.157   9.865   5.658 -0.2722  0.0730 -0.5833
10355SOL    HW133072   1.084   9.918   5.690 -0.9859  0.8839 -3.2972
10355SOL    HW233073   1.235   9.917   5.676 -0.4516 -0.1760  1.0689
10356SOL     OW33074  10.070   9.371   5.283 -0.3052 -0.2287  0.3059
10356SOL    HW133075  10.065   9.302   5.349 -0.1218  0.1106  0.6746
10356SOL    HW233076   9.985   9.368   5.239  0.0761 -1.4041 -0.4078
10357SOL     OW33077   2.642   9.124   4.560 -0.0104  0.3270  0.0561
10357SOL    HW133078   2.640   9.059   4.630 -0.6698 -0.3056 -0.5456
10357SOL    HW233079   2.553   9.159   4.557 -0.6538 -1.2632 -1.9358
10358SOL     OW33080   5.385   6.273   3.371  0.6496 -0.2493 -0.6737
10358SOL    HW133081   5.429   6.356   3.391 -0.1113  0.2550 -1.0216
10358SOL    HW233082   5.435   6.236   3.299  1.9528 -0.8889  0.5182
10359SOL     OW33083   1.361  10.673   0.767 -0.2396 -0.5280  0.5009
10359SOL    HW133084   1.318  10.750   0.732 -0.4816 -0.4775  0.9091
10359SOL    HW233085   1.299  10.636   0.830  1.0688  0.6877  2.6395
10360SOL     OW33086   2.708   3.945   1.802  0.1102 -0.1698 -0.3172
10360SOL    HW133087   2.804   3.943   1.803  0.2067  1.0711 -2.1400
10360SOL    HW233088   2.683   3.962   1.892  1.5531 -1.3087  0.3436
10361SOL     OW33089   4.613   0.713   3.992  0.4243 -0.0907  0.2602
10361SOL    HW133090   4.543   0.718   4.058  1.4853 -0.5116  1.4641
10361SOL    HW233091   4.623   0.619   3.976  0.6227 -0.0217 -0.0180
10362SOL     OW33092  10.462   5.705   8.579  0.4435  0.3139 -0.3055
10362SOL    HW133093  10.485   5.647   8.652 -0.1383 -1.3048 -1.3591
10362SOL    HW233094  10.477   5.793   8.613  1.6634 -0.4469  1.2454
10363SOL     OW33095   3.215   8.720   7.820  0.1794 -0.0733 -0.1337
10363SOL    HW133096   3.225   8.720   7.915 -2.0245 -1.8327  0.1906
10363SOL    HW233097   3.144   8.782   7.803 -0.1836 -0.5784 -0.4967
10364SOL     OW33098   4.448   8.827   5.701 -0.0235  0.2498 -0.5599
10364SOL    HW133099   4.445   8.893   5.771  0.5806  1.2483 -1.4408
10364SOL    HW233100   4.357   8.807   5.682 -0.2572  1.6012 -0.9569
10365SOL     OW33101   8.734   2.181   1.236  0.1736  0.0346  0.2250
10365SOL    HW133102   8.824   2.188   1.202 -0.4239  0.2692 -1.4112
10365SOL    HW233103   8.701   2.099   1.199 -0.2805 -0.0820  0.8711
10366SOL     OW33104   1.724  10.185   7.270  0.4097 -0.2135  0.3764
10366SOL    HW133105   1.733  10.193   7.365 -1.2190 -0.2884  0.5664
10366SOL    HW233106   1.635  10.214   7.252  1.1439  1.1208 -1.3182
10367SOL     OW33107   7.639   3.077  10.693 -0.1362 -0.1510 -0.1436
10367SOL    HW133108   7.596   3.086  10.778 -0.8997  2.2846 -0.7242
10367SOL    HW233109   7.732   3.092  10.711  0.3852 -3.5014  0.7891
10368SOL     OW33110   9.917   3.904   6.696 -0.2896  0.4255 -0.3871
10368SOL    HW133111   9.934   3.935   6.607 -2.1488 -0.8220 -1.2396
10368SOL    HW233112   9.828   3.870   6.693 -0.0067 -0.6594  1.6853
10369SOL     OW33113   0.117   8.365   3.462  0.0582 -0.1355  0.0801
10369SOL    HW133114   0.051   8.296   3.454  0.9246 -0.9628 -0.2020
10369SOL    HW233115   0.200   8.318   3.461  0.6307  0.7710  1.6786
10370SOL     OW33116   8.638   1.097   7.002 -0.2112 -0.1496 -0.1429
10370SOL    HW133117   8.665   1.133   7.086 -3.1336  1.2161  0.3427
10370SOL    HW233118   8.623   1.004   7.020 -2.7699  0.4843  1.5023
10371SOL     OW33119   5.508   3.709   3.743 -0.1660 -0.3072  0.3735
10371SOL    HW133120   5.543   3.740   3.827 -0.1595 -0.2477  0.3488
10371SOL    HW233121   5.535   3.776   3.680 -1.5036  0.4678  0.5788
10372SOL     OW33122   5.244   9.698   6.102 -0.5260  0.3412  0.3015
10372SOL    HW133123   5.153   9.672   6.089 -0.5870  0.0538  1.1747
10372SOL    HW233124   5.258   9.772   6.044 -2.6907  3.4591  3.3739
10373SOL     OW33125   7.608  10.178   5.726 -0.3225 -0.0704 -0.1642
10373SOL    HW133126   7.559  10.251   5.765 -0.9705 -0.4294 -0.2883
10373SOL    HW233127   7.688  10.172   5.778  0.1030  1.2170 -0.6262
10374SOL     OW33128   2.035  10.014   0.819 -0.2789 -0.2770  0.7954
10374SOL    HW133129   2.099  10.065   0.867 -0.5753  0.1107  0.7868
10374SOL    HW233130   2.087   9.951   0.768  0.4254  2.5466 -2.2741
10375SOL     OW33131   8.603   1.459  10.994 -0.4174 -0.1568 -0.5582
10375SOL    HW133132   8.657   1.412  11.057 -1.0033 -1.0905 -0.7416
10375SOL    HW233133   8.544   1.393  10.959 -2.9695  1.1485  0.9903
10376SOL     OW33134  10.848   6.846   3.919 -0.1418 -0.6946 -0.2149
10376SOL    HW133135  10.888   6.788   3.855  0.8638 -2.1439  1.6080
10376SOL    HW233136  10.851   6.797   4.001 -2.7083  0.4905  0.6889
10377SOL     OW33137   9.909   0.954  10.103 -0.1403  0.1103 -0.1707
10377SOL    HW133138   9.827   0.999  10.123 -0.0830  0.5934 -0.9533
10377SOL    HW233139   9.889   0.903  10.024  0.3330  0.2789 -0.3989
10378SOL     OW33140   2.827   9.156   3.348 -0.5111 -0.4711  0.4146
10378SOL    HW133141   2.806   9.112   3.431 -0.3521  0.0415  0.7350
10378SOL    HW233142   2.745   9.197   3.321 -0.2962  0.3063  0.9093
10379SOL     OW33143   9.705   3.105   6.320 -0.0196 -0.3911 -0.2037
10379SOL    HW133144   9.625   3.148   6.290  0.5209  0.9931  0.2561
10379SOL    HW233145   9.775   3.142   6.266  0.5151 -0.3765  0.4741
10380SOL     OW33146   9.382   9.644   3.295  0.6839 -0.2909 -0.3769
10380SOL    HW133147   9.425   9.707   3.353  1.0727 -2.3042  1.6575
10380SOL    HW233148   9.453   9.600   3.250  0.4986 -0.3215 -0.6390
10381SOL     OW33149   0.543   0.937  10.539  0.0382 -0.3505  0.4666
10381SOL    HW133150   0.461   0.892  10.558  0.1365 -1.8395 -2.1068
10381SOL    HW233151   0.610   0.870  10.547  0.7244  0.3263  0.4994
10382SOL     OW33152   6.668   0.851   9.810 -0.3966 -0.2712  0.0388
10382SOL    HW133153   6.693   0.813   9.725 -1.1014 -0.4703 -0.0906
10382SOL    HW233154   6.745   0.839   9.865  0.0342 -0.2390 -0.5451
10383SOL     OW33155   9.135   0.599  10.246  0.0668 -0.2005 -0.6086
10383SOL    HW133156   9.167   0.674  10.196  1.6080 -1.0032 -0.8844
10383SOL    HW233157   9.188   0.526  10.216  1.5101 -0.6403  2.5888
10384SOL     OW33158   0.041   3.452   5.288  0.2124 -0.0538 -0.0907
10384SOL    HW133159   0.082   3.445   5.374  0.4994 -0.0484 -0.2265
10384SOL    HW233160  -0.016   3.529   5.295  1.4223  0.9078 -0.3820
10385SOL     OW33161   2.837   6.756  10.830  0.0332  0.2942  0.4176
10385SOL    HW133162   2.744   6.751  10.807 -0.2810 -1.3040  1.8366
10385SOL    HW233163   2.880   6.697  10.768  0.3678  2.1288 -1.1935
10386SOL     OW33164   3.615   2.948   5.713 -0.2493 -0.2876 -0.4108
10386SOL    HW133165   3.566   2.905   5.783 -1.3998 -0.4525 -1.2817
10386SOL    HW233166   3.603   2.891   5.637  0.5487  0.1474 -0.8767
10387SOL     OW33167   9.151  10.756   9.159  0.6691 -0.2091  0.1901
10387SOL    HW133168   9.165  10.679   9.104 -2.4273 -0.6634 -0.1220
10387SOL    HW233169   9.061  10.783   9.141  0.6155  1.6037  2.6343
10388SOL     OW33170   6.499   0.120   3.932 -0.3162 -0.0706  0.0951
10388SOL    HW133171   6.419   0.119   3.880 -0.0319  0.7996 -0.3676
10388SOL    HW233172   6.524   0.212   3.937  1.6434 -0.4736 -1.3104
10389SOL     OW33173   7.870   1.852   1.093  0.6433  0.5597  0.0466
10389SOL    HW133174   7.935   1.842   1.162 -0.3082 -1.3053  0.7662
10389SOL    HW233175   7.804   1.911   1.130 -0.2365 -1.0105  1.1028
10390SOL     OW33176   3.743   0.359   0.002  0.3744  0.3825  0.1302
10390SOL    HW133177   3.822   0.370   0.056  0.4405  1.3907 -0.1501
10390SOL    HW233178   3.774   0.316  -0.077  0.8551  1.6762 -0.4189
10391SOL     OW33179   9.271   3.482   9.589  0.1450 -0.1503  0.1088
10391SOL    HW133180   9.314   3.514   9.668 -0.3360  0.2131  0.2251
10391SOL    HW233181   9.253   3.390   9.608  0.3348 -0.1522  0.2888
10392SOL     OW33182   4.248  10.380   0.511 -0.0775  0.1871  0.5884
10392SOL    HW133183   4.257  10.471   0.539 -1.1920  0.0019  1.6427
10392SOL    HW233184   4.199  10.338   0.582 -0.7731 -0.9122 -0.5103
10393SOL     OW33185   6.012   7.043   7.232  0.1824  0.6350  0.2212
10393SOL    HW133186   5.918   7.033   7.246  0.4488 -0.3261  1.4151
10393SOL    HW233187   6.018   7.108   7.161 -1.3589  0.9652  0.3508
10394SOL     OW33188   1.834   8.121   4.694  0.1507 -0.2426  0.5552
10394SOL    HW133189   1.928   8.118   4.713 -0.0789 -0.6717  1.7153
10394SOL    HW233190   1.824   8.070   4.614  1.2162  1.9012 -1.0673
10395SOL     OW33191   1.534   5.891   4.227  0.2327 -0.1997 -0.3701
10395SOL    HW133192   1.487   5.910   4.146  0.0942 -0.0177 -0.2485
10395SOL    HW233193   1.622   5.867   4.198 -0.1373 -1.2622 -0.6415
10396SOL     OW33194   1.918   5.703   5.128 -0.0656  0.0098 -0.3164
10396SOL    HW133195   2.006   5.670   5.144 -0.1583 -0.1944 -0.2160
10396SOL    HW233196   1.930   5.796   5.108  0.0926  0.1956  0.5910
10397SOL     OW33197   7.044   1.187   8.778  0.5252 -0.3551  0.4595
10397SOL    HW133198   7.047   1.143   8.863  4.0899 -0.6473  0.3229
10397SOL    HW233199   7.054   1.116   8.714  1.0852  0.1352 -0.0106
10398SOL     OW33200   3.296   1.490   7.275  0.5755  0.2340  0.2067
10398SOL    HW133201   3.351   1.557   7.234  0.2566  0.4878  0.1930
10398SOL    HW233202   3.219   1.537   7.306 -0.2057 -0.3033 -0.8483
10399SOL     OW33203   0.106   5.186   3.480 -0.1412  0.0878 -0.2582
10399SOL    HW133204   0.046   5.225   3.544 -1.1731 -2.1510  0.2248
10399SOL    HW233205   0.188   5.173   3.527  0.4167  2.1008 -0.5899
10400SOL     OW33206   1.264   4.976   9.559  0.0292 -0.4426 -0.2064
10400SOL    HW133207   1.192   4.961   9.620 -0.3167  1.0490 -0.1993
10400SOL    HW233208   1.235   5.050   9.506  0.9044 -0.8348 -1.2630
10401SOL     OW33209   5.358   0.188   7.784 -0.3631  0.1520  0.0032
10401SOL    HW133210   5.322   0.102   7.808 -0.4622  0.3988  0.7562
10401SOL    HW233211   5.343   0.195   7.690  1.2822 -1.4431 -0.4435
10402SOL     OW33212   2.989   1.815   7.623  0.3303  0.1577  0.2309
10402SOL    HW133213   3.050   1.746   7.648 -1.0004 -0.9219  0.6276
10402SOL    HW233214   2.938   1.833   7.702 -0.3860  0.4831 -0.2912
10403SOL     OW33215  10.775   2.477   8.283  0.2072  0.0316 -0.0513
10403SOL    HW133216  10.837   2.415   8.319 -0.7088 -0.1778  1.2255
10403SOL    HW233217  10.815   2.507   8.201  1.0249 -1.6337 -0.2938
10404SOL     OW33218   0.731   6.362   4.032 -0.1310  0.5732  0.5192
10404SOL    HW133219   0.780   6.321   4.103 -0.5306  0.3734  0.6817
10404SOL    HW233220   0.676   6.292   3.997 -1.2171  1.0838  1.1527
10405SOL     OW33221   9.153   7.333   6.043  0.2262  0.3020 -0.2764
10405SOL    HW133222   9.214   7.343   5.970 -0.2594  1.3366 -0.5524
10405SOL    HW233223   9.145   7.238   6.055  0.6970  0.1330 -1.2333
10406SOL     OW33224   1.216   6.662   0.611  0.1390  0.3988  0.1418
10406SOL    HW133225   1.279   6.639   0.542 -0.5208  1.0397 -0.6914
10406SOL    HW233226   1.255   6.626   0.691  0.1891 -1.7317 -0.7720
10407SOL     OW33227   3.098   5.115   8.071 -0.3254  0.3599  0.2153
10407SOL    HW133228   3.178   5.157   8.104 -0.3183 -0.1211  0.8275
10407SOL    HW233229   3.060   5.072   8.148  0.3757 -1.8997 -0.6331
10408SOL     OW33230   4.734   6.147   3.033 -0.1668 -0.6847  0.0377
10408SOL    HW133231   4.704   6.057   3.048  0.4941 -0.7353  1.1421
10408SOL    HW233232   4.656   6.200   3.049 -0.8791 -1.1045 -1.7708
10409SOL     OW33233   3.359  10.516   2.684  0.5511 -0.0115  0.7981
10409SOL    HW133234   3.339  10.453   2.616  0.6294  0.6153  0.1861
10409SOL    HW233235   3.454  10.509   2.696  0.6310  0.3314  0.3833
10410SOL     OW33236   8.703   7.982   7.017 -0.4409 -0.0745 -0.3444
10410SOL    HW133237   8.757   8.058   6.996 -0.2041  0.5782  2.2890
10410SOL    HW233238   8.644   7.973   6.943 -0.6696  2.8758 -0.6222
10411SOL     OW33239   8.895   6.175   2.891  0.5238 -0.6505 -0.3031
10411SOL    HW133240   8.864   6.225   2.816  0.1016  0.0678  0.3357
10411SOL    HW233241   8.822   6.118   2.914 -0.1748  0.6559  0.8663
10412SOL     OW33242   2.199   1.367   4.781  0.8534  0.3786 -0.0813
10412SOL    HW133243   2.229   1.403   4.865 -0.5043 -0.2864  0.7223
10412SOL    HW233244   2.253   1.289   4.768  0.8986  0.3363  0.3263
10413SOL     OW33245   2.431  10.863   3.581 -0.0357  0.3268 -0.1957
10413SOL    HW133246   2.392  10.903   3.503 -0.2208  0.1479 -0.1935
10413SOL    HW233247   2.504  10.921   3.604  0.9597 -0.4046 -1.3794
10414SOL     OW33248   5.102   3.465   3.462  0.8850 -0.3725 -0.1303
10414SOL    HW133249   5.045   3.436   3.533  0.6165 -1.0312 -0.5950
10414SOL    HW233250   5.188   3.473   3.502  0.4804  0.5793  0.5681
10415SOL     OW33251   5.374   3.244   1.072  0.1073 -0.2625 -0.1941
10415SOL    HW133252   5.408   3.277   1.155  0.4445 -1.5508  0.2058
10415SOL    HW233253   5.371   3.149   1.083 -0.8697 -0.3900 -1.2733
10416SOL     OW33254  10.142   7.260   3.136 -0.0132 -0.4314  0.3508
10416SOL    HW133255  10.191   7.243   3.055 -0.2265  0.2128  0.0772
10416SOL    HW233256  10.193   7.327   3.181  0.3153 -1.0820  0.9457
10417SOL     OW33257  10.860   9.829   3.918  0.1707 -0.4044  0.1461
10417SOL    HW133258  10.928   9.884   3.956 -0.2402  0.4974 -0.3666
10417SOL    HW233259  10.856   9.857   3.826 -1.4614  0.1923  0.3560
10418SOL     OW33260   1.402   3.844   2.723  0.3051  0.4799  0.2557
10418SOL    HW133261   1.446   3.928   2.729 -1.1173  1.3409 -0.7007
10418SOL    HW233262   1.419   3.814   2.634 -1.2689  1.0087 -0.2587
10419SOL     OW33263   2.286   3.217   9.847 -0.2563 -0.1580  0.1766
10419SOL    HW133264   2.321   3.306   9.842 -0.1431 -0.1970  0.2623
10419SOL    HW233265   2.273   3.202   9.941 -0.6358 -0.0927  0.1340
10420SOL     OW33266   2.451   9.356   8.799  0.1852  0.0940 -0.0585
10420SOL    HW133267   2.371   9.313   8.766 -0.2280  1.2471 -0.6257
10420SOL    HW233268   2.452   9.441   8.754  0.7337  0.8611  1.3628
10421SOL     OW33269   8.144   0.460   0.610 -0.3490  0.0227  0.1535
10421SOL    HW133270   8.188   0.466   0.526  1.1041 -2.2706  0.6482
10421SOL    HW233271   8.053   0.437   0.588  0.1291 -1.0521 -0.8068
10422SOL     OW33272   5.651   8.166   0.289  0.8810 -0.4877  0.0196
10422SOL    HW133273   5.721   8.166   0.355  0.7427 -1.2157  0.1652
10422SOL    HW233274   5.584   8.223   0.326  1.5913  0.6230 -0.3395
10423SOL     OW33275   8.968   8.780   1.817  0.5085 -0.0901  0.3900
10423SOL    HW133276   8.934   8.692   1.804  0.5903  0.1152 -1.5187
10423SOL    HW233277   8.917   8.815   1.890 -0.3180 -1.3215  0.4320
10424SOL     OW33278   5.753   6.039   3.069 -0.0628 -0.1193 -0.1552
10424SOL    HW133279   5.692   5.981   3.023 -1.3414  0.0230  1.2886
10424SOL    HW233280   5.793   5.983   3.136 -0.5158  0.3745  0.5464
10425SOL     OW33281  10.092   0.733   5.922 -0.1123  0.3221  0.0922
10425SOL    HW133282  10.053   0.704   5.839 -0.7116  0.8160  0.1946
10425SOL    HW233283  10.063   0.824   5.932 -0.4812  0.1042  1.0962
10426SOL     OW33284   4.012   2.017  10.857  0.1518  0.9516 -0.0972
10426SOL    HW133285   4.072   2.036  10.930 -0.1249  0.0202  0.3933
10426SOL    HW233286   4.023   1.923  10.842 -0.6148  0.9261 -0.5246
10427SOL     OW33287   8.889   1.396   4.263 -0.1055 -0.2435 -0.1242
10427SOL    HW133288   8.926   1.483   4.253 -0.1064 -0.0835  1.0697
10427SOL    HW233289   8.843   1.399   4.348 -1.3705 -0.9532 -0.7515
10428SOL     OW33290   9.503   9.389   6.169  0.1462 -0.2974 -0.0423
10428SOL    HW133291   9.474   9.298   6.181 -0.5345 -0.3357 -1.6367
10428SOL    HW233292   9.556   9.408   6.246  0.7345 -2.2342  0.0894
10429SOL     OW33293   8.494   0.557   9.494  0.1431  0.6698  0.2370
10429SOL    HW133294   8.563   0.493   9.510  0.2645  0.9458  0.8584
10429SOL    HW233295   8.455   0.530   9.411  1.2552  0.7358 -0.3290
10430SOL     OW33296   3.845   4.329   6.785  0.2675  0.4394 -0.2015
10430SOL    HW133297   3.773   4.324   6.722  1.1082  1.0182 -1.2546
10430SOL    HW233298   3.885   4.242   6.782 -0.7227 -0.0784  0.8388
10431SOL     OW33299   1.920  10.432   5.438  0.0053  0.0753  0.0256
10431SOL    HW133300   1.965  10.482   5.369 -0.1994 -0.9561 -0.8821
10431SOL    HW233301   1.942  10.341   5.420 -1.0232 -0.3099  0.6259
10432SOL     OW33302   5.148   3.349   5.961 -0.2353 -0.0110  0.3125
10432SOL    HW133303   5.113   3.297   6.033  1.6035 -2.1885 -0.2345
10432SOL    HW233304   5.158   3.287   5.889 -1.0635  1.8766 -1.5472
10433SOL     OW33305   1.350   7.341   2.482  0.0147  0.0388 -0.0606
10433SOL    HW133306   1.296   7.316   2.557  0.2659  0.9826  0.4466
10433SOL    HW233307   1.418   7.398   2.519  0.1155  0.5523 -1.0054
10434SOL     OW33308   6.249  11.001   0.972  0.2494  0.0161  0.4929
10434SOL    HW133309   6.198  10.932   1.016  0.1602  0.1604  0.6180
10434SOL    HW233310   6.203  11.082   0.994  1.1098  0.2667  1.4579
10435SOL     OW33311   7.072   8.873   4.343 -0.6796  0.0233  0.5000
10435SOL    HW133312   7.001   8.839   4.289 -0.6563 -0.4671  0.7687
10435SOL    HW233313   7.089   8.960   4.308 -0.1431 -0.5652 -0.7844
10436SOL     OW33314   4.194   2.211   4.678 -0.0657  0.1554  0.2644
10436SOL    HW133315   4.154   2.169   4.755 -0.1471  0.3988  0.3570
10436SOL    HW233316   4.192   2.305   4.699 -0.1848  0.2304 -0.0830
10437SOL     OW33317   6.983   7.651  10.236 -0.1633  0.1097  0.8442
10437SOL    HW133318   6.967   7.743  10.258  0.0456  0.1553  0.8103
10437SOL    HW233319   6.979   7.606  10.320 -0.4315  0.1235  0.8406
10438SOL     OW33320   4.929   1.085   6.959  0.4174  0.1961  0.0695
10438SOL    HW133321   4.892   1.126   7.037 -0.8651 -1.2527  0.2746
10438SOL    HW233322   4.853   1.065   6.904  0.6826 -3.4946  0.7961
10439SOL     OW33323   9.023   7.663   9.208  0.0855 -0.1705 -0.1563
10439SOL    HW133324   8.981   7.615   9.279 -0.6065 -0.4237 -0.7140
10439SOL    HW233325   8.999   7.754   9.223  1.4610  0.0207  0.9452
10440SOL     OW33326   6.663   5.086   6.155  0.5041 -0.3885 -0.0271
10440SOL    HW133327   6.604   5.161   6.154  0.6217 -0.2987 -0.1413
10440SOL    HW233328   6.648   5.042   6.071  1.2857  0.1647 -0.4634
10441SOL     OW33329   7.809  10.109   4.521 -0.1818  0.2118  0.4050
10441SOL    HW133330   7.887  10.161   4.542 -1.3314  2.6167 -0.8181
10441SOL    HW233331   7.798  10.122   4.426 -0.8289 -1.9313  0.1501
10442SOL     OW33332  10.762   4.331   3.199  0.2274 -0.1997  0.2799
10442SOL    HW133333  10.715   4.329   3.116  0.3748 -0.8577  0.2016
10442SOL    HW233334  10.694   4.335   3.265  0.1368  1.7225  0.1110
10443SOL     OW33335   9.728   6.960   0.540 -0.3507 -0.4235  0.3978
10443SOL    HW133336   9.818   6.985   0.559 -0.5914  0.3216  0.5984
10443SOL    HW233337   9.735   6.874   0.500  0.5874  0.3584 -1.2222
10444SOL     OW33338  10.376   9.654   6.019 -0.0101  0.4777  0.3797
10444SOL    HW133339  10.416   9.568   6.024 -1.5638 -0.2569  0.8563
10444SOL    HW233340  10.352   9.664   5.926 -0.4181  0.0925  0.4373
10445SOL     OW33341   2.961  10.308  10.194  0.5294 -0.5756  0.2562
10445SOL    HW133342   2.950  10.219  10.160 -0.2846 -0.3535 -0.0971
10445SOL    HW233343   2.906  10.362  10.137  2.1091  0.3822 -0.4252
10446SOL     OW33344   2.407   8.397   7.965 -0.2722  0.4962 -0.5412
10446SOL    HW133345   2.333   8.393   8.026 -1.0896 -0.4246 -1.5586
10446SOL    HW233346   2.455   8.316   7.981 -0.0926  0.5839 -0.6344
10447SOL     OW33347  10.415   1.144   2.213 -0.0217 -0.3115 -0.3475
10447SOL    HW133348  10.320   1.137   2.223 -0.2430  0.5117 -1.5794
10447SOL    HW233349  10.441   1.209   2.277 -0.1445 -1.1796  0.6091
10448SOL     OW33350   8.128   7.958   2.813 -0.6260  0.2477 -0.0476
10448SOL    HW133351   8.117   7.863   2.814  3.4503 -0.3686  0.1180
10448SOL    HW233352   8.083   7.986   2.733 -0.6100 -2.0460 -0.9487
10449SOL     OW33353   2.035   9.654   5.162  0.4915 -0.3876 -0.0357
10449SOL    HW133354   1.951   9.683   5.198 -0.2153 -2.1556 -0.2009
10449SOL    HW233355   2.094   9.652   5.237  0.1709  0.0512  0.2357
10450SOL     OW33356   6.956   1.379   7.491 -0.0264 -0.5533 -0.4004
10450SOL    HW133357   6.910   1.324   7.555 -0.4231  0.3591  0.1333
10450SOL    HW233358   6.887   1.412   7.434 -0.1089  0.9924  0.5327
10451SOL     OW33359   1.497   4.778   7.466  0.4660 -0.4181  0.6731
10451SOL    HW133360   1.532   4.813   7.384  0.1837  0.7472  1.0332
10451SOL    HW233361   1.428   4.718   7.439 -1.2279  1.6842  0.0647
10452SOL     OW33362   5.677   4.061   3.141  0.0076  0.4107  0.1759
10452SOL    HW133363   5.644   3.982   3.182 -0.0458  0.3054 -0.0668
10452SOL    HW233364   5.629   4.132   3.184  0.2965  0.3367  0.6269
10453SOL     OW33365   6.461   1.992   8.462  0.2312 -0.0254 -0.7625
10453SOL    HW133366   6.500   2.016   8.546  0.3106  0.0093 -0.8093
10453SOL    HW233367   6.422   2.073   8.430  1.8267  0.4193 -1.6406
10454SOL     OW33368   2.570   1.292   8.890  0.1945 -0.1061 -0.2227
10454SOL    HW133369   2.636   1.343   8.937 -0.6361  0.0703  0.7832
10454SOL    HW233370   2.580   1.318   8.798  0.1407  1.4783  0.1973
10455SOL     OW33371   4.982   3.427   7.176  0.0930 -0.2589 -0.1384
10455SOL    HW133372   4.891   3.414   7.204  0.2501 -1.5821 -0.1605
10455SOL    HW233373   5.008   3.342   7.140  1.7601 -0.3039  1.0595
10456SOL     OW33374   1.942   7.733   0.745  0.1462  0.2647  0.3469
10456SOL    HW133375   1.865   7.676   0.741 -0.4536  0.9164  1.8414
10456SOL    HW233376   2.008   7.682   0.792 -0.4602  0.8136  1.8731
10457SOL     OW33377   3.553   3.876   2.424  0.0461 -0.6015  0.1358
10457SOL    HW133378   3.511   3.799   2.384  0.9129 -1.7228  1.2831
10457SOL    HW233379   3.640   3.878   2.385  0.4631 -0.9720  1.0174
10458SOL     OW33380   0.531   3.570   8.968 -0.1444  0.1492  0.7682
10458SOL    HW133381   0.551   3.499   9.028  0.0565  0.0074  0.5359
10458SOL    HW233382   0.616   3.596   8.932 -0.4551 -1.2449 -1.1079
10459SOL     OW33383   2.864   0.573   5.956 -0.4310 -0.4756  0.1130
10459SOL    HW133384   2.927   0.643   5.968 -1.3063  0.5247 -0.9185
10459SOL    HW233385   2.917   0.494   5.947  0.5383 -0.2178  2.7116
10460SOL     OW33386   6.170   6.581   1.226  0.4320  0.2596 -0.0560
10460SOL    HW133387   6.156   6.616   1.138  1.1931 -0.8407 -0.6499
10460SOL    HW233388   6.240   6.635   1.264  0.4316  0.4404 -0.3140
10461SOL     OW33389   0.577  10.989  10.419 -0.1511  0.3552 -0.4408
10461SOL    HW133390   0.606  10.953  10.335  0.2064 -2.1395  0.6883
10461SOL    HW233391   0.658  10.999  10.470 -0.6338 -1.0432  0.6525
10462SOL     OW33392   7.022   0.827  10.657  0.4919  0.0024 -0.6537
10462SOL    HW133393   7.064   0.741  10.661  0.4019 -0.0124  0.1862
10462SOL    HW233394   7.090   0.889  10.683 -0.6284 -0.2674  3.7487
10463SOL     OW33395   7.445   8.449  10.349  0.2370 -0.0755  0.0146
10463SOL    HW133396   7.392   8.446  10.270 -0.5254 -0.6097  0.5422
10463SOL    HW233397   7.524   8.398  10.328 -0.2921 -0.8301 -0.1643
10464SOL     OW33398   9.920   0.987   5.747 -0.0358  0.1894 -0.5362
10464SOL    HW133399  10.014   1.009   5.752  0.0130 -0.2566  1.1410
10464SOL    HW233400   9.911   0.941   5.663  1.2512  0.2112 -0.7206
10465SOL     OW33401   4.168   9.643   4.213  0.4823 -0.1916  0.0185
10465SOL    HW133402   4.147   9.641   4.306 -0.1677  0.9745 -0.0740
10465SOL    HW233403   4.082   9.643   4.169  0.7111 -3.8653 -0.7630
10466SOL     OW33404   0.020  10.514   4.288  0.2417  0.2150 -0.6758
10466SOL    HW133405  -0.067  10.535   4.253  0.6707  2.7590 -0.4200
10466SOL    HW233406   0.020  10.551   4.376  0.7532 -2.0410  0.3328
10467SOL     OW33407   3.920   2.816   3.081  0.4625 -0.1919  0.2636
10467SOL    HW133408   3.959   2.856   3.004  0.4014  0.5395  0.6031
10467SOL    HW233409   3.960   2.729   3.087  1.1354  0.0947 -0.0671
10468SOL     OW33410   9.328   1.589   4.591 -0.3163  0.1658 -0.0880
10468SOL    HW133411   9.358   1.588   4.682  0.6194 -0.0785 -0.3959
10468SOL    HW233412   9.369   1.512   4.551 -0.3740  0.5112 -0.8258
10469SOL     OW33413   2.939  11.031   1.501 -0.6160  0.0160 -0.5745
10469SOL    HW133414   2.924  11.092   1.429 -0.2553 -1.1146 -1.6481
10469SOL    HW233415   2.878  10.959   1.484 -1.2585  0.2026  0.8356
10470SOL     OW33416   6.775   2.483   1.002  0.4258  0.1054 -0.4944
10470SOL    HW133417   6.704   2.532   1.043  0.4560  0.6606 -1.0829
10470SOL    HW233418   6.774   2.398   1.045  0.0436  0.4524  0.1920
10471SOL     OW33419   4.783   0.548   7.406  0.2863 -0.4525  0.3048
10471SOL    HW133420   4.797   0.583   7.494  2.3951 -3.2490  1.2427
10471SOL    HW233421   4.802   0.454   7.415  0.8844 -0.7857 -3.1909
10472SOL     OW33422   5.341   3.972   6.182  0.5725 -0.1267  0.3085
10472SOL    HW133423   5.252   3.945   6.205  0.0829 -0.4530 -1.7794
10472SOL    HW233424   5.338   4.068   6.183  0.1109 -0.1337 -0.0091
10473SOL     OW33425  10.373   1.975   4.881  0.3399 -0.4358  0.4412
10473SOL    HW133426  10.451   2.030   4.887  0.9620 -1.2105 -0.3133
10473SOL    HW233427  10.393   1.912   4.812 -1.8727  0.8005 -1.5034
10474SOL     OW33428   2.959   8.344   4.121  0.0602 -0.0382  0.2602
10474SOL    HW133429   2.924   8.260   4.091  1.3956 -0.2782 -0.7182
10474SOL    HW233430   2.901   8.409   4.082  0.0247 -0.4598 -0.4065
10475SOL     OW33431   7.152   3.493   1.954 -0.3792  0.0120 -0.1660
10475SOL    HW133432   7.101   3.572   1.974 -1.7062 -0.6126 -0.9451
10475SOL    HW233433   7.168   3.453   2.039 -0.5505  0.5970  0.1515
10476SOL     OW33434   9.367   3.117   7.432  0.0772 -0.2747 -0.1827
10476SOL    HW133435   9.375   3.025   7.406  2.1901 -0.7063  1.6803
10476SOL    HW233436   9.296   3.119   7.495  0.2770 -0.7116  0.0565
10477SOL     OW33437   2.785   3.708   8.851 -0.0383  0.3826  0.3544
10477SOL    HW133438   2.709   3.731   8.798 -0.3356  0.8214  0.9607
10477SOL    HW233439   2.752   3.704   8.941  0.5712  0.1844  0.5765
10478SOL     OW33440   0.463   1.366  11.005  0.6703 -0.2211 -0.0722
10478SOL    HW133441   0.459   1.277  10.973  1.7375 -0.4024  0.2581
10478SOL    HW233442   0.430   1.361  11.095 -2.7562  0.3622 -1.1590
10479SOL     OW33443   5.375   3.366   3.280  0.3388  0.0371  0.2016
10479SOL    HW133444   5.310   3.382   3.211  0.0606 -0.4706  0.3403
10479SOL    HW233445   5.346   3.285   3.322  1.7105 -0.8672 -0.5032
10480SOL     OW33446  10.124   3.983   9.572 -0.4549 -0.1180 -0.2449
10480SOL    HW133447  10.112   3.889   9.558 -0.1284 -0.5783  2.0098
10480SOL    HW233448  10.215   3.991   9.601 -0.8379  0.6942  0.8069
10481SOL     OW33449   1.621   7.946   3.060 -0.4664  0.2261  0.3006
10481SOL    HW133450   1.691   7.930   2.997 -0.3025  4.0640 -0.6830
10481SOL    HW233451   1.647   7.895   3.137  2.4430  0.0368 -0.6852
10482SOL     OW33452  10.117   1.431   4.736  0.2761 -0.1325 -0.5003
10482SOL    HW133453  10.044   1.488   4.715  1.0966  0.6468 -1.3283
10482SOL    HW233454  10.174   1.483   4.792 -0.4861 -1.2293  1.3761
10483SOL     OW33455   9.614   9.625   8.875 -0.6679  0.1607 -0.1161
10483SOL    HW133456   9.642   9.700   8.823 -0.0174  0.5049  0.7120
10483SOL    HW233457   9.630   9.550   8.818  0.4444  0.4866 -0.2677
10484SOL     OW33458   7.982   4.720  10.869  0.5834 -0.4713  0.1670
10484SOL    HW133459   7.957   4.808  10.896  1.3462  0.0650 -0.8001
10484SOL    HW233460   8.030   4.685  10.944  0.2601 -0.0758  0.5651
10485SOL     OW33461   0.744   0.954   4.990 -0.2112 -0.4075 -0.5424
10485SOL    HW133462   0.744   0.922   4.900  2.6365  1.7782 -1.4890
10485SOL    HW233463   0.837   0.971   5.009 -0.7559 -0.3428  2.6848
10486SOL     OW33464   9.791   2.369   8.554 -0.2357  0.6970 -0.1779
10486SOL    HW133465   9.716   2.350   8.610  0.6407 -0.9490  0.5131
10486SOL    HW233466   9.867   2.339   8.604  0.6490 -0.1912 -1.9319
10487SOL     OW33467   5.840   8.992   3.339  0.3866  0.0903 -0.3008
10487SOL    HW133468   5.751   8.958   3.328  0.5117  0.2805 -2.4564
10487SOL    HW233469   5.842   9.028   3.428 -1.3218 -0.9237  0.1916
10488SOL     OW33470  10.121   0.399   5.131 -0.0115 -0.3951  0.2241
10488SOL    HW133471  10.185   0.422   5.063  0.0582  0.4294  0.5559
10488SOL    HW233472  10.099   0.483   5.172  0.1668 -0.9213  1.4202
10489SOL     OW33473   1.385   8.354  10.583  0.0117  0.2595 -0.4567
10489SOL    HW133474   1.397   8.418  10.653 -2.6579  0.3489  0.0348
10489SOL    HW233475   1.409   8.400  10.503 -1.2802  1.7115 -0.0467
10490SOL     OW33476   0.104   3.001   0.939  0.4167  0.3089  0.9761
10490SOL    HW133477   0.115   3.048   0.856  0.1439  1.7934  1.7539
10490SOL    HW233478   0.012   2.976   0.941  0.4459  0.1897  0.7837
10491SOL     OW33479   8.667   0.221   7.480 -0.2240 -0.2419  0.3370
10491SOL    HW133480   8.666   0.227   7.384  0.6473  0.2628  0.3500
10491SOL    HW233481   8.608   0.290   7.509 -1.2511 -1.0169  0.1558
10492SOL     OW33482   5.602   9.473   2.841  0.4679  0.0580  0.2872
10492SOL    HW133483   5.635   9.536   2.905 -2.0226  0.6167  1.1066
10492SOL    HW233484   5.529   9.429   2.885 -1.8865  1.0305 -2.3777
10493SOL     OW33485   8.771   9.326   6.360  0.2725  0.1454 -0.7277
10493SOL    HW133486   8.699   9.377   6.322 -0.0733 -0.4033 -0.8133
10493SOL    HW233487   8.773   9.245   6.310  0.5045 -0.1328 -0.2761
10494SOL     OW33488   1.440   2.047   1.894 -0.4675 -0.5227 -0.0221
10494SOL    HW133489   1.424   2.032   1.987 -1.0965 -1.9234 -0.3399
10494SOL    HW233490   1.367   2.101   1.865 -0.2075  0.0180  0.3073
10495SOL     OW33491   5.050   7.608   2.367 -0.7728  0.0361  0.3168
10495SOL    HW133492   5.051   7.661   2.447 -1.3557  0.8100 -0.1789
10495SOL    HW233493   5.137   7.567   2.365 -0.3930  0.7740  0.8484
10496SOL     OW33494   0.811   3.376   7.566 -0.1714  0.2999  0.2278
10496SOL    HW133495   0.854   3.347   7.485  1.1347 -0.7713  1.2650
10496SOL    HW233496   0.784   3.295   7.609 -2.5553  0.9183  0.0322
10497SOL     OW33497  10.737   4.695   8.697 -0.5512  0.2496 -0.6890
10497SOL    HW133498  10.685   4.676   8.775  1.0841  2.4340  1.0574
10497SOL    HW233499  10.705   4.779   8.666  0.6219  0.7112 -0.7031
10498SOL     OW33500   8.043   7.248   8.456  0.3145  0.1556  0.3528
10498SOL    HW133501   8.111   7.267   8.392  0.4834  1.5776  0.9112
10498SOL    HW233502   8.090   7.230   8.537  0.0564  0.1931  0.5116
10499SOL     OW33503   1.660   6.784   0.068 -0.4210 -0.6917 -0.0316
10499SOL    HW133504   1.748   6.747   0.063  0.2142  0.8943 -1.8361
10499SOL    HW233505   1.639   6.809  -0.022 -1.7966  1.0265  0.6950
10500SOL     OW33506   0.407   6.665   2.280  0.4361  0.4655  0.7553
10500SOL    HW133507   0.481   6.725   2.278  0.0228  1.0134 -1.8182
10500SOL    HW233508   0.447   6.578   2.279  1.0593  0.7512 -0.0799
10501SOL     OW33509   8.865   1.723   0.028  0.1666  0.5194 -0.3444
10501SOL    HW133510   8.929   1.670   0.075 -0.7700  0.5642  1.0527
10501SOL    HW233511   8.907   1.809   0.017 -0.0440  0.9192  1.6059
10502SOL     OW33512   5.126   7.935   7.102  0.1111  0.0613 -0.2108
10502SOL    HW133513   5.104   7.888   7.021  0.1405 -0.5460  0.1310
10502SOL    HW233514   5.121   7.868   7.171  1.2757  0.3052  0.1303
10503SOL     OW33515   0.990   5.432   3.647  0.5501  0.4929 -0.1856
10503SOL    HW133516   0.974   5.521   3.680 -0.4860 -0.0192  0.7593
10503SOL    HW233517   0.913   5.382   3.674  0.4036 -0.3700 -1.9927
10504SOL     OW33518   3.866   4.953   4.433 -0.4773  0.4115  0.2148
10504SOL    HW133519   3.860   4.873   4.380  1.8420  0.0598  0.3867
10504SOL    HW233520   3.861   5.024   4.370 -1.4740  0.1308 -0.0476
10505SOL     OW33521   5.085   5.359   5.322  0.0485 -0.1911  0.2458
10505SOL    HW133522   5.103   5.278   5.370  0.7084 -0.4959 -0.4976
10505SOL    HW233523   5.086   5.427   5.389 -2.7157 -1.0058  1.2741
10506SOL     OW33524   8.608   6.810   9.982  0.6889 -0.4055 -0.1711
10506SOL    HW133525   8.656   6.871   9.926  0.6742  0.0552  0.3048
10506SOL    HW233526   8.603   6.854  10.066 -1.1916 -0.1318 -0.3876
10507SOL     OW33527  10.736   2.525   2.989  0.1754  0.1205  0.3692
10507SOL    HW133528  10.773   2.463   2.927  1.4795  0.5714  0.6545
10507SOL    HW233529  10.648   2.492   3.008  1.2072 -2.2891  1.3874
10508SOL     OW33530   1.258   1.760   1.716 -0.6850 -0.1998  0.0076
10508SOL    HW133531   1.291   1.833   1.664 -0.7988 -1.2475 -1.5926
10508SOL    HW233532   1.165   1.755   1.692 -0.4225 -1.5806 -0.8196
10509SOL     OW33533   0.164   4.291   0.789 -0.1011 -0.2011  0.1309
10509SOL    HW133534   0.233   4.227   0.803  1.4184  0.9059 -1.8372
10509SOL    HW233535   0.115   4.258   0.713 -0.7463 -0.1780  0.5303
10510SOL     OW33536   0.248   0.351   8.816  0.4514  0.2989  0.2165
10510SOL    HW133537   0.312   0.404   8.768  1.2591 -0.5530  0.3272
10510SOL    HW233538   0.173   0.409   8.827  0.5069  0.7531 -1.4804
10511SOL     OW33539   7.971   2.065   5.481  0.0647  0.0624  0.5859
10511SOL    HW133540   8.028   1.991   5.500 -0.0206 -0.1406  0.0578
10511SOL    HW233541   7.905   2.063   5.550 -0.5374 -0.9674  0.0007
10512SOL     OW33542   4.628  10.242   3.192 -0.6153 -0.4190 -0.4178
10512SOL    HW133543   4.540  10.205   3.197  0.0446 -1.9448  1.0980
10512SOL    HW233544   4.636  10.295   3.271 -0.0682 -0.5527 -0.3817
10513SOL     OW33545   8.858   5.001   9.315 -0.6577  0.5308 -0.4675
10513SOL    HW133546   8.942   4.974   9.350 -0.8851 -1.7272 -1.4911
10513SOL    HW233547   8.823   5.062   9.380  1.2975  0.7187  0.4618
10514SOL     OW33548   2.245   7.198   9.779 -0.2321  0.8830  0.1929
10514SOL    HW133549   2.275   7.175   9.867  0.6066  1.4424  0.0594
10514SOL    HW233550   2.190   7.124   9.753 -1.1076  1.0287  1.4671
10515SOL     OW33551   2.973   0.136   0.958 -0.4030  0.2757 -0.4430
10515SOL    HW133552   2.936   0.219   0.928  0.2346  0.5566 -0.4641
10515SOL    HW233553   2.898   0.087   0.991 -0.6269  1.3295  0.6736
10516SOL     OW33554   9.871   8.594   5.108 -0.3705 -0.4118 -0.7367
10516SOL    HW133555   9.864   8.511   5.157 -0.4065 -0.0098 -0.0400
10516SOL    HW233556   9.919   8.571   5.029  1.8332 -0.6446  0.5782
10517SOL     OW33557   1.616   0.338   4.254 -0.1002  0.1106 -0.6093
10517SOL    HW133558   1.546   0.366   4.196 -1.4079 -0.8412  0.4401
10517SOL    HW233559   1.627   0.245   4.234 -0.7161 -0.2825  0.7531
10518SOL     OW33560   1.339   3.623   3.161  0.0246 -0.1381  0.3123
10518SOL    HW133561   1.258   3.575   3.147 -1.3183  2.0135  0.2715
10518SOL    HW233562   1.378   3.582   3.238 -0.7356 -1.6398 -0.0717
10519SOL     OW33563   1.680   7.395   5.290 -0.1844  0.4180  0.0121
10519SOL    HW133564   1.728   7.475   5.308 -0.2520  0.4855 -0.1090
10519SOL    HW233565   1.594   7.425   5.260 -0.2999  0.2994  0.2176
10520SOL     OW33566   0.487   3.597   7.723 -0.1889 -0.6081  0.2949
10520SOL    HW133567   0.573   3.613   7.684 -0.4903 -2.6736 -1.4272
10520SOL    HW233568   0.426   3.611   7.651 -0.8840 -3.3199  0.2454
10521SOL     OW33569   4.133   7.254   6.272  0.1385  0.0090  0.0799
10521SOL    HW133570   4.066   7.319   6.294  0.1876  0.2805 -0.5552
10521SOL    HW233571   4.203   7.269   6.337 -0.5345 -0.4782  0.9374
10522SOL     OW33572   8.425   6.028   4.337 -0.2911  0.2978  0.0259
10522SOL    HW133573   8.454   6.078   4.261 -2.6510  0.7869 -0.6550
10522SOL    HW233574   8.355   6.081   4.375 -0.7551 -1.0480  1.1419
10523SOL     OW33575   5.208   7.252   5.098 -0.1909  0.5580 -0.3633
10523SOL    HW133576   5.256   7.269   5.017  0.6764  3.0153  0.5814
10523SOL    HW233577   5.181   7.339   5.129  3.7669  0.5143  4.4692
10524SOL     OW33578   5.759  10.974   0.259  0.1018 -0.1077 -0.3120
10524SOL    HW133579   5.762  11.067   0.280  0.5461  0.0116 -0.8602
10524SOL    HW233580   5.790  10.930   0.337  2.8808  0.3793 -1.0504
10525SOL     OW33581   7.594   0.862   6.231  0.2073 -0.0166 -0.7749
10525SOL    HW133582   7.660   0.925   6.202  0.2509  1.7919  2.7140
10525SOL    HW233583   7.513   0.890   6.189  0.6857  0.8513 -1.1393
10526SOL     OW33584   6.311   6.430   3.237  0.5825 -0.0483  0.1219
10526SOL    HW133585   6.313   6.338   3.210  0.5950 -0.0802  0.2322
10526SOL    HW233586   6.266   6.430   3.321  1.3561 -0.0700  0.5527
10527SOL     OW33587  10.334   7.297   6.315  0.2664  0.2161 -0.2953
10527SOL    HW133588  10.282   7.330   6.389  0.4142  1.0465 -0.5514
10527SOL    HW233589  10.392   7.231   6.354 -0.1927  0.0865  0.1874
10528SOL     OW33590  10.379   6.448   8.249 -0.6249 -0.5755 -0.2915
10528SOL    HW133591  10.426   6.402   8.318 -3.2157 -1.3704  1.0742
10528SOL    HW233592  10.367   6.381   8.181  0.1410 -0.3695 -0.6455
10529SOL     OW33593   9.683   4.794   4.790 -0.6521  0.0192 -0.2576
10529SOL    HW133594   9.597   4.753   4.800 -1.0484  0.7622 -0.5486
10529SOL    HW233595   9.671   4.882   4.826  0.4582 -0.4259  1.2952
10530SOL     OW33596   4.213   2.246   4.074  0.0345  0.4957  0.2597
10530SOL    HW133597   4.188   2.177   4.013 -1.6206  0.3620  1.0280
10530SOL    HW233598   4.239   2.199   4.154  2.1240  0.6683 -0.2628
10531SOL     OW33599   1.509   7.644   5.481 -0.2250 -0.4055  0.2058
10531SOL    HW133600   1.600   7.641   5.454 -0.2482  0.3698  0.0261
10531SOL    HW233601   1.460   7.618   5.403 -0.0834 -3.1479  0.9351
10532SOL     OW33602   7.358   1.951   0.788 -0.3648 -0.1403 -0.1966
10532SOL    HW133603   7.429   2.004   0.824 -1.5447  0.4899  1.3322
10532SOL    HW233604   7.388   1.927   0.700  0.8405  1.8381 -0.3834
10533SOL     OW33605   2.471   1.181   4.463 -0.3131  0.6085 -0.1420
10533SOL    HW133606   2.470   1.229   4.380 -0.0296 -0.3210 -0.6928
10533SOL    HW233607   2.558   1.143   4.467 -0.6412 -0.1230  0.1377
10534SOL     OW33608   0.719   9.325   2.172  0.0974  0.5804 -0.0897
10534SOL    HW133609   0.674   9.269   2.235  0.1527  1.6262  0.9143
10534SOL    HW233610   0.771   9.265   2.119 -0.4968 -0.3929  0.4118
10535SOL     OW33611   7.132   2.690   8.906  0.0383 -0.0387  0.2732
10535SOL    HW133612   7.074   2.701   8.981  0.8069  2.5809  0.5756
10535SOL    HW233613   7.100   2.753   8.841  1.1008 -0.2336 -0.4741
10536SOL     OW33614   6.670   4.569   3.010 -0.4972  0.0557  0.6144
10536SOL    HW133615   6.707   4.552   3.097  0.8013 -1.1308 -0.1260
10536SOL    HW233616   6.704   4.655   2.985 -0.7347  0.3223  1.2003
10537SOL     OW33617  11.000   6.504   9.830 -0.2644  0.0283 -0.7967
10537SOL    HW133618  10.910   6.476   9.846 -1.0450  2.6108 -0.1998
10537SOL    HW233619  11.011   6.581   9.885  2.4470 -0.3802 -0.6407
10538SOL     OW33620   7.040   6.926   3.398 -0.3445  0.1259 -0.3132
10538SOL    HW133621   7.108   6.924   3.465  0.5143 -4.0165 -1.0172
10538SOL    HW233622   6.960   6.901   3.443 -0.0034 -1.4716 -0.5312
10539SOL     OW33623   2.211   4.509   8.261  0.2268  0.4516  0.4758
10539SOL    HW133624   2.168   4.493   8.177 -1.5179 -0.1420  1.4401
10539SOL    HW233625   2.239   4.601   8.256 -1.3844  0.9478 -0.1103
10540SOL     OW33626   2.794   8.155   8.659  0.1505  0.2367 -0.3084
10540SOL    HW133627   2.749   8.150   8.744  1.8922  0.9746  0.7189
10540SOL    HW233628   2.729   8.126   8.595 -1.1139 -0.6474  1.3096
10541SOL     OW33629   7.098   1.818   3.958  0.4324  0.0628  0.6010
10541SOL    HW133630   7.004   1.833   3.944  0.2151 -0.9450  0.9220
10541SOL    HW233631   7.128   1.898   4.002  0.3446  1.6447 -2.0123
10542SOL     OW33632  10.677   6.169  10.332  0.3065  0.4354  0.1616
10542SOL    HW133633  10.680   6.261  10.308  0.2289  0.8886  1.7591
10542SOL    HW233634  10.651   6.123  10.252  2.2766  1.5669 -1.2051
10543SOL     OW33635   6.439   6.317   7.761  0.3297  0.0702 -0.0495
10543SOL    HW133636   6.360   6.342   7.714  0.3661  1.3373  0.5004
10543SOL    HW233637   6.439   6.222   7.762 -0.1816  0.0292 -1.7328
10544SOL     OW33638   4.406   8.192   6.720  0.5460  0.8933  0.2399
10544SOL    HW133639   4.461   8.173   6.796 -1.1075  0.6818  1.4563
10544SOL    HW233640   4.348   8.261   6.750  2.3340  3.6171 -2.1151
10545SOL     OW33641   9.628   1.524   4.379 -0.2354  0.2665 -0.2866
10545SOL    HW133642   9.620   1.499   4.471 -0.3754  2.2248  0.2874
10545SOL    HW233643   9.723   1.522   4.362 -0.1852  0.2349 -0.0055
10546SOL     OW33644   4.272   9.439   8.045  0.1978  0.2223 -0.1234
10546SOL    HW133645   4.271   9.428   7.950  2.3804 -0.1561 -0.1729
10546SOL    HW233646   4.302   9.354   8.078 -0.9487  0.2161  0.9575
10547SOL     OW33647   0.963   6.435   0.007  0.7657 -0.1625 -0.3175
10547SOL    HW133648   0.868   6.428  -0.003  0.8289  0.5155 -1.6066
10547SOL    HW233649   0.997   6.356  -0.036  0.7518 -1.2511  1.5759
10548SOL     OW33650   6.471   8.184   7.285 -0.5832  0.1253 -0.4160
10548SOL    HW133651   6.524   8.256   7.251 -0.1456 -0.3299 -0.7088
10548SOL    HW233652   6.530   8.135   7.341 -1.0819  0.4000  0.3667
10549SOL     OW33653   9.874   1.990   6.432 -0.3379  0.2812  0.0489
10549SOL    HW133654   9.962   2.029   6.426  0.1199 -0.9164 -1.7347
10549SOL    HW233655   9.889   1.896   6.423 -1.9612  0.1818 -2.3100
10550SOL     OW33656   2.908   9.752   9.118 -0.3143  0.2921 -0.3713
10550SOL    HW133657   2.905   9.697   9.040 -0.3454 -1.3598  0.7374
10550SOL    HW233658   2.835   9.722   9.172 -0.7321  1.8951  0.0045
10551SOL     OW33659   8.264   2.049   7.751  0.1618  0.0564 -0.0242
10551SOL    HW133660   8.342   2.046   7.807 -0.6941 -3.3676  1.2922
10551SOL    HW233661   8.273   1.972   7.695 -1.9381 -0.0638 -0.2621
10552SOL     OW33662   6.542   6.898   8.045  0.2583  0.1301  0.0162
10552SOL    HW133663   6.625   6.941   8.067  0.6286 -1.1192  1.2403
10552SOL    HW233664   6.491   6.966   8.001  1.5756  1.2048  0.0700
10553SOL     OW33665   5.296   2.255   9.603 -0.4711  0.4446 -0.0422
10553SOL    HW133666   5.367   2.193   9.591 -0.1763  0.9783 -1.1513
10553SOL    HW233667   5.336   2.341   9.587 -1.0923  0.8491  0.5075
10554SOL     OW33668   7.406   2.373   9.696  0.0072  0.2576  0.3656
10554SOL    HW133669   7.313   2.350   9.688 -0.1328  0.9671 -0.0922
10554SOL    HW233670   7.452   2.296   9.664 -0.4277  0.0469  0.2360
10555SOL     OW33671   5.210   0.763   0.304 -0.0276  0.4397  0.7419
10555SOL    HW133672   5.165   0.793   0.225 -0.3167  0.6278  0.9797
10555SOL    HW233673   5.145   0.710   0.350  0.3962 -0.3614  0.4484
10556SOL     OW33674  10.274   3.893   1.287  0.3591 -0.1599  0.0750
10556SOL    HW133675  10.361   3.879   1.325 -0.1719  0.3203  1.5638
10556SOL    HW233676  10.252   3.983   1.310 -0.0805  0.1023 -1.2838
10557SOL     OW33677  10.437   1.359   0.350  0.1369 -0.0338  0.6567
10557SOL    HW133678  10.487   1.346   0.430  1.1970 -0.6843 -0.0811
10557SOL    HW233679  10.448   1.452   0.329  0.6441 -0.0683  0.7626
10558SOL     OW33680   2.149   4.765   0.515 -0.4763  0.5302 -0.3561
10558SOL    HW133681   2.112   4.793   0.431 -1.0633  0.8548  0.0072
10558SOL    HW233682   2.091   4.802   0.581  0.0083  0.3159  0.2023
10559SOL     OW33683   7.699   4.546   5.341 -0.0714 -0.0189 -0.1851
10559SOL    HW133684   7.655   4.566   5.424  1.0530  2.6889 -0.1576
10559SOL    HW233685   7.690   4.451   5.333 -2.7397 -0.0505  1.5681
10560SOL     OW33686   0.450  10.178  10.032 -0.1819  0.0300 -0.1627
10560SOL    HW133687   0.540  10.191  10.004  0.0294 -0.7758  0.1102
10560SOL    HW233688   0.424  10.095   9.993 -0.5195 -0.1687  0.4579
10561SOL     OW33689  10.087   4.932   6.165 -0.0360  0.0832  0.1981
10561SOL    HW133690  10.144   4.985   6.110 -0.8747  1.1843  0.3739
10561SOL    HW233691  10.058   4.991   6.234  1.1998 -1.3192  2.0312
10562SOL     OW33692   0.349   4.537   1.377  0.3551 -0.2599 -0.5581
10562SOL    HW133693   0.303   4.469   1.426 -0.7755 -0.9454 -2.4452
10562SOL    HW233694   0.367   4.497   1.292  1.1310  1.2730 -1.1522
10563SOL     OW33695   1.707   4.612   3.583  0.1891 -0.6198 -0.5415
10563SOL    HW133696   1.688   4.563   3.503 -1.1619 -0.2446 -0.4878
10563SOL    HW233697   1.625   4.659   3.602  0.7490 -0.0581  0.6034
10564SOL     OW33698   2.317   4.289   9.434  0.2138  0.3978  0.0023
10564SOL    HW133699   2.252   4.335   9.382  0.1686 -0.3669 -0.6405
10564SOL    HW233700   2.266   4.237   9.496  0.1242 -1.2037 -1.3452
10565SOL     OW33701   6.235   5.055   2.394 -0.2088 -0.4483  0.3450
10565SOL    HW133702   6.284   5.014   2.322 -0.5768  1.9870 -1.4056
10565SOL    HW233703   6.288   5.131   2.419 -0.9406 -0.2994  1.4999
10566SOL     OW33704   4.254   0.141   6.753 -0.6272 -0.0042 -0.3696
10566SOL    HW133705   4.327   0.106   6.805 -0.8835 -0.7896 -0.5191
10566SOL    HW233706   4.285   0.225   6.720  1.3287 -1.4908 -2.7121
10567SOL     OW33707   8.122   4.623   8.961  0.3352 -0.3859  0.4981
10567SOL    HW133708   8.041   4.674   8.957  1.8048  2.0839 -0.4428
10567SOL    HW233709   8.144   4.607   8.870  1.1421 -0.5808  0.7230
10568SOL     OW33710  10.898   1.336   7.993 -0.3066 -0.0957  0.2967
10568SOL    HW133711  10.814   1.382   7.991  0.0276  0.5249  0.0504
10568SOL    HW233712  10.940   1.360   7.910 -0.1368 -0.8787  0.1556
10569SOL     OW33713   4.257   4.974   4.735  0.1665  0.0719  0.2415
10569SOL    HW133714   4.351   4.985   4.750  0.4872 -2.3127  0.3732
10569SOL    HW233715   4.228   4.921   4.809 -1.1386  0.1475 -0.2046
10570SOL     OW33716   0.210   0.256   9.787 -0.5449  0.1141 -1.0616
10570SOL    HW133717   0.299   0.277   9.756 -0.8620 -0.5307 -2.5071
10570SOL    HW233718   0.167   0.341   9.794  0.5218  0.5465  0.8372
10571SOL     OW33719   2.616   7.953   0.384 -0.5067  0.8773  0.0266
10571SOL    HW133720   2.537   7.942   0.437 -0.3655  2.7593  0.7070
10571SOL    HW233721   2.686   7.921   0.441 -0.5776  0.9657  0.1659
10572SOL     OW33722   7.580   8.382   6.944 -0.9053 -0.1067  0.3052
10572SOL    HW133723   7.541   8.367   6.857 -0.2755 -0.6156  0.1039
10572SOL    HW233724   7.579   8.477   6.955 -0.6659 -0.0190 -0.4109
10573SOL     OW33725   7.158   0.741   2.583 -0.9341 -0.5334  0.3382
10573SOL    HW133726   7.249   0.755   2.554 -1.1832 -0.8496 -0.6380
10573SOL    HW233727   7.161   0.754   2.678 -0.1414  0.9263  0.1566
10574SOL     OW33728   4.845   4.331   8.290 -0.2560 -0.5922 -0.1260
10574SOL    HW133729   4.760   4.296   8.317 -0.5563 -0.9394 -1.4194
10574SOL    HW233730   4.908   4.264   8.314 -0.4166 -0.5622  0.3812
10575SOL     OW33731   0.865   3.603   1.750  0.1489 -0.3728 -0.0380
10575SOL    HW133732   0.898   3.692   1.759 -0.2212 -0.1465 -0.9000
10575SOL    HW233733   0.770   3.612   1.751  0.0989 -0.8545  0.7215
10576SOL     OW33734   6.485   4.941   1.245 -0.7300 -0.4588  0.1826
10576SOL    HW133735   6.451   4.901   1.165  1.0210 -0.5595 -0.5441
10576SOL    HW233736   6.540   4.873   1.284  2.3668  1.0860 -1.1093
10577SOL     OW33737   7.897   2.773   9.852 -0.2895 -0.3441 -0.3942
10577SOL    HW133738   7.908   2.780   9.947 -0.7954 -1.2899 -0.2522
10577SOL    HW233739   7.865   2.684   9.838  1.2359 -0.7473 -1.5920
10578SOL     OW33740   4.332   4.540   3.081 -0.4974  0.2507  0.5114
10578SOL    HW133741   4.287   4.480   3.022 -0.6021 -1.5888  2.3344
10578SOL    HW233742   4.274   4.616   3.088 -1.8935 -0.7859  0.5100
10579SOL     OW33743   6.166   5.206   9.351  0.2003 -0.2537 -0.8190
10579SOL    HW133744   6.208   5.134   9.304 -0.2006 -0.7096 -0.4887
10579SOL    HW233745   6.239   5.253   9.393  0.3152 -1.9706  1.0790
10580SOL     OW33746   9.620   9.798   4.440  0.2902  0.1951 -0.6108
10580SOL    HW133747   9.599   9.887   4.467  1.9127  0.3539  0.2381
10580SOL    HW233748   9.709   9.804   4.405 -0.3764 -0.7097 -2.5840
10581SOL     OW33749   9.087   0.219   7.125  0.0984  0.3383  0.1132
10581SOL    HW133750   9.059   0.133   7.096 -0.1846  0.9171 -1.3707
10581SOL    HW233751   9.137   0.255   7.052 -1.0514  2.0425  0.1141
10582SOL     OW33752   4.767  10.818   5.330 -0.0146  0.2328  1.0242
10582SOL    HW133753   4.795  10.727   5.320 -1.1589 -0.1353  1.0226
10582SOL    HW233754   4.690  10.814   5.387 -0.8030  1.0766  0.0575
10583SOL     OW33755   2.045   5.970   3.509 -0.0651  0.7324 -0.0193
10583SOL    HW133756   2.130   5.948   3.548  0.3546  0.4982 -1.0294
10583SOL    HW233757   2.014   5.888   3.471 -1.7494  0.2938  2.1070
10584SOL     OW33758   1.667   5.731   4.890  0.3925 -0.0031  0.1471
10584SOL    HW133759   1.588   5.712   4.839  0.3518  0.2460  0.1186
10584SOL    HW233760   1.661   5.671   4.964  0.4061 -0.3023 -0.0911
10585SOL     OW33761   0.586   7.773   5.071 -0.3841 -0.0497 -0.2821
10585SOL    HW133762   0.650   7.710   5.105  1.8460  2.5315  0.7183
10585SOL    HW233763   0.564   7.740   4.984  2.2816 -1.1625 -0.6386
10586SOL     OW33764   7.744   3.363   6.225 -0.1746  0.2776 -0.2460
10586SOL    HW133765   7.697   3.412   6.293 -1.1513  1.7758 -1.9311
10586SOL    HW233766   7.715   3.272   6.235 -1.4129  0.7369  0.4054
10587SOL     OW33767   8.593   0.252   7.188 -0.0956 -0.2887 -0.2892
10587SOL    HW133768   8.604   0.347   7.198 -1.9063  0.3414 -3.0445
10587SOL    HW233769   8.664   0.225   7.131  0.2069 -0.5447  0.2016
10588SOL     OW33770  10.566   5.726   5.056  0.1911 -0.3266 -0.2806
10588SOL    HW133771  10.521   5.641   5.058 -1.2123  0.3834 -0.0511
10588SOL    HW233772  10.519   5.776   4.990  0.2834  0.6285  0.3597
10589SOL     OW33773   2.205   9.913   0.611  0.3801  0.2980 -0.3986
10589SOL    HW133774   2.193  10.001   0.576  1.5885  0.2249 -1.0399
10589SOL    HW233775   2.228   9.860   0.535 -2.1865 -1.0054 -0.3723
10590SOL     OW33776   7.589   7.478   9.503  0.3202  0.7075 -0.0382
10590SOL    HW133777   7.677   7.491   9.536 -0.2602  1.4133  1.3053
10590SOL    HW233778   7.598   7.408   9.437  1.6133 -0.3441  1.1931
10591SOL     OW33779   1.755  10.446   6.989 -0.0793 -0.2230 -0.7890
10591SOL    HW133780   1.684  10.449   7.053 -0.3875 -1.2721 -1.0572
10591SOL    HW233781   1.772  10.538   6.967  0.0552  0.1515  0.8019
10592SOL     OW33782   2.394   1.101   8.955  0.2002  0.7810 -0.5954
10592SOL    HW133783   2.470   1.159   8.958  1.0135 -0.2580 -0.4692
10592SOL    HW233784   2.372   1.093   8.862  0.2927  1.0260 -0.6373
10593SOL     OW33785   5.025   3.390   5.704 -0.3662 -0.1517 -0.2262
10593SOL    HW133786   5.033   3.414   5.796  0.7271  0.3286 -0.4256
10593SOL    HW233787   4.932   3.374   5.691 -0.5538 -0.0712  0.9207
10594SOL     OW33788   8.263   3.597   3.207  0.7912 -0.2150  0.3624
10594SOL    HW133789   8.189   3.654   3.183  0.5120 -0.6661  0.1487
10594SOL    HW233790   8.251   3.582   3.301 -0.4996 -1.8440 -0.0156
10595SOL     OW33791   7.850  10.808   6.385  0.0359  0.1341 -0.2168
10595SOL    HW133792   7.788  10.874   6.415  0.0425  0.0486 -0.0108
10595SOL    HW233793   7.836  10.733   6.443  0.7157  0.3144  0.1947
10596SOL     OW33794   8.463   7.294   4.042  0.2527  0.1792 -0.1079
10596SOL    HW133795   8.372   7.269   4.055  0.6763 -0.1426  3.0555
10596SOL    HW233796   8.512   7.212   4.046  0.7771  0.4330 -0.9236
10597SOL     OW33797   1.939   1.531   9.331  0.3870  0.7084  0.5110
10597SOL    HW133798   2.010   1.595   9.333 -0.1975  1.3795  0.1123
10597SOL    HW233799   1.885   1.558   9.257 -1.2702  1.2770  1.8852
10598SOL     OW33800   0.481   8.965   3.062  0.2978 -0.1549  0.0983
10598SOL    HW133801   0.576   8.959   3.057  0.3645  1.2186 -0.8786
10598SOL    HW233802   0.450   8.930   2.978 -0.1110 -1.1635  0.6505
10599SOL     OW33803   4.728   5.522   7.126 -0.0549 -0.0187 -0.1117
10599SOL    HW133804   4.664   5.554   7.191  1.4259 -0.9031  1.9032
10599SOL    HW233805   4.711   5.428   7.120  0.2908 -0.0574 -0.4914
10600SOL     OW33806   5.226  10.748   1.902 -0.0020 -0.3903 -0.3329
10600SOL    HW133807   5.287  10.786   1.966 -0.7922  1.0033 -0.3793
10600SOL    HW233808   5.283  10.709   1.836  0.8272 -0.8234  0.5945
10601SOL     OW33809   5.861   5.777   4.461  0.6810  0.4208 -0.3391
10601SOL    HW133810   5.881   5.863   4.424 -0.3867 -0.3178 -2.8453
10601SOL    HW233811   5.946   5.742   4.487  1.2049  1.9509  0.1450
10602SOL     OW33812   3.568   1.881   1.751 -0.2992 -0.3953 -0.0738
10602SOL    HW133813   3.545   1.933   1.828 -1.6573 -0.7318 -0.2302
10602SOL    HW233814   3.649   1.921   1.718  0.3638 -0.3112  1.5671
10603SOL     OW33815   3.067  10.871  10.760  0.0011 -0.2472 -0.9799
10603SOL    HW133816   3.124  10.946  10.741  2.5189 -1.2267  1.9239
10603SOL    HW233817   3.089  10.807  10.692  3.4106 -1.0092  0.6050
10604SOL     OW33818  10.938   6.756   6.892  0.1891  1.4158  0.0148
10604SOL    HW133819  11.019   6.764   6.843  0.0175 -0.4825 -0.6513
10604SOL    HW233820  10.952   6.682   6.951 -1.4457  0.1493 -1.0601
10605SOL     OW33821   8.886  10.731  10.842 -0.2251  0.4580 -0.8681
10605SOL    HW133822   8.886  10.825  10.824  1.6983  0.3795 -1.5123
10605SOL    HW233823   8.978  10.710  10.858 -0.9228 -0.8496  2.0050
10606SOL     OW33824   1.604   9.304   5.201 -0.7617 -0.4350  0.7290
10606SOL    HW133825   1.638   9.286   5.114 -2.2537  1.1000 -0.2337
10606SOL    HW233826   1.613   9.221   5.248  1.0302 -1.0133 -0.5206
10607SOL     OW33827   0.175   3.609   5.638 -0.3784 -0.4684  0.0308
10607SOL    HW133828   0.252   3.634   5.689 -0.4657  0.1563 -0.1297
10607SOL    HW233829   0.191   3.648   5.552 -0.1618 -1.6248 -0.4730
10608SOL     OW33830   9.020   0.395   4.701 -0.2927 -0.1966 -0.0934
10608SOL    HW133831   9.062   0.394   4.787 -1.6113 -0.1801  0.5792
10608SOL    HW233832   9.089   0.421   4.641  0.5079  0.3943  1.0445
10609SOL     OW33833  10.952   3.409   3.923  0.2771 -0.0129 -0.4659
10609SOL    HW133834  10.925   3.487   3.974 -0.3509 -0.5890  0.1076
10609SOL    HW233835  11.040   3.430   3.893  0.1346  0.9123 -0.2901
10610SOL     OW33836   3.763   4.467   6.310  0.1235 -0.1216 -0.9358
10610SOL    HW133837   3.695   4.533   6.326 -0.6243 -1.3495  1.6181
10610SOL    HW233838   3.845   4.512   6.332 -0.4089 -0.0760  1.2045
10611SOL     OW33839   2.364   1.667   7.104 -0.2017 -0.3670  0.2702
10611SOL    HW133840   2.371   1.607   7.029 -1.1167 -1.5075  1.0472
10611SOL    HW233841   2.299   1.625   7.161 -1.5783  1.8348  0.4279
10612SOL     OW33842   9.329   4.908   9.548  0.0562  0.1770 -0.8712
10612SOL    HW133843   9.396   4.841   9.537 -0.0766 -0.0092 -0.5658
10612SOL    HW233844   9.296   4.895   9.637  0.3483  0.9450 -0.6430
10613SOL     OW33845   1.969   7.738   2.168  1.0013 -0.6096 -0.0671
10613SOL    HW133846   2.026   7.799   2.214 -0.7950  0.1414  1.2706
10613SOL    HW233847   2.026   7.697   2.102  3.1624 -0.2330  1.4653
10614SOL     OW33848   7.374   2.205   1.160 -0.0622  0.4699  0.0169
10614SOL    HW133849   7.452   2.198   1.216  0.0388 -1.1619 -0.2631
10614SOL    HW233850   7.309   2.247   1.215  0.9442  1.6808  0.3287
10615SOL     OW33851   6.109   0.113   8.718  0.4658 -0.1955  0.0811
10615SOL    HW133852   6.044   0.160   8.666  0.5728 -2.6052 -2.4887
10615SOL    HW233853   6.060   0.075   8.790 -0.5068 -0.0260 -0.4753
10616SOL     OW33854   1.917   9.325   7.107 -0.3132  0.2667 -0.6645
10616SOL    HW133855   1.996   9.303   7.058  0.6835 -0.6158  1.2176
10616SOL    HW233856   1.920   9.420   7.117  1.2896  0.1322  0.5374
10617SOL     OW33857   5.710   2.449  10.974 -0.3946 -0.2348 -0.1731
10617SOL    HW133858   5.645   2.448  11.044 -1.4149 -1.2742 -1.0962
10617SOL    HW233859   5.747   2.538  10.977  0.1873 -0.4863  2.1822
10618SOL     OW33860   9.271   3.076   8.830  0.0835  0.4910 -0.2900
10618SOL    HW133861   9.269   3.092   8.924  3.3234  2.9577 -0.4777
10618SOL    HW233862   9.274   2.980   8.822 -1.1837  0.1946  1.9957
10619SOL     OW33863   9.087   0.450   2.322  0.6538 -0.0000  0.8776
10619SOL    HW133864   9.161   0.511   2.322  0.9140 -0.2533  2.6965
10619SOL    HW233865   9.077   0.424   2.414 -2.1863  0.6021  0.8247
10620SOL     OW33866   0.752   7.327   2.074 -0.1445 -0.2754 -0.1184
10620SOL    HW133867   0.734   7.253   2.132  0.7713 -1.1124 -0.8652
10620SOL    HW233868   0.809   7.384   2.124  0.3312 -0.8054 -0.0447
10621SOL     OW33869   5.617   4.898   8.959 -0.0939 -0.9516 -0.3968
10621SOL    HW133870   5.668   4.894   8.877  1.5565  0.3352  0.5213
10621SOL    HW233871   5.543   4.954   8.938  0.6863 -0.0571 -0.8458
10622SOL     OW33872   5.454   0.827   7.767 -0.3800  0.4850  0.2073
10622SOL    HW133873   5.382   0.836   7.829  0.1017  2.9378  0.4922
10622SOL    HW233874   5.411   0.814   7.683 -1.0646 -0.9972  0.7432
10623SOL     OW33875   0.123   9.317   4.012  0.1832  0.0793  0.7246
10623SOL    HW133876   0.160   9.363   3.936  0.6951 -0.7126  0.4839
10623SOL    HW233877   0.133   9.379   4.084  1.1646  0.2327  0.4689
10624SOL     OW33878   3.786   0.263   1.776 -0.1429  0.0902 -0.1315
10624SOL    HW133879   3.768   0.323   1.703  0.6474  0.5959  0.0705
10624SOL    HW233880   3.881   0.251   1.774 -0.0091  0.6937  1.2444
10625SOL     OW33881   3.892   9.010   7.168 -0.3228 -0.3164  0.3931
10625SOL    HW133882   3.956   9.046   7.106 -0.9145 -0.8585 -0.5461
10625SOL    HW233883   3.921   8.920   7.182 -0.7301 -0.4805  0.1745
10626SOL     OW33884   2.462   1.482   5.913 -0.0777  0.0258  0.1882
10626SOL    HW133885   2.426   1.540   5.847 -1.1085 -0.1236  0.5984
10626SOL    HW233886   2.436   1.394   5.885 -1.0844  0.0094  1.1044
10627SOL     OW33887   0.642   9.878   3.349 -0.2852 -0.1982  0.1534
10627SOL    HW133888   0.692   9.847   3.425  2.3869 -1.7772 -2.0739
10627SOL    HW233889   0.605   9.798   3.310  3.1497 -0.4141 -3.2614
10628SOL     OW33890   0.807   3.534   1.474  0.2785 -0.4690 -0.1922
10628SOL    HW133891   0.731   3.555   1.528  1.4675  0.3971  1.2232
10628SOL    HW233892   0.882   3.539   1.534  1.7744  1.2872 -2.0570
10629SOL     OW33893   8.459   2.826   6.025 -1.2006  0.4727 -0.4325
10629SOL    HW133894   8.399   2.752   6.030 -0.1409 -0.3347  0.9317
10629SOL    HW233895   8.451   2.868   6.111  1.7235 -0.9349  0.6582
10630SOL     OW33896   6.384   3.778   8.737  0.2153  0.4055 -0.4525
10630SOL    HW133897   6.452   3.782   8.669  0.7339  1.6372  0.1077
10630SOL    HW233898   6.418   3.716   8.801  0.1839  0.0099 -0.8066
10631SOL     OW33899   8.439   7.650   5.230 -0.2793 -0.1371 -0.0447
10631SOL    HW133900   8.359   7.604   5.205  2.5656 -5.1703 -1.3826
10631SOL    HW233901   8.464   7.698   5.151 -2.3496  2.5059  0.7609
10632SOL     OW33902   2.124   8.081   7.194 -0.4389  0.3710 -0.1236
10632SOL    HW133903   2.211   8.090   7.155 -1.5111  0.2521 -2.7406
10632SOL    HW233904   2.109   7.987   7.197 -1.0333  0.4230 -1.0858
10633SOL     OW33905   7.727   4.721   6.036 -0.2808  0.0513  0.3642
10633SOL    HW133906   7.792   4.695   5.971 -2.1938 -0.5778 -1.4205
10633SOL    HW233907   7.763   4.691   6.119  0.9901 -1.7466 -0.7463
10634SOL     OW33908   0.363  10.619  10.861 -0.2944 -0.4411 -0.2576
10634SOL    HW133909   0.445  10.636  10.908 -0.5273  2.5306 -0.6874
10634SOL    HW233910   0.341  10.704  10.821 -3.0129 -1.4233 -1.0601
10635SOL     OW33911  10.391   2.467   9.550 -0.4487 -0.0811 -0.2004
10635SOL    HW133912  10.393   2.552   9.594 -1.0063  0.4652 -1.1862
10635SOL    HW233913  10.300   2.456   9.522 -0.6327 -1.5323  0.8752
10636SOL     OW33914   5.731   1.417   1.537 -0.1208 -0.0163 -0.5187
10636SOL    HW133915   5.684   1.438   1.618  0.4291  0.9070 -0.4197
10636SOL    HW233916   5.746   1.323   1.542  1.6130  0.2999  1.4068
10637SOL     OW33917   9.110   4.488   7.408  0.9199  0.6663  0.1190
10637SOL    HW133918   9.085   4.504   7.317 -0.6845 -0.1915  0.3674
10637SOL    HW233919   9.128   4.394   7.411 -5.6827 -1.1313  1.8860
10638SOL     OW33920   6.620   7.970  10.587 -0.6122 -0.7070 -0.1283
10638SOL    HW133921   6.552   8.016  10.537  0.0831 -0.4673 -0.8805
10638SOL    HW233922   6.580   7.886  10.610 -1.8866  0.2317  1.2481
10639SOL     OW33923   2.097   1.162   6.857 -0.5811  0.2453 -0.1713
10639SOL    HW133924   2.047   1.138   6.779  1.9811 -2.8078 -1.1018
10639SOL    HW233925   2.116   1.079   6.900  1.7100  1.4203  1.3096
10640SOL     OW33926   1.467   0.007   5.522 -0.0137 -0.6696  0.6594
10640SOL    HW133927   1.539   0.031   5.464 -0.1818  1.1856  1.1479
10640SOL    HW233928   1.390   0.007   5.466 -0.1779  1.1274  0.8090
10641SOL     OW33929   6.423   9.162  10.882  0.7995 -0.1317  0.4438
10641SOL    HW133930   6.440   9.173  10.789  0.3533  0.9993  0.4759
10641SOL    HW233931   6.442   9.070  10.900  0.9624 -0.3399 -0.7424
10642SOL     OW33932   4.072   0.696   0.718 -0.5170 -0.0661  0.1393
10642SOL    HW133933   4.035   0.753   0.786 -0.1604 -0.3490  0.5756
10642SOL    HW233934   4.011   0.622   0.715 -1.4551  0.7118 -1.0229
10643SOL     OW33935   7.430   9.987   5.669  0.3366  0.1590  0.1976
10643SOL    HW133936   7.495  10.054   5.688  1.1990 -0.4154 -0.5988
10643SOL    HW233937   7.376   9.981   5.748 -1.4794  3.6311 -0.6028
10644SOL     OW33938   4.379   3.188   3.489 -0.4224 -0.1182 -0.1878
10644SOL    HW133939   4.460   3.157   3.529 -1.1335 -0.6862  0.8590
10644SOL    HW233940   4.338   3.242   3.556 -0.2502  1.3480 -1.2103
10645SOL     OW33941   1.576   1.895   0.426 -0.3289 -0.1710 -0.6052
10645SOL    HW133942   1.617   1.959   0.367 -1.1781 -0.7527 -1.8673
10645SOL    HW233943   1.510   1.852   0.372 -0.6678 -1.2107  0.6016
10646SOL     OW33944   2.347   9.770   9.553  0.2613  0.6646 -0.3462
10646SOL    HW133945   2.418   9.746   9.613 -0.3592  0.8226  0.4703
10646SOL    HW233946   2.284   9.817   9.608  0.1629  1.7445 -1.3493
10647SOL     OW33947   5.838   7.663   9.761 -0.5262 -0.2911  0.5292
10647SOL    HW133948   5.747   7.645   9.737 -0.0928 -0.3560 -1.2376
10647SOL    HW233949   5.867   7.582   9.803 -1.3869 -0.1126  1.5193
10648SOL     OW33950   6.793   4.244   7.670  0.2180 -0.2437 -0.2312
10648SOL    HW133951   6.759   4.240   7.580 -1.1733 -1.7665  0.3015
10648SOL    HW233952   6.822   4.154   7.688 -0.6795 -0.2662  1.2463
10649SOL     OW33953   1.656   4.705  10.047 -0.3720 -0.2530 -0.0155
10649SOL    HW133954   1.656   4.749   9.962 -1.4390  0.9207  0.5531
10649SOL    HW233955   1.595   4.633  10.037  0.7620 -1.1478 -0.7138
10650SOL     OW33956   3.965  10.833  10.826  0.2492  0.0972 -0.2704
10650SOL    HW133957   3.996  10.780  10.752  2.0899  0.8381 -0.0864
10650SOL    HW233958   4.043  10.881  10.856 -0.6105  0.3768  1.6915
10651SOL     OW33959   4.195   5.768   9.480 -0.2756  0.2416 -0.3292
10651SOL    HW133960   4.266   5.823   9.514 -0.0225 -0.4914  0.3620
10651SOL    HW233961   4.239   5.686   9.455 -0.8512 -0.1377 -0.0985
10652SOL     OW33962   4.119   9.965   5.247  0.9233  0.5984  0.1516
10652SOL    HW133963   4.193  10.022   5.229  2.6273 -0.9558  1.7749
10652SOL    HW233964   4.153   9.876   5.234  0.0299 -0.2493  2.8948
10653SOL     OW33965   7.958   7.959   9.279  0.7927  0.5897 -0.6747
10653SOL    HW133966   7.973   8.053   9.277  1.5290  0.5010  0.1125
10653SOL    HW233967   8.036   7.921   9.237  0.1573  0.3524 -1.6764
10654SOL     OW33968   3.623   9.659   7.787 -0.2062  0.1342 -0.5776
10654SOL    HW133969   3.613   9.594   7.857  0.4586  0.8605  0.2002
10654SOL    HW233970   3.716   9.656   7.764  0.0626  1.5373  0.2038
10655SOL     OW33971   9.789   8.593   6.976 -0.0764  0.5422  0.9748
10655SOL    HW133972   9.732   8.631   6.909  1.0896  0.0754 -0.3429
10655SOL    HW233973   9.779   8.499   6.965  1.9802  0.4061 -0.2893
10656SOL     OW33974   6.855   2.096   8.474  0.2471 -0.5847  0.1575
10656SOL    HW133975   6.768   2.136   8.474  0.7706  0.9497 -3.2559
10656SOL    HW233976   6.906   2.150   8.534 -0.7564 -0.4571  0.9129
10657SOL     OW33977   8.948   7.302  10.005 -0.5053 -0.1157 -0.6210
10657SOL    HW133978   8.856   7.325  10.020 -0.8265 -0.2917 -2.2035
10657SOL    HW233979   8.997   7.371  10.050 -1.4269  0.6183 -0.7106
10658SOL     OW33980   1.737   0.654   4.479 -0.2421 -0.5112 -0.4825
10658SOL    HW133981   1.791   0.717   4.527  2.0578 -1.4100 -1.7457
10658SOL    HW233982   1.704   0.594   4.546  0.5194 -0.0626  0.3075
10659SOL     OW33983   5.249  10.381   7.212 -0.9218  0.4701 -0.1130
10659SOL    HW133984   5.320  10.371   7.275 -0.4838  2.6609 -0.1923
10659SOL    HW233985   5.289  10.356   7.128 -0.4807  0.8685 -0.0290
10660SOL     OW33986   9.017   5.684   5.542  0.0697  0.2959 -0.2662
10660SOL    HW133987   9.085   5.741   5.578  0.2783  0.8954 -1.5429
10660SOL    HW233988   9.013   5.611   5.603  1.0290  0.8273  0.4757
10661SOL     OW33989   9.847   1.298   9.962  0.4681  0.0145 -0.2965
10661SOL    HW133990   9.875   1.294  10.053 -0.3839  1.6777  0.0801
10661SOL    HW233991   9.817   1.209   9.942  0.7607 -0.3926  0.9911
10662SOL     OW33992   2.671   5.467   3.042  0.3012 -0.2273 -0.2007
10662SOL    HW133993   2.575   5.467   3.038  0.2591 -1.8611 -0.0929
10662SOL    HW233994   2.692   5.403   3.111  1.4703 -2.1965 -2.2458
10663SOL     OW33995   6.652   7.176  10.287 -0.0294  0.4320  0.1211
10663SOL    HW133996   6.700   7.257  10.296 -0.1552  0.3939  1.1950
10663SOL    HW233997   6.685   7.137  10.205  1.2167  0.7537  0.4561
10664SOL     OW33998   7.631   9.716   8.453 -0.2038  0.7830 -0.0573
10664SOL    HW133999   7.639   9.740   8.361 -0.3857 -0.1185 -0.3190
10664SOL    HW234000   7.611   9.622   8.452  1.9667  0.2384  0.9420
10665SOL     OW34001  10.374   0.690   5.925  0.2562 -0.0657  0.5361
10665SOL    HW134002  10.281   0.688   5.946  0.1745 -1.6366  0.1426
10665SOL    HW234003  10.387   0.776   5.883 -1.3372 -0.4066 -0.7607
10666SOL     OW34004   6.238   0.908   9.967 -0.0782  0.3725 -0.5168
10666SOL    HW134005   6.200   0.847  10.031  0.9045  0.6791  0.3796
10666SOL    HW234006   6.164   0.961   9.937 -0.5476  0.2494  0.3992
10667SOL     OW34007   8.880   4.283   7.990 -0.3132 -0.1027 -0.0740
10667SOL    HW134008   8.918   4.237   8.064 -0.6656 -1.0733 -0.4875
10667SOL    HW234009   8.924   4.247   7.913  0.9382  1.7561 -0.3013
10668SOL     OW34010   1.317   4.423   7.112 -0.0748  0.1761  0.4251
10668SOL    HW134011   1.290   4.506   7.153 -0.9980  0.3031 -0.4127
10668SOL    HW234012   1.256   4.412   7.039  1.7641  0.1449 -1.1740
10669SOL     OW34013   7.472   5.169   8.343 -0.1478  0.0727  0.1970
10669SOL    HW134014   7.417   5.246   8.357  0.6562  0.3919  1.7931
10669SOL    HW234015   7.560   5.204   8.331  0.3755 -0.6021  1.8264
10670SOL     OW34016   5.554   1.203   2.290  0.3264 -0.0279  0.0440
10670SOL    HW134017   5.617   1.189   2.219 -0.3480  0.1928 -0.6066
10670SOL    HW234018   5.470   1.215   2.246  0.1428  1.7242  0.7805
10671SOL     OW34019   7.275   9.653   3.177  0.1809 -0.2690  0.2465
10671SOL    HW134020   7.303   9.570   3.215 -1.3404 -1.6293 -1.4148
10671SOL    HW234021   7.181   9.656   3.192  0.0935  0.7748 -0.4039
10672SOL     OW34022   2.228   4.118  10.770  0.4668  0.0523  0.2611
10672SOL    HW134023   2.291   4.138  10.700  0.3781 -0.0223  0.1590
10672SOL    HW234024   2.272   4.052  10.824  0.4197 -0.1058  0.1077
10673SOL     OW34025   6.774   2.487   9.636  0.1410  0.6198 -0.4745
10673SOL    HW134026   6.802   2.398   9.658 -2.9343 -0.3238  0.1059
10673SOL    HW234027   6.765   2.531   9.721 -1.4632  0.3868 -0.4913
10674SOL     OW34028   6.806   3.002  10.838  0.2174 -0.4865 -0.0798
10674SOL    HW134029   6.769   2.980  10.923 -1.7737  0.0028 -0.7722
10674SOL    HW234030   6.895   3.032  10.858  0.1887 -1.4136  1.6845
10675SOL     OW34031   1.579   6.625   6.633 -0.2218  0.2831  0.1529
10675SOL    HW134032   1.532   6.691   6.581 -0.6271  0.1516  0.3503
10675SOL    HW234033   1.561   6.650   6.723  0.8411  0.7692  0.2394
10676SOL     OW34034   7.757   8.442   0.270  0.0182 -0.2929  0.2829
10676SOL    HW134035   7.797   8.525   0.295  0.0556 -0.0470 -0.5666
10676SOL    HW234036   7.690   8.427   0.337  1.3687 -0.6109  1.5921
10677SOL     OW34037   1.025   1.925   8.839  0.1872 -0.8088  0.2355
10677SOL    HW134038   0.957   1.935   8.772  1.0482  0.9418 -0.4396
10677SOL    HW234039   0.977   1.926   8.922 -0.6043  1.2465 -0.1732
10678SOL     OW34040  10.725   6.389   9.241  0.4640  0.5148 -0.6495
10678SOL    HW134041  10.697   6.300   9.223  2.0833 -0.7127  2.1618
10678SOL    HW234042  10.816   6.393   9.211  0.4022  1.2365 -0.7670
10679SOL     OW34043   5.206   3.694   4.540 -0.3845 -0.3266  0.3861
10679SOL    HW134044   5.235   3.621   4.594 -0.2761 -0.6441 -0.0927
10679SOL    HW234045   5.178   3.654   4.458  1.0666  0.2764 -0.4402
10680SOL     OW34046   9.625   7.669   2.718 -0.3862 -0.6382  0.2563
10680SOL    HW134047   9.699   7.701   2.770 -0.3386  0.2564 -0.3321
10680SOL    HW234048   9.654   7.679   2.627 -1.4582  0.3225  0.0002
10681SOL     OW34049   6.469   4.563   0.053 -0.4313 -0.0341  0.4427
10681SOL    HW134050   6.426   4.644   0.079  0.6770  0.5111  0.6271
10681SOL    HW234051   6.555   4.566   0.096 -0.0211 -0.8742 -0.2776
10682SOL     OW34052   5.635   0.433   9.102 -0.4762 -0.0716 -0.2157
10682SOL    HW134053   5.720   0.474   9.119 -1.1408  0.9903  0.7079
10682SOL    HW234054   5.631   0.427   9.006  0.6613 -0.2260 -0.2752
10683SOL     OW34055  10.900   3.680   8.258  0.3036  1.1406 -0.4676
10683SOL    HW134056  10.969   3.640   8.205 -0.1749  0.9256 -0.9387
10683SOL    HW234057  10.819   3.641   8.225  0.0413  0.5033  0.8613
10684SOL     OW34058   2.141   1.954   3.012 -0.1462  0.0979  0.5169
10684SOL    HW134059   2.087   1.958   3.091 -1.6169 -0.8155 -0.3790
10684SOL    HW234060   2.193   1.874   3.024 -0.3408 -0.0206  0.5920
10685SOL     OW34061   5.674   4.430   0.774  0.0841 -0.4196  0.7986
10685SOL    HW134062   5.609   4.451   0.708  0.5661 -3.5059 -0.8275
10685SOL    HW234063   5.671   4.504   0.835  0.8814  3.6219 -3.5030
10686SOL     OW34064  10.199   5.713   4.668  0.6280 -0.3657  0.0335
10686SOL    HW134065  10.120   5.762   4.688  2.3949  2.3086  1.0244
10686SOL    HW234066  10.168   5.627   4.638 -2.7052  1.5018 -2.5088
10687SOL     OW34067   0.608   4.641   2.624  0.1270 -0.0081 -0.5300
10687SOL    HW134068   0.544   4.642   2.553 -1.1281 -2.1191  0.4636
10687SOL    HW234069   0.560   4.672   2.701  0.8433  0.1832 -0.1512
10688SOL     OW34070   9.711   3.563  10.871 -0.0637  0.0339  0.3347
10688SOL    HW134071   9.802   3.555  10.901 -0.2102  1.5283  1.2974
10688SOL    HW234072   9.690   3.478  10.833  1.3635 -0.7166  1.1545
10689SOL     OW34073   2.499   0.798   4.847 -0.0821  0.9852 -0.2852
10689SOL    HW134074   2.410   0.833   4.851 -0.2015  0.7918 -1.0364
10689SOL    HW234075   2.489   0.715   4.799  0.1435 -0.2517  1.6885
10690SOL     OW34076   8.102   7.629   3.700  0.5041  0.2259 -0.3059
10690SOL    HW134077   8.079   7.682   3.624  0.5002 -0.2808 -0.6527
10690SOL    HW234078   8.020   7.619   3.748  0.4143  0.1562 -0.4743
10691SOL     OW34079   7.300   9.167   8.086 -0.0787  0.0744 -1.0277
10691SOL    HW134080   7.295   9.159   8.181  0.5441  0.9744 -0.9109
10691SOL    HW234081   7.272   9.081   8.054  0.3192 -0.4551 -0.0223
10692SOL     OW34082   6.378   2.295   9.212  0.3239  0.4073  0.6450
10692SOL    HW134083   6.316   2.270   9.281 -1.8769 -0.2113 -1.4207
10692SOL    HW234084   6.389   2.389   9.222 -0.0681  0.3485  1.7401
10693SOL     OW34085   6.031   3.605  10.107  0.5899  0.5890  0.7236
10693SOL    HW134086   6.048   3.524  10.059  3.2796  0.6838  1.3443
10693SOL    HW234087   5.940   3.627  10.087  0.9362 -0.4805 -2.5922
10694SOL     OW34088   3.659   8.331   0.343  0.2661  0.1334  0.6424
10694SOL    HW134089   3.753   8.312   0.347  0.4339  0.6695 -0.4487
10694SOL    HW234090   3.632   8.334   0.435  1.3421  0.1405  0.9806
10695SOL     OW34091   1.949   8.638   7.531 -0.7715 -0.1619  1.2577
10695SOL    HW134092   1.933   8.632   7.437 -1.7065  0.2316  1.3791
10695SOL    HW234093   2.017   8.573   7.548 -0.5610 -0.2084  0.3076
10696SOL     OW34094   7.513   4.861   7.386  0.2782 -0.5967  0.2243
10696SOL    HW134095   7.427   4.826   7.406  0.5845 -1.5444 -0.0790
10696SOL    HW234096   7.573   4.815   7.445  0.4912  0.6889  1.0656
10697SOL     OW34097  10.306   8.443   5.585  0.0442  0.0111 -0.3253
10697SOL    HW134098  10.296   8.484   5.499  3.0919 -2.2274 -1.9551
10697SOL    HW234099  10.400   8.446   5.602 -0.4896  0.7068  3.2007
10698SOL     OW34100   0.213   5.381   3.846  0.5587 -0.3808 -0.2769
10698SOL    HW134101   0.169   5.348   3.924 -0.3952 -0.2649 -0.7585
10698SOL    HW234102   0.234   5.473   3.866 -1.5466  0.2888 -0.8955
10699SOL     OW34103   8.871   5.788   7.472 -0.3584  0.4877  0.3333
10699SOL    HW134104   8.922   5.779   7.392 -2.4165  1.1804 -1.1498
10699SOL    HW234105   8.834   5.700   7.487 -0.3422  0.4671  0.2513
10700SOL     OW34106   9.818   1.122   6.829  0.4090 -0.1936 -0.8209
10700SOL    HW134107   9.747   1.086   6.775 -0.9544  0.1289  0.6865
10700SOL    HW234108   9.885   1.053   6.829 -1.6518 -2.3883  1.0505
10701SOL     OW34109  10.612   0.302   7.957  0.3263 -0.5837 -0.0254
10701SOL    HW134110  10.673   0.244   7.910 -0.1227 -1.8406  0.9078
10701SOL    HW234111  10.543   0.244   7.988 -0.6124  0.6117  0.1660
10702SOL     OW34112   8.655   9.867   1.105 -0.0217 -0.3686 -0.4248
10702SOL    HW134113   8.606   9.934   1.152 -0.9964 -0.5132 -1.2126
10702SOL    HW234114   8.604   9.786   1.117  0.4276 -0.6866 -0.6236
10703SOL     OW34115   6.681   9.642   6.268  0.1873  0.1436 -0.0884
10703SOL    HW134116   6.735   9.644   6.190  1.4154 -1.2394  0.6765
10703SOL    HW234117   6.704   9.721   6.316 -0.0571  0.6403 -0.7785
10704SOL     OW34118   4.393  10.894   6.797 -0.6904  0.7560  0.1586
10704SOL    HW134119   4.413  10.934   6.712  2.2389 -1.0768 -0.1411
10704SOL    HW234120   4.473  10.903   6.848 -1.1602 -1.3470  1.3992
10705SOL     OW34121   6.512   2.029   3.336  0.4186  0.4311 -0.2813
10705SOL    HW134122   6.565   2.093   3.287  0.6139 -1.3594 -2.5423
10705SOL    HW234123   6.569   1.952   3.343 -1.0322 -0.7201 -0.7333
10706SOL     OW34124  10.802   8.016   6.788  0.5008 -0.2184 -0.3117
10706SOL    HW134125  10.793   8.034   6.882  0.2282 -0.9516 -0.1889
10706SOL    HW234126  10.764   7.929   6.777 -1.1991  0.6041 -1.4174
10707SOL     OW34127   9.190   7.300   1.592 -0.4756  0.4348 -0.2236
10707SOL    HW134128   9.104   7.263   1.614 -0.2380  0.7015  1.2382
10707SOL    HW234129   9.229   7.322   1.676  1.9027 -1.5449 -0.6992
10708SOL     OW34130   6.864   5.996   7.454  0.2647  0.5165 -0.0578
10708SOL    HW134131   6.948   5.966   7.419  0.4811  1.4986 -0.4033
10708SOL    HW234132   6.807   6.000   7.377 -0.1793 -0.3860  0.2132
10709SOL     OW34133   0.589   5.735   0.849  0.0903  0.3980  0.0722
10709SOL    HW134134   0.638   5.693   0.920 -1.0132  1.1448  1.3437
10709SOL    HW234135   0.561   5.663   0.793 -0.9193 -0.5186  1.6575
10710SOL     OW34136   9.633   7.043   8.608  0.6059  0.5265  0.0699
10710SOL    HW134137   9.663   7.041   8.699  1.1269  0.1262 -0.1065
10710SOL    HW234138   9.572   7.117   8.605 -0.0837  0.0220  0.9441
10711SOL     OW34139   6.129   1.694   3.330  0.4253  0.0417  0.4002
10711SOL    HW134140   6.184   1.720   3.404  0.9542  1.0567 -0.3217
10711SOL    HW234141   6.122   1.773   3.276  0.2216 -0.7315 -0.7417
10712SOL     OW34142   2.968  10.174   9.795  0.0870  0.4631 -0.2971
10712SOL    HW134143   2.877  10.153   9.817 -1.0280  0.7124 -3.9771
10712SOL    HW234144   3.010  10.088   9.787 -0.5757  0.2013 -1.1675
10713SOL     OW34145   6.443   5.122   4.904 -0.2017 -0.7781  0.2738
10713SOL    HW134146   6.492   5.110   4.985 -1.7378  0.2136  1.4044
10713SOL    HW234147   6.353   5.139   4.932 -0.3369  2.1396 -1.4791
10714SOL     OW34148   3.706   9.637   1.015  0.0293  0.6895 -0.7111
10714SOL    HW134149   3.780   9.624   0.955  0.0081  0.5044 -0.6970
10714SOL    HW234150   3.630   9.606   0.966  0.1627 -0.5147 -0.1774
10715SOL     OW34151   8.032   1.746   6.322  0.4788 -0.2623  0.0227
10715SOL    HW134152   8.068   1.749   6.233 -1.2383 -2.1296 -0.8289
10715SOL    HW234153   8.040   1.835   6.354  0.9107  0.5360 -2.1185
10716SOL     OW34154   9.713   4.718   2.345 -0.7147 -0.1126 -0.5202
10716SOL    HW134155   9.711   4.625   2.367 -0.0019  0.2524  1.2670
10716SOL    HW234156   9.698   4.721   2.250  1.2811 -2.1771 -0.9760
10717SOL     OW34157   8.592  10.165   6.459  0.0647  0.5468  0.4146
10717SOL    HW134158   8.535  10.171   6.382  1.4041 -0.8485 -0.7454
10717SOL    HW234159   8.535  10.131   6.528 -0.5229 -0.9902 -0.7539
10718SOL     OW34160   4.055   7.640   6.627 -0.2080  0.2057 -0.2569
10718SOL    HW134161   4.055   7.558   6.579 -1.3194  0.1401 -0.1784
10718SOL    HW234162   4.057   7.615   6.720  0.7397  0.3053 -0.2425
10719SOL     OW34163   2.761   2.897   9.389  0.2926 -0.9110 -0.0036
10719SOL    HW134164   2.796   2.952   9.318  0.5351 -1.0181  0.0308
10719SOL    HW234165   2.802   2.931   9.468 -0.4164 -0.4261  0.1613
10720SOL     OW34166   5.263   7.149   1.750 -0.0600 -0.2634  0.2825
10720SOL    HW134167   5.271   7.243   1.764  0.1290 -0.1941 -0.2727
10720SOL    HW234168   5.171   7.135   1.730  0.2293  0.0426 -1.3303
10721SOL     OW34169   7.996   1.133   0.149  0.5756 -0.2086  0.5424
10721SOL    HW134170   8.071   1.136   0.209  0.4318 -1.0431  0.7860
10721SOL    HW234171   7.922   1.110   0.205 -0.1542  1.9197  0.5476
10722SOL     OW34172   9.177   1.637  10.269  0.1422 -0.3334  0.0794
10722SOL    HW134173   9.090   1.619  10.234  0.7296 -1.9063 -0.6762
10722SOL    HW234174   9.194   1.565  10.330  1.0258 -0.2325 -0.0336
10723SOL     OW34175   4.794  10.097   0.286 -0.5562 -0.2513 -0.1208
10723SOL    HW134176   4.731  10.168   0.272 -0.0371  0.3401  0.4795
10723SOL    HW234177   4.795  10.049   0.204 -0.4963  0.7802 -0.7401
10724SOL     OW34178   0.004   7.364   4.497  0.2829  0.1400 -0.6664
10724SOL    HW134179   0.037   7.442   4.453  0.6128  0.8923  0.8274
10724SOL    HW234180   0.067   7.348   4.568 -0.4262 -0.7677 -0.2175
10725SOL     OW34181   5.844   9.957   2.247  0.0585 -0.3388 -0.1023
10725SOL    HW134182   5.888   9.908   2.317  0.7669  0.3772 -0.0356
10725SOL    HW234183   5.783   9.894   2.209  1.3907 -1.4826 -0.4435
10726SOL     OW34184   3.435  10.012   1.265 -0.3747  0.1009  0.2759
10726SOL    HW134185   3.502  10.079   1.254 -0.0135 -0.2555  0.2905
10726SOL    HW234186   3.477   9.932   1.234  0.0063 -0.5875  2.4287
10727SOL     OW34187  10.377   8.331   1.040  0.2433 -0.1603 -0.1629
10727SOL    HW134188  10.361   8.253   0.987 -0.0903 -0.4716  0.3937
10727SOL    HW234189  10.307   8.332   1.105 -0.2474  1.0647 -0.6853
10728SOL     OW34190   0.514   5.862   7.171 -0.5123 -0.6092 -0.2921
10728SOL    HW134191   0.587   5.850   7.231 -0.2304 -0.7822 -0.6634
10728SOL    HW234192   0.441   5.814   7.211 -0.4898 -0.2408  0.1949
10729SOL     OW34193   4.265   4.188  10.870 -0.6590 -0.0564 -0.1500
10729SOL    HW134194   4.291   4.132  10.797  0.3553  1.0448 -0.6603
10729SOL    HW234195   4.335   4.179  10.934 -1.1981 -0.4647  0.4003
10730SOL     OW34196   1.663   5.808   2.681 -0.0466 -0.0674  0.1406
10730SOL    HW134197   1.668   5.786   2.774  0.2631 -0.1563  0.1021
10730SOL    HW234198   1.588   5.757   2.649 -0.3392  0.1916  0.4012
10731SOL     OW34199   8.360   9.702  11.016  0.7165  0.2368 -0.0130
10731SOL    HW134200   8.343   9.686  11.109  0.1895 -0.2624 -0.1880
10731SOL    HW234201   8.292   9.763  10.989 -0.6207 -1.4294 -0.6115
10732SOL     OW34202   1.355   0.920   3.447  0.4434  0.1859  0.5389
10732SOL    HW134203   1.298   0.904   3.372  2.0419 -1.5126 -0.4046
10732SOL    HW234204   1.305   0.979   3.503 -1.6895 -0.2256 -0.8142
10733SOL     OW34205   5.403   5.039   4.072  0.2724 -0.2909 -0.3738
10733SOL    HW134206   5.391   4.993   3.988  3.4281  1.5236 -2.0103
10733SOL    HW234207   5.494   5.067   4.071  0.3275  0.2318  3.5563
10734SOL     OW34208   9.766   6.605   5.247 -0.4524 -0.0565  0.6886
10734SOL    HW134209   9.707   6.585   5.320 -0.9835 -1.7662 -0.1565
10734SOL    HW234210   9.804   6.690   5.269 -1.7180  0.1474  2.2266
10735SOL     OW34211   8.082   6.908   4.156 -0.0985  0.1724  0.4532
10735SOL    HW134212   8.024   6.841   4.122 -0.1116 -0.2575  1.2945
10735SOL    HW234213   8.054   6.920   4.247  1.7358 -0.7528  1.1905
10736SOL     OW34214   8.411   4.519   7.997 -0.3890 -0.0618 -0.0180
10736SOL    HW134215   8.338   4.468   8.033 -0.6069 -0.6270 -1.1975
10736SOL    HW234216   8.483   4.457   7.990 -0.4163 -0.0250 -0.7233
10737SOL     OW34217   4.930   6.362   9.532  0.1393 -0.0964  0.6198
10737SOL    HW134218   4.904   6.380   9.623 -2.5661 -1.0318  0.1082
10737SOL    HW234219   5.025   6.351   9.537 -0.0621 -1.4297  3.5773
10738SOL     OW34220   8.949   1.972   0.087  0.1201  0.3632 -0.0384
10738SOL    HW134221   8.888   1.997   0.157 -0.1817  0.2837 -0.2659
10738SOL    HW234222   9.036   1.985   0.124  0.0113 -1.9222  1.1746
10739SOL     OW34223   0.513   6.809   4.941 -0.1210  0.3397 -0.6235
10739SOL    HW134224   0.535   6.771   5.026  0.4815 -0.2307 -1.0268
10739SOL    HW234225   0.597   6.841   4.906  0.0328 -1.3813 -1.9494
10740SOL     OW34226   0.204   1.687   0.902 -0.3200  0.0799 -0.3450
10740SOL    HW134227   0.263   1.760   0.917  1.4143 -1.1360 -0.8670
10740SOL    HW234228   0.200   1.678   0.807 -1.1952  0.0113 -0.3116
10741SOL     OW34229   9.849   7.496   5.997  0.0898 -0.5704  0.2518
10741SOL    HW134230   9.772   7.552   6.004 -0.4619 -1.3242  0.3603
10741SOL    HW234231   9.845   7.460   5.909 -0.1983 -1.3297  0.5650
10742SOL     OW34232   4.066  10.322   2.004  0.0962 -0.4802  0.1432
10742SOL    HW134233   4.015  10.250   1.966 -1.2465 -0.3436  1.6018
10742SOL    HW234234   4.009  10.398   1.997  0.6760 -0.0022  0.5318
10743SOL     OW34235   1.152   1.757   3.616  0.9320  0.1846  0.3931
10743SOL    HW134236   1.156   1.839   3.567 -0.7079 -0.8243 -1.6176
10743SOL    HW234237   1.134   1.784   3.706 -0.1635  2.0353 -0.3173
10744SOL     OW34238   8.313   5.575   7.845  0.3180  0.0008 -0.1216
10744SOL    HW134239   8.326   5.605   7.934 -1.0679  0.3618 -0.0163
10744SOL    HW234240   8.381   5.509   7.831 -1.2761 -2.3843  2.2870
10745SOL     OW34241  10.383   1.392   2.435 -0.3405 -0.2136 -0.1484
10745SOL    HW134242  10.292   1.407   2.409 -0.1101  0.7223 -0.4521
10745SOL    HW234243  10.433   1.454   2.382  0.5293 -1.0749 -0.3600
10746SOL     OW34244   1.722   3.183   5.786  0.0958  0.2832  0.2707
10746SOL    HW134245   1.682   3.162   5.702 -0.0031  2.0111 -0.1521
10746SOL    HW234246   1.812   3.152   5.779  0.2412  0.8996 -0.6924
10747SOL     OW34247   7.130  10.701   0.756 -0.3872  0.4984  0.1483
10747SOL    HW134248   7.198  10.670   0.815  0.5521  0.2014 -1.0448
10747SOL    HW234249   7.062  10.634   0.760  0.4728 -0.4459 -0.4425
10748SOL     OW34250   5.642   0.399   2.608  0.4548 -0.4297  0.2827
10748SOL    HW134251   5.574   0.467   2.617  1.4739  0.5180  1.0505
10748SOL    HW234252   5.612   0.346   2.534 -0.1226  1.1668 -0.6882
10749SOL     OW34253   5.264   4.824   7.097 -1.1990  0.0454 -0.3145
10749SOL    HW134254   5.276   4.881   7.172 -2.0239  1.2603 -1.0816
10749SOL    HW234255   5.183   4.776   7.115 -1.2795  0.1767 -0.3294
10750SOL     OW34256   4.572   7.953   5.039 -1.3314  0.1599  0.0535
10750SOL    HW134257   4.585   8.037   4.994 -0.6210 -0.0893 -0.2280
10750SOL    HW234258   4.556   7.890   4.968 -0.6890 -0.1470  0.1698
10751SOL     OW34259   6.836  10.301   4.711 -0.8333  0.5342 -0.0133
10751SOL    HW134260   6.885  10.221   4.728  1.5592  1.4971 -1.8239
10751SOL    HW234261   6.822  10.300   4.617 -1.3532  1.9431  0.0357
10752SOL     OW34262   5.277  10.176  10.030 -0.0873  0.0529  0.1901
10752SOL    HW134263   5.287  10.127   9.948 -0.9830 -0.8003  0.5727
10752SOL    HW234264   5.366  10.178  10.067  0.5179  1.2402 -1.2007
10753SOL     OW34265   0.474   6.373   9.494 -0.0413  0.7040 -0.1505
10753SOL    HW134266   0.452   6.289   9.455  0.8766 -0.3819  1.5835
10753SOL    HW234267   0.408   6.386   9.563 -0.1247  1.3762 -0.3447
10754SOL     OW34268   7.632   4.766   8.933  0.0751  0.0150 -0.4087
10754SOL    HW134269   7.608   4.840   8.989  1.2992  0.6697 -0.7023
10754SOL    HW234270   7.613   4.795   8.844  0.7303  0.0745 -0.5404
10755SOL     OW34271   4.723   4.826   0.704  0.5671  0.0917  0.4333
10755SOL    HW134272   4.630   4.832   0.682  0.7935  1.2932 -0.2883
10755SOL    HW234273   4.763   4.901   0.659  1.6122  0.5818  2.1060
10756SOL     OW34274   4.585   2.780   9.264  0.1817  0.1291 -0.1382
10756SOL    HW134275   4.559   2.774   9.355  0.1403 -2.5459 -0.2706
10756SOL    HW234276   4.672   2.821   9.266 -1.3772  3.7751  0.7054
10757SOL     OW34277   3.998   2.153   7.193  0.4674 -0.3910 -0.0197
10757SOL    HW134278   3.985   2.130   7.101  0.0100  0.2549 -0.1284
10757SOL    HW234279   3.945   2.090   7.241  1.5304 -1.3903 -0.1257
10758SOL     OW34280   9.833   0.166   1.960 -0.4914  0.4995  0.1056
10758SOL    HW134281   9.851   0.156   1.867 -1.4655 -0.9625  0.0399
10758SOL    HW234282   9.896   0.107   2.003  0.6892  1.9596  0.4935
10759SOL     OW34283   4.958   5.702   4.324 -0.2545 -0.0166 -0.3590
10759SOL    HW134284   5.047   5.714   4.357  0.0665 -0.5774 -0.9963
10759SOL    HW234285   4.910   5.664   4.397  0.4097 -1.1090 -0.4650
10760SOL     OW34286   7.229   0.088   3.191  0.7199 -1.0973 -0.0315
10760SOL    HW134287   7.214   0.183   3.189 -1.4006 -1.3106  1.9446
10760SOL    HW234288   7.319   0.079   3.220  1.1977  0.3116 -0.9818
10761SOL     OW34289   7.637   0.647   8.190  0.6207 -0.7940 -0.4459
10761SOL    HW134290   7.640   0.733   8.147  1.9939 -0.9675 -0.7576
10761SOL    HW234291   7.704   0.654   8.259 -0.3861 -1.0855  0.5885
10762SOL     OW34292   8.448   9.032   2.426  0.3058 -0.2152 -0.4419
10762SOL    HW134293   8.517   9.074   2.478  1.7412 -1.9063 -0.8969
10762SOL    HW234294   8.438   9.089   2.350  0.7041  0.4194 -0.0281
10763SOL     OW34295   0.327  10.690   1.592  0.1054 -0.1272  0.1701
10763SOL    HW134296   0.417  10.718   1.575 -0.0794 -0.2442 -1.1395
10763SOL    HW234297   0.313  10.617   1.531 -0.3877 -1.1196  1.4217
10764SOL     OW34298  10.053   7.899   9.530  0.5939 -0.2497  0.9797
10764SOL    HW134299  10.087   7.811   9.546 -0.8025 -1.0909 -0.3666
10764SOL    HW234300  10.087   7.923   9.443 -0.4535 -0.2020  0.5729
10765SOL     OW34301   4.149   0.002   5.501  0.1759 -0.0299 -0.6980
10765SOL    HW134302   4.056   0.026   5.506  0.4015  0.8454 -0.5524
10765SOL    HW234303   4.185   0.061   5.436  0.8337  0.3193 -0.0298
10766SOL     OW34304   5.833   4.820  10.715 -0.1859 -0.1739 -0.4493
10766SOL    HW134305   5.843   4.771  10.797  0.1240 -0.9875 -0.9496
10766SOL    HW234306   5.811   4.909  10.742  0.2316 -0.3520  0.5214
10767SOL     OW34307   1.326  10.757   7.639  0.3866 -0.4822  0.2327
10767SOL    HW134308   1.310  10.837   7.590 -1.0571 -0.0522  1.3376
10767SOL    HW234309   1.420  10.759   7.657  0.4197  0.8484  0.0439
10768SOL     OW34310   6.030   1.214   2.290 -0.2117 -0.2003 -0.0027
10768SOL    HW134311   6.093   1.287   2.287 -0.6059  0.1326 -0.2334
10768SOL    HW234312   5.968   1.240   2.358  0.5983 -1.1073  1.1154
10769SOL     OW34313   3.606   5.493   7.602 -0.3077  0.1916  0.2216
10769SOL    HW134314   3.590   5.496   7.697  0.5955 -0.4499  0.4057
10769SOL    HW234315   3.680   5.434   7.592 -0.1216  0.5858 -0.8615
10770SOL     OW34316   1.342   5.977   6.171 -0.0858 -0.4911  0.4520
10770SOL    HW134317   1.267   5.918   6.175 -0.1407 -0.4080  0.7516
10770SOL    HW234318   1.321   6.046   6.235 -0.0391 -0.1335  0.0850
10771SOL     OW34319   9.558  10.203   1.292 -0.0857 -0.0613  0.6694
10771SOL    HW134320   9.575  10.192   1.386  0.2555  0.3603  0.6596
10771SOL    HW234321   9.602  10.285   1.269 -1.7502  0.8253  0.5240
10772SOL     OW34322   2.168  10.374   7.032 -0.0778  0.8847  0.0673
10772SOL    HW134323   2.108  10.436   6.991 -0.2845  0.9817  0.5111
10772SOL    HW234324   2.122  10.344   7.111 -0.4150 -0.6034 -0.6622
10773SOL     OW34325   4.842   3.810   4.758 -0.1918  0.7160  0.0178
10773SOL    HW134326   4.859   3.886   4.814 -1.4181 -0.5596  2.2487
10773SOL    HW234327   4.751   3.820   4.731 -0.7089 -0.4914  1.2446
10774SOL     OW34328   6.930   7.434  10.875  0.9366  0.1689  0.3334
10774SOL    HW134329   6.890   7.476  10.951 -0.2509 -0.7079  0.2270
10774SOL    HW234330   6.953   7.506  10.817  1.1670  0.8019  1.1865
10775SOL     OW34331   8.177   9.572   6.444 -0.3699 -0.1311 -0.2354
10775SOL    HW134332   8.092   9.616   6.447 -0.7647 -0.8796 -0.1005
10775SOL    HW234333   8.155   9.479   6.435  0.4481 -0.2896 -0.6497
10776SOL     OW34334   5.858   6.266   7.860 -0.4609 -0.1102  0.8907
10776SOL    HW134335   5.809   6.266   7.778  0.3586 -1.1382  0.3873
10776SOL    HW234336   5.809   6.326   7.917 -2.2619 -1.0212  0.3724
10777SOL     OW34337   3.342  10.330   4.212  0.8919 -0.1925 -0.2187
10777SOL    HW134338   3.426  10.339   4.167  0.0923  2.0384 -1.4240
10777SOL    HW234339   3.361  10.353   4.303  1.7546 -0.6608 -0.2750
10778SOL     OW34340   4.148   2.054  10.117  0.1714  0.6201 -0.2938
10778SOL    HW134341   4.101   2.072  10.036  0.9496  0.8951 -0.6895
10778SOL    HW234342   4.120   1.965  10.142  0.0365  0.4815 -0.9365
10779SOL     OW34343   6.020   7.970   8.855 -0.2904 -0.9883 -0.2256
10779SOL    HW134344   6.097   7.938   8.808  0.4053 -0.7257  0.7050
10779SOL    HW234345   6.052   8.047   8.902 -1.0195 -1.1299  0.5102
10780SOL     OW34346   3.504   6.796   7.118 -0.1605 -0.9477  0.0884
10780SOL    HW134347   3.503   6.817   7.212  0.1828  0.4027 -0.1946
10780SOL    HW234348   3.571   6.854   7.081 -0.4852 -1.2697 -1.0459
10781SOL     OW34349  10.915   9.237  10.170 -0.0117 -0.5574 -0.0729
10781SOL    HW134350  10.914   9.159  10.115  0.5510 -0.2242 -0.5702
10781SOL    HW234351  10.849   9.295  10.132  0.5624 -0.2181 -0.5752
10782SOL     OW34352   2.901   9.239   9.318 -0.2346  0.2559  0.5299
10782SOL    HW134353   2.994   9.240   9.298 -0.3791 -2.1803 -0.6441
10782SOL    HW234354   2.896   9.230   9.413  0.7616 -0.5972  0.5124
10783SOL     OW34355   0.900   6.865   8.541  0.4751  0.1759  0.4813
10783SOL    HW134356   0.992   6.843   8.530  0.6508  1.3002 -0.3915
10783SOL    HW234357   0.869   6.885   8.453 -0.4220  0.5252  0.8634
10784SOL     OW34358   1.651   0.062   1.004  0.2670  0.0359 -0.2038
10784SOL    HW134359   1.641   0.157   0.998 -0.8358 -0.1818 -3.8045
10784SOL    HW234360   1.568   0.032   1.042 -0.3183  0.3749 -1.1859
10785SOL     OW34361   6.128   4.625   0.232 -0.3982 -0.2410  0.1081
10785SOL    HW134362   6.169   4.700   0.189 -1.8751  1.0337  0.8657
10785SOL    HW234363   6.149   4.551   0.175 -0.9870  1.1381 -2.0006
10786SOL     OW34364   6.324   1.841   7.327 -0.1251  0.2185  0.5837
10786SOL    HW134365   6.384   1.767   7.342  0.6326  0.8153  0.5207
10786SOL    HW234366   6.315   1.882   7.412 -0.4489  0.1271  0.5928
10787SOL     OW34367   5.769   4.034   4.123 -0.2816 -0.0925  0.0827
10787SOL    HW134368   5.691   4.018   4.177 -1.1691 -1.4559 -1.4917
10787SOL    HW234369   5.841   3.998   4.175 -0.8902 -0.0980  0.9584
10788SOL     OW34370   7.804   2.387   5.600  0.1383 -0.0225  0.5186
10788SOL    HW134371   7.725   2.390   5.546  1.7774 -1.7076 -2.2337
10788SOL    HW234372   7.800   2.468   5.652 -2.6316  0.6767 -0.5577
10789SOL     OW34373   9.751   4.721   6.519 -0.0710  0.6936  0.9656
10789SOL    HW134374   9.829   4.747   6.567 -0.1354  0.0814  1.4044
10789SOL    HW234375   9.762   4.761   6.432  0.3398  1.2787  1.2815
10790SOL     OW34376   1.339   9.875   6.400 -0.0844  0.3950 -0.1187
10790SOL    HW134377   1.296   9.806   6.451 -0.0524  0.4084 -0.0737
10790SOL    HW234378   1.291   9.876   6.317  0.7024 -0.5271 -0.6052
10791SOL     OW34379   7.869   7.527   1.738  0.3336  0.3139  0.0249
10791SOL    HW134380   7.937   7.559   1.798  0.9090 -0.9579  0.1093
10791SOL    HW234381   7.887   7.571   1.655  2.4615 -1.3077 -0.4733
10792SOL     OW34382   9.799   8.325   7.166  0.0730  0.3816  0.1645
10792SOL    HW134383   9.786   8.301   7.074 -1.5344 -0.8811  0.6681
10792SOL    HW234384   9.732   8.392   7.183 -0.8905 -0.7087  0.8467
10793SOL     OW34385   5.815  10.798   5.999  1.0440 -0.7750 -0.2717
10793SOL    HW134386   5.835  10.773   5.909  1.4458  1.2258 -0.7751
10793SOL    HW234387   5.852  10.886   6.009 -1.9002  0.4798  0.7763
10794SOL     OW34388   7.508   8.924   2.952 -0.2883  0.4855 -0.4965
10794SOL    HW134389   7.457   9.005   2.951  0.1125  0.8258  1.5014
10794SOL    HW234390   7.567   8.935   3.026  0.2770 -1.3443 -0.6406
10795SOL     OW34391   8.193   9.303   7.059 -0.0599 -0.5597  0.2504
10795SOL    HW134392   8.262   9.238   7.051  0.4383 -0.2119  1.4585
10795SOL    HW234393   8.234   9.385   7.032 -0.0285 -0.3775  0.8363
10796SOL     OW34394   6.137   8.938   6.141 -0.5597 -0.0725 -0.3944
10796SOL    HW134395   6.189   9.009   6.179 -0.7938 -0.0326 -0.1395
10796SOL    HW234396   6.195   8.896   6.079 -0.6895  0.8760 -1.1823
10797SOL     OW34397   1.439   4.796   9.835 -0.6299  0.7085  0.4053
10797SOL    HW134398   1.508   4.852   9.800 -1.0217  0.9547  0.0154
10797SOL    HW234399   1.430   4.726   9.771  0.0893  0.0016  1.0553
10798SOL     OW34400   5.579   1.317   4.541  0.2331  0.2941 -0.8285
10798SOL    HW134401   5.667   1.306   4.579 -0.4996 -1.3044  0.5099
10798SOL    HW234402   5.590   1.290   4.450  0.8627 -1.3687 -0.3120
10799SOL     OW34403  10.016   1.662   7.205 -0.2302  0.2164  0.3785
10799SOL    HW134404  10.015   1.610   7.125  1.4030  0.8553 -0.0917
10799SOL    HW234405  10.096   1.714   7.199 -0.1738  0.4237  2.3410
10800SOL     OW34406   6.627   0.976   3.683 -0.3303 -0.4956  0.1145
10800SOL    HW134407   6.697   1.042   3.678  0.4804 -1.4097 -1.2315
10800SOL    HW234408   6.616   0.960   3.777  0.2738  0.6955  0.4096
10801SOL     OW34409  10.635   2.450  10.720 -0.2865  0.6019 -0.4365
10801SOL    HW134410  10.638   2.358  10.746  0.5785  0.3720 -1.3014
10801SOL    HW234411  10.614   2.497  10.801  0.5164 -0.2411  0.2910
10802SOL     OW34412   5.526   3.599  10.412 -0.8824 -0.0537 -0.3062
10802SOL    HW134413   5.464   3.589  10.485  1.0098  1.5260  1.6789
10802SOL    HW234414   5.474   3.632  10.340 -2.5804 -0.0462  0.8628
10803SOL     OW34415   9.280   0.904   6.743 -0.4334 -0.3375 -0.1633
10803SOL    HW134416   9.219   0.836   6.769 -0.5717 -0.0461  0.2981
10803SOL    HW234417   9.366   0.869   6.765 -0.5227 -0.2662  0.3074
10804SOL     OW34418   3.968   3.186   9.430 -0.2642 -0.2098 -0.3300
10804SOL    HW134419   3.982   3.106   9.379  0.0847  0.8192 -1.9327
10804SOL    HW234420   3.967   3.256   9.364 -0.4660  1.1135  1.0360
10805SOL     OW34421   5.019   2.161   6.193 -0.4823 -0.2300 -0.1590
10805SOL    HW134422   5.085   2.129   6.131  0.4891  1.1200  0.1202
10805SOL    HW234423   4.945   2.101   6.184  1.0070 -2.1698 -0.0459
10806SOL     OW34424   1.735   3.875   3.064  0.3339 -0.1139 -0.1183
10806SOL    HW134425   1.805   3.869   2.999  0.6283  0.0518  0.1818
10806SOL    HW234426   1.656   3.849   3.016  0.7848 -1.5093 -0.1535
10807SOL     OW34427   7.112   4.523   1.495  0.6721  0.0017 -0.1167
10807SOL    HW134428   7.136   4.448   1.440  1.4251  0.0746  0.1059
10807SOL    HW234429   7.196   4.559   1.524  0.4326  2.1097 -1.7841
10808SOL     OW34430  11.027   8.365   5.795 -0.8312  0.3275 -0.0464
10808SOL    HW134431  10.979   8.300   5.847 -1.0798 -0.4514 -1.1991
10808SOL    HW234432  11.014   8.447   5.841 -1.9334 -0.1522  0.5475
10809SOL     OW34433   9.949   6.705   8.911 -0.0676 -0.6197  0.8185
10809SOL    HW134434   9.910   6.792   8.899  0.5720 -0.3952  0.3010
10809SOL    HW234435  10.026   6.706   8.854 -0.3552 -1.7168  0.3985
10810SOL     OW34436  10.098  10.356   0.899 -0.8561  0.2084  0.2320
10810SOL    HW134437  10.172  10.410   0.873 -1.1847  0.1151 -0.9752
10810SOL    HW234438  10.138  10.282   0.945 -0.2377  0.3901  0.0059
10811SOL     OW34439   3.661   2.052   2.793 -0.4016  0.1146  0.2731
10811SOL    HW134440   3.627   2.094   2.872 -1.8951 -0.1707 -0.1970
10811SOL    HW234441   3.584   2.020   2.746  0.4313  0.3563 -1.3617
10812SOL     OW34442   6.274   3.127   0.550 -0.3893 -0.5088 -0.1773
10812SOL    HW134443   6.286   3.093   0.639 -0.9672  0.6651  0.3797
10812SOL    HW234444   6.346   3.090   0.500  0.6985 -0.1871  1.0895
10813SOL     OW34445   3.928   5.466   1.187  0.3151 -0.2429 -0.3596
10813SOL    HW134446   3.989   5.538   1.177  2.4117 -2.0076 -1.1108
10813SOL    HW234447   3.967   5.410   1.254 -1.2409 -0.7172  0.1976
10814SOL     OW34448   4.724   5.009   9.068 -0.0448 -0.0378 -0.4493
10814SOL    HW134449   4.753   4.976   9.153  0.3625  0.8225 -0.2477
10814SOL    HW234450   4.759   4.946   9.005 -0.0229 -0.4703 -0.0100
10815SOL     OW34451   3.552   9.205   5.460 -0.2139 -0.6746 -0.2320
10815SOL    HW134452   3.525   9.119   5.427 -0.5195 -0.1386 -1.4634
10815SOL    HW234453   3.547   9.198   5.555  1.1593 -2.4544 -0.2548
10816SOL     OW34454   9.176   1.897  10.309 -0.3254  0.7918 -0.8712
10816SOL    HW134455   9.081   1.898  10.318 -0.3327  0.4904 -0.9160
10816SOL    HW234456   9.195   1.815  10.265  0.0753  0.1939  0.3846
10817SOL     OW34457   9.154  10.245   1.000  0.3841  0.5216  0.1608
10817SOL    HW134458   9.218  10.248   1.070 -0.5636  2.3587  1.0132
10817SOL    HW234459   9.146  10.152   0.979  0.5740 -0.1278  2.6167
10818SOL     OW34460   4.669   1.329   1.271  0.3891  0.3866 -0.1907
10818SOL    HW134461   4.583   1.323   1.228  0.3987 -1.1225 -0.0503
10818SOL    HW234462   4.704   1.240   1.266  0.6091  0.2509  2.4551
10819SOL     OW34463   6.779   8.078   6.796 -0.5107 -0.1647 -0.6853
10819SOL    HW134464   6.756   7.990   6.825 -1.1423  0.2509  0.1100
10819SOL    HW234465   6.708   8.102   6.736 -0.9569  0.2368 -0.0080
10820SOL     OW34466   1.786   1.873   7.633  0.3090 -0.1799  0.2136
10820SOL    HW134467   1.714   1.811   7.623  0.3126  0.1592 -2.5916
10820SOL    HW234468   1.744   1.959   7.632  0.5054 -0.0173  1.9826
10821SOL     OW34469   2.212   8.449   2.259 -0.2532 -0.3096 -0.2440
10821SOL    HW134470   2.293   8.408   2.289 -0.6467 -0.5031  0.6055
10821SOL    HW234471   2.240   8.528   2.214  0.4784 -1.1122 -1.2344
10822SOL     OW34472   0.842   5.739   2.252  0.5018 -0.3073 -0.1003
10822SOL    HW134473   0.866   5.745   2.159 -0.2769  0.8885 -0.2409
10822SOL    HW234474   0.925   5.740   2.298  0.8461  1.1129 -0.7061
10823SOL     OW34475   1.334   6.738   9.570  0.0122  0.5025 -0.7783
10823SOL    HW134476   1.351   6.832   9.569  0.8447  0.3654 -0.4880
10823SOL    HW234477   1.360   6.710   9.658  0.7672 -0.1522 -1.1930
10824SOL     OW34478   9.456   1.232  10.876 -0.1762  0.1651  0.3219
10824SOL    HW134479   9.542   1.225  10.918  0.5768  0.2859 -1.1119
10824SOL    HW234480   9.434   1.325  10.881 -0.5623  0.0409  1.2723
10825SOL     OW34481   5.138   1.084   0.930 -0.2306 -0.5349  0.1317
10825SOL    HW134482   5.207   1.131   0.978 -0.2242 -1.1321  0.7118
10825SOL    HW234483   5.121   1.139   0.854  0.1945  0.1194  0.4977
10826SOL     OW34484   1.071   4.658   7.658  0.2853 -0.6795 -0.3529
10826SOL    HW134485   1.115   4.741   7.644  1.0819 -0.8517  0.9005
10826SOL    HW234486   1.015   4.646   7.582 -0.8714  1.6450  0.0678
10827SOL     OW34487   1.492   1.097   5.688 -0.0310 -0.3998  0.6957
10827SOL    HW134488   1.555   1.085   5.759 -0.1627 -1.0940  0.6972
10827SOL    HW234489   1.477   1.192   5.686  1.9686 -0.0365 -0.1301
10828SOL     OW34490  10.933   9.223   0.487 -0.1291  0.2448 -0.3630
10828SOL    HW134491  10.899   9.215   0.398 -0.3225  1.9152 -0.4659
10828SOL    HW234492  10.873   9.284   0.531 -1.1670 -1.9918  1.5323
10829SOL     OW34493   4.196   5.826   3.862  0.6360 -0.5974  0.0653
10829SOL    HW134494   4.119   5.793   3.910 -0.3512 -0.4649 -1.3606
10829SOL    HW234495   4.236   5.889   3.921 -1.1140  0.2941  0.3553
10830SOL     OW34496  10.164   5.108   2.189  0.5769 -0.3054  0.4516
10830SOL    HW134497  10.226   5.109   2.262 -0.6871  0.0676  1.5624
10830SOL    HW234498  10.216   5.136   2.113  1.6366  0.5779  1.4606
10831SOL     OW34499   2.928   6.153   5.013 -0.1215 -0.1949 -0.8059
10831SOL    HW134500   2.850   6.101   5.030 -0.8048  1.6175  2.2711
10831SOL    HW234501   2.999   6.104   5.053 -0.1233 -0.5390 -1.2187
10832SOL     OW34502   6.442   4.198   9.780 -0.2773  0.3529 -0.1572
10832SOL    HW134503   6.368   4.259   9.775 -0.6896 -0.0630  0.7685
10832SOL    HW234504   6.402   4.111   9.776  0.1998  0.1278 -0.0586
10833SOL     OW34505   4.223   7.265   6.769  0.1737 -0.2238 -0.4159
10833SOL    HW134506   4.294   7.212   6.804 -1.3417 -1.8637  0.3435
10833SOL    HW234507   4.225   7.346   6.821  2.0182  0.1769 -1.0435
10834SOL     OW34508   3.619   4.056   7.228  0.2568  0.0505 -0.4974
10834SOL    HW134509   3.641   4.146   7.252  0.5488  0.2362 -1.4282
10834SOL    HW234510   3.700   4.007   7.241 -0.1784 -0.3285  1.0738
10835SOL     OW34511   5.458   3.277   1.315  0.0441 -0.6579 -0.2680
10835SOL    HW134512   5.544   3.305   1.283 -0.2631  0.2119 -0.3512
10835SOL    HW234513   5.477   3.221   1.390  0.6379  1.9778  1.6910
10836SOL     OW34514   4.530   1.049   2.302  0.2447  0.0447 -0.0264
10836SOL    HW134515   4.589   1.120   2.280  0.4880  0.3171  1.4456
10836SOL    HW234516   4.445   1.076   2.267  0.5489  0.5854 -0.3492
10837SOL     OW34517   5.280   1.415   6.255  0.2191  0.0449  0.0830
10837SOL    HW134518   5.365   1.374   6.269 -0.6632 -1.0801  2.9735
10837SOL    HW234519   5.241   1.421   6.343 -2.3780  1.2128 -1.0235
10838SOL     OW34520   9.593   2.001   8.881  0.2222  0.1110  0.2913
10838SOL    HW134521   9.574   1.994   8.975  0.7431  0.0756  0.3937
10838SOL    HW234522   9.507   1.998   8.840  0.0624 -2.5918  0.5952
10839SOL     OW34523   8.302   9.077   1.768  0.2351 -0.0618  0.1773
10839SOL    HW134524   8.348   9.098   1.849  0.3208 -0.0354  0.1221
10839SOL    HW234525   8.371   9.045   1.709  0.4253  1.3718 -0.4087
10840SOL     OW34526   3.689   8.180   6.276  0.4589 -0.0538 -0.3305
10840SOL    HW134527   3.768   8.127   6.263  0.6147  0.1227 -0.1084
10840SOL    HW234528   3.656   8.197   6.187 -1.6902 -3.6361 -0.4250
10841SOL     OW34529   0.714   5.157   4.439 -0.0083  0.1604 -0.3458
10841SOL    HW134530   0.689   5.248   4.447 -0.5628 -0.1627  2.5140
10841SOL    HW234531   0.676   5.129   4.356  1.9970  2.9937 -2.4133
10842SOL     OW34532   2.107   8.463   7.768 -0.1633  0.4027 -0.4514
10842SOL    HW134533   2.172   8.517   7.813 -1.0631  1.9405 -0.8948
10842SOL    HW234534   2.026   8.513   7.775 -1.7370 -2.1852  1.4714
10843SOL     OW34535   3.432   7.022   9.866  0.3908  0.4043  0.0276
10843SOL    HW134536   3.357   7.081   9.871  0.5615  0.5586  1.1459
10843SOL    HW234537   3.494   7.065   9.807  0.9980  1.9535  1.6978
10844SOL     OW34538   9.684  10.461   9.156 -0.4838 -0.1579  0.4147
10844SOL    HW134539   9.634  10.538   9.129 -0.9971 -0.7848 -0.4811
10844SOL    HW234540   9.702  10.415   9.074  0.0246 -0.8688  0.9207
10845SOL     OW34541   4.913   6.147   4.309  0.7856 -0.1753  0.2030
10845SOL    HW134542   4.838   6.102   4.271  2.1400 -2.0551 -0.3866
10845SOL    HW234543   4.887   6.239   4.314 -0.9412 -0.5387 -1.4525
10846SOL     OW34544   2.148   4.005   7.206  0.2992 -0.2238 -0.1730
10846SOL    HW134545   2.126   3.952   7.129 -0.6797 -1.3575  0.8466
10846SOL    HW234546   2.244   4.005   7.208  0.3420 -0.2539 -1.3254
10847SOL     OW34547   6.373   8.673   4.417  0.3703  0.2552  0.0211
10847SOL    HW134548   6.299   8.616   4.400  1.8249 -1.1899 -1.9358
10847SOL    HW234549   6.367   8.693   4.511 -1.3372 -1.4299  0.3266
10848SOL     OW34550  10.659   2.145   7.024  0.0795 -0.1134 -0.1783
10848SOL    HW134551  10.637   2.180   6.938 -0.9552  1.8241  0.8231
10848SOL    HW234552  10.638   2.051   7.017 -0.0601  0.0108 -1.9821
10849SOL     OW34553   7.756  10.244   7.642  0.3636 -0.0648  0.2937
10849SOL    HW134554   7.844  10.215   7.615  0.2475  0.0155 -0.1780
10849SOL    HW234555   7.697  10.192   7.588  0.0777 -1.0858  1.5418
10850SOL     OW34556  10.850   3.034   4.918  0.0981 -0.7919 -0.1084
10850SOL    HW134557  10.914   3.093   4.877  0.4977 -1.1243  0.0297
10850SOL    HW234558  10.801   2.997   4.845  0.7773 -1.3470 -0.2865
10851SOL     OW34559   6.768   4.197   4.226 -0.0974 -0.0374 -0.2842
10851SOL    HW134560   6.814   4.278   4.246  0.9035 -0.7810  0.5597
10851SOL    HW234561   6.735   4.167   4.311  0.4052 -0.9982 -0.4128
10852SOL     OW34562   8.806   5.755  10.060 -0.2719 -0.0277  0.0110
10852SOL    HW134563   8.865   5.701  10.112  0.4396 -0.6463 -1.3732
10852SOL    HW234564   8.859   5.783   9.985 -1.6674 -0.4511 -1.1860
10853SOL     OW34565   2.174   7.835   2.815  0.1838 -0.7201  0.2024
10853SOL    HW134566   2.126   7.838   2.733 -0.7548 -0.7938  0.7374
10853SOL    HW234567   2.177   7.742   2.838  1.4087 -0.8267 -0.2840
10854SOL     OW34568   9.478   9.957   9.205 -0.2076  0.5126  0.1536
10854SOL    HW134569   9.498  10.048   9.229  0.7679  0.9857 -2.2388
10854SOL    HW234570   9.486   9.955   9.110  1.3923 -2.4708  0.2446
10855SOL     OW34571   8.231   4.877   6.586  0.2196 -0.5383 -0.3527
10855SOL    HW134572   8.310   4.829   6.563  1.9470  1.3069  1.2116
10855SOL    HW234573   8.252   4.918   6.670 -2.6764 -0.4788  0.4596
10856SOL     OW34574  10.305   6.367   6.179  0.3464  0.7222  0.2970
10856SOL    HW134575  10.213   6.380   6.156 -0.3848 -2.2495  1.1683
10856SOL    HW234576  10.305   6.349   6.273  1.5409 -1.1104  0.0027
10857SOL     OW34577   9.256   0.968   2.460  0.2570  0.2636 -0.5019
10857SOL    HW134578   9.318   0.895   2.455 -0.8884 -0.7371 -0.4971
10857SOL    HW234579   9.300   1.033   2.515  1.3847 -0.3361 -0.6708
10858SOL     OW34580   8.553   8.092  10.090 -0.2602  0.3979 -0.2940
10858SOL    HW134581   8.559   8.090  10.185  0.7735  0.6137 -0.3379
10858SOL    HW234582   8.485   8.157  10.071 -0.1635  0.6733  0.2943
10859SOL     OW34583   8.342   7.947   3.571 -0.1577 -0.4778  0.0185
10859SOL    HW134584   8.390   7.868   3.546 -0.8969  0.0193 -3.4155
10859SOL    HW234585   8.254   7.934   3.534 -0.7632  1.3337  0.6970
10860SOL     OW34586   0.468   6.126  10.606 -0.1232  0.3942 -0.1987
10860SOL    HW134587   0.484   6.033  10.619  1.3440  0.1891 -2.9673
10860SOL    HW234588   0.374   6.137  10.625 -0.2945 -1.5778  0.2933
10861SOL     OW34589   5.824   2.381   3.887  0.1581  0.5650  0.4804
10861SOL    HW134590   5.823   2.320   3.961 -1.4908  1.2184  1.0284
10861SOL    HW234591   5.775   2.457   3.918  0.6999  1.4618 -0.7967
10862SOL     OW34592   5.267   9.429   1.683 -0.3204 -0.2172  0.1168
10862SOL    HW134593   5.314   9.394   1.608  2.5217 -2.1597  2.5828
10862SOL    HW234594   5.175   9.412   1.664  0.2951 -0.8231 -2.7455
10863SOL     OW34595   9.407   2.603   7.913 -0.0501 -0.6298 -0.4573
10863SOL    HW134596   9.461   2.585   7.990 -0.3856  0.8087  0.1441
10863SOL    HW234597   9.380   2.516   7.882  0.4189 -1.2526  0.7978
10864SOL     OW34598   8.569   8.397   1.476  0.4376 -0.5161  0.2926
10864SOL    HW134599   8.493   8.442   1.440  1.9723 -0.6179 -3.5577
10864SOL    HW234600   8.643   8.430   1.424  2.6327 -2.3508  2.0515
10865SOL     OW34601   0.222   4.567   0.901  0.0620 -0.1943 -0.1723
10865SOL    HW134602   0.221   4.485   0.852 -2.2627  0.9477 -2.2769
10865SOL    HW234603   0.154   4.557   0.967  0.2833 -0.2185  0.0533
10866SOL     OW34604  10.135   5.768  10.403  0.0915 -0.3486 -0.4781
10866SOL    HW134605  10.102   5.730  10.484  0.9786  1.1236  0.6265
10866SOL    HW234606  10.157   5.692  10.348 -1.6637 -1.3610  0.1423
10867SOL     OW34607   0.186   2.132   3.038  0.3319 -0.0310  0.1010
10867SOL    HW134608   0.235   2.212   3.055  0.5369 -0.3936  1.3366
10867SOL    HW234609   0.104   2.162   3.000  0.0170  0.8597  1.3979
10868SOL     OW34610   9.101   4.417  10.370 -0.1318  0.2968 -0.4379
10868SOL    HW134611   9.012   4.421  10.334 -0.5351 -2.8168 -0.0759
10868SOL    HW234612   9.152   4.373  10.303  1.0343  1.4838 -0.3631
10869SOL     OW34613   4.098   9.089   2.006 -0.1825  0.0108 -0.3081
10869SOL    HW134614   4.017   9.055   1.967 -0.1048 -1.2891  0.6028
10869SOL    HW234615   4.090   9.068   2.099  0.0979  2.1378  0.2478
10870SOL     OW34616   5.825   7.798   3.464 -0.1940 -0.1322  0.0303
10870SOL    HW134617   5.822   7.782   3.370  0.1651  1.2028 -0.2252
10870SOL    HW234618   5.912   7.768   3.491 -0.6976 -1.5546  0.1636
10871SOL     OW34619   6.981   0.336   6.156 -0.1576  0.2559 -0.6194
10871SOL    HW134620   7.027   0.287   6.088 -1.8366  0.5981 -2.0604
10871SOL    HW234621   6.970   0.423   6.120  0.8951  1.1285  1.0536
10872SOL     OW34622   7.848   3.284   1.206 -0.0161 -0.5922  0.4948
10872SOL    HW134623   7.790   3.352   1.240 -0.1542 -1.2796  1.6992
10872SOL    HW234624   7.890   3.323   1.129 -2.3831 -0.2208 -0.6817
10873SOL     OW34625   3.864   0.034   1.390 -0.0870 -0.0473 -0.3357
10873SOL    HW134626   3.850   0.126   1.413  1.6044 -0.2659  1.9526
10873SOL    HW234627   3.959   0.027   1.376 -0.0683 -1.5480  0.2915
10874SOL     OW34628   1.331   8.596   5.463  0.9614  0.4919  0.2897
10874SOL    HW134629   1.392   8.524   5.450 -0.6086 -1.4327  2.7156
10874SOL    HW234630   1.250   8.567   5.422  0.3227  0.8703  1.2484
10875SOL     OW34631   6.153   2.893   6.440 -0.3223 -0.0279 -0.1594
10875SOL    HW134632   6.072   2.843   6.450  0.3580 -1.6497 -2.1055
10875SOL    HW234633   6.131   2.964   6.380 -0.2648 -0.6502 -0.9355
10876SOL     OW34634   4.991   1.273   0.389  0.4040 -0.3248  0.6539
10876SOL    HW134635   4.971   1.317   0.307 -1.4504 -1.5563  0.3910
10876SOL    HW234636   5.066   1.216   0.368  0.3453 -0.1658 -0.0104
10877SOL     OW34637   4.894   4.944   7.878  0.1171  0.7334 -0.3685
10877SOL    HW134638   4.804   4.958   7.909  0.0132  0.0830 -0.3542
10877SOL    HW234639   4.921   5.029   7.842  0.3234  1.5968  1.7017
10878SOL     OW34640   4.114   5.991   4.325  0.3541 -0.3502  0.0023
10878SOL    HW134641   4.118   6.052   4.251 -0.8610 -3.0367 -2.4842
10878SOL    HW234642   4.204   5.965   4.340  0.6629  0.5531 -0.2152
10879SOL     OW34643   6.293   0.612   3.405 -0.1279  0.1088  0.1615
10879SOL    HW134644   6.322   0.675   3.470  2.4092  0.3174 -1.0420
10879SOL    HW234645   6.310   0.655   3.321 -0.4091 -1.3166 -0.6589
10880SOL     OW34646   3.867   7.910   3.110  0.0737 -0.3494  0.7948
10880SOL    HW134647   3.901   7.924   3.022 -1.2794 -1.8010 -0.0055
10880SOL    HW234648   3.871   7.996   3.151  1.8262  0.1190 -0.2589
10881SOL     OW34649   8.418   7.603  10.348 -0.1128  0.3008 -0.4430
10881SOL    HW134650   8.472   7.668  10.302 -0.4678  0.2377 -0.9585
10881SOL    HW234651   8.366   7.654  10.410  2.2710  0.1572  1.8784
10882SOL     OW34652  10.196   8.358   6.111  0.3522  0.0481  0.5957
10882SOL    HW134653  10.170   8.328   6.024  0.5686  0.3844  0.4127
10882SOL    HW234654  10.123   8.334   6.167 -0.5377  1.3165  0.0207
10883SOL     OW34655   6.260   2.445   3.973  0.1394  0.7685 -0.1355
10883SOL    HW134656   6.275   2.382   4.044  0.6662 -0.4106 -1.2397
10883SOL    HW234657   6.323   2.515   3.989  0.8309  0.1072  0.1106
10884SOL     OW34658   4.768   4.237   3.803 -0.4010  0.2152  0.2605
10884SOL    HW134659   4.837   4.262   3.742 -0.8933  0.7590 -0.0905
10884SOL    HW234660   4.754   4.144   3.788  2.3535 -0.6861  2.4737
10885SOL     OW34661   5.466   7.185   7.581 -0.0696 -0.0654 -0.0919
10885SOL    HW134662   5.406   7.198   7.507 -1.2277  0.1366  0.8597
10885SOL    HW234663   5.552   7.175   7.540 -0.4918  1.2923 -1.4014
10886SOL     OW34664   2.894   6.463   3.523  0.2795  0.5208  0.6181
10886SOL    HW134665   2.960   6.526   3.495 -0.5527  1.8998  1.6000
10886SOL    HW234666   2.944   6.393   3.566  1.1600  1.0495  0.4788
10887SOL     OW34667  10.708  10.738  10.794 -0.0731 -0.4600 -0.0014
10887SOL    HW134668  10.790  10.731  10.744  0.9067  1.0832  1.2957
10887SOL    HW234669  10.732  10.717  10.884 -1.2903 -0.7531  0.2761
10888SOL     OW34670   6.402   1.235   6.846 -0.3283  0.4723  0.1747
10888SOL    HW134671   6.444   1.159   6.807  0.8532  1.4947 -0.6368
10888SOL    HW234672   6.370   1.286   6.771  2.2870  2.6485  0.3770
10889SOL     OW34673   3.693   6.263   7.075 -0.8516  0.0462 -0.2017
10889SOL    HW134674   3.761   6.234   7.014 -0.6572 -0.3251  0.1790
10889SOL    HW234675   3.742   6.299   7.149 -1.0830  0.3762 -0.2073
10890SOL     OW34676   6.602   7.811   2.353  0.1824  0.3090 -0.2382
10890SOL    HW134677   6.589   7.770   2.438 -0.5530 -0.1250 -0.5546
10890SOL    HW234678   6.685   7.776   2.322  0.0642 -0.1469 -0.0515
10891SOL     OW34679   6.401   4.284   0.076  0.1729  0.6564  0.4023
10891SOL    HW134680   6.454   4.256   0.001  0.4960  2.2134  0.0216
10891SOL    HW234681   6.417   4.378   0.084 -0.6976  0.7237  1.7670
10892SOL     OW34682   4.813   9.446   7.734 -0.4009 -0.4624  0.4275
10892SOL    HW134683   4.725   9.452   7.772 -1.0792  1.0372 -1.2554
10892SOL    HW234684   4.804   9.382   7.664 -0.6225  0.8744 -0.8172
10893SOL     OW34685   1.045   1.780   7.729 -0.1252  0.4602  0.5887
10893SOL    HW134686   0.970   1.734   7.767 -0.2319  0.8208  0.8256
10893SOL    HW234687   1.024   1.788   7.636  0.3012 -0.7508  0.3775
10894SOL     OW34688   1.971   8.501  10.278  0.0251 -0.2559 -0.3583
10894SOL    HW134689   1.959   8.463  10.191  0.7314 -1.2886 -0.0121
10894SOL    HW234690   1.944   8.593  10.267 -0.1157 -0.4243 -1.6030
10895SOL     OW34691  10.088   8.232  10.958  0.9961  0.0339  0.2946
10895SOL    HW134692  10.095   8.145  10.996  0.2404  0.3109  1.1049
10895SOL    HW234693  10.109   8.292  11.030 -1.6916  0.6082  0.7029
10896SOL     OW34694   4.962   5.257   2.324  0.6372  0.2595  0.2268
10896SOL    HW134695   5.010   5.174   2.328  1.9298  0.9212 -0.5313
10896SOL    HW234696   5.011   5.315   2.383 -0.2331  0.5090  0.7221
10897SOL     OW34697   8.581   8.613   2.179  0.3392 -0.5956  0.3056
10897SOL    HW134698   8.543   8.621   2.266 -1.6101  2.4132 -0.6429
10897SOL    HW234699   8.672   8.639   2.190  0.5129 -1.6397  1.6135
10898SOL     OW34700   1.737   8.120   8.358 -0.3613 -0.2116 -0.0750
10898SOL    HW134701   1.646   8.113   8.329  0.6828 -0.2942 -3.7529
10898SOL    HW234702   1.749   8.214   8.374 -1.1078 -0.2323  0.7362
10899SOL     OW34703   3.277   5.436   0.875 -0.2175  0.2871 -0.3653
10899SOL    HW134704   3.227   5.473   0.949 -1.3767 -0.3247 -0.8107
10899SOL    HW234705   3.340   5.377   0.916 -2.9730 -2.6154  0.1264
10900SOL     OW34706   4.236   3.993   8.929 -0.1849 -0.0965 -0.3075
10900SOL    HW134707   4.159   4.004   8.985  0.2465  1.4897  0.0068
10900SOL    HW234708   4.245   3.898   8.920 -1.4737 -0.3365  0.6220
10901SOL     OW34709   8.938   8.440   0.291 -0.6237 -0.2110 -0.1059
10901SOL    HW134710   8.940   8.507   0.223 -2.2068  0.3783  0.3976
10901SOL    HW234711   8.993   8.370   0.256  1.6361  1.5733 -0.3460
10902SOL     OW34712   9.742   5.482   6.562 -0.2633 -0.4140  0.1906
10902SOL    HW134713   9.713   5.573   6.556 -1.1638 -0.6323  0.9221
10902SOL    HW234714   9.779   5.474   6.650  0.4029 -0.6006 -0.0980
10903SOL     OW34715   6.996   9.251   7.409 -0.1770  0.0951 -0.1037
10903SOL    HW134716   6.933   9.314   7.374 -0.1146  1.2785  1.7543
10903SOL    HW234717   6.979   9.170   7.361 -0.9848  1.2353 -1.8125
10904SOL     OW34718  10.384  10.407   8.022 -0.0760  0.0791 -0.0464
10904SOL    HW134719  10.382  10.426   8.116 -0.6770  0.8771 -0.2116
10904SOL    HW234720  10.435  10.326   8.016 -1.1160 -0.7025  1.0810
10905SOL     OW34721  10.993   9.285   6.461 -0.0815 -0.5461 -0.9157
10905SOL    HW134722  10.986   9.272   6.555  0.9826 -2.0726 -1.0037
10905SOL    HW234723  10.902   9.293   6.431 -0.4305 -0.1584  0.2186
10906SOL     OW34724   4.777   2.272  10.111 -0.0842  0.0027  0.3736
10906SOL    HW134725   4.728   2.195  10.083 -2.7277  1.5447  0.3977
10906SOL    HW234726   4.761   2.278  10.206 -0.7339  1.0713  0.2166
10907SOL     OW34727   0.694   4.614  10.818 -0.0752 -0.1394 -0.0531
10907SOL    HW134728   0.659   4.563  10.745 -1.3344  0.8658 -0.1850
10907SOL    HW234729   0.630   4.601  10.888  0.5890 -0.2571  0.5359
10908SOL     OW34730   6.213   8.294   1.823 -0.7904  0.4843  0.1002
10908SOL    HW134731   6.297   8.250   1.834 -0.0272  2.0487  0.9172
10908SOL    HW234732   6.152   8.224   1.802  1.0586 -0.4829 -2.5293
10909SOL     OW34733   5.673   7.083   0.161  0.1797 -0.5097  0.5111
10909SOL    HW134734   5.585   7.090   0.123  0.6188 -1.6752 -0.7897
10909SOL    HW234735   5.725   7.147   0.114  0.5253 -1.3634 -0.2978
10910SOL     OW34736   5.554   8.958   5.416  0.3018 -0.0618 -0.6391
10910SOL    HW134737   5.521   9.024   5.355  0.6044 -0.1678 -0.9164
10910SOL    HW234738   5.549   8.876   5.368  1.7734  0.0333 -1.0079
10911SOL     OW34739   2.660   5.848  10.997  0.1716 -0.1933  0.4512
10911SOL    HW134740   2.748   5.886  10.987  0.2480 -0.3548  0.5094
10911SOL    HW234741   2.631   5.832  10.907 -0.4840  1.4102  0.3449
10912SOL     OW34742   0.156   1.157   2.564  0.2506  0.1641 -0.7918
10912SOL    HW134743   0.220   1.145   2.634  1.5724  2.5057 -1.4898
10912SOL    HW234744   0.111   1.238   2.587 -0.2843  0.2057 -1.9451
10913SOL     OW34745  10.645   3.792   6.077 -0.0223  0.0884  0.5444
10913SOL    HW134746  10.711   3.849   6.038 -1.4701  2.4892  1.3173
10913SOL    HW234747  10.576   3.787   6.011 -0.4882  0.3957  0.9958
10914SOL     OW34748  10.915   4.948   1.895  0.0920 -0.1604  0.1011
10914SOL    HW134749  10.902   4.973   1.804  1.2412 -2.6194 -0.8412
10914SOL    HW234750  10.828   4.925   1.926 -0.7556  3.1216  0.5493
10915SOL     OW34751  10.473   7.473   7.613  0.3513  0.4669 -0.3140
10915SOL    HW134752  10.382   7.474   7.585  0.4016  0.4150 -0.4810
10915SOL    HW234753  10.472   7.511   7.700 -0.0698 -1.1552  0.4216
10916SOL     OW34754   1.163   8.322   3.932  0.3969 -0.4879  0.5464
10916SOL    HW134755   1.179   8.371   3.851 -1.6414 -0.3108  0.1836
10916SOL    HW234756   1.200   8.377   4.001  0.6494  0.1985 -0.1270
10917SOL     OW34757   2.701   7.541   7.723 -0.0652 -0.4466  0.0375
10917SOL    HW134758   2.643   7.615   7.740  2.4483  1.7357 -0.2289
10917SOL    HW234759   2.720   7.546   7.630  1.5163 -0.2825  0.3372
10918SOL     OW34760   4.412   1.500  10.169 -0.0006 -0.1247 -0.5157
10918SOL    HW134761   4.342   1.533  10.113  0.2222  1.0873 -0.1238
10918SOL    HW234762   4.433   1.413  10.134  0.1193  0.5792 -2.2976
10919SOL     OW34763   1.363   7.850   0.592  0.3454  0.3998 -0.8734
10919SOL    HW134764   1.325   7.850   0.504 -0.5715 -0.3474 -0.4946
10919SOL    HW234765   1.287   7.855   0.651  0.7903 -1.2059 -0.0971
10920SOL     OW34766   7.150   6.898   3.987 -0.8855  0.2279  0.0977
10920SOL    HW134767   7.197   6.918   4.068  0.4603  0.4059 -0.6915
10920SOL    HW234768   7.125   6.984   3.952  1.2813  0.3943 -1.2122
10921SOL     OW34769   3.882   0.971   4.799  0.6709 -0.0147  0.1396
10921SOL    HW134770   3.927   1.036   4.744  0.6018  0.4708  0.6476
10921SOL    HW234771   3.943   0.898   4.805 -0.3556 -1.2918 -2.8095
10922SOL     OW34772   0.381   8.533   4.861  0.2331 -0.2993 -0.2733
10922SOL    HW134773   0.356   8.623   4.879 -0.5697 -0.1492 -1.9245
10922SOL    HW234774   0.302   8.493   4.822  0.5012 -1.7765  0.6208
10923SOL     OW34775   6.174   1.350   5.941  0.2558  0.0884 -0.0083
10923SOL    HW134776   6.115   1.411   5.985  0.2016  1.9259 -2.4159
10923SOL    HW234777   6.127   1.266   5.943 -0.3520  0.4193  2.0462
10924SOL     OW34778   0.448   3.511   1.253  0.6009  0.0969  0.1178
10924SOL    HW134779   0.418   3.600   1.272  0.8868  0.1717  0.2152
10924SOL    HW234780   0.501   3.487   1.329  2.0674  0.5359 -0.7434
10925SOL     OW34781  10.651   7.228  10.615 -0.7323  0.2273 -0.3998
10925SOL    HW134782  10.686   7.139  10.607 -2.5797 -0.6330  0.3737
10925SOL    HW234783  10.610   7.230  10.701  1.5253  2.7537  0.7594
10926SOL     OW34784   9.664   6.350   0.980  0.4738  0.1032  0.0856
10926SOL    HW134785   9.590   6.382   1.032  0.4199  0.4886 -0.2260
10926SOL    HW234786   9.676   6.259   1.009 -1.0459 -0.4503 -0.8644
10927SOL     OW34787   8.712   2.570   4.515 -0.2232  0.4539  0.2245
10927SOL    HW134788   8.723   2.480   4.485  1.0220 -0.4983  3.1553
10927SOL    HW234789   8.712   2.622   4.435 -1.3224 -2.1377 -1.6030
10928SOL     OW34790  10.941   1.401   3.938 -0.8719  0.1422 -0.1663
10928SOL    HW134791  11.001   1.476   3.940  2.2595 -2.1999  0.8400
10928SOL    HW234792  10.952   1.364   3.850 -0.2186 -0.7252  0.2686
10929SOL     OW34793   5.169   1.761   7.083  0.4505 -0.0499  0.2224
10929SOL    HW134794   5.192   1.848   7.050 -0.4432 -0.0612 -0.4778
10929SOL    HW234795   5.185   1.702   7.009  1.4343 -0.5463  0.8222
10930SOL     OW34796   4.230   3.328   3.275  0.6393  0.0468 -0.1426
10930SOL    HW134797   4.266   3.300   3.359  0.9307  2.3018  0.5519
10930SOL    HW234798   4.307   3.338   3.218  1.0593  3.0344  0.7835
10931SOL     OW34799   2.962   5.083  10.562 -0.5059  0.1012  0.1411
10931SOL    HW134800   3.046   5.047  10.533 -0.9883  0.3220 -1.6866
10931SOL    HW234801   2.981   5.128  10.644  1.1030 -0.0961 -0.1025
10932SOL     OW34802   8.584   5.705   7.646  0.3577  0.1302  0.5821
10932SOL    HW134803   8.559   5.637   7.583 -0.1452 -0.4941  1.4283
10932SOL    HW234804   8.504   5.724   7.694 -0.3610  3.5920 -1.6346
10933SOL     OW34805   6.809   5.657   5.816  0.1638 -0.2993 -0.2636
10933SOL    HW134806   6.838   5.616   5.734  1.2210  0.0724 -0.0800
10933SOL    HW234807   6.888   5.666   5.868 -0.5258 -0.6748  0.8813
10934SOL     OW34808   9.089   5.404   6.153 -0.1532 -0.0661 -0.0535
10934SOL    HW134809   9.147   5.446   6.089  0.6443 -0.2342  0.5549
10934SOL    HW234810   9.007   5.452   6.145  0.4643  1.0234 -0.0129
10935SOL     OW34811   4.700   7.149   3.068 -0.6820 -0.1020 -0.0323
10935SOL    HW134812   4.727   7.218   3.129 -1.3528  0.0172  0.1379
10935SOL    HW234813   4.757   7.075   3.089 -1.0557 -0.1379  0.8957
10936SOL     OW34814  10.241   8.937   9.979  0.2549 -0.2418 -0.5034
10936SOL    HW134815  10.188   8.926  10.058  0.3894  0.5179 -0.3015
10936SOL    HW234816  10.325   8.897  10.001  0.5182  0.5486 -0.0095
10937SOL     OW34817   0.933   1.980   3.066  0.7142 -0.4475 -0.0882
10937SOL    HW134818   0.982   1.987   2.984 -0.6237 -0.6014 -0.9222
10937SOL    HW234819   0.889   1.895   3.061 -2.2561  1.0139 -0.8901
10938SOL     OW34820   0.366   0.836   8.350 -0.0469  0.1660  0.6591
10938SOL    HW134821   0.345   0.818   8.442 -2.1956  1.0066  0.3932
10938SOL    HW234822   0.292   0.800   8.301  0.3368  1.0507 -0.6185
10939SOL     OW34823   9.220  10.890   4.454  0.5985 -0.1332 -0.3619
10939SOL    HW134824   9.312  10.914   4.469  0.6838  1.2595 -2.5988
10939SOL    HW234825   9.224  10.821   4.388  0.0433 -0.5473  0.0268
10940SOL     OW34826   2.346   8.611   2.038 -0.1589  0.4659 -0.1134
10940SOL    HW134827   2.289   8.579   1.968 -0.9178  1.3750  0.0653
10940SOL    HW234828   2.435   8.598   2.005 -0.4691 -0.4730 -0.6240
10941SOL     OW34829   5.755   4.745   5.049 -0.2802  0.4366  0.7160
10941SOL    HW134830   5.839   4.705   5.025  0.0497  1.6227 -0.1624
10941SOL    HW234831   5.692   4.673   5.043  0.6933 -0.5406  1.6652
10942SOL     OW34832   3.975   4.068   5.115  0.3394 -0.7810  0.0668
10942SOL    HW134833   4.044   4.067   5.181 -1.6209 -0.5101  2.2105
10942SOL    HW234834   3.905   4.015   5.152 -2.2061  2.1398 -0.1811
10943SOL     OW34835   3.561   0.123   4.555  0.2974 -0.7181 -0.8568
10943SOL    HW134836   3.553   0.212   4.522  0.9582  0.7611  2.5334
10943SOL    HW234837   3.654   0.103   4.551  0.6411  0.1256  1.3063
10944SOL     OW34838   7.143   3.088   6.319 -0.3982  0.4109  0.6381
10944SOL    HW134839   7.115   3.052   6.235  0.2980  0.6616  0.2895
10944SOL    HW234840   7.146   3.183   6.304  0.0643  0.4283  0.8447
10945SOL     OW34841   5.144   6.032   1.830 -0.1002  0.5756  0.8421
10945SOL    HW134842   5.173   5.956   1.779 -0.0167  1.7878 -0.9843
10945SOL    HW234843   5.055   6.048   1.801  0.2172  1.7692  0.4879
10946SOL     OW34844   9.318   5.249   0.567 -0.2482  0.7052  0.1805
10946SOL    HW134845   9.243   5.285   0.520 -0.1691 -0.3414 -0.8070
10946SOL    HW234846   9.281   5.180   0.623 -0.1537  0.8985  0.4799
10947SOL     OW34847   6.111  10.307   4.981 -0.5295  0.3203  0.3250
10947SOL    HW134848   6.106  10.349   4.895 -0.5000  0.9928  0.6508
10947SOL    HW234849   6.034  10.250   4.984  0.2348 -0.8325 -0.7247
10948SOL     OW34850   0.679   6.420  11.023  0.1505 -0.6167  0.2569
10948SOL    HW134851   0.612   6.475  11.063  0.3950  0.3628 -0.6391
10948SOL    HW234852   0.631   6.369  10.957  0.4477  1.0950 -1.3742
10949SOL     OW34853   2.492   4.283   1.244 -0.0204  0.1674 -0.0892
10949SOL    HW134854   2.570   4.228   1.242  0.1997  0.4987 -1.4358
10949SOL    HW234855   2.482   4.308   1.336  1.1857 -0.2554  0.1693
10950SOL     OW34856  10.887   3.604   4.680 -0.0951 -0.5989 -0.2883
10950SOL    HW134857  10.792   3.591   4.689 -0.2446 -0.1941 -1.1415
10950SOL    HW234858  10.896   3.661   4.604  0.8412 -0.6172 -0.2041
10951SOL     OW34859   7.205   1.407   0.698 -0.2759 -0.6661 -0.0111
10951SOL    HW134860   7.257   1.487   0.699 -0.7262 -0.2894 -2.0109
10951SOL    HW234861   7.122   1.431   0.738 -0.8385  0.2565 -1.6125
10952SOL     OW34862   0.410   2.954   5.892  0.6029  0.2775  0.7807
10952SOL    HW134863   0.504   2.965   5.903  0.5519  0.5929  0.9089
10952SOL    HW234864   0.397   2.859   5.890  1.2854  0.1506 -2.3139
10953SOL     OW34865   8.625   0.428   4.016  0.2188 -0.8673 -0.0306
10953SOL    HW134866   8.562   0.410   3.946  1.6379 -2.1821 -1.0586
10953SOL    HW234867   8.611   0.358   4.079  0.1762 -0.7415  0.1002
10954SOL     OW34868  10.533  10.555  10.959  0.3430 -0.3673  0.0044
10954SOL    HW134869  10.619  10.564  10.999 -0.0340  1.3360  0.4747
10954SOL    HW234870  10.551  10.556  10.865  1.1587 -3.7354 -0.0320
10955SOL     OW34871   0.175   0.756   1.730  0.0342  0.2584 -0.4477
10955SOL    HW134872   0.222   0.744   1.813  0.5192  0.1949 -0.7295
10955SOL    HW234873   0.087   0.783   1.756  0.0292 -0.2850  0.1003
10956SOL     OW34874   6.109   8.266   0.039 -0.1144 -0.8428  0.0217
10956SOL    HW134875   6.112   8.340   0.100  1.0223  0.4319 -1.4770
10956SOL    HW234876   6.040   8.210   0.073 -0.1785  0.2813  1.9195
10957SOL     OW34877  10.913   3.957   6.040  0.3049  0.4757  0.2730
10957SOL    HW134878  10.996   3.910   6.048 -0.3064 -1.0388 -1.6034
10957SOL    HW234879  10.938   4.043   6.005  1.0115 -0.7380 -2.4980
10958SOL     OW34880   8.911   2.141   6.857 -0.4857  0.4153  0.2435
10958SOL    HW134881   8.931   2.209   6.920  1.8678  1.7746 -1.8112
10958SOL    HW234882   8.912   2.060   6.909  0.4076  1.5342  2.0853
10959SOL     OW34883   1.453   0.790   9.874 -0.1338 -0.7436 -0.1142
10959SOL    HW134884   1.441   0.855   9.806  1.4491  0.3380  0.5737
10959SOL    HW234885   1.365   0.760   9.896 -0.7263 -0.4673 -1.9738
10960SOL     OW34886   4.455   4.624   7.747 -0.1647  0.1204  0.0141
10960SOL    HW134887   4.503   4.601   7.667  0.9039  1.9461  0.0834
10960SOL    HW234888   4.507   4.588   7.818  0.3851  0.9006  0.0152
10961SOL     OW34889   0.965   5.595   7.272 -0.3826  0.3417  0.1715
10961SOL    HW134890   1.039   5.590   7.212  2.0078  0.3660  2.8675
10961SOL    HW234891   0.888   5.589   7.217  1.6056  0.6945 -2.8671
10962SOL     OW34892   8.826   2.200   6.412 -0.1415 -0.0750 -0.0971
10962SOL    HW134893   8.797   2.144   6.339 -0.6084 -0.1722  0.1606
10962SOL    HW234894   8.800   2.288   6.386 -2.3683 -0.3727  0.9477
10963SOL     OW34895   2.646   9.852   1.802  0.2207  0.3067  0.2946
10963SOL    HW134896   2.726   9.905   1.805  0.9909 -0.7673 -0.4838
10963SOL    HW234897   2.596   9.888   1.729  1.0103 -0.3748 -0.6053
10964SOL     OW34898   9.693   8.028  10.983 -0.3044  0.2241  0.0893
10964SOL    HW134899   9.625   8.018  11.050  1.3462  1.4010  2.0609
10964SOL    HW234900   9.662   8.102  10.930  0.3172  2.2163  2.2920
10965SOL     OW34901   8.466   9.443   1.331  0.2363 -0.0332  0.9778
10965SOL    HW134902   8.494   9.412   1.245  2.1322  2.0652  0.7245
10965SOL    HW234903   8.427   9.528   1.314 -1.4027 -0.5471  2.0044
10966SOL     OW34904   3.860   0.841   8.791  0.7897  0.1608  0.5456
10966SOL    HW134905   3.914   0.796   8.857  0.2358 -3.3181 -1.1263
10966SOL    HW234906   3.917   0.849   8.715  0.3697  0.8268  0.2962
10967SOL     OW34907   0.341  10.732   5.408  0.2704 -0.0459  0.1385
10967SOL    HW134908   0.384  10.647   5.424 -1.6287 -1.3832 -1.4113
10967SOL    HW234909   0.361  10.752   5.317 -0.4959  0.4355  0.0704
10968SOL     OW34910   4.838   2.500   0.941 -0.2376  0.5789 -0.2294
10968SOL    HW134911   4.819   2.554   0.864  0.3309  1.5552  0.2896
10968SOL    HW234912   4.797   2.416   0.923 -1.4318  1.2965 -0.9204
10969SOL     OW34913   6.288   2.096   6.683 -0.2578 -0.2020 -0.0749
10969SOL    HW134914   6.288   2.143   6.766 -0.1952 -0.7905  0.2634
10969SOL    HW234915   6.380   2.074   6.668 -0.3190 -0.4272 -0.1142
10970SOL     OW34916   8.848   0.341   3.758 -0.6829  0.2688  0.6961
10970SOL    HW134917   8.868   0.396   3.682  0.2269 -0.2270  0.5589
10970SOL    HW234918   8.752   0.339   3.762 -0.7351  0.7363 -0.1203
10971SOL     OW34919   9.799   4.427   3.733  0.7129 -0.2166 -0.2401
10971SOL    HW134920   9.730   4.365   3.756  0.4863  0.1501  0.0819
10971SOL    HW234921   9.877   4.394   3.777  0.3514  0.3164  0.8428
10972SOL     OW34922   0.145   3.000   8.002 -0.3536  0.8012 -0.1823
10972SOL    HW134923   0.114   3.051   7.928 -0.4008  0.9698 -0.0466
10972SOL    HW234924   0.240   3.006   7.998 -0.3619  0.9758 -0.1133
10973SOL     OW34925   6.285   4.809   0.112 -0.0156  0.2614 -0.4177
10973SOL    HW134926   6.294   4.840   0.202  1.9271  0.1950 -0.5641
10973SOL    HW234927   6.294   4.887   0.058  0.3433  0.0785 -0.6206
10974SOL     OW34928   8.959  10.997   6.069  0.4191 -0.4453 -0.7779
10974SOL    HW134929   8.888  11.019   6.009  1.7002  0.6428 -1.9726
10974SOL    HW234930   9.011  11.077   6.076  1.2803 -1.0660  0.4269
10975SOL     OW34931   7.576   0.939   5.502  0.3347 -0.9345 -0.5705
10975SOL    HW134932   7.517   1.014   5.489  0.6868 -0.8843 -2.0981
10975SOL    HW234933   7.533   0.886   5.569  0.1196  0.6550  0.6263
10976SOL     OW34934   3.573   2.175   3.025 -0.1997  0.1816 -0.1083
10976SOL    HW134935   3.529   2.255   3.053  1.1415  0.5215  1.1579
10976SOL    HW234936   3.540   2.108   3.085  0.8966  0.4241  0.8011
10977SOL     OW34937   2.804   5.466   5.751 -0.5781 -0.3056  0.0092
10977SOL    HW134938   2.821   5.386   5.701 -0.9584  0.4271 -1.3355
10977SOL    HW234939   2.712   5.486   5.734 -0.8544 -0.2778  1.4014
10978SOL     OW34940   5.872   8.477   7.006  0.2791  0.7021  0.2927
10978SOL    HW134941   5.945   8.472   6.943 -0.8540  0.1138 -1.0188
10978SOL    HW234942   5.805   8.419   6.969 -0.4286  0.3551  2.0627
10979SOL     OW34943  10.721   0.662   5.418 -0.4001 -0.1313  0.1046
10979SOL    HW134944  10.807   0.667   5.461  0.2420 -0.1554 -1.1450
10979SOL    HW234945  10.666   0.615   5.481  0.3273  0.3948  1.1739
10980SOL     OW34946   9.950  10.279   7.182  0.2762  0.1095  0.1001
10980SOL    HW134947   9.972  10.202   7.234  0.4647 -0.1593 -0.3714
10980SOL    HW234948   9.855  10.287   7.189  0.4515  1.1187  1.9351
10981SOL     OW34949   4.746   1.739  10.304  0.9867 -0.0746 -0.2406
10981SOL    HW134950   4.689   1.793  10.358 -0.6702 -1.9008 -0.0716
10981SOL    HW234951   4.825   1.793  10.292 -0.3054  2.0904  0.4030
10982SOL     OW34952   4.905   4.991   0.540 -0.0457  0.2232  0.1748
10982SOL    HW134953   4.866   5.069   0.500 -1.3795 -0.7108 -0.4112
10982SOL    HW234954   4.920   4.932   0.467 -0.9862 -0.8753  0.8436
10983SOL     OW34955  10.230   3.874   8.800 -0.1172  0.3699 -0.8042
10983SOL    HW134956  10.316   3.837   8.822 -0.3575  0.2762 -0.0053
10983SOL    HW234957  10.228   3.873   8.704  1.0392  0.9868 -0.8477
10984SOL     OW34958   2.890   9.128   6.502 -0.1290  0.1839 -0.1339
10984SOL    HW134959   2.982   9.153   6.504 -0.0197 -0.1662 -0.6064
10984SOL    HW234960   2.890   9.034   6.484 -0.5664  0.0642  0.4438
10985SOL     OW34961   2.032   5.555  10.648 -0.3382 -0.6755 -0.1098
10985SOL    HW134962   2.073   5.586  10.729 -1.4434  1.5305 -0.3303
10985SOL    HW234963   1.946   5.523  10.675 -0.1153 -1.3628 -0.2096
10986SOL     OW34964   6.404  10.609   0.379 -0.2323 -0.0440  0.3105
10986SOL    HW134965   6.394  10.653   0.464  1.6953 -0.2419  0.6841
10986SOL    HW234966   6.437  10.522   0.401 -0.0846 -0.2271 -0.6161
10987SOL     OW34967   0.365   3.672   7.949  0.2093  0.0230 -0.5266
10987SOL    HW134968   0.393   3.593   7.995  0.3265  0.7824  0.7530
10987SOL    HW234969   0.399   3.661   7.860  0.9943 -0.9508 -0.1301
10988SOL     OW34970  10.771  10.737   4.458  0.0934 -0.1947  0.1121
10988SOL    HW134971  10.739  10.668   4.516  0.3225 -0.8158 -0.4808
10988SOL    HW234972  10.852  10.768   4.500  2.0055 -2.7892 -1.3468
10989SOL     OW34973  10.889  11.037   3.265 -0.0645  0.0892  0.1018
10989SOL    HW134974  10.873  11.119   3.311 -0.9191 -0.5978  1.0921
10989SOL    HW234975  10.942  11.061   3.189  0.2947  1.4457  0.7578
10990SOL     OW34976   6.303   6.408   2.859  0.6114 -0.0622  0.3227
10990SOL    HW134977   6.383   6.400   2.910  1.1331 -1.2932 -0.6608
10990SOL    HW234978   6.270   6.496   2.880  1.8251  0.1843  1.2788
10991SOL     OW34979   9.912   4.093   8.655 -0.4617 -0.6839 -0.5560
10991SOL    HW134980   9.858   4.132   8.724 -0.6772  1.2332 -1.7244
10991SOL    HW234981   9.873   4.125   8.574  2.5921  1.2019 -1.4716
10992SOL     OW34982   6.970   8.036   4.710 -0.0952  0.0855 -0.1363
10992SOL    HW134983   7.046   7.981   4.692  1.4354  1.6179  1.2291
10992SOL    HW234984   6.894   7.979   4.698  1.2969 -1.6332 -1.0474
10993SOL     OW34985   3.243   6.353   1.872  0.7144 -0.3686 -0.1767
10993SOL    HW134986   3.225   6.260   1.866  0.0485 -0.1697 -1.7165
10993SOL    HW234987   3.273   6.366   1.962 -0.0875 -1.8996  0.3440
10994SOL     OW34988   8.645   7.160   6.210  0.1030  0.0844  0.2601
10994SOL    HW134989   8.570   7.100   6.214  0.4860 -0.4403 -0.1226
10994SOL    HW234990   8.720   7.102   6.194  0.8804  0.3850  2.4454
10995SOL     OW34991   3.606   5.678   1.935 -0.0223 -0.3774 -0.7103
10995SOL    HW134992   3.567   5.593   1.957  0.2463 -0.5361 -0.8325
10995SOL    HW234993   3.593   5.687   1.841 -1.3894  0.4160 -0.4606
10996SOL     OW34994   1.311   3.684   1.160  0.1141 -0.2791  0.5413
10996SOL    HW134995   1.362   3.661   1.237  0.0386  0.8913  0.9582
10996SOL    HW234996   1.262   3.762   1.186  0.4833  0.4469 -0.8513
10997SOL     OW34997   0.715   4.752   7.174  0.3044 -0.0182 -0.4025
10997SOL    HW134998   0.629   4.732   7.137  0.4715 -1.2164 -0.1852
10997SOL    HW234999   0.744   4.669   7.212  2.1489 -0.0035 -1.6568
10998SOL     OW35000   1.632   4.312   5.273 -0.8295 -0.3257 -0.2579
10998SOL    HW135001   1.591   4.238   5.228 -0.5670  0.1514 -1.3113
10998SOL    HW235002   1.628   4.384   5.210 -2.4699  1.0287  1.3079
10999SOL     OW35003   9.161   5.856   6.202  0.0355 -0.3302  0.3313
10999SOL    HW135004   9.167   5.838   6.108 -0.6336  1.8691 -0.1948
10999SOL    HW235005   9.245   5.827   6.237  0.3293 -1.1028 -0.9498
11000SOL     OW35006   4.353   9.881   0.876  0.2214 -0.0508  0.3539
11000SOL    HW135007   4.353   9.932   0.794 -1.8405 -0.2781  0.1699
11000SOL    HW235008   4.292   9.928   0.933 -1.0176 -1.7744  0.5093
11001SOL     OW35009   8.030   2.385   2.744 -0.0717  0.4243 -0.4885
11001SOL    HW135010   8.086   2.361   2.670  0.6538  0.8587 -0.0970
11001SOL    HW235011   7.996   2.472   2.721  1.2326  1.1618  0.2671
11002SOL     OW35012   0.809   4.692   8.562  0.1896 -0.0411  0.5826
11002SOL    HW135013   0.790   4.605   8.527  0.9268  0.3250 -0.8216
11002SOL    HW235014   0.735   4.713   8.618  0.0084 -1.5749  0.9482
11003SOL     OW35015   4.873   9.374   2.432 -0.0818  0.0120  0.2496
11003SOL    HW135016   4.874   9.279   2.434 -2.1241 -0.0391  0.4619
11003SOL    HW235017   4.784   9.397   2.404 -0.1039  1.8605  1.6703
11004SOL     OW35018   3.741   4.032   0.247 -0.3004  0.6981  0.0099
11004SOL    HW135019   3.834   4.011   0.238 -0.4592 -0.7814  1.3205
11004SOL    HW235020   3.697   3.947   0.239 -1.4226  1.1849  0.8102
11005SOL     OW35021   4.930  10.304   0.616 -0.1249  0.1791 -0.2204
11005SOL    HW135022   4.910  10.222   0.661 -1.9563 -0.0190 -1.3062
11005SOL    HW235023   4.990  10.279   0.546 -0.0848 -0.1033 -0.0867
11006SOL     OW35024   4.080   9.050   1.268 -0.3489  0.0222 -0.2542
11006SOL    HW135025   3.996   9.068   1.226  0.1837  0.1991 -1.2766
11006SOL    HW235026   4.092   9.121   1.330 -1.3287 -0.4445  0.5026
11007SOL     OW35027   8.655   9.421   7.752 -0.2059 -0.4724 -0.2728
11007SOL    HW135028   8.687   9.413   7.842 -1.2258  0.5926  0.2192
11007SOL    HW235029   8.714   9.483   7.710 -0.4301 -0.0338  0.0446
11008SOL     OW35030   5.923   3.984   1.202  0.0445 -0.2881  0.7981
11008SOL    HW135031   5.900   4.072   1.172  0.2908 -1.0897 -2.0250
11008SOL    HW235032   6.019   3.985   1.209  0.2098 -0.7921 -1.0218
11009SOL     OW35033   7.543  10.852   9.053 -0.2337 -0.3498  0.2781
11009SOL    HW135034   7.505  10.821   9.135  0.9769 -1.1486  0.5706
11009SOL    HW235035   7.516  10.944   9.047 -0.2443 -0.2473  1.6302
11010SOL     OW35036   6.530   0.991  10.255 -0.3636 -0.0602 -0.4175
11010SOL    HW135037   6.622   1.010  10.235 -1.0109 -0.5334 -4.6868
11010SOL    HW235038   6.528   0.897  10.272  0.1737  0.3228  2.2358
11011SOL     OW35039   4.491   3.150   1.762  0.0679 -0.2340  0.1200
11011SOL    HW135040   4.400   3.161   1.789  0.6404  0.9628  1.7608
11011SOL    HW235041   4.514   3.061   1.790  0.0486  0.2780  1.8762
11012SOL     OW35042   1.323  10.762   0.157  0.4676 -0.3900 -0.4112
11012SOL    HW135043   1.365  10.804   0.232  0.9392  1.1677 -1.4913
11012SOL    HW235044   1.235  10.741   0.187  0.7447 -0.0630  0.6712
11013SOL     OW35045   4.825   4.093   1.106 -0.2734 -0.3410 -0.0202
11013SOL    HW135046   4.833   4.173   1.157 -2.5290 -0.4705  0.6062
11013SOL    HW235047   4.788   4.029   1.167  1.6784 -1.9940 -0.4350
11014SOL     OW35048   8.481   1.730   7.795  0.0429 -0.1601 -0.0407
11014SOL    HW135049   8.569   1.701   7.771  0.9407  0.6225  2.0229
11014SOL    HW235050   8.459   1.680   7.873 -1.3658 -0.3254 -0.5094
11015SOL     OW35051   6.409   0.139   7.593  0.1003 -0.2960 -0.0046
11015SOL    HW135052   6.433   0.176   7.679  0.8340 -0.2640 -0.2188
11015SOL    HW235053   6.363   0.210   7.549  2.6822  0.9016 -0.9457
11016SOL     OW35054   2.193   3.485   5.391 -0.1291 -0.0233  0.2055
11016SOL    HW135055   2.167   3.546   5.322  1.1095  0.4730  0.1476
11016SOL    HW235056   2.209   3.402   5.345 -1.6765 -0.3946  0.2656
11017SOL     OW35057   9.437   6.775   0.911 -0.2345 -0.5501 -0.1927
11017SOL    HW135058   9.498   6.800   0.842 -1.0559  0.7374 -0.5035
11017SOL    HW235059   9.361   6.832   0.897 -1.0040 -1.2595  0.9108
11018SOL     OW35060   7.733   9.273   7.104 -0.2467  0.2215  0.0949
11018SOL    HW135061   7.753   9.225   7.024 -1.2759 -0.5612  0.2947
11018SOL    HW235062   7.805   9.252   7.163 -1.7460 -2.9864  0.9920
11019SOL     OW35063   9.501   7.848   1.512  0.2028  0.0327 -0.0617
11019SOL    HW135064   9.447   7.908   1.562  0.9894  1.3612 -0.7487
11019SOL    HW235065   9.471   7.761   1.538 -0.5394  0.7020  1.4254
11020SOL     OW35066   2.024   6.060   9.765  0.3250  0.3581 -0.0945
11020SOL    HW135067   2.078   6.122   9.717 -0.1659 -0.7506 -2.1884
11020SOL    HW235068   2.070   5.977   9.757 -0.3635 -0.0819  0.3716
11021SOL     OW35069   5.220   9.391   6.405 -0.1938  0.5671 -0.0586
11021SOL    HW135070   5.157   9.329   6.443 -1.5473  1.3177 -0.9856
11021SOL    HW235071   5.297   9.337   6.385 -0.2432 -0.2423  1.7289
11022SOL     OW35072   3.042   1.601   4.450  0.2256 -0.1928 -0.6091
11022SOL    HW135073   3.034   1.595   4.545 -0.3355  1.2374 -0.5384
11022SOL    HW235074   2.955   1.627   4.420  0.3902 -0.6561 -1.5240
11023SOL     OW35075   3.479   0.422   4.754 -0.6635 -0.4796 -0.3113
11023SOL    HW135076   3.449   0.331   4.760  0.7190 -1.0118 -0.8452
11023SOL    HW235077   3.520   0.428   4.667 -0.7922  0.6739 -0.3070
11024SOL     OW35078   9.221   9.223   1.962 -0.4609 -0.2755 -0.7065
11024SOL    HW135079   9.299   9.274   1.943  0.3546 -0.9794  0.6800
11024SOL    HW235080   9.175   9.273   2.029 -0.4883 -0.5637 -0.5110
11025SOL     OW35081   3.667   8.151   1.300  0.2166 -0.1875  0.0997
11025SOL    HW135082   3.639   8.241   1.311 -0.6096 -0.6009  1.6510
11025SOL    HW235083   3.594   8.107   1.257  0.2683 -0.3155  0.1398
11026SOL     OW35084   7.241   5.470   5.892  0.2993  0.2517  0.2282
11026SOL    HW135085   7.272   5.490   5.980 -0.0085 -0.0278  0.3998
11026SOL    HW235086   7.314   5.495   5.835  0.9768 -0.7196  0.6487
11027SOL     OW35087   4.610   3.486   8.219  0.1097 -0.4387  0.1655
11027SOL    HW135088   4.654   3.403   8.202 -2.0768 -1.5064 -0.5867
11027SOL    HW235089   4.568   3.474   8.304  1.5441  0.7335  1.0867
11028SOL     OW35090   8.209   9.176   9.484  0.0139 -0.2254  0.5609
11028SOL    HW135091   8.231   9.096   9.533 -0.5978  0.4709  2.0474
11028SOL    HW235092   8.122   9.159   9.448 -0.0799 -0.2630  0.8044
11029SOL     OW35093   8.825   9.588   7.618  0.6688 -0.4405 -0.1168
11029SOL    HW135094   8.798   9.674   7.648  0.0601 -0.2361 -1.1993
11029SOL    HW235095   8.911   9.603   7.578  0.9076 -0.4893  0.3626
11030SOL     OW35096   2.346  10.484   1.541  0.0147 -0.2413 -0.1791
11030SOL    HW135097   2.411  10.427   1.581  0.2761 -1.8573 -2.6686
11030SOL    HW235098   2.297  10.427   1.482 -1.1499  1.7072 -1.2034
11031SOL     OW35099   7.913  10.899   1.566 -0.3253  0.1133 -0.0028
11031SOL    HW135100   7.904  10.896   1.471  1.1205 -0.7523 -0.1365
11031SOL    HW235101   7.915  10.993   1.587 -1.4160  0.3231 -0.7110
11032SOL     OW35102   5.865   9.579   1.498  0.6151 -0.0561 -0.1657
11032SOL    HW135103   5.933   9.520   1.531 -0.6517 -0.5951  1.5859
11032SOL    HW235104   5.875   9.575   1.403  1.5061 -1.9695 -0.0416
11033SOL     OW35105   3.882   8.012   2.858 -0.2243  0.0044 -0.1637
11033SOL    HW135106   3.885   8.018   2.763  1.2391  2.4732 -0.0694
11033SOL    HW235107   3.946   8.077   2.888 -0.1890 -1.1264  2.5118
11034SOL     OW35108   3.144   5.643   9.519 -0.1256  0.3531 -0.2305
11034SOL    HW135109   3.135   5.736   9.540  0.6290  0.6054 -0.9827
11034SOL    HW235110   3.221   5.615   9.569  0.4709  0.4698 -1.0785
11035SOL     OW35111   5.074   7.395   3.830  0.4239  0.1787  0.3731
11035SOL    HW135112   5.054   7.316   3.879  0.6236  0.4034  0.8246
11035SOL    HW235113   5.133   7.366   3.760  1.3130  0.0930  1.1459
11036SOL     OW35114   1.501   3.912   5.749  0.1095  0.9437  0.4959
11036SOL    HW135115   1.427   3.971   5.759 -1.5995 -1.3323  2.5675
11036SOL    HW235116   1.517   3.878   5.837 -1.3514 -4.1614 -0.8744
11037SOL     OW35117   5.894   8.388   2.312  0.0185 -0.0031 -0.0497
11037SOL    HW135118   5.925   8.472   2.346  2.0415 -1.4638  2.0180
11037SOL    HW235119   5.920   8.388   2.220  0.0752  1.5532 -0.0618
11038SOL     OW35120   8.351   7.894   8.193 -0.1004  0.3273  0.2183
11038SOL    HW135121   8.265   7.863   8.166 -0.0260 -0.1185  0.4909
11038SOL    HW235122   8.354   7.985   8.162 -1.4511  1.0090  1.9386
11039SOL     OW35123   0.606   0.043   2.312 -0.4885  0.7344  0.4915
11039SOL    HW135124   0.680  -0.011   2.285 -0.9026  0.0856  0.6356
11039SOL    HW235125   0.560   0.063   2.230 -1.1690 -0.3791  0.5888
11040SOL     OW35126   3.067   5.524  10.668  0.0429  0.0275  0.6203
11040SOL    HW135127   3.138   5.464  10.695 -0.3126 -0.0392  1.4276
11040SOL    HW235128   2.987   5.476  10.688 -0.2374  0.1501 -0.1946
11041SOL     OW35129   4.064   1.472   7.583 -0.0450  0.0441  0.0757
11041SOL    HW135130   4.149   1.455   7.624  1.3276  4.1004 -0.5552
11041SOL    HW235131   4.074   1.444   7.493 -1.0948 -3.6238  0.9491
11042SOL     OW35132   8.591  10.696   0.516  0.0519 -0.3881  0.3286
11042SOL    HW135133   8.622  10.634   0.582 -0.5916  0.3666  1.3772
11042SOL    HW235134   8.512  10.656   0.480 -0.0252 -0.4590  0.5731
11043SOL     OW35135   8.374   8.610   6.569  0.1027 -0.5333 -0.2070
11043SOL    HW135136   8.324   8.690   6.554 -1.3877 -1.1865  1.0405
11043SOL    HW235137   8.423   8.597   6.487 -0.7930  0.8136 -0.9908
11044SOL     OW35138   7.143   9.933   9.346 -0.1698  0.2652  0.2529
11044SOL    HW135139   7.224   9.884   9.363  0.1619  0.8112  0.2808
11044SOL    HW235140   7.144   9.947   9.251 -1.2225 -1.4109 -0.0357
11045SOL     OW35141   7.658   2.517   1.763  0.5152  0.6493 -0.4298
11045SOL    HW135142   7.724   2.580   1.735  1.3304  0.0759  0.1569
11045SOL    HW235143   7.611   2.493   1.683  2.0395 -0.0980 -1.1437
11046SOL     OW35144   4.117   1.026   9.456  0.6399  0.6266 -0.0732
11046SOL    HW135145   4.115   1.093   9.388  0.4403  0.6222 -0.0716
11046SOL    HW235146   4.138   1.074   9.536 -3.6442  1.4947  0.8129
11047SOL     OW35147   3.188   7.444   0.965 -0.4033 -0.2991 -0.1582
11047SOL    HW135148   3.111   7.472   0.914  0.0137 -1.3417 -1.4231
11047SOL    HW235149   3.241   7.523   0.973 -1.0506  0.1589 -0.2990
11048SOL     OW35150   2.358   2.902   5.982  0.9387  0.6029  0.0616
11048SOL    HW135151   2.431   2.927   5.924  0.3699  1.7693 -0.1816
11048SOL    HW235152   2.308   2.838   5.931  2.3380 -1.0529  0.6371
11049SOL     OW35153   7.305   7.894   4.469 -0.1772 -0.0090 -0.4351
11049SOL    HW135154   7.367   7.952   4.514  1.0144 -0.5006 -1.3671
11049SOL    HW235155   7.247   7.953   4.422 -0.8617  0.4838  0.9775
11050SOL     OW35156   5.034   6.871   6.292 -0.2236  0.2373  0.4506
11050SOL    HW135157   5.023   6.836   6.204  0.2964 -0.3731  0.6240
11050SOL    HW235158   5.105   6.935   6.284  0.3804 -0.4093  0.5839
11051SOL     OW35159   1.715  10.111   8.570  0.5382  0.2768 -0.1718
11051SOL    HW135160   1.766  10.077   8.497 -0.2027 -1.5959  0.1253
11051SOL    HW235161   1.769  10.096   8.647 -0.0690 -0.8847  0.0393
11052SOL     OW35162   5.988   2.119   0.242  0.0544 -0.3418  0.1099
11052SOL    HW135163   6.077   2.128   0.278 -0.4876  0.2718  1.3691
11052SOL    HW235164   5.963   2.208   0.219 -0.1493 -0.5455 -0.4563
11053SOL     OW35165   6.214   2.578   5.378  0.5104  0.4986 -0.3234
11053SOL    HW135166   6.173   2.530   5.451 -1.2213  0.7664 -1.0666
11053SOL    HW235167   6.266   2.512   5.332 -1.3215 -0.5922 -0.9558
11054SOL     OW35168   8.905   6.178   2.184 -0.3339  0.1280 -0.0019
11054SOL    HW135169   8.966   6.128   2.130  0.3510  1.0594 -0.1147
11054SOL    HW235170   8.952   6.190   2.267 -0.9645 -0.4163  0.4412
11055SOL     OW35171   0.305   2.306   0.669 -0.9599 -0.3003 -0.1107
11055SOL    HW135172   0.233   2.315   0.607 -0.7605 -2.0977 -0.6472
11055SOL    HW235173   0.327   2.213   0.668  2.5941  0.3870 -1.3526
11056SOL     OW35174   6.199   2.533  10.511 -0.4655 -0.5845 -0.2095
11056SOL    HW135175   6.159   2.475  10.576 -0.7735  0.0167  0.1531
11056SOL    HW235176   6.210   2.479  10.433 -0.3320 -1.2464  0.2654
11057SOL     OW35177   4.714   1.567   1.390  0.0286  0.1896 -0.5423
11057SOL    HW135178   4.786   1.600   1.336  1.1917 -0.0799  0.7832
11057SOL    HW235179   4.708   1.474   1.367  1.3797 -0.2280  0.6528
11058SOL     OW35180   1.089   4.999   2.051  0.0225 -0.0901  0.2337
11058SOL    HW135181   1.025   4.927   2.045  0.4708 -0.3867 -1.3972
11058SOL    HW235182   1.172   4.959   2.027  0.6468  0.5624  1.2236
11059SOL     OW35183   9.594   7.588   7.488  0.0782 -0.2604  0.2657
11059SOL    HW135184   9.675   7.588   7.539  0.1648  1.7350  0.2157
11059SOL    HW235185   9.608   7.655   7.422 -2.2848  1.5762  1.4589
11060SOL     OW35186   0.551   1.013   6.899 -0.6863  0.3267 -0.1712
11060SOL    HW135187   0.510   1.058   6.825 -0.8289 -1.8373 -1.4988
11060SOL    HW235188   0.617   1.075   6.931 -0.7314  1.4120 -2.0214
11061SOL     OW35189   0.045   6.642   4.114 -0.0782 -0.3585 -0.4277
11061SOL    HW135190  -0.041   6.622   4.151 -0.0761 -3.4785 -1.8218
11061SOL    HW235191   0.026   6.691   4.034 -0.6459 -1.5121 -1.0207
11062SOL     OW35192   7.896   0.127   7.505 -0.4562  0.0572  0.2215
11062SOL    HW135193   7.924   0.141   7.414  0.3949  0.0830  0.4768
11062SOL    HW235194   7.808   0.165   7.509 -0.4403  0.1997 -0.5490
11063SOL     OW35195   4.628   8.091   0.149  0.6173 -1.2348  0.1199
11063SOL    HW135196   4.574   8.033   0.095 -1.2023 -0.9108  1.5057
11063SOL    HW235197   4.670   8.150   0.087 -1.8867 -0.4729 -0.9271
11064SOL     OW35198  10.496  10.364   9.245 -0.4946 -0.4444 -0.3961
11064SOL    HW135199  10.405  10.390   9.237 -1.1732 -0.9314  3.5456
11064SOL    HW235200  10.543  10.445   9.264 -0.3312 -0.3646 -1.1415
11065SOL     OW35201   2.315   1.023   6.420  0.3363  0.0509 -0.5347
11065SOL    HW135202   2.376   1.073   6.365 -0.1919  0.5271 -0.6964
11065SOL    HW235203   2.280   0.956   6.362  1.2759 -0.7132 -0.2361
11066SOL     OW35204   0.957   7.990   1.116  0.2821  0.1798  0.4434
11066SOL    HW135205   0.939   8.078   1.148  1.4787  0.7276 -0.2948
11066SOL    HW235206   1.039   7.965   1.160  0.7616  0.0631 -0.4918
11067SOL     OW35207   9.308   7.675   1.951 -0.6579 -0.0140  0.1483
11067SOL    HW135208   9.317   7.767   1.974  0.2281  0.1432 -0.7783
11067SOL    HW235209   9.368   7.630   2.011 -0.0384  0.1667 -0.3221
11068SOL     OW35210   6.259   3.515   9.643  0.1465 -0.0827  0.6899
11068SOL    HW135211   6.251   3.423   9.668  1.4146 -0.4116 -0.0491
11068SOL    HW235212   6.179   3.534   9.593  1.1322 -1.6251 -1.6390
11069SOL     OW35213   5.487   1.605   5.784 -0.2467 -0.2398  0.6383
11069SOL    HW135214   5.478   1.591   5.690 -0.1599  2.5722  0.1372
11069SOL    HW235215   5.409   1.562   5.821 -0.2855 -1.3859 -0.6823
11070SOL     OW35216   2.397   1.845   3.920 -0.1201  0.0470  0.2669
11070SOL    HW135217   2.490   1.822   3.916 -0.1814 -0.0840 -0.6521
11070SOL    HW235218   2.386   1.885   4.006  0.6043 -0.7196  0.7318
11071SOL     OW35219   3.789   6.430   0.364 -0.5787 -0.7762  0.1395
11071SOL    HW135220   3.758   6.473   0.444 -1.6234  0.4650 -0.8764
11071SOL    HW235221   3.883   6.449   0.361 -0.4631 -1.1081  1.2109
11072SOL     OW35222   7.051   0.467   2.721  0.3824  0.0861 -0.7799
11072SOL    HW135223   7.046   0.561   2.703 -0.2750  0.1519 -0.2951
11072SOL    HW235224   7.113   0.460   2.793 -0.4130  0.2766 -0.0495
11073SOL     OW35225   4.077   2.690   7.750 -0.1448  0.5156  0.0025
11073SOL    HW135226   4.025   2.638   7.810  1.4413 -0.4544  0.5900
11073SOL    HW235227   4.029   2.687   7.667 -1.0464 -0.2656  0.5419
11074SOL     OW35228   8.865   8.134   5.963 -0.1212  0.6928 -0.0545
11074SOL    HW135229   8.895   8.078   6.034 -0.2794  1.0860  0.3272
11074SOL    HW235230   8.790   8.088   5.926 -0.7685  1.0379  0.7955
11075SOL     OW35231   1.751   3.621   9.780  0.2083 -0.3325 -0.2594
11075SOL    HW135232   1.750   3.700   9.833  0.3528 -0.6929  0.2901
11075SOL    HW235233   1.679   3.633   9.717 -1.1604 -0.6845  1.1793
11076SOL     OW35234   6.669   8.204   0.536  0.3497  0.0683 -0.2028
11076SOL    HW135235   6.582   8.167   0.555 -0.9704  2.0242 -2.0051
11076SOL    HW235236   6.729   8.131   0.549 -1.7836 -1.9224 -0.8087
11077SOL     OW35237   3.301   4.667  10.986 -0.3481  0.4551  0.0409
11077SOL    HW135238   3.226   4.690  11.042  0.1293 -0.0763  0.9296
11077SOL    HW235239   3.266   4.599  10.928 -0.7545  0.7454 -0.0624
11078SOL     OW35240   5.154   4.005   3.946  0.7711  0.4993  0.2469
11078SOL    HW135241   5.247   4.014   3.968  0.8796  3.1943 -0.9177
11078SOL    HW235242   5.139   4.069   3.877 -1.9897  0.1681  0.4092
11079SOL     OW35243   5.931   1.742   6.133  1.0937 -0.0890 -0.2204
11079SOL    HW135244   5.844   1.711   6.110  1.7243 -1.4383 -0.9154
11079SOL    HW235245   5.936   1.733   6.228 -0.2516  2.0687  0.1208
11080SOL     OW35246   5.018   0.234   8.992 -0.3887  0.0309  0.7179
11080SOL    HW135247   5.017   0.294   9.067 -0.4108 -0.0343  0.7708
11080SOL    HW235248   5.008   0.147   9.031  0.4630 -0.0754  0.7069
11081SOL     OW35249  10.445   2.121   4.571 -0.2562 -0.1712  0.5567
11081SOL    HW135250  10.519   2.167   4.532  1.6837 -0.4341  3.5927
11081SOL    HW235251  10.461   2.029   4.551  0.4449 -0.2551  1.4385
11082SOL     OW35252   1.988   1.791   3.633  0.1204  0.3162 -0.3841
11082SOL    HW135253   1.987   1.886   3.645 -1.5761  0.2098  0.6202
11082SOL    HW235254   2.064   1.761   3.684  0.6327  1.1122 -0.6654
11083SOL     OW35255   0.686   9.055   0.941  0.1519  0.3204  0.0135
11083SOL    HW135256   0.765   9.059   0.994  0.1164 -0.8123  0.1709
11083SOL    HW235257   0.647   9.143   0.950  0.7614  0.5185  0.8897
11084SOL     OW35258   3.334   5.078   6.674 -0.5087 -0.4718  0.0327
11084SOL    HW135259   3.385   5.008   6.714 -0.5928 -1.4229 -1.4376
11084SOL    HW235260   3.376   5.159   6.703  1.8700 -1.2174 -1.1271
11085SOL     OW35261   5.538   3.196   3.135  0.2346  0.1499 -0.1675
11085SOL    HW135262   5.480   3.259   3.177  0.6251  0.2095  0.2836
11085SOL    HW235263   5.619   3.245   3.119  0.1832  0.0577 -0.7634
11086SOL     OW35264   6.613  10.718   2.548 -0.5470 -0.0244  0.3450
11086SOL    HW135265   6.662  10.646   2.588 -0.3815 -0.0969  0.0154
11086SOL    HW235266   6.530  10.678   2.521 -0.5165 -0.0586  0.3006
11087SOL     OW35267   9.672   4.157   7.616 -0.4208 -0.2303  0.0450
11087SOL    HW135268   9.667   4.117   7.530 -0.3689  0.6529 -0.3834
11087SOL    HW235269   9.623   4.239   7.608 -0.4088 -0.1333  0.8467
11088SOL     OW35270   0.495  10.044   4.838 -0.3343 -0.9468 -0.1332
11088SOL    HW135271   0.514  10.018   4.748 -0.0516 -1.3015  0.0291
11088SOL    HW235272   0.437  10.120   4.828 -0.1167 -0.8343 -0.6162
11089SOL     OW35273   5.074  10.698   7.062 -0.0526  0.0380 -0.4379
11089SOL    HW135274   5.078  10.639   7.138  0.9030 -2.4982 -2.3250
11089SOL    HW235275   5.143  10.762   7.079  0.6436 -0.9173  0.4996
11090SOL     OW35276   7.534   1.419   2.516 -0.2791 -0.0136  0.4258
11090SOL    HW135277   7.616   1.450   2.480 -1.2958  0.3236 -1.7531
11090SOL    HW235278   7.467   1.467   2.469 -1.8190 -2.3452  0.0430
11091SOL     OW35279   3.792   6.995   1.464  0.2952  0.2439  0.0907
11091SOL    HW135280   3.823   7.047   1.539  0.3230 -1.2674  1.1853
11091SOL    HW235281   3.702   6.973   1.486  0.8290 -1.6643  0.5712
11092SOL     OW35282  10.683   6.585  10.521 -0.3825  0.7068 -0.5181
11092SOL    HW135283  10.613   6.533  10.562 -1.3401  2.4074  0.1095
11092SOL    HW235284  10.651   6.603  10.433 -0.2908  0.6888 -0.5552
11093SOL     OW35285   8.159   7.723   7.139  0.3119 -0.1626 -0.0359
11093SOL    HW135286   8.245   7.750   7.106  0.4739  1.5759  1.6214
11093SOL    HW235287   8.127   7.800   7.186 -1.6348 -1.1952  0.4140
11094SOL     OW35288   4.062   7.700   3.453 -0.2535 -0.1935  0.4416
11094SOL    HW135289   4.126   7.729   3.517  0.6529 -1.8665  0.3458
11094SOL    HW235290   4.090   7.612   3.428 -1.8712 -0.4838 -0.5573
11095SOL     OW35291   4.712   2.129  10.660  0.4723  0.1027  0.1362
11095SOL    HW135292   4.620   2.139  10.684 -0.3023 -2.2560 -1.4379
11095SOL    HW235293   4.759   2.192  10.715 -2.1376  1.9757  0.3750
11096SOL     OW35294   5.556   6.278   8.420 -0.0554 -0.1362  0.0756
11096SOL    HW135295   5.559   6.344   8.350  1.6451 -0.7542 -0.5027
11096SOL    HW235296   5.473   6.292   8.464 -0.1356  1.7969 -0.6134
11097SOL     OW35297   0.308   8.643   9.329 -0.4189  0.3587  0.5530
11097SOL    HW135298   0.227   8.648   9.278  0.5963 -0.1286 -1.2119
11097SOL    HW235299   0.322   8.733   9.361 -0.5457  0.9537 -0.9677
11098SOL     OW35300   6.207   7.036   6.945  0.4144  0.1002  0.1254
11098SOL    HW135301   6.244   7.101   7.004 -0.3421  0.4705  0.1966
11098SOL    HW235302   6.271   6.965   6.945  1.3164  0.8876 -0.0523
11099SOL     OW35303   0.246   8.429   7.105  0.0918 -0.7460 -0.1643
11099SOL    HW135304   0.310   8.424   7.034  1.2137  0.3211  0.7220
11099SOL    HW235305   0.222   8.522   7.109 -0.7924 -0.9780  0.1525
11100SOL     OW35306   2.338   0.404   2.366 -0.0759 -0.4975  0.6503
11100SOL    HW135307   2.402   0.384   2.435 -0.3331 -2.0673  0.4551
11100SOL    HW235308   2.278   0.467   2.407  1.4044  0.8174  0.9227
11101SOL     OW35309   7.763   0.162   2.490 -0.0061 -0.3713  0.1122
11101SOL    HW135310   7.815   0.190   2.415  0.8000  0.6184  1.0055
11101SOL    HW235311   7.683   0.215   2.485  0.0771 -0.2578 -0.0003
11102SOL     OW35312   8.989   9.748   3.021 -0.0451  0.0435  0.2564
11102SOL    HW135313   8.924   9.817   3.028  2.0636  1.9960  3.1245
11102SOL    HW235314   8.940   9.667   3.030 -2.2194  1.3437  0.7337
11103SOL     OW35315   1.403   9.229   9.123  0.1302  0.2664  0.3950
11103SOL    HW135316   1.451   9.286   9.064  3.0613 -0.2172  2.1191
11103SOL    HW235317   1.381   9.152   9.071  3.3538 -0.5225  0.0325
11104SOL     OW35318   0.282   9.254   5.533 -0.7526 -0.4132 -1.1444
11104SOL    HW135319   0.272   9.345   5.561 -0.5047 -0.6317 -0.3250
11104SOL    HW235320   0.201   9.234   5.488 -0.0309  0.8305 -3.1287
11105SOL     OW35321   1.112   6.368   2.442  0.1275  0.8049  0.1273
11105SOL    HW135322   1.065   6.354   2.524 -0.7235  0.9537 -0.3154
11105SOL    HW235323   1.117   6.282   2.402 -0.8792  0.9709 -0.3912
11106SOL     OW35324   3.282   2.661   8.229  0.0696  0.1220  0.6942
11106SOL    HW135325   3.278   2.713   8.148  3.9176 -0.3151  0.0167
11106SOL    HW235326   3.369   2.680   8.265 -0.3766 -1.9889  3.1749
11107SOL     OW35327   3.516   8.098   9.830  0.3404  0.2471  0.3270
11107SOL    HW135328   3.448   8.031   9.837  0.8596 -0.2513  0.6547
11107SOL    HW235329   3.481   8.161   9.766 -0.2043 -0.2684  0.1093
11108SOL     OW35330   6.836   4.275   2.496 -0.0065  0.0432 -0.0741
11108SOL    HW135331   6.741   4.272   2.490 -0.0172 -0.2694  0.2407
11108SOL    HW235332   6.866   4.230   2.416 -0.1245 -0.0703 -0.0555
11109SOL     OW35333   7.097   4.778   1.015  0.2995  0.5775 -0.0566
11109SOL    HW135334   7.133   4.711   0.958  1.0489  0.9585 -0.0402
11109SOL    HW235335   7.038   4.730   1.074 -1.1172  0.2875 -1.6274
11110SOL     OW35336  11.024   0.057   5.252 -0.3475  0.2943  0.2365
11110SOL    HW135337  10.966   0.122   5.292 -0.8204  0.3627 -0.5574
11110SOL    HW235338  10.966  -0.003   5.206  0.0965 -0.6604  0.9035
11111SOL     OW35339   7.172   9.455   3.988 -0.0831  0.3156  0.1759
11111SOL    HW135340   7.197   9.519   4.055  1.1848  0.7922 -0.7144
11111SOL    HW235341   7.175   9.505   3.906  0.6426 -0.8211 -0.5060
11112SOL     OW35342   0.317   2.051   8.297  0.2162  0.1599  0.0227
11112SOL    HW135343   0.233   2.075   8.336  0.1206  1.5158 -0.9477
11112SOL    HW235344   0.382   2.079   8.361  0.0108  1.2155 -0.2163
11113SOL     OW35345   1.993   9.931   2.578  0.2133  0.6871  0.1696
11113SOL    HW135346   2.001   9.844   2.617  0.1261  0.1800 -0.9159
11113SOL    HW235347   2.077   9.946   2.534 -0.4365  0.3432 -1.2364
11114SOL     OW35348   5.135   2.866   9.694 -0.6622  0.0672 -0.0143
11114SOL    HW135349   5.066   2.824   9.643 -1.3587  0.6252  0.4587
11114SOL    HW235350   5.161   2.800   9.758  1.8241 -1.5323 -2.4328
11115SOL     OW35351   0.259   2.663  10.543  0.0720 -0.2109 -0.2242
11115SOL    HW135352   0.294   2.749  10.568 -0.6565 -0.6118  2.5397
11115SOL    HW235353   0.330   2.602  10.563 -0.6165 -0.5717  1.2509
11116SOL     OW35354   6.175   0.476  10.579 -0.0390  0.1844 -0.0097
11116SOL    HW135355   6.266   0.467  10.608  0.3219  3.3011  0.1980
11116SOL    HW235356   6.125   0.419  10.638  1.7882 -2.3644 -0.7498
11117SOL     OW35357   3.837   7.675   5.960  0.3036 -0.7536  0.3812
11117SOL    HW135358   3.792   7.757   5.979 -0.7558 -1.6836  2.1627
11117SOL    HW235359   3.930   7.697   5.968  0.1229  0.6382 -0.9216
11118SOL     OW35360   7.986   6.334   7.609 -0.6005 -0.0322 -0.6538
11118SOL    HW135361   7.894   6.309   7.601 -0.5354  0.2351 -2.7201
11118SOL    HW235362   7.998   6.401   7.542  0.8649  0.6848  0.2811
11119SOL     OW35363   1.268   7.388   7.335 -0.2090 -0.7188  0.0440
11119SOL    HW135364   1.295   7.454   7.399 -0.4211  1.0645 -1.6099
11119SOL    HW235365   1.211   7.436   7.274  0.2991 -2.2285 -1.6980
11120SOL     OW35366   3.698   4.173   8.695 -0.1768  0.0491 -0.4677
11120SOL    HW135367   3.740   4.151   8.612 -0.2341  0.3516 -0.5787
11120SOL    HW235368   3.625   4.111   8.702  1.2132 -1.5919  0.4994
11121SOL     OW35369   4.785   8.766  10.601 -0.5269 -0.8383  0.1115
11121SOL    HW135370   4.759   8.798  10.514  3.0683 -0.8077 -1.1012
11121SOL    HW235371   4.766   8.672  10.597 -2.0198 -0.5655  0.0188
11122SOL     OW35372   4.311   3.510  10.609 -0.0851  0.1338 -0.3761
11122SOL    HW135373   4.363   3.430  10.603 -0.7213 -0.5638  2.0843
11122SOL    HW235374   4.357   3.573  10.553  2.1950 -1.0642  0.0050
11123SOL     OW35375   0.098  10.159   5.443 -0.1687 -0.0462 -0.1265
11123SOL    HW135376   0.177  10.153   5.390 -0.6974  0.1892 -0.9521
11123SOL    HW235377   0.092  10.251   5.468 -0.1471 -0.0771 -0.0039
11124SOL     OW35378   8.612   4.501  10.815  0.0985  0.4300 -0.1853
11124SOL    HW135379   8.661   4.581  10.795  2.8790 -0.6220  1.8506
11124SOL    HW235380   8.666   4.430  10.778 -1.0104 -0.6674  0.2265
11125SOL     OW35381   3.035   2.382   7.576 -0.1826 -0.4068 -0.4545
11125SOL    HW135382   3.069   2.299   7.610 -0.2073 -0.1812  0.1303
11125SOL    HW235383   2.953   2.358   7.532 -1.6626 -0.3521  2.0953
11126SOL     OW35384   5.878  10.699   7.704 -0.4462  0.1353 -0.2738
11126SOL    HW135385   5.902  10.724   7.793 -2.1160  0.2258  0.1934
11126SOL    HW235386   5.803  10.755   7.683 -2.3348 -2.2750 -0.3640
11127SOL     OW35387   7.133   9.645   2.049  0.0844 -0.6950  0.1646
11127SOL    HW135388   7.098   9.561   2.017 -0.8349 -0.8630  1.5273
11127SOL    HW235389   7.212   9.659   1.997  0.1824 -2.3344 -0.1888
11128SOL     OW35390   9.563   7.875   6.982  0.3076  0.3942  0.3359
11128SOL    HW135391   9.524   7.948   7.031 -0.2651  0.0426  0.4101
11128SOL    HW235392   9.651   7.905   6.961  1.1159 -0.0075  2.8682
11129SOL     OW35393   3.729   9.630   2.034  0.0437  0.1819  0.2349
11129SOL    HW135394   3.678   9.700   1.994  0.7611  0.6637  0.1443
11129SOL    HW235395   3.670   9.591   2.098 -0.0679  1.4817  0.9579
11130SOL     OW35396   9.117   0.118   1.853 -0.3456 -0.1619 -0.4314
11130SOL    HW135397   9.208   0.129   1.825  0.5051 -0.5225  1.9386
11130SOL    HW235398   9.097   0.027   1.833  0.7446 -0.8342  1.3711
11131SOL     OW35399   4.973  10.823  10.544  0.3317  0.0784 -0.0416
11131SOL    HW135400   4.911  10.816  10.616  0.5238 -0.3588  0.0840
11131SOL    HW235401   5.045  10.876  10.578  1.1305 -1.3794  0.5897
11132SOL     OW35402   5.497   2.857   3.432  0.3178 -0.2062  0.7146
11132SOL    HW135403   5.445   2.906   3.496  1.8343  2.3821  0.1257
11132SOL    HW235404   5.497   2.767   3.465 -1.5328  0.4131  2.6226
11133SOL     OW35405   5.257   0.072   8.246  0.1688 -0.0413 -0.0172
11133SOL    HW135406   5.206   0.071   8.165  0.9725  0.3179 -0.5396
11133SOL    HW235407   5.262  -0.020   8.272  0.0332 -0.1799 -0.4633
11134SOL     OW35408   0.244   6.195   2.015 -0.2645 -0.1216 -0.0081
11134SOL    HW135409   0.216   6.160   1.931  2.4606  0.8033 -1.4207
11134SOL    HW235410   0.316   6.139   2.042 -0.7882 -0.1159  1.5024
11135SOL     OW35411   0.761  10.031   5.459 -0.2987 -0.1574  0.0599
11135SOL    HW135412   0.844   9.985   5.464 -0.7500 -1.0609 -0.5056
11135SOL    HW235413   0.737  10.048   5.550  0.2003 -0.4300  0.2450
11136SOL     OW35414   7.611   7.059   9.573 -0.0470 -0.1547 -0.3763
11136SOL    HW135415   7.607   6.963   9.583  0.8947 -0.4555 -2.4280
11136SOL    HW235416   7.647   7.090   9.656  0.6502 -1.6862 -0.0724
11137SOL     OW35417   8.730   2.323  10.905  0.1612 -0.0201  0.0979
11137SOL    HW135418   8.800   2.306  10.968  0.3834 -2.8432 -0.7968
11137SOL    HW235419   8.661   2.364  10.957  1.7087  1.0753  1.3912
11138SOL     OW35420  10.495   9.090   6.323  0.5244 -0.5561 -0.0865
11138SOL    HW135421  10.443   9.151   6.272 -0.5191  0.2070  1.8132
11138SOL    HW235422  10.431   9.036   6.370  1.3297  0.6304  2.5839
11139SOL     OW35423   4.922   6.097   8.231  0.8972  0.0312  0.0232
11139SOL    HW135424   4.867   6.175   8.236 -1.0509 -1.3397  1.4927
11139SOL    HW235425   4.984   6.107   8.303  0.7789  0.3266  0.0837
11140SOL     OW35426   9.948  10.549   8.697  0.4265 -0.5468  0.1959
11140SOL    HW135427  10.037  10.580   8.712  0.5163 -1.1527  0.9183
11140SOL    HW235428   9.916  10.604   8.625  1.3856 -0.3462 -0.0921
11141SOL     OW35429   7.432   1.744   9.761 -0.2441 -0.3874 -0.5967
11141SOL    HW135430   7.470   1.776   9.679 -1.3398  1.0356 -0.5834
11141SOL    HW235431   7.337   1.751   9.748 -0.4354  0.2484  0.9320
11142SOL     OW35432   5.591   9.293   6.284 -0.9382  0.3317 -0.0655
11142SOL    HW135433   5.654   9.320   6.351 -0.8591 -1.2738  0.5439
11142SOL    HW235434   5.614   9.202   6.265 -4.1614 -0.9641  1.5078
11143SOL     OW35435   5.044   0.691   9.602 -0.3674  0.5338 -0.2464
11143SOL    HW135436   5.061   0.741   9.682 -0.0240 -0.7997  0.5579
11143SOL    HW235437   5.049   0.755   9.531  0.3157  1.5698  0.7105
11144SOL     OW35438   9.834   5.379   7.603 -0.1253 -0.4672  0.1715
11144SOL    HW135439   9.742   5.388   7.628 -0.0474  0.1221  0.2529
11144SOL    HW235440   9.883   5.401   7.683  0.0788 -3.4432  0.9748
11145SOL     OW35441   3.808   9.066   0.651  0.0228 -0.0206  0.4020
11145SOL    HW135442   3.869   8.996   0.675 -1.0003 -0.4268  1.9966
11145SOL    HW235443   3.825   9.082   0.558  3.0287  0.3991  0.9297
11146SOL     OW35444   3.780   6.975   9.791  0.3612 -0.0857  0.2282
11146SOL    HW135445   3.836   6.930   9.728  0.1387  0.3725 -0.3012
11146SOL    HW235446   3.780   6.918   9.868  0.1857 -0.9172 -0.3786
11147SOL     OW35447  10.726   5.743  10.577 -0.2019 -0.1782 -0.4718
11147SOL    HW135448  10.740   5.655  10.612  0.3782  0.2152  0.3395
11147SOL    HW235449  10.697   5.795  10.652  1.8361  0.8733 -0.3351
11148SOL     OW35450   8.359   6.740   3.385  0.5752  0.5124  0.2507
11148SOL    HW135451   8.430   6.774   3.330 -0.9972  0.6594 -1.8102
11148SOL    HW235452   8.283   6.735   3.326 -0.3856 -2.4975  1.5750
11149SOL     OW35453   6.435   3.493   1.281 -0.2826  0.3190 -0.1008
11149SOL    HW135454   6.513   3.492   1.336 -0.4884  0.2218  0.1888
11149SOL    HW235455   6.460   3.443   1.203 -0.3748 -0.5646  0.4313
11150SOL     OW35456   2.171  10.060   5.099  0.3213  0.9036  0.2402
11150SOL    HW135457   2.210   9.973   5.112 -0.1968  0.5612 -0.3970
11150SOL    HW235458   2.146  10.061   5.006  0.6743  1.8881  0.1440
11151SOL     OW35459   0.906   2.603   0.895  0.0760 -0.5805  0.7477
11151SOL    HW135460   0.819   2.575   0.921  0.2529 -2.6487 -0.6993
11151SOL    HW235461   0.905   2.604   0.799  1.8749 -1.5659  0.6624
11152SOL     OW35462   1.737   6.683   2.996 -0.0098  0.3481  0.1833
11152SOL    HW135463   1.685   6.678   2.915  0.4997 -1.6826 -0.0770
11152SOL    HW235464   1.826   6.701   2.966 -0.1156  1.3624  0.4492
11153SOL     OW35465   6.280   7.634   2.085 -0.3360  0.2305  0.3022
11153SOL    HW135466   6.265   7.709   2.027 -0.8978 -0.5024 -0.5147
11153SOL    HW235467   6.352   7.586   2.046  1.0127  1.0947  1.6092
11154SOL     OW35468   8.520   8.839   0.653  0.2506  0.4731  0.2622
11154SOL    HW135469   8.572   8.910   0.615  1.9042 -0.4959  0.5873
11154SOL    HW235470   8.459   8.882   0.712  1.9095  1.6010  1.2439
11155SOL     OW35471   3.001   7.427   3.398 -0.2733 -0.2949  0.1966
11155SOL    HW135472   2.949   7.350   3.376 -0.9865 -0.0726  1.0635
11155SOL    HW235473   3.045   7.450   3.316 -1.1150 -0.8010 -0.4138
11156SOL     OW35474   2.843   1.970   8.343  0.1649  0.0229  0.1372
11156SOL    HW135475   2.783   2.004   8.410  0.7180 -0.0068  0.6491
11156SOL    HW235476   2.929   2.005   8.367  0.3919 -0.0885 -0.4882
11157SOL     OW35477   6.837   0.169   0.395 -0.3677  0.1127 -0.1908
11157SOL    HW135478   6.901   0.239   0.403 -0.9983  0.4481  3.1767
11157SOL    HW235479   6.883   0.100   0.347  1.8780  1.0421  0.5009
11158SOL     OW35480   8.360   8.998   2.969 -0.2761  0.2707  0.2810
11158SOL    HW135481   8.441   8.946   2.974 -0.8973 -0.7052  0.5477
11158SOL    HW235482   8.318   8.984   3.054 -0.5951  1.0016  0.2495
11159SOL     OW35483   6.113   1.748   7.514  0.2706  0.0386  0.2458
11159SOL    HW135484   6.078   1.832   7.545  1.7130  0.7097  0.1179
11159SOL    HW235485   6.088   1.746   7.421 -2.8027 -1.3243  0.9714
11160SOL     OW35486   7.657   4.278   9.342  0.3299 -0.4196 -0.5452
11160SOL    HW135487   7.675   4.325   9.261 -0.5108  1.4972  0.3331
11160SOL    HW235488   7.636   4.346   9.406 -0.4009 -1.9608  0.9391
11161SOL     OW35489   9.379   5.767   6.338 -0.1912  0.2373  0.2873
11161SOL    HW135490   9.410   5.678   6.355 -2.4328 -0.6844 -0.0169
11161SOL    HW235491   9.412   5.819   6.410  1.0889 -0.8645  0.5209
11162SOL     OW35492   2.298   8.848  10.843  0.3435 -0.1489 -0.4103
11162SOL    HW135493   2.384   8.888  10.829  0.4584 -0.2925 -0.1307
11162SOL    HW235494   2.316   8.773  10.900  0.0629 -0.3048 -0.5256
11163SOL     OW35495   4.852   4.637   0.526  0.4112  0.0089 -0.3040
11163SOL    HW135496   4.797   4.682   0.590  0.7204  1.0069 -0.7248
11163SOL    HW235497   4.914   4.587   0.580  0.5867  0.7349  0.1927
11164SOL     OW35498   3.201   0.471   1.690  0.3124 -0.1115  0.5103
11164SOL    HW135499   3.282   0.420   1.694  0.7980  0.6061  0.1080
11164SOL    HW235500   3.229   0.558   1.662 -0.5218  0.3345  1.0114
11165SOL     OW35501   8.923   0.170   8.772  0.4379 -0.1707 -0.3686
11165SOL    HW135502   9.005   0.121   8.766  0.7660  0.2899  0.2518
11165SOL    HW235503   8.859   0.106   8.803  0.9913 -0.0824  1.0006
11166SOL     OW35504  10.357   9.195   0.814  0.1354  0.4283  0.8389
11166SOL    HW135505  10.262   9.211   0.817  0.0510  0.0982  0.1323
11166SOL    HW235506  10.395   9.273   0.855 -0.4930 -0.1180  2.5227
11167SOL     OW35507   0.930   4.514  10.821 -0.1372  0.0244  0.4144
11167SOL    HW135508   0.841   4.546  10.837 -0.3729  0.1650 -1.0367
11167SOL    HW235509   0.978   4.534  10.902 -1.2538  0.5436  0.9633
11168SOL     OW35510   6.206   5.169  10.000 -0.0514 -0.2354 -0.1401
11168SOL    HW135511   6.117   5.166   9.966 -0.0247 -1.0349 -0.1729
11168SOL    HW235512   6.257   5.118   9.938  0.1507 -0.9997  0.6344
11169SOL     OW35513   0.926   8.542   3.743  0.0870 -0.4521 -0.1171
11169SOL    HW135514   0.953   8.491   3.666  1.7759 -1.4206  1.0492
11169SOL    HW235515   1.008   8.581   3.775 -0.0202 -2.2910  2.7459
11170SOL     OW35516   5.721   9.323   8.778  0.3803 -0.0699 -0.2173
11170SOL    HW135517   5.741   9.402   8.829  1.8852 -1.0784  0.8402
11170SOL    HW235518   5.694   9.356   8.692  0.6276  1.5953  0.3093
11171SOL     OW35519   1.435   6.146   4.331  0.0487 -0.2225  0.7459
11171SOL    HW135520   1.490   6.067   4.329 -0.0535 -0.3321  1.7556
11171SOL    HW235521   1.346   6.113   4.345  0.1323  0.1017  2.2300
11172SOL     OW35522   2.654  10.143   8.992  0.3338 -0.2979 -0.3515
11172SOL    HW135523   2.589  10.110   9.054  1.0106 -4.9691 -1.7618
11172SOL    HW235524   2.736  10.145   9.041  0.6784 -3.0152 -0.7034
11173SOL     OW35525  10.874   3.907   1.202 -0.0870  0.2073 -0.0890
11173SOL    HW135526  10.851   3.999   1.213  0.9734  0.4021  0.6784
11173SOL    HW235527  10.890   3.896   1.109  0.9478  1.1002 -0.0310
11174SOL     OW35528   0.864   3.239   8.116 -0.8054  0.2287 -0.6484
11174SOL    HW135529   0.914   3.183   8.176 -1.7650  0.0087 -0.0282
11174SOL    HW235530   0.923   3.253   8.042  0.3030  0.2795  0.2170
11175SOL     OW35531   4.079   2.221   0.846 -0.2402 -0.3299  0.3301
11175SOL    HW135532   4.055   2.287   0.910 -0.8909 -0.4585  0.2266
11175SOL    HW235533   4.135   2.160   0.894  0.3213  0.2575  0.4391
11176SOL     OW35534   2.474   6.711   6.583 -0.6381 -0.6010 -0.3009
11176SOL    HW135535   2.483   6.730   6.676  0.5746 -0.5052 -0.4246
11176SOL    HW235536   2.561   6.681   6.556 -1.3134 -1.9251 -1.1104
11177SOL     OW35537   4.809   9.144   6.117  0.3407  0.1007  0.4133
11177SOL    HW135538   4.778   9.056   6.142  2.4323 -0.6043  0.7105
11177SOL    HW235539   4.904   9.135   6.112  0.9139  3.0731  3.3152
11178SOL     OW35540   7.827   6.121   9.574  0.4304 -0.2449  0.0484
11178SOL    HW135541   7.885   6.092   9.644  0.9435  0.8969  0.1312
11178SOL    HW235542   7.740   6.091   9.600  0.7269 -0.4636  0.8034
11179SOL     OW35543   6.829   0.075   4.561  0.0898  0.0611 -0.1187
11179SOL    HW135544   6.904   0.068   4.619 -0.3317  0.1869  0.4454
11179SOL    HW235545   6.805  -0.015   4.540 -1.8156 -0.1618  2.5825
11180SOL     OW35546   9.462   1.113   9.739 -0.0456 -0.1339 -0.3668
11180SOL    HW135547   9.430   1.188   9.788 -2.0421 -1.3092  0.2104
11180SOL    HW235548   9.539   1.147   9.692 -0.3929  2.0291  0.5025
11181SOL     OW35549   7.034   2.748   1.551 -0.5953  0.0559  0.6113
11181SOL    HW135550   7.003   2.782   1.635 -0.8728 -1.8060  1.3174
11181SOL    HW235551   7.120   2.711   1.570 -0.3552  0.2421 -0.0919
11182SOL     OW35552   4.370   9.366   5.667  0.5023  0.4595  0.2608
11182SOL    HW135553   4.353   9.425   5.740 -0.4729 -0.0812  0.5021
11182SOL    HW235554   4.422   9.295   5.705  0.6109  0.5392  0.2607
11183SOL     OW35555   3.838   3.821   5.951 -0.1139  0.2807  0.2071
11183SOL    HW135556   3.905   3.844   6.016 -1.0206  1.8225  0.6364
11183SOL    HW235557   3.888   3.808   5.870  0.8514  0.0270  0.8258
11184SOL     OW35558   6.172  10.292   5.653 -0.4271 -0.2239  0.2674
11184SOL    HW135559   6.147  10.369   5.603 -0.8416 -0.6902 -0.2665
11184SOL    HW235560   6.147  10.313   5.743 -1.0477  0.0581  0.0411
11185SOL     OW35561   7.515   7.861   4.194 -0.5468  0.4503 -0.5724
11185SOL    HW135562   7.482   7.809   4.268 -0.6897 -0.7097 -1.4267
11185SOL    HW235563   7.578   7.921   4.233  0.8465 -1.4557  0.2512
11186SOL     OW35564   0.611   4.355  10.026 -0.1646 -0.2775  0.1738
11186SOL    HW135565   0.664   4.406   9.964 -1.5098  1.7655  0.6331
11186SOL    HW235566   0.636   4.389  10.112  1.5584 -2.9733  0.8536
11187SOL     OW35567   5.177   0.526   7.493 -0.2370  0.1137 -0.4709
11187SOL    HW135568   5.121   0.557   7.422 -0.7111 -0.2333 -0.2580
11187SOL    HW235569   5.250   0.587   7.495  0.1323 -0.2605 -1.6939
11188SOL     OW35570   1.230   5.561   1.490 -0.1123 -0.3823  0.1744
11188SOL    HW135571   1.151   5.614   1.496  0.6983  0.7447  1.1735
11188SOL    HW235572   1.199   5.471   1.503 -1.0029  0.1991  2.4245
11189SOL     OW35573   4.500   0.878   4.914  0.2704  0.2692 -0.8730
11189SOL    HW135574   4.562   0.804   4.908 -0.0651  0.0917 -4.7319
11189SOL    HW235575   4.556   0.955   4.917  0.6111  0.0027  0.6548
11190SOL     OW35576   4.995   7.802   7.346  0.3358  0.1784  0.3754
11190SOL    HW135577   5.020   7.888   7.378  1.4478 -0.7439  2.1262
11190SOL    HW235578   5.078   7.758   7.328 -0.2216 -0.2220 -1.4662
11191SOL     OW35579   0.793   6.440  10.704  0.4099  0.4225 -0.3850
11191SOL    HW135580   0.766   6.409  10.617 -1.7733  0.1842  0.3190
11191SOL    HW235581   0.749   6.381  10.765  0.9202  1.3417  0.9181
11192SOL     OW35582   6.863   7.831  10.566 -0.2810 -0.2582  0.1645
11192SOL    HW135583   6.852   7.804  10.475  1.3990  0.7932 -0.3881
11192SOL    HW235584   6.804   7.906  10.575 -1.0988 -0.8871  0.2250
11193SOL     OW35585   9.100   9.283   2.653 -0.3051  0.0262  0.1391
11193SOL    HW135586   9.005   9.277   2.638 -0.8720  1.4012  2.6157
11193SOL    HW235587   9.120   9.209   2.710  0.0715 -0.1237 -0.1885
11194SOL     OW35588   3.062   6.684   5.415 -0.1108 -0.1331 -0.1202
11194SOL    HW135589   3.089   6.771   5.385  2.0998 -0.2235  1.3624
11194SOL    HW235590   3.116   6.624   5.363 -0.2696 -0.5219  0.1652
11195SOL     OW35591   9.236   6.084   1.247 -0.0838  0.2170 -0.5016
11195SOL    HW135592   9.188   6.167   1.240 -1.0130 -0.4224 -1.9219
11195SOL    HW235593   9.285   6.077   1.165  2.0830  0.5903  0.6838
11196SOL     OW35594   1.855   6.365   4.072 -0.4217 -0.4181  0.0703
11196SOL    HW135595   1.763   6.371   4.096 -0.2377 -0.2452  0.7726
11196SOL    HW235596   1.902   6.380   4.154  0.2254 -0.9050 -0.2020
11197SOL     OW35597  10.251   8.424   0.496 -0.4380 -0.5542  0.3366
11197SOL    HW135598  10.199   8.458   0.569 -2.1830 -1.0088 -0.6353
11197SOL    HW235599  10.327   8.483   0.491 -0.7800  0.0687  1.8745
11198SOL     OW35600   9.872   8.886  10.175 -0.2069  0.2351 -0.6372
11198SOL    HW135601   9.966   8.890  10.189 -0.3979  0.3418  0.7602
11198SOL    HW235602   9.856   8.938  10.096  0.8080  0.8508 -0.4391
11199SOL     OW35603   4.875   8.061  10.642 -0.7286 -0.1302  0.1516
11199SOL    HW135604   4.910   8.082  10.555 -0.3134  0.3176  0.4159
11199SOL    HW235605   4.953   8.057  10.698 -1.0252 -0.0052  0.5789
11200SOL     OW35606   3.474   4.675   2.009  0.0185  0.1718 -0.3269
11200SOL    HW135607   3.446   4.752   1.960 -1.5038  1.3211  2.1382
11200SOL    HW235608   3.403   4.612   1.998  0.8399 -0.5882 -1.5778
11201SOL     OW35609   9.481   8.078   5.804 -0.6444  0.3369 -0.2390
11201SOL    HW135610   9.388   8.082   5.827 -0.5368  0.5540  0.1719
11201SOL    HW235611   9.507   8.168   5.790 -0.8049  0.1748 -1.6691
11202SOL     OW35612   7.893   5.577   1.869 -0.2546 -0.5219  0.0343
11202SOL    HW135613   7.911   5.656   1.919 -0.8803  0.4939 -1.2752
11202SOL    HW235614   7.971   5.563   1.815 -0.0964 -0.8744  0.3496
11203SOL     OW35615  10.910   1.701   9.782 -0.0057 -0.3456 -0.4234
11203SOL    HW135616  11.004   1.720   9.792 -0.0360 -0.0253 -0.7101
11203SOL    HW235617  10.884   1.751   9.705 -0.3550 -0.6449 -0.5014
11204SOL     OW35618   5.302   6.536   7.073 -0.1416 -0.0146 -0.7274
11204SOL    HW135619   5.343   6.456   7.040 -0.3269 -0.5252  0.2280
11204SOL    HW235620   5.348   6.607   7.029  1.1895 -0.6001 -0.3323
11205SOL     OW35621   2.865   5.778   3.007 -0.1055  0.4850  0.0609
11205SOL    HW135622   2.811   5.798   2.930 -0.2012  0.6250  0.1634
11205SOL    HW235623   2.887   5.685   2.998 -3.2583 -0.6150  1.7664
11206SOL     OW35624  10.296   7.279   8.845  0.0830 -0.1648  0.1840
11206SOL    HW135625  10.378   7.299   8.891  0.2646 -0.2812 -0.0904
11206SOL    HW235626  10.281   7.187   8.863  0.1880 -0.2261 -0.0455
11207SOL     OW35627   8.963   3.810   8.147 -0.2202 -0.3967  0.5284
11207SOL    HW135628   8.994   3.838   8.232  0.1260 -0.0166  0.2775
11207SOL    HW235629   8.978   3.715   8.146 -1.9510 -0.7140  1.6072
11208SOL     OW35630   3.189   4.269   8.786 -0.1430  0.3082 -0.2501
11208SOL    HW135631   3.283   4.252   8.797 -0.6662 -3.4402 -0.3677
11208SOL    HW235632   3.174   4.259   8.692 -0.5422  2.1364 -0.4226
11209SOL     OW35633   8.337   0.167   7.559  0.3446 -0.1198 -0.0784
11209SOL    HW135634   8.382   0.135   7.481  1.0691 -0.5406  0.4837
11209SOL    HW235635   8.270   0.101   7.577 -0.3468  0.3821 -0.7827
11210SOL     OW35636   8.070   3.453   8.879 -0.3182 -0.2087  0.0733
11210SOL    HW135637   8.123   3.384   8.918 -1.0912 -1.2911 -0.7580
11210SOL    HW235638   8.119   3.480   8.801  0.7071  1.2323  1.1651
11211SOL     OW35639   6.850  10.440   1.348  0.3246 -0.2161 -0.3084
11211SOL    HW135640   6.932  10.468   1.308 -0.1886  1.0771 -0.4905
11211SOL    HW235641   6.877  10.401   1.432  1.1974 -0.7457 -0.8216
11212SOL     OW35642   5.071   4.350   4.535 -0.6211 -0.2461 -0.2562
11212SOL    HW135643   5.095   4.370   4.626 -0.8413  0.2244 -0.2990
11212SOL    HW235644   5.031   4.263   4.540 -0.6543 -0.2131  0.1060
11213SOL     OW35645   2.663   0.873   4.608  0.0046 -0.2111 -0.3713
11213SOL    HW135646   2.582   0.827   4.584 -0.5202  0.3416  0.2880
11213SOL    HW235647   2.664   0.871   4.704  0.8639 -0.3496 -0.3719
11214SOL     OW35648   2.248   1.192   1.421  0.0133  0.2336  0.3064
11214SOL    HW135649   2.327   1.172   1.371 -0.8367 -2.5429 -0.0875
11214SOL    HW235650   2.176   1.156   1.369 -1.5353  2.4523  0.7724
11215SOL     OW35651  10.299   8.672  10.461 -0.1931  1.2151  0.0873
11215SOL    HW135652  10.309   8.740  10.527 -1.3456 -0.1249  1.7110
11215SOL    HW235653  10.343   8.595  10.499 -2.8917 -0.2700  0.4485
11216SOL     OW35654  10.468   9.225  10.223 -0.2393 -0.2830  0.0160
11216SOL    HW135655  10.419   9.298  10.185  0.7414  0.5796  0.3507
11216SOL    HW235656  10.405   9.178  10.277 -0.4841  1.4073  1.2770
11217SOL     OW35657  10.738  10.423  10.776  0.0212  0.0412  0.5296
11217SOL    HW135658  10.750  10.439  10.683  0.3867 -2.8107 -0.0261
11217SOL    HW235659  10.827  10.420  10.812 -0.0923  0.6037  0.8634
11218SOL     OW35660   1.108   0.767   7.602  0.4350  0.0548  0.1980
11218SOL    HW135661   1.019   0.771   7.566 -0.2070  0.3463  1.7585
11218SOL    HW235662   1.107   0.692   7.660  1.4734 -0.4354 -0.3895
11219SOL     OW35663   4.225   8.613  10.424 -0.5445 -0.2593  0.1492
11219SOL    HW135664   4.265   8.534  10.387 -2.1661 -0.6592 -0.8977
11219SOL    HW235665   4.226   8.598  10.518  0.8787 -0.6547  0.0963
11220SOL     OW35666   6.425   7.484   6.671 -0.5144 -0.5178  0.0322
11220SOL    HW135667   6.478   7.507   6.747 -1.1776 -0.3018  0.4325
11220SOL    HW235668   6.475   7.414   6.628  0.0061 -0.4411  0.4991
11221SOL     OW35669   4.058   5.040   9.183 -0.3799  0.4293 -0.1169
11221SOL    HW135670   4.072   5.108   9.117 -0.7349 -0.0888 -0.7249
11221SOL    HW235671   3.981   4.992   9.153  0.1100 -0.5066  0.0956
11222SOL     OW35672   0.055   0.175   3.895  0.0873 -0.0897 -0.6491
11222SOL    HW135673  -0.027   0.131   3.919 -0.4645  0.7472 -0.9827
11222SOL    HW235674   0.028   0.259   3.859  1.1882  1.4440  1.8455
11223SOL     OW35675   1.509   7.676   8.108  0.0118  0.2090  0.3424
11223SOL    HW135676   1.487   7.600   8.161 -0.7292 -0.4474 -0.8534
11223SOL    HW235677   1.529   7.745   8.172  1.3106 -1.1235  1.4508
11224SOL     OW35678   6.685   3.865   8.813  0.0986  0.9909  0.0508
11224SOL    HW135679   6.723   3.782   8.843 -3.1156  0.1262  2.2374
11224SOL    HW235680   6.647   3.844   8.727  0.5822  0.6239 -0.0789
11225SOL     OW35681   9.144   8.580   6.554  0.4831 -0.5321  1.0862
11225SOL    HW135682   9.157   8.490   6.583 -0.7155 -0.2112  2.8479
11225SOL    HW235683   9.167   8.580   6.462 -0.2460 -2.8345  0.8427
11226SOL     OW35684  10.230   9.120   8.015 -0.2254  0.1664 -0.1276
11226SOL    HW135685  10.286   9.144   7.941  1.6722 -0.0460  1.1676
11226SOL    HW235686  10.167   9.058   7.978  0.3329  0.4655 -1.6661
11227SOL     OW35687   5.165   6.966  10.676  0.0390 -0.1604 -0.4482
11227SOL    HW135688   5.124   6.880  10.678  0.7800 -0.5206  1.1804
11227SOL    HW235689   5.236   6.958  10.612  0.1684 -0.8027 -0.2290
11228SOL     OW35690  10.486   3.256   5.024  0.3663  0.2040 -0.2071
11228SOL    HW135691  10.448   3.335   5.062  1.7291  0.9499 -0.3223
11228SOL    HW235692  10.577   3.279   5.008  0.6401 -1.2044 -0.8128
11229SOL     OW35693   0.788   4.381   7.534 -0.1922 -0.0011 -0.4134
11229SOL    HW135694   0.804   4.340   7.619 -0.4933  1.5071  0.3979
11229SOL    HW235695   0.695   4.367   7.518 -0.1714 -0.1305 -0.4271
11230SOL     OW35696  10.029   0.565   0.692  0.1126  0.1904 -0.0289
11230SOL    HW135697  10.073   0.484   0.718 -1.1601 -1.2806 -2.1759
11230SOL    HW235698  10.034   0.566   0.596 -1.3392  1.8186 -0.1487
11231SOL     OW35699   1.196   3.054   2.877 -0.1165 -0.3163 -0.7735
11231SOL    HW135700   1.108   3.089   2.888  0.4350  1.2940 -1.0978
11231SOL    HW235701   1.237   3.114   2.814  1.0642 -1.2864 -0.9499
11232SOL     OW35702   2.247   2.251  10.963 -0.7365 -0.7542  0.2351
11232SOL    HW135703   2.255   2.326  11.023  0.8784 -1.7521  1.3323
11232SOL    HW235704   2.208   2.182  11.016  1.0185 -1.7539  0.2901
11233SOL     OW35705   8.501  10.993   9.618 -0.8469 -0.3149 -0.6219
11233SOL    HW135706   8.511  11.087   9.604 -1.4320  0.0687  1.2063
11233SOL    HW235707   8.450  10.987   9.699  0.0725 -2.1988 -0.1348
11234SOL     OW35708   3.939   4.393   1.491  0.2967  0.8650  0.0634
11234SOL    HW135709   4.018   4.340   1.503  0.1290  0.3785 -0.9158
11234SOL    HW235710   3.972   4.483   1.482  0.6744  0.7693  0.4288
11235SOL     OW35711   5.260   1.405   2.327 -0.5057  0.0884  0.2129
11235SOL    HW135712   5.215   1.355   2.396 -1.1474 -0.1090 -0.3402
11235SOL    HW235713   5.268   1.344   2.254 -1.8573  0.9616 -0.6991
11236SOL     OW35714   1.698   4.383   9.124  0.2130  0.1493  0.0818
11236SOL    HW135715   1.782   4.424   9.143 -0.5095  1.5296  0.4154
11236SOL    HW235716   1.694   4.380   9.028  1.1433 -1.0318  0.0629
11237SOL     OW35717   1.546   0.874   7.176  0.3454 -0.5706  0.3790
11237SOL    HW135718   1.613   0.897   7.112  0.5638 -0.8786  0.4988
11237SOL    HW235719   1.589   0.814   7.237  0.0963 -0.4037  0.7265
11238SOL     OW35720   9.217   9.915   2.504  0.5687 -0.4140 -0.1037
11238SOL    HW135721   9.177   9.880   2.425 -0.3067 -0.3844  0.3173
11238SOL    HW235722   9.213   9.843   2.567  0.7064 -0.2435  0.1035
11239SOL     OW35723   2.080   4.686   5.857 -0.0544  0.7615 -0.1909
11239SOL    HW135724   2.116   4.604   5.890 -1.0872 -0.4851 -2.0251
11239SOL    HW235725   2.134   4.707   5.781 -1.4373  0.3021 -1.3424
11240SOL     OW35726  10.265   4.432   8.382 -0.2137 -0.3107  0.2824
11240SOL    HW135727  10.180   4.453   8.343  0.3637  1.0046 -0.3619
11240SOL    HW235728  10.289   4.348   8.344 -2.2162 -1.8422  2.2122
11241SOL     OW35729   1.225   3.811   4.430  0.3584 -0.1277 -0.3285
11241SOL    HW135730   1.312   3.797   4.468  0.6482 -1.3920 -1.3810
11241SOL    HW235731   1.237   3.793   4.337 -1.3226 -1.7357 -0.2755
11242SOL     OW35732   0.537   5.476   7.385 -0.3571 -0.0140  0.0942
11242SOL    HW135733   0.442   5.479   7.388 -0.3498  1.7136 -0.2063
11242SOL    HW235734   0.563   5.453   7.474 -1.0537 -3.1636 -0.4123
11243SOL     OW35735   5.756  10.593   8.355  0.4906 -0.0441  0.0584
11243SOL    HW135736   5.753  10.573   8.448 -1.2237  1.1941  0.3269
11243SOL    HW235737   5.741  10.509   8.312 -1.5623 -0.2314  1.0082
11244SOL     OW35738   5.989   3.767   0.568 -0.3457  0.2278  0.6074
11244SOL    HW135739   6.044   3.719   0.629  1.2616 -0.1184 -1.0140
11244SOL    HW235740   5.967   3.848   0.613  3.0159  1.2169  0.7441
11245SOL     OW35741  10.518   7.481   8.111  0.0061  0.1088  0.6098
11245SOL    HW135742  10.508   7.559   8.164  2.3371  0.8893  0.0443
11245SOL    HW235743  10.457   7.418   8.148  0.2308  1.2169  3.0296
11246SOL     OW35744   6.112   2.308   7.455 -0.0181 -0.0865 -0.2810
11246SOL    HW135745   6.153   2.321   7.541  0.4666  2.4163 -0.8201
11246SOL    HW235746   6.173   2.251   7.408  1.1547  0.7911  0.1218
11247SOL     OW35747   0.091   0.566   4.531 -0.2239 -0.4258  0.3980
11247SOL    HW135748   0.145   0.569   4.609  4.5660  1.2032 -2.5428
11247SOL    HW235749   0.050   0.653   4.527  0.3437 -0.1431  0.6328
11248SOL     OW35750   4.332  10.786   5.427 -0.5453  0.4591 -0.0411
11248SOL    HW135751   4.405  10.736   5.463  0.7977  0.8068 -2.1322
11248SOL    HW235752   4.307  10.846   5.498 -1.7549 -2.5655  2.2924
11249SOL     OW35753   2.247   7.949   0.731  0.1563  0.1570 -0.2088
11249SOL    HW135754   2.156   7.974   0.743  0.4911  0.5219  1.8868
11249SOL    HW235755   2.292   8.031   0.709  0.2540  0.2956  0.4978
11250SOL     OW35756   3.173   0.104   2.066 -0.3727  0.3396  0.3373
11250SOL    HW135757   3.145   0.097   1.974  1.6270  1.9440 -0.4791
11250SOL    HW235758   3.096   0.138   2.112 -1.2668 -0.0340 -0.8242
11251SOL     OW35759   8.376   8.773   5.489 -0.5699 -0.1347  0.2311
11251SOL    HW135760   8.405   8.682   5.495  0.2922  0.1286  0.1696
11251SOL    HW235761   8.450   8.824   5.519 -1.1293  0.5490  0.4815
11252SOL     OW35762   5.146  10.084  10.899 -0.0826 -0.1331  0.5792
11252SOL    HW135763   5.070  10.139  10.920 -0.9735  0.8000 -4.0663
11252SOL    HW235764   5.109  10.000  10.874  0.7286 -0.6628  1.1160
11253SOL     OW35765   1.566   8.620   8.181 -0.0693  0.8110 -0.2138
11253SOL    HW135766   1.577   8.613   8.276 -0.2750  0.4157 -0.2172
11253SOL    HW235767   1.492   8.680   8.171  0.9203  2.0964 -0.1641
11254SOL     OW35768   3.415   0.328   1.367  0.6849  0.0665 -0.0875
11254SOL    HW135769   3.451   0.415   1.346  5.6845 -1.6069  0.2949
11254SOL    HW235770   3.417   0.324   1.462  0.1242 -0.3459 -0.0930
11255SOL     OW35771  10.382   7.158   7.237 -0.4858  0.1793  0.0413
11255SOL    HW135772  10.425   7.184   7.319  2.0770 -0.3704 -1.0442
11255SOL    HW235773  10.421   7.214   7.170  1.3435 -2.7087 -1.5385
11256SOL     OW35774   2.151  10.495  10.361  0.1518 -0.4315  0.5598
11256SOL    HW135775   2.091  10.553  10.313  1.7743  2.5475  1.8423
11256SOL    HW235776   2.199  10.448  10.294  0.1495  1.2512 -0.6795
11257SOL     OW35777   9.843   7.636   4.761 -0.8083 -0.1292  0.0644
11257SOL    HW135778   9.931   7.672   4.775 -0.6122 -0.3397 -0.6030
11257SOL    HW235779   9.855   7.570   4.694 -1.6175  0.3961 -0.6163
11258SOL     OW35780   1.868   1.122   3.586  0.3803 -0.1509 -0.6326
11258SOL    HW135781   1.840   1.161   3.503  2.0693 -0.7519 -1.5207
11258SOL    HW235782   1.827   1.177   3.653 -1.7464 -0.1868 -1.8236
11259SOL     OW35783   3.260   7.452   2.861 -0.2015 -0.0861 -0.1958
11259SOL    HW135784   3.210   7.393   2.805 -2.5203  2.4373 -1.0512
11259SOL    HW235785   3.294   7.519   2.802  1.5514 -0.0277  0.8209
11260SOL     OW35786  10.992   8.789   3.382  0.2735  0.4955 -0.1541
11260SOL    HW135787  11.069   8.757   3.429 -0.6462 -0.6557  0.6527
11260SOL    HW235788  11.022   8.803   3.292  1.3431 -0.2635  0.0650
11261SOL     OW35789   4.909   0.027   0.929 -0.4480  0.2358 -0.2140
11261SOL    HW135790   4.963   0.106   0.917  1.4167 -0.7482  1.1933
11261SOL    HW235791   4.869   0.038   1.015 -0.3388 -0.2468 -0.0987
11262SOL     OW35792   1.175   0.716   5.176 -0.2449  0.0186 -0.0665
11262SOL    HW135793   1.156   0.745   5.087 -0.6723  0.0901  0.0473
11262SOL    HW235794   1.134   0.629   5.182 -0.1915  0.0014  0.0506
11263SOL     OW35795   4.760  10.685   5.962  0.5388 -0.3149  0.6257
11263SOL    HW135796   4.675  10.727   5.949 -0.6252 -2.3387  1.2498
11263SOL    HW235797   4.811  10.710   5.885 -0.8474  0.4295 -0.0951
11264SOL     OW35798   9.435   0.633   2.997 -0.4321 -0.8125 -0.0914
11264SOL    HW135799   9.401   0.711   2.954 -3.0785 -0.5035  2.2421
11264SOL    HW235800   9.509   0.664   3.050 -1.8949  0.3672  1.3717
11265SOL     OW35801   4.824  10.463   6.961 -0.4954  0.2985  0.3280
11265SOL    HW135802   4.818  10.558   6.955  3.6404  0.7492  0.6752
11265SOL    HW235803   4.801  10.443   7.052 -3.4644  0.5485 -0.2381
11266SOL     OW35804   4.457   7.866   9.912 -0.4818 -0.3754 -0.1225
11266SOL    HW135805   4.500   7.797   9.862 -0.8487 -0.3646 -0.4578
11266SOL    HW235806   4.370   7.873   9.874  0.0295  1.2858 -1.0850
11267SOL     OW35807   5.236   5.129   8.342 -0.0802 -0.1408 -0.2931
11267SOL    HW135808   5.332   5.129   8.345  0.1129  2.4161 -2.3613
11267SOL    HW235809   5.215   5.098   8.254 -1.1367 -0.3178  0.0126
11268SOL     OW35810   6.147  10.729   9.282 -0.0762  0.3862  0.0209
11268SOL    HW135811   6.100  10.769   9.355 -1.1290 -0.3152 -0.2495
11268SOL    HW235812   6.132  10.788   9.208 -1.9193 -0.5884 -0.4665
11269SOL     OW35813   4.537   2.740   1.583  0.1904 -0.0124  0.3925
11269SOL    HW135814   4.538   2.835   1.573 -1.1202  0.1126  1.1112
11269SOL    HW235815   4.498   2.708   1.502 -0.2892  0.1542  0.5510
11270SOL     OW35816   3.477  10.459   7.840  1.0535 -0.7120 -0.6133
11270SOL    HW135817   3.416  10.512   7.789 -1.3163 -2.5073  0.2116
11270SOL    HW235818   3.507  10.392   7.779  0.6100 -1.0351 -0.4786
11271SOL     OW35819  10.723   2.243   4.057  0.3302 -0.3750  0.1749
11271SOL    HW135820  10.698   2.288   4.138  4.0112  1.6869  0.4100
11271SOL    HW235821  10.810   2.207   4.075 -0.1775 -2.9685 -1.8481
11272SOL     OW35822   5.631   2.923   2.753 -0.0476 -0.3876  0.0549
11272SOL    HW135823   5.716   2.945   2.793 -0.6594  0.7890  0.7630
11272SOL    HW235824   5.599   2.849   2.804 -0.3550  0.4600  1.1386
11273SOL     OW35825   0.956   3.080   6.011  0.3588 -1.0983  0.3074
11273SOL    HW135826   0.972   2.986   6.001  1.1189 -0.8664 -0.7617
11273SOL    HW235827   0.987   3.100   6.100 -0.6461 -2.0078  0.8971
11274SOL     OW35828   0.806   3.606   4.905  0.5317  0.3935 -0.0609
11274SOL    HW135829   0.712   3.621   4.890  0.2919 -0.9465  0.0034
11274SOL    HW235830   0.842   3.694   4.918 -0.4828  1.0277 -1.3436
11275SOL     OW35831   8.424   2.748   0.025  0.2458  0.4032 -0.4563
11275SOL    HW135832   8.485   2.768  -0.046 -0.2462  1.4368 -0.6060
11275SOL    HW235833   8.364   2.683  -0.013  1.5073 -0.9661 -0.1607
11276SOL     OW35834   4.009   8.058   7.489  0.1036 -0.3676  0.1257
11276SOL    HW135835   4.020   7.965   7.470 -0.5642 -0.3389 -0.4277
11276SOL    HW235836   4.090   8.099   7.457  0.2005 -0.7029 -0.0598
11277SOL     OW35837   0.147   4.325   9.941 -0.2310 -0.0057  0.2176
11277SOL    HW135838   0.216   4.339  10.006  1.5156 -0.6040 -1.4092
11277SOL    HW235839   0.095   4.406   9.944  2.8063  2.1725 -1.0697
11278SOL     OW35840   6.614   1.815   7.168 -0.2575 -0.1020 -0.0683
11278SOL    HW135841   6.600   1.721   7.162  0.3431 -0.0945 -2.9394
11278SOL    HW235842   6.698   1.824   7.213 -0.7328 -0.8622  1.0078
11279SOL     OW35843   2.973   4.268   5.087  0.5255  0.0803  0.3139
11279SOL    HW135844   3.026   4.278   5.167 -0.9544 -0.3190  1.3811
11279SOL    HW235845   3.022   4.316   5.020  1.8803  0.3022  1.4128
11280SOL     OW35846   1.859   6.931   5.568  0.7259  0.4194  0.4483
11280SOL    HW135847   1.845   6.838   5.550  0.8798  0.6271 -0.9071
11280SOL    HW235848   1.806   6.949   5.646  1.1056 -0.9075  1.0376
11281SOL     OW35849   5.537   9.025   2.304  0.3674  0.3225  0.4544
11281SOL    HW135850   5.446   9.044   2.284 -0.0638  0.0515  2.0521
11281SOL    HW235851   5.586   9.060   2.230 -1.1861 -1.6736 -1.6395
11282SOL     OW35852   8.162   1.084  10.956  0.0319 -0.3606  0.5887
11282SOL    HW135853   8.172   1.009  11.014  0.3894 -2.5459 -2.0535
11282SOL    HW235854   8.099   1.142  11.000  0.4736 -1.7052  3.1672
11283SOL     OW35855   0.541   1.117  10.901 -0.0780  0.2733  0.5881
11283SOL    HW135856   0.473   1.055  10.874 -0.0024  0.4472 -0.0294
11283SOL    HW235857   0.622   1.066  10.900 -0.1364  0.1740  0.9009
11284SOL     OW35858   8.837   2.204   6.003 -0.2836 -0.6082  0.0967
11284SOL    HW135859   8.892   2.266   6.052 -1.8385  0.5807  0.4152
11284SOL    HW235860   8.850   2.121   6.047 -1.2584  0.3260  2.2708
11285SOL     OW35861   3.984   8.082   6.689  0.2254  0.0211  0.3392
11285SOL    HW135862   4.045   8.061   6.760 -2.1121 -2.8474  1.7344
11285SOL    HW235863   3.999   8.014   6.623  0.7420  1.2813 -0.9015
11286SOL     OW35864   9.908  10.982   0.030 -0.3209 -0.1276  0.2056
11286SOL    HW135865   9.947  11.027  -0.045  1.0728  0.4462  1.2335
11286SOL    HW235866   9.938  10.891   0.021  1.8322  0.4097  1.2712
11287SOL     OW35867   7.277   9.908   2.198 -0.1018  0.0413  0.7630
11287SOL    HW135868   7.275   9.955   2.281 -1.7305  0.0213  0.7675
11287SOL    HW235869   7.265   9.975   2.131 -1.6639 -0.2322  0.7286
11288SOL     OW35870   9.876   3.977   9.929  0.5597 -0.1352 -0.7632
11288SOL    HW135871   9.796   3.943   9.968  0.9706 -0.1478  0.0878
11288SOL    HW235872   9.907   3.906   9.872 -0.4529  0.1813 -1.7386
11289SOL     OW35873  10.506   7.790   4.168  0.0342 -0.2105  0.1638
11289SOL    HW135874  10.444   7.738   4.219  1.0273 -1.6276 -0.0187
11289SOL    HW235875  10.453   7.834   4.103 -1.0290  0.2183  1.2843
11290SOL     OW35876   2.082   4.098  10.211  0.3070 -0.2020  0.3018
11290SOL    HW135877   2.116   4.043  10.140 -0.2957 -0.1257 -0.0560
11290SOL    HW235878   2.057   4.180  10.168 -1.9451 -0.8616  0.2035
11291SOL     OW35879   3.585   9.147   2.521 -0.0516 -0.5548 -0.0346
11291SOL    HW135880   3.547   9.205   2.586  2.4482  0.7927  0.3289
11291SOL    HW235881   3.585   9.198   2.440  0.6773 -0.6361 -0.0943
11292SOL     OW35882  10.802   3.717   7.652  0.3447 -0.6924 -0.4213
11292SOL    HW135883  10.731   3.759   7.701  0.9270 -1.3140  1.0024
11292SOL    HW235884  10.789   3.624   7.666  1.4726 -0.8157 -0.0913
11293SOL     OW35885   5.468   9.467   9.705  0.0426  0.0160 -0.4819
11293SOL    HW135886   5.447   9.547   9.753  0.4033 -0.1867  0.0308
11293SOL    HW235887   5.540   9.491   9.647 -0.8927  0.4541 -1.4985
11294SOL     OW35888   7.713   5.829   4.363  0.1635  0.6570 -0.2097
11294SOL    HW135889   7.679   5.835   4.452 -0.2682  3.0712 -0.4631
11294SOL    HW235890   7.650   5.774   4.317  0.3023 -0.4781  0.9105
11295SOL     OW35891   4.283   1.758   7.319 -0.1180 -0.3520 -0.5610
11295SOL    HW135892   4.193   1.734   7.297 -0.5266 -1.9105  2.3162
11295SOL    HW235893   4.337   1.692   7.274 -0.6390 -1.0514 -0.1931
11296SOL     OW35894   6.779   8.967   7.482  0.2531  0.0360 -0.3940
11296SOL    HW135895   6.810   8.990   7.570  1.7214  0.5645 -1.0296
11296SOL    HW235896   6.696   9.015   7.473 -1.0439 -1.6818  1.4627
11297SOL     OW35897   0.689  10.157   3.441  0.1231 -0.2106 -0.3519
11297SOL    HW135898   0.654  10.122   3.522  0.0634 -0.8953 -0.6708
11297SOL    HW235899   0.692  10.083   3.381  0.3896  0.2337 -0.9054
11298SOL     OW35900   2.139   5.719   4.823  0.1379  0.3561 -0.1694
11298SOL    HW135901   2.100   5.665   4.893  1.6548 -0.7348 -0.1078
11298SOL    HW235902   2.142   5.660   4.747  0.9382  0.6510 -0.3761
11299SOL     OW35903   3.766   3.570   7.295  0.4040 -0.0832 -0.0880
11299SOL    HW135904   3.809   3.623   7.228  0.0220 -1.0065 -1.1014
11299SOL    HW235905   3.672   3.581   7.279  0.2571  0.7776  1.1949
11300SOL     OW35906   4.424  10.076   1.602 -0.5106 -0.0275 -0.0519
11300SOL    HW135907   4.339  10.076   1.647 -0.6540  2.0406 -0.2591
11300SOL    HW235908   4.479  10.132   1.656  0.3118 -0.1898 -0.7057
11301SOL     OW35909   1.450   0.544   2.839  0.1531 -0.4972 -0.1167
11301SOL    HW135910   1.373   0.488   2.826 -0.1433 -0.0161 -0.4500
11301SOL    HW235911   1.523   0.493   2.803 -0.0315 -0.8925  0.0650
11302SOL     OW35912   8.808   3.934   7.370  0.2637  0.1933  0.4302
11302SOL    HW135913   8.853   3.849   7.374  1.4050  0.7468  0.0116
11302SOL    HW235914   8.717   3.914   7.388  0.4129 -1.2087 -0.2150
11303SOL     OW35915   8.284   4.548   9.965  0.4809 -0.4969 -1.2019
11303SOL    HW135916   8.374   4.526   9.941  0.5955 -1.8848  0.3182
11303SOL    HW235917   8.294   4.606  10.041  0.1045 -1.1452 -0.6485
11304SOL     OW35918   3.531  10.949   4.851  0.4790 -0.0837  0.2227
11304SOL    HW135919   3.598  10.890   4.887 -0.1731 -1.8766 -1.3217
11304SOL    HW235920   3.536  10.936   4.756 -0.5644  1.4411 -0.0799
11305SOL     OW35921   9.868   7.049   3.445  0.1148 -0.2360 -0.6827
11305SOL    HW135922   9.876   7.086   3.358  1.2531  1.2372 -0.0085
11305SOL    HW235923   9.774   7.052   3.465 -0.1822 -0.8399 -1.9339
11306SOL     OW35924   8.412  10.514   4.074  0.6264 -0.2460  0.1584
11306SOL    HW135925   8.327  10.507   4.030  0.5693  0.5880  0.1141
11306SOL    HW235926   8.469  10.454   4.025  0.1269 -0.6362  0.0422
11307SOL     OW35927   9.746   8.480   3.342  0.5846  0.0289 -0.5446
11307SOL    HW135928   9.836   8.491   3.313  0.7337 -1.2570 -0.6251
11307SOL    HW235929   9.695   8.469   3.262  0.2701  1.2497 -0.5249
11308SOL     OW35930   7.425   6.788  10.883  0.1414  0.0655  0.0824
11308SOL    HW135931   7.356   6.752  10.827 -1.0538 -3.8710  3.5883
11308SOL    HW235932   7.504   6.740  10.858  0.6882  1.4423 -0.9850
11309SOL     OW35933   9.959   4.940   4.453 -0.9772 -0.3169  0.0931
11309SOL    HW135934   9.868   4.915   4.442 -0.5652 -2.1353  0.5496
11309SOL    HW235935  10.009   4.860   4.438  0.4710  0.3612  1.0276
11310SOL     OW35936   6.391   7.122   7.989 -0.2431  0.2672 -0.5093
11310SOL    HW135937   6.298   7.103   7.999 -0.2816 -0.2599 -1.7375
11310SOL    HW235938   6.403   7.208   8.031 -1.3861  0.5884 -0.8103
11311SOL     OW35939   0.750   0.642   3.761  0.0650  0.3263 -0.1194
11311SOL    HW135940   0.680   0.607   3.817 -1.3030  2.1720 -0.5770
11311SOL    HW235941   0.807   0.567   3.745 -1.2214 -1.0043  1.1473
11312SOL     OW35942   4.750   8.953   3.137  0.1571  0.4178 -0.1421
11312SOL    HW135943   4.657   8.941   3.119  0.0083  0.2545  0.6749
11312SOL    HW235944   4.758   8.937   3.231  0.7680  1.8301  0.0745
11313SOL     OW35945   5.725   8.788  10.192 -0.0971 -0.1581  0.2886
11313SOL    HW135946   5.676   8.706  10.201  0.6254 -0.5936  0.2832
11313SOL    HW235947   5.688   8.828  10.113  0.0185 -0.8129 -0.1098
11314SOL     OW35948   1.309   6.693   2.923  0.2362 -0.3426 -0.0141
11314SOL    HW135949   1.290   6.781   2.954 -0.2663 -0.7521  0.8662
11314SOL    HW235950   1.404   6.683   2.935  0.4792  0.4244 -1.0888
11315SOL     OW35951   8.858   7.216   0.079  0.0240 -0.3605  0.0331
11315SOL    HW135952   8.814   7.159   0.016  0.8782 -0.5378 -0.4175
11315SOL    HW235953   8.803   7.212   0.158 -1.8834  1.0102 -1.1326
11316SOL     OW35954   9.204   4.712   4.587 -0.1629  0.0842  0.2622
11316SOL    HW135955   9.158   4.758   4.516 -0.1507  1.2683  1.0048
11316SOL    HW235956   9.145   4.641   4.611  0.5985 -1.4974 -2.1186
11317SOL     OW35957  10.733   5.155   4.769 -0.1346 -0.0197  0.2445
11317SOL    HW135958  10.666   5.107   4.719 -1.1386 -0.1652  1.6702
11317SOL    HW235959  10.815   5.111   4.748 -0.6668 -0.6788 -0.5235
11318SOL     OW35960   9.871   9.278   3.793  0.2725  0.6120 -0.4359
11318SOL    HW135961   9.844   9.241   3.877  0.4235  0.7077 -0.3436
11318SOL    HW235962   9.790   9.300   3.749  0.1904  0.4910 -0.3459
11319SOL     OW35963   7.723   3.755   0.342 -0.3360  0.0644 -0.3296
11319SOL    HW135964   7.751   3.749   0.433  0.4375  2.0561 -0.3821
11319SOL    HW235965   7.736   3.667   0.307 -1.3670 -0.9558  1.6408
11320SOL     OW35966   1.788   9.784   8.250 -0.2069 -0.3652 -0.0227
11320SOL    HW135967   1.698   9.815   8.237  0.3438  1.3752  0.0959
11320SOL    HW235968   1.842   9.846   8.201  0.8995 -1.8850 -0.8048
11321SOL     OW35969   2.267   0.755   1.238  0.2820 -0.6223  0.5381
11321SOL    HW135970   2.292   0.749   1.330 -0.5015 -0.5646  0.7600
11321SOL    HW235971   2.307   0.679   1.196  4.9903  1.8375 -0.1391
11322SOL     OW35972   5.478   5.904   3.098  0.1662 -0.0657  0.1578
11322SOL    HW135973   5.493   5.881   3.190 -1.0061  0.9838  0.6559
11322SOL    HW235974   5.478   5.821   3.052 -0.3034 -0.7213  1.2901
11323SOL     OW35975   3.040   5.174   3.605  0.5585  0.3584 -0.4789
11323SOL    HW135976   3.014   5.085   3.583  0.7374  0.6683 -2.0907
11323SOL    HW235977   3.056   5.173   3.699 -0.3694 -1.0659 -0.3167
11324SOL     OW35978   7.365   3.705   4.810  0.9442 -0.1372  0.4985
11324SOL    HW135979   7.430   3.770   4.835 -0.6460  2.5299 -1.6548
11324SOL    HW235980   7.302   3.704   4.882  0.5600  1.4434  0.2232
11325SOL     OW35981   5.765  10.563   8.915 -0.3788  0.3422  0.0218
11325SOL    HW135982   5.690  10.510   8.941 -0.6969  0.3554 -0.8452
11325SOL    HW235983   5.813  10.578   8.997 -0.0117 -1.6719  0.2211
11326SOL     OW35984   2.542   5.378   2.618 -0.3668  0.3985  0.0007
11326SOL    HW135985   2.577   5.308   2.673 -0.4678  1.0056  0.8455
11326SOL    HW235986   2.570   5.354   2.529 -0.6876 -0.8947  0.2222
11327SOL     OW35987   1.368   5.365  10.652  0.0435  0.2997  0.4903
11327SOL    HW135988   1.369   5.459  10.669  0.0262  0.2876  0.5562
11327SOL    HW235989   1.280   5.337  10.679  0.4367  0.0601  1.5564
11328SOL     OW35990   6.557   3.826   4.571 -0.3057  0.3476  0.4638
11328SOL    HW135991   6.507   3.853   4.647  0.2908  1.2364  0.5539
11328SOL    HW235992   6.644   3.805   4.606 -0.8282 -2.1286  0.4698
11329SOL     OW35993   5.001   3.474   9.795 -0.1108  0.3173 -0.0162
11329SOL    HW135994   4.931   3.409   9.799 -0.5289  0.7304 -0.4179
11329SOL    HW235995   4.994   3.511   9.707  0.4908  0.5000  0.0090
11330SOL     OW35996   9.782   4.165   4.580  0.9471  0.2713 -0.3014
11330SOL    HW135997   9.707   4.109   4.558  0.0029  0.6280  1.7846
11330SOL    HW235998   9.857   4.106   4.576  0.4095 -0.3584 -1.3601
11331SOL     OW35999   4.256   8.681   7.692  0.2125  0.2262  0.4256
11331SOL    HW136000   4.209   8.618   7.637  1.0023 -2.1739  2.3027
11331SOL    HW236001   4.345   8.683   7.658  0.0171  0.9109 -0.0658
11332SOL     OW36002   0.985   8.033   9.418  0.0982  0.3048  0.2781
11332SOL    HW136003   0.925   8.077   9.358  1.1266 -0.6636 -1.5215
11332SOL    HW236004   0.936   7.957   9.450  0.2009 -0.2660 -0.8842
11333SOL     OW36005   1.846   6.764   0.517 -0.1026 -0.4764 -0.5580
11333SOL    HW136006   1.915   6.786   0.579 -1.2975  0.3147  0.5381
11333SOL    HW236007   1.765   6.792   0.559 -0.9393  0.6316 -2.7203
11334SOL     OW36008   6.398   8.850   1.219 -0.0027  0.4644  0.1337
11334SOL    HW136009   6.410   8.941   1.245 -1.3777  0.5662  0.5169
11334SOL    HW236010   6.449   8.800   1.283  1.8676  0.9808 -0.8721
11335SOL     OW36011   7.554   6.377   5.871  0.5597  0.5886 -0.1622
11335SOL    HW136012   7.572   6.351   5.961 -1.5723 -1.3252 -0.1814
11335SOL    HW236013   7.637   6.365   5.825  1.3931  0.5001  1.3093
11336SOL     OW36014  10.094   2.796  10.071 -0.2720  0.1306  0.1116
11336SOL    HW136015  10.009   2.779  10.112 -1.3156  0.4858 -1.7668
11336SOL    HW236016  10.125   2.710  10.044 -0.8952  0.1402 -0.7084
11337SOL     OW36017   5.080   6.217   8.423  0.1766  0.1904 -0.0467
11337SOL    HW136018   5.065   6.303   8.383  1.7958  0.6210  0.1976
11337SOL    HW236019   5.125   6.236   8.505 -1.0338 -0.8194  0.8932
11338SOL     OW36020   3.930   8.547   1.950  0.2135 -0.1004  0.4866
11338SOL    HW136021   3.920   8.596   2.031  0.3908 -0.4334  0.7152
11338SOL    HW236022   4.011   8.581   1.911 -1.2562  1.9992 -0.9421
11339SOL     OW36023   0.537   5.585   2.580 -0.1378 -0.0452  0.2515
11339SOL    HW136024   0.555   5.593   2.486 -1.9591 -1.6386 -0.2976
11339SOL    HW236025   0.621   5.603   2.622  0.3276  2.5177 -1.5410
11340SOL     OW36026   5.236   7.574   7.953  0.3808 -0.5743 -0.6609
11340SOL    HW136027   5.239   7.577   8.049  0.1501  1.4998 -0.6797
11340SOL    HW236028   5.191   7.491   7.933 -2.9109  0.5917  1.1349
11341SOL     OW36029   5.294  10.971   9.937  1.0111 -0.3738  0.2637
11341SOL    HW136030   5.305  11.042  10.000  0.1261  0.6632 -0.7116
11341SOL    HW236031   5.383  10.944   9.915  1.3441 -0.4371  1.5660
11342SOL     OW36032   8.749   9.561   6.076 -0.0734  0.2979 -0.2810
11342SOL    HW136033   8.671   9.524   6.118  1.4918 -1.3500  1.3680
11342SOL    HW236034   8.771   9.637   6.128  0.8857 -0.7640  0.9254
11343SOL     OW36035   8.625   6.664   4.696  0.3387 -0.0127  0.5348
11343SOL    HW136036   8.567   6.594   4.727  1.0376 -0.7389  0.2491
11343SOL    HW236037   8.693   6.618   4.647  0.5822  0.9109 -0.0213
11344SOL     OW36038   1.703   0.356   9.156 -0.4797  0.2063  0.5442
11344SOL    HW136039   1.667   0.318   9.236  0.0880 -0.2622  0.5863
11344SOL    HW236040   1.778   0.300   9.135  0.9319  1.7876  1.0819
11345SOL     OW36041   5.944   2.361   1.815  0.3540 -0.4460 -0.3041
11345SOL    HW136042   5.984   2.345   1.729  0.5221 -0.0223 -0.3078
11345SOL    HW236043   5.850   2.356   1.799  0.3944 -1.4012 -0.3080
11346SOL     OW36044   5.468   1.021   4.182 -0.4582  0.0549 -0.2591
11346SOL    HW136045   5.514   1.101   4.209  0.5352  0.3897 -2.6378
11346SOL    HW236046   5.406   1.051   4.116 -3.2805 -0.6038  1.9311
11347SOL     OW36047   2.983   5.313   8.875 -0.0774  0.0503  0.2848
11347SOL    HW136048   2.958   5.225   8.846 -0.6838 -1.1151  3.8351
11347SOL    HW236049   3.023   5.353   8.798 -2.0171 -2.3919 -2.2048
11348SOL     OW36050   8.515   2.249   1.366  0.0525 -0.0315  0.2984
11348SOL    HW136051   8.600   2.204   1.357 -0.2720 -0.7449  0.6927
11348SOL    HW236052   8.519   2.320   1.302  1.3541  0.5840  1.0066
11349SOL     OW36053   7.480  10.262   3.278 -0.1654 -0.6026  0.0736
11349SOL    HW136054   7.502  10.292   3.366  1.0947  0.7141 -0.6573
11349SOL    HW236055   7.478  10.166   3.284  0.9978 -0.5632  1.2739
11350SOL     OW36056  10.519   6.298   0.967 -0.3392  0.0472  0.0471
11350SOL    HW136057  10.555   6.344   0.891  1.2227 -0.8707  0.2075
11350SOL    HW236058  10.461   6.363   1.008 -1.7165  0.3935 -2.2080
11351SOL     OW36059   1.764   9.082   3.986 -0.2967  0.2518 -0.3338
11351SOL    HW136060   1.825   9.144   3.944  0.8741 -1.0295 -0.5774
11351SOL    HW236061   1.820   9.013   4.021 -1.5633 -0.5411  0.1967
11352SOL     OW36062   4.634   0.682   0.948  0.0088  0.7448 -0.0166
11352SOL    HW136063   4.599   0.706   0.862 -0.3399 -1.8485 -0.6712
11352SOL    HW236064   4.568   0.715   1.010  0.0458  2.2573 -0.7296
11353SOL     OW36065   8.308   9.681   5.054 -0.4144  0.0088  0.2519
11353SOL    HW136066   8.268   9.613   5.000 -0.9098  1.1960 -0.9509
11353SOL    HW236067   8.400   9.680   5.029 -0.8455  1.3794 -1.6581
11354SOL     OW36068   7.824   9.662   3.277 -0.1211 -0.1827  0.5746
11354SOL    HW136069   7.854   9.571   3.274  0.9936  0.1410  1.2806
11354SOL    HW236070   7.905   9.713   3.271 -0.8061  0.7858 -0.8450
11355SOL     OW36071   5.143   5.178   3.190 -0.6782  0.3659  0.4186
11355SOL    HW136072   5.096   5.181   3.274 -0.9110 -0.6740  0.3325
11355SOL    HW236073   5.105   5.249   3.139 -0.3517  1.1844  1.2810
11356SOL     OW36074   3.812   6.470   1.505 -0.3187 -0.0034  0.3434
11356SOL    HW136075   3.799   6.540   1.570 -0.8507  0.6038 -0.3997
11356SOL    HW236076   3.760   6.397   1.539  2.6623 -1.2351  2.7762
11357SOL     OW36077   4.239   6.060   6.333  0.3869 -0.3711 -0.0852
11357SOL    HW136078   4.322   6.022   6.362  0.5216  1.2991  1.9340
11357SOL    HW236079   4.178   5.987   6.331  1.4210 -1.2681  0.3758
11358SOL     OW36080   0.952   9.616   8.280  0.3186  0.3774  0.2362
11358SOL    HW136081   0.923   9.682   8.343 -0.8394 -0.4347  0.6066
11358SOL    HW236082   0.888   9.545   8.290  0.7229 -0.2049 -1.1335
11359SOL     OW36083   2.705   0.800   2.992 -0.5571  0.0618  0.2027
11359SOL    HW136084   2.742   0.750   3.064 -0.1599 -0.6522 -0.4740
11359SOL    HW236085   2.741   0.888   3.002  0.1057 -0.2329  0.4331
11360SOL     OW36086   0.806  10.173   3.994  0.2747  0.1572  0.1954
11360SOL    HW136087   0.815  10.129   4.079 -0.2585  0.0922  0.2212
11360SOL    HW236088   0.714  10.199   3.990  0.5565  1.1861  0.1343
11361SOL     OW36089  10.102   9.519   5.731 -0.1675 -0.2524 -0.4383
11361SOL    HW136090  10.161   9.504   5.657 -0.3684  1.7670 -1.0890
11361SOL    HW236091  10.022   9.554   5.691 -1.6391 -2.3324  0.4781
11362SOL     OW36092   0.036  10.928   0.983 -0.1704 -0.8124 -0.3342
11362SOL    HW136093  -0.042  10.963   1.027  0.6950  0.8083 -0.0145
11362SOL    HW236094   0.101  10.919   1.053  0.3985 -0.7013 -0.8363
11363SOL     OW36095   5.912   7.039   7.574  0.2969 -0.4448  0.3166
11363SOL    HW136096   5.844   7.074   7.632 -0.7715 -1.4007 -0.3040
11363SOL    HW236097   5.937   7.113   7.519 -0.1701 -0.0440  0.6282
11364SOL     OW36098   6.524   0.683   4.829  0.1209 -0.1011 -0.3772
11364SOL    HW136099   6.544   0.592   4.851  0.4828  0.1190  0.2351
11364SOL    HW236100   6.606   0.719   4.797 -0.2543 -0.2448 -1.5618
11365SOL     OW36101   9.157   0.294   6.860 -0.5534  0.1358 -0.6404
11365SOL    HW136102   9.240   0.338   6.838 -0.7784 -0.0921 -2.0893
11365SOL    HW236103   9.092   0.339   6.806 -1.3202  0.0830  0.2319
11366SOL     OW36104   4.036   1.794   5.978 -0.3074 -0.3535 -0.0482
11366SOL    HW136105   4.003   1.757   6.060 -1.7379 -1.2629 -0.9728
11366SOL    HW236106   4.068   1.718   5.929 -1.4739 -0.1612 -1.1805
11367SOL     OW36107   3.370  10.853   3.280  0.9356 -0.7689  0.0159
11367SOL    HW136108   3.379  10.946   3.302 -0.9294 -0.6693  0.5267
11367SOL    HW236109   3.346  10.811   3.363  1.4856 -1.6724 -0.2701
11368SOL     OW36110   9.284   3.849   3.391  0.3161  0.5719  0.7577
11368SOL    HW136111   9.342   3.827   3.319  0.1269 -0.2554  0.8466
11368SOL    HW236112   9.335   3.832   3.470  0.0627  0.1486  0.8321
11369SOL     OW36113   5.708   7.775   3.032  0.6404  0.2477 -0.3993
11369SOL    HW136114   5.753   7.783   2.948  0.9102 -1.1001 -0.3989
11369SOL    HW236115   5.774   7.800   3.097  0.8042  0.1198 -0.5156
11370SOL     OW36116   1.971   3.158   7.572 -0.2565 -0.0928 -0.0046
11370SOL    HW136117   2.004   3.166   7.483  0.8767 -0.6768  0.3556
11370SOL    HW236118   1.878   3.135   7.561 -0.4984  1.2782 -1.0141
11371SOL     OW36119   9.924  10.659   5.124 -0.4146  0.2202 -0.0950
11371SOL    HW136120   9.927  10.754   5.127 -0.9370  0.2174  1.8057
11371SOL    HW236121   9.840  10.638   5.082 -1.2007  0.6330  1.2248
11372SOL     OW36122   1.664   6.160  10.009 -0.1484  0.2439  0.1348
11372SOL    HW136123   1.600   6.197   9.947 -0.6385 -1.0604 -0.1601
11372SOL    HW236124   1.714   6.236  10.039 -2.5190  1.4880  1.2035
11373SOL     OW36125   3.247   4.144   0.967 -0.1754 -0.1874  0.3569
11373SOL    HW136126   3.233   4.145   1.062  0.2095 -0.8332  0.4239
11373SOL    HW236127   3.242   4.236   0.941 -1.9737 -0.1403  0.7418
11374SOL     OW36128   2.672   3.218   5.099  0.1317  0.1328  0.4038
11374SOL    HW136129   2.765   3.202   5.083  0.4260  0.5620  1.5979
11374SOL    HW236130   2.635   3.132   5.117  0.3243 -0.0221  0.0686
11375SOL     OW36131   1.418   7.592  10.054  0.2162  0.3270 -0.0314
11375SOL    HW136132   1.354   7.661  10.042  0.6884  0.6414 -0.9036
11375SOL    HW236133   1.378   7.514  10.014  0.5210  0.6230 -0.9520
11376SOL     OW36134   2.500   6.514   8.171  0.1159  0.4554  0.2925
11376SOL    HW136135   2.500   6.609   8.177  0.3575  0.4580  0.2360
11376SOL    HW236136   2.550   6.485   8.248 -1.0289  0.3321  1.0115
11377SOL     OW36137   1.119   8.478   2.979 -0.0634  0.3251 -0.0645
11377SOL    HW136138   1.094   8.434   3.061  0.5190  0.0726 -0.0189
11377SOL    HW236139   1.039   8.477   2.927 -0.1054 -0.6834 -0.0138
11378SOL     OW36140   1.720   0.360   5.850 -0.0996  0.2900 -0.2136
11378SOL    HW136141   1.666   0.406   5.914  0.8857  1.0742  0.0765
11378SOL    HW236142   1.809   0.369   5.883  0.2305 -0.9801 -0.6852
11379SOL     OW36143   1.184   8.220   2.673  0.2192 -0.4067 -0.3368
11379SOL    HW136144   1.233   8.183   2.599  1.7739 -0.3539  0.6196
11379SOL    HW236145   1.155   8.306   2.642 -0.8886 -1.1846 -1.5561
11380SOL     OW36146   2.943   7.781   7.637 -0.3258 -0.2850  0.3824
11380SOL    HW136147   2.937   7.778   7.542  0.4608  1.2186  0.2660
11380SOL    HW236148   2.884   7.711   7.667  0.7905 -1.9983 -1.2258
11381SOL     OW36149   3.399   9.559   2.591 -1.2355  0.4888  0.0817
11381SOL    HW136150   3.392   9.597   2.503  1.1297  0.2642 -0.2516
11381SOL    HW236151   3.431   9.630   2.646 -1.2631  0.2142  0.4551
11382SOL     OW36152   0.984   7.923   8.358  0.0312 -0.3507 -0.0207
11382SOL    HW136153   0.988   8.019   8.357 -1.4783 -0.2478  1.1860
11382SOL    HW236154   0.998   7.898   8.267 -0.8724  1.0798 -0.5845
11383SOL     OW36155   0.255   5.235   6.453  0.0038 -0.5934 -0.3273
11383SOL    HW136156   0.220   5.237   6.364 -1.2399 -0.8553  0.1453
11383SOL    HW236157   0.179   5.217   6.509  0.5057  0.9159  0.9128
11384SOL     OW36158   2.110   5.705   1.354  0.2994  1.1753 -0.4238
11384SOL    HW136159   2.049   5.719   1.281  0.0254  1.4217 -0.1528
11384SOL    HW236160   2.090   5.776   1.415 -0.9203 -0.2160  0.8699
11385SOL     OW36161  10.242   2.125  10.563  0.0512  0.5254 -0.5421
11385SOL    HW136162  10.235   2.192  10.494  1.2678  2.0274  0.7303
11385SOL    HW236163  10.183   2.155  10.632 -0.8051 -0.7307 -0.6922
11386SOL     OW36164   5.968   6.173   2.178  1.2538 -0.3641 -0.5637
11386SOL    HW136165   5.980   6.261   2.143  0.2632 -0.0049 -0.0380
11386SOL    HW236166   5.928   6.124   2.106 -1.5701  0.5926  0.2031
11387SOL     OW36167   8.638   2.740   3.836  0.4308  0.6481 -0.3147
11387SOL    HW136168   8.546   2.729   3.863  0.7765  1.2346  1.2165
11387SOL    HW236169   8.660   2.657   3.794 -0.5559  0.1657  0.0628
11388SOL     OW36170   8.664   0.330   8.852  0.0948 -0.3030 -0.3052
11388SOL    HW136171   8.734   0.265   8.849  0.2475 -0.1286 -0.6444
11388SOL    HW236172   8.619   0.319   8.768 -1.4534 -1.6822  0.6436
11389SOL     OW36173   4.549   9.143   1.947 -0.3054  0.5139 -1.1193
11389SOL    HW136174   4.471   9.144   1.892  0.7745 -0.0251 -2.7327
11389SOL    HW236175   4.613   9.092   1.897  1.0975  0.9640  0.1414
11390SOL     OW36176   5.478   5.820   8.723  0.6167 -0.0280 -0.1497
11390SOL    HW136177   5.423   5.778   8.789 -0.1353 -0.1056 -0.8135
11390SOL    HW236178   5.535   5.878   8.773  0.1143 -0.1397  0.5743
11391SOL     OW36179   2.630   0.109   1.391  0.3403 -0.4955  0.0625
11391SOL    HW136180   2.569   0.057   1.442  0.9184  0.4510  1.7772
11391SOL    HW236181   2.681   0.158   1.455  0.6435  1.2766 -1.4326
11392SOL     OW36182   5.451   4.583   3.558 -0.6382  0.2289 -0.3652
11392SOL    HW136183   5.502   4.651   3.601 -1.0019  0.9864 -1.1163
11392SOL    HW236184   5.407   4.627   3.485 -0.6959 -0.8515 -1.0120
11393SOL     OW36185   3.533   6.555   2.049 -0.0382  0.0571  0.1344
11393SOL    HW136186   3.526   6.615   2.124 -1.1328 -0.3308  0.3562
11393SOL    HW236187   3.476   6.592   1.983  1.7720  1.0103 -0.9824
11394SOL     OW36188   3.893   0.749   5.065 -0.5526 -0.0650 -0.0805
11394SOL    HW136189   3.866   0.676   5.122  0.7264 -0.6587 -0.2140
11394SOL    HW236190   3.882   0.715   4.976 -1.0309  0.3181 -0.1758
11395SOL     OW36191  10.601   9.057   4.180 -0.0248  0.1507  0.3072
11395SOL    HW136192  10.577   9.137   4.226 -0.7356 -0.7090  1.4921
11395SOL    HW236193  10.697   9.060   4.176 -0.0828  1.5767 -0.6790
11396SOL     OW36194   0.213  10.872   6.298  0.1250 -0.4830 -0.0005
11396SOL    HW136195   0.232  10.790   6.343  0.0815 -0.3748  0.2158
11396SOL    HW236196   0.141  10.910   6.348  2.2869  1.3148  1.9658
11397SOL     OW36197  10.027   9.835   3.831 -0.6285  0.1002  0.7564
11397SOL    HW136198  10.029   9.806   3.922 -0.9497 -0.1205  0.6926
11397SOL    HW236199  10.003   9.758   3.780 -3.5756  0.8621  0.7764
11398SOL     OW36200  10.470   6.381   9.008  0.2795  0.0559 -0.5259
11398SOL    HW136201  10.416   6.320   8.958  0.8972 -0.0450 -1.0825
11398SOL    HW236202  10.536   6.325   9.051 -1.4460 -0.1384  2.1025
11399SOL     OW36203   0.104   6.247   7.878  0.4986 -0.2391  0.5737
11399SOL    HW136204   0.075   6.172   7.929 -0.3336 -0.6637 -0.4910
11399SOL    HW236205   0.142   6.307   7.943 -0.8920 -0.5763  1.7506
11400SOL     OW36206   9.540  10.677   1.114  0.7301 -0.4625  0.4368
11400SOL    HW136207   9.626  10.711   1.139  0.5994 -0.2299  0.5809
11400SOL    HW236208   9.497  10.751   1.070  1.3513 -1.1732 -1.4502
11401SOL     OW36209  10.433   6.721  10.050  0.7357  0.1946 -0.1590
11401SOL    HW136210  10.493   6.757   9.984 -1.2752  1.2684 -1.4845
11401SOL    HW236211  10.375   6.664  10.000  0.7878 -1.0432  1.1534
11402SOL     OW36212   6.596   9.906   5.184  0.6484 -0.4895 -0.5688
11402SOL    HW136213   6.605   9.942   5.272 -0.7021  1.0125 -1.0037
11402SOL    HW236214   6.632   9.817   5.191 -0.9283 -1.0213  1.8990
11403SOL     OW36215   2.769  10.137   7.846 -0.2160 -0.2442 -0.5960
11403SOL    HW136216   2.703  10.197   7.881 -0.7405 -0.8130 -0.5781
11403SOL    HW236217   2.824  10.190   7.789  2.1270  1.3135  2.7828
11404SOL     OW36218   9.080   4.759   4.365 -0.1077 -0.7162 -0.1156
11404SOL    HW136219   9.016   4.809   4.415 -0.4226 -1.9592  0.7506
11404SOL    HW236220   9.034   4.732   4.286  0.0857  0.3730 -0.6325
11405SOL     OW36221   6.101   8.924   1.582  0.6462 -0.4387  0.1987
11405SOL    HW136222   6.024   8.901   1.634 -1.2473  3.4502 -0.5316
11405SOL    HW236223   6.068   8.929   1.492  1.7803  0.9124 -0.1763
11406SOL     OW36224   4.055   0.950   5.160 -0.0038  0.2576 -0.2621
11406SOL    HW136225   4.011   0.876   5.117  0.2514  0.5163 -0.9749
11406SOL    HW236226   4.141   0.953   5.120  0.0270  0.8783 -0.1527
11407SOL     OW36227   0.488   9.303   9.258  0.4804  0.2049  0.1481
11407SOL    HW136228   0.533   9.299   9.173 -0.3105 -0.0024 -0.2753
11407SOL    HW236229   0.398   9.275   9.238 -0.5422  2.9111  0.4844
11408SOL     OW36230   6.496   7.653   8.270 -0.4067  0.3179  0.1706
11408SOL    HW136231   6.547   7.575   8.289  0.1349 -0.0754 -2.5337
11408SOL    HW236232   6.406   7.629   8.290 -0.2439 -1.0171 -0.6039
11409SOL     OW36233  10.932   7.891   1.500  0.0230 -0.3512  0.6054
11409SOL    HW136234  11.023   7.911   1.476 -0.0549 -1.0777 -0.3329
11409SOL    HW236235  10.929   7.908   1.594  0.4309  2.2493  0.2367
11410SOL     OW36236   7.831   4.296   9.805 -0.0420  0.0265 -0.1316
11410SOL    HW136237   7.757   4.358   9.798  1.2387  1.6272 -0.1448
11410SOL    HW236238   7.874   4.301   9.720 -0.8412 -2.1944 -0.7241
11411SOL     OW36239  10.077   3.567   8.231  0.1211  0.3163 -0.3390
11411SOL    HW136240  10.123   3.608   8.157  0.0718  0.6466 -0.1923
11411SOL    HW236241  10.004   3.627   8.250  1.2017  1.2390  1.1640
11412SOL     OW36242   8.644   1.014  10.265  0.2879  0.0563 -0.2769
11412SOL    HW136243   8.698   0.972  10.198 -0.5938  0.1063 -1.0459
11412SOL    HW236244   8.592   1.079  10.218  1.2355  1.6706  0.8224
11413SOL     OW36245   6.429  10.708   5.805  0.2723 -0.0945 -0.1818
11413SOL    HW136246   6.396  10.783   5.854  1.7039 -0.3156  1.1715
11413SOL    HW236247   6.520  10.729   5.786  1.6998 -2.6611  2.8765
11414SOL     OW36248   4.867   8.748   9.359 -0.6442 -0.0534  0.4307
11414SOL    HW136249   4.921   8.741   9.438  0.0878 -1.4948 -0.1724
11414SOL    HW236250   4.818   8.667   9.357  1.4308 -1.3806 -2.0610
11415SOL     OW36251   0.458   1.040   0.751 -0.2149  0.8277  0.1736
11415SOL    HW136252   0.416   1.109   0.699  1.7341  1.9691  0.0314
11415SOL    HW236253   0.385   0.986   0.782 -1.6224  1.4890 -1.7666
11416SOL     OW36254  10.580   9.804   4.750 -0.0346  0.3595 -0.2085
11416SOL    HW136255  10.516   9.874   4.762 -0.2888  0.0213  0.4869
11416SOL    HW236256  10.643   9.839   4.687 -0.5157  0.9640 -0.3563
11417SOL     OW36257   9.332  10.662   9.605 -0.4698 -0.8264 -0.1095
11417SOL    HW136258   9.361  10.745   9.643 -0.2059 -0.9903  0.0476
11417SOL    HW236259   9.374  10.659   9.519  0.7428 -1.4871  0.4774
11418SOL     OW36260   6.238   3.872   3.145 -0.3447 -0.4116 -0.2997
11418SOL    HW136261   6.285   3.789   3.156 -2.7966 -1.5760  3.1984
11418SOL    HW236262   6.296   3.937   3.182  0.0596 -1.2131  0.5185
11419SOL     OW36263   1.953   4.426   6.596  1.2518 -0.1735  0.0359
11419SOL    HW136264   2.040   4.427   6.558  0.7208 -0.8950 -1.2535
11419SOL    HW236265   1.965   4.461   6.684  2.9850 -1.1081  0.2125
11420SOL     OW36266   6.852   8.570  10.932 -0.0677 -0.2534 -0.2824
11420SOL    HW136267   6.940   8.607  10.932 -0.9272  1.9988 -1.5126
11420SOL    HW236268   6.840   8.537  11.022  1.3062  1.1771  0.4781
11421SOL     OW36269   6.103   2.523   7.736 -0.4683 -0.0653  0.1614
11421SOL    HW136270   6.176   2.489   7.685 -2.4023 -1.0910 -2.1137
11421SOL    HW236271   6.075   2.602   7.690 -1.5010 -0.3213  0.3128
11422SOL     OW36272   5.017   4.527   6.112  0.3937  0.3123 -0.6839
11422SOL    HW136273   5.000   4.519   6.206 -1.2117  0.6058 -0.9186
11422SOL    HW236274   5.069   4.450   6.090  0.3132 -0.0477  0.3407
11423SOL     OW36275   6.469   1.244   3.527  0.2088 -0.4161  0.4097
11423SOL    HW136276   6.545   1.300   3.540  1.0227 -1.0290 -1.4717
11423SOL    HW236277   6.409   1.270   3.597  1.0153  2.0026  0.3071
11424SOL     OW36278  10.644   8.499   3.919  0.1958  0.3786 -0.1870
11424SOL    HW136279  10.710   8.448   3.966 -0.9338 -0.1943  0.8582
11424SOL    HW236280  10.563   8.449   3.931 -0.4758  1.1795 -1.2261
11425SOL     OW36281   2.940   3.248   4.636 -0.3073  0.2019 -0.0553
11425SOL    HW136282   3.012   3.240   4.574  1.4141  0.0721  1.8364
11425SOL    HW236283   2.920   3.341   4.638  0.1664  0.3081 -0.2115
11426SOL     OW36284   1.270   8.083   7.363 -0.0846  0.1800  0.3687
11426SOL    HW136285   1.276   7.996   7.403 -0.8943 -0.2987 -0.4823
11426SOL    HW236286   1.192   8.077   7.306 -0.4906  1.6433  0.7364
11427SOL     OW36287   1.417  10.612   5.082  0.4280  0.2963  0.4276
11427SOL    HW136288   1.437  10.698   5.119 -0.3032 -0.3986  2.6358
11427SOL    HW236289   1.426  10.551   5.156  0.1962 -1.4296 -0.8892
11428SOL     OW36290   2.273   3.426  10.391 -0.6403  0.6217 -0.7766
11428SOL    HW136291   2.261   3.467  10.476  0.4327  0.6628 -0.6269
11428SOL    HW236292   2.227   3.484  10.329 -1.1330  0.7682 -0.2803
11429SOL     OW36293   4.110   0.525   8.758  0.3871  0.2547 -0.4014
11429SOL    HW136294   4.051   0.562   8.824  0.2882  0.1077 -0.4067
11429SOL    HW236295   4.179   0.482   8.808  0.8250  0.9536 -0.3958
11430SOL     OW36296   9.602   4.751   2.589 -0.2063 -0.7145 -0.4314
11430SOL    HW136297   9.511   4.764   2.561  0.0660  0.6605 -0.7278
11430SOL    HW236298   9.652   4.753   2.508  0.0875 -1.6103 -0.2793
11431SOL     OW36299   5.554   7.826   7.265 -0.4706  0.5088  0.2499
11431SOL    HW136300   5.566   7.738   7.300 -1.3365 -0.1695 -1.0817
11431SOL    HW236301   5.529   7.879   7.341 -0.7760 -0.5808  0.9223
11432SOL     OW36302   0.504   0.577   3.891 -0.3656  0.0136 -0.1867
11432SOL    HW136303   0.442   0.530   3.837 -0.6045  1.3775 -1.1578
11432SOL    HW236304   0.450   0.629   3.951 -0.1432  0.3475 -0.2722
11433SOL     OW36305   7.766  10.429   1.438 -0.0126  0.2049 -0.2818
11433SOL    HW136306   7.825  10.491   1.481  0.6117 -1.6893  1.8034
11433SOL    HW236307   7.719  10.387   1.511 -0.6066 -1.5447 -1.6178
11434SOL     OW36308  10.273   9.609   4.680 -0.6621  0.1576  0.3538
11434SOL    HW136309  10.328   9.635   4.754 -0.9002  1.5393  0.0724
11434SOL    HW236310  10.212   9.681   4.668 -2.2767 -1.1371  0.3598
11435SOL     OW36311   7.936  10.245   8.438 -0.3886  0.1754 -0.6997
11435SOL    HW136312   7.863  10.303   8.416 -0.5561 -0.5320 -2.1110
11435SOL    HW236313   7.957  10.266   8.529 -2.1025  0.6696 -0.3836
11436SOL     OW36314   5.199  10.831   6.149  0.6713 -0.1971 -0.1771
11436SOL    HW136315   5.109  10.801   6.159  0.6219  0.0979  0.2841
11436SOL    HW236316   5.241  10.811   6.233  0.1268  2.7385  0.8996
11437SOL     OW36317  10.357   3.858   9.900 -0.2252 -0.0342  0.1981
11437SOL    HW136318  10.406   3.818   9.972 -0.8000 -3.2147 -0.9712
11437SOL    HW236319  10.413   3.844   9.823 -0.6950  1.0461 -0.3555
11438SOL     OW36320   5.410   9.188   7.088  0.6555 -0.0955  0.5820
11438SOL    HW136321   5.393   9.094   7.081 -2.2042  0.3169  0.7179
11438SOL    HW236322   5.439   9.201   7.178  1.7000 -0.8996  0.3747
11439SOL     OW36323   7.555   8.596   3.217 -0.6053  0.4124  0.6126
11439SOL    HW136324   7.516   8.547   3.145 -1.3508  1.7442  0.0725
11439SOL    HW236325   7.500   8.576   3.292  0.1454 -0.9442  0.8477
11440SOL     OW36326   8.099   6.126   3.509  0.3469 -0.0803  0.2245
11440SOL    HW136327   8.132   6.168   3.430  0.9359  1.2578  1.1365
11440SOL    HW236328   8.004   6.125   3.498  0.3106  1.5959  0.1877
11441SOL     OW36329   7.595   5.679   6.196 -0.3272 -0.1426 -0.1000
11441SOL    HW136330   7.676   5.630   6.216 -0.1961  0.2128  0.2466
11441SOL    HW236331   7.566   5.712   6.280  0.5186  1.8211 -0.5288
11442SOL     OW36332   4.341   1.182   8.730 -0.1101  0.0671  0.1552
11442SOL    HW136333   4.262   1.184   8.784 -0.2594 -1.4946  0.0346
11442SOL    HW236334   4.378   1.269   8.739 -1.6904  0.7423  0.4472
11443SOL     OW36335   1.393   0.640   4.929 -0.6553  0.1417  0.4201
11443SOL    HW136336   1.400   0.613   4.837 -1.0596  0.4595  0.2904
11443SOL    HW236337   1.484   0.656   4.956 -0.4404 -0.9773  0.4020
11444SOL     OW36338   1.516   8.307   9.593 -0.3686 -0.4162 -0.6519
11444SOL    HW136339   1.424   8.291   9.612 -0.3307  0.4560  0.3981
11444SOL    HW236340   1.551   8.345   9.674  1.0527 -1.2557 -0.8405
11445SOL     OW36341   6.411  10.097   6.953 -0.9197  0.3490  0.2399
11445SOL    HW136342   6.471  10.114   7.026 -0.0214 -0.6390 -0.2413
11445SOL    HW236343   6.464  10.110   6.874 -0.4150 -3.3324 -0.2094
11446SOL     OW36344   8.959  10.066   7.054 -0.1337  0.0673  0.1535
11446SOL    HW136345   8.875  10.043   7.013 -1.2823 -0.4529  2.5922
11446SOL    HW236346   9.025  10.028   6.996 -1.5911 -0.0480 -1.5228
11447SOL     OW36347   8.451   1.095   5.316 -0.0476  0.2854  0.0803
11447SOL    HW136348   8.438   1.011   5.271 -0.4586  1.0702 -1.3058
11447SOL    HW236349   8.539   1.122   5.291  0.9896 -0.7551  2.3224
11448SOL     OW36350   9.160   5.411   4.804 -0.4542 -0.4057 -0.4564
11448SOL    HW136351   9.171   5.382   4.894  2.6318 -0.9050 -0.8970
11448SOL    HW236352   9.067   5.397   4.785 -0.9177 -1.4446  2.2074
11449SOL     OW36353   0.490  10.907   3.053 -0.8067  0.0026 -0.2297
11449SOL    HW136354   0.417  10.847   3.070 -0.9644  0.3007  0.1540
11449SOL    HW236355   0.556  10.882   3.117 -0.9123  0.3026 -0.0009
11450SOL     OW36356   5.646   6.738  10.047 -0.4302 -0.6399 -0.0760
11450SOL    HW136357   5.704   6.708   9.978 -1.8140 -2.1869 -0.6076
11450SOL    HW236358   5.566   6.767  10.002 -0.8711 -0.4875  0.7740
11451SOL     OW36359   2.328   4.643   4.324 -0.5370 -0.4728 -0.0955
11451SOL    HW136360   2.299   4.551   4.321  0.3157 -0.7977  0.8306
11451SOL    HW236361   2.255   4.690   4.363  0.2432 -1.3647  2.6769
11452SOL     OW36362   5.812   1.716   3.066 -0.3857  0.1771 -0.3303
11452SOL    HW136363   5.774   1.638   3.106 -1.7676  1.9271  2.0697
11452SOL    HW236364   5.906   1.702   3.068 -0.6189 -2.3005 -2.0714
11453SOL     OW36365   0.853   9.680   0.986  0.1177 -0.0062 -0.4732
11453SOL    HW136366   0.790   9.739   0.945 -0.0885 -0.4179 -0.7534
11453SOL    HW236367   0.936   9.728   0.982 -0.0964  0.3776 -0.4476
11454SOL     OW36368   8.463   5.452   5.448 -0.2716  0.4627 -0.1851
11454SOL    HW136369   8.478   5.447   5.354  0.7298 -1.9932  0.0377
11454SOL    HW236370   8.550   5.441   5.487 -0.6771  1.4043  1.0451
11455SOL     OW36371  11.001   1.742   8.102 -0.5191 -0.1910  0.3753
11455SOL    HW136372  11.041   1.711   8.021  0.3130  0.8395  0.3837
11455SOL    HW236373  11.074   1.770   8.156 -1.1770  0.6320  0.8587
11456SOL     OW36374   1.512   1.980   9.066 -0.0702 -0.6738  0.1135
11456SOL    HW136375   1.457   1.935   9.002  0.2905 -3.1949  1.4366
11456SOL    HW236376   1.602   1.960   9.039  0.3466  3.0526 -1.7849
11457SOL     OW36377  10.571   4.371   7.282  0.3702 -0.3332  0.5555
11457SOL    HW136378  10.595   4.411   7.199  2.6069 -0.7626  0.9377
11457SOL    HW236379  10.636   4.303   7.297 -0.7317 -1.1314  2.0592
11458SOL     OW36380   7.982  10.553   1.584  0.2118  0.1531 -0.5039
11458SOL    HW136381   7.992  10.632   1.636 -3.8827  0.6941 -0.2342
11458SOL    HW236382   7.975  10.483   1.648  1.5627 -0.1836 -0.6783
11459SOL     OW36383   6.807   1.561   3.259  0.2476  0.9879  0.3221
11459SOL    HW136384   6.902   1.552   3.271 -0.0056  0.3208  2.0712
11459SOL    HW236385   6.771   1.479   3.293 -1.1093  2.3039  2.2638
11460SOL     OW36386  10.918   9.984   5.403  0.4374  0.2206 -0.5500
11460SOL    HW136387  10.967  10.057   5.439  0.1482  0.4284 -0.5734
11460SOL    HW236388  10.985   9.922   5.373  0.6797  0.2139 -0.0029
11461SOL     OW36389   1.756   0.854   6.815 -0.0186 -0.4666  0.0678
11461SOL    HW136390   1.678   0.910   6.823  1.5826  1.6167  2.4384
11461SOL    HW236391   1.821   0.910   6.773  0.7079 -1.6664 -0.4446
11462SOL     OW36392   6.472   3.664   9.714 -0.4585  0.4770  0.1429
11462SOL    HW136393   6.453   3.729   9.647  0.3005 -1.1898 -1.8259
11462SOL    HW236394   6.413   3.591   9.694  0.9653 -0.7418  0.1431
11463SOL     OW36395   2.595   5.669   9.638 -0.0086 -0.4963  0.3449
11463SOL    HW136396   2.681   5.627   9.636 -0.1771 -0.8286 -1.3208
11463SOL    HW236397   2.533   5.599   9.615 -0.6412 -0.0681  0.7150
11464SOL     OW36398   0.874   4.263   0.082 -0.4279 -0.1987  0.0310
11464SOL    HW136399   0.890   4.255  -0.012 -0.2506 -0.8567  0.1117
11464SOL    HW236400   0.794   4.213   0.097  0.6247 -1.7894  0.5339
11465SOL     OW36401   6.228   5.628   8.110  0.0542  0.0013  0.4548
11465SOL    HW136402   6.138   5.658   8.124 -0.2724 -0.4421 -0.6175
11465SOL    HW236403   6.268   5.697   8.056 -0.6455 -1.3222 -1.8690
11466SOL     OW36404   0.225   3.539   6.899 -0.5320  0.3502  0.3271
11466SOL    HW136405   0.170   3.522   6.823 -0.9240 -0.8884  0.8666
11466SOL    HW236406   0.212   3.464   6.956  3.1001 -0.9359 -0.2779
11467SOL     OW36407   4.583   8.203   3.115  0.6738  0.2779 -0.3722
11467SOL    HW136408   4.533   8.176   3.192 -0.7542 -0.6354 -1.5842
11467SOL    HW236409   4.518   8.237   3.054  1.6063 -0.2313 -1.6936
11468SOL     OW36410   2.650   6.929   3.065  0.0141 -0.2403 -0.3085
11468SOL    HW136411   2.661   6.869   2.991 -0.5129 -0.2803 -0.3532
11468SOL    HW236412   2.556   6.935   3.078  0.1169 -1.5389  1.4228
11469SOL     OW36413  10.610   4.858   6.977  0.1371 -0.3476 -0.0562
11469SOL    HW136414  10.611   4.944   6.936 -1.4022  0.2388  1.0453
11469SOL    HW236415  10.700   4.827   6.972  0.5381  0.9653 -1.2053
11470SOL     OW36416   3.390   0.122   4.927  0.1332 -0.1315  0.1737
11470SOL    HW136417   3.458   0.057   4.907  0.1935  0.2022 -0.7587
11470SOL    HW236418   3.384   0.122   5.023  1.7807  0.1600  0.3074
11471SOL     OW36419   2.090   0.915  10.766  0.2831 -0.4061 -0.1493
11471SOL    HW136420   2.174   0.885  10.732  0.1919 -0.6781 -0.1349
11471SOL    HW236421   2.113   0.991  10.820  0.6339 -1.0247  0.5952
11472SOL     OW36422   3.424   7.907   9.501 -0.0727  0.2922 -0.2840
11472SOL    HW136423   3.404   7.821   9.540 -2.8450  0.0738 -1.9924
11472SOL    HW236424   3.508   7.931   9.541  0.1540 -2.5765  1.2746
11473SOL     OW36425   5.077   1.251   7.237 -0.7085 -0.2965  0.5200
11473SOL    HW136426   5.029   1.174   7.269 -0.4036 -0.0170  1.6899
11473SOL    HW236427   5.035   1.325   7.279 -1.1025  0.2159 -0.7353
11474SOL     OW36428   8.934   4.382   9.562 -0.7080 -0.4618  0.2487
11474SOL    HW136429   9.027   4.407   9.555 -0.9063  0.7662  1.6511
11474SOL    HW236430   8.932   4.291   9.532  0.5105  0.2500 -2.3624
11475SOL     OW36431   1.378   0.420   2.056  0.6913  0.4529  0.5143
11475SOL    HW136432   1.338   0.499   2.020  0.5608  0.3861  0.5105
11475SOL    HW236433   1.472   0.431   2.040  0.5431 -0.0888 -0.8980
11476SOL     OW36434   5.058   3.531   2.635 -0.4378  0.5963  0.3579
11476SOL    HW136435   5.121   3.590   2.676  3.0185 -1.6709 -1.1880
11476SOL    HW236436   5.047   3.459   2.698  1.1553 -0.5638 -0.6079
11477SOL     OW36437   8.429   3.881   6.704 -0.0205  0.4421  0.2091
11477SOL    HW136438   8.429   3.890   6.609  1.2265  0.1087  0.1628
11477SOL    HW236439   8.510   3.833   6.724 -0.4497  0.1766  1.4062
11478SOL     OW36440  10.148   0.519   2.667  0.2558  0.1948  0.1628
11478SOL    HW136441  10.129   0.537   2.575 -1.3372  1.8415  0.7560
11478SOL    HW236442  10.198   0.437   2.666 -2.7024 -1.7697 -1.9483
11479SOL     OW36443   4.298   8.800   7.112 -0.5759 -0.1409  0.6540
11479SOL    HW136444   4.222   8.858   7.102 -1.1902 -1.1469 -0.8493
11479SOL    HW236445   4.272   8.719   7.069  0.7164 -1.1406  1.6700
11480SOL     OW36446   5.988   0.500   7.132 -0.0265  0.0756  0.3841
11480SOL    HW136447   5.958   0.590   7.122 -0.1703  0.0886  0.9383
11480SOL    HW236448   6.081   0.503   7.110  0.2629  0.5977  1.6288
11481SOL     OW36449   8.961   9.233   0.846  0.0561  0.3103 -0.3826
11481SOL    HW136450   8.914   9.217   0.928 -0.6995  0.9833 -0.6600
11481SOL    HW236451   8.990   9.146   0.817  0.4028  0.0784  0.6316
11482SOL     OW36452  10.668   6.549   7.977 -0.0691 -0.3315 -0.4806
11482SOL    HW136453  10.642   6.641   7.980 -2.4264 -0.9255 -0.9694
11482SOL    HW236454  10.764   6.551   7.969  0.0523  2.0368  0.7307
11483SOL     OW36455   9.065   8.166   5.417  0.1036  0.2700 -0.7340
11483SOL    HW136456   9.150   8.150   5.456 -0.0339  1.4438  0.1131
11483SOL    HW236457   9.002   8.146   5.486 -0.2854 -0.1542 -1.2063
11484SOL     OW36458   9.406   4.895   3.783 -0.3178  0.0993 -0.1841
11484SOL    HW136459   9.419   4.980   3.740 -0.7815 -0.3177 -1.1465
11484SOL    HW236460   9.314   4.896   3.810 -0.0835  0.2759  0.6481
11485SOL     OW36461   5.656   1.460   8.900 -0.0388  0.4067  0.3281
11485SOL    HW136462   5.688   1.380   8.859 -0.7066 -1.4102  3.1162
11485SOL    HW236463   5.718   1.527   8.871  1.0041 -1.2278 -1.4843
11486SOL     OW36464   0.505   5.691   4.244 -0.5184 -0.2731 -0.0792
11486SOL    HW136465   0.456   5.714   4.323 -0.2817 -0.0156 -0.0049
11486SOL    HW236466   0.479   5.601   4.225  0.7690 -0.9936  1.3375
11487SOL     OW36467   2.420   5.258   0.529 -0.0140 -0.0591  0.1984
11487SOL    HW136468   2.457   5.188   0.475 -0.3214  1.0593 -1.5395
11487SOL    HW236469   2.325   5.253   0.514 -0.1167  0.2507  0.6910
11488SOL     OW36470  10.204   0.390   8.732  0.0792 -0.5319  0.9120
11488SOL    HW136471  10.123   0.355   8.768  0.5816 -1.0658  1.5473
11488SOL    HW236472  10.179   0.475   8.696 -0.8789 -0.9528  0.5578
11489SOL     OW36473  11.029   3.020   3.798 -0.1791 -0.1515 -0.4058
11489SOL    HW136474  11.094   2.986   3.860 -0.8211 -2.1833 -0.7675
11489SOL    HW236475  11.072   3.095   3.758  1.0679 -0.0688  0.9757
11490SOL     OW36476   1.359   9.385   3.030 -0.6530 -0.3070  0.4225
11490SOL    HW136477   1.446   9.345   3.033 -0.9586 -0.9500  3.2679
11490SOL    HW236478   1.302   9.315   3.000 -0.4269 -0.3704  0.1316
11491SOL     OW36479   2.113   0.504   9.080 -0.0933  0.2974  0.1354
11491SOL    HW136480   2.169   0.559   9.135 -2.4601  2.8617  0.1941
11491SOL    HW236481   2.127   0.415   9.114  2.3427  1.0660  1.4297
11492SOL     OW36482   1.874   5.187   2.642  0.6736 -0.4128 -0.1626
11492SOL    HW136483   1.827   5.270   2.637 -1.7066 -1.5431  1.2889
11492SOL    HW236484   1.872   5.152   2.553  0.2390  0.3713 -0.4669
11493SOL     OW36485   9.057   5.744   8.228 -0.2579 -0.0789  0.3826
11493SOL    HW136486   8.972   5.731   8.270  0.8080 -0.8993  2.3933
11493SOL    HW236487   9.057   5.681   8.156 -1.1365 -0.4751  0.7067
11494SOL     OW36488   6.525   0.861   7.895  0.5424 -0.7063  0.0916
11494SOL    HW136489   6.439   0.866   7.854 -0.3155 -0.2093  1.8265
11494SOL    HW236490   6.556   0.772   7.878  0.4363 -0.3917 -1.9220
11495SOL     OW36491   2.757   4.736   8.556 -0.2609 -0.3880  0.0412
11495SOL    HW136492   2.750   4.826   8.587  1.1197 -0.2245 -0.0594
11495SOL    HW236493   2.686   4.689   8.601 -0.8408  0.6810  0.2762
11496SOL     OW36494  10.078   4.208   7.627  0.0814  0.9093 -0.2625
11496SOL    HW136495  10.066   4.264   7.704  0.2989  1.0620 -0.3399
11496SOL    HW236496  10.173   4.206   7.613  0.2506 -0.9426  0.8395
11497SOL     OW36497   8.032   2.423   8.336  0.0268 -0.0359  0.7401
11497SOL    HW136498   7.954   2.479   8.337 -0.0634 -0.0736 -0.9652
11497SOL    HW236499   8.078   2.445   8.417 -0.3983  1.9631  0.5096
11498SOL     OW36500   8.946   9.378   6.011  0.5095  0.0604  0.4141
11498SOL    HW136501   8.883   9.447   6.030  0.1010 -0.0468 -0.4795
11498SOL    HW236502   8.974   9.396   5.921  1.1440 -0.3660  0.5221
11499SOL     OW36503   0.820   0.046   9.743  0.0243 -0.2364  0.2493
11499SOL    HW136504   0.863   0.023   9.661  1.4075  0.7561  0.6705
11499SOL    HW236505   0.793   0.137   9.732 -1.8629 -0.7550  0.0805
11500SOL     OW36506   5.928  10.237   2.581  0.0991  0.0705 -0.0041
11500SOL    HW136507   5.837  10.213   2.567  0.2855 -1.2413  0.8933
11500SOL    HW236508   5.924  10.322   2.626 -0.6926 -0.1932  0.4393
11501SOL     OW36509   4.461   8.207   8.119 -0.0421 -0.7785 -0.2447
11501SOL    HW136510   4.425   8.118   8.116 -0.3023 -0.7454  1.1367
11501SOL    HW236511   4.409   8.251   8.186 -0.5138  0.7115 -1.5441
11502SOL     OW36512   6.318   6.170   3.240  0.1032 -0.1805 -0.2845
11502SOL    HW136513   6.251   6.102   3.237 -1.0135  0.8268  0.7050
11502SOL    HW236514   6.369   6.150   3.318 -0.1449  0.0214 -0.0658
11503SOL     OW36515   2.354   0.160   5.469 -0.0325  0.2373 -0.4135
11503SOL    HW136516   2.265   0.124   5.473 -0.5191  1.4802  1.1202
11503SOL    HW236517   2.386   0.135   5.383 -1.6209 -0.8215 -0.7460
11504SOL     OW36518   5.560   5.165   7.029  0.0314  0.0226 -0.3716
11504SOL    HW136519   5.524   5.254   7.019 -0.1924 -0.0115  0.1028
11504SOL    HW236520   5.652   5.179   7.051  0.2233  0.1183 -1.2120
11505SOL     OW36521   1.544   5.988   3.504  0.2379  0.2481  0.1797
11505SOL    HW136522   1.528   6.080   3.523  0.7591  0.4552 -0.3757
11505SOL    HW236523   1.542   5.945   3.590  0.3718  0.8337  0.4776
11506SOL     OW36524   4.702   9.007   0.888 -0.6156  0.3747 -0.1250
11506SOL    HW136525   4.677   9.099   0.890  0.3609  0.6307  0.8859
11506SOL    HW236526   4.700   8.984   0.795  1.4754  2.0761 -0.6634
11507SOL     OW36527   5.964   0.346   8.911 -0.4175 -0.2868  0.4368
11507SOL    HW136528   5.906   0.320   8.839 -0.3414 -0.1063  0.3093
11507SOL    HW236529   5.979   0.265   8.960  0.4886 -0.6859 -0.4415
11508SOL     OW36530   2.865   5.900   5.648 -0.4658 -0.0983  0.1821
11508SOL    HW136531   2.875   5.979   5.594  0.2149 -0.6066 -0.4443
11508SOL    HW236532   2.814   5.840   5.593 -1.0605 -0.0780  0.6933
11509SOL     OW36533   0.642   8.690   7.044 -0.2627 -0.3669  0.2865
11509SOL    HW136534   0.718   8.632   7.041  0.0788  0.1398 -1.4500
11509SOL    HW236535   0.578   8.649   6.987 -0.2191  0.6711 -0.5370
11510SOL     OW36536   5.060   5.912   2.912 -0.9033  0.3869 -0.2503
11510SOL    HW136537   5.012   5.896   2.994 -2.0159  0.5612 -0.8397
11510SOL    HW236538   5.111   5.991   2.929  0.1274 -0.4767  0.7865
11511SOL     OW36539   5.464   6.317   1.105  0.5051 -0.1225  0.5234
11511SOL    HW136540   5.474   6.238   1.053 -0.4930  0.5031 -0.6824
11511SOL    HW236541   5.551   6.356   1.106  0.6302 -0.3487 -0.3859
11512SOL     OW36542   6.146   1.071   8.347  0.0482 -0.5153 -0.3443
11512SOL    HW136543   6.197   1.038   8.421 -0.3779 -0.2592  0.0737
11512SOL    HW236544   6.170   1.015   8.274  2.5469  0.8718 -0.7187
11513SOL     OW36545   6.955   1.628   6.821  0.8266 -0.5108 -0.2693
11513SOL    HW136546   6.909   1.679   6.755 -0.9123 -0.7203  0.7153
11513SOL    HW236547   6.945   1.537   6.792  3.2025 -0.4242 -1.5810
11514SOL     OW36548   0.743   9.790   8.008 -0.0244  0.0557 -0.0342
11514SOL    HW136549   0.837   9.775   8.001  0.0343  0.5007 -0.2183
11514SOL    HW236550   0.708   9.707   8.041  0.3735 -0.2712 -0.4101
11515SOL     OW36551  10.767   0.066   2.901  0.6737 -0.4283 -0.4088
11515SOL    HW136552  10.734  -0.018   2.931 -1.5254 -0.2829 -2.1448
11515SOL    HW236553  10.764   0.122   2.978  0.9931 -1.5804  0.4728
11516SOL     OW36554   4.770   3.811   6.003  0.3729  0.3890 -0.0983
11516SOL    HW136555   4.779   3.744   5.935  0.8205 -0.9966  1.2605
11516SOL    HW236556   4.855   3.811   6.047  0.2158  1.5344  0.2277
11517SOL     OW36557   7.830  10.347   3.231 -0.7420 -0.2387 -0.1316
11517SOL    HW136558   7.755  10.380   3.180  0.7747  1.2968 -1.5113
11517SOL    HW236559   7.795  10.332   3.319 -2.6224  0.5601 -0.6909
11518SOL     OW36560   2.114   3.397   0.989  0.1013 -0.4906  0.0538
11518SOL    HW136561   2.039   3.415   1.045 -0.2683 -2.1343  0.1531
11518SOL    HW236562   2.190   3.415   1.045 -0.2584 -1.8033  1.0255
11519SOL     OW36563   0.583   4.157  10.775  0.6954 -0.1298  0.1449
11519SOL    HW136564   0.557   4.086  10.716  1.1192 -0.2411  0.0902
11519SOL    HW236565   0.618   4.224  10.716  2.1071 -0.6685  0.3433
11520SOL     OW36566   1.231   9.718   6.788  0.1171 -0.3039  0.6955
11520SOL    HW136567   1.304   9.717   6.849  1.3807  1.9242 -0.6219
11520SOL    HW236568   1.158   9.752   6.839  0.3795 -1.1597  1.6623
11521SOL     OW36569   5.482   9.757   6.239 -0.6225 -0.3077 -0.2089
11521SOL    HW136570   5.536   9.805   6.176 -1.1284  2.4659  1.3395
11521SOL    HW236571   5.401   9.740   6.192 -0.6963  1.0124 -0.6012
11522SOL     OW36572   9.214  10.951   5.522  0.8151 -0.2161  0.4249
11522SOL    HW136573   9.257  10.904   5.593  2.0874 -0.4172 -0.4489
11522SOL    HW236574   9.282  10.962   5.455 -0.0739  0.8542 -0.3455
11523SOL     OW36575  10.986   6.648   3.722 -0.7377  0.0797  0.0509
11523SOL    HW136576  10.976   6.555   3.701 -0.7692  0.0006  0.4133
11523SOL    HW236577  11.080   6.662   3.727 -0.7073  0.2231 -0.6725
11524SOL     OW36578   2.424   4.181   2.888 -0.6361 -0.6525  0.0988
11524SOL    HW136579   2.489   4.111   2.877 -0.4590 -0.4398 -0.2357
11524SOL    HW236580   2.356   4.142   2.943 -0.0396 -0.7565  0.7838
11525SOL     OW36581   9.736  10.344   2.068  0.7927 -0.1592  0.0066
11525SOL    HW136582   9.759  10.283   2.138  2.8905  0.4972 -0.0658
11525SOL    HW236583   9.680  10.409   2.110  1.1448 -0.3642  0.8087
11526SOL     OW36584  10.013   4.829   6.455  0.8973 -0.0633  0.0058
11526SOL    HW136585  10.084   4.892   6.440  1.3879 -0.2076  1.5042
11526SOL    HW236586  10.011   4.819   6.551 -1.2462  0.0410  0.0108
11527SOL     OW36587   2.914   8.513   8.727  0.3075 -0.0773  0.0656
11527SOL    HW136588   2.874   8.531   8.812 -1.1688 -1.7965 -0.2135
11527SOL    HW236589   3.007   8.501   8.747  0.1346  0.4217  1.2846
11528SOL     OW36590   8.790   5.775   3.333  0.4446 -0.3343  0.2883
11528SOL    HW136591   8.701   5.777   3.296  0.1424 -0.9590  0.9659
11528SOL    HW236592   8.843   5.737   3.263  0.5085  1.5423 -0.7507
11529SOL     OW36593   6.261   0.658  10.393  0.1730 -0.2565  0.2922
11529SOL    HW136594   6.243   0.591  10.459 -0.9241  0.5190  0.8151
11529SOL    HW236595   6.237   0.740  10.436 -0.2669  0.2887 -0.9580
11530SOL     OW36596   3.672   9.733   6.678  0.3168 -0.9516 -0.6184
11530SOL    HW136597   3.714   9.683   6.748  2.0710 -1.7226 -2.1495
11530SOL    HW236598   3.704   9.823   6.691  0.6534 -1.0960 -0.4422
11531SOL     OW36599   6.474   8.875   4.239  0.3781  0.1053  0.2730
11531SOL    HW136600   6.436   8.805   4.293 -0.1057 -0.6722 -1.0173
11531SOL    HW236601   6.425   8.953   4.263  1.1981  0.1136  2.0342
11532SOL     OW36602   8.281   8.657   5.184 -0.3616  0.2367  0.0268
11532SOL    HW136603   8.194   8.623   5.206 -0.4286  1.3519  1.6182
11532SOL    HW236604   8.341   8.586   5.206 -0.8293 -0.4057 -0.7348
11533SOL     OW36605   7.405   1.072  10.983 -0.0654  0.5760  0.1785
11533SOL    HW136606   7.405   1.167  10.971  1.2204  0.3291 -2.5950
11533SOL    HW236607   7.493   1.045  10.958 -0.8079 -1.4818 -0.3878
11534SOL     OW36608   1.297   0.259   9.839 -0.2059 -0.1118  0.0185
11534SOL    HW136609   1.219   0.252   9.784  0.0029  0.6611 -0.3949
11534SOL    HW236610   1.286   0.342   9.887  0.1077 -0.2615  0.3603
11535SOL     OW36611   8.357   8.710   3.253  0.5236  0.0428  0.1088
11535SOL    HW136612   8.387   8.693   3.343 -0.9047 -0.4153  0.5228
11535SOL    HW236613   8.414   8.656   3.198 -0.6340 -2.2137  1.0035
11536SOL     OW36614   5.778   5.811   6.192 -0.0043 -0.2013  0.2151
11536SOL    HW136615   5.741   5.897   6.211 -1.4001 -0.6460 -0.3885
11536SOL    HW236616   5.798   5.775   6.279 -1.5796 -0.1792  0.6250
11537SOL     OW36617   8.393   6.731   4.479 -0.0871 -0.3804 -0.2799
11537SOL    HW136618   8.396   6.737   4.574 -0.4045 -1.5801 -0.1899
11537SOL    HW236619   8.448   6.804   4.449 -2.3293  1.8765  0.7289
11538SOL     OW36620  10.225   1.192  10.184 -0.2520  0.6196 -0.0847
11538SOL    HW136621  10.130   1.191  10.200  0.0898  1.3029  2.4289
11538SOL    HW236622  10.237   1.255  10.113 -1.6332  0.9260 -0.0745
11539SOL     OW36623   5.143   1.845   3.578 -0.2262  0.4225  0.1183
11539SOL    HW136624   5.065   1.838   3.632 -0.5156 -1.1206 -0.4690
11539SOL    HW236625   5.205   1.782   3.615  0.0607  0.3103 -0.5314
11540SOL     OW36626   5.601   6.945   2.732  0.0958 -0.3603  0.4744
11540SOL    HW136627   5.647   7.016   2.688  2.0850 -2.1553 -0.5740
11540SOL    HW236628   5.513   6.946   2.694  0.6138  0.5001 -0.7666
11541SOL     OW36629   3.556   4.942   6.772 -0.3237  0.4641  0.2655
11541SOL    HW136630   3.571   4.924   6.865  0.2653 -1.0852 -0.1146
11541SOL    HW236631   3.644   4.950   6.735 -0.5088 -0.9797 -0.5332
11542SOL     OW36632   4.986   2.699   6.737  0.1634 -0.4091  0.0322
11542SOL    HW136633   4.903   2.700   6.785 -0.9426  0.8078 -1.8041
11542SOL    HW236634   5.022   2.611   6.753 -1.3667 -0.8917  1.0139
11543SOL     OW36635   5.277   2.080   6.699  0.4539  0.0166 -0.5471
11543SOL    HW136636   5.243   2.049   6.615  2.8538 -1.0683 -1.2095
11543SOL    HW236637   5.359   2.125   6.677  2.4495 -2.3751  1.3023
11544SOL     OW36638   8.503   5.359   0.605  0.1083 -0.4182  0.3937
11544SOL    HW136639   8.540   5.295   0.544 -1.0813  0.1886 -1.0176
11544SOL    HW236640   8.573   5.424   0.617 -0.4608  0.8738 -2.4622
11545SOL     OW36641   8.121  10.034   3.914  0.5057 -0.1419 -0.2607
11545SOL    HW136642   8.041  10.085   3.911  0.6367  0.1099  0.4438
11545SOL    HW236643   8.110   9.974   3.987  0.5087 -0.8754 -0.8458
11546SOL     OW36644  10.763   9.444   1.133 -0.1152 -0.3888 -1.0562
11546SOL    HW136645  10.726   9.373   1.186 -0.2807  1.9402  2.3119
11546SOL    HW236646  10.848   9.462   1.175  0.1371  1.0817 -2.1343
11547SOL     OW36647   9.693   5.323   7.358  0.3518  0.3686 -0.3363
11547SOL    HW136648   9.755   5.326   7.430 -1.2002  2.2296  1.0196
11547SOL    HW236649   9.637   5.248   7.377  0.4587  0.3598 -0.0499
11548SOL     OW36650   7.265   0.482   5.160  0.2328  0.4033 -0.5502
11548SOL    HW136651   7.358   0.494   5.180  0.4629  0.0391 -1.3385
11548SOL    HW236652   7.248   0.546   5.091  0.1443 -0.1524 -1.0591
11549SOL     OW36653   9.563  10.756   9.176 -0.2202 -0.0211  0.1695
11549SOL    HW136654   9.619  10.751   9.099 -2.4568 -0.8585 -1.4913
11549SOL    HW236655   9.487  10.807   9.148  0.2837  2.4515  2.8095
11550SOL     OW36656  10.180   2.750  10.373 -0.1405 -0.1616  0.3404
11550SOL    HW136657  10.202   2.689  10.303 -1.2416 -0.9004  0.6163
11550SOL    HW236658  10.178   2.836  10.330  0.9609 -0.3601 -0.1446
11551SOL     OW36659   0.449   4.413   7.679  0.1661  0.7195  0.3433
11551SOL    HW136660   0.447   4.389   7.772 -0.0177  0.1379  0.1925
11551SOL    HW236661   0.357   4.427   7.655  0.3059  2.1344  0.5616
11552SOL     OW36662   4.451   7.090   3.028  0.2582  0.3430 -0.1165
11552SOL    HW136663   4.408   7.102   3.112 -2.3821 -0.3980 -1.2469
11552SOL    HW236664   4.539   7.126   3.040 -1.2441  3.8364  1.8242
11553SOL     OW36665   0.300   5.840   8.118 -0.5736  0.0122 -0.3363
11553SOL    HW136666   0.386   5.850   8.077 -1.5862  3.8536 -1.9364
11553SOL    HW236667   0.312   5.872   8.208  0.2555 -2.5255  0.5451
11554SOL     OW36668  10.435   8.745  10.727 -0.0100  0.0125  0.4841
11554SOL    HW136669  10.346   8.777  10.745 -0.2163 -0.8086  0.9930
11554SOL    HW236670  10.451   8.679  10.795  1.0235  0.2087  0.4450
11555SOL     OW36671   8.206   8.993   6.756 -0.5118  0.1475 -0.3468
11555SOL    HW136672   8.156   9.059   6.804  1.5177  2.3391 -1.0629
11555SOL    HW236673   8.228   8.927   6.821  0.1153  1.8156  1.2357
11556SOL     OW36674   5.283   9.081   2.241 -0.3235  0.0014 -0.1201
11556SOL    HW136675   5.257   8.994   2.272  0.7536 -0.2339  0.1742
11556SOL    HW236676   5.211   9.109   2.184 -2.5892  0.5601  2.7200
11557SOL     OW36677   2.430   2.039   5.711  0.2985  0.2232  0.2093
11557SOL    HW136678   2.492   2.077   5.774  1.0510  0.2596 -0.5448
11557SOL    HW236679   2.408   2.111   5.652  0.0167  0.0453  0.0953
11558SOL     OW36680   7.224   6.900   7.533  0.3227 -0.5797 -0.1888
11558SOL    HW136681   7.308   6.864   7.560  1.2994  0.1872 -2.0174
11558SOL    HW236682   7.175   6.909   7.615  1.9724 -1.1271  0.9274
11559SOL     OW36683   5.239   4.305   8.777  0.4350  0.2847 -0.0570
11559SOL    HW136684   5.179   4.291   8.851  0.1114 -0.6993 -0.4944
11559SOL    HW236685   5.326   4.295   8.815  0.3207  1.1090  0.4554
11560SOL     OW36686   3.234   7.906   7.547 -0.1985  0.4190  0.1896
11560SOL    HW136687   3.162   7.927   7.488  0.4001 -1.7041 -1.3935
11560SOL    HW236688   3.202   7.833   7.599  0.8117 -0.6254 -0.6103
11561SOL     OW36689   3.473   9.323   2.340 -0.0435 -0.1026  0.4466
11561SOL    HW136690   3.396   9.366   2.378 -1.2773 -0.5219 -1.4933
11561SOL    HW236691   3.439   9.246   2.296  1.2239  0.5524 -1.8414
11562SOL     OW36692   0.724   8.745   0.748  0.2512  0.1254  0.3458
11562SOL    HW136693   0.758   8.761   0.660  0.0242  0.3903  0.3061
11562SOL    HW236694   0.783   8.794   0.805 -0.2412  0.8388  0.2516
11563SOL     OW36695   4.685   8.673   7.415 -0.0053  0.0355  0.1396
11563SOL    HW136696   4.596   8.664   7.380 -0.0982 -0.4481  0.4936
11563SOL    HW236697   4.728   8.591   7.392  0.8839  0.9215 -1.5077
11564SOL     OW36698   7.479   7.514  10.170  0.0748  0.6399 -0.4802
11564SOL    HW136699   7.418   7.531  10.242  0.9619  0.4915  0.3275
11564SOL    HW236700   7.532   7.440  10.200  0.7600  0.8676 -1.0927
11565SOL     OW36701   5.124   6.544   6.143  0.2130  0.1163  0.0116
11565SOL    HW136702   5.142   6.632   6.113 -1.5736  1.2651  1.9878
11565SOL    HW236703   5.033   6.527   6.116  0.0054 -0.4626  1.0085
11566SOL     OW36704   0.825   5.147   7.327 -0.0955 -0.0222 -0.0479
11566SOL    HW136705   0.832   5.226   7.380 -2.2505  0.1960  0.0085
11566SOL    HW236706   0.816   5.076   7.391 -2.5117  0.2214 -0.0176
11567SOL     OW36707   1.897   6.090   4.732  0.3641  0.0210  0.2461
11567SOL    HW136708   1.866   6.145   4.804 -0.5517 -0.3309  0.1349
11567SOL    HW236709   1.825   6.029   4.716  1.3983 -1.2881  0.4405
11568SOL     OW36710   9.130   5.905   1.430  0.4317 -0.4681  0.1221
11568SOL    HW136711   9.168   5.968   1.369  1.3607 -0.1995  0.9541
11568SOL    HW236712   9.165   5.820   1.402  1.6786 -0.2270  0.8716
11569SOL     OW36713   8.332   8.271   6.272  0.7569  0.0765 -0.3779
11569SOL    HW136714   8.263   8.299   6.333  1.5854 -1.1061  1.1812
11569SOL    HW236715   8.289   8.209   6.214  0.0459  0.9020 -0.7596
11570SOL     OW36716   7.088   0.129   1.528 -0.4317 -0.3307 -0.1400
11570SOL    HW136717   6.993   0.136   1.523 -0.4954 -0.7828  0.3343
11570SOL    HW236718   7.112   0.181   1.605 -0.3865 -0.9165  0.2485
11571SOL     OW36719   0.523   6.988   8.276 -0.2079 -0.7082 -0.4615
11571SOL    HW136720   0.614   6.960   8.262  0.1409  0.6649 -1.0338
11571SOL    HW236721   0.474   6.906   8.281  0.7694 -1.4493 -2.1116
11572SOL     OW36722   4.601   7.965   7.529  0.3084  0.0708 -0.9777
11572SOL    HW136723   4.571   7.920   7.450 -1.1008 -0.2662 -0.2774
11572SOL    HW236724   4.532   7.950   7.593  1.0025  1.1105  0.0526
11573SOL     OW36725   3.839   6.150   7.484  0.6818  0.1975 -0.4607
11573SOL    HW136726   3.794   6.232   7.461  2.0319  0.3148 -3.1073
11573SOL    HW236727   3.772   6.082   7.475  0.4785  0.5969 -2.2838
11574SOL     OW36728   1.398   4.353   7.815  0.3183 -0.3617  0.1898
11574SOL    HW136729   1.325   4.412   7.831  0.1814 -0.2746 -0.7054
11574SOL    HW236730   1.469   4.409   7.783  0.3240 -0.6231 -0.2660
11575SOL     OW36731   5.485   9.197   4.131 -0.1848  0.6510 -0.6344
11575SOL    HW136732   5.546   9.142   4.082  1.2933  0.1750  1.6026
11575SOL    HW236733   5.398   9.164   4.106  0.5811 -0.9034 -1.3707
11576SOL     OW36734   8.290   6.487   3.499 -0.1762  0.2608 -0.1439
11576SOL    HW136735   8.340   6.466   3.577 -1.4809 -0.2580  0.5775
11576SOL    HW236736   8.328   6.569   3.467 -1.0152  1.6560  2.2603
11577SOL     OW36737   4.475   1.145   9.887 -0.6319 -0.4867  0.2384
11577SOL    HW136738   4.506   1.078   9.827  0.5160 -0.2094  0.5086
11577SOL    HW236739   4.517   1.225   9.858 -0.8816 -0.1525  0.7785
11578SOL     OW36740   4.149   6.174   4.133  0.5029 -0.4321 -0.0311
11578SOL    HW136741   4.178   6.259   4.167 -0.7121 -0.1314  0.3090
11578SOL    HW236742   4.096   6.195   4.056  1.0086 -0.9488 -0.5271
11579SOL     OW36743   5.007   8.849  10.708 -0.2740 -0.4507  0.4416
11579SOL    HW136744   4.924   8.814  10.677 -0.1824 -1.2859  1.1163
11579SOL    HW236745   5.072   8.818  10.644 -0.4850  0.3444 -0.1807
11580SOL     OW36746   8.485   3.181   3.019  0.0238 -0.1058 -0.8086
11580SOL    HW136747   8.415   3.235   3.055  1.8230  1.9156 -0.1219
11580SOL    HW236748   8.499   3.216   2.931  1.0648  0.4516 -0.4385
11581SOL     OW36749   8.273   6.151   3.992  0.0190 -0.0343  0.0508
11581SOL    HW136750   8.190   6.166   3.949  0.3322  2.5095  0.1971
11581SOL    HW236751   8.281   6.056   3.996 -1.4819 -0.3640 -2.6040
11582SOL     OW36752   8.783   7.827   9.285 -0.1190  0.1378  0.0862
11582SOL    HW136753   8.780   7.779   9.368  0.1124  3.6038  2.2817
11582SOL    HW236754   8.694   7.860   9.273 -0.0089  0.1568 -0.7666
11583SOL     OW36755   3.244   0.697  10.327  0.1769 -0.4800 -0.6477
11583SOL    HW136756   3.230   0.791  10.326  0.7506 -0.3486  0.8271
11583SOL    HW236757   3.166   0.661  10.370  0.2014 -0.6286 -0.7243
11584SOL     OW36758   2.948   6.625   0.367 -0.2461 -0.8427  0.0644
11584SOL    HW136759   2.988   6.566   0.303  1.0956 -0.3685  0.4262
11584SOL    HW236760   2.974   6.589   0.452  0.4421  0.1241  0.2923
11585SOL     OW36761   2.059  10.212   2.471  0.1506  0.3663  0.6644
11585SOL    HW136762   1.990  10.161   2.514  0.6753 -0.2690  0.7732
11585SOL    HW236763   2.012  10.279   2.422 -0.5853 -0.4596  0.2151
11586SOL     OW36764   9.187   6.975   7.600  0.2133  0.1290 -0.2888
11586SOL    HW136765   9.142   6.974   7.516 -2.1354  2.1876  0.8079
11586SOL    HW236766   9.149   6.902   7.649  1.1098 -0.6603 -0.7246
11587SOL     OW36767   9.322   1.867   8.581 -0.0488 -0.0193 -0.8566
11587SOL    HW136768   9.230   1.889   8.577 -0.2729 -1.0035 -1.3789
11587SOL    HW236769   9.361   1.911   8.506  0.1970  1.5664  0.1353
11588SOL     OW36770   2.727   5.245   1.885 -0.2283 -0.1609 -0.0771
11588SOL    HW136771   2.643   5.281   1.914  0.3050  0.0126  1.3169
11588SOL    HW236772   2.715   5.230   1.791 -1.2792  1.3832 -0.2342
11589SOL     OW36773   7.331   4.297   7.459 -0.4653 -0.4359  0.0120
11589SOL    HW136774   7.328   4.287   7.364 -0.1399 -1.0202  0.0635
11589SOL    HW236775   7.348   4.210   7.492  0.7528 -0.0137  0.5391
11590SOL     OW36776   7.191  10.702   0.447 -0.0042 -0.3341 -0.1475
11590SOL    HW136777   7.274  10.741   0.473  0.2833 -0.4487 -0.8916
11590SOL    HW236778   7.153  10.670   0.529 -0.1240  1.2374  0.4499
11591SOL     OW36779   1.660   4.999   9.807  0.5665  0.2851 -0.3719
11591SOL    HW136780   1.729   5.060   9.832 -0.1900  0.8775  0.3300
11591SOL    HW236781   1.597   5.053   9.760  0.1527 -0.0653 -0.2251
11592SOL     OW36782   4.397   9.018  10.143  0.1918 -0.2276  0.0676
11592SOL    HW136783   4.431   8.932  10.116 -0.4599 -0.5089  0.1359
11592SOL    HW236784   4.307   9.020  10.110 -0.1475 -0.0044  0.9853
11593SOL     OW36785   7.629   5.012   3.996 -0.1250  0.0691 -0.5361
11593SOL    HW136786   7.608   5.077   4.062 -3.8979  1.4639 -2.7890
11593SOL    HW236787   7.590   4.930   4.028  0.9279 -0.0920  0.3742
11594SOL     OW36788  10.121   7.978  10.584 -0.4277  0.3374 -0.3927
11594SOL    HW136789  10.207   7.944  10.558 -0.8533 -0.1693 -1.1400
11594SOL    HW236790  10.088   8.022  10.506 -0.3143  1.6491  0.2614
11595SOL     OW36791  10.848   4.723   2.534  0.1353 -0.8119 -0.0363
11595SOL    HW136792  10.907   4.797   2.541 -1.1948  0.1301  2.9897
11595SOL    HW236793  10.829   4.715   2.440  1.3465  1.8005 -0.5760
11596SOL     OW36794   6.837   7.917   7.747  0.1198  0.7632 -0.5381
11596SOL    HW136795   6.918   7.957   7.715  0.9451 -0.2714  0.1804
11596SOL    HW236796   6.843   7.926   7.842 -0.8936  1.1749 -0.5007
11597SOL     OW36797   1.932   7.251   5.831  0.2513  0.3222 -0.0565
11597SOL    HW136798   1.880   7.207   5.899  1.7597 -1.6610 -0.1070
11597SOL    HW236799   1.867   7.296   5.777 -1.1306  0.5423  1.6800
11598SOL     OW36800   5.854   3.134   7.984  0.1000  0.3418  0.1246
11598SOL    HW136801   5.925   3.072   7.966  0.4473  1.0006 -0.7777
11598SOL    HW236802   5.774   3.084   7.967  0.3754  0.0898 -0.4333
11599SOL     OW36803   7.575   9.955   3.331 -0.3265  0.1620 -0.3572
11599SOL    HW136804   7.667   9.935   3.345 -0.6630  0.2818  2.6352
11599SOL    HW236805   7.551   9.905   3.253  1.2241 -3.3922  1.2403
11600SOL     OW36806   7.518   3.477   9.041 -0.2046  0.1147 -0.0282
11600SOL    HW136807   7.482   3.565   9.044 -0.8707 -0.0359 -1.9755
11600SOL    HW236808   7.596   3.484   8.985  1.2287 -0.1087  1.8268
11601SOL     OW36809   3.274   1.483   6.650 -0.0835 -0.3945  0.0616
11601SOL    HW136810   3.219   1.418   6.606  0.0684 -0.0165 -0.6942
11601SOL    HW236811   3.216   1.521   6.716 -0.8084  0.1251 -0.8431
11602SOL     OW36812  10.596   0.971   1.538  0.3474  0.4138 -0.4559
11602SOL    HW136813  10.576   0.992   1.629  1.7883 -0.1349  0.0173
11602SOL    HW236814  10.515   0.990   1.490 -0.5093  0.4560  0.9698
11603SOL     OW36815   0.645   4.804   9.007  0.2505  0.1257 -0.6361
11603SOL    HW136816   0.651   4.718   8.965 -0.4579  0.2965 -1.1150
11603SOL    HW236817   0.572   4.847   8.961 -0.3878  0.4118  0.6064
11604SOL     OW36818   8.638   2.735   7.181  0.0185  0.0480  0.2852
11604SOL    HW136819   8.572   2.696   7.238  1.7513 -1.7038  1.1835
11604SOL    HW236820   8.631   2.686   7.099 -0.3632  0.4550  0.0695
11605SOL     OW36821   5.511   3.963   6.857 -0.0973  0.7327 -0.7796
11605SOL    HW136822   5.589   3.911   6.880 -1.5323 -1.2014  0.0253
11605SOL    HW236823   5.540   4.054   6.863  2.1499  0.0708 -0.7111
11606SOL     OW36824   5.368   2.895   6.498 -0.7500  0.0388 -0.2922
11606SOL    HW136825   5.315   2.969   6.470 -1.3422  0.1271  0.9886
11606SOL    HW236826   5.346   2.825   6.437 -2.7185 -0.0652  0.4762
11607SOL     OW36827  10.342   7.852   1.811  0.1617 -0.5937  0.4379
11607SOL    HW136828  10.334   7.940   1.775 -0.6905 -0.5535  0.7032
11607SOL    HW236829  10.421   7.855   1.866 -0.1905  0.1632  0.9084
11608SOL     OW36830   4.675   0.727   6.923  0.7016  0.3156  0.0479
11608SOL    HW136831   4.758   0.751   6.965  0.1378  1.6022  0.4730
11608SOL    HW236832   4.649   0.805   6.875  0.9589 -0.8881 -2.1842
11609SOL     OW36833   2.569   1.038   6.214  0.3377  0.1251  0.0624
11609SOL    HW136834   2.650   1.001   6.178  0.8718  0.2529  1.0996
11609SOL    HW236835   2.520   0.962   6.246 -0.8794 -0.1679 -2.2955
11610SOL     OW36836   1.810   2.302   2.606 -0.5966  0.2615  0.3762
11610SOL    HW136837   1.850   2.215   2.607  0.0917  0.5594  1.8986
11610SOL    HW236838   1.746   2.300   2.677 -0.5332  1.0150  0.4652
11611SOL     OW36839   0.106   1.524   8.395  0.4325  0.2146 -0.3897
11611SOL    HW136840   0.019   1.539   8.432  0.7303  0.6918  0.1172
11611SOL    HW236841   0.089   1.507   8.302 -0.0221  2.6733 -0.8213
11612SOL     OW36842   2.595   2.878   0.812 -0.6092  0.7508  0.7654
11612SOL    HW136843   2.533   2.950   0.823 -0.1930  1.2046  0.1973
11612SOL    HW236844   2.571   2.838   0.728  0.2969  1.3726  0.1917
11613SOL     OW36845   0.754   6.214   3.342  0.3308  0.0478 -0.1280
11613SOL    HW136846   0.787   6.303   3.336  0.2818  0.1450  0.9053
11613SOL    HW236847   0.688   6.208   3.273  0.6905  0.6383 -0.5366
11614SOL     OW36848   6.032   9.434  10.970  0.3453  0.0458  0.2437
11614SOL    HW136849   6.044   9.479  11.053 -1.1490  0.1828  0.4179
11614SOL    HW236850   6.108   9.459  10.917  1.5113 -0.3615  1.6847
11615SOL     OW36851   0.217   2.770   6.523 -0.0062 -0.0894 -0.9799
11615SOL    HW136852   0.239   2.703   6.459 -1.2907 -0.8344 -0.6643
11615SOL    HW236853   0.219   2.852   6.474 -0.4784 -0.5951 -1.8629
11616SOL     OW36854   1.801  10.246   0.501 -0.1622 -0.2343  0.0242
11616SOL    HW136855   1.821  10.188   0.427  1.8434  1.0853 -0.5584
11616SOL    HW236856   1.733  10.304   0.467 -1.6953 -1.7213  0.3891
11617SOL     OW36857   4.276   0.532   1.092 -0.3674  0.1258  0.3035
11617SOL    HW136858   4.353   0.488   1.128 -0.2133  0.4037  0.3187
11617SOL    HW236859   4.202   0.485   1.130 -0.2378 -1.4271 -1.2320
11618SOL     OW36860   1.157   6.817   8.503  0.1723 -0.0264 -0.0648
11618SOL    HW136861   1.170   6.737   8.553  0.4937  0.6351  0.9212
11618SOL    HW236862   1.202   6.885   8.553  0.9762  0.5628 -1.5249
11619SOL     OW36863   6.662   0.258   5.105 -0.1215 -0.0944  0.2365
11619SOL    HW136864   6.620   0.207   5.036  0.9017 -0.7385  0.0725
11619SOL    HW236865   6.597   0.261   5.175 -0.7314 -0.4120 -0.2994
11620SOL     OW36866   0.200   4.423   2.213  0.7305 -0.2088  0.3252
11620SOL    HW136867   0.280   4.375   2.232  1.6886  0.8078 -0.9291
11620SOL    HW236868   0.201   4.498   2.273  1.6032  0.7006 -0.7707
11621SOL     OW36869   2.815  10.153   3.521 -0.1262 -0.2104  0.4932
11621SOL    HW136870   2.784  10.073   3.563  2.2267  0.1683  3.3218
11621SOL    HW236871   2.853  10.204   3.593  2.8906  1.2338 -1.9154
11622SOL     OW36872   6.972   2.011   9.989 -0.7974  0.1888  0.2944
11622SOL    HW136873   6.981   2.106  10.000 -3.5978  0.2696  3.5529
11622SOL    HW236874   6.903   2.001   9.924  1.0800  0.2269 -1.8058
11623SOL     OW36875   9.885   1.326   2.762  0.0525 -0.1902 -0.1238
11623SOL    HW136876   9.899   1.404   2.710  0.7796 -0.9299 -1.0756
11623SOL    HW236877   9.968   1.278   2.755 -0.0115 -0.5524  1.2972
11624SOL     OW36878   1.189   0.000   4.602  0.2109 -0.2257 -0.3869
11624SOL    HW136879   1.184  -0.059   4.527  1.2188 -2.7833  1.4264
11624SOL    HW236880   1.281  -0.001   4.628 -0.2983 -0.2955  1.5331
11625SOL     OW36881  10.433   7.599   7.892 -0.2746  0.2251  0.0009
11625SOL    HW136882  10.473   7.684   7.910  1.0574 -0.5505  0.8684
11625SOL    HW236883  10.465   7.542   7.962 -0.1153 -1.3050 -1.2588
11626SOL     OW36884   2.198   3.271  10.947 -0.5888  0.1725  0.4307
11626SOL    HW136885   2.169   3.185  10.977 -0.7825  0.1565  0.1969
11626SOL    HW236886   2.238   3.311  11.025 -0.1958 -0.2578  0.4503
11627SOL     OW36887   5.534   8.656   0.681  0.3316  0.3697 -0.1064
11627SOL    HW136888   5.544   8.705   0.600  2.4838  0.2225  0.0058
11627SOL    HW236889   5.452   8.609   0.671 -0.5196  2.0056 -1.2778
11628SOL     OW36890   5.632  10.338   6.218  0.0783 -0.3813  0.4975
11628SOL    HW136891   5.609  10.428   6.197 -1.0739 -0.5434  0.9989
11628SOL    HW236892   5.554  10.302   6.260 -0.6828 -2.5356 -2.3556
11629SOL     OW36893   5.288   7.282   0.868 -0.1514  0.1238  0.0034
11629SOL    HW136894   5.372   7.301   0.910 -0.8490  2.5842  0.4613
11629SOL    HW236895   5.223   7.322   0.926 -1.3270  1.6793 -2.2236
11630SOL     OW36896   5.265   1.039   6.543  0.6486  0.1245 -0.5397
11630SOL    HW136897   5.283   0.965   6.601 -1.8778 -0.1853 -0.0671
11630SOL    HW236898   5.276   1.004   6.455 -0.0574 -0.7126 -0.3109
11631SOL     OW36899   3.669   4.662   6.665 -0.1374  0.4223  0.0509
11631SOL    HW136900   3.689   4.756   6.662  0.0676  0.3516 -2.1092
11631SOL    HW236901   3.718   4.630   6.741 -0.4252  2.0823  0.9972
11632SOL     OW36902   2.481   2.332   1.001 -0.0454 -0.3782  0.7044
11632SOL    HW136903   2.530   2.403   0.960 -0.6598 -0.0333  0.5547
11632SOL    HW236904   2.393   2.340   0.966 -1.2451  1.3495  3.6887
11633SOL     OW36905   5.239   4.146   9.625 -0.3381 -0.3692  0.4022
11633SOL    HW136906   5.310   4.197   9.665  0.5479  0.9594 -2.5281
11633SOL    HW236907   5.160   4.179   9.667  0.6083 -1.2424  3.1251
11634SOL     OW36908   6.326   6.261  10.309  0.4437  0.8354 -0.0190
11634SOL    HW136909   6.254   6.222  10.258 -0.8054  0.9258  1.6224
11634SOL    HW236910   6.385   6.187  10.326 -1.0854 -0.0636  1.6676
11635SOL     OW36911   8.043   7.677   4.482  0.3528  0.4379  0.0474
11635SOL    HW136912   8.065   7.702   4.572  1.7793 -3.3822  0.9603
11635SOL    HW236913   8.112   7.715   4.428  2.1927 -1.0121  1.2684
11636SOL     OW36914   0.416   2.123   8.040  0.2200 -0.0454  0.1318
11636SOL    HW136915   0.385   2.130   8.131  0.0209 -0.7693  0.1242
11636SOL    HW236916   0.355   2.063   7.999 -0.0042  0.6942 -0.6338
11637SOL     OW36917   1.901   0.695  10.373 -0.6097  0.6732 -0.1256
11637SOL    HW136918   1.949   0.613  10.362 -0.4198  0.6277  0.9241
11637SOL    HW236919   1.815   0.678  10.334 -0.7955 -0.2551  0.6300
11638SOL     OW36920   4.679   7.647   0.165  0.0035 -0.0978  0.3983
11638SOL    HW136921   4.694   7.683   0.078 -1.6430 -0.1871  0.0475
11638SOL    HW236922   4.702   7.554   0.157 -1.3581 -0.3970 -0.3211
11639SOL     OW36923   9.398   6.958  10.049 -0.0901 -0.3953  0.3023
11639SOL    HW136924   9.390   6.999  10.134  0.2220 -2.2175  1.2626
11639SOL    HW236925   9.312   6.921  10.032 -0.4165  0.7195 -0.6266
11640SOL     OW36926   9.009   8.269   5.157  0.2113  0.1592 -0.3438
11640SOL    HW136927   8.923   8.312   5.162 -0.7152 -1.5101 -1.3434
11640SOL    HW236928   9.001   8.194   5.216  1.2808  0.4125  0.1523
11641SOL     OW36929   9.987   3.461   2.334  0.7451 -0.3041 -0.0580
11641SOL    HW136930  10.026   3.375   2.353 -0.7803 -1.0497 -0.2101
11641SOL    HW236931   9.905   3.441   2.289 -0.4027  1.1824  1.2911
11642SOL     OW36932   3.523   1.000   8.549 -0.1102  0.0398 -0.3827
11642SOL    HW136933   3.580   1.037   8.482  0.1778  1.0803  0.4160
11642SOL    HW236934   3.571   1.013   8.631 -0.6737 -0.7692  0.0959
11643SOL     OW36935   7.047   1.911   3.530 -0.5590  0.1128  0.4333
11643SOL    HW136936   7.016   1.998   3.504 -1.3154  0.2760  1.7987
11643SOL    HW236937   6.973   1.872   3.577  0.0582 -0.9461  0.5591
11644SOL     OW36938   2.379   3.196   2.179 -0.7731 -0.1750 -0.0042
11644SOL    HW136939   2.317   3.125   2.197 -0.5673 -0.0090  1.4443
11644SOL    HW236940   2.415   3.175   2.093 -2.4012 -0.5856 -0.6270
11645SOL     OW36941   9.197   4.314   8.942 -0.2437  0.0217 -0.3810
11645SOL    HW136942   9.148   4.388   8.978  1.0483 -0.2444  2.1561
11645SOL    HW236943   9.287   4.345   8.937 -0.1498 -0.4350 -2.2266
11646SOL     OW36944   7.185   0.654   2.260  0.6014 -0.1171 -0.1444
11646SOL    HW136945   7.225   0.739   2.281  0.6057 -0.3217  0.6736
11646SOL    HW236946   7.091   0.668   2.273  0.3885  0.2688 -1.7585
11647SOL     OW36947   4.310   6.029   7.118 -0.1342 -0.4877 -0.3826
11647SOL    HW136948   4.316   5.934   7.112  1.5489 -0.3525 -1.2739
11647SOL    HW236949   4.231   6.051   7.069 -1.4841 -1.5171  1.2298
11648SOL     OW36950   5.964   4.983   8.184  0.2211  0.0221  0.2272
11648SOL    HW136951   6.060   4.978   8.182  0.1907 -1.2420  1.0341
11648SOL    HW236952   5.936   4.942   8.102  0.3561 -0.4455  0.4108
11649SOL     OW36953   4.302   9.592   8.473  0.0948  0.1010  0.0385
11649SOL    HW136954   4.229   9.651   8.493 -1.6775 -1.8816 -0.2887
11649SOL    HW236955   4.322   9.610   8.381 -0.2392  0.3935  0.0186
11650SOL     OW36956   5.083   6.430   4.224  0.6977 -0.1774  0.5494
11650SOL    HW136957   5.005   6.433   4.279  0.3908 -0.0557  0.1036
11650SOL    HW236958   5.148   6.384   4.278  0.1564 -0.7577  0.7074
11651SOL     OW36959   8.479  10.045   8.726 -0.2560 -0.2783 -0.7530
11651SOL    HW136960   8.443  10.073   8.642 -1.4148  1.0353  0.1248
11651SOL    HW236961   8.574  10.049   8.715 -0.3842  1.7153 -1.4527
11652SOL     OW36962   8.911   1.811   7.356 -0.3271 -0.3447 -0.3576
11652SOL    HW136963   8.897   1.902   7.382 -1.7186 -0.1244 -1.7580
11652SOL    HW236964   8.894   1.810   7.262 -0.2407 -2.0507 -0.3852
11653SOL     OW36965   8.455   9.690   4.122  0.0726 -0.1834 -0.5120
11653SOL    HW136966   8.390   9.627   4.090  0.8641 -1.0434 -0.4519
11653SOL    HW236967   8.440   9.694   4.217 -0.1014 -0.1344 -0.5414
11654SOL     OW36968   9.320   1.430   8.297 -0.1334  0.0253 -0.1041
11654SOL    HW136969   9.255   1.405   8.363 -0.5424 -1.4400 -1.0377
11654SOL    HW236970   9.285   1.397   8.215  0.8955  0.8968 -0.9160
11655SOL     OW36971   5.229   6.413   1.012  0.3203 -0.0156  0.3986
11655SOL    HW136972   5.314   6.382   1.042  0.4279  0.6794  0.8220
11655SOL    HW236973   5.207   6.354   0.939  0.7157 -0.8076  0.8992
11656SOL     OW36974   9.640  11.035   2.747  0.3249  0.7659 -0.5108
11656SOL    HW136975   9.615  11.077   2.665  1.7343 -0.6840 -1.7670
11656SOL    HW236976   9.720  11.081   2.774  0.1869  0.8656 -0.2763
11657SOL     OW36977   6.973   8.588   8.452  0.3145  0.0172 -0.1542
11657SOL    HW136978   6.916   8.584   8.528 -2.7887  2.3333 -2.1073
11657SOL    HW236979   7.012   8.675   8.455 -1.3258  0.9064 -2.0232
11658SOL     OW36980   4.848  10.924   3.227  0.0604  0.4169  0.0222
11658SOL    HW136981   4.824  10.940   3.318  0.4170  0.6877  0.0707
11658SOL    HW236982   4.794  10.849   3.201  0.0660  0.2439  0.4996
11659SOL     OW36983   6.811   0.886   2.838 -0.0365  0.3237  0.0362
11659SOL    HW136984   6.886   0.940   2.862 -0.7369  1.3139  0.0835
11659SOL    HW236985   6.801   0.825   2.911 -0.2631  1.2655  0.8100
11660SOL     OW36986   5.363   3.675   4.144 -0.0741 -0.0655  0.2295
11660SOL    HW136987   5.283   3.695   4.095  0.5890 -3.3865 -2.5910
11660SOL    HW236988   5.335   3.613   4.212 -0.4056  1.8014  1.8908
11661SOL     OW36989   9.178   6.014   5.492  0.0741 -0.1503  0.5306
11661SOL    HW136990   9.153   6.052   5.576 -0.0155 -0.1326  0.4961
11661SOL    HW236991   9.257   5.963   5.511 -0.3915 -0.7755  0.7764
11662SOL     OW36992   1.556   0.314   3.854  0.4327 -0.8189 -0.6336
11662SOL    HW136993   1.497   0.312   3.929  2.3062  1.9775  1.1136
11662SOL    HW236994   1.500   0.298   3.779 -2.7579  2.1803  0.8156
11663SOL     OW36995   1.404   1.580   4.815 -0.0508 -0.6449 -0.0408
11663SOL    HW136996   1.482   1.545   4.859  0.2182  0.5090  0.4642
11663SOL    HW236997   1.373   1.649   4.874  1.5628  2.5106 -2.5557
11664SOL     OW36998   7.602   5.664   6.898 -0.3618  0.6343  0.5955
11664SOL    HW136999   7.520   5.614   6.889 -0.1615  0.2306  0.9528
11664SOL    HW237000   7.593   5.709   6.982 -0.0792  0.3135  0.8045
11665SOL     OW37001   6.588   0.379   0.592 -0.3670 -0.1313 -0.0782
11665SOL    HW137002   6.625   0.291   0.593 -1.5902 -0.6826  1.1224
11665SOL    HW237003   6.650   0.432   0.642 -0.1771 -0.5714  0.1595
11666SOL     OW37004   9.344   5.291   7.678  0.2869 -0.0890 -0.8334
11666SOL    HW137005   9.419   5.325   7.629 -0.5045  0.0710 -1.9647
11666SOL    HW237006   9.383   5.228   7.740  1.2509 -0.9161 -2.2185
11667SOL     OW37007   9.198   7.030   5.940  0.3145  0.1862  0.4526
11667SOL    HW137008   9.128   6.968   5.961  1.8594 -1.0883  2.1736
11667SOL    HW237009   9.235   6.997   5.858  0.9875 -1.1135  1.2425
11668SOL     OW37010   1.705  10.963   7.051  0.5927 -1.3615  0.5652
11668SOL    HW137011   1.711  11.043   6.999 -1.6607 -1.2241  0.3867
11668SOL    HW237012   1.732  10.990   7.139  1.0692 -0.7234  0.2323
11669SOL     OW37013   0.594  10.623  10.456  0.2169  0.1231  0.0471
11669SOL    HW137014   0.527  10.689  10.473  1.0690  1.2070 -0.6797
11669SOL    HW237015   0.546  10.541  10.447 -1.2556  1.1322 -2.2247
11670SOL     OW37016  10.892   3.148  10.593 -0.2002 -0.0454 -0.0469
11670SOL    HW137017  10.879   3.239  10.566  0.6629 -0.1180 -0.7404
11670SOL    HW237018  10.863   3.097  10.517  1.5483 -0.2720 -0.6034
11671SOL     OW37019   0.630   3.790   3.366  0.3030  0.5895 -0.1917
11671SOL    HW137020   0.541   3.825   3.372 -0.2880 -0.6248 -1.4669
11671SOL    HW237021   0.665   3.828   3.286  1.4708  2.1560  1.0071
11672SOL     OW37022   1.044   4.960   9.710 -0.3096  0.4970  0.1590
11672SOL    HW137023   0.982   5.007   9.766 -0.8072 -0.2835  0.2817
11672SOL    HW237024   0.998   4.950   9.627  0.5307  1.8920 -0.5103
11673SOL     OW37025   8.447   3.889  10.435  0.1215  0.0586  0.2137
11673SOL    HW137026   8.470   3.961  10.494 -0.8088  0.3920  0.1838
11673SOL    HW237027   8.366   3.852  10.472  0.5023 -0.8737  0.1423
11674SOL     OW37028   9.800   5.754   7.971  0.1389  0.2223 -0.3032
11674SOL    HW137029   9.835   5.791   7.890  0.7758 -0.3340 -0.2951
11674SOL    HW237030   9.844   5.804   8.040 -0.7372  0.9956 -0.2938
11675SOL     OW37031  10.815   7.035   5.916 -0.1449 -0.4758 -0.0513
11675SOL    HW137032  10.784   6.983   5.842 -1.7841  1.6793 -0.9831
11675SOL    HW237033  10.784   7.124   5.898  3.0667  1.0310  1.1182
11676SOL     OW37034   9.635   6.146   2.011  0.2133  0.5941  0.0104
11676SOL    HW137035   9.705   6.164   2.074  0.6558  0.0985 -0.3341
11676SOL    HW237036   9.555   6.174   2.056  0.5387  0.4132  0.7184
11677SOL     OW37037  10.310   7.088   7.905 -0.0065 -0.4601  0.3111
11677SOL    HW137038  10.243   7.127   7.961  0.3336  0.1326  0.3068
11677SOL    HW237039  10.266   7.076   7.821 -0.8820 -2.4397  0.9935
11678SOL     OW37040   8.004   3.723   0.565 -0.5462  0.2446 -0.1689
11678SOL    HW137041   7.997   3.655   0.498  0.6840 -0.3007  0.2254
11678SOL    HW237042   8.098   3.732   0.580 -0.7859 -0.4550  2.2606
11679SOL     OW37043   5.276   9.775   3.147  0.7710 -0.2503 -0.0749
11679SOL    HW137044   5.212   9.704   3.151  1.1121 -0.7023 -1.7567
11679SOL    HW237045   5.237   9.839   3.087  1.1664  0.2421  0.1836
11680SOL     OW37046   3.522   0.428   0.750  0.4795  0.6059 -0.7621
11680SOL    HW137047   3.606   0.388   0.728  1.0913  0.3643  1.7737
11680SOL    HW237048   3.530   0.519   0.721  1.4557  0.4823 -0.8999
11681SOL     OW37049   5.822   0.943   1.971  0.3695 -0.2036  0.2159
11681SOL    HW137050   5.903   0.993   1.959 -0.1442  0.4861 -0.5392
11681SOL    HW237051   5.773   0.991   2.038 -0.6940  1.1074 -1.4171
11682SOL     OW37052   7.951  10.537   4.099  0.2914 -0.2057 -0.3736
11682SOL    HW137053   7.873  10.510   4.050  1.4364 -1.0387 -1.8351
11682SOL    HW237054   7.926  10.619   4.141 -1.2674 -0.2881 -1.0622
11683SOL     OW37055   9.868   1.697   0.705 -0.0659 -0.0434 -0.2147
11683SOL    HW137056   9.774   1.688   0.720 -0.4646  0.9399 -1.8320
11683SOL    HW237057   9.893   1.615   0.663 -0.6550  0.4398 -1.5933
11684SOL     OW37058   9.619   5.003   2.796  0.4026  0.7237  0.3573
11684SOL    HW137059   9.683   5.071   2.777  2.7205 -1.5210 -0.4201
11684SOL    HW237060   9.611   4.953   2.714  0.6415 -1.3517  1.5296
11685SOL     OW37061   0.702   4.145   4.231 -0.2895  0.2949 -0.4945
11685SOL    HW137062   0.659   4.075   4.182 -0.3153  1.0321 -1.5554
11685SOL    HW237063   0.778   4.102   4.271 -0.4502 -0.3995 -0.9154
11686SOL     OW37064   7.896   1.674   3.397 -0.4498 -0.5661  0.0216
11686SOL    HW137065   7.937   1.711   3.475 -2.1605  0.0097  0.6942
11686SOL    HW237066   7.923   1.582   3.397 -1.3826 -0.9020  2.0180
11687SOL     OW37067   1.500  10.888   2.783 -0.0132 -0.3175 -0.1371
11687SOL    HW137068   1.493  10.812   2.841 -1.5430  0.1801  0.3757
11687SOL    HW237069   1.412  10.926   2.782  0.7020  1.4390 -0.3775
11688SOL     OW37070   1.946   5.713   8.067  0.3174 -0.4553  0.2757
11688SOL    HW137071   2.026   5.765   8.057  0.2761 -0.3430  0.5230
11688SOL    HW237072   1.876   5.770   8.035  0.2718 -0.3526  0.5497
11689SOL     OW37073   3.898   6.375   9.237 -0.4449  0.5851  0.0959
11689SOL    HW137074   3.813   6.410   9.262 -0.8020 -0.3121  0.1734
11689SOL    HW237075   3.878   6.291   9.197  0.3391  0.7655 -0.6988
11690SOL     OW37076   3.287   6.451   8.788  0.1216  0.4660  0.0860
11690SOL    HW137077   3.356   6.474   8.725  0.7624 -0.0798  0.5669
11690SOL    HW237078   3.334   6.428   8.868 -0.5074 -1.4889 -0.0574
11691SOL     OW37079   3.406   4.373   8.515 -0.1844  0.1202 -0.0295
11691SOL    HW137080   3.476   4.307   8.512  1.1557  1.4434  1.0039
11691SOL    HW237081   3.425   4.431   8.442 -0.0074  0.6616  0.4419
11692SOL     OW37082   9.541   0.715   1.251 -0.3112 -0.3622 -0.2405
11692SOL    HW137083   9.610   0.758   1.200 -0.3306  0.9073  0.7522
11692SOL    HW237084   9.588   0.670   1.322 -0.2238 -2.6970 -1.6759
11693SOL     OW37085   5.671   3.031   3.544  0.3362  0.1284  0.2939
11693SOL    HW137086   5.709   2.991   3.622  1.1077 -1.0615 -0.6515
11693SOL    HW237087   5.618   2.962   3.505  2.4581 -0.4272 -1.8960
11694SOL     OW37088   8.979   3.334   1.164 -0.6186  0.1174 -0.6368
11694SOL    HW137089   8.897   3.285   1.154  1.2416 -3.1073 -1.7629
11694SOL    HW237090   9.020   3.294   1.241  1.0427 -0.2814 -1.6902
11695SOL     OW37091   3.448  10.539   0.501 -0.1474 -0.1563 -0.2334
11695SOL    HW137092   3.513  10.483   0.544 -1.1309 -1.8292 -0.8573
11695SOL    HW237093   3.467  10.530   0.407  0.3121  1.3789 -0.3122
11696SOL     OW37094   0.308   5.031   4.127  0.1039 -0.5237  0.6610
11696SOL    HW137095   0.350   5.079   4.056 -0.4326  0.4371  0.9624
11696SOL    HW237096   0.241   4.978   4.084 -0.7468  0.6461  0.4978
11697SOL     OW37097   5.977   8.441   0.460  0.1559 -0.7268  0.0477
11697SOL    HW137098   6.050   8.481   0.508 -0.3948 -0.7179  0.8771
11697SOL    HW237099   5.904   8.501   0.473 -0.0531 -0.8118 -0.6629
11698SOL     OW37100   2.958   6.633   6.063 -0.5655  0.4473 -0.0050
11698SOL    HW137101   3.011   6.619   6.142  0.2511  0.4583 -0.5374
11698SOL    HW237102   2.956   6.547   6.020 -1.7239  0.2333  0.4483
11699SOL     OW37103   3.790   3.912   2.280 -0.3853 -0.0327  0.1409
11699SOL    HW137104   3.877   3.923   2.317 -1.0634 -0.7475  2.1000
11699SOL    HW237105   3.802   3.848   2.210  0.5501 -0.8471  0.9997
11700SOL     OW37106   9.781   2.990   5.044  0.0475  0.0666 -0.2726
11700SOL    HW137107   9.851   2.925   5.032 -0.5355 -0.7658  0.6836
11700SOL    HW237108   9.702   2.946   5.015 -0.4961 -0.0086  1.2255
11701SOL     OW37109   3.562   1.533   0.915  0.4868 -0.2268  0.2547
11701SOL    HW137110   3.494   1.601   0.916 -0.0757 -0.7799  0.7959
11701SOL    HW237111   3.624   1.562   0.848  0.4912  1.0427  0.7735
11702SOL     OW37112   8.555   4.300   8.966 -0.3891 -0.2125 -0.5205
11702SOL    HW137113   8.485   4.335   9.021 -0.7028  0.9827 -1.6197
11702SOL    HW237114   8.611   4.252   9.026 -2.0479 -1.0652  0.4314
11703SOL     OW37115   1.450   2.048   6.010  0.1416  0.0970 -0.6936
11703SOL    HW137116   1.515   2.056   6.080 -0.0004  0.4575 -0.6012
11703SOL    HW237117   1.381   1.993   6.047  0.9370 -1.2860 -1.1949
11704SOL     OW37118   5.961   5.266   8.578 -0.7812 -0.0173  0.0175
11704SOL    HW137119   5.928   5.326   8.645 -2.0234 -1.3638  0.6721
11704SOL    HW237120   5.973   5.321   8.501  0.1554  1.4639  1.1686
11705SOL     OW37121   0.522   9.910   8.102  0.7800 -0.0465  0.3775
11705SOL    HW137122   0.521   9.925   8.196  0.3464  1.8351  0.1171
11705SOL    HW237123   0.615   9.901   8.080  0.8828 -0.5075  0.9616
11706SOL     OW37124   8.005   8.046   8.653 -0.1070  0.0199 -0.0693
11706SOL    HW137125   8.083   8.098   8.637 -0.1184 -0.3190 -1.3886
11706SOL    HW237126   7.937   8.087   8.600 -0.9173  0.4732  1.2687
11707SOL     OW37127   1.077   5.549   4.875  0.0149  0.7700 -0.4559
11707SOL    HW137128   1.162   5.522   4.909  0.5303  1.9141 -0.8052
11707SOL    HW237129   1.036   5.595   4.948  0.0438  0.9491 -0.5519
11708SOL     OW37130  10.068   0.814   2.102  0.3731  0.0328  0.7436
11708SOL    HW137131  10.071   0.734   2.050  0.3353  1.0836 -0.9476
11708SOL    HW237132  10.068   0.783   2.193 -1.4494 -1.9322  0.1539
11709SOL     OW37133   2.860   8.600   2.466 -0.2568 -0.3684 -0.2492
11709SOL    HW137134   2.877   8.563   2.553 -0.5202 -0.7327 -0.3463
11709SOL    HW237135   2.937   8.653   2.447 -0.7849  0.8122  0.7795
11710SOL     OW37136   5.034   2.043   2.644  0.1052  0.5252 -0.4529
11710SOL    HW137137   5.044   2.091   2.726  0.4632  1.9570 -1.2925
11710SOL    HW237138   5.122   2.010   2.625  0.0949  0.4833 -0.4286
11711SOL     OW37139   6.905   1.145   6.762  0.2783  0.3150 -0.0567
11711SOL    HW137140   6.997   1.140   6.790  0.4399 -1.2786 -0.7855
11711SOL    HW237141   6.871   1.057   6.774 -0.9274  0.6948 -0.5769
11712SOL     OW37142   0.629   4.563   1.428  0.2351  0.0514  0.0510
11712SOL    HW137143   0.577   4.533   1.503  0.5218 -0.7439 -0.0561
11712SOL    HW237144   0.564   4.577   1.359  0.1365 -0.7512 -0.0239
11713SOL     OW37145   7.422   6.787   3.708 -0.2161 -0.0205  0.0646
11713SOL    HW137146   7.437   6.721   3.640  0.9040  1.7763 -1.5469
11713SOL    HW237147   7.508   6.797   3.750 -0.0103  1.3600 -0.6443
11714SOL     OW37148   3.133   3.255   6.092 -0.0267 -0.1275 -0.0771
11714SOL    HW137149   3.198   3.208   6.040 -0.0174  0.5296 -0.6666
11714SOL    HW237150   3.091   3.187   6.145 -0.4994 -0.9190 -1.4269
11715SOL     OW37151   8.019   6.957   5.049 -0.0903 -0.4502  0.1861
11715SOL    HW137152   8.094   6.904   5.023  0.3320  0.3718 -0.2938
11715SOL    HW237153   7.957   6.947   4.977  0.0059 -0.2562  0.0769
11716SOL     OW37154   8.228   1.688   3.161  0.2170  0.2362 -0.1503
11716SOL    HW137155   8.177   1.660   3.085 -1.3308 -0.1750  0.9995
11716SOL    HW237156   8.217   1.783   3.164  2.5043  0.6641 -1.9376
11717SOL     OW37157   0.143   4.266   6.819 -0.7311  0.0959  0.2041
11717SOL    HW137158   0.171   4.194   6.876 -1.0210  0.8566  1.3408
11717SOL    HW237159   0.091   4.223   6.751 -1.4047 -0.7148  1.1967
11718SOL     OW37160   7.419   3.798   1.181 -0.1797 -0.0478 -0.2493
11718SOL    HW137161   7.423   3.798   1.086  2.7347  0.8353 -0.2207
11718SOL    HW237162   7.408   3.705   1.205 -2.1990 -0.1571 -1.3864
11719SOL     OW37163  10.938   8.752   4.012 -0.3864 -0.5531  0.3758
11719SOL    HW137164  11.028   8.722   4.027 -0.1165 -0.6800 -1.3287
11719SOL    HW237165  10.913   8.713   3.928 -1.6635  0.3222  0.3237
11720SOL     OW37166   0.065   4.335   3.553 -0.4595  0.0904  0.1205
11720SOL    HW137167  -0.025   4.303   3.557 -0.8154  0.8103 -1.3448
11720SOL    HW237168   0.118   4.258   3.569 -1.3327 -0.4146  0.6830
11721SOL     OW37169   2.679   2.810   9.746 -0.3388  0.0348  0.0326
11721SOL    HW137170   2.654   2.724   9.712 -0.1906 -0.0219  0.0686
11721SOL    HW237171   2.625   2.822   9.824 -0.3488 -0.0310  0.0357
11722SOL     OW37172   6.463   1.505   2.213  0.0656 -0.2649  0.2487
11722SOL    HW137173   6.547   1.483   2.254 -1.0706 -0.1539  2.7838
11722SOL    HW237174   6.466   1.600   2.202  0.2121 -0.2391  0.5050
11723SOL     OW37175  10.745   9.575   8.624 -0.1241 -0.2804 -0.7085
11723SOL    HW137176  10.671   9.598   8.568 -0.9280  1.1802  0.8485
11723SOL    HW237177  10.706   9.520   8.693  0.5538 -0.8162 -0.7471
11724SOL     OW37178   7.580   3.620   5.562  0.4697 -0.8324  0.2753
11724SOL    HW137179   7.496   3.651   5.532  1.7849  1.1680 -1.5873
11724SOL    HW237180   7.590   3.533   5.522 -0.4207 -0.8306  0.0408
11725SOL     OW37181   8.351   6.402   1.913  0.5623 -0.1018  0.1044
11725SOL    HW137182   8.334   6.495   1.932  0.7493 -0.2645  1.1121
11725SOL    HW237183   8.414   6.376   1.979 -1.8240 -1.7779  1.8808
11726SOL     OW37184  10.132   1.278   9.558 -0.2021 -0.2512  0.4375
11726SOL    HW137185  10.109   1.240   9.473 -0.1125  1.8634 -0.6058
11726SOL    HW237186  10.049   1.286   9.604 -0.7097  1.2392 -0.6507
11727SOL     OW37187   7.490   1.242   9.515  0.1706 -0.2963  0.2844
11727SOL    HW137188   7.419   1.260   9.578 -1.4198  0.2724 -1.5681
11727SOL    HW237189   7.529   1.328   9.499  0.0468 -0.3038 -0.0725
11728SOL     OW37190   2.949   5.288   0.680 -0.0133  0.1724  0.4889
11728SOL    HW137191   3.033   5.294   0.635 -0.3560 -0.3864 -0.2417
11728SOL    HW237192   2.936   5.195   0.695 -0.9934  0.1492 -0.3745
11729SOL     OW37193   3.428   9.826   5.609 -0.3198  0.0002 -0.5980
11729SOL    HW137194   3.337   9.801   5.625 -0.7628  1.4878 -0.5782
11729SOL    HW237195   3.431   9.843   5.515 -0.5913  1.7872 -0.3180
11730SOL     OW37196   0.050   8.057   6.321  0.3925 -0.8352  0.4670
11730SOL    HW137197   0.114   7.994   6.356 -0.0856 -0.4270  2.1221
11730SOL    HW237198   0.021   8.108   6.396 -0.0464  0.6756 -0.6596
11731SOL     OW37199   5.272   5.222   2.220 -0.2706 -0.2790  0.0543
11731SOL    HW137200   5.249   5.159   2.152 -1.6256  0.3188 -0.0675
11731SOL    HW237201   5.364   5.242   2.204  0.8061 -3.5392  1.1777
11732SOL     OW37202   0.417   7.719  10.052 -0.6155 -0.6814 -0.0394
11732SOL    HW137203   0.489   7.782  10.053 -2.6599  1.8247  1.0837
11732SOL    HW237204   0.376   7.729   9.966 -1.1159 -0.2099  0.2440
11733SOL     OW37205   2.465   4.043   5.762 -0.3270  0.3669 -0.2047
11733SOL    HW137206   2.390   4.079   5.808 -0.7932 -0.1739 -0.5305
11733SOL    HW237207   2.442   4.051   5.669 -0.4598 -0.8084 -0.2814
11734SOL     OW37208   0.620   7.032   6.556  0.3534  0.2292 -0.8075
11734SOL    HW137209   0.665   7.066   6.633  1.3623 -1.2224 -0.7273
11734SOL    HW237210   0.667   7.070   6.481 -0.7870  1.8477 -0.7687
11735SOL     OW37211   8.769   6.092   4.345  0.5130 -0.0737  0.2963
11735SOL    HW137212   8.741   6.085   4.254  1.6603 -0.7123 -0.0300
11735SOL    HW237213   8.864   6.108   4.340  0.5761 -0.0265  1.3703
11736SOL     OW37214   7.827   4.039   4.345 -0.4217  0.5264 -0.0907
11736SOL    HW137215   7.809   3.984   4.269 -1.2471 -0.1584  0.5757
11736SOL    HW237216   7.740   4.064   4.377 -0.0774  1.0843  0.4379
11737SOL     OW37217   3.368   2.018   8.778  0.1282 -0.1687 -0.2904
11737SOL    HW137218   3.407   2.060   8.702 -0.5806 -0.1819 -0.6713
11737SOL    HW237219   3.343   2.090   8.836 -2.1877  0.0732 -1.4753
11738SOL     OW37220   9.192   2.372   2.975 -0.0519  0.0138 -0.6668
11738SOL    HW137221   9.276   2.366   2.929 -0.2743  0.0201 -1.0884
11738SOL    HW237222   9.149   2.288   2.958  0.3629 -0.4580  0.5553
11739SOL     OW37223   0.093   7.969   4.578 -0.0448 -0.3397 -0.4968
11739SOL    HW137224   0.186   7.993   4.571  0.3944 -1.8257 -0.1016
11739SOL    HW237225   0.078   7.909   4.505  0.0206 -2.1531  0.8945
11740SOL     OW37226  10.695   6.318   8.124  0.3159  0.7323 -0.4477
11740SOL    HW137227  10.670   6.397   8.076 -0.1668 -0.1135 -1.6433
11740SOL    HW237228  10.669   6.246   8.067  2.9439 -0.2917 -0.5236
11741SOL     OW37229   5.756   2.465   5.018 -0.0526 -0.1863  0.5850
11741SOL    HW137230   5.833   2.505   5.058 -0.6331  2.2618 -0.5768
11741SOL    HW237231   5.690   2.534   5.017 -1.5110 -1.5224 -0.4960
11742SOL     OW37232   9.376   5.232   3.943 -0.2742 -0.1205  0.2286
11742SOL    HW137233   9.445   5.280   3.989 -0.8964  0.5235  0.5184
11742SOL    HW237234   9.364   5.152   3.995  0.8926 -0.7075 -0.3575
11743SOL     OW37235  10.958   7.480   5.523 -0.0708  0.6390 -0.0210
11743SOL    HW137236  11.024   7.510   5.460 -1.0718  0.4372 -1.2101
11743SOL    HW237237  10.875   7.499   5.480 -0.8010  0.9660  1.4807
11744SOL     OW37238  10.899   4.932   4.881 -0.4345  0.3888  0.3358
11744SOL    HW137239  10.947   4.981   4.947  0.8384 -0.5239  0.1183
11744SOL    HW237240  10.843   4.873   4.931  1.1814 -0.9412  0.6642
11745SOL     OW37241   1.667   6.151   2.927  0.2045 -0.1652 -0.7848
11745SOL    HW137242   1.661   6.193   3.013 -1.0704  0.4375 -1.1493
11745SOL    HW237243   1.739   6.088   2.936  1.2540  1.1281  0.1809
11746SOL     OW37244   3.413   9.284   7.835  0.0874 -0.0485  0.0317
11746SOL    HW137245   3.468   9.245   7.767 -0.7590  2.7178 -2.4630
11746SOL    HW237246   3.325   9.287   7.797 -0.6847  0.4785  1.7546
11747SOL     OW37247   7.585   4.783   6.883  0.0111 -0.8580 -0.0378
11747SOL    HW137248   7.625   4.820   6.962  0.6694  0.6887 -1.0508
11747SOL    HW237249   7.604   4.847   6.815 -0.7236 -2.0650 -1.4168
11748SOL     OW37250   6.344   4.857  10.075  0.3665  0.0222 -0.3203
11748SOL    HW137251   6.332   4.792  10.145 -1.0347  1.7611  1.1471
11748SOL    HW237252   6.269   4.843  10.017  0.2334  0.1126 -0.1720
11749SOL     OW37253   7.785   1.771   0.491 -0.7983 -0.3898  0.5675
11749SOL    HW137254   7.849   1.836   0.520 -2.2243  0.6819  1.4226
11749SOL    HW237255   7.812   1.749   0.401  1.9001 -1.4692  1.5173
11750SOL     OW37256   2.525  10.541   6.797 -0.2758 -0.3932  0.5208
11750SOL    HW137257   2.527  10.465   6.856 -1.3577 -0.7616  0.1087
11750SOL    HW237258   2.443  10.585   6.817  1.1728  1.8229  2.1100
11751SOL     OW37259   3.221   9.750   1.104  1.1266  0.1769 -0.6805
11751SOL    HW137260   3.205   9.699   1.025 -0.7678  0.7059 -0.6893
11751SOL    HW237261   3.313   9.735   1.125  1.4547 -0.5744 -2.5447
11752SOL     OW37262   6.551   9.508   7.550  0.1677  0.1085 -0.2905
11752SOL    HW137263   6.559   9.530   7.643 -1.1303 -0.1997 -0.0765
11752SOL    HW237264   6.592   9.581   7.504 -1.2598  1.4745  0.4922
11753SOL     OW37265   9.633  10.218   5.255 -0.8064 -0.0707 -0.3573
11753SOL    HW137266   9.611  10.276   5.329  0.4984  0.5977 -0.4559
11753SOL    HW237267   9.647  10.133   5.295 -2.0757 -0.1925 -0.1138
11754SOL     OW37268   0.907  10.595   5.966  0.3888 -0.3707  0.3015
11754SOL    HW137269   0.965  10.657   6.010 -0.0115  0.9261 -0.9389
11754SOL    HW237270   0.822  10.638   5.962  0.6343  0.0477 -2.5747
11755SOL     OW37271   4.492   3.500   1.974 -0.5151 -0.1227  0.2795
11755SOL    HW137272   4.579   3.483   2.010  0.4203  1.9707 -0.8184
11755SOL    HW237273   4.431   3.467   2.040  1.0944 -1.1302  1.3151
11756SOL     OW37274   6.139   8.174   8.978 -0.1736 -0.3286  0.2079
11756SOL    HW137275   6.125   8.243   9.043  2.2054 -0.9883  1.5329
11756SOL    HW237276   6.227   8.191   8.944 -0.5964 -1.1852 -1.4228
11757SOL     OW37277   1.287   6.071   4.699  0.3083  0.1810 -0.2336
11757SOL    HW137278   1.307   6.151   4.650 -0.4802  1.2362  1.0967
11757SOL    HW237279   1.290   6.002   4.633  2.0460  1.1237 -1.2407
11758SOL     OW37280   5.834   7.038   2.239 -0.1972 -0.3405  0.1462
11758SOL    HW137281   5.755   7.024   2.290 -0.4048 -0.2460 -0.1433
11758SOL    HW237282   5.886   6.958   2.251  0.0530 -0.0558  1.0185
11759SOL     OW37283   2.678   8.308  10.137 -0.2868 -0.2515 -0.1348
11759SOL    HW137284   2.677   8.351  10.222  2.0123  0.8161 -0.5537
11759SOL    HW237285   2.735   8.232  10.149 -0.0542 -0.1721 -0.6763
11760SOL     OW37286   8.442   7.155   1.940 -0.2153 -0.3509  0.3173
11760SOL    HW137287   8.417   7.246   1.954  1.4528 -0.0846  1.8539
11760SOL    HW237288   8.367   7.105   1.975 -0.4259  0.4248  1.0127
11761SOL     OW37289  10.996   2.356   9.707  0.1210  0.2150  0.6883
11761SOL    HW137290  11.069   2.303   9.739  1.5248 -0.0525 -2.5841
11761SOL    HW237291  11.032   2.404   9.632 -3.0084  0.1086 -1.0354
11762SOL     OW37292   9.556   6.855   4.439 -0.3805 -0.2241  0.4228
11762SOL    HW137293   9.534   6.773   4.396 -0.1759  0.3505 -0.8095
11762SOL    HW237294   9.492   6.862   4.510 -0.1550 -1.6255  0.8028
11763SOL     OW37295   1.783   7.846  10.213  0.3016  0.0987  0.3079
11763SOL    HW137296   1.715   7.900  10.255  1.0058  0.4732  0.9971
11763SOL    HW237297   1.843   7.825  10.285  0.2321 -1.2993 -0.0346
11764SOL     OW37298   6.206   9.730   1.965  0.1137  0.4263 -0.1776
11764SOL    HW137299   6.188   9.802   2.025 -1.8459 -0.0308 -0.1282
11764SOL    HW237300   6.127   9.725   1.910  1.2159 -0.1362 -1.7937
11765SOL     OW37301   7.981   9.574   5.459 -0.3737  0.3495 -0.3091
11765SOL    HW137302   8.064   9.599   5.420  0.8744 -0.3469  1.7543
11765SOL    HW237303   7.971   9.634   5.534  0.4480 -2.1950  2.0037
11766SOL     OW37304   8.417   1.268   7.126 -0.6070  0.1500  0.3970
11766SOL    HW137305   8.379   1.180   7.121 -2.0331  0.5672  2.4839
11766SOL    HW237306   8.343   1.327   7.109 -0.3178  0.9511  1.7292
11767SOL     OW37307   8.570   8.708   2.765  0.2067 -0.1623  0.1379
11767SOL    HW137308   8.548   8.615   2.762 -1.6543  0.2494 -0.4801
11767SOL    HW237309   8.574   8.730   2.858  1.3637 -0.9813  0.3032
11768SOL     OW37310   2.463   5.336   1.874  0.5407 -0.4186 -0.3316
11768SOL    HW137311   2.469   5.247   1.841 -1.9716 -0.2896 -1.3796
11768SOL    HW237312   2.467   5.392   1.796  0.2358  0.2499  0.1153
11769SOL     OW37313   2.335   0.026   4.450 -0.2644  0.4467  0.2208
11769SOL    HW137314   2.365   0.074   4.528 -2.5537 -0.8504  2.0521
11769SOL    HW237315   2.393  -0.049   4.444 -0.2320  0.4140  0.8663
11770SOL     OW37316   5.363   4.802   0.330  0.2145  0.2594  0.0578
11770SOL    HW137317   5.382   4.738   0.262  2.4604 -1.5096  2.1571
11770SOL    HW237318   5.332   4.880   0.283  1.9698 -0.7295 -2.9566
11771SOL     OW37319   8.907   9.871   9.325  0.2425 -0.2135 -0.3652
11771SOL    HW137320   8.890   9.792   9.376  2.7329 -0.8113 -0.2992
11771SOL    HW237321   8.922   9.939   9.391 -1.9428  0.3796 -0.4214
11772SOL     OW37322   6.873   1.677   9.120 -0.1524  0.2916  0.3298
11772SOL    HW137323   6.860   1.763   9.079 -0.3664 -0.3644 -1.0179
11772SOL    HW237324   6.960   1.650   9.091  0.0250  0.1584  0.9703
11773SOL     OW37325   0.938   5.340   2.654 -0.4815  0.5513  0.5675
11773SOL    HW137326   0.979   5.341   2.567  0.9218  0.9353  1.2170
11773SOL    HW237327   0.875   5.268   2.649  0.2649 -0.0592 -0.4585
11774SOL     OW37328   0.998   4.775   4.706 -0.2685  0.2054  0.3521
11774SOL    HW137329   0.925   4.829   4.676  0.4563  0.1696 -1.6357
11774SOL    HW237330   0.976   4.687   4.676  1.7581  0.6043 -2.8847
11775SOL     OW37331   3.940   7.221   5.585  0.0283  0.1522  0.0912
11775SOL    HW137332   3.858   7.212   5.536 -0.4681 -0.1501  0.9465
11775SOL    HW237333   3.974   7.307   5.559  0.4238 -0.5162 -1.6879
11776SOL     OW37334   7.259   4.422   5.260  0.1143 -1.2413 -0.5555
11776SOL    HW137335   7.226   4.382   5.180 -1.0912 -0.0298 -0.6962
11776SOL    HW237336   7.341   4.464   5.235 -0.7951  0.0650 -1.4396
11777SOL     OW37337   7.787   3.780   3.148  0.0482 -0.1957  0.2486
11777SOL    HW137338   7.804   3.828   3.230  0.7039 -0.6625  0.4000
11777SOL    HW237339   7.873   3.744   3.124 -0.1847 -0.2358 -0.5385
11778SOL     OW37340   1.234   5.777   7.567  0.0665  0.2137 -0.0889
11778SOL    HW137341   1.236   5.759   7.473  2.2916 -0.8122  0.0849
11778SOL    HW237342   1.275   5.863   7.576  0.2919  0.1026 -0.0360
11779SOL     OW37343   6.337  10.572   0.822  0.7268 -0.1540  0.3995
11779SOL    HW137344   6.344  10.504   0.755 -0.3929  1.3623 -1.3599
11779SOL    HW237345   6.244  10.575   0.843  0.8236  0.5934  0.7270
11780SOL     OW37346   3.719   4.650   1.616  0.2385 -0.0496 -0.3842
11780SOL    HW137347   3.703   4.592   1.690 -2.2730  1.9880  0.8256
11780SOL    HW237348   3.803   4.692   1.636  0.3182 -0.6173  0.5258
11781SOL     OW37349   4.030   7.968   0.558  0.2969 -0.4041  0.4361
11781SOL    HW137350   3.951   7.953   0.506 -1.0764 -0.7269  2.4790
11781SOL    HW237351   4.094   7.906   0.524 -1.2627 -2.1647  0.5841
11782SOL     OW37352   7.568   0.633   6.791 -0.2753 -0.2642 -0.4417
11782SOL    HW137353   7.541   0.724   6.777 -1.8207 -0.8168 -1.2583
11782SOL    HW237354   7.586   0.600   6.703  1.7864 -0.3328 -0.0286
11783SOL     OW37355  10.212   0.297   7.874  0.6308 -1.1737  0.1572
11783SOL    HW137356  10.237   0.316   7.783  2.5804  1.9944  1.1609
11783SOL    HW237357  10.132   0.348   7.888  0.9044 -0.8146  0.4555
11784SOL     OW37358   5.392   7.843   5.461  0.0052 -0.3440 -1.1246
11784SOL    HW137359   5.431   7.824   5.375 -0.9673  0.6696 -1.8152
11784SOL    HW237360   5.340   7.922   5.447  1.1240  0.8198  0.8115
11785SOL     OW37361   8.480   5.321  10.526  0.2437  0.8677  0.2107
11785SOL    HW137362   8.388   5.300  10.539  0.1015  0.9635 -0.5549
11785SOL    HW237363   8.516   5.332  10.614 -0.4107  0.5545  0.5178
11786SOL     OW37364   7.899   0.332   0.927 -0.2992 -0.6554 -0.1821
11786SOL    HW137365   7.963   0.376   0.984 -0.5606 -0.3813 -0.1028
11786SOL    HW237366   7.872   0.399   0.865 -0.9367 -0.6152  0.1381
11787SOL     OW37367   4.519   5.753   0.704  0.0367  0.7237 -0.0470
11787SOL    HW137368   4.509   5.657   0.707  0.5418  0.6377 -0.6063
11787SOL    HW237369   4.589   5.771   0.767 -1.1071  0.9097  1.1946
11788SOL     OW37370   8.653   1.249   2.354 -0.0628  0.8521  0.0187
11788SOL    HW137371   8.716   1.222   2.421  0.4865 -0.0128 -0.8235
11788SOL    HW237372   8.666   1.343   2.345  1.9507  0.5334 -0.9388
11789SOL     OW37373   4.246   4.140   4.223  0.4875  0.6590 -0.2118
11789SOL    HW137374   4.184   4.087   4.173  0.5828  0.1170  0.2278
11789SOL    HW237375   4.332   4.117   4.187  0.8382 -1.6788  1.8027
11790SOL     OW37376   3.076   0.481  10.461  0.2672  0.1250  0.3531
11790SOL    HW137377   2.982   0.460  10.460  0.2171  0.3477  0.0562
11790SOL    HW237378   3.118   0.406  10.421  0.0160  0.9056 -1.4485
11791SOL     OW37379   7.070   8.056  10.081 -0.6870 -0.5266 -0.2194
11791SOL    HW137380   7.081   8.090  10.169 -2.2559 -0.8719  0.1513
11791SOL    HW237381   7.150   8.080  10.035  0.0698 -0.1597  1.2307
11792SOL     OW37382   3.792   6.174   0.573 -0.3886 -0.1048 -0.1387
11792SOL    HW137383   3.815   6.238   0.506  2.5622 -0.0921  0.7447
11792SOL    HW237384   3.872   6.163   0.624 -1.5477 -2.5965  1.3350
11793SOL     OW37385   2.589  11.033   4.989 -0.1150 -0.0282 -0.7888
11793SOL    HW137386   2.596  11.005   4.898  0.5444  0.6683 -0.9643
11793SOL    HW237387   2.544  10.961   5.033  1.0373 -1.1412 -1.3419
11794SOL     OW37388   2.610   2.666   9.401  0.3605 -0.1969  0.5625
11794SOL    HW137389   2.665   2.742   9.384  0.3667  0.4542  3.0724
11794SOL    HW237390   2.599   2.624   9.316  0.8881  2.2446 -0.7950
11795SOL     OW37391   2.594   3.471   0.443 -0.0617 -0.0520 -0.5504
11795SOL    HW137392   2.597   3.376   0.437 -3.4866 -0.3219  0.0639
11795SOL    HW237393   2.606   3.490   0.536  0.3025  0.1204 -0.6280
11796SOL     OW37394   2.065   9.585   5.452  0.3741 -0.1875  0.5695
11796SOL    HW137395   2.004   9.572   5.524  0.9535 -1.6864  0.8235
11796SOL    HW237396   2.142   9.626   5.492  0.2472  0.0355  0.5856
11797SOL     OW37397   5.578   4.486   6.942 -0.0803  0.7087  0.1928
11797SOL    HW137398   5.532   4.484   7.026 -1.5915 -0.0806 -0.6208
11797SOL    HW237399   5.632   4.407   6.943 -0.3987  0.4914  0.2558
11798SOL     OW37400  10.065  10.656   6.371  0.3629  0.0551 -0.5587
11798SOL    HW137401   9.973  10.629   6.362 -0.1295  1.3700  0.1853
11798SOL    HW237402  10.072  10.735   6.318  0.5366  1.0331  0.8612
11799SOL     OW37403   3.333   4.853   1.428 -0.4527 -0.5312 -0.5359
11799SOL    HW137404   3.378   4.790   1.484 -0.5603 -0.6436 -0.5757
11799SOL    HW237405   3.262   4.803   1.388 -0.6883 -0.3239 -0.3785
11800SOL     OW37406   0.910   1.064   3.652 -0.7408  0.6473  0.4144
11800SOL    HW137407   0.895   1.145   3.603  0.1714  0.2395 -0.5745
11800SOL    HW237408   0.830   1.013   3.640 -0.9780  1.0344  0.3320
11801SOL     OW37409   0.094   7.417  10.449 -0.1468 -0.1513  0.7329
11801SOL    HW137410   0.184   7.389  10.436 -0.6393 -0.7096 -2.2873
11801SOL    HW237411   0.099   7.513  10.456  0.6794 -0.1918  0.7925
11802SOL     OW37412   5.116   5.452   6.958 -0.4740  0.2405  0.5298
11802SOL    HW137413   5.035   5.466   6.908 -1.0802  0.6199  1.5827
11802SOL    HW237414   5.102   5.368   7.002 -0.1591  0.1570  0.4692
11803SOL     OW37415   2.819  10.683  10.263  0.1436  0.0222  0.6809
11803SOL    HW137416   2.896  10.677  10.207  0.9989 -0.6435  1.8936
11803SOL    HW237417   2.745  10.667  10.203  0.9933 -0.2385 -0.3349
11804SOL     OW37418   4.422   7.247   9.739  0.1520  0.0748 -0.2988
11804SOL    HW137419   4.331   7.253   9.769 -0.3845 -1.0612 -1.5723
11804SOL    HW237420   4.453   7.164   9.774  0.3463 -0.0377 -0.7267
11805SOL     OW37421   6.655   8.696   3.537  0.2864  0.0007 -0.0463
11805SOL    HW137422   6.664   8.748   3.617 -0.0032  1.0409 -0.6703
11805SOL    HW237423   6.563   8.667   3.538  0.0184  0.7987 -0.4498
11806SOL     OW37424   6.382   4.929   0.760 -0.0302  0.3450 -0.2247
11806SOL    HW137425   6.355   4.844   0.726 -0.7891  1.1517 -1.7537
11806SOL    HW237426   6.340   4.992   0.702  0.5822  1.7693  0.8253
11807SOL     OW37427   1.345  10.251   6.596 -0.4247  0.5542  0.5050
11807SOL    HW137428   1.392  10.217   6.520 -0.7455 -1.2334  1.0640
11807SOL    HW237429   1.395  10.329   6.621  0.5544  0.3283 -0.6290
11808SOL     OW37430   2.795   4.596   3.086 -0.2350 -0.1135 -0.2146
11808SOL    HW137431   2.718   4.593   3.028  0.0755  1.0419 -0.7309
11808SOL    HW237432   2.817   4.689   3.090  1.5116 -0.4787 -0.5863
11809SOL     OW37433   9.153  10.178   5.732 -0.0505  0.2083 -0.3621
11809SOL    HW137434   9.240  10.154   5.763  0.9213  2.4960 -1.0814
11809SOL    HW237435   9.093  10.132   5.791  1.5891 -1.9009 -0.2201
11810SOL     OW37436   4.121   7.433   3.443 -0.2332 -0.0898  0.1451
11810SOL    HW137437   4.046   7.376   3.461  0.6607 -0.9183  1.3682
11810SOL    HW237438   4.144   7.415   3.352 -2.5053  1.3824 -0.8099
11811SOL     OW37439   6.520   1.735   4.750 -0.0742 -0.2964  0.4438
11811SOL    HW137440   6.514   1.663   4.813  0.5126  0.0675  0.9307
11811SOL    HW237441   6.452   1.716   4.685 -1.1438 -0.3491  1.5238
11812SOL     OW37442   7.181   9.002   9.094 -0.1312  0.1990 -0.3310
11812SOL    HW137443   7.229   9.009   9.012 -0.4332 -0.1103 -0.5311
11812SOL    HW237444   7.114   9.070   9.089  1.1494  1.5920  0.5396
11813SOL     OW37445   1.409   9.465  10.213  0.3736  0.4288  0.1725
11813SOL    HW137446   1.450   9.465  10.127 -0.5907  1.4848 -0.3065
11813SOL    HW237447   1.356   9.386  10.215  1.7500 -0.5309  0.4966
11814SOL     OW37448   0.165   7.457   0.665  0.3292  0.1465 -0.1013
11814SOL    HW137449   0.126   7.466   0.578 -0.0759 -0.6929 -0.0187
11814SOL    HW237450   0.146   7.539   0.709 -0.4671  0.1395 -0.4161
11815SOL     OW37451   3.083   3.622   8.049 -0.0728  0.2294  0.1368
11815SOL    HW137452   3.003   3.609   8.100 -0.2505  1.4188  0.1797
11815SOL    HW237453   3.111   3.711   8.070  1.0266 -0.0204 -0.2180
11816SOL     OW37454   8.853   6.010   8.723  0.4260 -0.4146  0.3750
11816SOL    HW137455   8.910   5.947   8.678 -0.6547 -1.1722  0.0191
11816SOL    HW237456   8.862   6.091   8.673  0.4179 -0.8185 -0.2950
11817SOL     OW37457   6.585   0.609   8.585  0.1652  0.3108 -0.2829
11817SOL    HW137458   6.542   0.524   8.597  1.8200 -0.4111  0.8283
11817SOL    HW237459   6.616   0.607   8.495  3.8478 -2.1421  0.8126
11818SOL     OW37460   0.357  10.266   4.478 -0.2583  0.0150  0.0941
11818SOL    HW137461   0.416  10.306   4.414 -1.0565 -0.9715 -1.3024
11818SOL    HW237462   0.414  10.209   4.530  0.3653  0.6971  0.1758
11819SOL     OW37463   5.107   8.585   6.653 -0.3465 -0.4866 -0.6516
11819SOL    HW137464   5.106   8.490   6.651  0.1903 -0.4862 -2.2974
11819SOL    HW237465   5.119   8.607   6.745  1.3571 -2.0526 -0.4338
11820SOL     OW37466   1.613  10.382   8.486 -0.0217  0.1763  0.1990
11820SOL    HW137467   1.640  10.290   8.490  3.0636  0.9587 -0.2422
11820SOL    HW237468   1.573  10.391   8.399  0.2412 -0.6153 -0.0132
11821SOL     OW37469   0.903   0.422   3.638 -0.2726 -0.0899  0.0659
11821SOL    HW137470   0.859   0.405   3.722  0.1380  1.1296  0.5469
11821SOL    HW237471   0.995   0.402   3.654 -0.1091  0.6370  0.0641
11822SOL     OW37472   3.911   8.607   3.541  0.3946 -0.5657 -0.3292
11822SOL    HW137473   3.947   8.585   3.626  2.5588  4.0917  0.2402
11822SOL    HW237474   3.859   8.686   3.556 -0.8503 -0.7266 -3.0706
11823SOL     OW37475   6.877  10.454   9.211  0.0121  0.0978  0.2359
11823SOL    HW137476   6.801  10.491   9.167 -1.0660 -1.2043  0.9286
11823SOL    HW237477   6.886  10.504   9.292 -0.2387  0.1180  0.2498
11824SOL     OW37478   7.848  10.860   5.118 -0.4234 -0.2380  0.3497
11824SOL    HW137479   7.806  10.872   5.033 -0.7789 -0.5796  0.4785
11824SOL    HW237480   7.784  10.813   5.171  0.3270 -1.2570  0.3756
11825SOL     OW37481   7.236   7.780   4.093 -0.1910 -0.6304 -0.6496
11825SOL    HW137482   7.288   7.705   4.062 -0.4747 -1.0644 -0.0726
11825SOL    HW237483   7.300   7.837   4.136 -0.1520 -1.0596 -0.1346
11826SOL     OW37484   3.490   0.521  10.364 -0.4222 -0.1409  0.1857
11826SOL    HW137485   3.403   0.559  10.380 -0.0985  0.9265 -0.5075
11826SOL    HW237486   3.551   0.584  10.401  0.0841 -0.6737  0.2748
11827SOL     OW37487   1.660   0.866   3.220 -0.3404  0.0952  0.2664
11827SOL    HW137488   1.650   0.955   3.187  2.9496  0.0113 -1.3812
11827SOL    HW237489   1.616   0.811   3.156  0.6419  0.3569 -0.6616
11828SOL     OW37490   6.864   9.903   0.440  0.0474 -0.6284  0.1010
11828SOL    HW137491   6.860   9.967   0.511 -0.4162  0.4220 -0.8497
11828SOL    HW237492   6.846   9.819   0.483 -2.2288  0.1973  0.9373
11829SOL     OW37493  10.906   8.017   2.296 -0.3057 -0.0253 -0.1846
11829SOL    HW137494  10.853   7.955   2.346 -0.6939 -1.7039 -2.4885
11829SOL    HW237495  10.993   8.011   2.335 -0.6622 -0.9974  0.5032
11830SOL     OW37496   0.893   0.703   5.760  0.5780  0.0728  0.0877
11830SOL    HW137497   0.912   0.611   5.740  1.3595  0.4093 -0.8258
11830SOL    HW237498   0.979   0.740   5.781  0.4101  0.8084 -0.5060
11831SOL     OW37499  10.559   0.020   8.680  0.3964 -0.3936 -0.4214
11831SOL    HW137500  10.520   0.108   8.676  0.7179 -0.2521 -0.5240
11831SOL    HW237501  10.489  -0.039   8.651 -0.3306 -0.3377  1.1158
11832SOL     OW37502   5.486   8.474   6.161 -0.0283  0.3892  0.1702
11832SOL    HW137503   5.498   8.474   6.066  0.9331 -0.0127  0.2878
11832SOL    HW237504   5.475   8.382   6.184  3.5843 -0.0049  0.8874
11833SOL     OW37505   7.837   7.076   0.153 -0.5354  0.5217 -0.5156
11833SOL    HW137506   7.828   6.984   0.175 -0.4045  0.6286  0.0263
11833SOL    HW237507   7.860   7.118   0.236  0.0188  0.9487 -0.8739
11834SOL     OW37508   8.315   3.559   8.260  0.4763  0.5074 -0.5520
11834SOL    HW137509   8.407   3.560   8.231  0.5301  2.3362 -0.4316
11834SOL    HW237510   8.307   3.636   8.316 -1.5237  1.2955 -1.8337
11835SOL     OW37511   2.254   4.071   3.067 -0.6321 -0.7690 -0.0242
11835SOL    HW137512   2.176   4.114   3.103  1.0871  2.1039  0.6278
11835SOL    HW237513   2.257   3.986   3.111 -1.7226  0.3427  2.3837
11836SOL     OW37514   5.309   3.688   0.577 -0.5168  0.0342 -0.0579
11836SOL    HW137515   5.239   3.635   0.540  0.9741 -0.7667 -1.9497
11836SOL    HW237516   5.299   3.774   0.535 -2.4565  1.1177  2.4113
11837SOL     OW37517   5.148   3.842   7.503  0.2299  0.1771 -0.6488
11837SOL    HW137518   5.081   3.894   7.547 -0.4810  0.4044 -1.9359
11837SOL    HW237519   5.227   3.857   7.554 -0.3274  1.2502 -0.0597
11838SOL     OW37520   9.912   5.585   0.251 -0.4641  0.2006 -0.0023
11838SOL    HW137521   9.943   5.648   0.316 -1.3265 -0.2398  0.8456
11838SOL    HW237522   9.842   5.537   0.294  0.2295 -1.4194 -0.6065
11839SOL     OW37523   5.512   0.849   3.207 -0.5536 -0.2417  0.2086
11839SOL    HW137524   5.441   0.831   3.268  0.1637 -1.1316  0.8076
11839SOL    HW237525   5.543   0.762   3.180  0.8521  0.1119  0.6249
11840SOL     OW37526   5.897   8.118  10.723  0.2155 -0.1032 -0.2737
11840SOL    HW137527   5.801   8.128  10.725  0.3247  1.1864 -0.5648
11840SOL    HW237528   5.915   8.054  10.792 -1.1566 -3.5212 -2.7742
11841SOL     OW37529   9.510   1.748   1.806 -0.1127 -0.0295  0.0512
11841SOL    HW137530   9.464   1.818   1.853  1.1636  0.6083  0.3938
11841SOL    HW237531   9.523   1.783   1.718 -0.9464 -0.5232 -0.2811
11842SOL     OW37532   4.421   7.618   3.272  0.7395  0.2703 -0.3250
11842SOL    HW137533   4.352   7.555   3.249 -0.2064  0.5317  1.5947
11842SOL    HW237534   4.441   7.662   3.189 -1.6948  0.4617 -0.8948
11843SOL     OW37535   8.412   4.071   8.094  0.7521  0.3077 -0.0975
11843SOL    HW137536   8.456   4.149   8.130  1.0362  0.5124 -0.8673
11843SOL    HW237537   8.429   4.002   8.158  1.8278  0.4955 -0.1578
11844SOL     OW37538   2.621   8.997   4.824  0.3651 -0.0233  0.0877
11844SOL    HW137539   2.550   8.956   4.874  0.7463  0.6248  1.1942
11844SOL    HW237540   2.701   8.957   4.858  0.5520 -0.7874 -1.1950
11845SOL     OW37541   4.847   0.615   8.206 -0.4893  0.3936 -0.1704
11845SOL    HW137542   4.771   0.562   8.229 -0.2848  0.3744  0.4907
11845SOL    HW237543   4.813   0.705   8.205 -0.5839  0.3587 -0.1486
11846SOL     OW37544   6.725   3.443   1.284 -0.4930 -0.4361 -0.3747
11846SOL    HW137545   6.760   3.390   1.356 -0.9113 -0.1333  0.0557
11846SOL    HW237546   6.717   3.382   1.211  0.1385 -0.6998 -0.2325
11847SOL     OW37547   9.874   8.019   6.420 -0.6782 -0.2131 -0.1747
11847SOL    HW137548   9.901   8.052   6.506 -1.9582  1.8406 -0.4794
11847SOL    HW237549   9.787   7.982   6.434 -0.6045 -0.4898 -0.4445
11848SOL     OW37550  10.450  10.537   0.547  0.8676 -0.0312 -0.3589
11848SOL    HW137551  10.545  10.528   0.548  0.9989  0.8495 -1.7688
11848SOL    HW237552  10.433  10.603   0.480 -0.6883  0.5097  0.5131
11849SOL     OW37553   7.942   9.765   6.040 -0.6848  0.2324 -0.3001
11849SOL    HW137554   7.968   9.741   6.129  1.3182  0.1702 -0.8519
11849SOL    HW237555   7.894   9.689   6.007 -0.4973 -0.1747  0.3642
11850SOL     OW37556  10.276   0.642   9.761 -0.1521  0.2723  0.0623
11850SOL    HW137557  10.368   0.650   9.786 -0.3835 -1.1069  1.5730
11850SOL    HW237558  10.252   0.553   9.789 -1.7493  0.3420 -0.9728
11851SOL     OW37559   8.675   9.788   7.260  0.0600 -0.5236 -0.3898
11851SOL    HW137560   8.702   9.700   7.235  0.3171 -0.4318 -0.4384
11851SOL    HW237561   8.757   9.835   7.274 -0.0759 -0.3874 -0.0253
11852SOL     OW37562   5.576   0.551   7.627 -0.0189 -0.0077  0.0733
11852SOL    HW137563   5.587   0.619   7.694 -2.0581 -0.3120  0.7979
11852SOL    HW237564   5.507   0.585   7.570  2.0410  0.5020 -2.3217
11853SOL     OW37565   3.758   0.067   5.524  0.0848  0.4888 -0.7565
11853SOL    HW137566   3.802   0.144   5.562 -2.1645  0.5886  1.9704
11853SOL    HW237567   3.761   0.001   5.594 -2.4803 -0.0897 -1.1085
11854SOL     OW37568   6.971   7.463   6.325 -0.6296 -0.0269  0.2547
11854SOL    HW137569   6.914   7.386   6.319 -2.2781  1.1154  0.6090
11854SOL    HW237570   6.951   7.500   6.410  1.4345 -0.1375  0.8290
11855SOL     OW37571   1.897   5.496   0.457 -0.1793 -0.1861  0.0963
11855SOL    HW137572   1.855   5.450   0.530  0.2537  0.7167  0.9347
11855SOL    HW237573   1.829   5.499   0.389 -0.4979 -1.2889  0.3318
11856SOL     OW37574   3.564   7.246   1.555  0.3516  0.4397 -0.8396
11856SOL    HW137575   3.481   7.233   1.602  1.7783 -1.6588  1.3178
11856SOL    HW237576   3.540   7.240   1.463 -1.8871 -0.2439 -0.2856
11857SOL     OW37577   5.591   4.321   0.397 -0.0446  0.4447 -0.6376
11857SOL    HW137578   5.569   4.365   0.315 -0.9041  2.1915  0.4942
11857SOL    HW237579   5.543   4.369   0.464  0.6886 -0.9138  0.9205
11858SOL     OW37580   6.045   6.567   0.574 -0.0338 -0.0396 -0.3222
11858SOL    HW137581   6.025   6.631   0.643  1.0470 -0.1050  0.0579
11858SOL    HW237582   6.119   6.604   0.527  2.0469 -1.9422  1.2333
11859SOL     OW37583   6.304   4.273   3.426  0.6259 -0.0927  0.4673
11859SOL    HW137584   6.274   4.334   3.360 -1.0218  0.9791  2.1150
11859SOL    HW237585   6.380   4.316   3.466  0.8068 -0.1476  0.1911
11860SOL     OW37586   2.148   4.815   4.414 -0.1311  0.2128  0.1365
11860SOL    HW137587   2.058   4.784   4.428 -0.1173  0.2032  0.2044
11860SOL    HW237588   2.180   4.834   4.502  0.8984 -2.4163  0.4225
11861SOL     OW37589   3.579   2.525   5.376 -0.8904 -0.5150  0.4019
11861SOL    HW137590   3.578   2.585   5.451 -0.2252 -0.0325  0.0341
11861SOL    HW237591   3.667   2.487   5.377 -0.0914  1.1479 -1.4147
11862SOL     OW37592   0.942  10.450   6.679  0.2869 -0.0137  0.7984
11862SOL    HW137593   0.915  10.444   6.771 -1.8089  1.7207  0.3749
11862SOL    HW237594   0.881  10.513   6.640  1.7622  0.0715 -1.5654
11863SOL     OW37595   9.548   9.322   1.528  0.0005 -0.3232 -0.3597
11863SOL    HW137596   9.642   9.329   1.511  0.4128 -1.8495  1.0305
11863SOL    HW237597   9.532   9.228   1.534 -1.5560 -0.0722 -0.2061
11864SOL     OW37598   6.704   3.973   1.771  0.0331  0.1506 -0.0191
11864SOL    HW137599   6.682   3.894   1.820  1.5648 -0.4050 -0.1659
11864SOL    HW237600   6.695   3.948   1.679 -2.5529  1.1072 -0.0975
11865SOL     OW37601   6.302   1.987   2.851 -0.7080  0.0530 -0.9188
11865SOL    HW137602   6.336   1.904   2.818  0.4409  0.0172  0.2523
11865SOL    HW237603   6.274   1.967   2.941  0.5685  1.1326 -0.2456
11866SOL     OW37604   2.427   4.842   9.900 -0.0889 -0.4049 -0.5588
11866SOL    HW137605   2.345   4.796   9.882 -1.2596  1.0745  0.7269
11866SOL    HW237606   2.463   4.798   9.977 -1.5849  1.1990  1.1284
11867SOL     OW37607   7.342   6.902   5.415  0.3993  0.0327  0.0063
11867SOL    HW137608   7.297   6.986   5.401 -1.4964 -1.1701 -1.6169
11867SOL    HW237609   7.417   6.905   5.355  0.0847  0.3786 -0.3781
11868SOL     OW37610   8.105   4.638   0.098 -0.3180  0.0152 -0.3198
11868SOL    HW137611   8.188   4.646   0.145  0.1455 -0.7856 -0.9737
11868SOL    HW237612   8.039   4.630   0.167  0.3181 -0.8407  0.2211
11869SOL     OW37613   5.145   5.378   4.669  0.5505 -0.0034  0.1003
11869SOL    HW137614   5.164   5.296   4.714  3.0249  0.8903  0.8283
11869SOL    HW237615   5.068   5.413   4.714 -1.3246 -2.4121 -1.0165
11870SOL     OW37616  10.058   4.707   7.686 -0.0932 -0.4145 -0.1422
11870SOL    HW137617  10.101   4.745   7.762  0.6009 -0.3959 -0.5361
11870SOL    HW237618  10.123   4.647   7.649 -0.1970  0.0159 -1.0554
11871SOL     OW37619   2.631   9.396   4.422  0.1925 -0.0134 -0.0056
11871SOL    HW137620   2.693   9.328   4.449 -0.1597 -0.8628 -1.2196
11871SOL    HW237621   2.548   9.369   4.461  0.4280  0.7675  1.0747
11872SOL     OW37622   3.212   5.021  10.494 -0.0075 -0.6893  0.0210
11872SOL    HW137623   3.286   4.972  10.459 -0.6309 -1.6546  0.0184
11872SOL    HW237624   3.226   5.111  10.463  2.3445 -0.3118  1.8680
11873SOL     OW37625  10.772   9.485   7.553 -0.2425 -0.4790  0.4170
11873SOL    HW137626  10.709   9.412   7.550 -1.7311  0.7807 -1.5392
11873SOL    HW237627  10.727   9.553   7.602 -0.3821  0.3812 -0.8656
11874SOL     OW37628   0.054   4.366   4.051 -0.3135  0.1393  0.3759
11874SOL    HW137629   0.122   4.384   3.986  0.1433 -0.0241  0.8054
11874SOL    HW237630   0.093   4.301   4.109 -0.9320 -0.1546  0.4742
11875SOL     OW37631   2.887   6.037   2.700 -0.0193  0.5404  0.2106
11875SOL    HW137632   2.977   6.012   2.722 -0.2798 -0.6381  0.0171
11875SOL    HW237633   2.836   5.957   2.717 -1.2125  1.5067  1.3905
11876SOL     OW37634   3.115  10.681  10.578 -0.1079 -0.2584 -0.0605
11876SOL    HW137635   3.111  10.660  10.485  0.0318 -2.0772  0.3105
11876SOL    HW237636   3.151  10.603  10.619  1.4596  1.1014  1.3443
11877SOL     OW37637   9.608   3.688  10.624  0.3789  0.2870  0.6465
11877SOL    HW137638   9.645   3.686  10.712 -0.9881  0.3319  1.2417
11877SOL    HW237639   9.513   3.680  10.637  0.2861 -2.4116 -0.9298
11878SOL     OW37640   3.913   2.680   0.434 -0.0812  0.4212 -0.3303
11878SOL    HW137641   3.966   2.738   0.488  0.4105  0.5514 -0.9357
11878SOL    HW237642   3.839   2.656   0.489  1.1669 -0.6794  0.9654
11879SOL     OW37643   1.170   4.163  10.770 -1.1757  0.7066 -0.3386
11879SOL    HW137644   1.214   4.081  10.789 -2.9158 -0.1265  0.3807
11879SOL    HW237645   1.205   4.225  10.835 -1.2574 -0.0094  0.4039
11880SOL     OW37646   2.519  10.726   3.978 -0.2804 -0.0305  0.2929
11880SOL    HW137647   2.521  10.820   3.997  0.2022  0.0531 -0.1377
11880SOL    HW237648   2.555  10.685   4.056  1.2400  0.2752 -0.2120
11881SOL     OW37649   5.872  10.902   6.432 -0.1162 -0.0416 -0.0742
11881SOL    HW137650   5.851  10.967   6.500  0.0102 -0.0387 -0.0369
11881SOL    HW237651   5.960  10.871   6.455 -0.5123 -0.8369  0.3873
11882SOL     OW37652  11.034   6.766   0.277  0.9012 -0.1905 -0.6937
11882SOL    HW137653  10.942   6.737   0.273  0.7685  0.3026 -1.2805
11882SOL    HW237654  11.047   6.787   0.370 -0.5221  2.6311 -1.0112
11883SOL     OW37655   3.778   8.306   3.404 -0.0319  0.4126 -0.1811
11883SOL    HW137656   3.847   8.263   3.454 -0.7320 -1.9583 -1.1138
11883SOL    HW237657   3.730   8.357   3.470  1.6206  0.8698  0.7407
11884SOL     OW37658   1.631   3.509   8.110 -0.6276  0.6300 -0.6329
11884SOL    HW137659   1.617   3.445   8.040 -2.0599 -0.7092  0.8028
11884SOL    HW237660   1.586   3.472   8.186 -0.4510  2.7862  0.5941
11885SOL     OW37661   8.569   8.319   6.491 -0.3098  0.0117 -0.0272
11885SOL    HW137662   8.594   8.302   6.400  1.7554  1.0703  0.2683
11885SOL    HW237663   8.501   8.386   6.485 -1.3466 -1.0705 -0.8110
11886SOL     OW37664   2.140   0.169  10.679 -0.1890  0.2696  0.2772
11886SOL    HW137665   2.226   0.127  10.673 -0.3611  0.0348 -0.8605
11886SOL    HW237666   2.087   0.123  10.614 -1.7245 -0.8338  2.2237
11887SOL     OW37667   2.590   4.038   8.967 -0.8038  0.3442 -0.7608
11887SOL    HW137668   2.586   4.007   8.876  1.2292 -1.4710 -0.3307
11887SOL    HW237669   2.503   4.021   9.002 -0.9444 -1.1827 -1.7482
11888SOL     OW37670   3.970   9.757   0.143  0.4608  0.4706 -0.1394
11888SOL    HW137671   3.913   9.782   0.216  0.1999  1.1263 -0.5607
11888SOL    HW237672   4.034   9.828   0.137  0.5268  0.3823 -0.5015
11889SOL     OW37673   9.335   2.876   7.025 -0.0537 -0.1013 -0.0076
11889SOL    HW137674   9.316   2.782   7.019  1.9847 -0.8153  2.4869
11889SOL    HW237675   9.430   2.880   7.035  0.2098  2.4669 -2.4495
11890SOL     OW37676   8.287   9.945  10.609 -0.2300 -0.1582 -0.2366
11890SOL    HW137677   8.325   9.956  10.522 -0.6030 -3.6676 -0.9915
11890SOL    HW237678   8.344   9.882  10.652 -1.1141  0.0996  1.3816
11891SOL     OW37679   9.174   7.683   3.951  0.2873 -0.4201 -0.4568
11891SOL    HW137680   9.254   7.734   3.936 -0.8907  1.6326 -0.2270
11891SOL    HW237681   9.120   7.701   3.874  0.0397 -1.8071 -0.6296
11892SOL     OW37682  10.712   7.561   4.368  0.1619 -0.0369 -0.3516
11892SOL    HW137683  10.770   7.602   4.431 -0.5090  0.3196  0.0501
11892SOL    HW237684  10.681   7.633   4.312 -0.2966 -0.1366 -0.2309
11893SOL     OW37685   3.332   0.915   9.955  0.1366  0.2762 -0.3020
11893SOL    HW137686   3.414   0.962   9.968 -0.2594  0.8880  0.0050
11893SOL    HW237687   3.352   0.824   9.981 -0.1855  1.0769  3.3947
11894SOL     OW37688   3.780   7.229   7.046 -0.7452 -0.4686  0.0897
11894SOL    HW137689   3.830   7.246   6.967 -3.4978  0.3367 -1.6297
11894SOL    HW237690   3.846   7.219   7.115  1.6997  2.5559 -1.5536
11895SOL     OW37691   4.848   7.704   2.601  0.2181  0.0051 -0.0248
11895SOL    HW137692   4.938   7.736   2.603 -0.0066  0.9062 -1.9938
11895SOL    HW237693   4.853   7.616   2.638  1.7193  0.4229  0.8484
11896SOL     OW37694   1.391   3.274   6.187 -0.2592  0.9241 -0.2146
11896SOL    HW137695   1.397   3.194   6.135  1.2959 -0.3777  1.7741
11896SOL    HW237696   1.307   3.313   6.163 -1.5411 -1.8227 -0.6050
11897SOL     OW37697   4.843   7.978   3.909 -0.1812  0.0789  0.0218
11897SOL    HW137698   4.880   7.980   3.997 -0.6660 -0.6469  0.2564
11897SOL    HW237699   4.759   7.932   3.919 -0.9854  1.3623 -0.5529
11898SOL     OW37700   5.352   7.368  10.455  0.0281 -0.3000 -0.0406
11898SOL    HW137701   5.412   7.311  10.503  0.5900  0.9631  0.8230
11898SOL    HW237702   5.377   7.359  10.364 -0.3481 -1.9324 -0.0028
11899SOL     OW37703   8.778  11.013  10.746 -0.0946  0.0973  0.4189
11899SOL    HW137704   8.745  11.060  10.822 -1.7807 -1.1871  0.5272
11899SOL    HW237705   8.701  10.996  10.692  1.0041  0.6119 -1.3937
11900SOL     OW37706   9.766   8.259   6.888 -0.3049 -0.0191  0.3565
11900SOL    HW137707   9.671   8.266   6.891 -0.3255 -0.2472  0.2464
11900SOL    HW237708   9.783   8.169   6.861 -0.0625  0.2202 -0.3042
11901SOL     OW37709   3.814   8.926   1.012  0.0852 -0.2150 -0.2442
11901SOL    HW137710   3.779   8.911   0.924 -0.5766 -2.3462  0.3487
11901SOL    HW237711   3.832   8.839   1.046  0.7407  0.5985  1.5934
11902SOL     OW37712   6.205   5.490   7.039 -0.4291 -0.0364 -0.0357
11902SOL    HW137713   6.156   5.504   6.957 -5.1692 -1.7971  2.1440
11902SOL    HW237714   6.206   5.576   7.082 -0.3009  0.3084 -0.7097
11903SOL     OW37715   4.980   9.508   5.179 -0.2395  0.4670  0.0478
11903SOL    HW137716   5.024   9.524   5.263  0.6622 -0.2608 -0.2612
11903SOL    HW237717   4.912   9.445   5.199  0.0276  0.2329  0.2243
11904SOL     OW37718   0.683  10.688   7.957  0.1799 -0.4745  0.0481
11904SOL    HW137719   0.686  10.601   7.998 -0.4892 -0.9125 -0.8098
11904SOL    HW237720   0.612  10.733   8.003  0.2052 -0.5551  0.1666
11905SOL     OW37721   8.249   5.620   6.399 -0.1555  0.3809 -0.3337
11905SOL    HW137722   8.170   5.573   6.373  0.8671 -0.5870 -1.9143
11905SOL    HW237723   8.226   5.713   6.393 -1.0843  0.1158 -1.0765
11906SOL     OW37724   2.853   8.790   4.589 -0.3328  0.1005 -0.1060
11906SOL    HW137725   2.912   8.739   4.534  1.1333 -0.5536  1.9383
11906SOL    HW237726   2.910   8.853   4.633 -0.9445 -1.0016  2.4525
11907SOL     OW37727   7.937   5.166   1.464  0.1774 -0.0599 -0.3759
11907SOL    HW137728   7.877   5.197   1.532 -0.3744  0.4399 -1.0781
11907SOL    HW237729   7.999   5.110   1.511 -0.7680 -0.5035  0.3832
11908SOL     OW37730   8.532   7.877   9.008  0.0206  0.0000  0.0601
11908SOL    HW137731   8.587   7.854   8.933  0.3888 -1.3630  0.7248
11908SOL    HW237732   8.540   7.802   9.067 -0.3798  0.9951  1.4009
11909SOL     OW37733  10.967  10.405   2.165  1.0905  0.0020 -0.2348
11909SOL    HW137734  11.057  10.397   2.195  1.6221  3.7880 -0.3432
11909SOL    HW237735  10.973  10.402   2.069  0.6865 -2.2266 -0.2410
11910SOL     OW37736   2.059   0.049   1.690  0.3453  0.9667  0.3432
11910SOL    HW137737   2.096   0.015   1.772  1.1243  0.1846 -0.3139
11910SOL    HW237738   1.967   0.066   1.710 -0.1454 -1.7175  0.6944
11911SOL     OW37739   3.274   0.887   7.932  0.2071 -0.5873  0.1729
11911SOL    HW137740   3.301   0.966   7.978 -0.9704  0.8081 -1.4066
11911SOL    HW237741   3.342   0.874   7.865  0.4622 -1.0063  0.5063
11912SOL     OW37742   7.424   5.773   0.984  0.4109  0.0297  0.0550
11912SOL    HW137743   7.360   5.717   0.940 -0.7897  0.6935  0.8977
11912SOL    HW237744   7.461   5.827   0.914  0.6217 -0.9004 -0.5620
11913SOL     OW37745   5.342   8.898   7.104 -0.0691 -0.1485 -0.2597
11913SOL    HW137746   5.338   8.899   7.008 -1.6721 -0.3079 -0.2218
11913SOL    HW237747   5.415   8.840   7.124  0.7644  0.4593 -1.3729
11914SOL     OW37748   8.384   5.479   0.366 -0.2581  0.3269  0.1768
11914SOL    HW137749   8.429   5.424   0.430 -1.0084 -0.8904 -0.3248
11914SOL    HW237750   8.351   5.553   0.418 -0.6808 -0.5392  1.1645
11915SOL     OW37751   6.983   6.375   2.448  0.5784 -0.2391  0.5097
11915SOL    HW137752   7.072   6.388   2.480  0.3631  1.6318  0.4794
11915SOL    HW237753   6.941   6.460   2.460 -0.3991 -0.2912 -1.9797
11916SOL     OW37754   8.280   3.475   6.240  0.4949 -0.0564  0.4256
11916SOL    HW137755   8.209   3.421   6.275  1.0497 -0.1493  1.4491
11916SOL    HW237756   8.349   3.412   6.217 -0.1192 -0.0791 -1.5981
11917SOL     OW37757   8.448   3.142   5.953 -0.3772 -0.3634  0.1730
11917SOL    HW137758   8.411   3.155   6.040  0.1654 -2.5462  0.8104
11917SOL    HW237759   8.475   3.229   5.924 -1.4848  0.5431  1.7505
11918SOL     OW37760   4.611   1.917   6.758 -0.0068  0.7637  0.0984
11918SOL    HW137761   4.537   1.964   6.719 -0.7395 -0.4241 -0.0070
11918SOL    HW237762   4.589   1.824   6.746  0.7408  0.3761  1.4959
11919SOL     OW37763   6.358   0.439  10.190  0.1672  0.3021  0.4024
11919SOL    HW137764   6.431   0.421  10.250  0.7812 -0.8006 -0.6176
11919SOL    HW237765   6.364   0.533  10.172  2.6805 -0.0627 -1.2608
11920SOL     OW37766  10.811   7.211   8.118  0.2770  0.2115 -0.3518
11920SOL    HW137767  10.773   7.276   8.058 -0.3668 -0.4248 -0.6489
11920SOL    HW237768  10.768   7.228   8.202 -0.6533 -0.4622 -0.6702
11921SOL     OW37769   2.216   0.933   3.004  0.2958 -0.0643  0.1586
11921SOL    HW137770   2.173   0.848   3.012 -0.5348  0.3255 -0.1038
11921SOL    HW237771   2.292   0.927   3.063  2.2009 -2.1693 -2.2490
11922SOL     OW37772   6.909   6.689   9.970 -1.2533  0.6149 -1.0501
11922SOL    HW137773   6.934   6.706  10.061 -0.4617  3.1050 -1.6777
11922SOL    HW237774   6.881   6.597   9.971 -0.5455  0.3304  1.5294
11923SOL     OW37775   7.177   7.098   7.371 -0.1734 -0.4832  0.4858
11923SOL    HW137776   7.167   7.035   7.442  1.6802 -1.5867 -0.1610
11923SOL    HW237777   7.144   7.181   7.407  0.7661 -0.9788  2.6504
11924SOL     OW37778   3.459   7.703   0.254  0.0648 -0.6263  0.7317
11924SOL    HW137779   3.517   7.772   0.286 -0.3096  0.8195 -1.5415
11924SOL    HW237780   3.467   7.634   0.320  1.3532  1.0808  2.4859
11925SOL     OW37781   0.802   5.438  10.744  0.3905 -0.0125  0.1248
11925SOL    HW137782   0.824   5.450  10.836  0.5028 -0.6188  0.1798
11925SOL    HW237783   0.843   5.354  10.720  0.5395  0.2402 -0.5285
11926SOL     OW37784  10.497   4.588   4.587  0.5020  0.2330  0.8269
11926SOL    HW137785  10.486   4.514   4.647  0.2151 -0.1621  0.3037
11926SOL    HW237786  10.590   4.609   4.592  0.4653  0.2636  1.4713
11927SOL     OW37787   3.565   8.115   1.773  0.0505  0.0084  0.1418
11927SOL    HW137788   3.548   8.206   1.797  0.5577  0.4581 -1.0948
11927SOL    HW237789   3.630   8.120   1.703  0.8363 -1.3640  0.7181
11928SOL     OW37790   6.524   8.950   4.713  0.4216  0.2320 -0.0753
11928SOL    HW137791   6.592   8.934   4.647  1.2296  1.2085  0.4911
11928SOL    HW237792   6.493   8.863   4.737  1.6672 -0.2601 -0.1536
11929SOL     OW37793   2.942  10.052   8.754 -0.6760  0.1164  0.3785
11929SOL    HW137794   2.942  10.020   8.844 -1.6606  2.6855  1.3830
11929SOL    HW237795   2.853  10.038   8.722 -0.7639  0.6588  0.3764
11930SOL     OW37796   1.263  10.439   4.719 -0.2523  0.0358  0.3729
11930SOL    HW137797   1.253  10.344   4.727 -2.1436  0.1060 -0.5053
11930SOL    HW237798   1.258  10.456   4.625 -1.5211  1.1004  0.6015
11931SOL     OW37799   3.722   5.158   5.689  0.5002 -0.3785  0.0808
11931SOL    HW137800   3.639   5.207   5.689  0.2750 -0.7432 -0.7111
11931SOL    HW237801   3.712   5.095   5.618  0.8299 -1.5082  1.0181
11932SOL     OW37802   0.645   3.085   5.926  0.1977  0.2480  0.6390
11932SOL    HW137803   0.702   3.063   5.999 -0.7895  0.4489  1.4906
11932SOL    HW237804   0.592   3.158   5.958 -0.0214  0.5632 -0.3944
11933SOL     OW37805   6.026   5.384  10.549 -0.4178 -0.0915  0.0906
11933SOL    HW137806   6.053   5.366  10.639  0.8604 -1.4468 -0.5220
11933SOL    HW237807   5.970   5.309  10.527 -0.6236  0.1750 -0.2798
11934SOL     OW37808   3.947   6.864  10.353 -0.1960 -0.0559  0.0724
11934SOL    HW137809   3.942   6.873  10.448  0.1261  1.9979 -0.0664
11934SOL    HW237810   3.860   6.836  10.327 -0.1105 -1.2958  1.0049
11935SOL     OW37811   7.664   6.661   5.547 -0.1161  0.8526 -0.3148
11935SOL    HW137812   7.675   6.675   5.453  0.3499  1.5287 -0.1570
11935SOL    HW237813   7.580   6.614   5.553  0.1811  0.1862 -1.1134
11936SOL     OW37814   7.943   3.599   1.437 -0.7475  0.6982 -0.3286
11936SOL    HW137815   7.986   3.675   1.477 -1.9783  1.2590 -0.0192
11936SOL    HW237816   7.970   3.601   1.346  0.2493  0.7627 -0.0417
11937SOL     OW37817   3.372   3.905   4.027 -0.3806 -0.4205 -0.1008
11937SOL    HW137818   3.314   3.847   3.978  0.4787 -1.1850 -0.2169
11937SOL    HW237819   3.441   3.928   3.966 -0.9351  1.1208 -0.2112
11938SOL     OW37820   4.942   2.946   5.763 -0.2737 -0.3093  0.5994
11938SOL    HW137821   4.941   2.874   5.700 -1.0621 -0.0374  0.2920
11938SOL    HW237822   4.855   2.943   5.803  0.1608 -0.3856  1.5794
11939SOL     OW37823   5.122   7.752   8.369 -0.0709 -0.2810 -0.2002
11939SOL    HW137824   5.070   7.809   8.425  1.0636  0.2048  0.3803
11939SOL    HW237825   5.145   7.805   8.294 -0.5208 -0.5418 -0.5279
11940SOL     OW37826   3.332   3.878   1.259  0.2987  0.1474  0.3772
11940SOL    HW137827   3.422   3.855   1.280  0.3191 -0.0687  0.0696
11940SOL    HW237828   3.323   3.969   1.286  0.8519  0.4241 -0.3446
11941SOL     OW37829   0.984   7.130  10.846  0.0608  0.7061 -0.2580
11941SOL    HW137830   1.047   7.182  10.794  2.6807 -1.7185  0.2461
11941SOL    HW237831   0.988   7.169  10.934  1.0598  0.4527 -0.1787
11942SOL     OW37832   3.223   8.323   2.478  0.8141  0.0330 -0.7312
11942SOL    HW137833   3.144   8.271   2.464  1.7004 -1.6759  0.3117
11942SOL    HW237834   3.203   8.408   2.439 -2.2316  0.3038  1.0568
11943SOL     OW37835   5.189   8.726   0.690 -0.0155 -0.1421  0.1312
11943SOL    HW137836   5.187   8.711   0.784 -0.3738  0.8933  0.3021
11943SOL    HW237837   5.243   8.804   0.679  1.7645 -1.4186 -0.7205
11944SOL     OW37838   8.576   9.107   3.325 -0.0426 -0.0991  0.0068
11944SOL    HW137839   8.594   9.031   3.380  0.9892  1.2583  1.6330
11944SOL    HW237840   8.654   9.118   3.271 -0.7653 -1.0010 -1.2777
11945SOL     OW37841   2.606   2.541   2.056 -0.2094  0.2646 -0.3545
11945SOL    HW137842   2.581   2.620   2.009  0.9286  1.1436  0.4616
11945SOL    HW237843   2.530   2.519   2.110 -0.5587  0.7464 -0.6475
11946SOL     OW37844   6.647   8.314   4.338 -0.0037 -0.3855 -0.2818
11946SOL    HW137845   6.673   8.393   4.292 -2.1856  0.4451 -0.1551
11946SOL    HW237846   6.565   8.287   4.297 -0.6861 -1.0555  1.4249
11947SOL     OW37847   4.076   2.662   9.282 -0.1574 -0.0142  0.6978
11947SOL    HW137848   4.092   2.683   9.191 -0.9560  1.1850  0.8175
11947SOL    HW237849   4.154   2.613   9.310  0.3306  0.0864 -0.4629
11948SOL     OW37850   8.147   5.572   7.192 -0.3205  0.4586  0.5224
11948SOL    HW137851   8.171   5.531   7.274 -0.2296 -2.1358 -0.6877
11948SOL    HW237852   8.197   5.653   7.189  1.2398 -0.3887  2.1161
11949SOL     OW37853   2.885   3.224   7.743 -0.6493 -0.1240 -0.2111
11949SOL    HW137854   2.833   3.144   7.737 -0.7210 -0.0964  0.0370
11949SOL    HW237855   2.955   3.212   7.678 -0.8534 -0.2435 -0.4116
11950SOL     OW37856   7.842   5.931   3.970 -0.4703 -0.0668 -0.3299
11950SOL    HW137857   7.754   5.941   3.934 -0.8251  0.1446  0.5646
11950SOL    HW237858   7.897   5.911   3.894 -1.0370  1.1859 -1.1028
11951SOL     OW37859   2.659  10.927   0.881 -0.2802 -0.4930 -0.4660
11951SOL    HW137860   2.595  10.998   0.889 -1.3924 -1.4679 -0.3850
11951SOL    HW237861   2.667  10.912   0.787 -1.2118 -1.2689 -0.4283
11952SOL     OW37862   4.104   2.137   7.565 -0.3743  0.4338 -0.4154
11952SOL    HW137863   4.127   2.076   7.495  0.3495  1.4873 -1.1238
11952SOL    HW237864   4.014   2.112   7.590 -0.1754 -0.7679 -0.8111
11953SOL     OW37865   8.478   2.022   5.639 -0.1700 -0.0964 -0.4386
11953SOL    HW137866   8.546   2.050   5.700  0.9511  0.3928 -1.8528
11953SOL    HW237867   8.403   2.077   5.659 -0.5314 -1.3062  1.8047
11954SOL     OW37868   7.076   3.755  10.402 -0.2329 -0.2036  1.0449
11954SOL    HW137869   7.047   3.756  10.493 -4.2358  0.9652 -0.0805
11954SOL    HW237870   7.055   3.667  10.371 -0.3191 -0.1022  0.8189
11955SOL     OW37871   6.289   9.854  10.884 -0.9884  0.3693  0.0683
11955SOL    HW137872   6.201   9.817  10.877 -0.7418 -0.7124  1.9783
11955SOL    HW237873   6.275   9.944  10.914 -1.4733  0.6257 -0.9012
11956SOL     OW37874   8.318   1.089   6.568  0.0238 -0.2194  0.1604
11956SOL    HW137875   8.395   1.034   6.579 -0.9557 -1.4964  0.9401
11956SOL    HW237876   8.247   1.038   6.607 -1.6237 -0.0326 -2.4020
11957SOL     OW37877   3.586   0.862   1.650  0.9258  0.8353  0.3600
11957SOL    HW137878   3.638   0.786   1.676  0.2279 -0.1988 -1.1590
11957SOL    HW237879   3.645   0.937   1.663  2.1634 -0.1153  0.3826
11958SOL     OW37880  10.392   9.107   3.298  0.0113 -0.1063  0.1363
11958SOL    HW137881  10.405   9.030   3.353 -0.9785  0.5942  1.3958
11958SOL    HW237882  10.350   9.073   3.219 -2.9615 -0.6034  1.7823
11959SOL     OW37883   8.268   9.692   2.041  0.1183  0.0728 -0.0619
11959SOL    HW137884   8.348   9.724   2.083  0.4387 -0.4694 -0.2442
11959SOL    HW237885   8.299   9.626   1.979 -0.6591 -2.1552  1.7921
11960SOL     OW37886   5.079   1.682   9.256  0.2822 -0.1651  0.0398
11960SOL    HW137887   5.091   1.592   9.225  1.9293  0.3038 -0.8728
11960SOL    HW237888   5.081   1.735   9.176 -0.0289  0.7301  0.6074
11961SOL     OW37889   1.349   1.981  10.247 -0.1356  0.1452 -0.2399
11961SOL    HW137890   1.367   1.950  10.158 -0.9439  0.4999 -0.5366
11961SOL    HW237891   1.385   2.070  10.249  0.2956 -0.0305 -0.0598
11962SOL     OW37892   5.087   9.357   8.577  0.2874 -0.2960 -0.0179
11962SOL    HW137893   5.096   9.351   8.672  1.0675 -0.5474 -0.1019
11962SOL    HW237894   5.065   9.449   8.561 -1.1603 -0.5224  0.4861
11963SOL     OW37895   3.519   2.457   2.342  0.0055  0.0199  0.3717
11963SOL    HW137896   3.494   2.417   2.426  0.6471  2.4728  1.8440
11963SOL    HW237897   3.451   2.522   2.325  1.0874  1.1561  0.2377
11964SOL     OW37898   3.134   1.221   4.714 -0.2980 -0.1454  0.5180
11964SOL    HW137899   3.181   1.299   4.743  1.5347 -0.3179 -1.7099
11964SOL    HW237900   3.190   1.148   4.743 -1.3817 -0.6082  1.5195
11965SOL     OW37901   2.160   8.808   3.255 -0.2873 -0.2207  0.8211
11965SOL    HW137902   2.129   8.858   3.330  0.6304 -0.0723  1.1155
11965SOL    HW237903   2.089   8.746   3.237 -0.9019  0.3415  1.2352
11966SOL     OW37904   9.165   9.542   2.043 -0.2841 -0.3353 -0.5737
11966SOL    HW137905   9.139   9.460   2.085 -0.4374  0.1557  0.3006
11966SOL    HW237906   9.113   9.545   1.963 -1.2828 -0.4315  0.0609
11967SOL     OW37907   3.716   4.974   1.715 -0.0547  0.0612  0.2636
11967SOL    HW137908   3.800   5.019   1.709 -0.2041  0.5343  1.5518
11967SOL    HW237909   3.653   5.036   1.679 -0.1311  0.5421  1.2024
11968SOL     OW37910   2.415   7.830   3.288  0.3335 -0.1224  0.4787
11968SOL    HW137911   2.369   7.769   3.230  1.1973 -0.2353 -0.1031
11968SOL    HW237912   2.447   7.899   3.230  0.6622  0.0893  0.9092
11969SOL     OW37913   9.576   7.207   1.799  0.0936  0.4412 -0.3420
11969SOL    HW137914   9.592   7.286   1.851  0.8476 -0.2670  0.5330
11969SOL    HW237915   9.540   7.145   1.862  0.8548 -0.3791 -0.7043
11970SOL     OW37916   2.931   8.319   7.254  0.2170 -0.6865 -0.0584
11970SOL    HW137917   3.009   8.374   7.256  0.0809 -0.4935 -0.0007
11970SOL    HW237918   2.892   8.330   7.341 -0.8131  0.5911 -0.6412
11971SOL     OW37919   5.959   6.835   0.120  0.1037  0.1871 -0.3474
11971SOL    HW137920   5.970   6.930   0.125 -0.2585  0.1989  0.2463
11971SOL    HW237921   5.917   6.821   0.035  0.7810  0.4965 -0.7401
11972SOL     OW37922   2.011   8.236  10.593  0.0034 -0.4730 -0.2702
11972SOL    HW137923   1.989   8.326  10.619 -1.3170 -0.6883 -0.5291
11972SOL    HW237924   2.068   8.246  10.517 -1.7172  0.2024 -1.5600
11973SOL     OW37925   9.273   0.352  10.577  0.4119  0.6842 -0.0194
11973SOL    HW137926   9.238   0.439  10.598  0.3867  0.6079  0.2534
11973SOL    HW237927   9.237   0.295  10.644  3.6887  1.1773  2.4075
11974SOL     OW37928   4.306   4.026   3.392 -0.5622  0.6556 -0.4602
11974SOL    HW137929   4.233   4.037   3.331 -1.2874  0.4275  0.3506
11974SOL    HW237930   4.357   4.107   3.383 -2.8939  2.4613  1.5394
11975SOL     OW37931   3.339   5.848   8.052  0.7404  0.6367 -0.6919
11975SOL    HW137932   3.353   5.942   8.040 -2.1213  1.1670 -0.5863
11975SOL    HW237933   3.296   5.841   8.137 -0.1445 -0.6242 -1.2177
11976SOL     OW37934   7.537   3.461   0.529  0.4954 -0.1672  0.1895
11976SOL    HW137935   7.450   3.482   0.495  0.8316  0.7648 -0.1246
11976SOL    HW237936   7.531   3.369   0.556 -1.1770  0.4115  2.0383
11977SOL     OW37937   5.222  10.678   9.996 -0.2217  0.3782 -0.3417
11977SOL    HW137938   5.189  10.716  10.077 -0.1911  2.0090 -1.0554
11977SOL    HW237939   5.289  10.739   9.966  1.5690 -1.4955 -0.3325
11978SOL     OW37940   9.225   2.905  10.485  0.4743  0.2354  0.2524
11978SOL    HW137941   9.153   2.956  10.446 -1.2944 -0.8117  1.9348
11978SOL    HW237942   9.265   2.965  10.548  1.2451  0.8816 -0.8159
11979SOL     OW37943  10.393   6.692   3.946  0.6300  0.1680 -0.1368
11979SOL    HW137944  10.314   6.643   3.967  0.2076  1.1219  0.5863
11979SOL    HW237945  10.464   6.643   3.989  0.6920 -1.5493 -2.0686
11980SOL     OW37946   5.409   2.483   7.185  0.4327  0.3083  0.2682
11980SOL    HW137947   5.484   2.455   7.238  0.8802  0.5184 -0.2527
11980SOL    HW237948   5.440   2.478   7.095  0.2766  1.7611  0.1198
11981SOL     OW37949   0.865   4.685   1.517  0.2803  0.5061 -0.7439
11981SOL    HW137950   0.787   4.684   1.462 -0.1654  0.5177 -0.1274
11981SOL    HW237951   0.833   4.661   1.604  0.7381  1.7510 -0.2037
11982SOL     OW37952   0.667   2.260   4.822  0.2886 -0.1308  0.2465
11982SOL    HW137953   0.685   2.248   4.729 -0.2982 -0.0638  0.1177
11982SOL    HW237954   0.592   2.320   4.824 -0.0789 -0.5960  0.7401
11983SOL     OW37955   8.663  10.492   0.656  0.3930  0.9335  0.2027
11983SOL    HW137956   8.640  10.442   0.734  1.9726 -1.8243 -0.9870
11983SOL    HW237957   8.628  10.441   0.583  2.0197  1.5840 -1.0856
11984SOL     OW37958   9.040   9.298   3.072  0.1072  0.0616 -0.0130
11984SOL    HW137959   9.080   9.353   3.139 -0.6289  0.8433 -0.2127
11984SOL    HW237960   9.111   9.283   3.009  0.0302  1.7304 -0.5443
11985SOL     OW37961   1.061   2.827   1.023 -0.4778 -0.0238 -0.4520
11985SOL    HW137962   0.991   2.883   0.989  0.9878  0.1123 -3.5698
11985SOL    HW237963   1.040   2.740   0.992 -2.3711 -1.3621  3.8059
11986SOL     OW37964  10.894   0.788   6.093  0.1372  0.3652 -0.2474
11986SOL    HW137965  10.801   0.774   6.110  0.3517  0.6620  1.3297
11986SOL    HW237966  10.939   0.734   6.158  1.0598  1.1632 -0.2048
11987SOL     OW37967   8.467   8.651   4.314  0.4670  0.1078  0.7761
11987SOL    HW137968   8.529   8.715   4.280  0.2972 -0.8837 -1.5682
11987SOL    HW237969   8.405   8.638   4.243 -0.6415 -1.2077  1.9385
11988SOL     OW37970   8.157   8.392   2.956 -0.2302 -0.0536  0.2750
11988SOL    HW137971   8.133   8.484   2.944  2.7748  0.7149 -0.5042
11988SOL    HW237972   8.119   8.348   2.880 -0.8136  0.6967  0.1107
11989SOL     OW37973   3.480   6.412   8.984  0.0498 -0.4424  0.1839
11989SOL    HW137974   3.525   6.497   8.990  0.4542 -0.6706  0.4350
11989SOL    HW237975   3.548   6.351   8.956  0.0792 -0.9357  1.2840
11990SOL     OW37976   9.651   1.072   0.921  0.1329  0.1185  0.7264
11990SOL    HW137977   9.571   1.087   0.871  0.1885 -0.8876  0.3079
11990SOL    HW237978   9.705   1.149   0.904  0.2166 -0.2563 -0.9115
11991SOL     OW37979  10.206   1.032   5.547 -0.1828 -0.3661 -0.1608
11991SOL    HW137980  10.232   1.072   5.629  0.4203  1.1180 -1.0397
11991SOL    HW237981  10.281   0.978   5.521 -0.3702 -0.8267  0.2468
11992SOL     OW37982  10.430   5.823   5.832  0.0053 -0.0202  0.0267
11992SOL    HW137983  10.425   5.805   5.738 -0.1462 -0.7144  0.1601
11992SOL    HW237984  10.505   5.881   5.842 -0.2224  0.3913 -0.5682
11993SOL     OW37985   8.685   5.629   8.768 -0.5707 -0.0476  0.5572
11993SOL    HW137986   8.722   5.705   8.812  0.3587 -0.1237 -0.0547
11993SOL    HW237987   8.680   5.655   8.676 -2.6559  0.1846  0.6865
11994SOL     OW37988   4.033   5.385   3.309  0.6722  0.0495 -0.7221
11994SOL    HW137989   4.030   5.291   3.327 -0.1581  0.6530  3.1402
11994SOL    HW237990   3.983   5.395   3.228  2.4168 -2.9433 -2.3586
11995SOL     OW37991  11.028   2.676   7.380 -0.5577 -0.0230 -0.0870
11995SOL    HW137992  10.963   2.738   7.345  0.5929 -0.2709 -3.0001
11995SOL    HW237993  10.977   2.599   7.402 -1.4139  0.0180 -1.7166
11996SOL     OW37994   9.271   0.813   8.880 -0.3169 -0.0434  0.1144
11996SOL    HW137995   9.225   0.730   8.868 -0.4137 -0.0287  0.3586
11996SOL    HW237996   9.316   0.828   8.798  1.1225 -1.2034  0.6412
11997SOL     OW37997   5.069   3.695   0.125 -0.7735  0.5563  0.2041
11997SOL    HW137998   5.033   3.698   0.214  1.9307  0.8464  1.3933
11997SOL    HW237999   5.095   3.604   0.112  0.2608  0.8188  0.3582
11998SOL     OW38000   1.155   9.648   3.488  0.3936  0.5081 -0.0573
11998SOL    HW138001   1.230   9.602   3.450 -0.3290 -0.7374 -0.0185
11998SOL    HW238002   1.158   9.736   3.449  2.4535  0.8361  0.7008
11999SOL     OW38003   8.941   7.286   0.416 -0.1288 -0.1255 -0.1035
11999SOL    HW138004   8.996   7.344   0.363  2.1140 -1.4525  0.6576
11999SOL    HW238005   8.862   7.337   0.433  2.5839  3.7329  2.4558
12000SOL     OW38006   0.950   1.894   6.696 -0.1247 -0.0358  0.0020
12000SOL    HW138007   0.880   1.841   6.733  0.1539 -0.0107  0.5813
12000SOL    HW238008   0.989   1.839   6.628  0.8150 -0.9971  1.2766
12001SOL     OW38009   7.020   3.320   5.237 -0.2256 -0.3481  0.3968
12001SOL    HW138010   6.950   3.317   5.303  1.4998 -1.6283  2.2979
12001SOL    HW238011   7.009   3.239   5.187  0.6483 -1.2779  1.6234
12002SOL     OW38012   2.460   1.669   5.689 -0.4955  0.1230 -0.2589
12002SOL    HW138013   2.541   1.617   5.689  0.0578  0.9204  1.3856
12002SOL    HW238014   2.447   1.693   5.597  2.1346  1.4642 -0.3666
12003SOL     OW38015   4.766  10.575   8.167 -0.1828  0.3632  0.0439
12003SOL    HW138016   4.778  10.658   8.120 -1.6853  0.3249 -0.4444
12003SOL    HW238017   4.749  10.601   8.257  1.0960  0.4981  0.2662
12004SOL     OW38018   4.042   2.979  10.793  0.0986  0.0292 -0.3197
12004SOL    HW138019   4.121   2.937  10.759 -0.1962 -2.2849  1.5956
12004SOL    HW238020   4.075   3.054  10.842  0.8561  0.6302 -1.6735
12005SOL     OW38021   1.133   9.899   2.599  0.0252 -0.3298 -0.1995
12005SOL    HW138022   1.190   9.937   2.666  0.2015 -0.4024 -0.3073
12005SOL    HW238023   1.045   9.902   2.637  0.1967 -0.8429  0.2436
12006SOL     OW38024   5.281   8.774   2.972  0.4424 -0.0251  0.1372
12006SOL    HW138025   5.375   8.762   2.981  0.3030 -0.2113  1.5475
12006SOL    HW238026   5.268   8.796   2.879  1.8290 -0.2578 -0.1294
12007SOL     OW38027   0.754   1.245   4.391  0.6113  0.3180  0.3598
12007SOL    HW138028   0.707   1.311   4.340  0.9001 -0.5951 -1.1564
12007SOL    HW238029   0.827   1.219   4.334  1.9716  0.4781  1.9492
12008SOL     OW38030   7.259   5.271   7.007 -0.4418  0.4862 -0.0350
12008SOL    HW138031   7.345   5.239   6.980 -0.1077  1.0833  0.3140
12008SOL    HW238032   7.254   5.252   7.100 -0.3168  1.2771  0.1350
12009SOL     OW38033   3.526  10.038   3.945  0.6207 -0.3284 -0.3426
12009SOL    HW138034   3.480  10.121   3.934 -0.3076 -0.8501 -0.4821
12009SOL    HW238035   3.618  10.062   3.954  0.2993  0.7497  0.1592
12010SOL     OW38036   0.715  10.472   5.698 -0.0623  0.7529  0.2278
12010SOL    HW138037   0.792  10.436   5.742 -0.6323 -0.0821  0.5586
12010SOL    HW238038   0.653  10.489   5.769 -0.8882 -0.3458 -0.2045
12011SOL     OW38039   7.279   9.626   7.224  0.4221 -0.0057  0.8071
12011SOL    HW138040   7.371   9.599   7.230  0.6957  0.3319 -1.1645
12011SOL    HW238041   7.255   9.647   7.314  2.4651  0.5027  1.3014
12012SOL     OW38042   0.759   9.181   2.950 -0.4859  0.0909  0.0498
12012SOL    HW138043   0.780   9.087   2.957  0.2538  0.0342 -2.1348
12012SOL    HW238044   0.716   9.189   2.864 -1.4348  1.6298  0.6307
12013SOL     OW38045   8.697   0.861   1.036  0.3029 -0.6189 -0.0756
12013SOL    HW138046   8.711   0.767   1.045 -0.5063 -0.6566  0.8829
12013SOL    HW238047   8.773   0.901   1.078  0.8043 -0.8403 -0.7627
12014SOL     OW38048   8.368   0.273   2.286  0.5100  0.2270 -0.8134
12014SOL    HW138049   8.449   0.322   2.275  1.0377 -0.2847  0.5220
12014SOL    HW238050   8.307   0.313   2.224  1.6806  0.8230 -1.6205
12015SOL     OW38051   8.828   8.699   4.215  0.5242  0.0057  0.4267
12015SOL    HW138052   8.767   8.664   4.150  1.0379  1.5703 -0.9785
12015SOL    HW238053   8.822   8.794   4.205  1.3284  0.2622  2.0265
12016SOL     OW38054   8.276   1.763   7.634  0.2287  0.5345 -0.4401
12016SOL    HW138055   8.339   1.755   7.706 -0.4918  1.3439  0.3021
12016SOL    HW238056   8.330   1.779   7.557  1.0567 -0.9834 -0.2180
12017SOL     OW38057   6.257   1.037  10.389 -0.3819  0.0018  0.2119
12017SOL    HW138058   6.266   0.977  10.463  0.5756  1.1821  1.0938
12017SOL    HW238059   6.347   1.064  10.368 -0.8493  2.3294  0.8879
12018SOL     OW38060   8.157   2.592   9.645 -0.5273 -0.5060 -0.2096
12018SOL    HW138061   8.188   2.613   9.733  0.5808  0.6640 -0.8314
12018SOL    HW238062   8.064   2.574   9.655 -0.4526 -0.2075  1.1656
12019SOL     OW38063   7.762   7.679   4.528  0.2717 -0.4147 -0.1499
12019SOL    HW138064   7.748   7.771   4.505  0.7298 -0.6801 -1.5950
12019SOL    HW238065   7.856   7.665   4.516  0.3463 -0.8735  0.8581
12020SOL     OW38066   5.144   3.932  10.476  0.4177  0.0938 -0.2199
12020SOL    HW138067   5.107   3.913  10.562 -1.6920 -0.4311 -1.1743
12020SOL    HW238068   5.239   3.933  10.490  0.2061 -1.5118  1.7988
12021SOL     OW38069   5.522   0.184   8.069 -0.5101 -0.1646 -0.6685
12021SOL    HW138070   5.460   0.150   8.134  0.1140  0.7337  0.4404
12021SOL    HW238071   5.565   0.106   8.034 -0.7691 -0.6585  0.0935
12022SOL     OW38072   6.392   4.824   5.006  0.1608 -0.0051  0.4282
12022SOL    HW138073   6.440   4.819   5.089  1.3026 -2.5513 -0.3084
12022SOL    HW238074   6.445   4.883   4.952  1.4617 -1.2480  0.2959
12023SOL     OW38075   9.356   7.353   5.602  0.0665  0.5522  0.1458
12023SOL    HW138076   9.318   7.427   5.554  1.4482  0.8410 -0.5595
12023SOL    HW238077   9.447   7.349   5.572 -0.3299 -2.3998 -1.0364
12024SOL     OW38078   4.748   3.293   7.435  0.4226 -0.3855  0.0998
12024SOL    HW138079   4.785   3.280   7.522  0.3512  0.0043  0.1891
12024SOL    HW238080   4.683   3.362   7.446  1.3681  0.6392 -0.5017
12025SOL     OW38081   7.761   8.288   2.891  0.0387 -0.2753  0.2984
12025SOL    HW138082   7.816   8.331   2.956  1.2462  2.3873 -2.2453
12025SOL    HW238083   7.794   8.198   2.886  3.0577  0.7690  0.0667
12026SOL     OW38084   4.044   8.229  10.157  0.5895 -0.0836 -0.2955
12026SOL    HW138085   4.074   8.206  10.245  1.2269 -0.0793 -0.5004
12026SOL    HW238086   4.034   8.324  10.160  1.2159 -0.0097 -0.3991
12027SOL     OW38087   6.325   6.027   9.821  0.2368  0.1814  0.5496
12027SOL    HW138088   6.364   5.974   9.891 -2.6018 -1.1773  1.2380
12027SOL    HW238089   6.375   6.004   9.743  1.4226 -0.6941  1.5183
12028SOL     OW38090   7.737   1.641   8.947  0.3821 -0.1076 -0.4256
12028SOL    HW138091   7.800   1.705   8.915 -0.9681  1.0957 -0.7861
12028SOL    HW238092   7.768   1.557   8.913  3.3628 -0.0751  1.7643
12029SOL     OW38093   1.977   3.251   4.351 -0.1143  0.2348 -0.2928
12029SOL    HW138094   1.941   3.300   4.425  1.1011  0.2605  0.3032
12029SOL    HW238095   2.068   3.233   4.375  0.6007  1.0213 -2.1366
12030SOL     OW38096  10.545   0.161   5.693 -0.1440  0.3538  0.5034
12030SOL    HW138097  10.528   0.114   5.775 -2.1794 -1.6011 -0.9036
12030SOL    HW238098  10.501   0.245   5.704 -2.5851 -0.8292  0.6371
12031SOL     OW38099   2.036   5.459   9.065 -0.2721  0.1534  0.0998
12031SOL    HW138100   2.064   5.413   8.986  0.8925 -0.1590  0.6638
12031SOL    HW238101   1.966   5.517   9.036  0.8944  0.8964 -1.4070
12032SOL     OW38102   4.463   6.275   3.359 -0.1306 -0.0076 -0.3647
12032SOL    HW138103   4.371   6.291   3.342 -0.2698 -0.8883 -0.4950
12032SOL    HW238104   4.467   6.184   3.388  0.1320  1.1566  3.9155
12033SOL     OW38105   5.717   3.708   2.413 -0.4395 -0.4265 -0.2729
12033SOL    HW138106   5.693   3.716   2.321  0.2159  1.6932 -0.3272
12033SOL    HW238107   5.690   3.620   2.438 -1.3192 -0.7793 -2.2825
12034SOL     OW38108   6.713   3.252   7.285  0.2707  0.3790  0.1897
12034SOL    HW138109   6.672   3.313   7.222 -0.3341 -0.7585 -0.5643
12034SOL    HW238110   6.652   3.179   7.290  1.8548 -1.0445 -0.3825
12035SOL     OW38111   8.256  10.118   8.003 -0.2597 -0.5141 -0.0276
12035SOL    HW138112   8.162  10.132   7.999 -0.0686  1.3103  0.8066
12035SOL    HW238113   8.285  10.120   7.912 -0.9825 -0.9047 -0.2759
12036SOL     OW38114   4.740   9.705   9.440  0.0612  0.2061 -0.4468
12036SOL    HW138115   4.679   9.640   9.405  0.0474  0.3554 -0.6997
12036SOL    HW238116   4.747   9.682   9.533  1.5498 -1.3450 -0.8932
12037SOL     OW38117  10.477   7.939   0.473 -0.1161  0.3087 -0.0605
12037SOL    HW138118  10.406   7.879   0.450  1.1260 -0.7239 -1.3962
12037SOL    HW238119  10.508   7.907   0.558  2.1767 -2.7260 -1.8219
12038SOL     OW38120   1.926   4.130   2.966 -0.1323 -0.0638  0.0861
12038SOL    HW138121   1.875   4.166   2.893  0.6169  1.4133  0.2572
12038SOL    HW238122   1.955   4.045   2.934 -0.4166  0.2479 -1.0657
12039SOL     OW38123   9.610   6.973   3.548  0.1554 -0.0258 -0.7379
12039SOL    HW138124   9.579   6.908   3.611 -1.2081 -0.3889 -1.7187
12039SOL    HW238125   9.643   6.922   3.474 -0.4534  0.3661 -1.2988
12040SOL     OW38126   2.854   6.867   0.914 -0.0694  0.0328 -0.1214
12040SOL    HW138127   2.873   6.803   0.982  0.0102  0.5023  0.3009
12040SOL    HW238128   2.886   6.950   0.949 -1.4422  0.5621 -0.0543
12041SOL     OW38129   1.890   7.542  10.492  0.4782 -0.5072 -0.7654
12041SOL    HW138130   1.811   7.530  10.544  0.8382  0.7936  0.1500
12041SOL    HW238131   1.929   7.454  10.486  0.3956 -0.7191  1.1548
12042SOL     OW38132   3.062   3.037   6.226 -1.0655  0.1027  0.3916
12042SOL    HW138133   3.083   3.047   6.319 -1.4017  0.4869  0.4278
12042SOL    HW238134   3.055   2.942   6.214 -1.5038  0.0723  0.8669
12043SOL     OW38135  10.913   2.898   4.367 -0.3796 -0.3347  0.1721
12043SOL    HW138136  10.921   2.803   4.375 -0.8704 -0.2961  1.2179
12043SOL    HW238137  10.830   2.919   4.410 -0.1501  0.5955  0.1852
12044SOL     OW38138   2.659   8.745   2.311  0.3671 -0.3734  0.4124
12044SOL    HW138139   2.589   8.792   2.356  0.6612 -1.0617  1.6679
12044SOL    HW238140   2.727   8.735   2.378  2.0100  0.9294 -0.9729
12045SOL     OW38141   4.687   2.853   8.640 -0.3503 -0.1634  0.0640
12045SOL    HW138142   4.699   2.797   8.717 -0.5834  0.9176  0.9265
12045SOL    HW238143   4.761   2.832   8.583 -1.0117 -2.1011 -0.1497
12046SOL     OW38144   4.372   8.642   0.349  0.0491  0.0205  0.1947
12046SOL    HW138145   4.404   8.720   0.395  0.3538 -0.6526  1.1412
12046SOL    HW238146   4.451   8.597   0.319 -0.1455  0.3735 -0.8632
12047SOL     OW38147   8.728   5.459   5.554 -0.1496 -0.1156  0.0128
12047SOL    HW138148   8.747   5.550   5.529 -0.2018  0.5307  2.1176
12047SOL    HW238149   8.813   5.415   5.549  0.0786  0.3198 -0.0486
12048SOL     OW38150   9.207   9.821   7.209  0.0251 -0.2336  0.5169
12048SOL    HW138151   9.257   9.817   7.291 -0.5049  2.9725  1.1302
12048SOL    HW238152   9.261   9.773   7.146  0.5308 -2.6819  2.6299
12049SOL     OW38153   8.038   5.600   5.710 -0.3490  0.3310 -0.1781
12049SOL    HW138154   7.950   5.587   5.674 -0.3483 -1.2339  0.3189
12049SOL    HW238155   8.096   5.580   5.637 -0.3967  0.3977 -0.2344
12050SOL     OW38156   3.612  10.035   2.155 -0.5200 -0.2735  0.5295
12050SOL    HW138157   3.642  10.111   2.106 -2.8579 -0.2356 -1.0197
12050SOL    HW238158   3.569  10.072   2.233 -0.0823 -0.1172  0.6974
12051SOL     OW38159   3.883   3.406   1.721 -0.3228 -0.0314 -0.0597
12051SOL    HW138160   3.798   3.446   1.741 -1.1432 -1.7865  0.2386
12051SOL    HW238161   3.901   3.349   1.796  1.1241  0.2840 -0.1372
12052SOL     OW38162   1.830   0.801   1.191  0.6062  0.6110  0.2819
12052SOL    HW138163   1.775   0.746   1.136 -0.2941 -0.0123  1.7630
12052SOL    HW238164   1.896   0.836   1.131  0.0284 -0.5160 -1.0641
12053SOL     OW38165   9.043   5.867   0.728 -0.4386 -0.9676 -0.6046
12053SOL    HW138166   8.999   5.952   0.733 -0.9462 -1.2676  0.1598
12053SOL    HW238167   9.041   5.833   0.817  0.6054 -1.3670 -0.7122
12054SOL     OW38168   5.795   4.602   4.326  0.2501  0.3365 -0.2510
12054SOL    HW138169   5.713   4.605   4.376  0.8038  0.1406  0.6743
12054SOL    HW238170   5.769   4.566   4.241 -1.2601  3.3301 -1.2180
12055SOL     OW38171   6.097   0.056   0.109 -0.6714  0.5484  0.4320
12055SOL    HW138172   6.121   0.145   0.134  2.1072  0.1434 -0.5153
12055SOL    HW238173   6.136   0.001   0.176 -1.8232 -0.0407  0.6507
12056SOL     OW38174   9.528  10.201   9.284  0.2029 -0.1068 -0.2974
12056SOL    HW138175   9.462  10.269   9.271 -0.7826 -1.2261 -1.2791
12056SOL    HW238176   9.612  10.247   9.272 -0.3174  1.4256  1.3918
12057SOL     OW38177   4.355   6.024   7.377 -0.3153 -0.4063 -0.3594
12057SOL    HW138178   4.277   5.992   7.423 -0.5462 -1.7337 -1.5929
12057SOL    HW238179   4.324   6.050   7.290  0.4424  0.0665 -0.5021
12058SOL     OW38180  11.027   1.874   8.837  0.4471  0.1327 -0.1562
12058SOL    HW138181  11.110   1.843   8.874  1.0485 -0.6688 -2.0746
12058SOL    HW238182  11.036   1.969   8.834  1.3154  0.0503 -0.3805
12059SOL     OW38183   3.549   9.432   3.549  0.3677  0.0220 -0.1541
12059SOL    HW138184   3.559   9.512   3.498 -0.1882 -0.7630 -1.5429
12059SOL    HW238185   3.572   9.457   3.639  0.9790  1.5284 -0.7105
12060SOL     OW38186   9.757   7.959   1.381  0.1431 -0.2964 -0.0519
12060SOL    HW138187   9.850   7.967   1.400 -0.0170 -0.3172  0.8126
12060SOL    HW238188   9.719   7.925   1.463 -0.5952 -0.4253 -0.4409
12061SOL     OW38189   4.620  10.739   3.138 -0.7079 -0.2378  0.2758
12061SOL    HW138190   4.640  10.654   3.099  0.1072 -0.1421  0.4845
12061SOL    HW238191   4.563  10.718   3.212 -2.1649 -0.4340 -0.8571
12062SOL     OW38192   9.802   2.384  10.753  0.1394 -0.6149 -0.1303
12062SOL    HW138193   9.768   2.396  10.842 -0.5309 -2.9778 -0.0123
12062SOL    HW238194   9.868   2.453  10.743 -1.0536  0.8473  1.5069
12063SOL     OW38195   5.608   2.937   9.898 -0.3399  0.2451  0.0455
12063SOL    HW138196   5.631   2.964   9.809  2.7777  1.1797  0.9913
12063SOL    HW238197   5.655   2.855   9.911 -3.3251 -1.6153 -0.1196
12064SOL     OW38198   2.268   5.977  10.763 -0.4338 -0.2218  0.2198
12064SOL    HW138199   2.256   5.915  10.836 -0.4022 -0.1498  0.2859
12064SOL    HW238200   2.353   6.018  10.781  0.2619 -1.2289 -0.6176
12065SOL     OW38201   9.444   4.785  10.932 -0.7400  0.8754 -0.6088
12065SOL    HW138202   9.371   4.743  10.977  0.5546 -1.4181 -0.4950
12065SOL    HW238203   9.508   4.803  11.001  0.2439 -0.4422 -1.1279
12066SOL     OW38204   6.377   3.443   4.944  0.3686 -0.7826 -0.7548
12066SOL    HW138205   6.433   3.372   4.977  0.1021 -0.6225  0.0774
12066SOL    HW238206   6.437   3.502   4.899  1.2484  0.3427  1.6760
12067SOL     OW38207   8.284   0.303  10.098 -0.5074  0.5863 -0.3175
12067SOL    HW138208   8.289   0.302  10.194  0.5870 -2.2999 -0.3308
12067SOL    HW238209   8.339   0.377  10.073 -0.7478  1.3576  1.2420
12068SOL     OW38210   3.332   3.794   0.135 -0.4661 -0.3741 -0.4068
12068SOL    HW138211   3.271   3.721   0.124  0.2842 -0.9947 -0.5053
12068SOL    HW238212   3.397   3.762   0.198 -0.5019  0.4478  0.0571
12069SOL     OW38213   9.697   3.500   6.108 -0.2013 -0.1488  0.2003
12069SOL    HW138214   9.707   3.466   6.197  1.1231 -0.4301 -0.0324
12069SOL    HW238215   9.633   3.442   6.067 -0.2202 -0.5115  0.7256
12070SOL     OW38216   9.514   0.925   5.184  0.2489  0.4322 -0.1708
12070SOL    HW138217   9.438   0.983   5.189 -0.7693 -0.8523 -0.2841
12070SOL    HW238218   9.572   0.967   5.120 -0.5030  1.2801 -0.3116
12071SOL     OW38219   8.800   2.720   0.781  0.3276  0.3915  0.2526
12071SOL    HW138220   8.768   2.754   0.865 -1.4194  1.4197 -0.7655
12071SOL    HW238221   8.876   2.775   0.761  1.6893 -0.8199  1.7995
12072SOL     OW38222   7.273   4.092   0.382 -0.1152 -0.6942  0.2103
12072SOL    HW138223   7.349   4.116   0.328 -0.3441  0.0352  0.2021
12072SOL    HW238224   7.219   4.171   0.384 -0.6409 -1.0566  0.6175
12073SOL     OW38225   6.106   2.541   4.738 -0.0961  0.2223  0.2820
12073SOL    HW138226   6.151   2.558   4.821 -0.9800 -3.2151  1.6341
12073SOL    HW238227   6.139   2.456   4.710 -2.5643 -0.4287 -0.9166
12074SOL     OW38228   6.337   7.471   3.314 -0.2046  0.0866  0.1009
12074SOL    HW138229   6.348   7.491   3.406  1.0375  0.8554 -0.1977
12074SOL    HW238230   6.316   7.555   3.273 -1.9083 -0.4312 -0.1792
12075SOL     OW38231   0.702   4.985  10.267 -0.2106  0.0665 -0.3032
12075SOL    HW138232   0.642   4.911  10.262 -0.9377  0.5774  0.5643
12075SOL    HW238233   0.655   5.057  10.225  0.4250  0.0956 -0.9971
12076SOL     OW38234   6.173   3.886   7.291  0.0737 -0.0455 -0.6549
12076SOL    HW138235   6.208   3.866   7.377 -1.0770  0.1763 -0.1180
12076SOL    HW238236   6.134   3.973   7.300 -1.9512 -0.8827 -0.7701
12077SOL     OW38237   8.664  10.135   4.811 -0.3217  0.0499  0.0763
12077SOL    HW138238   8.624  10.144   4.725  0.0711 -0.6544 -0.1867
12077SOL    HW238239   8.758  10.147   4.795 -0.3507  1.0541  0.5879
12078SOL     OW38240   4.473   6.941   6.415  0.0072  0.0726  0.4644
12078SOL    HW138241   4.480   6.851   6.382  0.7391  0.3812 -0.2850
12078SOL    HW238242   4.467   6.994   6.336 -0.8869  0.6557  0.9152
12079SOL     OW38243   8.391   9.196   1.402 -0.3049  0.2911  0.3004
12079SOL    HW138244   8.295   9.188   1.400 -0.3119  0.1234 -2.2785
12079SOL    HW238245   8.407   9.290   1.393 -0.1572  0.6343  3.2269
12080SOL     OW38246   0.312   0.471   2.046 -0.1613  0.7064  0.3920
12080SOL    HW138247   0.339   0.560   2.026 -0.8695  0.5009 -1.6492
12080SOL    HW238248   0.392   0.428   2.076  0.4385  1.7112  0.2590
12081SOL     OW38249   4.157   6.859   8.236 -0.3626 -0.3008 -0.3108
12081SOL    HW138250   4.179   6.928   8.299  1.1782  0.6304 -1.7739
12081SOL    HW238251   4.176   6.898   8.150 -2.6681 -1.4232 -1.4139
12082SOL     OW38252   6.400   2.161   5.520 -0.3640 -0.7556 -0.0684
12082SOL    HW138253   6.467   2.155   5.453  0.5265 -2.6527  0.9241
12082SOL    HW238254   6.318   2.142   5.475 -0.4662  2.3558 -1.4581
12083SOL     OW38255  10.816   9.822   4.643 -0.1013 -0.2601 -0.6260
12083SOL    HW138256  10.847   9.733   4.624 -2.7943 -1.2629 -0.7522
12083SOL    HW238257  10.860   9.845   4.725  0.0431 -2.0602 -0.1557
12084SOL     OW38258   9.909   4.337   4.756  0.0376 -0.4638  0.2775
12084SOL    HW138259   9.882   4.424   4.726 -0.8084 -1.2443 -1.3750
12084SOL    HW238260   9.867   4.276   4.694  2.1618 -1.9510  0.1927
12085SOL     OW38261   8.618   7.170   8.087  0.0378 -0.3541 -0.4334
12085SOL    HW138262   8.597   7.136   8.000  0.2525 -1.5452 -0.0267
12085SOL    HW238263   8.655   7.257   8.069  4.1415 -2.1100 -1.9755
12086SOL     OW38264   7.438   9.821   8.611 -0.2027 -0.6904  0.2512
12086SOL    HW138265   7.427   9.750   8.673  1.3709 -0.6296  0.6256
12086SOL    HW238266   7.522   9.803   8.568 -2.0526 -1.8264 -3.3078
12087SOL     OW38267   2.386   6.512   0.587  0.1113  0.3561 -0.2710
12087SOL    HW138268   2.354   6.600   0.567  0.3399  0.6218  0.4960
12087SOL    HW238269   2.447   6.525   0.660 -1.1565 -0.6299  1.0337
12088SOL     OW38270   0.799   3.692   5.445 -0.2130 -0.5334  0.1799
12088SOL    HW138271   0.741   3.766   5.462  0.0597 -0.6691  1.9156
12088SOL    HW238272   0.884   3.732   5.427 -0.3237 -0.3913 -0.0253
12089SOL     OW38273   4.937   2.970   5.315  0.0572  0.2188  0.1120
12089SOL    HW138274   4.999   3.032   5.278  1.0792 -0.8535 -0.0117
12089SOL    HW238275   4.974   2.884   5.296 -0.6495 -0.4122  1.4678
12090SOL     OW38276   9.411   4.521  10.480  0.3867  0.5062 -0.2576
12090SOL    HW138277   9.495   4.525  10.527  0.4346 -0.9883 -0.1663
12090SOL    HW238278   9.433   4.489  10.393  0.0339  1.2418 -0.6293
12091SOL     OW38279   2.993   5.795  10.639  0.0336  0.1397 -0.1299
12091SOL    HW138280   3.054   5.722  10.651  0.8419  1.2057  3.1493
12091SOL    HW238281   3.037   5.852  10.575  0.5647 -0.9782 -0.7916
12092SOL     OW38282   4.453   0.687   3.732 -0.4236 -0.4354  0.8430
12092SOL    HW138283   4.484   0.700   3.821 -3.2981 -0.8085  2.0080
12092SOL    HW238284   4.468   0.771   3.689 -0.8536  0.4339  2.3235
12093SOL     OW38285   3.428   0.472   8.326  0.0946  0.2156  0.4497
12093SOL    HW138286   3.474   0.538   8.274  0.0388 -0.1769 -0.1030
12093SOL    HW238287   3.419   0.396   8.268  0.6677 -0.4936  1.2510
12094SOL     OW38288   8.112   1.608   0.867  0.6207 -0.0875 -0.0409
12094SOL    HW138289   8.036   1.550   0.863  1.6191 -1.3570 -1.3160
12094SOL    HW238290   8.076   1.695   0.850 -0.7799 -0.3929  1.1148
12095SOL     OW38291   5.037   0.759   5.333  0.2516 -0.1324 -0.6835
12095SOL    HW138292   5.037   0.833   5.273 -0.2928 -0.5155 -1.1643
12095SOL    HW238293   4.944   0.739   5.346  0.3285  0.2899  0.7132
12096SOL     OW38294  10.798   4.795   5.845 -0.2908 -0.3196 -0.1173
12096SOL    HW138295  10.741   4.806   5.921 -0.5879 -1.5028 -0.1495
12096SOL    HW238296  10.828   4.884   5.824 -1.5601  0.2387  0.3348
12097SOL     OW38297   5.074   2.525   8.599  0.4550 -0.9055  0.3116
12097SOL    HW138298   5.135   2.557   8.532  0.0233  2.1508  1.2333
12097SOL    HW238299   5.126   2.518   8.678 -0.2382  1.7265  1.1054
12098SOL     OW38300   4.423   1.021   5.461  0.2348  0.1887 -0.0382
12098SOL    HW138301   4.514   0.993   5.476  0.7108  1.1554 -0.9760
12098SOL    HW238302   4.431   1.112   5.434 -0.6213 -0.7150 -4.0424
12099SOL     OW38303  10.431  10.846   1.853  0.0846  0.4188 -0.0126
12099SOL    HW138304  10.495  10.903   1.895 -1.0241  1.0630  0.8675
12099SOL    HW238305  10.478  10.764   1.837  0.8917  0.5996  1.3257
12100SOL     OW38306   0.653   6.593   0.816 -0.0365  0.4359 -0.3319
12100SOL    HW138307   0.602   6.673   0.802 -0.8481 -0.2110 -1.1237
12100SOL    HW238308   0.590   6.522   0.809  0.5576 -0.2621  0.9813
12101SOL     OW38309   8.317   7.278   2.329 -0.1584  0.4713 -0.0391
12101SOL    HW138310   8.389   7.222   2.358  0.2288  0.5429 -0.8299
12101SOL    HW238311   8.353   7.366   2.330 -0.5910  0.6441  0.6551
12102SOL     OW38312   2.792   9.982  10.387 -0.3983 -0.2391  0.1445
12102SOL    HW138313   2.714  10.027  10.419  1.7202  2.3262  2.1643
12102SOL    HW238314   2.773   9.889  10.397 -2.7917  0.3239  1.4723
12103SOL     OW38315   2.565   1.150   3.660 -0.2775 -0.2495 -0.4068
12103SOL    HW138316   2.650   1.193   3.658 -0.3398 -0.0504  0.7099
12103SOL    HW238317   2.585   1.056   3.656  0.0744 -0.2566  1.0073
12104SOL     OW38318   8.454   2.705   3.515  0.2180 -0.1724 -0.6802
12104SOL    HW138319   8.358   2.704   3.520  0.1170 -2.1327 -1.8915
12104SOL    HW238320   8.482   2.647   3.586  0.5035  0.1280 -0.5432
12105SOL     OW38321   1.343   4.917   1.903  0.3305 -0.1637  0.1677
12105SOL    HW138322   1.369   4.977   1.835  0.3318 -1.1877 -0.7643
12105SOL    HW238323   1.328   4.834   1.858  1.5790 -1.2142  1.5748
12106SOL     OW38324   5.472   9.674   7.129  0.6422  0.2388 -0.2299
12106SOL    HW138325   5.427   9.641   7.207  1.6001  1.0926  0.7153
12106SOL    HW238326   5.403   9.681   7.063 -0.7640  1.9410  1.3064
12107SOL     OW38327  10.777   6.230   2.751  0.1034  0.7714  0.3468
12107SOL    HW138328  10.787   6.145   2.708  0.8061  0.6661  0.7061
12107SOL    HW238329  10.750   6.209   2.840  1.2385  0.8821  0.7229
12108SOL     OW38330   3.693   1.193   4.915 -0.4614 -0.3567  0.0628
12108SOL    HW138331   3.659   1.156   4.996 -0.2100  0.4081  0.5297
12108SOL    HW238332   3.732   1.119   4.869  0.7650 -0.5465  1.3526
12109SOL     OW38333   3.094   0.872  10.561 -0.3994  0.0378 -0.5785
12109SOL    HW138334   3.183   0.846  10.583 -0.0563  1.7770  0.2813
12109SOL    HW238335   3.098   0.899  10.469  0.0505  0.4265 -0.4501
12110SOL     OW38336   9.327   3.353  10.263 -0.2713 -0.4093  0.4300
12110SOL    HW138337   9.238   3.383  10.280 -0.2010 -0.5118  1.0072
12110SOL    HW238338   9.357   3.319  10.348  0.3468 -0.2920  0.2619
12111SOL     OW38339   2.625   9.513   3.335  0.2147 -0.2842 -0.0286
12111SOL    HW138340   2.567   9.524   3.410 -0.1317 -1.4617 -0.1097
12111SOL    HW238341   2.575   9.547   3.261  0.1247 -0.1354  0.0991
12112SOL     OW38342   5.054   7.826   6.867  0.0518 -0.4352  0.3024
12112SOL    HW138343   5.139   7.846   6.828 -0.3838  2.1654  0.5331
12112SOL    HW238344   4.998   7.900   6.844 -2.3534 -2.2786 -0.2521
12113SOL     OW38345   9.404   7.609   9.038 -0.1709  0.4311  0.3553
12113SOL    HW138346   9.400   7.690   9.088  1.7516 -0.1287  1.5164
12113SOL    HW238347   9.444   7.546   9.097  0.3216 -0.8080 -1.2228
12114SOL     OW38348   1.689   8.387   1.725 -0.0807 -0.7190 -0.1774
12114SOL    HW138349   1.728   8.455   1.779 -0.4103 -0.8376  0.2137
12114SOL    HW238350   1.708   8.414   1.635 -1.2999  0.5533 -0.0730
12115SOL     OW38351   9.675   0.035   3.214  0.6249  0.5034  0.2204
12115SOL    HW138352   9.753  -0.016   3.191 -0.7913 -1.1787 -1.1178
12115SOL    HW238353   9.685   0.118   3.168  1.7851  0.4806  0.3984
12116SOL     OW38354   0.251   0.222   8.533 -0.0971  0.1844  0.3335
12116SOL    HW138355   0.235   0.301   8.481 -1.5595 -0.8989 -0.9473
12116SOL    HW238356   0.202   0.236   8.613 -1.3189  0.1101 -0.3802
12117SOL     OW38357   0.050   7.782   6.154  0.2290 -0.2438  0.8915
12117SOL    HW138358   0.098   7.712   6.200 -0.8273  0.9406  4.1273
12117SOL    HW238359  -0.020   7.805   6.215 -1.7026  1.1525 -1.7085
12118SOL     OW38360   2.374   5.028   4.065  0.6931 -0.5292 -0.7408
12118SOL    HW138361   2.451   5.058   4.113  1.1971 -3.2499  0.3259
12118SOL    HW238362   2.304   5.024   4.131  0.3847 -0.7883 -1.0762
12119SOL     OW38363   6.154   4.880   9.895  0.2582  0.1034 -0.8569
12119SOL    HW138364   6.201   4.882   9.811  0.9055  2.1153 -0.5107
12119SOL    HW238365   6.075   4.931   9.879  0.1037  0.0066 -0.4017
12120SOL     OW38366   6.947   5.066   5.535  0.6908 -0.4734 -0.1404
12120SOL    HW138367   7.005   5.114   5.594 -0.0433 -0.0600  0.2612
12120SOL    HW238368   7.004   5.038   5.463  1.1903  0.8191 -0.2798
12121SOL     OW38369   2.887  10.848   4.460 -0.7233  0.9979 -0.0813
12121SOL    HW138370   2.822  10.779   4.453 -0.5395  0.7790  0.3517
12121SOL    HW238371   2.939  10.840   4.380 -0.1272  0.0415  0.3805
12122SOL     OW38372   7.410   7.476   7.554  0.0684  0.1388  0.7396
12122SOL    HW138373   7.377   7.482   7.644  1.9875  0.7673  1.4599
12122SOL    HW238374   7.503   7.498   7.561  0.9189 -2.3586 -0.9988
12123SOL     OW38375   5.962   4.173   8.331 -0.1532  0.0434  0.5917
12123SOL    HW138376   5.950   4.244   8.268 -0.9596 -0.8340 -0.2661
12123SOL    HW238377   5.875   4.138   8.346  0.3115 -1.2854  0.3708
12124SOL     OW38378   2.257   1.806   9.584  0.2056  0.3674 -0.1101
12124SOL    HW138379   2.271   1.714   9.609 -1.5749 -0.4105 -1.6926
12124SOL    HW238380   2.169   1.826   9.614 -0.9232  0.2679 -3.0299
12125SOL     OW38381   7.457   3.386   9.878 -0.3976  0.2728  0.7812
12125SOL    HW138382   7.424   3.435   9.954  0.0495 -0.7066  1.6293
12125SOL    HW238383   7.440   3.294   9.899  2.1399 -0.2345  0.9469
12126SOL     OW38384   4.801   0.203   8.421 -0.5859  0.3092  0.2035
12126SOL    HW138385   4.846   0.284   8.396  0.0501 -0.6123 -1.8651
12126SOL    HW238386   4.871   0.138   8.429 -1.3931 -1.1445 -2.9851
12127SOL     OW38387   1.283   6.433   6.847  0.3535 -0.2542  0.1190
12127SOL    HW138388   1.269   6.420   6.754 -0.2358  0.9945  0.0188
12127SOL    HW238389   1.208   6.486   6.876  0.7316 -0.2852  1.2178
12128SOL     OW38390   5.898   8.765   6.667  0.1869 -0.0707 -0.1144
12128SOL    HW138391   5.901   8.833   6.599 -0.0853  0.2321  0.1714
12128SOL    HW238392   5.966   8.703   6.642 -1.2674 -1.0853 -1.8575
12129SOL     OW38393   7.216   9.139   9.980  0.2787 -0.1565  0.0310
12129SOL    HW138394   7.181   9.223  10.008 -2.2146 -1.1250  0.1324
12129SOL    HW238395   7.196   9.134   9.886  1.0968 -0.3370 -0.1437
12130SOL     OW38396   7.872   7.467   0.975  0.2295  0.0511  0.0024
12130SOL    HW138397   7.839   7.555   0.956 -0.4245 -0.2919 -0.4790
12130SOL    HW238398   7.909   7.474   1.063  1.3990  1.1349 -0.5413
12131SOL     OW38399   2.836   7.575   9.880 -0.2046  0.1982 -0.0286
12131SOL    HW138400   2.812   7.581   9.972  0.5720 -0.7613  0.2550
12131SOL    HW238401   2.932   7.575   9.880 -0.1688 -1.6515 -0.6667
12132SOL     OW38402   8.284   5.173   0.512 -0.0172 -0.5621  0.0556
12132SOL    HW138403   8.273   5.190   0.419 -0.5477  0.5441  0.3063
12132SOL    HW238404   8.340   5.243   0.544  0.9872 -1.4960  0.3924
12133SOL     OW38405   1.540   9.619   6.919 -0.3309 -0.6308  0.1373
12133SOL    HW138406   1.587   9.540   6.944 -0.1627 -0.9771 -1.1923
12133SOL    HW238407   1.597   9.691   6.944 -1.8679 -0.6405  4.4894
12134SOL     OW38408   8.513   2.098   6.395 -0.6650 -0.5093  0.2586
12134SOL    HW138409   8.574   2.157   6.440 -1.7661 -1.1035  2.6957
12134SOL    HW238410   8.437   2.153   6.375 -0.7333 -0.5600  0.3799
12135SOL     OW38411   3.010   6.175   4.248 -0.2368  0.2864  0.0558
12135SOL    HW138412   3.095   6.203   4.216  0.7081  1.4355  3.1958
12135SOL    HW238413   3.025   6.087   4.282 -0.9235 -0.4319 -1.4148
12136SOL     OW38414   7.320   4.984   1.909  0.6844 -0.1112  0.0450
12136SOL    HW138415   7.415   4.972   1.910  0.9788  0.0833 -4.1751
12136SOL    HW238416   7.306   5.049   1.840 -2.5783 -1.2837 -0.5398
12137SOL     OW38417   3.206   3.463   9.810 -0.3475  0.1100 -0.2348
12137SOL    HW138418   3.167   3.451   9.896  0.2383 -0.6322 -0.0655
12137SOL    HW238419   3.253   3.546   9.817  2.2033 -1.3387  1.1573
12138SOL     OW38420   6.759   4.645   9.875 -0.5334 -0.5178 -0.4013
12138SOL    HW138421   6.668   4.673   9.889 -0.3786  0.0835 -0.5536
12138SOL    HW238422   6.752   4.567   9.820 -0.8971  0.4927 -1.8475
12139SOL     OW38423   8.911   7.126   2.690  0.2654  0.1473  0.3996
12139SOL    HW138424   8.969   7.140   2.765 -0.4287  0.4056  0.8931
12139SOL    HW238425   8.876   7.038   2.702 -1.9800  1.1687  1.8898
12140SOL     OW38426   1.147   9.068   9.352 -0.0389  0.5388 -0.4154
12140SOL    HW138427   1.142   9.054   9.446 -0.7440 -1.3151 -0.6742
12140SOL    HW238428   1.191   9.152   9.342  1.6125 -0.0067  1.5368
12141SOL     OW38429   6.187   7.809   8.244  0.0142  0.3742  0.2040
12141SOL    HW138430   6.120   7.869   8.277 -1.8391 -0.3177 -2.0493
12141SOL    HW238431   6.182   7.817   8.149  1.3579 -1.6076 -0.0922
12142SOL     OW38432   8.934   1.491   1.217 -0.5286  0.7589  0.0080
12142SOL    HW138433   8.929   1.491   1.313 -0.7003  2.2529  0.0190
12142SOL    HW238434   8.911   1.401   1.192  0.0217  0.2004  1.3798
12143SOL     OW38435   6.333   6.230   9.154  0.2549  0.0413  0.6452
12143SOL    HW138436   6.366   6.256   9.067 -0.7906 -0.0979  0.1995
12143SOL    HW238437   6.381   6.149   9.174  0.2070 -0.1481  0.0165
12144SOL     OW38438   5.762   8.032   5.349 -0.5684 -0.7081 -0.2942
12144SOL    HW138439   5.702   8.014   5.277 -1.9106 -1.6166  0.9966
12144SOL    HW238440   5.796   7.946   5.374  0.2926 -0.3428 -0.1492
12145SOL     OW38441   1.807   9.551  10.479  0.1678 -0.2969 -0.1833
12145SOL    HW138442   1.747   9.594  10.540 -1.6596 -0.9333 -1.4371
12145SOL    HW238443   1.799   9.458  10.499 -0.3740 -0.5026 -1.2791
12146SOL     OW38444   1.499   2.417   9.804  0.4646  0.1149  0.1532
12146SOL    HW138445   1.436   2.483   9.772  0.5455  0.3511  0.4748
12146SOL    HW238446   1.570   2.420   9.740  0.2084 -0.0684 -0.1474
12147SOL     OW38447   1.935   8.705   6.962  0.7466  0.5021 -0.8063
12147SOL    HW138448   1.879   8.758   7.019  0.2247 -0.7825 -0.0817
12147SOL    HW238449   2.004   8.673   7.020  0.4786 -0.4327 -0.9925
12148SOL     OW38450   1.349   4.262   0.130 -0.0369 -0.3067 -0.3420
12148SOL    HW138451   1.272   4.204   0.133 -0.8994  0.7545 -1.0611
12148SOL    HW238452   1.319   4.341   0.174  2.2520 -1.5570  4.0330
12149SOL     OW38453   6.815   9.817   8.559 -0.1425  0.8845 -0.0220
12149SOL    HW138454   6.811   9.764   8.639  0.8287  0.8525  0.0122
12149SOL    HW238455   6.908   9.824   8.539 -0.3621 -2.9266 -3.7248
12150SOL     OW38456   9.764   5.821   5.447 -1.0973  0.0853 -0.0202
12150SOL    HW138457   9.836   5.785   5.394 -2.3188  0.2952 -1.9131
12150SOL    HW238458   9.793   5.810   5.537  1.4362  0.4196 -0.7178
12151SOL     OW38459   7.022   2.759   0.445 -0.1054  0.1268 -0.4550
12151SOL    HW138460   6.973   2.707   0.508 -1.8474  0.4256 -1.4986
12151SOL    HW238461   7.112   2.758   0.478 -0.4944 -1.7257  0.6978
12152SOL     OW38462   3.283   5.436   9.340  0.0488  0.2091 -0.1923
12152SOL    HW138463   3.282   5.494   9.416 -0.7371  0.0768 -0.0948
12152SOL    HW238464   3.323   5.355   9.372  0.1606  0.3224 -0.0464
12153SOL     OW38465   2.542   5.019   2.760  0.1695  0.7532  0.3800
12153SOL    HW138466   2.504   4.932   2.751  0.4813  0.5863  0.6529
12153SOL    HW238467   2.537   5.057   2.672  1.9181 -0.3250 -0.2512
12154SOL     OW38468   3.670   6.650   8.424 -0.5500 -0.6064  0.3707
12154SOL    HW138469   3.666   6.726   8.366 -1.0857  0.0211  1.2099
12154SOL    HW238470   3.760   6.648   8.456 -1.0633  1.0244  2.0772
12155SOL     OW38471   5.868   3.200   3.452 -0.0667  0.2265 -0.1800
12155SOL    HW138472   5.812   3.124   3.467 -1.2560  0.7813 -1.5807
12155SOL    HW238473   5.894   3.229   3.540 -1.5823 -0.3482  0.4819
12156SOL     OW38474   0.748   4.624   3.661  0.8179 -0.0539  0.3524
12156SOL    HW138475   0.662   4.641   3.623  1.6815  0.8151 -1.3330
12156SOL    HW238476   0.784   4.552   3.610 -0.2172 -2.8612  3.3053
12157SOL     OW38477   7.880   3.737   4.432  0.4132 -0.0692 -0.3057
12157SOL    HW138478   7.920   3.686   4.361 -0.5700  1.1690 -1.8230
12157SOL    HW238479   7.804   3.778   4.391 -0.1924  0.6921  1.5010
12158SOL     OW38480   6.476   6.857   2.039 -0.1066 -0.2824  0.5787
12158SOL    HW138481   6.393   6.826   2.076  0.8717 -1.6237  1.8031
12158SOL    HW238482   6.542   6.822   2.099  1.3056  1.5006  0.1346
12159SOL     OW38483   5.898   0.737   0.897  0.2259 -0.2482 -0.1911
12159SOL    HW138484   5.985   0.710   0.928  0.8883  2.1993  0.3108
12159SOL    HW238485   5.900   0.717   0.803  1.0644 -0.9055 -0.0479
12160SOL     OW38486   3.477   4.252   0.353  0.0357 -0.4522  0.1038
12160SOL    HW138487   3.391   4.210   0.358 -0.3187  0.2828  0.2732
12160SOL    HW238488   3.492   4.284   0.442  0.3147 -0.2492 -0.0164
12161SOL     OW38489   3.533   3.674   3.620  0.1755 -0.1852  0.2385
12161SOL    HW138490   3.626   3.659   3.604  0.2900  1.0034 -0.2841
12161SOL    HW238491   3.493   3.673   3.532 -0.0908  0.5968  0.3412
12162SOL     OW38492  10.497   9.635   4.201 -0.5632 -0.3232 -0.0837
12162SOL    HW138493  10.501   9.633   4.296 -0.8134  0.4836 -0.0473
12162SOL    HW238494  10.547   9.714   4.177 -2.1029  0.5700 -0.5005
12163SOL     OW38495  10.702   8.877   3.901  0.0902  0.6459 -0.2795
12163SOL    HW138496  10.770   8.826   3.945 -0.2746  1.7183  1.6394
12163SOL    HW238497  10.639   8.811   3.871 -0.5555 -0.1294  2.4546
12164SOL     OW38498   3.440   1.106   7.541  0.1995 -0.2638 -0.2039
12164SOL    HW138499   3.496   1.039   7.501 -0.1871 -1.0674  0.5585
12164SOL    HW238500   3.382   1.134   7.470 -1.3620 -2.6253  0.0272
12165SOL     OW38501   0.408   4.679  10.524 -0.2572 -0.4101  0.1735
12165SOL    HW138502   0.403   4.739  10.598 -2.1618 -1.1696  0.7194
12165SOL    HW238503   0.317   4.669  10.494  0.4965  0.5044 -2.8310
12166SOL     OW38504   3.230   4.690   6.999  0.1131 -0.2752 -0.2669
12166SOL    HW138505   3.289   4.644   6.938 -0.3629 -1.1628 -0.0664
12166SOL    HW238506   3.216   4.628   7.070  0.0852  0.4883  0.4078
12167SOL     OW38507   1.048   6.784   4.073  0.5215 -0.1559  0.1731
12167SOL    HW138508   1.141   6.805   4.064  0.8212 -1.2626  0.5862
12167SOL    HW238509   1.017   6.774   3.983  0.5355  1.2362 -0.0154
12168SOL     OW38510   2.054   6.052   6.231  0.3664  0.7969  0.5050
12168SOL    HW138511   2.044   5.991   6.303 -0.4330 -0.0402 -0.2846
12168SOL    HW238512   2.126   6.016   6.179 -0.0793  0.5251  0.0603
12169SOL     OW38513   3.399   1.102   6.397  0.8717  0.0705  0.3184
12169SOL    HW138514   3.321   1.064   6.358  1.1267  0.5068 -0.6676
12169SOL    HW238515   3.442   1.029   6.443 -1.0474  0.2160  2.5124
12170SOL     OW38516   3.930   2.019   3.786  0.7358 -0.0260 -0.9088
12170SOL    HW138517   3.839   1.992   3.774  0.6080  0.5127 -1.1813
12170SOL    HW238518   3.974   1.942   3.822  0.0175 -0.0500 -0.0704
12171SOL     OW38519   3.908   5.916   8.060  0.0258  0.5286 -0.4708
12171SOL    HW138520   3.933   6.008   8.071  0.6349  0.3247 -0.1204
12171SOL    HW238521   3.827   5.908   8.110  0.8609  0.4806  0.9492
12172SOL     OW38522   4.769   5.367   7.350  1.2066 -0.2575  0.0682
12172SOL    HW138523   4.724   5.334   7.273  3.2971 -2.6122 -0.2586
12172SOL    HW238524   4.752   5.461   7.349 -0.3649 -0.4924 -2.1924
12173SOL     OW38525   2.720   4.620   7.354  0.2638  0.3435  0.6801
12173SOL    HW138526   2.681   4.699   7.392  1.1079  1.6688 -1.0700
12173SOL    HW238527   2.813   4.639   7.349  0.3760 -0.4252 -0.5079
12174SOL     OW38528   7.175   0.669   3.147  0.5752 -0.3243  0.3206
12174SOL    HW138529   7.253   0.723   3.139  0.8025 -0.8014 -0.8231
12174SOL    HW238530   7.207   0.579   3.149  0.0854 -0.5084  0.2562
12175SOL     OW38531  10.274   9.558   1.597 -0.0327  0.4686 -0.0146
12175SOL    HW138532  10.337   9.587   1.531  0.4491  0.7206  0.5484
12175SOL    HW238533  10.322   9.563   1.680 -0.6675  0.2678  0.3709
12176SOL     OW38534   2.423   5.524   3.074  0.2853 -0.8681  0.7998
12176SOL    HW138535   2.397   5.564   2.991  0.7601 -2.6689 -0.2604
12176SOL    HW238536   2.454   5.598   3.128  0.1017  0.3089 -0.6566
12177SOL     OW38537   1.988   3.480   9.137  0.0469  0.1934  0.3509
12177SOL    HW138538   2.026   3.567   9.125 -0.7583  0.6230  0.7946
12177SOL    HW238539   1.967   3.475   9.230  0.6868 -0.7412  0.4610
12178SOL     OW38540   4.227   8.342   7.200 -0.1431  1.0297  0.3709
12178SOL    HW138541   4.162   8.402   7.166 -1.4705 -0.4532  0.1975
12178SOL    HW238542   4.309   8.368   7.157 -0.9567  1.8119 -0.7385
12179SOL     OW38543   4.591   7.175   4.945 -0.4018  0.4600  0.0711
12179SOL    HW138544   4.646   7.150   4.871 -0.0498  0.0951  0.4445
12179SOL    HW238545   4.591   7.097   5.001 -1.4860  0.3736 -0.0309
12180SOL     OW38546   6.016   0.324   6.603  0.2321  0.1308 -0.3204
12180SOL    HW138547   6.085   0.383   6.573  0.7436 -0.7006 -0.8520
12180SOL    HW238548   6.058   0.271   6.671 -0.1212  0.1639 -0.0766
12181SOL     OW38549   4.027   4.685   8.966  0.0743 -0.1186  0.4569
12181SOL    HW138550   4.106   4.736   8.983 -0.2406 -0.2043  2.4715
12181SOL    HW238551   4.038   4.605   9.017 -0.9019 -0.5461  0.0283
12182SOL     OW38552   1.985   3.216   1.429  0.8705  0.2400  0.4290
12182SOL    HW138553   1.992   3.121   1.442 -0.3472 -0.0127 -0.5460
12182SOL    HW238554   1.892   3.235   1.442  1.1876  1.3875  1.0936
12183SOL     OW38555   2.743   3.515   7.307 -0.0304 -0.8364 -0.1795
12183SOL    HW138556   2.709   3.453   7.243 -0.3564 -0.9230  0.0773
12183SOL    HW238557   2.683   3.509   7.381 -0.4745  0.2824 -0.4202
12184SOL     OW38558   3.759  10.051   3.024 -0.5323 -0.0013 -0.3668
12184SOL    HW138559   3.776   9.957   3.030  2.6647  0.3979 -1.5210
12184SOL    HW238560   3.838  10.088   2.985 -1.7746  3.1729 -0.1935
12185SOL     OW38561   0.294   9.700   3.288  0.1201  0.3797 -0.1121
12185SOL    HW138562   0.333   9.724   3.205 -1.5997 -4.0694 -2.5423
12185SOL    HW238563   0.363   9.653   3.335  0.5345  1.2661  0.1861
12186SOL     OW38564  10.021  10.321   6.467  0.4421  0.2807 -0.1680
12186SOL    HW138565   9.946  10.376   6.444 -1.1889 -1.2143  1.2469
12186SOL    HW238566  10.068  10.370   6.534 -0.4037  0.4021  0.3450
12187SOL     OW38567   7.170   5.225   2.146 -0.3271 -0.5279  0.5199
12187SOL    HW138568   7.077   5.238   2.129 -0.5677 -1.0660  1.3465
12187SOL    HW238569   7.174   5.203   2.239  0.7776  1.0403  0.8941
12188SOL     OW38570   5.900   8.229   8.562 -0.1416 -0.2290  0.1199
12188SOL    HW138571   5.847   8.279   8.500  1.0015 -0.0304 -0.7348
12188SOL    HW238572   5.837   8.185   8.618 -1.1967  1.8233  0.6197
12189SOL     OW38573   4.303   6.963   0.984 -0.1793  0.1166  0.3897
12189SOL    HW138574   4.395   6.968   0.956  0.0894 -1.4749  0.9133
12189SOL    HW238575   4.308   6.950   1.079 -0.9311 -0.4713  0.3527
12190SOL     OW38576   3.712   4.963   4.643  0.4718  0.2426  0.0444
12190SOL    HW138577   3.765   4.953   4.564  0.3669  0.0862 -0.0056
12190SOL    HW238578   3.753   4.907   4.708  0.0320 -0.3289 -0.1618
12191SOL     OW38579   3.457  10.341   3.628  0.1034 -0.3260  0.1578
12191SOL    HW138580   3.546  10.306   3.626  0.4073  0.0812  2.6779
12191SOL    HW238581   3.456  10.409   3.561  2.2575  0.8102  1.1469
12192SOL     OW38582   6.251   9.047   5.606  0.0684  0.6175  0.0076
12192SOL    HW138583   6.202   9.095   5.672 -1.0778  1.3133 -1.2924
12192SOL    HW238584   6.249   9.104   5.529 -0.0712 -0.8583 -1.1232
12193SOL     OW38585   6.353   3.515   1.726  0.1184 -0.7190 -0.0878
12193SOL    HW138586   6.353   3.608   1.749 -0.7075 -0.2530 -1.7885
12193SOL    HW238587   6.323   3.471   1.805  0.8769  0.4052  0.8694
12194SOL     OW38588   5.027   0.048   8.425  0.1771  0.0592 -0.1755
12194SOL    HW138589   5.058  -0.006   8.497  0.0171  1.6474  1.1431
12194SOL    HW238590   5.107   0.081   8.383  0.2838 -1.5898 -1.3461
12195SOL     OW38591   2.203   5.774   6.502 -0.0471 -0.6161 -0.1197
12195SOL    HW138592   2.139   5.748   6.436 -0.2607  0.6147 -0.4236
12195SOL    HW238593   2.169   5.739   6.585 -1.0360 -0.0948 -0.3023
12196SOL     OW38594   9.351   8.398   0.895 -0.3264 -0.2412  0.0237
12196SOL    HW138595   9.423   8.442   0.850 -0.0367 -0.9542 -0.2371
12196SOL    HW238596   9.383   8.385   0.984 -1.2439  1.9693  0.7301
12197SOL     OW38597  10.548   7.554   9.951  0.4537 -0.3861  0.1247
12197SOL    HW138598  10.488   7.523  10.019 -0.0729  0.4386  0.0535
12197SOL    HW238599  10.552   7.649   9.964  2.2803 -0.4780  0.5436
12198SOL     OW38600   4.931   0.945   7.579  0.4683  0.5242  0.5324
12198SOL    HW138601   5.014   0.960   7.625  0.3545  3.5988 -0.0506
12198SOL    HW238602   4.864   0.955   7.647  0.5013  0.3823  0.5841
12199SOL     OW38603   9.975   3.359   8.008 -0.0708 -1.1973  0.0443
12199SOL    HW138604   9.912   3.337   8.077 -2.2918 -1.2020 -1.8689
12199SOL    HW238605  10.013   3.443   8.036 -0.1255 -1.7074  1.7528
12200SOL     OW38606   5.959   9.025   4.485 -0.0266 -0.3902 -0.2153
12200SOL    HW138607   5.937   9.117   4.477 -2.9904 -0.8180  1.2601
12200SOL    HW238608   5.907   8.982   4.417 -1.3554 -1.1960  1.2416
12201SOL     OW38609   9.289   1.347   2.561 -0.2460 -0.6913 -0.0096
12201SOL    HW138610   9.333   1.402   2.496  0.7069 -0.6299  0.6667
12201SOL    HW238611   9.217   1.307   2.514 -0.7779  0.8894 -0.6108
12202SOL     OW38612  10.724   5.167   9.969  0.0998 -0.3132 -0.6039
12202SOL    HW138613  10.713   5.159   9.874 -0.6371 -2.0806 -0.4136
12202SOL    HW238614  10.739   5.260   9.984 -3.1164  0.5931 -2.1477
12203SOL     OW38615   1.538   9.110   5.452 -0.0268  0.0554  0.1930
12203SOL    HW138616   1.563   9.040   5.393  1.9644  0.2254  0.7725
12203SOL    HW238617   1.541   9.070   5.539  3.8474  1.3511  0.8647
12204SOL     OW38618   5.362   4.940   7.343  0.2798 -0.4517 -0.2277
12204SOL    HW138619   5.452   4.913   7.355  0.1394 -0.5555  0.6260
12204SOL    HW238620   5.320   4.924   7.427 -0.5978 -0.6358 -0.6842
12205SOL     OW38621  10.672   5.107  10.230  0.1532  0.0775  0.2435
12205SOL    HW138622  10.729   5.158  10.288  1.4138 -0.9291 -0.0617
12205SOL    HW238623  10.674   5.153  10.147  1.3225 -0.4436 -0.0438
12206SOL     OW38624   6.557   2.551   9.017 -0.1896 -0.0782 -0.2132
12206SOL    HW138625   6.473   2.595   9.025 -0.3606 -0.5246  0.4866
12206SOL    HW238626   6.541   2.478   8.957 -0.3310 -0.2429  0.0267
12207SOL     OW38627   3.633   9.006   7.849  0.6332  0.2526  0.2999
12207SOL    HW138628   3.700   8.938   7.839  0.8162  0.6175 -1.2861
12207SOL    HW238629   3.626   9.045   7.762 -1.2074  0.6465  0.5906
12208SOL     OW38630   9.850   0.202   9.933  0.5833 -0.2078 -0.2845
12208SOL    HW138631   9.877   0.247   9.853  3.0227  1.1899  1.2243
12208SOL    HW238632   9.897   0.119   9.931  1.8183  0.4571  0.3618
12209SOL     OW38633   0.516   3.915   7.949 -0.0117 -0.2614 -0.0701
12209SOL    HW138634   0.481   3.957   7.871 -0.6076 -1.1087 -0.2730
12209SOL    HW238635   0.456   3.842   7.966 -0.8978  0.8756  2.1576
12210SOL     OW38636   0.009   9.791   3.328  0.3084  0.0176 -0.1097
12210SOL    HW138637  -0.030   9.716   3.284 -2.9519  0.5503  1.5701
12210SOL    HW238638   0.102   9.770   3.333 -0.0339 -2.5333 -2.2284
12211SOL     OW38639   9.347   7.522   9.758  0.6654  0.2630 -0.0766
12211SOL    HW138640   9.362   7.431   9.732 -0.3525  0.4480 -1.4221
12211SOL    HW238641   9.328   7.518   9.851 -0.4775 -1.0372 -0.3407
12212SOL     OW38642   5.668   9.180   3.904  0.0313 -0.3721 -0.6056
12212SOL    HW138643   5.595   9.195   3.844 -1.4084  0.8306  1.3366
12212SOL    HW238644   5.675   9.261   3.955  1.2280 -1.2918  0.7877
12213SOL     OW38645   9.897   1.326   1.173 -0.4172  0.5102 -0.1550
12213SOL    HW138646   9.901   1.398   1.110 -1.3861  2.0148  1.4437
12213SOL    HW238647   9.845   1.359   1.245  0.3064 -1.3106  1.2929
12214SOL     OW38648   3.773   6.053   4.795  0.0590 -0.4573 -0.1774
12214SOL    HW138649   3.814   6.052   4.708 -1.0763  1.3619 -0.7769
12214SOL    HW238650   3.774   5.961   4.823  0.7488 -1.0280 -1.9533
12215SOL     OW38651   9.722   2.033   1.599 -0.5304 -0.1427 -0.0865
12215SOL    HW138652   9.790   2.045   1.665 -0.7642  1.5559 -0.1013
12215SOL    HW238653   9.763   2.060   1.517 -1.0590  0.4173 -0.1752
12216SOL     OW38654   1.635   1.256   0.534  0.0357 -0.8535 -0.5139
12216SOL    HW138655   1.667   1.265   0.624 -0.1573 -3.0335 -0.1670
12216SOL    HW238656   1.569   1.325   0.525  0.3074 -0.3679  0.8924
12217SOL     OW38657   0.981   1.338   2.478 -0.3507 -0.5050 -0.7488
12217SOL    HW138658   0.980   1.412   2.539 -3.9289 -0.6055 -0.4518
12217SOL    HW238659   1.031   1.368   2.403  0.3806  1.2795  0.4116
12218SOL     OW38660   4.497   3.196  10.343 -0.0338  0.3032  0.4654
12218SOL    HW138661   4.587   3.192  10.310  0.0687  0.5262  0.7138
12218SOL    HW238662   4.444   3.210  10.264  0.3749  2.9802  0.5380
12219SOL     OW38663   0.192   1.101   0.280 -1.1535  0.0189 -0.3264
12219SOL    HW138664   0.219   1.024   0.331 -0.2416 -0.3471 -1.3317
12219SOL    HW238665   0.104   1.122   0.313 -0.5277 -0.0833  1.5231
12220SOL     OW38666  10.914   1.913  10.278  0.2479  0.0234  0.0271
12220SOL    HW138667  10.860   1.953  10.346 -0.5930 -1.3833  0.2104
12220SOL    HW238668  10.854   1.898  10.205  0.9077  0.5278 -0.6354
12221SOL     OW38669   7.609   3.342   5.530 -0.2318  0.3033  0.1613
12221SOL    HW138670   7.675   3.351   5.461  0.8288 -1.6405  0.8479
12221SOL    HW238671   7.528   3.321   5.483  0.1325  0.4891 -0.5721
12222SOL     OW38672   9.504  10.037   5.450 -0.1597 -0.6169 -0.3729
12222SOL    HW138673   9.425  10.088   5.433  0.9853  1.3902 -0.1011
12222SOL    HW238674   9.480   9.978   5.521 -1.1689  0.6048  0.3443
12223SOL     OW38675   1.000   1.040   5.107 -0.0302 -0.3778 -0.1511
12223SOL    HW138676   0.932   1.103   5.135  1.0807 -0.0702  2.1098
12223SOL    HW238677   1.069   1.050   5.172  1.8180 -1.3436 -1.8716
12224SOL     OW38678   8.355   4.480   9.359  0.4717  0.0730  0.4999
12224SOL    HW138679   8.397   4.509   9.278  3.4975 -1.1582  1.5055
12224SOL    HW238680   8.357   4.558   9.416  1.1290  0.1223  0.4176
12225SOL     OW38681   5.653   6.591   2.966  0.2862 -0.0128  0.6842
12225SOL    HW138682   5.703   6.539   3.028  0.6475 -1.0176 -0.4118
12225SOL    HW238683   5.562   6.570   2.985  0.3089  0.8278  1.8254
12226SOL     OW38684   9.895   0.338   6.203  0.2404 -0.1935 -0.4942
12226SOL    HW138685   9.869   0.430   6.205 -0.9575 -0.5248  1.4291
12226SOL    HW238686   9.912   0.316   6.294  1.0030 -1.7587 -0.9857
12227SOL     OW38687   0.934   1.400   0.310 -0.7958  0.4574  0.5711
12227SOL    HW138688   0.898   1.316   0.338  0.5526 -0.3291  0.0401
12227SOL    HW238689   0.966   1.384   0.221  1.2885  0.9369  1.1825
12228SOL     OW38690   6.363   7.096  10.011 -0.5601  0.0050 -0.0678
12228SOL    HW138691   6.453   7.065  10.015 -0.3834  0.5679  0.4489
12228SOL    HW238692   6.366   7.172   9.952 -0.7354 -0.1250 -0.2423
12229SOL     OW38693   4.493   8.735   6.742  0.5628  0.1495 -0.1558
12229SOL    HW138694   4.489   8.692   6.656 -0.3235  2.1168 -1.1728
12229SOL    HW238695   4.409   8.713   6.783 -0.0735  1.1455 -0.8508
12230SOL     OW38696   4.376   5.942   5.359  0.3018  0.2338  0.7671
12230SOL    HW138697   4.286   5.942   5.328  0.2632  2.3719  0.7012
12230SOL    HW238698   4.402   5.850   5.360 -0.1856 -0.1967 -4.1868
12231SOL     OW38699   6.552   5.780   8.229  0.7455  0.1909  0.6030
12231SOL    HW138700   6.498   5.824   8.294 -1.6444  0.0809 -1.1658
12231SOL    HW238701   6.520   5.689   8.230  1.1621  0.0322 -0.2195
12232SOL     OW38702   9.498   8.478  11.020 -0.0848 -0.6087  0.0151
12232SOL    HW138703   9.552   8.443  11.091  0.0202 -2.0759 -0.7520
12232SOL    HW238704   9.541   8.448  10.940 -0.0183  1.2904 -0.7059
12233SOL     OW38705   7.911   3.798   8.571  0.1335  0.3635 -0.0261
12233SOL    HW138706   7.830   3.803   8.622  0.7080  1.0953  0.8447
12233SOL    HW238707   7.882   3.778   8.482 -0.8327 -1.9333  0.7217
12234SOL     OW38708   1.218   5.503   8.184 -0.0199  0.4476  0.0177
12234SOL    HW138709   1.223   5.530   8.092  1.5657 -0.2576 -0.1457
12234SOL    HW238710   1.285   5.435   8.192 -1.1244 -0.5241  1.3734
12235SOL     OW38711   9.700   4.878   7.966 -0.0009 -0.7544 -0.5109
12235SOL    HW138712   9.704   4.888   7.871  2.1295  1.0015 -0.3055
12235SOL    HW238713   9.657   4.958   7.996 -1.0732 -1.5004  0.0230
12236SOL     OW38714  10.040  10.447   4.582  0.2572 -0.1557  0.9135
12236SOL    HW138715  10.081  10.385   4.644  0.5661 -0.3770  0.4930
12236SOL    HW238716   9.956  10.407   4.561 -0.5575  0.6834  2.3903
12237SOL     OW38717   3.895   3.258   0.824 -0.1539  0.2963  0.5949
12237SOL    HW138718   3.921   3.350   0.823 -0.0772  0.2695 -0.3610
12237SOL    HW238719   3.975   3.210   0.802 -0.6227  0.1284 -0.8400
12238SOL     OW38720   6.363   9.719   8.840  0.4931 -0.3121 -0.0952
12238SOL    HW138721   6.303   9.649   8.865 -0.5878  0.7417  0.3444
12238SOL    HW238722   6.410   9.684   8.764 -0.5200 -1.2566 -0.3138
12239SOL     OW38723   7.425   7.111  10.710 -0.1647 -0.0543  0.2045
12239SOL    HW138724   7.487   7.056  10.758 -0.4267  0.5421  1.2713
12239SOL    HW238725   7.361   7.050  10.675  0.5443 -0.5956 -0.1811
12240SOL     OW38726   7.289   5.432  10.480 -0.3756  0.1628 -0.0609
12240SOL    HW138727   7.382   5.424  10.456  0.1526 -0.6744  1.9979
12240SOL    HW238728   7.252   5.490  10.414  1.7607  1.0599 -0.5691
12241SOL     OW38729   9.593   5.240  10.600  0.1641  0.4301  0.1738
12241SOL    HW138730   9.605   5.324  10.557  0.8322 -0.1943 -0.8968
12241SOL    HW238731   9.544   5.187  10.537 -0.6878  0.1553  1.0324
12242SOL     OW38732   6.462   1.923   3.609 -0.2125 -0.3693 -0.4853
12242SOL    HW138733   6.440   1.983   3.681 -1.7105  0.6893 -1.7754
12242SOL    HW238734   6.522   1.973   3.553 -1.6210  0.0507 -1.6692
12243SOL     OW38735   6.129   9.792   2.727  0.5917 -0.6602 -0.1705
12243SOL    HW138736   6.124   9.697   2.733  1.7228 -0.7516 -0.3698
12243SOL    HW238737   6.156   9.809   2.637 -0.0948 -0.1238 -0.2801
12244SOL     OW38738   0.831  10.689   3.814 -0.0123 -0.3970  0.1198
12244SOL    HW138739   0.808  10.618   3.754  0.5100 -1.3654  1.0232
12244SOL    HW238740   0.748  10.710   3.857 -0.1598 -0.5099 -0.1022
12245SOL     OW38741   4.050  10.681   7.509 -0.0537 -0.4612  0.3375
12245SOL    HW138742   4.096  10.762   7.486 -0.7712  0.0587  0.6909
12245SOL    HW238743   4.050  10.630   7.428 -1.2033  0.6930 -0.4302
12246SOL     OW38744   8.564   7.056   2.227 -0.1147  0.2961 -0.3550
12246SOL    HW138745   8.557   7.143   2.186 -0.5603  0.8424  0.8145
12246SOL    HW238746   8.651   7.056   2.267 -0.8430  1.0053  1.3169
12247SOL     OW38747   3.379   8.952   0.577 -0.1812  0.6343  0.6451
12247SOL    HW138748   3.429   8.991   0.649  1.2319 -0.1508  0.1495
12247SOL    HW238749   3.446   8.932   0.511 -1.0543 -1.1562  0.2482
12248SOL     OW38750   3.887   3.814   9.333  0.2624  0.1625 -0.0196
12248SOL    HW138751   3.875   3.865   9.413  1.3149  0.2282  0.1011
12248SOL    HW238752   3.957   3.752   9.354 -0.9049 -1.2969 -0.1909
12249SOL     OW38753  10.765   5.771   3.944 -0.0433 -0.6005 -0.0714
12249SOL    HW138754  10.670   5.784   3.953  0.3450  2.1984  1.2357
12249SOL    HW238755  10.803   5.852   3.978  2.7952 -0.8246 -2.3262
12250SOL     OW38756   0.352   0.305   6.189  0.0132 -0.4737 -0.3168
12250SOL    HW138757   0.263   0.276   6.172  0.1122 -1.3806  0.6425
12250SOL    HW238758   0.390   0.237   6.244  1.3103 -0.1054 -0.7171
12251SOL     OW38759   3.732   9.953   0.870 -0.2325 -0.2292 -0.0473
12251SOL    HW138760   3.747  10.005   0.791  0.7382  0.0519  0.2999
12251SOL    HW238761   3.657   9.897   0.849 -0.4613  0.3770 -0.8919
12252SOL     OW38762   9.792   3.065  10.840  0.1841 -0.1402 -0.4460
12252SOL    HW138763   9.825   3.031  10.924  1.6255 -3.0495 -2.0568
12252SOL    HW238764   9.699   3.082  10.856  0.5316 -0.0814  1.8678
12253SOL     OW38765   6.296   5.990   2.531  0.0977 -0.8465 -0.9284
12253SOL    HW138766   6.390   5.983   2.550  0.0228  0.7296  0.2729
12253SOL    HW238767   6.270   6.072   2.573 -1.4761 -0.3758 -2.6646
12254SOL     OW38768   0.597   7.147   4.273  0.3282 -0.0068  0.2652
12254SOL    HW138769   0.623   7.144   4.181  2.0108  1.9022  0.6203
12254SOL    HW238770   0.505   7.119   4.272 -0.0546  1.0934 -2.1479
12255SOL     OW38771   0.729   9.978   5.883  0.0822  0.0903 -0.1806
12255SOL    HW138772   0.701  10.020   5.964  0.4102  2.0069 -0.9890
12255SOL    HW238773   0.684  10.027   5.814  1.8939  0.3347 -1.2709
12256SOL     OW38774   4.230   7.796   0.494  1.1227 -0.1089  0.3329
12256SOL    HW138775   4.251   7.708   0.524 -0.2274 -0.5201  0.1019
12256SOL    HW238776   4.300   7.851   0.531  1.6751 -1.1814  0.9217
12257SOL     OW38777   1.571   4.212   8.638  0.7065  0.1902 -0.5658
12257SOL    HW138778   1.545   4.186   8.727 -0.0538  0.7797 -0.5968
12257SOL    HW238779   1.622   4.139   8.605 -1.7734 -1.5262 -0.8506
12258SOL     OW38780   5.762   8.832   1.059  0.6322  0.2327  0.2240
12258SOL    HW138781   5.744   8.823   1.153  0.9299  0.8105  0.3381
12258SOL    HW238782   5.677   8.815   1.018  0.8700 -1.8452  0.4709
12259SOL     OW38783   7.368  10.482   1.507  0.2415 -0.3208  0.2455
12259SOL    HW138784   7.388  10.505   1.598  0.0399 -0.5193  0.3419
12259SOL    HW238785   7.288  10.531   1.487  0.4361 -0.0636  0.0841
12260SOL     OW38786   3.066   4.373   4.509 -0.2651 -0.6540 -0.1308
12260SOL    HW138787   3.108   4.288   4.497 -0.6572 -0.7732 -0.7044
12260SOL    HW238788   2.995   4.374   4.445  0.0466  0.3076 -0.4894
12261SOL     OW38789   8.593   3.923   8.261  0.3345 -0.4635 -0.2107
12261SOL    HW138790   8.560   3.926   8.351  1.7820 -0.5421  0.3413
12261SOL    HW238791   8.656   3.995   8.256 -0.8425  0.5321 -1.6433
12262SOL     OW38792  10.207   2.420   2.326 -0.7220  0.7139  0.9761
12262SOL    HW138793  10.302   2.406   2.323 -0.9384 -0.9392 -1.0340
12262SOL    HW238794  10.193   2.502   2.278 -0.3034  1.0460  1.4164
12263SOL     OW38795   7.268   7.349   8.926  0.5224 -0.4517 -0.0194
12263SOL    HW138796   7.195   7.377   8.981 -0.1218 -0.5287 -0.8283
12263SOL    HW238797   7.236   7.358   8.836  1.6319 -0.1333 -0.4027
12264SOL     OW38798  10.317   1.993   2.234  0.1344  0.5473 -0.4623
12264SOL    HW138799  10.374   2.068   2.250 -1.2181  1.1899  2.0337
12264SOL    HW238800  10.243   2.007   2.294  0.0252 -2.9916  0.4411
12265SOL     OW38801   9.805   0.025   6.835 -0.2583  0.3387  0.0484
12265SOL    HW138802   9.728  -0.029   6.851  0.1661 -0.2919  0.0230
12265SOL    HW238803   9.856  -0.023   6.770 -0.8946  1.8283 -1.6345
12266SOL     OW38804   8.425   0.297   1.988 -0.6062 -0.2628 -0.5433
12266SOL    HW138805   8.456   0.207   1.997 -0.7422 -0.4402 -1.7420
12266SOL    HW238806   8.336   0.294   2.023 -0.4055 -0.4555 -0.0315
12267SOL     OW38807   8.942   5.253  10.210  0.3454 -0.0420  0.0055
12267SOL    HW138808   8.862   5.252  10.263  1.1207  0.9252  1.2217
12267SOL    HW238809   9.000   5.191  10.253  0.8840  0.5599  0.1581
12268SOL     OW38810   6.426   0.364   5.894  0.4505  0.2645  0.1482
12268SOL    HW138811   6.512   0.328   5.869 -0.1611 -2.1002  1.1520
12268SOL    HW238812   6.431   0.372   5.989  0.0155  1.5196  0.0832
12269SOL     OW38813   1.742   1.869   2.453  0.2905 -0.5426 -0.0024
12269SOL    HW138814   1.748   1.792   2.397 -0.5988 -0.3059 -0.4249
12269SOL    HW238815   1.684   1.842   2.525  0.0355 -0.2930 -0.1133
12270SOL     OW38816   0.765   9.313   3.821  0.0136  0.1649  0.4769
12270SOL    HW138817   0.754   9.394   3.871  0.4809  0.8189 -0.4375
12270SOL    HW238818   0.705   9.323   3.746  0.7427  0.0895 -0.1333
12271SOL     OW38819   4.048   4.074   3.292  0.5052 -0.5651 -0.2594
12271SOL    HW138820   4.041   4.084   3.197  2.6726  0.7957 -0.3469
12271SOL    HW238821   3.984   4.007   3.314 -2.6885  1.6067 -2.1697
12272SOL     OW38822   1.436   0.952   1.197 -0.1787 -0.3798  0.0497
12272SOL    HW138823   1.419   0.980   1.288 -1.0060 -2.1408  0.4797
12272SOL    HW238824   1.528   0.973   1.183  0.5445 -1.8740  2.0261
12273SOL     OW38825   7.019   2.428   3.858  0.3287  0.0155 -0.3787
12273SOL    HW138826   6.956   2.466   3.919  2.0200  0.5890  1.1278
12273SOL    HW238827   7.008   2.477   3.777 -0.4402  0.8224  0.1962
12274SOL     OW38828   2.109   0.559   7.607 -0.6290  0.0459 -0.4209
12274SOL    HW138829   2.164   0.618   7.556 -1.0564  0.3293 -0.5551
12274SOL    HW238830   2.171   0.496   7.645 -0.1082  0.9078  0.1875
12275SOL     OW38831   7.591   3.744   7.986  0.4384 -0.1741  0.3642
12275SOL    HW138832   7.627   3.787   8.064 -0.8797 -1.5786  1.8269
12275SOL    HW238833   7.656   3.677   7.964 -0.0215 -0.9849  1.4042
12276SOL     OW38834  10.589   8.548   6.261  0.0755  0.1480 -0.1737
12276SOL    HW138835  10.656   8.605   6.299 -0.9271  1.6717 -0.6056
12276SOL    HW238836  10.575   8.480   6.327  1.4056  0.2943  0.2941
12277SOL     OW38837   0.025   7.358   7.088  0.4178  0.8520 -0.4907
12277SOL    HW138838  -0.050   7.416   7.088  0.8002  1.3549 -0.2205
12277SOL    HW238839   0.099   7.414   7.064  1.0146  0.7850  1.0935
12278SOL     OW38840   2.085  10.453   1.173  0.0108  0.0363  0.5101
12278SOL    HW138841   2.057  10.545   1.178 -0.9334 -0.2907  1.3827
12278SOL    HW238842   2.010  10.407   1.136  0.7795 -0.2776 -0.7247
12279SOL     OW38843   4.076   6.442   1.574 -0.5883 -0.0371 -0.4914
12279SOL    HW138844   4.094   6.530   1.608 -1.1229  0.4096 -1.3529
12279SOL    HW238845   3.985   6.445   1.545  0.2328  0.0977 -3.3853
12280SOL     OW38846   8.920   1.811   8.941 -0.2993  0.0439 -0.3391
12280SOL    HW138847   8.890   1.839   9.027 -0.4756 -1.0932 -0.0051
12280SOL    HW238848   8.944   1.719   8.953  2.4935  0.6437 -0.8197
12281SOL     OW38849   5.244   2.470   6.801  0.1601 -0.1195  0.4137
12281SOL    HW138850   5.228   2.483   6.707 -1.7065 -1.8272  0.4324
12281SOL    HW238851   5.278   2.554   6.831 -0.7287  0.9811 -1.4717
12282SOL     OW38852   3.607   7.678   9.796 -0.2710 -0.0507  0.2051
12282SOL    HW138853   3.668   7.683   9.870 -1.2875  2.6566  1.0068
12282SOL    HW238854   3.663   7.692   9.719  0.5106 -0.7199  0.6324
12283SOL     OW38855   7.856   2.146   5.744  0.0221 -0.4001  0.9004
12283SOL    HW138856   7.948   2.161   5.763  0.4593 -0.8497 -0.7669
12283SOL    HW238857   7.828   2.225   5.697 -0.8991  0.4383  2.7009
12284SOL     OW38858   9.759  10.118   5.579  0.1600 -0.3275 -0.2155
12284SOL    HW138859   9.701  10.143   5.507  2.1033 -0.4117 -1.9324
12284SOL    HW238860   9.746  10.186   5.645 -2.7075 -1.0109  0.0375
12285SOL     OW38861   8.702   3.795   1.220  0.1235 -0.4045  0.4616
12285SOL    HW138862   8.613   3.767   1.242  0.2468  0.5538  2.4379
12285SOL    HW238863   8.693   3.887   1.194  0.4176 -0.5898 -0.3056
12286SOL     OW38864   7.658   2.402   5.376 -0.3332 -0.6174 -0.3049
12286SOL    HW138865   7.752   2.412   5.369 -0.5548  1.6108 -0.9778
12286SOL    HW238866   7.628   2.389   5.286 -0.8252  0.8511 -0.3815
12287SOL     OW38867   3.130   8.872   3.385  0.2089 -0.3170  0.5067
12287SOL    HW138868   3.040   8.897   3.363 -0.0429  0.9336  2.6374
12287SOL    HW238869   3.181   8.951   3.371  0.8997 -0.8565 -0.1140
12288SOL     OW38870   7.292   1.437   2.861 -0.3866  0.4027 -0.1105
12288SOL    HW138871   7.257   1.348   2.856  1.1060 -0.2021 -0.2031
12288SOL    HW238872   7.289   1.459   2.954 -0.1931  0.0182 -0.0129
12289SOL     OW38873   7.333   2.722   5.663  0.3877 -0.3532 -0.2025
12289SOL    HW138874   7.397   2.794   5.655 -2.8132  3.4713  3.6659
12289SOL    HW238875   7.251   2.760   5.630 -1.2341 -2.6782  0.9438
12290SOL     OW38876   5.073   8.298   6.573  0.0935 -0.0453  0.2521
12290SOL    HW138877   5.013   8.310   6.500 -0.6118 -0.8624  0.6778
12290SOL    HW238878   5.158   8.283   6.533 -0.1397  0.2929 -0.3767
12291SOL     OW38879   4.484   0.775   8.475  0.0398  0.2645 -0.3818
12291SOL    HW138880   4.577   0.770   8.495 -0.0896  0.5163  0.3077
12291SOL    HW238881   4.456   0.683   8.473  0.1110  0.2119  0.3917
12292SOL     OW38882   9.401   3.818   9.842 -0.5101 -0.9009 -0.0192
12292SOL    HW138883   9.465   3.841   9.909  0.0615 -0.1403 -0.8008
12292SOL    HW238884   9.386   3.724   9.854  0.1561 -0.9264  0.6870
12293SOL     OW38885   4.221   8.088   9.007 -0.9722 -0.0079 -0.4273
12293SOL    HW138886   4.281   8.024   9.045 -2.4005 -0.7645  0.6533
12293SOL    HW238887   4.242   8.170   9.050  0.9547  0.3357 -1.9031
12294SOL     OW38888   7.423   0.498   3.637 -0.2644  0.0260  0.0918
12294SOL    HW138889   7.486   0.570   3.644 -0.6021  0.2943  0.4173
12294SOL    HW238890   7.390   0.503   3.548  2.3148 -1.9245 -1.1073
12295SOL     OW38891   4.857  10.347  10.285  0.3362 -0.1675  0.3140
12295SOL    HW138892   4.820  10.349  10.197 -0.2033 -2.6541  0.3949
12295SOL    HW238893   4.783  10.362  10.343  0.4587  0.2360  0.3661
12296SOL     OW38894   4.408   4.990   6.139  0.0277 -0.1126 -0.0098
12296SOL    HW138895   4.395   5.078   6.174 -0.1324  0.2814 -1.0432
12296SOL    HW238896   4.333   4.974   6.082  1.2804  0.0804 -1.7889
12297SOL     OW38897   1.756   2.956   1.204  0.0620 -0.3412  0.0382
12297SOL    HW138898   1.702   2.893   1.156 -1.0274  0.1986  0.5261
12297SOL    HW238899   1.831   2.904   1.235  0.8252 -0.6992 -2.2172
12298SOL     OW38900   5.589  10.487   0.901 -0.4201 -0.1950  0.0169
12298SOL    HW138901   5.598  10.531   0.817 -1.1530 -1.0745 -0.5317
12298SOL    HW238902   5.636  10.404   0.890 -0.4462 -0.2811  0.5111
12299SOL     OW38903   3.459   7.941   6.333 -0.0701  0.1271 -0.3579
12299SOL    HW138904   3.469   7.855   6.375 -2.4947 -1.0873 -2.0374
12299SOL    HW238905   3.525   7.996   6.376  0.8036 -2.2388  1.5955
12300SOL     OW38906   3.644   8.337   8.751  0.5080  0.5321 -0.1185
12300SOL    HW138907   3.693   8.255   8.764  1.4163  0.7909 -1.6525
12300SOL    HW238908   3.707   8.406   8.770  0.8476  0.8684 -2.1950
12301SOL     OW38909   7.392   8.745  10.354 -0.6926 -0.3118  0.3938
12301SOL    HW138910   7.433   8.664  10.324  0.0138  0.6333 -1.3509
12301SOL    HW238911   7.299   8.732  10.337 -0.5218 -0.5622 -0.3732
12302SOL     OW38912   9.906   2.133   2.543  0.2795  0.1560 -0.1062
12302SOL    HW138913   9.820   2.173   2.525 -0.4045 -1.5795 -0.8993
12302SOL    HW238914   9.967   2.206   2.538 -1.2280  1.6100  1.3430
12303SOL     OW38915   4.536   7.109   7.789  0.3480  0.1114 -0.6159
12303SOL    HW138916   4.531   7.203   7.771  1.5578  0.2725 -0.2097
12303SOL    HW238917   4.509   7.068   7.707 -1.0174  0.7940 -0.5404
12304SOL     OW38918   3.591   1.172   6.587  0.9004 -0.1598  0.2635
12304SOL    HW138919   3.529   1.210   6.524  0.3806 -0.0981  0.7980
12304SOL    HW238920   3.549   1.185   6.672  1.4787 -0.4639  0.6011
12305SOL     OW38921   3.168   0.714   6.582 -0.2798  0.3798 -0.1638
12305SOL    HW138922   3.076   0.694   6.601 -0.5293  0.8649 -0.8276
12305SOL    HW238923   3.211   0.712   6.667 -0.7005 -0.8725  0.0439
12306SOL     OW38924   7.182   7.901   3.276 -0.0249  0.2987  0.2397
12306SOL    HW138925   7.095   7.877   3.308  0.2580  0.3312  1.0693
12306SOL    HW238926   7.175   7.898   3.181 -0.8089 -0.1357  0.3077
12307SOL     OW38927   4.571   6.229   2.767 -0.0090  0.8463 -0.3942
12307SOL    HW138928   4.541   6.287   2.698  0.6385  0.7019 -0.8058
12307SOL    HW238929   4.656   6.264   2.793  0.5345 -0.0888 -0.8635
12308SOL     OW38930   0.735   8.202   8.305 -0.7056 -0.0490 -0.2605
12308SOL    HW138931   0.817   8.250   8.297 -0.4697 -0.2662  0.7247
12308SOL    HW238932   0.735   8.169   8.395 -1.4759 -0.7701 -0.5084
12309SOL     OW38933   3.421   6.284   9.243  0.5600  0.0571 -0.0130
12309SOL    HW138934   3.416   6.343   9.169  2.2208  0.6736  0.3111
12309SOL    HW238935   3.331   6.272   9.271  0.1615  2.5675 -0.0062
12310SOL     OW38936   7.558  10.926   6.571  0.4088 -0.0923 -0.7125
12310SOL    HW138937   7.494  10.923   6.501  0.1097 -0.0070 -0.4458
12310SOL    HW238938   7.568  10.834   6.599 -0.9117  0.0902  0.4213
12311SOL     OW38939  10.785   8.710  10.683  1.2348  0.3795  0.0273
12311SOL    HW138940  10.877   8.734  10.667  1.8881 -0.8564  1.5541
12311SOL    HW238941  10.791   8.626  10.730 -0.7525 -0.5763 -1.2921
12312SOL     OW38942   4.545   4.630   1.303  0.1194  0.0895  0.4990
12312SOL    HW138943   4.567   4.682   1.381  0.4902 -0.0170  0.4666
12312SOL    HW238944   4.626   4.628   1.252  0.0073 -0.2295  0.3321
12313SOL     OW38945   5.601   4.500   8.060 -0.2832 -0.0703  0.1642
12313SOL    HW138946   5.673   4.475   8.003 -0.3645 -1.2522  0.5566
12313SOL    HW238947   5.559   4.573   8.015  0.0920 -0.5130 -0.9383
12314SOL     OW38948  10.623   3.719  10.419 -0.2137 -0.3061 -0.1688
12314SOL    HW138949  10.582   3.747  10.502  0.5362 -0.9579  0.4370
12314SOL    HW238950  10.563   3.654  10.384  0.2076 -1.1673  0.6560
12315SOL     OW38951   6.661   1.976   0.183 -0.9823 -0.8885  0.0186
12315SOL    HW138952   6.667   2.057   0.233 -0.4569 -0.2448 -1.0466
12315SOL    HW238953   6.690   1.908   0.243 -0.0398 -0.0949  0.4854
12316SOL     OW38954   5.964   9.451   2.939 -0.1290 -0.3823 -0.0463
12316SOL    HW138955   5.934   9.536   2.970 -0.9839 -0.7236  0.1229
12316SOL    HW238956   6.009   9.469   2.857 -0.5706  0.2003 -0.1643
12317SOL     OW38957   7.885   3.392   3.318 -0.2437 -0.4471  0.1668
12317SOL    HW138958   7.909   3.339   3.394 -1.0049 -1.5376 -0.3234
12317SOL    HW238959   7.935   3.354   3.246  0.4661  0.5747  0.1009
12318SOL     OW38960   9.693   0.220   9.272  0.0313  0.2588 -0.5209
12318SOL    HW138961   9.700   0.314   9.287  3.7224  0.3651 -1.8617
12318SOL    HW238962   9.648   0.212   9.188  0.8641  0.9380 -1.0504
12319SOL     OW38963   8.517   7.157   8.591 -0.2350 -0.4388 -0.6405
12319SOL    HW138964   8.527   7.138   8.498  0.4295 -0.9078 -0.4762
12319SOL    HW238965   8.496   7.072   8.631 -0.0581 -0.3229 -0.2989
12320SOL     OW38966   8.244   5.552  10.401  0.4839 -0.2985 -0.1462
12320SOL    HW138967   8.241   5.614  10.474 -0.1341 -0.1032 -0.3273
12320SOL    HW238968   8.197   5.475  10.432 -0.3928  0.0499 -0.5644
12321SOL     OW38969   6.752   7.040   8.097 -0.2256  0.0680  0.1409
12321SOL    HW138970   6.770   7.025   8.189 -1.3324  0.5359  0.4483
12321SOL    HW238971   6.821   7.099   8.068 -0.9619  1.5005  1.1810
12322SOL     OW38972   4.827   4.842   8.521 -0.2941  0.2580  0.3734
12322SOL    HW138973   4.784   4.893   8.453 -0.2221  1.1916  1.0103
12322SOL    HW238974   4.864   4.767   8.474  2.6691  2.5024 -1.2993
12323SOL     OW38975   1.877   7.852   5.705 -0.0377 -0.2575  0.0265
12323SOL    HW138976   1.886   7.897   5.620  0.9631 -0.3253  0.0833
12323SOL    HW238977   1.782   7.841   5.716 -0.1552 -1.2491 -1.6115
12324SOL     OW38978   4.894   6.847   3.136  0.0805 -0.2013 -0.6218
12324SOL    HW138979   4.960   6.915   3.127 -0.6266  0.6239  0.1761
12324SOL    HW238980   4.934   6.780   3.191  0.1695  0.4157  0.0713
12325SOL     OW38981   5.601   7.785   5.642 -0.6366 -0.3658  0.7545
12325SOL    HW138982   5.513   7.790   5.604 -0.1768 -0.4119 -0.3667
12325SOL    HW238983   5.628   7.694   5.630  0.2952  0.0540 -0.7019
12326SOL     OW38984   3.306   5.675  10.948 -0.1163  0.1424  0.1902
12326SOL    HW138985   3.284   5.590  10.986 -0.0412 -0.0431 -0.1770
12326SOL    HW238986   3.226   5.727  10.958 -1.0686 -0.8069 -1.9133
12327SOL     OW38987   7.880   8.655   2.371 -0.9554 -0.1906  0.0291
12327SOL    HW138988   7.818   8.609   2.427 -3.0864  1.7952 -0.5682
12327SOL    HW238989   7.864   8.620   2.283 -2.9350  1.8543 -0.5151
12328SOL     OW38990   8.413   5.992   1.727 -0.5673  0.3551  0.4669
12328SOL    HW138991   8.479   6.009   1.659  0.5586 -3.2163  0.4423
12328SOL    HW238992   8.464   5.989   1.808 -1.1116 -0.0744  0.7942
12329SOL     OW38993   2.509   0.711   5.821  0.0229 -0.4023  0.6977
12329SOL    HW138994   2.523   0.671   5.907 -1.3599 -0.4537  0.9330
12329SOL    HW238995   2.582   0.682   5.768  0.3648 -1.1936  1.5779
12330SOL     OW38996   7.328   5.495   8.079 -0.3207 -0.0352 -0.5957
12330SOL    HW138997   7.301   5.408   8.106 -2.9923  0.3391 -1.7043
12330SOL    HW238998   7.417   5.505   8.113 -0.2706 -2.8166  0.3125
12331SOL     OW38999   8.130   8.550  10.559  0.3988  0.4918  0.4396
12331SOL    HW139000   8.059   8.577  10.618 -0.0280 -1.2162  0.7585
12331SOL    HW239001   8.099   8.575  10.472  0.0934  1.1294  0.7246
12332SOL     OW39002  10.848   9.864   2.253  0.7085  0.1637  0.1981
12332SOL    HW139003  10.850   9.949   2.296  4.3034 -0.7388  2.2611
12332SOL    HW239004  10.939   9.846   2.231 -0.0822 -2.6575 -1.2349
12333SOL     OW39005   8.189   6.920   7.033 -0.4183  0.6251  0.1699
12333SOL    HW139006   8.232   6.916   7.118  0.1511  0.7140 -0.1149
12333SOL    HW239007   8.095   6.915   7.054 -0.3257  1.4632  0.8644
12334SOL     OW39008   2.316   4.546   8.518  0.3191  0.1973  0.0761
12334SOL    HW139009   2.294   4.466   8.566 -1.5018  0.9011  0.4903
12334SOL    HW239010   2.263   4.541   8.438 -1.0706  1.7061  0.8470
12335SOL     OW39011   1.238   1.358   2.698  0.8112 -0.4820 -0.3231
12335SOL    HW139012   1.143   1.355   2.709  0.7839  0.5910 -0.2269
12335SOL    HW239013   1.266   1.267   2.713 -0.5505 -1.7226 -4.1086
12336SOL     OW39014   7.746  10.782   3.939  0.0484 -0.2829  0.4349
12336SOL    HW139015   7.719  10.700   3.981 -1.6905  1.2732  2.5220
12336SOL    HW239016   7.687  10.848   3.974  1.8769  2.0455 -0.6229
12337SOL     OW39017  10.041  10.724   7.788  0.0172  0.1899 -0.0269
12337SOL    HW139018  10.130  10.739   7.755  0.1616 -2.9908 -1.4438
12337SOL    HW239019  10.001  10.667   7.723 -2.8790  0.9704  0.9466
12338SOL     OW39020   7.998   9.934   7.798  0.1823 -0.2539  0.3766
12338SOL    HW139021   8.082   9.896   7.774 -0.6652 -2.4966  0.7069
12338SOL    HW239022   7.937   9.860   7.794 -2.0604  1.5494 -1.1812
12339SOL     OW39023   2.313   5.101   1.672  0.3094 -0.3505 -0.3166
12339SOL    HW139024   2.279   5.186   1.699 -0.3702 -0.3831 -1.0214
12339SOL    HW239025   2.273   5.039   1.734  0.8562 -0.1560  0.2368
12340SOL     OW39026   1.273   9.210   5.467 -0.1810 -0.2565  0.0167
12340SOL    HW139027   1.292   9.290   5.516  0.4211 -0.9289  0.9055
12340SOL    HW239028   1.355   9.161   5.470 -0.6003 -0.9857 -0.3763
12341SOL     OW39029   7.365   2.703   0.027  0.6153 -0.2884 -0.3672
12341SOL    HW139030   7.341   2.737  -0.059 -2.0047 -0.9019  0.0332
12341SOL    HW239031   7.328   2.766   0.089 -0.3127 -1.4523  0.3060
12342SOL     OW39032   5.438   4.160   1.778 -0.3484  0.4176 -0.1846
12342SOL    HW139033   5.431   4.065   1.772 -0.9165  0.3137  1.5696
12342SOL    HW239034   5.531   4.178   1.763  0.4130 -0.7497  2.4716
12343SOL     OW39035   9.966   7.134   7.860  0.2059  0.6995  0.3792
12343SOL    HW139036   9.917   7.216   7.857 -1.0636  0.0369  1.6303
12343SOL    HW239037   9.985   7.114   7.768 -0.0356  2.0492  0.0163
12344SOL     OW39038  11.033   5.048   5.068 -0.3766 -0.5079  0.5852
12344SOL    HW139039  11.067   5.104   5.139  0.9453 -1.3349  0.6450
12344SOL    HW239040  11.111   5.005   5.033 -0.6022  1.6443 -3.0239
12345SOL     OW39041   6.300   5.254   8.816  0.2109  0.0415  0.2262
12345SOL    HW139042   6.213   5.282   8.845 -1.2381 -1.1287 -2.5843
12345SOL    HW239043   6.360   5.311   8.864 -2.0562  0.9041  2.3021
12346SOL     OW39044   3.085   4.844   4.828  0.3108 -0.1738  0.4012
12346SOL    HW139045   3.048   4.780   4.767  1.3000  0.1875 -0.6237
12346SOL    HW239046   3.162   4.877   4.783 -1.2546  3.2721 -0.0487
12347SOL     OW39047   1.160   2.785   8.584  0.5814  0.0988 -0.1536
12347SOL    HW139048   1.235   2.730   8.562  0.7816 -0.5947  1.9924
12347SOL    HW239049   1.084   2.728   8.574  0.5298  0.2324 -0.5133
12348SOL     OW39050   6.832   8.522   0.148  0.2021 -0.0334  0.4873
12348SOL    HW139051   6.768   8.478   0.204 -0.4605  0.5050  0.1786
12348SOL    HW239052   6.857   8.600   0.197 -0.2290  0.3346  0.1379
12349SOL     OW39053   2.514   2.848   6.914  0.4073 -0.6531  0.2017
12349SOL    HW139054   2.523   2.778   6.849 -1.2834  1.1799 -2.1857
12349SOL    HW239055   2.504   2.802   6.997 -0.6415 -3.2603 -1.2318
12350SOL     OW39056   6.116   0.546   7.712  0.2636 -0.4637  0.1702
12350SOL    HW139057   6.142   0.614   7.649  0.9772 -2.0971 -1.3830
12350SOL    HW239058   6.022   0.559   7.722 -0.1263 -0.8749 -2.2257
12351SOL     OW39059   7.770   6.475   9.430 -0.2038  0.0327  0.1893
12351SOL    HW139060   7.838   6.408   9.430 -0.0667  0.1631  1.0717
12351SOL    HW239061   7.753   6.492   9.337  1.3492  0.3906 -0.0572
12352SOL     OW39062   5.219   6.177   9.717  0.4572 -0.0450  0.2179
12352SOL    HW139063   5.298   6.200   9.667 -0.6234  0.8080 -1.1774
12352SOL    HW239064   5.168   6.122   9.657 -0.7061  0.7003  0.4935
12353SOL     OW39065   2.635   6.382   7.601  0.7072  0.0053 -0.3191
12353SOL    HW139066   2.706   6.407   7.660  0.3731 -0.8894  0.4819
12353SOL    HW239067   2.556   6.417   7.643  0.5753  0.2530 -0.7671
12354SOL     OW39068   4.454   3.828   6.168  0.3421  0.3925  0.0129
12354SOL    HW139069   4.407   3.794   6.244  0.0662  0.6055 -0.0602
12354SOL    HW239070   4.519   3.888   6.205  1.1575 -0.5626  0.1789
12355SOL     OW39071   1.747   3.622   1.328 -0.1713 -0.0596  0.3387
12355SOL    HW139072   1.735   3.552   1.392 -0.6742  0.9430  1.3667
12355SOL    HW239073   1.681   3.604   1.261  0.4946 -1.2353 -0.0390
12356SOL     OW39074   8.103   1.639   2.932  0.2772  0.1143  0.2323
12356SOL    HW139075   8.010   1.649   2.914  0.9036  0.5906 -3.4923
12356SOL    HW239076   8.122   1.549   2.906  1.1189  0.4955 -0.4979
12357SOL     OW39077   6.145   4.763   2.693  0.1693 -0.2461 -0.1513
12357SOL    HW139078   6.227   4.760   2.644 -0.0143  0.0996 -0.4828
12357SOL    HW239079   6.123   4.671   2.709  2.1851 -0.3700  2.6035
12358SOL     OW39080   6.037   4.733   8.951 -0.3136 -0.0336 -0.5424
12358SOL    HW139081   6.029   4.824   8.982 -1.0470 -0.3612  0.2984
12358SOL    HW239082   6.125   4.727   8.914  0.0250  0.8156  0.0952
12359SOL     OW39083   4.174   9.761  10.770 -0.6731 -0.1460 -0.3237
12359SOL    HW139084   4.134   9.761  10.682 -1.5333  0.1030  0.0562
12359SOL    HW239085   4.104   9.730  10.828  0.3277 -1.7910  0.0986
12360SOL     OW39086   4.177   3.465   7.003  0.3742 -0.0917 -0.0285
12360SOL    HW139087   4.242   3.535   7.007  0.2896 -0.0488  0.6925
12360SOL    HW239088   4.227   3.388   6.974  0.5216  0.1909 -0.5521
12361SOL     OW39089   9.329   2.613   5.541 -0.4437  0.2403  0.4726
12361SOL    HW139090   9.303   2.562   5.618 -0.9423 -2.2713 -1.2157
12361SOL    HW239091   9.423   2.601   5.535 -0.6454 -1.3374 -0.3610
12362SOL     OW39092   7.496   4.974  10.434  0.3830 -0.2878 -0.2514
12362SOL    HW139093   7.430   4.926  10.485 -0.4887  1.1366  0.0392
12362SOL    HW239094   7.572   4.979  10.492 -1.1817  2.8539  1.8381
12363SOL     OW39095   0.915  10.713   0.575 -0.2518 -0.5511 -0.1068
12363SOL    HW139096   0.932  10.620   0.556 -1.8686 -1.1028  0.9120
12363SOL    HW239097   0.974  10.733   0.648 -0.0471 -0.8526 -0.1858
12364SOL     OW39098   5.451   7.787   2.819  0.0275  0.2373  0.3563
12364SOL    HW139099   5.476   7.710   2.869  0.3321  0.1561  0.0866
12364SOL    HW239100   5.366   7.813   2.854 -0.6620 -0.9556 -0.3923
12365SOL     OW39101   9.084   9.540   1.779 -0.1825 -0.1812  0.0106
12365SOL    HW139102   9.043   9.592   1.710 -1.1312 -1.0266 -0.0863
12365SOL    HW239103   9.141   9.479   1.732  1.4588  1.1748  0.1585
12366SOL     OW39104   9.196   1.846   9.988  0.3057  0.2773  0.3920
12366SOL    HW139105   9.194   1.941   9.997 -0.3743  0.4533 -1.1977
12366SOL    HW239106   9.288   1.823   9.999  0.5613  1.1886  0.2687
12367SOL     OW39107   7.543   2.901   6.875 -0.1693  0.3196 -0.6703
12367SOL    HW139108   7.507   2.878   6.789 -1.3715  0.0404 -0.1101
12367SOL    HW239109   7.471   2.886   6.936 -0.4142  3.6369  0.0263
12368SOL     OW39110   9.669   4.788   6.027  0.2104  0.3455  0.5404
12368SOL    HW139111   9.608   4.797   5.955  0.9292 -0.4251 -0.1838
12368SOL    HW239112   9.718   4.708   6.008  0.9221  0.5300  1.4899
12369SOL     OW39113   7.438   9.386   1.879 -0.3724  0.1951 -0.3029
12369SOL    HW139114   7.493   9.338   1.941  1.3430  2.4219  0.0237
12369SOL    HW239115   7.462   9.351   1.793 -0.7467 -1.0038  0.0699
12370SOL     OW39116   5.068   3.040  10.604 -0.2677 -0.0223  0.4405
12370SOL    HW139117   5.052   3.134  10.613  1.8243  0.3305  0.9012
12370SOL    HW239118   5.163   3.032  10.597 -0.4367 -2.0655 -0.2734
12371SOL     OW39119   0.735   1.640   0.116 -0.0528 -0.5189  0.5718
12371SOL    HW139120   0.714   1.584   0.042  0.8672 -0.9605  0.6328
12371SOL    HW239121   0.682   1.605   0.188 -0.3263 -0.5999  0.3369
12372SOL     OW39122   1.836   7.797   8.375  0.0908  0.1386  0.9826
12372SOL    HW139123   1.815   7.755   8.458  1.9773 -0.5462  1.1513
12372SOL    HW239124   1.929   7.780   8.361  0.7777  3.5037  0.5986
12373SOL     OW39125   3.990   5.547   3.601  0.5484 -0.2137 -0.6003
12373SOL    HW139126   3.955   5.524   3.687  1.2254 -0.4985 -0.3915
12373SOL    HW239127   3.949   5.484   3.541  0.6616 -0.5098 -0.3696
12374SOL     OW39128   4.476   2.082   4.116  0.1830 -0.0069  0.5054
12374SOL    HW139129   4.509   2.150   4.058 -0.3412 -0.1379  0.0449
12374SOL    HW239130   4.555   2.044   4.156  0.5409  0.1561 -0.0354
12375SOL     OW39131   5.367   3.888   4.475 -0.0928 -0.4526 -0.1290
12375SOL    HW139132   5.315   3.962   4.505  0.1075 -0.0127 -0.8387
12375SOL    HW239133   5.304   3.817   4.463 -0.6776  0.2784 -1.6906
12376SOL     OW39134   9.833   0.419   5.728 -0.1092 -0.1151 -0.3810
12376SOL    HW139135   9.837   0.368   5.647  0.1859 -0.6769 -0.0168
12376SOL    HW239136   9.845   0.355   5.797  2.2373  0.6685  0.0399
12377SOL     OW39137   3.339   4.826   4.099 -0.2365  0.8335  0.6019
12377SOL    HW139138   3.278   4.835   4.026  1.0552 -0.5954 -0.7154
12377SOL    HW239139   3.312   4.894   4.161 -1.2357  2.2679 -1.2938
12378SOL     OW39140   0.367   0.577   3.565 -0.1278  0.2598  0.1679
12378SOL    HW139141   0.429   0.546   3.499 -0.0612  0.5580  0.0893
12378SOL    HW239142   0.370   0.511   3.634  0.7979  0.6276  0.4851
12379SOL     OW39143   8.468   2.103  10.018  0.7391  0.2580  0.5387
12379SOL    HW139144   8.493   2.160  10.090  1.4266 -0.5117  0.9168
12379SOL    HW239145   8.548   2.090   9.967  0.3767  0.3847 -0.0765
12380SOL     OW39146   0.543   9.790   6.604  0.3387 -0.4227  0.1947
12380SOL    HW139147   0.613   9.836   6.558 -0.2672 -0.2864 -0.6214
12380SOL    HW239148   0.530   9.709   6.553  0.0529 -0.5517  0.4689
12381SOL     OW39149   6.883   6.135   8.860  0.2223 -0.3300 -0.4035
12381SOL    HW139150   6.965   6.132   8.909  0.0476  0.8206 -0.0237
12381SOL    HW239151   6.906   6.099   8.774  1.2205  0.3179 -0.4290
12382SOL     OW39152   4.392   0.277   6.364 -0.6146 -0.0506  0.0427
12382SOL    HW139153   4.321   0.226   6.327 -0.6728 -0.6351  0.9217
12382SOL    HW239154   4.469   0.252   6.313 -0.3820 -2.0212  1.2530
12383SOL     OW39155   5.626   4.637   5.593  0.0888 -0.5339  0.3739
12383SOL    HW139156   5.667   4.685   5.521 -0.2389 -0.6794  0.0847
12383SOL    HW239157   5.660   4.678   5.672  1.1077 -0.9150  0.1458
12384SOL     OW39158   9.688  10.356   3.599 -0.2096  0.1953 -0.3801
12384SOL    HW139159   9.710  10.449   3.590 -1.6143  0.5680 -0.2866
12384SOL    HW239160   9.680  10.342   3.694 -0.4107  0.0967 -0.4097
12385SOL     OW39161   3.515   6.568   1.571  0.0591 -0.0828 -0.3009
12385SOL    HW139162   3.522   6.472   1.571 -0.2435 -0.1191 -1.0564
12385SOL    HW239163   3.588   6.598   1.624  0.3034 -0.7302 -0.2600
12386SOL     OW39164   5.823  10.602   4.655 -0.3122  0.4298  0.0936
12386SOL    HW139165   5.744  10.655   4.644  0.4008  1.1814 -1.9379
12386SOL    HW239166   5.831  10.554   4.573  1.4729  0.5906  0.1298
12387SOL     OW39167  10.586   2.378   3.445 -0.1976 -0.1217  1.1549
12387SOL    HW139168  10.557   2.369   3.536  0.6513 -1.0084  1.3571
12387SOL    HW239169  10.575   2.291   3.408  1.6421 -0.3790  1.0969
12388SOL     OW39170   4.172  10.279   6.096  0.0386 -0.1291 -0.4587
12388SOL    HW139171   4.080  10.289   6.124  0.3862 -0.4812  0.8764
12388SOL    HW239172   4.211  10.221   6.161  1.6264  1.2939 -0.0759
12389SOL     OW39173   0.301   0.270  10.338  0.1704 -0.4151  0.4428
12389SOL    HW139174   0.220   0.301  10.297 -0.0098 -0.3474  0.8468
12389SOL    HW239175   0.369   0.292  10.275 -0.3806 -2.6977 -1.0612
12390SOL     OW39176   2.171   7.859   3.928 -0.0697 -0.4101 -0.4876
12390SOL    HW139177   2.150   7.779   3.977 -0.4770  0.4038  0.7092
12390SOL    HW239178   2.261   7.846   3.898  0.7958 -0.2721  1.8827
12391SOL     OW39179   5.772   9.703   2.668  0.4170  0.0801 -1.1356
12391SOL    HW139180   5.696   9.755   2.695 -0.8969 -1.2831 -1.9678
12391SOL    HW239181   5.770   9.627   2.726  2.0194  0.6889 -0.2393
12392SOL     OW39182  10.217  10.161   5.914  0.3648 -0.2596  0.2636
12392SOL    HW139183  10.215  10.090   5.979  0.9842 -1.0167 -0.5210
12392SOL    HW239184  10.264  10.123   5.839 -0.3699  0.5889 -0.6401
12393SOL     OW39185   3.776   4.231   2.315  0.5344  0.3514  0.0674
12393SOL    HW139186   3.866   4.253   2.292  0.1671  0.4608 -1.3936
12393SOL    HW239187   3.768   4.138   2.293 -0.4229  0.9475 -2.4356
12394SOL     OW39188   0.752   8.869   8.868 -0.1439  0.4237 -0.2470
12394SOL    HW139189   0.683   8.912   8.818  0.7766  1.1780 -0.9249
12394SOL    HW239190   0.792   8.808   8.805  0.7471  1.0668 -0.3270
12395SOL     OW39191   8.195   2.954  10.064 -0.0803  0.1050 -0.2435
12395SOL    HW139192   8.174   2.983  10.153 -1.2335 -1.1351 -0.0831
12395SOL    HW239193   8.237   3.030  10.024  0.6538  0.6338  1.4056
12396SOL     OW39194   7.404   5.656   3.678 -0.1898 -0.7657 -0.5766
12396SOL    HW139195   7.466   5.669   3.750 -0.1401 -0.3721 -0.6900
12396SOL    HW239196   7.318   5.655   3.720 -0.6603  4.1050 -0.8924
12397SOL     OW39197   7.381   4.438   1.051  0.4772 -0.1174  0.0320
12397SOL    HW139198   7.424   4.511   1.007 -0.1773 -0.1039 -0.6004
12397SOL    HW239199   7.289   4.443   1.023 -0.0432  0.0839  1.6579
12398SOL     OW39200   9.112   1.190   9.963  0.1732 -0.1227 -0.5385
12398SOL    HW139201   9.049   1.145  10.020  0.0614 -0.2781 -0.7832
12398SOL    HW239202   9.093   1.156   9.875  1.1555 -0.8045 -0.5034
12399SOL     OW39203   5.655  10.887   8.441  0.2347  0.1039 -0.4067
12399SOL    HW139204   5.627  10.796   8.438 -0.7440  0.3060  1.2496
12399SOL    HW239205   5.700  10.902   8.357  3.0400 -2.7013  0.4233
12400SOL     OW39206   1.933   6.225   3.603 -0.8539 -0.3606  0.4839
12400SOL    HW139207   2.006   6.275   3.640 -1.1242  0.2867  0.1575
12400SOL    HW239208   1.973   6.142   3.574 -0.4489 -0.4501  1.2601
12401SOL     OW39209   3.966   9.110   3.918 -0.0153  0.1598  0.2154
12401SOL    HW139210   4.013   9.080   3.996 -0.8844 -1.1620  0.2636
12401SOL    HW239211   3.876   9.083   3.934 -1.0132  3.3005  0.4776
12402SOL     OW39212   5.589   8.052   5.083 -0.0656 -0.1355  0.8576
12402SOL    HW139213   5.637   7.994   5.024 -0.6528  0.8581 -0.6594
12402SOL    HW239214   5.514   8.000   5.112  0.2845 -0.6748  0.8062
12403SOL     OW39215   4.220   5.847   6.543  0.7466 -0.6409  0.6114
12403SOL    HW139216   4.269   5.831   6.623  0.4881 -4.2818  0.2133
12403SOL    HW239217   4.134   5.808   6.559 -0.4431  1.3907 -0.3824
12404SOL     OW39218   1.781   4.512   2.936  0.5559 -0.0117  0.0806
12404SOL    HW139219   1.870   4.492   2.905  0.2633 -2.1640  0.4562
12404SOL    HW239220   1.780   4.481   3.027 -0.1811  1.3016  0.5423
12405SOL     OW39221  10.402   9.486   8.266 -0.4213 -0.1047 -0.3657
12405SOL    HW139222  10.448   9.403   8.254  0.8413  0.5190 -0.0430
12405SOL    HW239223  10.349   9.473   8.344  0.2079 -0.4455  0.0167
12406SOL     OW39224   6.869  10.770  10.837 -0.3093 -0.6981 -0.1563
12406SOL    HW139225   6.864  10.693  10.894 -0.2933 -0.6658 -0.1109
12406SOL    HW239226   6.963  10.783  10.824 -0.3172 -0.7970 -0.3136
12407SOL     OW39227   1.034   1.696  11.018 -0.8573 -0.1092 -0.3367
12407SOL    HW139228   1.009   1.729  11.105 -0.6424  0.9649 -0.6643
12407SOL    HW239229   1.033   1.601  11.027 -0.1473 -0.0084  1.0453
12408SOL     OW39230   9.974   0.325   8.276  0.7064 -0.2923 -0.3643
12408SOL    HW139231   9.969   0.249   8.218 -3.1079  0.7964 -1.6894
12408SOL    HW239232   9.907   0.309   8.342  2.3005  0.3473  1.4855
12409SOL     OW39233   8.953   6.312   0.666 -0.4922  0.1709 -0.5898
12409SOL    HW139234   8.862   6.305   0.640 -0.9850 -0.9728  1.2392
12409SOL    HW239235   9.001   6.260   0.601 -0.8082  2.3416 -2.7087
12410SOL     OW39236   0.183   0.306   6.550  0.7030 -0.1604  0.2444
12410SOL    HW139237   0.234   0.236   6.509 -0.5896 -0.8491 -0.2529
12410SOL    HW239238   0.172   0.278   6.641 -1.4600 -1.6652 -0.3895
12411SOL     OW39239   5.667   0.934   0.481  0.2663  0.1142 -0.6095
12411SOL    HW139240   5.668   0.979   0.566  0.9914 -0.2379 -0.4179
12411SOL    HW239241   5.575   0.927   0.458  0.1071  0.9441 -0.2365
12412SOL     OW39242   9.035   6.222   4.322 -0.1682 -0.3210 -0.4931
12412SOL    HW139243   8.978   6.298   4.322  1.1030  0.6798  0.2787
12412SOL    HW239244   9.101   6.241   4.389  1.2298 -1.2910 -1.5203
12413SOL     OW39245  10.029  10.986   2.999 -0.4228 -0.1973 -0.1405
12413SOL    HW139246   9.998  10.919   3.060  0.7439  0.5317  1.3286
12413SOL    HW239247  10.118  11.005   3.028 -0.2990  1.1142 -1.2797
12414SOL     OW39248   1.447   3.831   8.884  0.1395 -0.0894  0.1475
12414SOL    HW139249   1.482   3.805   8.969  0.7074 -0.4827 -0.2042
12414SOL    HW239250   1.521   3.825   8.824 -0.1382  0.6687 -0.2829
12415SOL     OW39251   9.711   8.165   6.245 -0.5066  0.2836  0.7220
12415SOL    HW139252   9.672   8.208   6.321  0.9451  0.1196  1.5956
12415SOL    HW239253   9.776   8.105   6.281  0.0648  0.0369 -0.6390
12416SOL     OW39254   2.571  10.544  10.779 -0.1423 -0.0214 -0.8385
12416SOL    HW139255   2.506  10.590  10.834  1.5784  0.7378  0.6734
12416SOL    HW239256   2.656  10.574  10.813  1.0387 -0.0576 -3.5166
12417SOL     OW39257   7.414   0.576   0.625 -0.0988 -0.6659  0.0220
12417SOL    HW139258   7.341   0.577   0.686 -0.8998 -1.6397 -0.8981
12417SOL    HW239259   7.446   0.666   0.625 -0.3307 -0.5551  1.5547
12418SOL     OW39260   4.860   5.689   8.478  0.0925 -0.9512 -0.2707
12418SOL    HW139261   4.796   5.756   8.502  0.5148  0.4441 -2.6798
12418SOL    HW239262   4.942   5.737   8.468  0.2379 -1.5759 -2.8115
12419SOL     OW39263   5.695  10.896   9.847  0.3479 -0.3145  0.3083
12419SOL    HW139264   5.724  10.934   9.930  0.1115  1.5066 -0.3893
12419SOL    HW239265   5.695  10.970   9.786 -2.1026 -1.0146 -0.6616
12420SOL     OW39266   5.368   3.252   5.201  0.2305  0.3861 -0.3195
12420SOL    HW139267   5.374   3.166   5.242  0.6651  1.0900  1.1418
12420SOL    HW239268   5.446   3.298   5.230  0.4092  1.0141 -1.7445
12421SOL     OW39269   6.792   5.480   9.993  0.6342 -0.4085  0.2378
12421SOL    HW139270   6.724   5.542   9.967 -0.9070 -2.2942 -0.5228
12421SOL    HW239271   6.743   5.403  10.022  2.4636 -1.6462  0.1926
12422SOL     OW39272   7.444   8.672   0.817  0.6678 -0.0107 -0.2954
12422SOL    HW139273   7.394   8.751   0.836  0.1367 -0.4757  0.2545
12422SOL    HW239274   7.440   8.663   0.721  0.3926  0.4008 -0.3214
12423SOL     OW39275   0.719   6.389  10.046  0.3432 -0.0304  0.1193
12423SOL    HW139276   0.807   6.362  10.073  0.2606 -0.7069 -0.2708
12423SOL    HW239277   0.709   6.352   9.958 -0.3737 -0.0559  0.2083
12424SOL     OW39278   7.150   2.524   8.024  0.0943 -0.4685 -0.4659
12424SOL    HW139279   7.128   2.595   8.084 -1.7594 -1.2238 -0.1879
12424SOL    HW239280   7.177   2.452   8.081  1.7485 -0.1130 -0.7362
12425SOL     OW39281   9.371   4.533   7.311  0.7811  0.4553  1.0409
12425SOL    HW139282   9.402   4.461   7.256  1.5491  0.2158  1.7702
12425SOL    HW239283   9.285   4.503   7.341  0.2905  0.6518 -0.1221
12426SOL     OW39284   2.579   3.000   5.812  0.0348  0.5330  0.3023
12426SOL    HW139285   2.537   3.023   5.729  0.1893  2.1645  0.6469
12426SOL    HW239286   2.642   3.071   5.828  1.5123 -0.8262  0.7825
12427SOL     OW39287   1.178   4.399   7.549 -0.3143  0.0012  0.0095
12427SOL    HW139288   1.200   4.308   7.569  1.4867 -0.2911 -2.7944
12427SOL    HW239289   1.103   4.418   7.606 -1.6599 -3.6492 -0.2367
12428SOL     OW39290   0.629  10.325   2.118  0.9337  0.1062 -0.1513
12428SOL    HW139291   0.588  10.345   2.033 -0.5138 -1.6219  0.0972
12428SOL    HW239292   0.718  10.298   2.095  1.6412  2.6445 -0.8073
12429SOL     OW39293   9.945   6.424   6.648  0.2169  0.3771 -0.2964
12429SOL    HW139294   9.861   6.433   6.693  0.8559  0.8860  0.8503
12429SOL    HW239295   9.923   6.428   6.555 -1.2046 -1.2095 -0.0775
12430SOL     OW39296   0.362  11.031   9.042  0.1799 -0.7448  0.6076
12430SOL    HW139297   0.367  11.046   9.137 -2.0650  1.5362  0.4746
12430SOL    HW239298   0.269  11.026   9.023  0.5276  0.1690 -1.6381
12431SOL     OW39299   1.682   9.682   1.018 -0.3080  0.9086 -0.3938
12431SOL    HW139300   1.654   9.665   0.928  0.5769  0.4144 -0.5870
12431SOL    HW239301   1.749   9.750   1.010 -0.2689  0.9088 -0.0966
12432SOL     OW39302   5.497   5.478   2.397  0.3018  0.1455  0.1339
12432SOL    HW139303   5.481   5.560   2.350  0.2764  0.1770  0.1961
12432SOL    HW239304   5.528   5.417   2.330  0.2765  0.1928  0.0789
12433SOL     OW39305   4.145   0.803   1.545 -0.4815 -0.0003  0.5459
12433SOL    HW139306   4.172   0.807   1.453 -1.5453  1.3185  0.2667
12433SOL    HW239307   4.200   0.867   1.589  1.3133 -1.8797  1.2430
12434SOL     OW39308   7.716   8.968   0.483  0.8126 -0.2407  0.2989
12434SOL    HW139309   7.708   8.921   0.401  0.9449  0.4396 -0.1155
12434SOL    HW239310   7.810   8.981   0.495  0.9163 -1.7038  1.3716
12435SOL     OW39311   0.466   5.965   7.819 -0.1514 -0.4438 -0.0615
12435SOL    HW139312   0.384   5.936   7.779 -0.2445 -1.2171  0.6737
12435SOL    HW239313   0.489   6.045   7.770 -0.8699 -0.7071 -0.8606
12436SOL     OW39314   0.276   9.522   5.582  0.4557  0.0439 -0.4430
12436SOL    HW139315   0.301   9.613   5.599  0.4745 -0.2048  0.9737
12436SOL    HW239316   0.188   9.514   5.619  0.5335 -0.5696 -0.3731
12437SOL     OW39317   4.437   6.503   1.007 -0.5275  0.0151  0.4004
12437SOL    HW139318   4.455   6.513   0.913 -2.2032  0.6293  0.1127
12437SOL    HW239319   4.405   6.589   1.034  1.8796  0.4926  2.0482
12438SOL     OW39320   2.165   0.739   1.817  0.1435  0.3202 -0.2677
12438SOL    HW139321   2.223   0.761   1.890  1.1212 -1.9608 -0.2982
12438SOL    HW239322   2.179   0.646   1.801 -2.2807  0.0633 -1.4270
12439SOL     OW39323   3.200   2.982   4.336  0.3126 -0.2014 -0.2976
12439SOL    HW139324   3.115   2.938   4.332  0.5505 -0.6900 -0.0671
12439SOL    HW239325   3.262   2.912   4.356  0.4300  0.5214  2.2120
12440SOL     OW39326   7.633   2.636   9.527  0.2547 -0.7370  0.5849
12440SOL    HW139327   7.568   2.671   9.588 -0.3707 -2.6650  1.0927
12440SOL    HW239328   7.674   2.563   9.574  1.5067 -0.7214 -0.4141
12441SOL     OW39329   0.566   8.406   8.290  0.8010 -0.0388  0.3462
12441SOL    HW139330   0.548   8.414   8.196 -1.9688 -1.3002  0.6621
12441SOL    HW239331   0.594   8.316   8.301 -0.4518 -0.3739  0.9041
12442SOL     OW39332   6.500   2.625   1.513  0.0541  0.3662 -0.4697
12442SOL    HW139333   6.518   2.536   1.542  0.3549 -0.0083 -1.7332
12442SOL    HW239334   6.406   2.626   1.493 -0.6330  1.1994  2.3194
12443SOL     OW39335   7.406  10.412   7.884 -0.1688 -0.0646 -0.3582
12443SOL    HW139336   7.416  10.488   7.826  1.5402  2.4623  2.8739
12443SOL    HW239337   7.330  10.433   7.939 -0.3969 -1.2875 -0.1709
12444SOL     OW39338   4.777   9.630   8.509  0.1165  0.0719 -0.4682
12444SOL    HW139339   4.782   9.569   8.582  1.9218  0.6252 -0.0714
12444SOL    HW239340   4.761   9.575   8.433 -4.2445 -0.3512  0.4892
12445SOL     OW39341   7.040   6.429   3.908 -0.2795 -0.3939 -0.5610
12445SOL    HW139342   7.056   6.423   3.814  1.4468  0.0007 -0.3242
12445SOL    HW239343   7.064   6.342   3.942  1.1941  0.1079 -0.2415
12446SOL     OW39344  10.062   3.213   9.882 -0.3873 -0.0040  0.0530
12446SOL    HW139345  10.006   3.167   9.820 -0.7108  1.6847 -0.9782
12446SOL    HW239346  10.150   3.181   9.864 -0.4099  0.7715 -1.6365
12447SOL     OW39347   2.228   3.563   2.297  0.8963 -0.3516 -0.3012
12447SOL    HW139348   2.169   3.504   2.250 -0.3280  0.2578  0.4294
12447SOL    HW239349   2.176   3.641   2.314  0.9957 -0.8124  2.6703
12448SOL     OW39350   2.065   4.813   0.273 -0.1939 -0.2239 -0.2493
12448SOL    HW139351   2.033   4.773   0.192 -0.3641  1.0895 -0.8609
12448SOL    HW239352   2.002   4.884   0.291  0.2134 -0.0821  0.6717
12449SOL     OW39353   6.050   1.143   3.822 -0.2405 -0.1890  0.0439
12449SOL    HW139354   6.103   1.205   3.772  0.5459 -0.7713  0.1507
12449SOL    HW239355   6.107   1.068   3.838 -1.6539 -1.7237 -1.5406
12450SOL     OW39356   8.863   6.166   6.310 -0.5070 -0.3157  0.7304
12450SOL    HW139357   8.822   6.195   6.228 -1.1222 -0.1221  1.0945
12450SOL    HW239358   8.790   6.130   6.361 -0.3682  0.7513  1.7132
12451SOL     OW39359   4.023   6.623   9.987 -0.4750  0.0913  0.7300
12451SOL    HW139360   4.111   6.585   9.996 -0.9662 -1.4924 -0.7602
12451SOL    HW239361   3.971   6.579  10.055  0.1480  2.1335  2.6594
12452SOL     OW39362   4.756  10.555   7.638 -0.0245 -0.2183  0.2980
12452SOL    HW139363   4.721  10.578   7.552 -0.2037  0.3407  0.5193
12452SOL    HW239364   4.738  10.461   7.647  0.5153 -0.4091 -0.5128
12453SOL     OW39365   6.170   7.790   5.108 -0.2281 -0.2464  0.3060
12453SOL    HW139366   6.189   7.752   5.194  1.3151  0.3228  0.2439
12453SOL    HW239367   6.201   7.724   5.045 -0.6228 -0.3199  0.1868
12454SOL     OW39368   9.043   3.729   3.185 -0.3594  0.3587 -0.5211
12454SOL    HW139369   8.994   3.718   3.266  2.9757  0.9561  1.7864
12454SOL    HW239370   9.073   3.641   3.163  1.3535  0.5527  0.8091
12455SOL     OW39371   1.209   6.538   6.570 -0.3306 -0.3897 -0.2933
12455SOL    HW139372   1.269   6.532   6.495  0.3061  0.4881  0.1297
12455SOL    HW239373   1.194   6.632   6.581 -0.8651 -0.5454  0.3356
12456SOL     OW39374   7.823   0.935   5.413 -0.0215  0.0636 -0.4285
12456SOL    HW139375   7.808   0.958   5.322 -1.5221 -2.5081 -0.9319
12456SOL    HW239376   7.736   0.926   5.451  0.5523  0.0949  0.9835
12457SOL     OW39377   0.605   0.972   8.910 -0.8554  0.1222 -0.0925
12457SOL    HW139378   0.527   0.923   8.887 -0.2674 -0.7966 -0.1847
12457SOL    HW239379   0.577   1.063   8.910 -1.9587 -0.2008  0.0335
12458SOL     OW39380   8.589   5.913  10.550  0.1804 -0.0868 -0.0752
12458SOL    HW139381   8.523   5.890  10.484 -2.2048  1.6054  1.5779
12458SOL    HW239382   8.669   5.868  10.520 -1.1564 -0.6410 -3.2324
12459SOL     OW39383   0.027   3.206   6.071  0.5296 -0.2037  0.4299
12459SOL    HW139384   0.023   3.208   6.167  0.9749 -1.4604  0.4856
12459SOL    HW239385   0.110   3.163   6.051  0.5964  0.3375 -0.5344
12460SOL     OW39386  10.791   0.410   2.049  0.5635  0.6823  0.5654
12460SOL    HW139387  10.695   0.415   2.046  0.4611 -1.0341  0.1658
12460SOL    HW239388  10.817   0.403   1.957  1.2632  3.3299  0.4940
12461SOL     OW39389   1.300   8.119   6.135  0.8037 -0.0889  0.1914
12461SOL    HW139390   1.383   8.133   6.180  0.4285  1.4407  0.4822
12461SOL    HW239391   1.324   8.077   6.052  2.0435  1.6105 -0.3665
12462SOL     OW39392   7.060   1.173   4.839 -0.3667  0.1346 -0.7967
12462SOL    HW139393   6.976   1.139   4.806 -1.4931  2.1651 -0.2335
12462SOL    HW239394   7.107   1.200   4.760  0.1279 -1.6965 -1.1722
12463SOL     OW39395   3.159   4.743   9.001  0.2294 -0.0098 -0.5797
12463SOL    HW139396   3.120   4.660   8.975  0.3818 -0.5702  0.8900
12463SOL    HW239397   3.252   4.734   8.981 -0.1139  0.8350 -2.8617
12464SOL     OW39398   6.027   6.491   9.446  0.2815  0.0908  0.0421
12464SOL    HW139399   5.993   6.572   9.409  0.0069 -0.0757 -0.0773
12464SOL    HW239400   5.953   6.431   9.443  0.3332 -0.0058  0.6103
12465SOL     OW39401   2.349   4.671   6.788 -0.0503  0.0437 -0.1944
12465SOL    HW139402   2.350   4.743   6.726 -1.3056  0.8575  0.6861
12465SOL    HW239403   2.402   4.701   6.862  0.4540 -0.4399 -0.3536
12466SOL     OW39404   9.593   9.316   3.701  0.3245 -0.2270  0.0957
12466SOL    HW139405   9.532   9.244   3.719 -0.2773  0.4484  0.8421
12466SOL    HW239406   9.588   9.329   3.607 -2.0150  0.9473  0.3274
12467SOL     OW39407   0.358   2.470   7.785 -0.4902  0.3200 -0.9465
12467SOL    HW139408   0.369   2.457   7.691 -1.1290  0.9401 -1.1097
12467SOL    HW239409   0.419   2.540   7.807  0.9330 -0.9794 -0.5650
12468SOL     OW39410   4.660   4.240   7.725  0.0696  0.3579  0.3746
12468SOL    HW139411   4.618   4.185   7.790 -1.8762  0.0665 -1.0221
12468SOL    HW239412   4.717   4.181   7.676 -1.1074 -0.2250 -0.3558
12469SOL     OW39413  11.003   4.355   2.125  0.3137  0.1267  0.0358
12469SOL    HW139414  10.951   4.342   2.204 -1.0732  0.2452 -0.8314
12469SOL    HW239415  11.094   4.358   2.156 -0.0149 -2.0162  1.3646
12470SOL     OW39416   1.493   9.605   8.239 -0.5486  0.2397  0.2894
12470SOL    HW139417   1.493   9.700   8.227 -0.2222  0.2145  0.0678
12470SOL    HW239418   1.443   9.591   8.319  1.1699  0.7763  1.5317
12471SOL     OW39419   2.442   0.990   5.501 -0.0951 -0.0107  0.1516
12471SOL    HW139420   2.455   0.967   5.409  0.6503  1.1486 -0.0568
12471SOL    HW239421   2.383   1.066   5.498  0.5496  0.5159  0.5786
12472SOL     OW39422   9.653   7.168   5.046 -0.1301  0.1337  0.7846
12472SOL    HW139423   9.718   7.238   5.042  0.0092 -0.0312 -0.4477
12472SOL    HW239424   9.570   7.213   5.057  0.0261  0.4590  0.6589
12473SOL     OW39425   1.229   3.528   5.333 -0.3183 -0.4865 -0.4588
12473SOL    HW139426   1.315   3.524   5.375 -0.1200  0.7416 -0.7372
12473SOL    HW239427   1.168   3.511   5.405 -0.0039  1.9514  0.4844
12474SOL     OW39428   0.603  10.939   8.764  0.1449  0.8010 -0.3370
12474SOL    HW139429   0.555  10.873   8.815  0.3128  0.4758 -0.5941
12474SOL    HW239430   0.599  11.018   8.817  2.7887 -0.2174  1.6581
12475SOL     OW39431   5.947   0.492   3.877 -0.3865  0.5229 -0.0833
12475SOL    HW139432   6.006   0.566   3.862 -0.0050 -0.1541 -2.2010
12475SOL    HW239433   5.968   0.462   3.965  2.7058  0.1034 -0.8547
12476SOL     OW39434   4.789   1.831   0.793  0.5818  0.3150  0.1120
12476SOL    HW139435   4.761   1.824   0.884 -0.6478  0.0054 -0.2695
12476SOL    HW239436   4.849   1.906   0.792  0.7621  0.1993  1.1990
12477SOL     OW39437   8.645   1.808  10.393  0.2521  0.2697 -0.2425
12477SOL    HW139438   8.590   1.745  10.346  2.7321 -1.2989 -1.2560
12477SOL    HW239439   8.650   1.773  10.482  2.9876 -2.1274 -1.1942
12478SOL     OW39440   0.680   2.182   1.245  0.0258  0.0696  0.1074
12478SOL    HW139441   0.750   2.243   1.223  0.8760  0.0126  2.4595
12478SOL    HW239442   0.621   2.232   1.301 -1.5825 -0.0524 -1.3897
12479SOL     OW39443  10.352   8.523   2.506  0.3103 -0.0568 -0.1808
12479SOL    HW139444  10.339   8.439   2.550 -1.9594  0.0957 -0.4340
12479SOL    HW239445  10.320   8.510   2.417 -0.7568  1.2339 -0.0262
12480SOL     OW39446   8.592   8.598   4.921 -0.3744 -0.1045 -1.2211
12480SOL    HW139447   8.506   8.558   4.911 -0.2533 -0.5489 -0.5019
12480SOL    HW239448   8.638   8.576   4.840 -0.3578 -1.3216 -0.9006
12481SOL     OW39449   2.701   2.605   7.735  0.4897  0.1988 -0.5053
12481SOL    HW139450   2.670   2.515   7.728 -1.9785  0.8662  0.7962
12481SOL    HW239451   2.737   2.610   7.823 -1.4581  1.0100  0.2919
12482SOL     OW39452  10.015   9.759   9.944  0.1573  0.0128 -0.4283
12482SOL    HW139453   9.920   9.760   9.956  0.2129 -2.5953  0.9510
12482SOL    HW239454  10.050   9.722  10.025  2.3109  0.2122 -1.1860
12483SOL     OW39455   7.429   8.009   9.030 -0.0708  0.2469  0.1504
12483SOL    HW139456   7.375   7.931   9.046  1.2708 -1.0784 -1.3677
12483SOL    HW239457   7.429   8.056   9.113  0.8952 -2.5610  1.8908
12484SOL     OW39458  10.057   3.867   8.571  0.4528  0.1304 -0.1045
12484SOL    HW139459  10.014   3.952   8.577  0.6790  0.2106  0.4678
12484SOL    HW239460   9.996   3.807   8.614  0.9501  0.2654  0.8236
12485SOL     OW39461   7.758   3.683   6.225  0.4810  0.0739  0.1970
12485SOL    HW139462   7.700   3.681   6.301 -1.7979  0.5709 -1.4315
12485SOL    HW239463   7.717   3.623   6.163  1.3994  0.8921 -1.2371
12486SOL     OW39464   8.708   0.590   5.662  0.1312 -0.3242  0.2940
12486SOL    HW139465   8.723   0.556   5.751  0.1340  0.5741  0.6535
12486SOL    HW239466   8.629   0.644   5.671 -0.3683 -0.9161 -0.4484
12487SOL     OW39467   1.052   6.654  10.927  0.4429  0.1723 -0.3127
12487SOL    HW139468   1.050   6.570  10.973 -0.6587  0.5439  0.3530
12487SOL    HW239469   1.090   6.634  10.842  0.2393 -0.9941 -0.1430
12488SOL     OW39470   0.648   5.687   1.959  0.0252 -0.1411 -0.8861
12488SOL    HW139471   0.638   5.715   1.868 -2.5939  0.1602 -0.5735
12488SOL    HW239472   0.669   5.594   1.953 -1.2794 -0.4083 -1.8106
12489SOL     OW39473   5.802   4.791   9.136 -0.4063 -0.0369  0.2562
12489SOL    HW139474   5.859   4.740   9.078  0.6958  0.7305  0.6287
12489SOL    HW239475   5.729   4.818   9.081  0.2111 -0.0121 -0.5591
12490SOL     OW39476   8.318   6.953   3.880  0.6263 -0.2970  0.1830
12490SOL    HW139477   8.249   6.887   3.890  0.1125  0.0938 -0.6805
12490SOL    HW239478   8.312   7.006   3.960  0.5635 -0.8349  0.5466
12491SOL     OW39479   3.187   4.368  10.477  0.4028 -0.0157 -0.0952
12491SOL    HW139480   3.242   4.327  10.544  0.1565  0.3214  0.3182
12491SOL    HW239481   3.099   4.366  10.514  0.3926  0.9267 -0.0478
12492SOL     OW39482   7.128   0.908   9.868  0.2797  0.2707  0.3645
12492SOL    HW139483   7.207   0.903   9.815  0.9911 -0.1854  1.4158
12492SOL    HW239484   7.074   0.974   9.826  0.9781  0.1901 -0.6918
12493SOL     OW39485   1.633   0.335   6.783 -0.6623  0.7609  0.0312
12493SOL    HW139486   1.547   0.319   6.823 -0.8936 -2.6797 -1.4726
12493SOL    HW239487   1.620   0.316   6.690  2.1753 -2.8877  0.1233
12494SOL     OW39488   2.850   2.786   6.505  0.1081 -0.4194 -0.7957
12494SOL    HW139489   2.838   2.750   6.417 -0.4538 -0.2674 -0.7832
12494SOL    HW239490   2.766   2.773   6.548 -0.1658  1.0342 -0.8455
12495SOL     OW39491  10.491   6.024   4.318 -0.5378 -0.3335 -0.2124
12495SOL    HW139492  10.569   5.970   4.304  0.2359  1.0574 -1.5289
12495SOL    HW239493  10.440   5.976   4.383  0.4471 -2.2836 -0.8114
12496SOL     OW39494   7.989   8.870   0.803  0.1488  0.1357  0.5107
12496SOL    HW139495   8.050   8.803   0.774  0.2964  0.8623 -0.9191
12496SOL    HW239496   7.928   8.823   0.860 -0.9526 -1.6727 -1.9708
12497SOL     OW39497   9.429   4.001   7.429  0.1966  0.4053  0.1649
12497SOL    HW139498   9.442   4.016   7.522 -1.2537 -0.6777  0.5645
12497SOL    HW239499   9.352   3.945   7.423 -0.0337  0.8333 -1.7141
12498SOL     OW39500  10.547   7.217  10.850 -0.1118  0.0762 -0.5383
12498SOL    HW139501  10.547   7.307  10.883  2.0094  0.0632 -0.3870
12498SOL    HW239502  10.455   7.197  10.837 -0.6410  2.3030 -0.6602
12499SOL     OW39503   9.460  10.378  10.811 -0.4992 -0.6806 -0.2378
12499SOL    HW139504   9.546  10.342  10.831 -0.2867 -0.6077 -0.9632
12499SOL    HW239505   9.470  10.473  10.825 -1.0196 -0.8632  1.5405
12500SOL     OW39506   7.999   7.262   9.117 -0.1183 -0.8771  0.2801
12500SOL    HW139507   8.004   7.288   9.025 -1.7771  1.4956  0.7676
12500SOL    HW239508   7.919   7.210   9.123 -0.4042 -0.4186  0.4926
12501SOL     OW39509   6.287  10.306   0.082 -0.4835 -0.2764  0.4218
12501SOL    HW139510   6.208  10.325   0.030 -0.8387 -1.0318  0.6719
12501SOL    HW239511   6.353  10.365   0.047 -0.2713 -1.7859 -1.9540
12502SOL     OW39512   4.969   1.073   0.690 -0.2567  0.3631 -0.2161
12502SOL    HW139513   4.981   1.162   0.656 -2.0646  0.5633 -0.3913
12502SOL    HW239514   5.028   1.019   0.637  1.5178  1.5361  0.4555
12503SOL     OW39515   5.184   1.106   6.853  0.1766 -0.5157 -0.3618
12503SOL    HW139516   5.105   1.092   6.906  0.0777 -0.2996 -0.4512
12503SOL    HW239517   5.208   1.019   6.821  2.4609 -1.4069  3.1531
12504SOL     OW39518   6.488  10.920  10.016  0.2888 -0.4130 -0.0815
12504SOL    HW139519   6.433  10.850   9.982 -2.6372  0.3906  2.5208
12504SOL    HW239520   6.475  10.992   9.954 -0.5644 -0.6725 -0.2247
12505SOL     OW39521   5.242   3.343   7.383  0.0745 -0.3610 -0.2087
12505SOL    HW139522   5.206   3.413   7.439  2.4174  0.4935  0.3658
12505SOL    HW239523   5.265   3.388   7.302 -0.1270 -0.8856 -0.5565
12506SOL     OW39524  10.348   4.414   5.163  0.6269 -0.1203 -0.0237
12506SOL    HW139525  10.276   4.417   5.100  0.7711 -0.1187 -0.1894
12506SOL    HW239526  10.382   4.324   5.157  2.1431  0.5049 -1.6508
12507SOL     OW39527   4.596   4.227   2.463  0.5803 -0.2788  0.0948
12507SOL    HW139528   4.566   4.277   2.539  2.2677 -1.0221  1.3083
12507SOL    HW239529   4.530   4.158   2.452 -0.3349  0.5771  0.0794
12508SOL     OW39530   0.288   5.543   1.060  0.1253 -0.3778 -0.0407
12508SOL    HW139531   0.291   5.556   0.966  0.1973 -0.1729 -0.0114
12508SOL    HW239532   0.204   5.579   1.088 -1.1494 -2.8442 -0.3732
12509SOL     OW39533   2.578   3.350   1.758 -0.0680  0.5158  0.2877
12509SOL    HW139534   2.552   3.316   1.672  1.1770 -0.5318  0.2970
12509SOL    HW239535   2.673   3.348   1.757  0.0302  2.4657  0.9452
12510SOL     OW39536   9.389   8.745   9.562  0.1161  0.4228 -0.2291
12510SOL    HW139537   9.413   8.798   9.485  2.6347  0.5194  0.5457
12510SOL    HW239538   9.385   8.655   9.528  2.7407  0.2465 -0.2729
12511SOL     OW39539   6.844   4.840   8.130 -0.0347  0.4255  0.2549
12511SOL    HW139540   6.837   4.786   8.209 -0.9076  1.3204  0.8185
12511SOL    HW239541   6.799   4.921   8.154  2.8271  2.1651  0.0833
12512SOL     OW39542   3.003   4.969   2.868  0.6133  0.0813  0.6476
12512SOL    HW139543   3.017   4.887   2.821  0.4582 -0.0398  0.8111
12512SOL    HW239544   3.033   5.037   2.807 -0.5907  0.0111 -0.0684
12513SOL     OW39545   1.154   6.900   6.307 -0.2313 -0.4703  0.1424
12513SOL    HW139546   1.217   6.875   6.375 -1.0312 -0.1744  1.0160
12513SOL    HW239547   1.091   6.828   6.306 -0.3948 -0.3245 -0.0693
12514SOL     OW39548   8.936   1.969  10.018 -0.0436 -0.1364 -0.1389
12514SOL    HW139549   8.869   1.905  10.043 -0.2041 -0.6054 -1.6439
12514SOL    HW239550   9.007   1.916   9.982 -0.3911  0.5028 -1.8807
12515SOL     OW39551   0.259   4.714   0.593  0.2524 -0.5016 -0.5754
12515SOL    HW139552   0.165   4.709   0.609  0.2204 -0.6286 -0.8118
12515SOL    HW239553   0.298   4.721   0.681  0.1276 -1.9754 -0.3836
12516SOL     OW39554   9.959   0.399  10.089 -0.2102  0.1375 -0.1430
12516SOL    HW139555  10.032   0.341  10.108  0.1491  0.2432 -1.1455
12516SOL    HW239556   9.887   0.341  10.065  0.3049  0.0980 -1.6741
12517SOL     OW39557  10.294   7.697   5.223 -0.1807 -0.2006  0.3668
12517SOL    HW139558  10.258   7.759   5.287  1.7168  0.1111  1.2250
12517SOL    HW239559  10.233   7.700   5.149 -0.9871  1.5053  1.0391
12518SOL     OW39560   0.417   3.112   6.337  0.0175 -0.4442 -0.2811
12518SOL    HW139561   0.469   3.185   6.370 -2.1349 -0.0027  2.5958
12518SOL    HW239562   0.466   3.034   6.362  0.2611 -0.0145  0.6375
12519SOL     OW39563   3.925   4.056   9.819  0.5195  0.0933  0.5893
12519SOL    HW139564   3.879   4.102   9.889 -1.0178 -0.2819 -0.1242
12519SOL    HW239565   3.926   4.117   9.746 -0.7666 -0.6448 -0.0838
12520SOL     OW39566   9.230   9.277  10.258  0.0213 -0.1903  0.3589
12520SOL    HW139567   9.223   9.246  10.167 -2.2445  1.9809 -0.3181
12520SOL    HW239568   9.242   9.197  10.309  0.1730 -1.5955 -1.7379
12521SOL     OW39569   1.390   5.281   8.174 -0.3276 -0.0652 -0.0782
12521SOL    HW139570   1.480   5.275   8.206  0.3975 -2.9413 -2.1945
12521SOL    HW239571   1.348   5.201   8.206 -0.2827 -1.7654 -3.6767
12522SOL     OW39572   7.234   2.646   1.232 -0.2105 -0.1884 -0.3140
12522SOL    HW139573   7.190   2.563   1.213 -0.8362  0.2909 -1.0177
12522SOL    HW239574   7.328   2.625   1.226 -0.3604 -0.7964 -0.6965
12523SOL     OW39575   7.321  10.521   3.478 -0.3857 -0.0665  0.3764
12523SOL    HW139576   7.290  10.453   3.419  3.3992 -1.8273  0.1363
12523SOL    HW239577   7.397  10.559   3.433  0.5195  0.9506  2.6219
12524SOL     OW39578   1.010   5.395  10.436  0.2616 -0.5373 -0.0574
12524SOL    HW139579   0.925   5.396  10.391 -0.8003  0.7858  1.8370
12524SOL    HW239580   1.034   5.302  10.438  0.8866 -0.6416 -4.0678
12525SOL     OW39581   3.057   3.675   0.957  0.5770  0.2668 -0.4837
12525SOL    HW139582   3.056   3.690   1.052  0.5717 -2.2117 -0.0046
12525SOL    HW239583   3.147   3.645   0.939  0.3491 -0.0660 -1.0972
12526SOL     OW39584   5.546   1.134   8.640 -0.6978 -0.4423 -0.3399
12526SOL    HW139585   5.630   1.097   8.666 -0.3236  0.2571 -0.5234
12526SOL    HW239586   5.508   1.069   8.581  0.0942 -0.3964 -0.9090
12527SOL     OW39587   9.306   5.895  10.721 -0.3110  0.3804  0.2191
12527SOL    HW139588   9.275   5.852  10.800 -0.8914 -0.0271 -0.2162
12527SOL    HW239589   9.327   5.984  10.748  1.7122 -0.3627  1.3273
12528SOL     OW39590   1.048   1.935   5.929  0.1420  0.2735  0.0654
12528SOL    HW139591   0.953   1.927   5.932  0.2232 -0.5719  1.1793
12528SOL    HW239592   1.063   2.027   5.905 -0.9344  0.2189 -0.8998
12529SOL     OW39593   1.773   7.665   6.494  0.8948  0.1965  0.6416
12529SOL    HW139594   1.739   7.587   6.537  1.1539  0.0096  0.5116
12529SOL    HW239595   1.710   7.684   6.425  1.3398 -0.4768  0.0376
12530SOL     OW39596   5.283   6.679   2.337 -0.7010 -0.2694 -0.6687
12530SOL    HW139597   5.298   6.765   2.297 -2.4196  0.1842 -0.4008
12530SOL    HW239598   5.351   6.672   2.404  0.9142 -0.1524 -2.2173
12531SOL     OW39599  10.517   0.556   5.564  0.8974 -0.0634  0.5599
12531SOL    HW139600  10.436   0.599   5.589  0.6207  0.6924 -1.4637
12531SOL    HW239601  10.535   0.496   5.636 -1.2679 -0.0035  1.2261
12532SOL     OW39602   5.816   9.625   6.006 -0.2168 -0.1242 -0.6167
12532SOL    HW139603   5.726   9.620   6.037  0.1466  0.6156  0.6231
12532SOL    HW239604   5.863   9.671   6.075  1.0910 -0.3641 -1.3082
12533SOL     OW39605   6.439   9.614   2.526 -0.2862 -0.0818 -0.2110
12533SOL    HW139606   6.388   9.690   2.554  0.3763  0.2039  0.2376
12533SOL    HW239607   6.524   9.649   2.500  0.5487 -0.7918  1.3699
12534SOL     OW39608   0.943   2.006   6.282 -0.4338  0.0505  0.4749
12534SOL    HW139609   0.854   2.006   6.319 -0.4861  2.5437  0.5180
12534SOL    HW239610   0.960   2.098   6.261  0.8490 -0.7933 -2.7345
12535SOL     OW39611   7.216   7.180   1.674 -0.5429 -0.2207 -0.0814
12535SOL    HW139612   7.266   7.249   1.629 -1.3124  1.0108  0.8778
12535SOL    HW239613   7.133   7.176   1.626 -0.2446 -0.9831 -0.5530
12536SOL     OW39614   5.254  10.479   6.352 -0.1948 -0.7378  0.0080
12536SOL    HW139615   5.295  10.564   6.368 -1.8384 -0.1977  1.7006
12536SOL    HW239616   5.172  10.482   6.401 -1.7163 -2.2120 -2.2553
12537SOL     OW39617   4.266   2.013   5.212  0.2687 -0.1121  0.3326
12537SOL    HW139618   4.203   1.943   5.196 -0.5075  0.8717 -1.0761
12537SOL    HW239619   4.217   2.094   5.197  1.1364  0.7701  1.9670
12538SOL     OW39620   0.685   7.794   4.240  0.2524 -0.1054  0.6216
12538SOL    HW139621   0.766   7.769   4.284  0.3981 -0.7676 -0.0105
12538SOL    HW239622   0.616   7.770   4.302  0.5255  0.4689  1.1653
12539SOL     OW39623  10.139   2.367   5.985 -0.0460  0.2083  0.5868
12539SOL    HW139624  10.091   2.293   6.023 -2.0181  0.8393 -0.5133
12539SOL    HW239625  10.196   2.397   6.055 -0.2494 -1.4625  1.5181
12540SOL     OW39626   1.015  10.026   6.949 -0.3290 -0.1096  0.6248
12540SOL    HW139627   1.093   9.986   6.987 -1.4991 -1.3133  1.9104
12540SOL    HW239628   0.945  10.005   7.011 -1.6808  0.9153 -0.4869
12541SOL     OW39629   6.828   2.668   7.400 -0.0606  0.7460  0.1572
12541SOL    HW139630   6.795   2.632   7.482  2.8277 -1.9058  0.3148
12541SOL    HW239631   6.896   2.731   7.427  2.7528 -1.9973  0.0147
12542SOL     OW39632   2.000   2.450   3.386 -0.1056 -0.4181  0.4100
12542SOL    HW139633   2.034   2.389   3.451 -0.6780 -0.1892  0.9317
12542SOL    HW239634   2.023   2.537   3.419  0.1900 -0.3192 -0.0357
12543SOL     OW39635   3.097   8.810   6.702  0.3739  0.5218  0.4364
12543SOL    HW139636   3.025   8.834   6.644 -1.9088 -0.8931  2.5170
12543SOL    HW239637   3.164   8.774   6.643 -1.8073 -0.8407 -1.3634
12544SOL     OW39638   0.494   5.438   4.170  0.4151 -0.1322 -0.4286
12544SOL    HW139639   0.546   5.409   4.246  0.5975 -1.7883 -1.1396
12544SOL    HW239640   0.528   5.385   4.097 -1.9521 -0.9507 -1.0167
12545SOL     OW39641   9.330  10.946   6.294 -0.3612  0.2255  0.0171
12545SOL    HW139642   9.371  11.030   6.311 -1.1312  0.8181 -0.9592
12545SOL    HW239643   9.403  10.885   6.284  0.2319  0.9420 -0.1004
12546SOL     OW39644   0.848   8.205   7.504  0.0214  0.7428 -0.4895
12546SOL    HW139645   0.818   8.215   7.414  0.8246  1.4334 -0.6921
12546SOL    HW239646   0.810   8.280   7.550 -1.0002 -0.0113 -0.0748
12547SOL     OW39647   7.736   0.355   0.560 -0.0432  0.2822 -0.4633
12547SOL    HW139648   7.754   0.438   0.605  2.4214 -0.1137 -0.5548
12547SOL    HW239649   7.667   0.314   0.612 -3.0332  3.2743 -1.6779
12548SOL     OW39650   5.690   6.607   6.842  0.2234 -0.1063  0.2196
12548SOL    HW139651   5.729   6.688   6.809 -0.7527  0.7646  1.1516
12548SOL    HW239652   5.602   6.606   6.804  1.0836 -2.1681 -2.0503
12549SOL     OW39653   2.834   2.272   9.954  0.6380 -0.4565  0.0013
12549SOL    HW139654   2.805   2.350  10.000 -1.3482 -1.1920  0.0876
12549SOL    HW239655   2.807   2.285   9.863 -0.4084 -1.3456  0.1662
12550SOL     OW39656   8.894   1.448   3.685 -0.3041 -0.3843  0.4300
12550SOL    HW139657   8.867   1.512   3.751  1.1192  0.8167 -0.0950
12550SOL    HW239658   8.984   1.425   3.709  0.0937 -0.2298 -0.8403
12551SOL     OW39659   2.798   0.420   4.008  0.3431 -0.3048  0.3180
12551SOL    HW139660   2.718   0.462   4.040 -0.3402 -1.6906  0.5345
12551SOL    HW239661   2.772   0.376   3.927  1.3475  0.7222 -0.5904
12552SOL     OW39662   1.917   9.234   5.588 -0.3020  0.1387 -0.1101
12552SOL    HW139663   1.834   9.263   5.626  0.2598  0.5682  0.8182
12552SOL    HW239664   1.895   9.211   5.498 -1.5070 -0.1214  0.2263
12553SOL     OW39665  10.487   1.986  10.644  0.4100 -0.1081  0.2383
12553SOL    HW139666  10.455   1.900  10.614  0.5969  0.0709 -0.4979
12553SOL    HW239667  10.427   2.049  10.604  0.1605  0.1017  0.9292
12554SOL     OW39668   1.097   1.172  10.873  0.4212 -0.0702  0.0130
12554SOL    HW139669   1.104   1.190  10.779  2.2931 -0.6258  0.0049
12554SOL    HW239670   1.186   1.186  10.907  0.0548 -1.0510  1.4798
12555SOL     OW39671   7.683   0.361   6.961 -0.1209 -0.1009 -0.1177
12555SOL    HW139672   7.721   0.310   6.890  1.4672 -1.3434  1.5017
12555SOL    HW239673   7.662   0.296   7.029  1.1704  1.2383  1.6751
12556SOL     OW39674   7.655   7.813   2.680 -0.0202  0.0193 -0.4211
12556SOL    HW139675   7.663   7.754   2.606 -0.6650  0.3606 -0.7758
12556SOL    HW239676   7.734   7.799   2.731 -0.3355 -1.4319 -0.2835
12557SOL     OW39677   2.610   0.951   7.019 -0.2906  0.5330  0.7307
12557SOL    HW139678   2.526   0.922   6.984  0.3561 -2.0682  1.1331
12557SOL    HW239679   2.587   1.016   7.086 -1.9883 -0.1668  0.8809
12558SOL     OW39680   1.167   3.058   3.669 -0.2562  0.1098 -0.3097
12558SOL    HW139681   1.095   3.084   3.726  0.3840  0.5282  0.3224
12558SOL    HW239682   1.153   3.109   3.589  0.6544  2.0272  0.6918
12559SOL     OW39683   2.373   0.033   9.025  0.5611 -0.1479  0.1717
12559SOL    HW139684   2.365   0.009   9.117 -1.6493 -0.0015  0.0722
12559SOL    HW239685   2.312  -0.024   8.979  1.8457 -0.4339 -1.2815
12560SOL     OW39686   7.516   2.996   2.406  0.1993  0.2418 -0.1975
12560SOL    HW139687   7.459   3.059   2.449  0.6819  0.4335  0.1584
12560SOL    HW239688   7.563   3.047   2.340 -1.9067 -0.3738 -2.3313
12561SOL     OW39689   1.150   8.179   8.451 -0.5828  0.1480 -0.2705
12561SOL    HW139690   1.096   8.222   8.518  0.2161  1.0679 -0.1854
12561SOL    HW239691   1.190   8.105   8.497  0.3961  1.0953  0.4458
12562SOL     OW39692   5.945   3.084   0.178 -0.3113 -0.2723 -0.1295
12562SOL    HW139693   5.909   3.166   0.144  1.0554  0.1559 -0.6401
12562SOL    HW239694   5.898   3.070   0.261 -0.6623  0.9632 -0.0888
12563SOL     OW39695   7.417   0.651   9.399 -0.4103 -0.6473 -0.2091
12563SOL    HW139696   7.392   0.560   9.413 -1.0954 -1.0130 -3.0567
12563SOL    HW239697   7.510   0.647   9.375  0.1996 -0.2727  1.9099
12564SOL     OW39698   8.001  10.234   8.019 -0.5159 -0.3205  0.7492
12564SOL    HW139699   8.011  10.312   7.964 -0.9106 -0.5346  0.3783
12564SOL    HW239700   7.920  10.193   7.989  0.3541 -1.5935  0.0546
12565SOL     OW39701   3.793   8.925   5.809 -0.1774  0.7309  0.0035
12565SOL    HW139702   3.819   8.833   5.806 -0.3556  0.7051 -1.3177
12565SOL    HW239703   3.828   8.963   5.728 -2.2646  1.2218 -0.7280
12566SOL     OW39704   7.058   4.608   1.985  0.0370 -0.2455  0.1042
12566SOL    HW139705   7.072   4.703   1.983 -0.9409 -0.0979 -0.2636
12566SOL    HW239706   7.146   4.570   1.981  0.3747  0.6276 -1.5276
12567SOL     OW39707   5.884   2.342   4.538 -0.6506 -0.5437  0.3362
12567SOL    HW139708   5.814   2.304   4.485 -1.2319 -0.4994  1.0552
12567SOL    HW239709   5.848   2.426   4.567 -0.0159 -0.1955  0.1282
12568SOL     OW39710  10.548   3.498   0.892  0.5706  0.1559 -0.1050
12568SOL    HW139711  10.521   3.423   0.944  0.5483  0.6626  0.6288
12568SOL    HW239712  10.642   3.506   0.908  0.5006  0.5238  0.1447
12569SOL     OW39713   6.499   7.932   5.285  1.0290 -0.1956 -0.8142
12569SOL    HW139714   6.563   7.876   5.241  2.4438  1.0546 -0.3994
12569SOL    HW239715   6.550   7.986   5.345 -0.6759 -0.6972  1.1877
12570SOL     OW39716   6.427   0.149   8.633  0.9577  0.0587 -0.1173
12570SOL    HW139717   6.507   0.099   8.620  0.5432 -0.3290 -1.3156
12570SOL    HW239718   6.360   0.083   8.651  0.5688  0.2302 -0.8978
12571SOL     OW39719   8.130   0.825   1.547 -0.6166  0.8967  1.0069
12571SOL    HW139720   8.065   0.816   1.477 -0.6260  4.6344  0.3050
12571SOL    HW239721   8.209   0.858   1.502 -0.6420  3.4296  2.6038
12572SOL     OW39722   0.729   9.947   9.907 -0.1622  0.2197  0.2905
12572SOL    HW139723   0.640   9.940   9.873  0.7871  0.2939 -2.5070
12572SOL    HW239724   0.757  10.035   9.882  1.0402 -0.1828  0.1638
12573SOL     OW39725   4.813   3.739   0.980  0.5612  0.0158 -0.0949
12573SOL    HW139726   4.735   3.771   1.026  0.7906 -0.0431  0.3341
12573SOL    HW239727   4.860   3.818   0.954  0.1308  0.0661 -0.7612
12574SOL     OW39728   6.006   1.842   0.260  0.6565 -0.3224 -0.0211
12574SOL    HW139729   6.000   1.932   0.229 -1.0867 -1.3074 -3.0102
12574SOL    HW239730   6.078   1.804   0.208  0.5122 -0.9676  0.2419
12575SOL     OW39731   2.048   3.869   5.618 -0.3181 -0.2397 -0.1745
12575SOL    HW139732   2.126   3.824   5.585  0.6329  0.4592  1.0279
12575SOL    HW239733   2.082   3.937   5.676 -1.8013  0.6678 -0.3141
12576SOL     OW39734   4.823   7.217   2.270  0.1052  0.1571  0.3536
12576SOL    HW139735   4.826   7.195   2.177 -0.2195 -0.1147  0.4041
12576SOL    HW239736   4.817   7.312   2.272 -2.6607  0.0734  0.0061
12577SOL     OW39737   5.522   0.688   4.687 -0.0734  0.1693 -0.1960
12577SOL    HW139738   5.598   0.637   4.713  0.2752  0.0293 -1.4240
12577SOL    HW239739   5.491   0.647   4.606  0.0499  1.6984 -1.0640
12578SOL     OW39740   6.975   3.300  10.507 -0.0858  0.5870  0.3666
12578SOL    HW139741   6.985   3.206  10.496 -0.9749  0.7524 -2.6894
12578SOL    HW239742   7.041   3.323  10.572  1.8081 -1.8291 -0.5329
12579SOL     OW39743   8.134   3.981   8.977  0.3070  0.2122 -0.7086
12579SOL    HW139744   8.176   3.942   9.054 -0.0942 -1.1334 -1.1502
12579SOL    HW239745   8.051   4.014   9.009  0.4732  0.3508 -0.4106
12580SOL     OW39746   4.658   9.856   8.805 -0.6618 -0.2959  0.1451
12580SOL    HW139747   4.635   9.857   8.712 -0.2748  0.7871  0.0527
12580SOL    HW239748   4.591   9.909   8.848  1.5363  3.0391 -0.1511
12581SOL     OW39749   6.303   6.237   6.917  0.6553 -0.3854 -0.3310
12581SOL    HW139750   6.324   6.171   6.851 -0.6245  0.5307 -1.7388
12581SOL    HW239751   6.217   6.211   6.950  1.1313 -0.6393  0.7405
12582SOL     OW39752   6.578   0.984   2.104 -0.3782  0.1308 -0.3595
12582SOL    HW139753   6.516   1.056   2.110  0.4864  0.9377 -0.7483
12582SOL    HW239754   6.663   1.024   2.126  0.0939 -0.8029 -0.4326
12583SOL     OW39755  10.244   7.797   2.203 -0.4233  0.4460  0.0418
12583SOL    HW139756  10.338   7.793   2.188 -0.6609  0.8215 -1.7760
12583SOL    HW239757  10.225   7.719   2.255  0.4698 -1.4510 -2.2793
12584SOL     OW39758   5.220   2.772   4.154  0.1686 -0.3965 -0.2878
12584SOL    HW139759   5.217   2.738   4.244  1.1842  0.3130  0.0406
12584SOL    HW239760   5.148   2.729   4.109 -0.1188 -1.0568  0.7734
12585SOL     OW39761   7.331   9.049   0.704  0.0791 -0.2475 -0.0514
12585SOL    HW139762   7.300   8.987   0.769 -1.4731  0.4569 -0.0655
12585SOL    HW239763   7.272   9.037   0.629  0.6154  0.2943 -0.5749
12586SOL     OW39764   3.411   8.699   2.738 -0.0334  0.5135 -0.6471
12586SOL    HW139765   3.395   8.673   2.828 -1.4822  0.4259 -0.9045
12586SOL    HW239766   3.463   8.628   2.701 -0.2634  0.0844 -0.1531
12587SOL     OW39767   5.646   7.308   4.923 -0.1571 -0.2166 -0.1361
12587SOL    HW139768   5.597   7.373   4.973 -1.8388 -0.0303 -1.8924
12587SOL    HW239769   5.721   7.357   4.887  0.6575 -0.1883  1.5172
12588SOL     OW39770   9.908   6.314   4.178  0.4670  0.4151  0.1298
12588SOL    HW139771   9.938   6.324   4.269 -2.1450  2.9350  0.8751
12588SOL    HW239772   9.914   6.402   4.141  0.2194 -0.3109 -1.7206
12589SOL     OW39773   6.025   1.739   7.248 -0.2681  0.2133 -0.1394
12589SOL    HW139774   5.933   1.718   7.230 -1.0128  2.2497  0.9391
12589SOL    HW239775   6.042   1.818   7.196 -0.3002  1.9740  2.3233
12590SOL     OW39776   5.634   8.367   3.941 -0.4988 -0.2421 -0.2818
12590SOL    HW139777   5.674   8.343   3.857 -0.4549  1.0035 -0.6302
12590SOL    HW239778   5.666   8.455   3.959  0.0777 -0.7612  1.4255
12591SOL     OW39779   4.665   1.524   7.030  0.0974 -0.2462 -0.0951
12591SOL    HW139780   4.628   1.607   7.000  0.2263 -0.2150 -0.1701
12591SOL    HW239781   4.752   1.521   6.989 -0.0742 -0.6161 -0.4357
12592SOL     OW39782   3.935   5.737  10.317 -0.3851 -0.6848 -0.2151
12592SOL    HW139783   3.870   5.671  10.294  0.9262 -1.6645 -1.2801
12592SOL    HW239784   3.966   5.710  10.403 -1.8364  0.1799  0.6080
12593SOL     OW39785   2.765   4.592   3.889 -0.0010 -0.1923  0.1106
12593SOL    HW139786   2.698   4.542   3.844  1.0567 -2.0782  0.5170
12593SOL    HW239787   2.724   4.676   3.907 -2.1870 -1.2003  0.1946
12594SOL     OW39788   3.319   6.556   6.352  1.0841  0.7603 -0.0204
12594SOL    HW139789   3.413   6.537   6.346  0.8755 -0.5078  0.2846
12594SOL    HW239790   3.283   6.479   6.395 -0.1777  1.0060 -0.6052
12595SOL     OW39791   7.932  10.173   5.789 -0.4521 -0.4275  0.2797
12595SOL    HW139792   7.947  10.078   5.787  2.0603 -0.1023  0.2545
12595SOL    HW239793   7.867  10.185   5.858  0.4683 -2.0830  1.5308
12596SOL     OW39794   4.776   0.241   5.947 -0.1273  0.0961  0.3168
12596SOL    HW139795   4.851   0.200   5.992 -0.5188 -2.7824 -1.4032
12596SOL    HW239796   4.815   0.310   5.894  0.8057  0.9743  2.0417
12597SOL     OW39797   3.706   4.443   1.317 -0.2402  0.2781  0.3669
12597SOL    HW139798   3.706   4.535   1.292  0.6418 -0.2250 -1.7264
12597SOL    HW239799   3.785   4.432   1.370  1.0535  0.2876 -1.4571
12598SOL     OW39800   6.518   6.671   0.103  0.4659 -0.0523  0.9623
12598SOL    HW139801   6.575   6.721   0.045  0.3008  0.7085  1.4410
12598SOL    HW239802   6.567   6.591   0.122  0.5135 -0.3292 -0.2258
12599SOL     OW39803   8.288   0.252   0.790  0.3605 -0.1484 -0.1221
12599SOL    HW139804   8.264   0.341   0.816  0.2469 -0.6880  1.7428
12599SOL    HW239805   8.218   0.224   0.731 -1.5117 -0.2260  2.0206
12600SOL     OW39806   5.429   5.864   7.835 -0.2679 -0.6160  0.2973
12600SOL    HW139807   5.446   5.895   7.746  2.0214 -1.3509  0.4262
12600SOL    HW239808   5.514   5.833   7.867 -1.2775 -1.5010  2.3133
12601SOL     OW39809   0.746   4.228   7.774  0.4611  0.1827  0.4252
12601SOL    HW139810   0.798   4.177   7.836  0.2696  0.7925  1.0867
12601SOL    HW239811   0.656   4.217   7.803  0.3242  0.0762 -0.0346
12602SOL     OW39812   3.070   4.053   4.736  0.4409 -0.3322 -0.6581
12602SOL    HW139813   3.057   4.140   4.700  1.6791 -0.4358 -1.4106
12602SOL    HW239814   3.016   3.996   4.682  2.4446 -0.5188 -2.6074
12603SOL     OW39815   6.679   8.133   9.643 -0.1783 -0.2599  0.5775
12603SOL    HW139816   6.699   8.123   9.736  0.2038 -0.8073  0.4396
12603SOL    HW239817   6.753   8.094   9.598 -0.2977  0.1251  0.0389
12604SOL     OW39818   1.945   2.747   6.620  0.0585 -0.1712 -0.1330
12604SOL    HW139819   2.024   2.742   6.675  0.7643  1.0127 -0.9873
12604SOL    HW239820   1.975   2.787   6.539 -1.4433  0.3508 -0.4648
12605SOL     OW39821   0.065   7.058   3.460 -0.4361  0.0064  0.4127
12605SOL    HW139822   0.086   7.094   3.374  2.3298 -1.7828  0.2413
12605SOL    HW239823   0.013   6.980   3.442 -3.1534  1.6341  0.6354
12606SOL     OW39824   6.523  10.159   0.074  0.4757  0.0576 -0.1576
12606SOL    HW139825   6.519  10.073   0.117 -0.8902  0.7795  1.2404
12606SOL    HW239826   6.436  10.197   0.088  0.8956  1.4810 -1.1933
12607SOL     OW39827   6.331   3.463   7.119 -0.0823  0.1175  0.0486
12607SOL    HW139828   6.346   3.373   7.091 -0.4028 -0.8202  2.6272
12607SOL    HW239829   6.407   3.511   7.085 -0.6296 -0.7593 -2.6057
12608SOL     OW39830   5.237   5.864   9.836  0.8619 -0.3039  0.0912
12608SOL    HW139831   5.151   5.847   9.799  0.8794  1.4094 -0.8394
12608SOL    HW239832   5.295   5.801   9.794  0.1878 -1.0710  0.2845
12609SOL     OW39833   8.049   8.959   7.101 -0.0322  0.4402  0.8944
12609SOL    HW139834   8.013   8.871   7.110 -2.0028  0.7516 -2.3033
12609SOL    HW239835   8.115   8.965   7.170 -0.6524 -3.0655  2.0069
12610SOL     OW39836   7.623  10.377   3.030 -0.9244  0.6056 -0.5934
12610SOL    HW139837   7.683  10.365   2.957  1.2894 -1.0754  1.3636
12610SOL    HW239838   7.580  10.292   3.040 -2.2256  1.2155 -0.7231
12611SOL     OW39839   4.012   9.173   3.630  0.1237 -0.3778  0.4869
12611SOL    HW139840   3.926   9.204   3.604  0.4163 -0.3514 -0.4789
12611SOL    HW239841   4.012   9.179   3.726 -1.9314 -2.8981  0.7757
12612SOL     OW39842   0.696   6.793   1.749  0.2781 -0.5337 -0.2385
12612SOL    HW139843   0.740   6.778   1.666 -0.3935 -0.4477 -0.6154
12612SOL    HW239844   0.604   6.770   1.733  0.1034 -0.3323  0.4203
12613SOL     OW39845   9.957   5.798   3.436 -0.5654  0.3006  0.0860
12613SOL    HW139846   9.873   5.784   3.480 -0.4356 -0.9390 -0.0333
12613SOL    HW239847  10.017   5.820   3.506 -0.4539 -1.2517  0.5197
12614SOL     OW39848   0.672  10.489   2.326  0.1987  0.2719  0.4522
12614SOL    HW139849   0.662  10.431   2.250 -1.6780  2.8686 -1.4879
12614SOL    HW239850   0.751  10.458   2.370  2.7839 -0.0324 -3.8653
12615SOL     OW39851  10.609   2.563   5.583  0.3737 -0.4310  0.8311
12615SOL    HW139852  10.648   2.480   5.610 -0.6094 -1.6164 -1.1222
12615SOL    HW239853  10.673   2.601   5.523 -0.3912 -1.2484 -0.5564
12616SOL     OW39854   3.222  10.327   5.144 -0.5611 -0.7048 -0.3348
12616SOL    HW139855   3.225  10.378   5.063  0.8450  0.4244  0.3738
12616SOL    HW239856   3.278  10.376   5.205 -0.1812 -2.4333  0.7775
12617SOL     OW39857  11.029  10.115   4.006 -0.6350 -0.2543  0.1411
12617SOL    HW139858  11.001  10.094   4.096  0.2368 -0.1885  0.4402
12617SOL    HW239859  10.974  10.189   3.981  0.2187  0.7856  1.2451
12618SOL     OW39860   7.659   6.716   3.243 -0.0022  0.2927  0.1613
12618SOL    HW139861   7.644   6.626   3.215 -2.2676  0.9302 -0.9414
12618SOL    HW239862   7.740   6.713   3.294  0.5691 -2.1494 -0.7696
12619SOL     OW39863  10.118   6.680   3.621 -0.3741 -0.3691  0.2061
12619SOL    HW139864  10.024   6.668   3.634 -0.2306 -1.4101  0.3407
12619SOL    HW239865  10.146   6.733   3.696 -1.4616  3.2088 -1.7029
12620SOL     OW39866  10.149   2.661   4.783 -0.0399 -0.3620  0.5544
12620SOL    HW139867  10.105   2.660   4.698 -0.1788 -0.1358  0.6225
12620SOL    HW239868  10.227   2.715   4.768 -0.5201  0.4093  0.7917
12621SOL     OW39869   1.521  10.471  10.359 -0.0106 -0.4093 -0.0802
12621SOL    HW139870   1.493  10.482  10.450  0.7485 -1.9371  0.3620
12621SOL    HW239871   1.447  10.428  10.315  0.5477 -1.9599  0.4386
12622SOL     OW39872   7.713   1.725   7.968  0.2785  0.1516 -0.3806
12622SOL    HW139873   7.779   1.740   8.035  0.3889 -0.4692 -0.3450
12622SOL    HW239874   7.753   1.661   7.909 -0.7181 -1.1012  0.2651
12623SOL     OW39875   3.128   0.197   9.512  0.0776  0.8400  0.5993
12623SOL    HW139876   3.192   0.130   9.488 -1.1197 -1.0485  2.3754
12623SOL    HW239877   3.067   0.198   9.439 -0.6751 -1.0907  1.1475
12624SOL     OW39878   3.243   0.882   4.481  0.5453 -0.1208 -0.0740
12624SOL    HW139879   3.303   0.943   4.524 -0.3543  1.6996 -1.3022
12624SOL    HW239880   3.165   0.881   4.536  1.6881 -2.7773  1.7306
12625SOL     OW39881   3.825   1.149   5.815 -0.3103 -0.1112 -0.3539
12625SOL    HW139882   3.741   1.154   5.861 -1.1176 -0.9095 -1.6655
12625SOL    HW239883   3.805   1.176   5.725  0.7436 -0.7394 -0.8027
12626SOL     OW39884   4.029   8.828   8.454 -0.2455  0.0329 -0.2556
12626SOL    HW139885   3.994   8.891   8.390  0.4922 -1.5296 -2.3210
12626SOL    HW239886   4.124   8.837   8.447 -0.1297 -1.2530 -0.5734
12627SOL     OW39887   9.902   0.105   8.114 -0.5339  0.5611  0.5736
12627SOL    HW139888   9.935   0.055   8.039  1.2036  1.5566  0.6262
12627SOL    HW239889   9.884   0.038   8.180  0.8278 -0.1151  0.3108
12628SOL     OW39890  10.157   0.168   8.523 -0.1588  0.7584  0.2891
12628SOL    HW139891  10.203   0.241   8.565 -0.9320  0.7559  1.1720
12628SOL    HW239892  10.066   0.177   8.553 -0.4293 -0.0906 -0.2477
12629SOL     OW39893   5.382   5.351   3.901  0.1720 -0.2458  0.1456
12629SOL    HW139894   5.296   5.339   3.941 -0.8030  0.0708 -1.7508
12629SOL    HW239895   5.420   5.264   3.899  0.2117 -0.2939  1.5923
12630SOL     OW39896   5.776   4.530   1.963  0.4432 -0.2682 -0.6023
12630SOL    HW139897   5.818   4.482   1.892  0.0215 -1.0398 -0.3405
12630SOL    HW239898   5.823   4.504   2.042  0.5168  0.1149 -0.5162
12631SOL     OW39899   8.824   7.567   3.203 -0.5688  0.3613 -0.3231
12631SOL    HW139900   8.850   7.603   3.288  0.0832 -0.4826 -0.1555
12631SOL    HW239901   8.899   7.585   3.146 -0.8596  0.6053 -0.6350
12632SOL     OW39902   0.709   7.572   7.000 -0.1720 -0.1106  0.4694
12632SOL    HW139903   0.651   7.628   7.051 -2.3668 -2.4473  0.7453
12632SOL    HW239904   0.741   7.507   7.063  1.5553  0.2354 -0.0146
12633SOL     OW39905  10.073   6.117   5.317  0.2900  0.1796 -0.0705
12633SOL    HW139906  10.138   6.175   5.356 -0.4121  1.9643 -1.4093
12633SOL    HW239907  10.053   6.157   5.232 -3.0132  0.1107  0.5355
12634SOL     OW39908   3.269   6.292   0.607 -0.4594  0.2181  0.0865
12634SOL    HW139909   3.263   6.198   0.590 -0.2427  0.5046 -1.7664
12634SOL    HW239910   3.279   6.299   0.702 -2.1784 -1.5384  0.4577
12635SOL     OW39911   8.479   0.144   4.590  0.2988 -0.2325  0.1996
12635SOL    HW139912   8.403   0.089   4.607  1.0711 -2.1541 -2.0022
12635SOL    HW239913   8.549   0.083   4.567  1.0146  1.5965 -3.1364
12636SOL     OW39914   3.835   7.408   7.386 -0.3649 -0.0888 -1.0637
12636SOL    HW139915   3.891   7.351   7.333  1.2492 -1.3766  1.7702
12636SOL    HW239916   3.775   7.348   7.431 -0.4072  0.7023 -0.0175
12637SOL     OW39917   3.689   1.186   8.427  0.7174  0.3187 -0.4776
12637SOL    HW139918   3.698   1.238   8.506 -0.2130  0.5346 -0.5089
12637SOL    HW239919   3.756   1.221   8.368  0.0227  1.5767 -0.5463
12638SOL     OW39920   4.781   0.851   0.215  0.0626 -0.2032  0.0511
12638SOL    HW139921   4.811   0.869   0.304  1.5353 -1.1190 -0.2328
12638SOL    HW239922   4.688   0.876   0.216 -0.1403 -0.8564  2.0416
12639SOL     OW39923   2.370   9.142   3.859 -0.4832 -0.0306  0.2094
12639SOL    HW139924   2.414   9.212   3.811  0.5097  0.7328  2.1180
12639SOL    HW239925   2.350   9.180   3.945 -1.3612 -1.5946  0.7366
12640SOL     OW39926  10.361   0.187   7.143  0.5432  0.1236  0.0962
12640SOL    HW139927  10.266   0.183   7.132  0.6797  0.7642 -1.7043
12640SOL    HW239928  10.387   0.097   7.163 -0.2737 -0.4396 -1.2424
12641SOL     OW39929   2.895   9.802   8.501 -0.1153  0.2309  0.0163
12641SOL    HW139930   2.892   9.780   8.594  0.5265  0.0356 -0.0013
12641SOL    HW239931   2.945   9.730   8.461  1.2257  1.2352 -0.1819
12642SOL     OW39932   2.581   3.119   7.042  0.2964 -0.2669 -0.7841
12642SOL    HW139933   2.550   3.033   7.015 -0.7118 -0.0080 -0.4966
12642SOL    HW239934   2.660   3.101   7.094 -0.5811 -1.1144  0.2978
12643SOL     OW39935   6.907   5.003   7.733  0.4790 -0.2648  0.0751
12643SOL    HW139936   6.919   4.908   7.734 -1.4098 -0.5838  2.7261
12643SOL    HW239937   6.897   5.024   7.640  2.9470 -2.2819 -0.7850
12644SOL     OW39938  10.413   7.522   3.098  0.0016  0.2036  0.2579
12644SOL    HW139939  10.406   7.447   3.039  0.3380  0.8847 -0.6697
12644SOL    HW239940  10.357   7.499   3.172  1.2330 -1.5948  0.6923
12645SOL     OW39941   9.872   1.533   1.003  0.5315 -0.3301 -0.1053
12645SOL    HW139942   9.797   1.585   1.032 -0.7469 -2.2834  0.2301
12645SOL    HW239943   9.929   1.597   0.960 -0.4879  1.5174  1.1371
12646SOL     OW39944   8.014   4.282   2.494 -0.1895  0.1018 -0.3349
12646SOL    HW139945   7.990   4.247   2.408  1.2663  0.7235 -1.0246
12646SOL    HW239946   7.939   4.336   2.520 -0.8800 -0.5334 -0.9326
12647SOL     OW39947   0.880   4.508   4.931 -0.2741 -0.4488  0.4390
12647SOL    HW139948   0.805   4.563   4.956  0.4853  0.6203  0.4415
12647SOL    HW239949   0.850   4.461   4.854 -1.2069 -0.6041  0.8749
12648SOL     OW39950   8.836   4.846   6.131 -0.5400  0.0183 -0.2582
12648SOL    HW139951   8.742   4.846   6.113 -0.6924 -1.3849  0.3817
12648SOL    HW239952   8.850   4.923   6.186 -1.6166 -0.5709  0.9092
12649SOL     OW39953   2.962   7.222   8.480  0.6400  0.3692  0.6102
12649SOL    HW139954   2.935   7.145   8.530 -2.1580  0.4350 -0.5878
12649SOL    HW239955   2.969   7.292   8.545  1.4342 -0.4968  1.4670
12650SOL     OW39956   4.147   8.263   6.554 -0.4495 -0.2772  0.2783
12650SOL    HW139957   4.075   8.326   6.555 -1.8954 -1.8812  0.3408
12650SOL    HW239958   4.125   8.200   6.622 -0.0321 -1.9291 -1.0614
12651SOL     OW39959   5.114   1.982   9.540  0.0212  0.3525  0.1841
12651SOL    HW139960   5.147   2.029   9.616  0.1645 -0.2958  0.5340
12651SOL    HW239961   5.031   2.023   9.520  0.9111  1.8684 -0.5668
12652SOL     OW39962  10.348   3.860   1.619  0.0442  0.5391 -0.6060
12652SOL    HW139963  10.323   3.946   1.652 -0.4778  0.0182  0.4092
12652SOL    HW239964  10.420   3.877   1.558  0.3712  1.6294  0.0569
12653SOL     OW39965   7.516   7.906   2.933 -0.4980  0.5728  0.5631
12653SOL    HW139966   7.515   7.915   3.029  0.2015 -0.1567  0.6450
12653SOL    HW239967   7.496   7.994   2.901 -0.6890  0.8402  1.3741
12654SOL     OW39968   2.482   0.474   9.807  0.1378  0.0383 -0.2509
12654SOL    HW139969   2.552   0.442   9.865 -0.2196 -0.6685 -0.1980
12654SOL    HW239970   2.406   0.420   9.829 -1.0658  2.1538  1.1617
12655SOL     OW39971   5.056   1.156   4.474  0.1003 -0.2011 -0.0629
12655SOL    HW139972   5.086   1.066   4.463 -0.6990 -0.7194  1.7154
12655SOL    HW239973   4.968   1.157   4.436  0.1636 -0.1338 -0.2082
12656SOL     OW39974   5.822   7.961   6.641 -0.1612 -0.0906  0.3436
12656SOL    HW139975   5.890   7.901   6.673 -0.5978  0.1345  1.7823
12656SOL    HW239976   5.862   8.048   6.650 -0.5089  0.0183  0.9030
12657SOL     OW39977   7.722   0.426   9.819 -0.1464 -0.1432  0.7827
12657SOL    HW139978   7.751   0.491   9.755 -2.2714 -1.0942 -1.2839
12657SOL    HW239979   7.699   0.478   9.897  0.1325  1.3288 -0.0683
12658SOL     OW39980   9.985   1.629  10.113  0.0935 -0.3757  0.0756
12658SOL    HW139981   9.923   1.703  10.119 -0.8161 -0.9402 -1.5445
12658SOL    HW239982  10.041   1.639  10.189  0.3415  2.3075 -0.3395
12659SOL     OW39983   6.436   1.533   4.077  0.2105  0.1662 -0.0632
12659SOL    HW139984   6.464   1.462   4.134 -1.2097 -0.4875 -0.1258
12659SOL    HW239985   6.340   1.532   4.083  0.1207  1.3641 -0.9181
12660SOL     OW39986   6.487   2.525   6.536  0.2152  0.3509 -0.1741
12660SOL    HW139987   6.549   2.474   6.483  1.4699  0.4111  1.2083
12660SOL    HW239988   6.506   2.616   6.515  1.5159  0.4308  1.1835
12661SOL     OW39989   3.945   6.651   3.229  0.2246  0.1170  0.0520
12661SOL    HW139990   4.039   6.668   3.229  0.7087 -1.9645  1.8317
12661SOL    HW239991   3.927   6.612   3.143  0.4754  2.5252 -1.1644
12662SOL     OW39992   2.062   9.744  10.154  0.2209  0.5900  0.0046
12662SOL    HW139993   2.091   9.729  10.064  0.5814  1.2993 -0.0092
12662SOL    HW239994   2.037   9.658  10.186  0.8545  0.2018 -0.5165
12663SOL     OW39995  10.114   7.622   5.666 -0.5442 -0.3348 -0.2271
12663SOL    HW139996  10.063   7.626   5.585  0.7311  1.3330 -1.0078
12663SOL    HW239997  10.134   7.529   5.676  0.0142 -0.5011 -2.3571
12664SOL     OW39998   9.937   7.565   2.550  0.1073  0.1951 -0.0141
12664SOL    HW139999   9.982   7.634   2.597 -0.6878  1.4526 -1.0311
12664SOL    HW240000   9.941   7.489   2.608  1.8602  0.8009  0.6967
12665SOL     OW40001  10.190   2.060   0.891  0.4984 -0.2715 -0.1457
12665SOL    HW140002  10.106   2.099   0.916  0.0735 -0.8337 -0.6739
12665SOL    HW240003  10.218   2.013   0.970 -1.0900 -2.4611 -0.7838
12666SOL     OW40004   2.482  10.533   8.885 -0.2436  0.3857 -0.7505
12666SOL    HW140005   2.558  10.585   8.860  1.8545 -1.0951  1.9175
12666SOL    HW240006   2.520  10.454   8.924 -3.2037 -0.9204 -0.2939
12667SOL     OW40007   1.922   3.400   2.292  0.4621 -0.4364  0.3223
12667SOL    HW140008   2.004   3.384   2.245  0.9499 -1.3471  1.4220
12667SOL    HW240009   1.907   3.319   2.341 -1.3233 -0.4356 -0.1801
12668SOL     OW40010   4.020   2.723   7.281 -0.0294  0.8685  0.2778
12668SOL    HW140011   4.066   2.644   7.255  0.2360  1.9488 -3.0146
12668SOL    HW240012   3.954   2.693   7.344 -0.5603 -2.1468 -1.5234
12669SOL     OW40013  10.278   8.893   9.515 -0.1185  0.0298 -0.6360
12669SOL    HW140014  10.293   8.802   9.541  0.8287 -0.0350 -1.3480
12669SOL    HW240015  10.262   8.939   9.598 -1.6315 -0.9409 -0.3476
12670SOL     OW40016   0.070   1.884   1.388  0.4929 -0.4635 -0.3918
12670SOL    HW140017  -0.014   1.862   1.429  1.0889 -0.0962  1.0859
12670SOL    HW240018   0.052   1.962   1.337  0.0022 -0.1773  0.2025
12671SOL     OW40019   4.595   2.919   4.385  0.0235 -0.4017  0.2065
12671SOL    HW140020   4.505   2.924   4.352  0.2445 -2.6642 -0.9729
12671SOL    HW240021   4.643   2.985   4.334 -0.4656 -1.0359 -1.1206
12672SOL     OW40022   5.300  10.908   6.999 -0.0036 -0.0340 -0.0231
12672SOL    HW140023   5.356  10.839   7.034 -1.2429 -0.3630  1.4143
12672SOL    HW240024   5.312  10.981   7.059  0.0667  0.4473 -0.6136
12673SOL     OW40025   6.512   9.446   8.814  0.6138  0.7037  0.5813
12673SOL    HW140026   6.419   9.468   8.808  1.0704  2.8949  0.9125
12673SOL    HW240027   6.515   9.371   8.874 -0.7893  1.9291  2.2785
12674SOL     OW40028   6.750   6.982   5.770  0.5111 -0.5366 -0.0119
12674SOL    HW140029   6.730   6.926   5.695 -0.1358  1.1564 -1.1420
12674SOL    HW240030   6.742   6.924   5.846 -0.5579 -1.8671 -1.1034
12675SOL     OW40031   6.148   1.164   8.853  0.6513 -0.0423 -0.3075
12675SOL    HW140032   6.121   1.230   8.791 -1.8630 -0.0918  0.6292
12675SOL    HW240033   6.144   1.207   8.938 -0.7480 -1.2545  0.2902
12676SOL     OW40034   6.053   6.746   9.698  0.8716 -0.4560 -0.2479
12676SOL    HW140035   6.069   6.827   9.747  1.4652 -0.1743 -0.8776
12676SOL    HW240036   6.141   6.716   9.673  0.5805 -0.3945 -1.4259
12677SOL     OW40037   8.817   1.830   3.593 -0.3974 -0.1876 -0.1209
12677SOL    HW140038   8.809   1.881   3.512  0.3285  0.7993  0.4070
12677SOL    HW240039   8.889   1.770   3.577  1.5528  1.7985  0.6487
12678SOL     OW40040   9.624   2.613   5.972 -0.1821 -0.0681 -0.8223
12678SOL    HW140041   9.714   2.624   6.001  0.1453 -2.0047 -1.0075
12678SOL    HW240042   9.591   2.539   6.023 -0.7831 -1.1434 -2.6850
12679SOL     OW40043   6.532   7.868   9.634 -0.0846  0.3712  0.2552
12679SOL    HW140044   6.472   7.833   9.699 -0.6360  1.6691  0.4716
12679SOL    HW240045   6.550   7.958   9.663  0.6637  0.5472 -0.6879
12680SOL     OW40046   0.822  10.924   3.466 -0.0960 -0.2346  0.0701
12680SOL    HW140047   0.891  10.898   3.527  0.1155 -1.9942 -0.8453
12680SOL    HW240048   0.740  10.900   3.511 -0.0316  0.1568  0.4003
12681SOL     OW40049   0.038   8.100   1.873 -0.1722 -0.5357 -0.1160
12681SOL    HW140050  -0.009   8.144   1.944 -1.3671  0.5079 -1.4940
12681SOL    HW240051   0.001   8.012   1.871 -1.5923  0.0496 -0.7089
12682SOL     OW40052   1.592  10.755   5.925  0.3918  0.9766 -0.6286
12682SOL    HW140053   1.610  10.837   5.878 -0.1546  1.0019 -0.8037
12682SOL    HW240054   1.509  10.724   5.888  1.3397 -0.4579 -1.6429
12683SOL     OW40055  10.165   4.304   8.078  0.2293 -0.2233  0.6315
12683SOL    HW140056  10.071   4.290   8.066  0.3671 -0.1194 -0.6785
12683SOL    HW240057  10.187   4.254   8.156 -0.8897 -0.3453  0.8883
12684SOL     OW40058   1.764   7.855   9.025  0.0780  0.8631 -0.4544
12684SOL    HW140059   1.679   7.823   8.994  0.1908  0.4745 -0.3733
12684SOL    HW240060   1.783   7.930   8.970 -0.2196  0.8217 -0.6164
12685SOL     OW40061   8.520   0.190   3.490  0.4752 -0.3312  0.1077
12685SOL    HW140062   8.556   0.102   3.487 -0.3088 -0.6516 -0.1295
12685SOL    HW240063   8.527   0.222   3.400 -0.2920 -0.5911 -0.0511
12686SOL     OW40064   3.369   2.349  10.479 -0.3614 -0.0274 -0.0113
12686SOL    HW140065   3.313   2.341  10.556 -0.3715  1.5780  0.1755
12686SOL    HW240066   3.448   2.392  10.510  0.2737 -0.7245 -0.6147
12687SOL     OW40067   3.753   8.822  10.741 -0.2387 -0.3749 -0.4910
12687SOL    HW140068   3.827   8.878  10.766 -0.7769  0.5190 -0.8570
12687SOL    HW240069   3.793   8.746  10.699  0.5359 -0.5440  0.4968
12688SOL     OW40070  10.215   6.014   5.673  0.1242 -0.3370  0.0801
12688SOL    HW140071  10.276   5.942   5.661 -0.2901 -0.8997  1.1473
12688SOL    HW240072  10.270   6.090   5.688  0.5745 -0.3121 -1.5238
12689SOL     OW40073   3.362   4.763   3.725 -0.6156  0.2548 -0.2709
12689SOL    HW140074   3.389   4.729   3.640 -0.2884 -1.3832  0.4515
12689SOL    HW240075   3.380   4.692   3.786 -1.3504  1.1966  1.0939
12690SOL     OW40076   7.513   5.486   1.943  0.2711 -0.2077 -0.6862
12690SOL    HW140077   7.439   5.425   1.938  1.1087 -1.3869  0.5928
12690SOL    HW240078   7.485   5.552   2.006  0.5505 -1.0795  0.3938
12691SOL     OW40079   2.671   4.665  10.328  0.2121 -0.0579 -0.0102
12691SOL    HW140080   2.621   4.706  10.399  0.5500  0.2377  0.0586
12691SOL    HW240081   2.724   4.598  10.371  1.2975  0.9078  0.1929
12692SOL     OW40082   4.311   1.212   3.445  0.1308 -0.3528 -0.7780
12692SOL    HW140083   4.367   1.137   3.463  0.9280  0.9513  3.4119
12692SOL    HW240084   4.241   1.206   3.510 -1.0398  1.3638 -1.7872
12693SOL     OW40085   7.990   7.819   2.104  0.0802 -0.7370  0.2366
12693SOL    HW140086   7.983   7.788   2.014  0.1501  1.8954 -0.7712
12693SOL    HW240087   8.078   7.856   2.109 -0.2121 -0.1337  1.1221
12694SOL     OW40088  10.754   0.024   6.034  0.0448 -0.4535  0.1231
12694SOL    HW140089  10.672   0.057   5.999  0.8438  0.4862 -0.8981
12694SOL    HW240090  10.788  -0.033   5.965  0.8801  0.1852  0.0064
12695SOL     OW40091   5.495   0.308   3.836  0.3511  0.1757 -0.1932
12695SOL    HW140092   5.555   0.238   3.811 -2.0539 -2.2106  0.3302
12695SOL    HW240093   5.537   0.349   3.912  2.8090  0.8025 -1.7681
12696SOL     OW40094   4.423   2.768   8.034 -0.4102 -0.4384 -0.2097
12696SOL    HW140095   4.404   2.732   7.948  1.5928  0.5904 -1.1400
12696SOL    HW240096   4.501   2.822   8.021 -1.1418  1.2771  1.8492
12697SOL     OW40097   5.409   1.486   8.803 -0.6412 -0.6997 -0.0550
12697SOL    HW140098   5.485   1.471   8.859 -0.4919  0.2315 -0.0011
12697SOL    HW240099   5.335   1.452   8.853 -0.1080 -3.1117 -0.7705
12698SOL     OW40100   8.565   0.353  10.814  0.3075 -0.2085 -0.1240
12698SOL    HW140101   8.470   0.347  10.825  0.0595 -1.1703 -2.1754
12698SOL    HW240102   8.597   0.264  10.831  0.8668  0.1235  0.6193
12699SOL     OW40103   2.852   1.734   4.201 -0.6820  0.3612 -0.3849
12699SOL    HW140104   2.891   1.819   4.180 -2.3405  0.9529 -1.2972
12699SOL    HW240105   2.807   1.748   4.284 -1.3868  0.5458 -0.7884
12700SOL     OW40106   7.759   8.537   3.991  0.5439  0.3461 -0.1453
12700SOL    HW140107   7.690   8.588   4.033  1.8637  0.1365  2.4784
12700SOL    HW240108   7.720   8.451   3.975  0.3599 -0.0219  2.0321
12701SOL     OW40109   2.859   0.615   5.235  0.1498  0.7028  0.2928
12701SOL    HW140110   2.952   0.637   5.229 -0.1049  1.4877 -1.5975
12701SOL    HW240111   2.834   0.594   5.145 -1.6866  1.3096  0.6256
12702SOL     OW40112   4.975   1.247   9.341  0.5182  0.2618 -0.4736
12702SOL    HW140113   4.940   1.220   9.426 -0.7093 -2.2764 -1.6721
12702SOL    HW240114   4.927   1.328   9.321 -1.5139 -0.7732 -0.0782
12703SOL     OW40115   9.151   2.225   5.132 -0.4548 -0.3550 -0.2839
12703SOL    HW140116   9.147   2.311   5.091  2.8157 -0.5477 -1.3243
12703SOL    HW240117   9.214   2.235   5.203 -0.9454 -1.6416  0.3779
12704SOL     OW40118  10.116   2.478   6.557  0.1050 -0.5327 -0.2845
12704SOL    HW140119  10.105   2.471   6.652  0.1041  0.3774 -0.2072
12704SOL    HW240120  10.204   2.514   6.545 -0.5302  1.0431 -0.5399
12705SOL     OW40121   2.770  10.732   8.766 -0.1658  0.6132  0.1451
12705SOL    HW140122   2.781  10.806   8.707  1.1845 -1.0919 -1.8697
12705SOL    HW240123   2.858  10.699   8.780 -0.9225 -2.9148 -2.2184
12706SOL     OW40124   9.590  10.939   5.728  0.3781  0.1933  0.0130
12706SOL    HW140125   9.609  11.024   5.767  0.6218  0.3986 -0.5437
12706SOL    HW240126   9.497  10.924   5.747 -0.0989  1.3228 -1.2548
12707SOL     OW40127   9.115   2.977   6.930 -0.2077  0.3097  0.1214
12707SOL    HW140128   9.198   2.940   6.961 -1.4690 -2.6667  0.3436
12707SOL    HW240129   9.071   3.007   7.009  0.0546  0.5923  0.1645
12708SOL     OW40130  10.051   3.601   2.088  0.0543  0.1498 -0.3942
12708SOL    HW140131  10.025   3.515   2.120  0.3329  0.0780 -0.3557
12708SOL    HW240132  10.006   3.663   2.146 -0.3906  0.0361 -0.6154
12709SOL     OW40133   4.942   6.405   0.611 -0.3970  0.6144 -0.0877
12709SOL    HW140134   5.023   6.385   0.658  0.6213  0.2180 -1.9148
12709SOL    HW240135   4.881   6.337   0.637 -0.4275  1.3180  1.8667
12710SOL     OW40136   5.931   2.982   9.504  0.2271 -0.8410 -0.3883
12710SOL    HW140137   5.923   2.964   9.410 -0.3286 -1.5787 -0.2129
12710SOL    HW240138   5.853   3.033   9.526  1.0982  0.6265 -0.6031
12711SOL     OW40139   6.110   2.155   4.258 -0.1363  0.2670 -0.0992
12711SOL    HW140140   6.060   2.118   4.331 -0.7319  3.5861  1.3215
12711SOL    HW240141   6.044   2.186   4.196  0.3599 -1.5084 -1.6248
12712SOL     OW40142   3.662   8.219   4.045 -0.2001 -0.5066 -0.8197
12712SOL    HW140143   3.622   8.232   4.131 -2.3316  0.5450 -1.8879
12712SOL    HW240144   3.713   8.299   4.030  0.5576 -0.8930 -0.3715
12713SOL     OW40145   6.758  10.173  10.767  0.4039 -0.0954 -0.1971
12713SOL    HW140146   6.846  10.166  10.803 -0.3552 -0.4838  1.6494
12713SOL    HW240147   6.772  10.200  10.676  2.3766  1.5038  0.5048
12714SOL     OW40148  10.218   3.268   2.185 -0.0026 -0.3543  0.4534
12714SOL    HW140149  10.278   3.330   2.226  0.1555 -0.6804  0.7241
12714SOL    HW240150  10.146   3.260   2.247 -0.5573  0.3801 -0.0752
12715SOL     OW40151   4.095   8.226   7.866  0.4989  1.1388  0.0292
12715SOL    HW140152   4.062   8.212   7.955  1.6282 -2.1945  0.0518
12715SOL    HW240153   4.172   8.282   7.878  1.7218 -0.7224  1.4603
12716SOL     OW40154   2.546   6.655   7.511  0.1697 -0.3523  0.0424
12716SOL    HW140155   2.558   6.680   7.603  0.2238  0.3889 -0.1615
12716SOL    HW240156   2.631   6.619   7.485 -0.0835 -1.3268  0.5058
12717SOL     OW40157   2.193   5.452   1.398 -0.0596 -0.0611  0.1173
12717SOL    HW140158   2.154   5.539   1.405 -0.7751 -0.4329  0.9660
12717SOL    HW240159   2.132   5.403   1.342  0.8446  0.2433 -1.1746
12718SOL     OW40160   6.535   9.787   6.704  0.1777  0.3576 -0.6064
12718SOL    HW140161   6.525   9.693   6.714 -3.2482  0.6135 -0.5321
12718SOL    HW240162   6.486   9.808   6.624  0.3440  2.1756 -0.2753
12719SOL     OW40163   3.399   2.244   8.939 -0.4929 -0.3668 -0.4853
12719SOL    HW140164   3.474   2.249   8.880 -1.5440 -1.5124 -2.0232
12719SOL    HW240165   3.434   2.267   9.025  1.7377 -1.3958 -1.0370
12720SOL     OW40166   5.883   7.692  10.135  0.0750 -0.9455  0.2010
12720SOL    HW140167   5.872   7.667  10.227  0.3389  1.4660  0.9432
12720SOL    HW240168   5.830   7.628  10.087 -1.2244 -1.4141  2.1321
12721SOL     OW40169   0.814   1.132   8.495 -0.2799 -0.3690 -0.2761
12721SOL    HW140170   0.720   1.116   8.503 -0.2141 -1.8496 -1.7868
12721SOL    HW240171   0.855   1.058   8.541  0.0956 -0.9727 -1.5263
12722SOL     OW40172   7.054   3.796   0.178  0.1935 -0.0405 -0.0105
12722SOL    HW140173   7.032   3.885   0.207  1.6136  0.5677 -0.7169
12722SOL    HW240174   6.971   3.749   0.181 -0.7480  1.5304 -0.4331
12723SOL     OW40175   1.427   9.595   8.493  0.7794 -0.5285 -0.0076
12723SOL    HW140176   1.383   9.644   8.563  1.6621  2.0161 -1.1146
12723SOL    HW240177   1.497   9.547   8.537 -0.0365 -0.7213  1.1155
12724SOL     OW40178   8.395   4.002   6.143  0.0662  0.1562  0.0800
12724SOL    HW140179   8.390   3.928   6.204  1.6290  0.3487  0.4898
12724SOL    HW240180   8.314   3.997   6.092 -0.2739 -1.2874  0.7160
12725SOL     OW40181   6.516   8.668  10.456  0.0589  0.1779 -0.4749
12725SOL    HW140182   6.484   8.578  10.447  2.2321 -0.8445  1.0216
12725SOL    HW240183   6.443   8.723  10.429 -2.3005 -1.9537  1.1976
12726SOL     OW40184   3.473   7.391  10.754  0.4526 -0.4215 -1.1436
12726SOL    HW140185   3.491   7.318  10.814 -0.4291  0.0163 -0.3301
12726SOL    HW240186   3.535   7.459  10.780  0.5617 -0.4977 -1.2048
12727SOL     OW40187   3.813   5.408   6.354 -0.7183 -0.1704  0.3530
12727SOL    HW140188   3.842   5.344   6.289  1.8211 -1.8151  2.8703
12727SOL    HW240189   3.794   5.356   6.432  2.4367  2.0736  2.8695
12728SOL     OW40190   6.211   4.950   4.084 -0.3048 -0.5338 -0.5437
12728SOL    HW140191   6.137   4.998   4.045  0.0567  1.8811  1.4531
12728SOL    HW240192   6.285   5.010   4.075  1.0912 -2.2889 -1.1602
12729SOL     OW40193   1.241   4.640   6.031  0.3352 -0.0845 -0.4487
12729SOL    HW140194   1.248   4.555   6.073  0.1082  0.4552  0.7253
12729SOL    HW240195   1.331   4.673   6.028  0.3334 -0.0505 -0.1984
12730SOL     OW40196  10.089   9.238   0.799  0.4026  0.4742  0.3326
12730SOL    HW140197  10.054   9.149   0.798  0.1699  0.5633  0.5016
12730SOL    HW240198  10.091   9.264   0.707 -0.0101  0.4810  0.3263
12731SOL     OW40199   6.870  10.003  11.001  0.3548  0.2888 -0.4156
12731SOL    HW140200   6.881  10.079  11.058 -0.4098  1.0059 -1.2031
12731SOL    HW240201   6.831   9.936  11.057  0.6919  0.5905  0.1901
12732SOL     OW40202   6.655   8.396   3.696  0.1665 -0.0958 -0.6035
12732SOL    HW140203   6.705   8.467   3.735  0.3889 -1.4851  1.8602
12732SOL    HW240204   6.564   8.416   3.717  0.3864 -1.6437  2.3295
12733SOL     OW40205   1.018   3.295   5.203  0.1032  0.3133 -0.0578
12733SOL    HW140206   1.037   3.297   5.109 -1.4651 -1.5271 -0.4697
12733SOL    HW240207   0.926   3.321   5.210 -0.3709 -1.3881  0.7222
12734SOL     OW40208  10.763   0.550   5.149 -0.2795  0.9420 -0.1174
12734SOL    HW140209  10.773   0.617   5.216  1.1161  1.1089 -0.4509
12734SOL    HW240210  10.730   0.473   5.195  1.6988  0.6949  1.0227
12735SOL     OW40211   6.834  10.012   6.194  0.1866 -0.4262 -0.2768
12735SOL    HW140212   6.874  10.096   6.218 -0.4178 -0.0950 -0.4212
12735SOL    HW240213   6.763  10.036   6.134  0.0038 -1.0409 -0.3071
12736SOL     OW40214   4.375   2.416  10.967 -0.0631 -0.5287 -0.6334
12736SOL    HW140215   4.295   2.395  11.014  0.3996 -3.3323 -0.9377
12736SOL    HW240216   4.438   2.438  11.036 -0.6394  0.1172 -0.2976
12737SOL     OW40217  10.122   2.380   4.860  0.2337 -0.5146  0.0243
12737SOL    HW140218  10.027   2.376   4.852  0.2931 -1.0924 -0.4459
12737SOL    HW240219  10.146   2.466   4.824  0.0560 -1.1457 -1.6856
12738SOL     OW40220   7.335   8.629   4.740  0.2569 -0.6260 -0.0891
12738SOL    HW140221   7.265   8.563   4.742 -0.3439 -0.0395 -0.9797
12738SOL    HW240222   7.348   8.646   4.646  0.2678  0.6659  0.1384
12739SOL     OW40223   7.423   5.708  10.010 -0.0859 -0.7896 -0.4762
12739SOL    HW140224   7.375   5.698   9.928 -1.5899 -1.5554  0.4595
12739SOL    HW240225   7.444   5.802  10.014 -3.3859  0.0569  0.0281
12740SOL     OW40226   3.820   7.666   7.390 -0.3165 -0.0790  0.5630
12740SOL    HW140227   3.751   7.690   7.328  0.4627 -1.0263 -0.7357
12740SOL    HW240228   3.811   7.571   7.400  0.1383 -0.0613  1.1950
12741SOL     OW40229   0.009   4.264   5.275 -0.0121  0.1906 -0.3942
12741SOL    HW140230   0.015   4.193   5.212  0.3821  0.0519 -0.2065
12741SOL    HW240231   0.026   4.223   5.360 -4.8926 -0.5452  0.5112
12742SOL     OW40232   8.829   8.422  10.223 -0.1225 -0.3260  0.1406
12742SOL    HW140233   8.899   8.370  10.263 -1.0707 -1.0749  0.8622
12742SOL    HW240234   8.796   8.476  10.294 -0.9720 -0.7382  0.0668
12743SOL     OW40235  10.737   0.228   4.219  0.3056  0.3156  0.1141
12743SOL    HW140236  10.732   0.283   4.297  0.3019 -0.6864  0.8418
12743SOL    HW240237  10.830   0.224   4.199  0.1814  1.9891 -1.0012
12744SOL     OW40238   2.935   7.509   4.453 -0.2723 -0.6056 -0.3481
12744SOL    HW140239   2.943   7.603   4.440 -3.1238 -0.1965  0.1961
12744SOL    HW240240   2.860   7.499   4.512 -0.2710 -3.2250 -0.6520
12745SOL     OW40241   4.494   6.500   4.642  0.8962 -0.5680 -0.7258
12745SOL    HW140242   4.459   6.586   4.619  1.2868  0.1639  1.2748
12745SOL    HW240243   4.438   6.468   4.712 -0.2235 -2.7130 -2.4395
12746SOL     OW40244   0.502   5.291   0.751  1.0455  0.2421  0.0463
12746SOL    HW140245   0.547   5.209   0.769 -1.3398 -1.6950 -1.9680
12746SOL    HW240246   0.411   5.274   0.775  0.5907  2.5611  0.1932
12747SOL     OW40247   3.059   5.232   8.443  0.3274 -0.5651 -0.0736
12747SOL    HW140248   3.079   5.318   8.406  0.2441  0.4692  2.1253
12747SOL    HW240249   3.140   5.182   8.433  0.9669  0.3901  0.2774
12748SOL     OW40250   4.849   0.892  10.145  0.3351 -0.5301 -0.3012
12748SOL    HW140251   4.815   0.832  10.078  0.1241 -0.3921 -0.3185
12748SOL    HW240252   4.899   0.957  10.096  0.5007 -0.6486 -0.2900
12749SOL     OW40253   1.063  10.124   2.942  0.0913 -0.3049  0.2487
12749SOL    HW140254   1.146  10.110   2.896  0.0705  0.1666  0.0704
12749SOL    HW240255   1.007  10.051   2.913 -0.2206  0.4730 -1.1587
12750SOL     OW40256   3.002   0.415   4.835 -0.1834 -0.2058 -0.7332
12750SOL    HW140257   2.996   0.362   4.756  0.7844  1.2150 -1.8236
12750SOL    HW240258   3.093   0.407   4.863 -0.5062 -0.6529  0.2181
12751SOL     OW40259  10.489   1.663   3.523 -0.4723  0.3239  0.1794
12751SOL    HW140260  10.573   1.678   3.566  0.0314 -1.0062 -0.2844
12751SOL    HW240261  10.428   1.644   3.595  0.0052 -0.3074  0.4301
12752SOL     OW40262   6.529   0.780   4.391 -0.4177 -0.1323 -0.0594
12752SOL    HW140263   6.621   0.808   4.397 -0.5815  0.4887 -0.4383
12752SOL    HW240264   6.482   0.857   4.359 -0.6885 -1.1799 -2.3691
12753SOL     OW40265   9.797   6.505   0.803  0.1439  0.4987  0.0432
12753SOL    HW140266   9.788   6.485   0.710  3.5987 -1.4314 -0.0318
12753SOL    HW240267   9.749   6.436   0.847 -2.4847  2.0540 -0.1829
12754SOL     OW40268   8.798  10.605   3.885 -1.1212 -0.4289  1.0073
12754SOL    HW140269   8.760  10.522   3.916 -0.3241 -0.6339  1.4637
12754SOL    HW240270   8.784  10.665   3.958  0.3232 -0.7818  1.6069
12755SOL     OW40271  10.702   7.811   7.443  0.5874 -0.0568 -0.0470
12755SOL    HW140272  10.716   7.720   7.471 -1.3808 -0.3245  0.2396
12755SOL    HW240273  10.728   7.812   7.351  1.4832 -0.6735  0.1861
12756SOL     OW40274   0.756   5.694   2.719 -0.5962  0.0383 -0.3784
12756SOL    HW140275   0.847   5.695   2.747 -1.1159 -0.1906  1.4639
12756SOL    HW240276   0.707   5.671   2.798 -2.1873 -0.7486 -1.5307
12757SOL     OW40277  10.337   1.860   1.155 -0.3184 -0.2256  0.4112
12757SOL    HW140278  10.255   1.825   1.189 -0.5339 -0.2895 -0.1551
12757SOL    HW240279  10.371   1.790   1.098 -1.2823  0.8537 -1.5729
12758SOL     OW40280   3.862   8.800   9.252  0.4596  0.8077 -0.3458
12758SOL    HW140281   3.821   8.887   9.255 -0.2347  0.5431 -1.5821
12758SOL    HW240282   3.797   8.742   9.292  0.9945  0.8596  0.6373
12759SOL     OW40283   4.580   1.335   7.665  0.5578 -0.6970  0.2825
12759SOL    HW140284   4.575   1.268   7.596 -1.1277 -0.2254 -0.0992
12759SOL    HW240285   4.593   1.417   7.619 -1.8391 -0.1956  0.3270
12760SOL     OW40286   6.616   1.142   4.351  0.3320  0.6026  0.0875
12760SOL    HW140287   6.595   1.076   4.418 -0.5330 -1.7527 -2.3468
12760SOL    HW240288   6.706   1.123   4.326  0.7171  1.6027  0.6237
12761SOL     OW40289   5.878   7.941   6.237  0.1211  0.3665 -0.3152
12761SOL    HW140290   5.972   7.958   6.240  0.2601 -0.2359 -0.9769
12761SOL    HW240291   5.860   7.897   6.320  0.5185  0.0529 -0.3924
12762SOL     OW40292   2.418   2.105   6.799 -0.2844  0.0550  0.0199
12762SOL    HW140293   2.466   2.113   6.717  0.7006  1.6140  0.6833
12762SOL    HW240294   2.334   2.067   6.775  0.1428  0.0962 -1.6365
12763SOL     OW40295   2.091   6.480   0.016  0.0742  0.2575 -0.1479
12763SOL    HW140296   2.010   6.459  -0.031  0.1019  1.7518 -0.9275
12763SOL    HW240297   2.122   6.396   0.049 -3.5578 -0.1245  3.1629
12764SOL     OW40298   3.872   3.040   6.284 -0.0490 -0.9286 -0.1768
12764SOL    HW140299   3.858   3.053   6.190  0.8713 -0.2706 -0.2366
12764SOL    HW240300   3.786   3.054   6.323 -0.1901  0.0883 -0.7993
12765SOL     OW40301   7.677   8.118  10.015 -0.0959  0.0940 -0.0485
12765SOL    HW140302   7.707   8.033  10.048  1.0310  1.1603  1.8795
12765SOL    HW240303   7.726   8.130   9.933  0.4296 -0.7093  0.1359
12766SOL     OW40304  10.945   1.580   9.063  0.3512 -0.2301 -0.3100
12766SOL    HW140305  10.857   1.607   9.038  0.8922  2.7157  0.5663
12766SOL    HW240306  10.932   1.530   9.144 -0.4559  2.3148  1.2565
12767SOL     OW40307   8.135   7.444   6.636 -0.2857 -0.0828  0.4697
12767SOL    HW140308   8.082   7.468   6.712 -0.0036 -0.7226  0.8796
12767SOL    HW240309   8.190   7.373   6.668 -0.4776 -0.6574 -0.4723
12768SOL     OW40310   0.934   5.343   4.807  0.2292 -0.3131  0.3287
12768SOL    HW140311   0.999   5.396   4.853  0.4338  1.1522 -1.4884
12768SOL    HW240312   0.984   5.273   4.765  0.1827 -1.0183  1.4270
12769SOL     OW40313   1.021   2.177   5.850 -0.2067  0.0500  0.4515
12769SOL    HW140314   1.046   2.254   5.902  1.1576  0.0260 -0.1478
12769SOL    HW240315   0.925   2.175   5.856 -0.2845  1.8799  0.3619
12770SOL     OW40316   6.844   3.599   3.270 -0.3586  0.3365  0.5076
12770SOL    HW140317   6.787   3.599   3.347 -0.1835 -0.5325  0.6519
12770SOL    HW240318   6.932   3.583   3.306 -0.3021 -0.2394  0.1179
12771SOL     OW40319   2.037   6.651   5.595  0.0920 -0.1655  0.3597
12771SOL    HW140320   2.123   6.693   5.603  0.5602 -0.8512 -0.6882
12771SOL    HW240321   2.003   6.648   5.684  1.5822 -0.7074  0.9510
12772SOL     OW40322   6.236   4.967   8.172  0.5376  0.1725  0.2137
12772SOL    HW140323   6.322   5.008   8.163  0.7444  0.2311  2.1709
12772SOL    HW240324   6.255   4.876   8.193  0.1054  0.0792  0.2039
12773SOL     OW40325  10.495   2.375   6.504 -0.4383  0.3630  0.8146
12773SOL    HW140326  10.458   2.287   6.496 -1.1782  0.5175  2.1369
12773SOL    HW240327  10.561   2.380   6.435  1.4914 -2.1781  2.2861
12774SOL     OW40328   9.769   2.046   8.052  0.3183 -0.4899 -0.1668
12774SOL    HW140329   9.733   1.983   7.989 -0.4497  0.9797 -1.2415
12774SOL    HW240330   9.696   2.103   8.073  0.8198 -0.3768  1.3737
12775SOL     OW40331   3.627   8.592   1.542 -0.4023 -0.1083 -0.2253
12775SOL    HW140332   3.701   8.579   1.601 -0.6619  0.5989  0.2722
12775SOL    HW240333   3.655   8.661   1.482 -0.2437 -0.6318 -0.7620
12776SOL     OW40334  10.549   2.229   7.665 -0.1564 -0.3938 -0.2163
12776SOL    HW140335  10.586   2.188   7.587  1.7888  2.2198 -0.8024
12776SOL    HW240336  10.535   2.320   7.640 -0.1554  0.3510  2.2628
12777SOL     OW40337   4.105   6.203   7.772  0.4654 -0.0895  0.4784
12777SOL    HW140338   4.159   6.177   7.847 -1.1869 -1.0402  1.3844
12777SOL    HW240339   4.066   6.121   7.741 -1.1866  0.6757  0.4504
12778SOL     OW40340   9.046   3.462   5.810  0.1892  0.1413 -0.2822
12778SOL    HW140341   8.987   3.393   5.780 -0.7056  0.6927  0.1670
12778SOL    HW240342   9.133   3.433   5.783 -0.1579 -1.2109 -0.0011
12779SOL     OW40343   7.003   6.724   9.644  0.3242 -0.4376 -0.1859
12779SOL    HW140344   6.912   6.697   9.655  0.7121 -1.5015  0.6062
12779SOL    HW240345   7.049   6.644   9.615  1.1892 -0.2216  0.5190
12780SOL     OW40346   0.745   8.271   1.094 -0.1249 -0.7399  0.2470
12780SOL    HW140347   0.744   8.362   1.065 -1.4053 -0.7004  0.3606
12780SOL    HW240348   0.813   8.268   1.161  0.4476 -0.0463 -0.2916
12781SOL     OW40349   1.287   8.237   0.398 -0.7207 -0.2489 -0.1279
12781SOL    HW140350   1.229   8.219   0.472 -1.2644  0.9535 -0.2384
12781SOL    HW240351   1.291   8.332   0.393 -0.4442 -0.3107 -1.4597
12782SOL     OW40352  10.334   1.165   2.581  0.3013 -0.2698 -0.1040
12782SOL    HW140353  10.247   1.150   2.618  1.5133 -0.2540  3.0254
12782SOL    HW240354  10.329   1.253   2.543 -0.2848  1.0134  2.7341
12783SOL     OW40355  10.380   0.040  10.482  0.4937  0.2028 -0.0141
12783SOL    HW140356  10.447   0.085  10.429  1.8219 -0.6728  0.8546
12783SOL    HW240357  10.423  -0.042  10.509 -1.1998 -0.7159 -0.0019
12784SOL     OW40358   3.843   0.657   8.403  0.1444 -0.9916 -0.4345
12784SOL    HW140359   3.889   0.728   8.357 -0.4818 -1.5004 -1.9096
12784SOL    HW240360   3.754   0.660   8.368 -0.7503 -0.5763  1.7581
12785SOL     OW40361   5.096   0.537   3.650  0.0657 -0.2096  0.1055
12785SOL    HW140362   5.014   0.490   3.662  0.5680 -0.8189  1.3565
12785SOL    HW240363   5.140   0.531   3.735  1.8931 -0.8183 -0.8303
12786SOL     OW40364  10.239   4.939  10.114 -0.3195  0.2392  0.3159
12786SOL    HW140365  10.334   4.941  10.117 -0.2815 -0.5436 -0.0760
12786SOL    HW240366  10.213   4.905  10.200 -0.1351 -1.5951 -0.3020
12787SOL     OW40367   9.602   9.706  10.839  0.6858 -0.1622 -0.2563
12787SOL    HW140368   9.628   9.629  10.789  0.5781  0.4674 -1.3208
12787SOL    HW240369   9.516   9.730  10.804  0.6024  0.2880  0.2426
12788SOL     OW40370   6.391   0.465   2.628 -0.7430  0.1013  0.8379
12788SOL    HW140371   6.317   0.513   2.592 -0.6329  0.3011  0.8791
12788SOL    HW240372   6.402   0.390   2.569 -2.0933 -0.9220  1.8214
12789SOL     OW40373   2.178   8.352   0.890 -0.0901  0.1914 -0.2157
12789SOL    HW140374   2.248   8.287   0.891  1.0207  1.3147 -0.9388
12789SOL    HW240375   2.117   8.322   0.822 -0.1024 -0.5738  0.1257
12790SOL     OW40376   2.612   0.108  10.733  0.0215 -0.3346  0.4099
12790SOL    HW140377   2.681   0.056  10.773 -0.1080 -1.2683 -0.5328
12790SOL    HW240378   2.622   0.094  10.639 -1.6250 -0.7232  0.2568
12791SOL     OW40379   1.882   7.657   4.559 -0.1224 -0.1807 -0.3785
12791SOL    HW140380   1.897   7.657   4.465  0.9805 -0.9100 -0.2212
12791SOL    HW240381   1.941   7.724   4.593 -2.5089  2.0887 -0.4472
12792SOL     OW40382   7.145   3.057   5.547  0.1922  0.4506 -0.2590
12792SOL    HW140383   7.130   3.128   5.610  1.9595  0.3147  0.3825
12792SOL    HW240384   7.071   3.061   5.488 -0.8203  1.4869  1.0169
12793SOL     OW40385   7.567   4.374   4.294  0.4133 -0.0858  0.1532
12793SOL    HW140386   7.620   4.430   4.237  0.1954 -3.1135 -3.3842
12793SOL    HW240387   7.479   4.410   4.288  0.0579 -1.1980 -2.9547
12794SOL     OW40388   5.248   9.244   5.457 -0.0062 -0.3072  0.0090
12794SOL    HW140389   5.249   9.250   5.552  0.2671  0.3782 -0.0279
12794SOL    HW240390   5.243   9.335   5.427 -2.6726 -0.5880 -0.6188
12795SOL     OW40391   5.979   7.188   3.616  0.1893  0.3502  0.2307
12795SOL    HW140392   5.955   7.226   3.700  0.6821 -0.5599  0.7946
12795SOL    HW240393   6.055   7.238   3.587 -0.5117  1.2460 -0.1122
12796SOL     OW40394   5.791   9.960   8.262 -0.0640 -0.1676 -0.2209
12796SOL    HW140395   5.795   9.882   8.207 -0.6710  0.1431 -0.7208
12796SOL    HW240396   5.856  10.019   8.224 -1.1689  0.4354 -1.2514
12797SOL     OW40397   1.289   8.691   2.476 -0.1759 -0.3126  0.0627
12797SOL    HW140398   1.285   8.603   2.440 -0.9710 -0.5651  0.7461
12797SOL    HW240399   1.296   8.678   2.571  0.7527  0.3534  0.1056
12798SOL     OW40400   5.084   0.931   3.324 -0.1993  0.0254  0.6214
12798SOL    HW140401   5.168   0.921   3.367  0.5865  2.0995 -0.2795
12798SOL    HW240402   5.088   1.018   3.284 -1.5622 -1.0142 -2.0420
12799SOL     OW40403   0.262   1.464   2.940 -0.1408 -0.0252 -0.2009
12799SOL    HW140404   0.171   1.464   2.911 -0.2645  0.9901  0.1294
12799SOL    HW240405   0.259   1.428   3.028  0.0306 -1.6566 -0.8296
12800SOL     OW40406   9.874  10.748   8.213  0.3272 -0.3057  0.4038
12800SOL    HW140407   9.868  10.668   8.160  0.0692  0.9169 -1.5206
12800SOL    HW240408   9.941  10.801   8.170 -0.7535  1.2562  0.5584
12801SOL     OW40409   2.447   0.441   3.083 -0.8090 -0.3006  0.1250
12801SOL    HW140410   2.527   0.394   3.061  0.4729  1.2679  1.2417
12801SOL    HW240411   2.380   0.372   3.089  0.5405 -1.7105 -0.3381
12802SOL     OW40412   1.173   4.989   8.025  0.1274 -0.1119 -1.1288
12802SOL    HW140413   1.118   4.916   8.052 -0.0016  0.9945  1.9728
12802SOL    HW240414   1.236   5.000   8.096  1.8460  1.1895 -2.7315
12803SOL     OW40415   8.011   3.099   1.917  0.1546 -0.2203 -0.3879
12803SOL    HW140416   7.944   3.105   1.849  0.1702 -2.4047 -0.6651
12803SOL    HW240417   7.962   3.091   1.998  0.0823 -0.8039 -0.4857
12804SOL     OW40418   7.567   8.626   2.042 -0.2975  0.2950 -0.1863
12804SOL    HW140419   7.644   8.661   2.086 -0.9129  1.1508  0.2393
12804SOL    HW240420   7.507   8.604   2.113 -0.6803  0.2021 -0.5357
12805SOL     OW40421   5.158   7.633   1.831 -0.3929  0.0265 -0.0436
12805SOL    HW140422   5.065   7.638   1.813 -0.6139 -1.7132  0.4646
12805SOL    HW240423   5.165   7.576   1.907  0.8934  2.5452  1.8949
12806SOL     OW40424   8.766  10.460   9.835  0.5821 -0.6744 -0.5187
12806SOL    HW140425   8.834  10.527   9.841  0.5419 -0.5090 -1.6713
12806SOL    HW240426   8.812  10.384   9.797  0.1233 -0.5368 -1.3771
12807SOL     OW40427   5.476   2.573   1.130 -0.0583  0.5381  0.1080
12807SOL    HW140428   5.513   2.584   1.218 -1.0013  0.2348  0.5603
12807SOL    HW240429   5.436   2.486   1.132  0.3325  0.3337 -0.7874
12808SOL     OW40430   5.316   2.460   8.917 -0.5360 -0.2039  0.2038
12808SOL    HW140431   5.390   2.521   8.918 -0.8659  0.2424 -0.8695
12808SOL    HW240432   5.239   2.517   8.916 -0.8476 -0.4925 -2.8534
12809SOL     OW40433   7.581   1.427   3.558  0.0576 -0.0574 -0.2476
12809SOL    HW140434   7.593   1.520   3.580  0.5424 -0.3645  0.8297
12809SOL    HW240435   7.668   1.396   3.535  0.3329 -0.7511  1.5135
12810SOL     OW40436   9.269   1.757   7.814 -0.1933  0.2507  0.1570
12810SOL    HW140437   9.288   1.698   7.741  0.5007  0.8287 -0.1486
12810SOL    HW240438   9.348   1.812   7.821  0.1371 -0.3760  1.9078
12811SOL     OW40439   3.205   0.254   1.042 -0.5436 -0.0466  0.8733
12811SOL    HW140440   3.113   0.230   1.032 -0.0139 -2.4543  1.1697
12811SOL    HW240441   3.228   0.296   0.959 -1.3682 -1.4340 -0.0898
12812SOL     OW40442   4.913   6.382  10.134  0.2820 -0.1381  0.2764
12812SOL    HW140443   4.987   6.347  10.085 -0.5113  0.2951 -1.3001
12812SOL    HW240444   4.904   6.472  10.103 -0.4631  0.0413  0.9730
12813SOL     OW40445   1.588  10.533   7.902 -1.0807 -0.1230  0.1864
12813SOL    HW140446   1.670  10.540   7.950 -2.6003 -1.3691  3.2415
12813SOL    HW240447   1.608  10.473   7.830  0.6844 -0.4219  0.8633
12814SOL     OW40448   6.762   3.027   1.036  0.6831 -0.1071  0.2756
12814SOL    HW140449   6.721   3.107   1.067 -1.1207 -0.7162 -0.4427
12814SOL    HW240450   6.835   3.056   0.981 -1.0949  1.0950 -1.5377
12815SOL     OW40451   4.681   3.028   6.597  0.0132  0.3034  1.1856
12815SOL    HW140452   4.612   2.966   6.575 -0.8305  1.8157 -0.7469
12815SOL    HW240453   4.762   2.978   6.587 -0.4486  0.0123 -2.9851
12816SOL     OW40454   7.335   4.910   6.014  0.4330  0.0299  0.0510
12816SOL    HW140455   7.307   4.822   5.988  1.3457  0.1244 -1.3465
12816SOL    HW240456   7.427   4.915   5.988  1.2347  0.4482  2.6220
12817SOL     OW40457   6.866   0.950   9.101 -0.3413 -0.2767  0.1551
12817SOL    HW140458   6.936   0.893   9.069  0.9968  1.3913 -0.0315
12817SOL    HW240459   6.809   0.964   9.026 -0.2599 -0.7579  0.0020
12818SOL     OW40460  10.265   4.618   5.573  0.3843  0.3280  0.3646
12818SOL    HW140461  10.191   4.575   5.529 -0.5465  0.9123  1.3016
12818SOL    HW240462  10.315   4.546   5.611 -0.1616 -0.0425  0.4036
12819SOL     OW40463   4.920   4.444   9.078 -0.0367  0.1660  0.5970
12819SOL    HW140464   4.869   4.364   9.070  0.0973  0.2173 -1.0771
12819SOL    HW240465   5.006   4.414   9.107 -0.1033 -0.2553  0.3738
12820SOL     OW40466   4.462   9.044   1.465 -0.0618 -0.4844  0.2421
12820SOL    HW140467   4.510   9.116   1.507  0.8051 -0.4582 -0.7568
12820SOL    HW240468   4.492   9.044   1.374 -4.0082  1.3726 -1.3128
12821SOL     OW40469   4.960   2.036   9.269  0.3980  0.3491  0.0255
12821SOL    HW140470   5.018   2.111   9.258  0.1190  0.3646 -1.4510
12821SOL    HW240471   4.923   2.020   9.182  0.5619 -1.5889  0.2636
12822SOL     OW40472   4.707   7.452   1.136  0.5807 -0.0017 -0.5749
12822SOL    HW140473   4.678   7.391   1.068  3.3927 -1.0204 -1.0087
12822SOL    HW240474   4.777   7.503   1.095  1.7768 -0.0464  1.2574
12823SOL     OW40475   6.536   3.878   7.051 -0.1348  0.1536 -0.3527
12823SOL    HW140476   6.448   3.890   7.016 -0.8471 -0.9330  1.0029
12823SOL    HW240477   6.591   3.933   6.995 -1.7058  1.1550 -0.9848
12824SOL     OW40478   3.458   2.353   6.789 -0.1405  0.0366  0.0223
12824SOL    HW140479   3.540   2.351   6.739  0.2593  2.2695  0.4494
12824SOL    HW240480   3.392   2.382   6.725 -0.5798 -1.5524 -0.2699
12825SOL     OW40481   5.566   3.715   8.775 -0.3220  0.5452  0.4501
12825SOL    HW140482   5.639   3.706   8.837 -0.4382 -2.0193  0.2877
12825SOL    HW240483   5.488   3.721   8.830 -0.1868  1.1434  0.5834
12826SOL     OW40484   6.733   6.620   3.945 -0.2252  0.0991  0.6767
12826SOL    HW140485   6.827   6.624   3.925 -0.2245  1.7848  0.8798
12826SOL    HW240486   6.726   6.558   4.017  0.5911 -0.8316 -0.0080
12827SOL     OW40487   6.222  10.586   3.047  0.8161 -0.0541 -0.3697
12827SOL    HW140488   6.251  10.629   3.128  0.4580  0.8597 -0.7145
12827SOL    HW240489   6.301  10.582   2.993  0.7101  0.7805 -0.5939
12828SOL     OW40490   2.081   8.015   3.739 -0.0476 -0.3447 -0.0659
12828SOL    HW140491   2.126   8.099   3.739 -0.6016  0.0068 -2.4996
12828SOL    HW240492   2.114   7.970   3.817  1.4284  1.4851  0.4266
12829SOL     OW40493   7.630   8.877   9.342  0.0068  0.4061 -0.2567
12829SOL    HW140494   7.664   8.957   9.302  0.7118  0.4944  0.5032
12829SOL    HW240495   7.628   8.813   9.271  0.4038  0.8110 -0.6377
12830SOL     OW40496   2.318   8.907   3.688  0.3175 -0.2799 -0.0794
12830SOL    HW140497   2.316   8.981   3.750  1.9273  0.7232 -1.1416
12830SOL    HW240498   2.361   8.942   3.610  0.0269 -2.0274 -1.0772
12831SOL     OW40499   8.627   1.192   6.411 -0.3854 -0.1997 -0.1705
12831SOL    HW140500   8.589   1.115   6.367 -0.4494  0.2546 -0.9255
12831SOL    HW240501   8.715   1.165   6.435 -0.1701 -0.2881 -1.0445
12832SOL     OW40502   0.055   6.834  11.017  0.2868  0.2286 -0.5266
12832SOL    HW140503   0.032   6.809  11.107 -0.9244  0.8644 -0.6371
12832SOL    HW240504   0.150   6.822  11.013  0.2072 -0.9281  0.4716
12833SOL     OW40505   1.716   7.029   1.068 -0.3036  0.3068 -0.5695
12833SOL    HW140506   1.798   7.051   1.023 -0.8737  0.6602 -1.4598
12833SOL    HW240507   1.690   6.944   1.031  1.0548 -1.1879  1.6981
12834SOL     OW40508   4.806   7.121   7.470  0.2012  0.3290  0.3892
12834SOL    HW140509   4.785   7.195   7.414  1.9942  1.2477  0.8604
12834SOL    HW240510   4.867   7.068   7.419  0.3064  0.1110  0.7330
12835SOL     OW40511   2.052   0.015   4.466  0.0594 -0.3315 -0.4616
12835SOL    HW140512   2.145   0.030   4.453 -0.0662  0.9196 -0.0303
12835SOL    HW240513   2.011   0.100   4.451 -0.7394 -0.2674  1.7359
12836SOL     OW40514   6.669   9.695   1.316  0.5870  0.2633 -0.2051
12836SOL    HW140515   6.633   9.641   1.386  0.8177 -0.4626 -0.6371
12836SOL    HW240516   6.763   9.682   1.320  0.5856  0.0368 -0.7892
12837SOL     OW40517   4.156  10.037   1.665  0.3500 -0.2369 -0.5302
12837SOL    HW140518   4.080   9.980   1.650 -0.2862  0.3646  0.2768
12837SOL    HW240519   4.133  10.120   1.623 -0.2128  0.5115  1.1699
12838SOL     OW40520   1.115   5.829  10.987  0.0670 -0.4845  0.0517
12838SOL    HW140521   1.094   5.858  11.075 -0.1898 -0.0654 -0.1444
12838SOL    HW240522   1.032   5.799  10.950 -0.0050  0.1782 -0.3530
12839SOL     OW40523   5.824   9.077   7.285  0.1416 -0.3647 -0.0942
12839SOL    HW140524   5.815   9.104   7.194 -1.4552 -1.9721 -0.4544
12839SOL    HW240525   5.892   9.009   7.283 -1.0890 -1.6350 -0.4124
12840SOL     OW40526   3.963   5.100   1.737 -0.5092 -0.6777 -0.1219
12840SOL    HW140527   3.997   5.053   1.813  3.6899 -0.9253 -1.8157
12840SOL    HW240528   3.984   5.192   1.754  1.8640 -0.8905 -1.4077
12841SOL     OW40529   9.379   1.622   7.600  0.2755  0.8272 -0.2550
12841SOL    HW140530   9.425   1.542   7.574 -2.2077 -0.5762 -0.6896
12841SOL    HW240531   9.373   1.673   7.520  0.0880  0.4570 -0.4841
12842SOL     OW40532   6.583   6.517   3.302 -0.7628  0.1145 -0.2662
12842SOL    HW140533   6.612   6.426   3.290 -3.9255 -1.5947  3.0376
12842SOL    HW240534   6.504   6.524   3.248  0.8318  1.8912 -2.5322
12843SOL     OW40535   7.364   8.245   3.940 -0.0720 -0.3491 -0.5344
12843SOL    HW140536   7.351   8.194   4.020  1.9372 -0.0517  0.0402
12843SOL    HW240537   7.313   8.199   3.874 -1.3989 -0.8759  0.8033
12844SOL     OW40538   2.605   4.855   7.490  0.4000  0.4062  0.0453
12844SOL    HW140539   2.675   4.890   7.546 -0.2531 -0.6766  1.6318
12844SOL    HW240540   2.557   4.932   7.460  0.4324  1.0204  1.4854
12845SOL     OW40541   5.606   4.832   3.450 -0.3061 -0.3282  0.2608
12845SOL    HW140542   5.511   4.833   3.445 -0.3215 -1.2563  0.0975
12845SOL    HW240543   5.632   4.923   3.442 -1.0976 -0.2222 -1.4430
12846SOL     OW40544   5.573   0.354   2.262  0.4632  0.1653 -0.1733
12846SOL    HW140545   5.572   0.277   2.207  2.8356  0.3881 -0.6230
12846SOL    HW240546   5.482   0.384   2.264 -0.3674 -2.1929 -0.5600
12847SOL     OW40547   2.057   2.876   3.908 -0.0235  0.3386 -0.3849
12847SOL    HW140548   1.986   2.812   3.904  0.3809 -0.1007 -0.6001
12847SOL    HW240549   2.045   2.919   3.992 -0.3810  0.0735 -0.2966
12848SOL     OW40550   3.949   3.449   2.641  0.7168  0.0911  0.1135
12848SOL    HW140551   3.934   3.372   2.695 -0.6204  0.7249  0.6838
12848SOL    HW240552   3.968   3.413   2.554 -1.1901 -0.8962  0.0434
12849SOL     OW40553   4.309   2.390   7.559  0.0468  0.5170  0.0075
12849SOL    HW140554   4.385   2.395   7.617  2.6342  0.4857 -3.0738
12849SOL    HW240555   4.292   2.297   7.550 -0.6806  0.5381  1.0297
12850SOL     OW40556   5.442  10.568   4.871 -0.0355  0.1531 -0.5673
12850SOL    HW140557   5.417  10.643   4.816  0.7497  0.8626  0.0094
12850SOL    HW240558   5.373  10.562   4.937 -0.0344  0.4569 -0.5352
12851SOL     OW40559   2.489   2.808  10.151  0.3386 -0.0332  0.2887
12851SOL    HW140560   2.401   2.794  10.185  1.0944 -1.3373  1.8434
12851SOL    HW240561   2.534   2.725  10.166  1.9159  0.6992 -0.2059
12852SOL     OW40562   2.540   4.788   4.978 -0.1119  0.6963  0.0301
12852SOL    HW140563   2.455   4.751   4.954  0.2365 -1.3611  1.7250
12852SOL    HW240564   2.538   4.794   5.074  0.9110  2.5945 -0.0083
12853SOL     OW40565   9.860   7.732   0.446  0.0998  0.0002 -0.5077
12853SOL    HW140566   9.866   7.637   0.433  1.3904 -0.1469  0.8603
12853SOL    HW240567   9.851   7.768   0.358  2.3760 -1.2388 -1.3242
12854SOL     OW40568   1.217   9.149   2.944  0.2633  0.2945 -0.1457
12854SOL    HW140569   1.231   9.122   2.853  0.5438  0.2548 -0.0928
12854SOL    HW240570   1.282   9.099   2.994  0.5357  0.7859 -0.0034
12855SOL     OW40571   0.182   0.004   8.375 -0.4730  0.2183 -0.2389
12855SOL    HW140572   0.214   0.071   8.436  1.9416 -0.8398 -0.2452
12855SOL    HW240573   0.104  -0.031   8.418  0.0703  0.8248  1.3233
12856SOL     OW40574   2.794   2.615   6.956  0.1195  0.1128  0.4897
12856SOL    HW140575   2.708   2.600   6.915 -0.7378  2.0777  1.4427
12856SOL    HW240576   2.782   2.589   7.047  0.7325 -0.1906  0.4861
12857SOL     OW40577   5.239   4.405   4.306 -0.0574 -0.1837  0.1796
12857SOL    HW140578   5.215   4.483   4.255 -1.1878  0.4456  1.6146
12857SOL    HW240579   5.165   4.392   4.366  0.4865 -1.8866  0.5277
12858SOL     OW40580   9.105   3.907   7.918  0.4463 -0.2274 -0.1101
12858SOL    HW140581   9.155   3.852   7.858 -0.3206 -1.2257  0.1541
12858SOL    HW240582   9.092   3.853   7.995 -0.9872  0.0354 -0.1480
12859SOL     OW40583   6.950   9.223   0.546 -0.2812  0.5612 -0.3105
12859SOL    HW140584   6.901   9.140   0.542 -1.0589  1.0124 -0.3585
12859SOL    HW240585   6.959   9.249   0.454  0.9118 -0.0046 -0.3673
12860SOL     OW40586   9.557   6.347   7.047 -0.3051 -0.5214 -0.6364
12860SOL    HW140587   9.617   6.416   7.074 -0.4738  0.6633 -2.9704
12860SOL    HW240588   9.572   6.276   7.109  1.1320  0.9558  0.8100
12861SOL     OW40589   6.483   2.626   2.659 -0.1233  0.0797  0.3581
12861SOL    HW140590   6.522   2.630   2.571 -0.0123  0.3952  0.4178
12861SOL    HW240591   6.518   2.704   2.703  0.2654 -0.3814  0.8657
12862SOL     OW40592  10.228   8.331  10.539 -0.1016 -0.1384 -0.3871
12862SOL    HW140593  10.307   8.383  10.522  0.3703 -0.8128 -0.2654
12862SOL    HW240594  10.165   8.395  10.573 -0.0218  0.6347 -1.6569
12863SOL     OW40595   6.859   7.343  10.255 -0.0774  0.1523  0.0845
12863SOL    HW140596   6.917   7.307  10.322  0.6008  0.4633 -0.3230
12863SOL    HW240597   6.837   7.431  10.286  0.0323  0.2017  0.0229
12864SOL     OW40598   9.864  10.312   1.506  0.5130  0.0228  0.2420
12864SOL    HW140599   9.934  10.295   1.568  1.6816  0.8203 -0.8093
12864SOL    HW240600   9.859  10.232   1.452  0.8675  0.1134  0.0775
12865SOL     OW40601   1.639   5.031   2.925 -0.5062  0.3819 -0.0444
12865SOL    HW140602   1.573   4.975   2.965  0.1723 -0.6855 -0.3716
12865SOL    HW240603   1.722   4.996   2.957 -0.0736  1.5273  0.1449
12866SOL     OW40604   7.536   2.170  10.911 -0.2249 -0.0930  0.5034
12866SOL    HW140605   7.582   2.193  10.993  0.5349  1.7558 -0.3709
12866SOL    HW240606   7.590   2.102  10.872  0.1176 -0.0749  0.9300
12867SOL     OW40607   3.594   7.806  10.410 -0.5085 -0.0546 -0.3287
12867SOL    HW140608   3.617   7.847  10.327 -0.9210 -0.2832 -0.5633
12867SOL    HW240609   3.674   7.764  10.440 -0.1608  0.6781 -0.2233
12868SOL     OW40610   7.411   5.240   5.668  0.0059 -0.2627  0.1193
12868SOL    HW140611   7.492   5.188   5.665  1.1070  1.2861  1.3756
12868SOL    HW240612   7.440   5.331   5.664 -1.8839  0.3370 -2.0425
12869SOL     OW40613   6.104   7.199   1.821 -0.0972  0.3751 -0.1244
12869SOL    HW140614   6.049   7.275   1.846  0.6649  1.1468 -0.7417
12869SOL    HW240615   6.097   7.140   1.896 -3.6591 -0.6802 -1.0710
12870SOL     OW40616   8.400   3.592  10.445 -0.3932 -0.5483  0.2288
12870SOL    HW140617   8.398   3.497  10.438 -0.4893 -0.4762 -0.8691
12870SOL    HW240618   8.394   3.610  10.539 -1.9547 -1.5819  0.3492
12871SOL     OW40619   0.356   9.468   5.283  0.0408  0.2981 -0.3377
12871SOL    HW140620   0.324   9.386   5.248 -0.7466  0.8877 -1.0393
12871SOL    HW240621   0.326   9.470   5.374 -0.1684 -0.0650 -0.4009
12872SOL     OW40622   7.931  10.026   6.793 -0.2098  0.2871 -0.6786
12872SOL    HW140623   7.876  10.102   6.771 -1.1342 -0.5060 -1.2067
12872SOL    HW240624   7.888   9.987   6.870 -0.9195 -0.8242 -1.6016
12873SOL     OW40625   9.639   0.687   5.525 -0.3228  0.5866  0.3018
12873SOL    HW140626   9.628   0.770   5.479 -2.7286  1.4768  2.3002
12873SOL    HW240627   9.691   0.634   5.465 -1.4402  2.3972 -2.4754
12874SOL     OW40628   1.438   2.942   3.418 -0.5338  0.1409 -0.1737
12874SOL    HW140629   1.516   2.964   3.368 -1.1798  0.2659 -1.1502
12874SOL    HW240630   1.469   2.930   3.508  0.7244 -0.5435 -0.6803
12875SOL     OW40631   1.120   7.052   3.275  0.6979 -0.0132  0.4162
12875SOL    HW140632   1.026   7.034   3.266  0.9450 -0.7917 -1.0515
12875SOL    HW240633   1.155   6.972   3.315  1.1435 -1.1144 -1.9653
12876SOL     OW40634   6.991   5.735   6.020  0.6348  0.4582  0.7688
12876SOL    HW140635   6.953   5.712   6.105 -1.1422 -1.5148 -0.4614
12876SOL    HW240636   7.078   5.697   6.022  0.1760 -0.6275  1.3136
12877SOL     OW40637   1.098   8.903   1.877  0.1292  0.2618 -0.0328
12877SOL    HW140638   1.136   8.831   1.928  0.0235  1.5576  1.9760
12877SOL    HW240639   1.168   8.929   1.817  0.7165 -0.5033  0.3028
12878SOL     OW40640   5.891   8.597   6.093 -0.3531  0.8041 -0.1326
12878SOL    HW140641   5.828   8.537   6.134 -0.9819 -0.4697 -2.7015
12878SOL    HW240642   5.836   8.660   6.046  0.3280  2.4482  1.1891
12879SOL     OW40643   0.675   9.576   7.567 -0.4099  0.0013  0.1988
12879SOL    HW140644   0.770   9.590   7.572 -0.7577  2.4455  1.0387
12879SOL    HW240645   0.665   9.481   7.572  2.0495 -0.4288 -1.3480
12880SOL     OW40646   5.175   4.569   6.880 -0.5699 -0.0590  0.0944
12880SOL    HW140647   5.260   4.612   6.885 -0.5922 -0.0573  0.4776
12880SOL    HW240648   5.188   4.485   6.924 -0.9803  0.2875  0.9034
12881SOL     OW40649   4.699   5.522  10.825  0.2791 -0.9011 -0.1195
12881SOL    HW140650   4.760   5.595  10.834 -0.3334 -0.6005  2.2818
12881SOL    HW240651   4.722   5.482  10.741  2.0923  0.6898 -0.4596
12882SOL     OW40652   1.741   2.021   8.681  0.3839 -0.6463  0.0240
12882SOL    HW140653   1.757   1.955   8.749  0.6639  0.9314  1.5529
12882SOL    HW240654   1.656   1.997   8.644  0.8349 -2.3091 -0.0252
12883SOL     OW40655   2.753   0.253   8.783  0.4346  0.5153 -0.1301
12883SOL    HW140656   2.699   0.178   8.807  1.1438  0.7439  2.4453
12883SOL    HW240657   2.696   0.306   8.727 -1.4992 -0.0051  1.2405
12884SOL     OW40658   2.177   8.929   1.200  0.0515 -0.6716 -0.0129
12884SOL    HW140659   2.246   8.993   1.187 -0.4772 -0.4701 -2.1576
12884SOL    HW240660   2.117   8.971   1.262 -0.8833  1.4767 -2.2219
12885SOL     OW40661   6.102   2.206   6.112  0.6484  0.6028  0.1770
12885SOL    HW140662   6.104   2.263   6.036  0.9528  1.6555  0.9550
12885SOL    HW240663   6.039   2.138   6.089  1.1470  0.5903 -1.2187
12886SOL     OW40664   9.495   5.558   6.741 -0.0171  0.2244  0.0716
12886SOL    HW140665   9.414   5.607   6.728 -2.1361 -2.0742  3.1039
12886SOL    HW240666   9.517   5.525   6.654 -2.7649  0.3808 -0.7933
12887SOL     OW40667   2.263   1.690   5.347  0.7437 -0.0815  0.3039
12887SOL    HW140668   2.325   1.738   5.401  0.0314  0.5235  0.6113
12887SOL    HW240669   2.286   1.714   5.257 -0.0865  1.5219  0.4693
12888SOL     OW40670   2.740   0.829   4.937 -0.1605 -0.0768  0.3284
12888SOL    HW140671   2.654   0.795   4.914  0.4468  0.1185 -2.7110
12888SOL    HW240672   2.786   0.754   4.974 -0.8925 -0.8146 -0.2185
12889SOL     OW40673   0.409   4.254   2.287  0.2350  0.3060  0.4383
12889SOL    HW140674   0.406   4.177   2.231 -0.7878  0.3847  0.3653
12889SOL    HW240675   0.459   4.226   2.364  2.9778  0.6368 -1.1005
12890SOL     OW40676  10.303   0.902   0.869 -0.4236  0.1169 -0.4146
12890SOL    HW140677  10.213   0.869   0.875 -0.5018  0.4518  0.3787
12890SOL    HW240678  10.354   0.827   0.838 -0.8261 -0.3415  0.0131
12891SOL     OW40679   3.854   3.048   9.780  0.3009 -0.1450  0.4660
12891SOL    HW140680   3.904   3.117   9.824  0.0697  0.4189 -0.1278
12891SOL    HW240681   3.820   2.994   9.851 -0.7763  1.2407  1.0746
12892SOL     OW40682  10.195   6.739   8.737 -0.3526 -0.1293  0.5716
12892SOL    HW140683  10.221   6.711   8.649 -0.2350  0.3490  0.4544
12892SOL    HW240684  10.230   6.670   8.795  1.5217  0.6434  0.4534
12893SOL     OW40685   7.727   6.035   2.065 -0.0218 -0.6191  0.4038
12893SOL    HW140686   7.772   6.114   2.038  0.0066 -0.5568  0.6296
12893SOL    HW240687   7.773   5.964   2.020  1.5354 -0.7487  2.0794
12894SOL     OW40688   0.817   1.210   8.892 -0.2948 -0.1488 -0.0146
12894SOL    HW140689   0.870   1.255   8.827  0.3180 -0.9666 -0.1060
12894SOL    HW240690   0.802   1.123   8.854 -1.2384 -0.1125  0.2581
12895SOL     OW40691   2.054   7.498   2.946 -0.2377 -0.1161 -1.2249
12895SOL    HW140692   2.079   7.405   2.944 -1.3370 -0.5006  0.6159
12895SOL    HW240693   1.961   7.497   2.968 -0.3913  1.4186 -1.7224
12896SOL     OW40694   0.380   2.217   1.814  0.0110 -0.5242  0.1560
12896SOL    HW140695   0.293   2.215   1.775  0.5820  0.2164 -1.2516
12896SOL    HW240696   0.420   2.134   1.788 -0.5493 -1.2781  1.5734
12897SOL     OW40697   3.673   8.702   8.425  0.2004  0.3247 -0.4548
12897SOL    HW140698   3.701   8.628   8.371 -0.9258 -1.2762  1.0744
12897SOL    HW240699   3.650   8.664   8.509 -1.8929  2.2065 -0.0861
12898SOL     OW40700   3.793   8.358   7.200  0.0412  0.2449  0.0204
12898SOL    HW140701   3.847   8.429   7.164 -0.7023 -0.1234 -1.9593
12898SOL    HW240702   3.740   8.328   7.125 -0.6044 -1.5242  1.1306
12899SOL     OW40703  10.858   9.135   9.212  0.3251  0.6531 -0.1804
12899SOL    HW140704  10.781   9.088   9.179  0.2161  0.3734  0.4376
12899SOL    HW240705  10.828   9.225   9.225 -0.4672  0.1613  1.7914
12900SOL     OW40706   6.732   3.104   2.471 -0.7731  0.3127  0.8347
12900SOL    HW140707   6.655   3.047   2.465 -0.9259  0.4731  1.2642
12900SOL    HW240708   6.794   3.054   2.524 -0.3820 -0.0302  0.0769
12901SOL     OW40709   0.140   5.825   2.621 -0.1728 -0.1262 -0.2985
12901SOL    HW140710   0.165   5.869   2.702 -0.9554 -0.8146  0.3291
12901SOL    HW240711   0.211   5.846   2.559  1.2180 -0.8432  0.9918
12902SOL     OW40712   6.176   5.750   2.514 -0.1024 -0.4232 -0.7503
12902SOL    HW140713   6.206   5.839   2.529 -0.9666 -0.2457  0.0240
12902SOL    HW240714   6.151   5.748   2.422 -1.4322  0.5566 -0.4312
12903SOL     OW40715  10.097   7.233   6.013 -0.4857 -0.1411  0.0570
12903SOL    HW140716  10.131   7.322   6.023 -1.4302  0.1249  1.1112
12903SOL    HW240717  10.014   7.233   6.060  0.0722 -1.9135  1.1849
12904SOL     OW40718   7.212   3.895   8.751  0.3817 -0.0684 -0.3410
12904SOL    HW140719   7.189   3.981   8.714  1.6990  1.2184  1.5921
12904SOL    HW240720   7.307   3.891   8.743  0.1902 -2.4423 -2.4624
12905SOL     OW40721   2.658  10.894   5.824  0.1917  0.1187  0.6545
12905SOL    HW140722   2.622  10.818   5.870 -0.4233  0.5732  0.9455
12905SOL    HW240723   2.718  10.934   5.887  0.4850 -0.1030  0.5159
12906SOL     OW40724   2.665   9.684   6.055  0.6126 -0.2293 -0.8316
12906SOL    HW140725   2.692   9.767   6.095  0.2132 -0.2042 -0.6012
12906SOL    HW240726   2.617   9.710   5.976  0.4978 -0.2401 -0.7658
12907SOL     OW40727   2.568   7.469   8.382 -0.2833 -0.3412  0.3530
12907SOL    HW140728   2.644   7.505   8.335 -0.1796 -1.4924 -0.4126
12907SOL    HW240729   2.509   7.543   8.393  0.5611  0.3739  0.1433
12908SOL     OW40730   7.779   5.788   6.510  0.4484  0.0461 -0.5148
12908SOL    HW140731   7.872   5.776   6.493  0.4441  1.5927 -1.7764
12908SOL    HW240732   7.774   5.870   6.560 -0.1627 -0.6590  0.6290
12909SOL     OW40733   0.963   7.806   5.756 -0.1002  0.5482 -0.0347
12909SOL    HW140734   0.904   7.789   5.682  0.2174  1.5011 -0.5258
12909SOL    HW240735   1.047   7.768   5.730 -0.3192 -0.2593  0.4013
12910SOL     OW40736   6.796   9.877   6.437 -0.3684  0.1518 -0.1363
12910SOL    HW140737   6.715   9.929   6.441 -0.7793 -0.3226 -1.6258
12910SOL    HW240738   6.822   9.881   6.345 -0.2927 -2.0651 -0.2634
12911SOL     OW40739   1.775   1.178   1.419  0.3851 -0.2352  0.1665
12911SOL    HW140740   1.755   1.099   1.469 -0.6644 -0.7220 -0.9530
12911SOL    HW240741   1.689   1.211   1.391  0.9161 -0.6415 -2.2296
12912SOL     OW40742   4.300   5.133   3.434  0.5703  0.2085  0.1040
12912SOL    HW140743   4.384   5.116   3.390 -0.1446  0.3691 -1.3758
12912SOL    HW240744   4.248   5.181   3.370 -1.4764 -1.8347  0.1047
12913SOL     OW40745   8.853  10.366   1.663 -0.0905  0.3637 -0.3422
12913SOL    HW140746   8.921  10.299   1.657  0.8267  0.9676  1.8862
12913SOL    HW240747   8.849  10.387   1.757 -3.2415  0.5209 -0.4058
12914SOL     OW40748  11.026  10.215   9.206 -0.3681 -0.2844 -0.4635
12914SOL    HW140749  10.973  10.221   9.127 -0.2218 -0.1800 -0.5532
12914SOL    HW240750  11.018  10.123   9.233 -0.9303 -0.1700 -0.2419
12915SOL     OW40751   8.199   3.263   1.155  0.1288 -0.2049  0.0057
12915SOL    HW140752   8.284   3.302   1.133  0.3099 -0.7160 -0.2096
12915SOL    HW240753   8.205   3.244   1.248 -0.3578  1.2637  0.3686
12916SOL     OW40754   8.909   3.669   7.292 -0.5853 -0.0016 -0.6338
12916SOL    HW140755   8.847   3.600   7.313 -0.7138 -0.4992 -2.4548
12916SOL    HW240756   8.948   3.641   7.209  2.7339 -0.1688  0.8143
12917SOL     OW40757  10.921   8.926   2.546  0.2320  0.5806 -0.3488
12917SOL    HW140758  10.923   8.942   2.641  0.1859  1.3957 -0.4844
12917SOL    HW240759  10.828   8.923   2.524  0.2200 -0.5303 -0.2277
12918SOL     OW40760   0.356  10.970   0.057  0.3766  0.3497 -0.5346
12918SOL    HW140761   0.330  10.911   0.129  1.2471  0.3947 -0.1687
12918SOL    HW240762   0.338  10.920  -0.022  0.0157  0.0377 -0.2596
12919SOL     OW40763   3.401   4.852   0.969 -0.0904 -0.5626  0.0041
12919SOL    HW140764   3.444   4.859   1.054  0.7696 -0.0285 -0.4655
12919SOL    HW240765   3.310   4.830   0.990 -0.2400  0.9503  1.1344
12920SOL     OW40766   2.853   5.731  10.168  0.2488 -0.4571  0.1172
12920SOL    HW140767   2.886   5.680  10.094 -3.6311 -2.5762 -0.4335
12920SOL    HW240768   2.761   5.746  10.147 -0.7214 -0.0419  3.9374
12921SOL     OW40769   2.992   1.837   8.819 -0.3601  0.4012  0.5057
12921SOL    HW140770   2.974   1.758   8.767  0.5549  1.1327 -0.9944
12921SOL    HW240771   2.963   1.814   8.907 -0.5184 -1.4618  0.0265
12922SOL     OW40772  10.206   4.397   4.668 -0.1516 -0.2619 -0.1994
12922SOL    HW140773  10.199   4.358   4.581 -2.3055 -0.5437  0.0375
12922SOL    HW240774  10.163   4.482   4.659  1.3606  0.5873  0.1615
12923SOL     OW40775   1.162  10.127   4.695  0.0791 -0.1295 -0.3437
12923SOL    HW140776   1.067  10.112   4.698 -0.6281  3.5609  0.0760
12923SOL    HW240777   1.188  10.098   4.608 -1.5682 -0.5566 -0.7337
12924SOL     OW40778   2.808   0.851  10.434 -0.1288  0.2859  0.4480
12924SOL    HW140779   2.721   0.885  10.456 -0.3037 -0.0820  0.3368
12924SOL    HW240780   2.846   0.825  10.518  0.5188  1.9298  0.6843
12925SOL     OW40781   8.396   8.911   5.205 -0.1277  0.2180  0.3971
12925SOL    HW140782   8.474   8.874   5.163 -1.6862 -1.0759 -1.5989
12925SOL    HW240783   8.346   8.835   5.234 -1.4275  0.9226  0.0899
12926SOL     OW40784   6.330   5.705   9.035  0.3873  0.1419  0.0077
12926SOL    HW140785   6.346   5.717   8.941  1.0363  0.9858  0.2186
12926SOL    HW240786   6.264   5.770   9.057 -0.1571 -0.4130  0.0338
12927SOL     OW40787  10.606   7.861   4.749 -0.8513 -0.4279 -0.3526
12927SOL    HW140788  10.595   7.941   4.698  0.3039  1.0788  1.6173
12927SOL    HW240789  10.700   7.847   4.753 -0.7678  0.3065  2.4073
12928SOL     OW40790   7.166   3.216   4.203  0.4049  0.0732  0.3812
12928SOL    HW140791   7.132   3.227   4.292  1.3032 -0.8505  0.8754
12928SOL    HW240792   7.179   3.121   4.195  1.0217  0.2227 -0.4689
12929SOL     OW40793   2.119   7.870   5.137  0.1321 -0.2175  0.2264
12929SOL    HW140794   2.130   7.862   5.231 -2.2687 -1.5227  0.4755
12929SOL    HW240795   2.200   7.911   5.106  1.8040 -1.5381  2.5816
12930SOL     OW40796   9.305   5.808   2.113  0.6977  0.1176 -0.2286
12930SOL    HW140797   9.345   5.849   2.190  0.8512 -0.1573 -0.1610
12930SOL    HW240798   9.335   5.862   2.039  1.3905 -0.2270 -0.2026
12931SOL     OW40799   2.954   1.029   5.201 -0.8811  0.1054  0.1019
12931SOL    HW140800   2.881   0.986   5.247  0.4206 -0.8099  1.4173
12931SOL    HW240801   3.027   0.968   5.212 -0.0081  0.8185 -1.5363
12932SOL     OW40802   4.511   1.945   5.302  0.5650 -0.0348  0.1939
12932SOL    HW140803   4.569   1.999   5.248  0.1453  0.0214 -0.2073
12932SOL    HW240804   4.423   1.971   5.276  0.3240 -1.9061 -1.0404
12933SOL     OW40805   5.664   9.180   8.039  0.3851 -0.3681  0.4371
12933SOL    HW140806   5.705   9.113   7.984 -0.8347  0.4070 -1.5530
12933SOL    HW240807   5.607   9.132   8.098  0.4279 -1.1456 -0.1408
12934SOL     OW40808   5.991   6.449   3.788  0.3263 -0.2059 -0.2172
12934SOL    HW140809   6.027   6.378   3.735 -1.4324 -0.5093 -1.0793
12934SOL    HW240810   6.052   6.458   3.861  2.1747 -0.5792 -1.6582
12935SOL     OW40811   5.306   1.581   1.582  0.0420 -0.6358  0.2887
12935SOL    HW140812   5.316   1.557   1.490 -0.2259 -0.2610  0.1603
12935SOL    HW240813   5.368   1.652   1.595  0.6917 -1.2477  0.6199
12936SOL     OW40814   3.631   0.089   7.667 -0.0400 -0.0290 -0.1912
12936SOL    HW140815   3.664   0.105   7.578 -1.5866 -0.2236 -0.8276
12936SOL    HW240816   3.631   0.175   7.708  2.7289 -0.2280  0.4055
12937SOL     OW40817   8.889   1.555   2.946  0.2574  0.0349  0.1931
12937SOL    HW140818   8.819   1.541   2.882  1.6484 -0.4844 -1.2672
12937SOL    HW240819   8.895   1.472   2.993  0.3172 -0.1412 -0.1212
12938SOL     OW40820   2.250   9.788  10.657  0.4402  0.9085  0.3753
12938SOL    HW140821   2.172   9.740  10.628  0.5503  1.2506 -0.4991
12938SOL    HW240822   2.215   9.858  10.713  0.2615 -0.0087  1.4600
12939SOL     OW40823  10.515   9.532   1.748 -0.5671  0.0805 -0.5586
12939SOL    HW140824  10.576   9.594   1.706 -1.5994  1.5755  0.0860
12939SOL    HW240825  10.549   9.446   1.723  1.1737  0.8730 -1.1250
12940SOL     OW40826   0.433   4.419   5.248 -0.0433  0.4873  0.1352
12940SOL    HW140827   0.476   4.381   5.171  0.2623  0.3249  0.3813
12940SOL    HW240828   0.350   4.451   5.215 -0.1978 -0.1668 -0.1403
12941SOL     OW40829   1.849   7.278   8.042 -0.2947  0.0302 -0.2299
12941SOL    HW140830   1.825   7.189   8.066  1.8722 -0.5058  0.1433
12941SOL    HW240831   1.820   7.331   8.116  0.9257 -0.7761  0.8543
12942SOL     OW40832   8.286   8.405   6.986  0.1922  0.2382  0.0166
12942SOL    HW140833   8.352   8.440   6.926  3.6900 -2.7962  1.6915
12942SOL    HW240834   8.268   8.317   6.954 -0.5576 -0.1757  1.4766
12943SOL     OW40835   9.173   1.454   2.779 -0.0765 -0.3888  0.4418
12943SOL    HW140836   9.204   1.545   2.782  0.1546 -0.4793  0.9321
12943SOL    HW240837   9.219   1.416   2.704 -0.1872 -0.0959  0.2238
12944SOL     OW40838   6.079   9.252   3.062  0.1119 -0.0929 -0.0197
12944SOL    HW140839   6.029   9.331   3.044 -1.7342 -0.8942  1.1816
12944SOL    HW240840   6.061   9.194   2.988  2.3073  0.9033 -1.4316
12945SOL     OW40841   7.145   5.337   5.662 -0.1435 -0.3507 -0.0841
12945SOL    HW140842   7.160   5.384   5.744 -2.0873  0.4834 -0.1504
12945SOL    HW240843   7.219   5.277   5.654  2.9158  3.1223 -0.3397
12946SOL     OW40844   7.338   1.269   7.081 -1.0059  0.3188 -0.4079
12946SOL    HW140845   7.394   1.342   7.054 -0.0294  0.0765  0.8623
12946SOL    HW240846   7.371   1.195   7.030  0.1140  0.1035  0.5671
12947SOL     OW40847   0.207   6.697   3.721  0.2543  0.0381 -0.3182
12947SOL    HW140848   0.293   6.654   3.718  0.2703  0.0423  0.0229
12947SOL    HW240849   0.222   6.783   3.680  0.8241  0.7219  1.2157
12948SOL     OW40850   0.707   9.729   2.374 -0.2227  0.0326 -0.1126
12948SOL    HW140851   0.764   9.788   2.423 -0.4541 -0.8294  1.2439
12948SOL    HW240852   0.757   9.647   2.368 -0.4856 -0.0872 -0.7157
12949SOL     OW40853   0.336   1.029   1.939 -0.4410 -0.3039 -0.0832
12949SOL    HW140854   0.374   1.035   2.027  1.8048 -0.6799 -0.9598
12949SOL    HW240855   0.401   1.072   1.882 -2.7083  1.6456 -1.3658
12950SOL     OW40856   3.993   3.818   3.678  0.8849 -0.2364 -0.5177
12950SOL    HW140857   4.061   3.864   3.629  0.2774 -0.2597 -1.4088
12950SOL    HW240858   3.911   3.853   3.643  0.4358 -0.6514  0.1095
12951SOL     OW40859   3.950   9.598   0.885 -0.2494 -0.1264  0.2926
12951SOL    HW140860   4.007   9.627   0.814  0.2302 -0.1399  0.6657
12951SOL    HW240861   3.996   9.525   0.925 -0.0881  0.4321  1.1653
12952SOL     OW40862  10.583   5.948   4.659  0.1796  0.6615  0.3001
12952SOL    HW140863  10.492   5.963   4.683  0.0448  0.1252  0.1355
12952SOL    HW240864  10.592   5.853   4.656  0.7491  0.7082  0.3332
12953SOL     OW40865   3.524   4.388   0.629  0.1139  0.6354 -0.4349
12953SOL    HW140866   3.585   4.447   0.674 -0.5649  0.3278  0.9267
12953SOL    HW240867   3.453   4.375   0.691  0.4929 -2.0497 -0.4363
12954SOL     OW40868   5.731  10.529   3.696  0.2089 -0.0282 -0.1174
12954SOL    HW140869   5.657  10.502   3.751  1.6230 -3.1089  0.5082
12954SOL    HW240870   5.713  10.488   3.612 -0.4264  2.1227 -1.0890
12955SOL     OW40871   2.473   1.846   3.580  0.5410  0.3241  0.0787
12955SOL    HW140872   2.432   1.822   3.664  1.7450  0.1036  0.6244
12955SOL    HW240873   2.429   1.927   3.555 -0.5916 -0.1681  0.3721
12956SOL     OW40874   5.139   0.411   4.740  0.7461 -0.3716 -0.0233
12956SOL    HW140875   5.098   0.476   4.797  1.2062 -0.0582 -0.0443
12956SOL    HW240876   5.214   0.380   4.790  1.0622 -0.2071 -0.3972
12957SOL     OW40877   7.039  10.956   6.462  0.1106  0.2640  0.1032
12957SOL    HW140878   6.955  10.912   6.473 -0.0153  0.2273 -0.8515
12957SOL    HW240879   7.066  10.982   6.550 -1.0003  0.4653  0.3876
12958SOL     OW40880   0.333   7.811   3.738 -0.2165 -0.2807 -0.5306
12958SOL    HW140881   0.290   7.896   3.733  0.2392  0.1605  1.8209
12958SOL    HW240882   0.319   7.782   3.828  1.2597 -1.8083 -0.7426
12959SOL     OW40883  10.874   7.043  10.613  0.6148  0.1092  0.3209
12959SOL    HW140884  10.960   7.002  10.612  0.3566 -0.4453  0.4327
12959SOL    HW240885  10.891   7.137  10.606  1.2594  0.0526  1.0850
12960SOL     OW40886  10.591   3.834   9.778  0.3266 -0.0319  0.4421
12960SOL    HW140887  10.682   3.860   9.793  0.6244  1.3863 -2.8271
12960SOL    HW240888  10.596   3.741   9.756  0.9948  0.0125  0.3894
12961SOL     OW40889   7.455   8.642   0.480 -0.3101  0.3729 -0.3075
12961SOL    HW140890   7.413   8.558   0.461  1.2287 -0.2959 -0.9396
12961SOL    HW240891   7.494   8.669   0.397  1.2920  0.4855  0.4427
12962SOL     OW40892  10.778   9.994   6.072  0.1598  0.5538  0.6022
12962SOL    HW140893  10.866  10.030   6.062  0.7251 -0.0069  2.9234
12962SOL    HW240894  10.758   9.953   5.988  2.7395 -0.5529  0.4544
12963SOL     OW40895   6.729   8.055   9.928  0.4429  0.0892 -0.5925
12963SOL    HW140896   6.728   7.959   9.920  2.8726  0.0031 -0.4887
12963SOL    HW240897   6.691   8.072  10.015  0.1804 -0.7816 -0.5270
12964SOL     OW40898  10.568   0.033  10.977  0.0234  0.3261 -0.1508
12964SOL    HW140899  10.528   0.106  10.930  1.8776  1.7576  0.3689
12964SOL    HW240900  10.634  -0.001  10.917  0.6509  0.5097  0.4235
12965SOL     OW40901   9.618   0.079   4.496 -0.0275 -0.4849 -0.1013
12965SOL    HW140902   9.634  -0.005   4.453  0.8708 -1.3010  1.7420
12965SOL    HW240903   9.534   0.067   4.540  0.5748 -0.8216  1.0049
12966SOL     OW40904   4.032   3.485   7.459 -0.0441  0.6148  0.1982
12966SOL    HW140905   4.018   3.528   7.543 -0.7699 -1.3649  1.1724
12966SOL    HW240906   3.978   3.534   7.397 -1.5992  0.5535  1.4347
12967SOL     OW40907   3.515   3.338   4.609  0.1453  0.2810  0.3200
12967SOL    HW140908   3.503   3.244   4.604  0.3843  0.2935 -0.8908
12967SOL    HW240909   3.564   3.352   4.690 -1.4717 -0.4375  1.4674
12968SOL     OW40910   1.255   4.898   0.773  0.1739  0.5919  0.1401
12968SOL    HW140911   1.289   4.826   0.720  0.6745 -0.7299  2.1209
12968SOL    HW240912   1.221   4.856   0.852 -0.3362  2.4609  0.9821
12969SOL     OW40913   0.841   3.282   2.134 -0.3442 -0.0343  0.4977
12969SOL    HW140914   0.872   3.365   2.098 -0.3034  0.0684  0.7677
12969SOL    HW240915   0.746   3.291   2.139 -0.2772  0.3155  1.3055
12970SOL     OW40916  10.080   4.299   7.013 -0.2366  0.1360 -0.5563
12970SOL    HW140917  10.106   4.268   7.099  1.9360  0.8756 -0.8968
12970SOL    HW240918  10.002   4.247   6.991  1.6724 -3.2083  0.0077
12971SOL     OW40919   0.511   9.870   3.765 -0.4390 -0.9257  0.6234
12971SOL    HW140920   0.469   9.845   3.683 -0.0809  0.0629  0.1210
12971SOL    HW240921   0.438   9.899   3.821 -0.5071  0.3096 -0.0706
12972SOL     OW40922   7.565   5.932   5.857 -0.5843 -0.0619 -0.5572
12972SOL    HW140923   7.625   5.912   5.929  0.2676 -1.6093 -1.6337
12972SOL    HW240924   7.623   5.942   5.781 -1.5054  0.9882 -1.1408
12973SOL     OW40925   8.616   7.997   2.812 -0.3936  0.1709 -0.1600
12973SOL    HW140926   8.549   7.986   2.744 -2.0701  2.4108  1.0035
12973SOL    HW240927   8.692   8.031   2.764  0.9210 -4.3964 -1.8576
12974SOL     OW40928   6.928  10.674  10.560 -0.2462 -0.0083 -0.0062
12974SOL    HW140929   6.904  10.675  10.653 -0.1609  0.7194  0.0143
12974SOL    HW240930   6.845  10.667  10.513 -0.2711 -0.7027  0.1212
12975SOL     OW40931   4.619   7.670  10.299 -0.2170 -0.0505  0.1651
12975SOL    HW140932   4.640   7.669  10.206  0.2197  4.0233  0.0558
12975SOL    HW240933   4.694   7.630  10.341  0.5696  0.0349 -1.1063
12976SOL     OW40934   2.804   3.737   9.865 -0.1285 -0.8603  0.4126
12976SOL    HW140935   2.898   3.732   9.882 -0.0398  0.0725  0.2036
12976SOL    HW240936   2.785   3.830   9.856 -1.2733 -0.9470  1.5432
12977SOL     OW40937   2.132   2.189   4.824  1.1776  0.3355  0.4143
12977SOL    HW140938   2.103   2.270   4.865  0.0966  0.0752  0.2101
12977SOL    HW240939   2.227   2.191   4.831  1.1687  1.6266  0.3825
12978SOL     OW40940   8.368   0.678   4.075 -0.0045 -0.2271  0.0093
12978SOL    HW140941   8.298   0.613   4.073  0.6792 -0.9673 -1.6873
12978SOL    HW240942   8.322   0.762   4.075 -0.8875 -0.6657  1.5591
12979SOL     OW40943   4.844   4.596  10.131  0.4167  0.5770 -0.0048
12979SOL    HW140944   4.803   4.515  10.163  0.4712  0.9816  1.1540
12979SOL    HW240945   4.788   4.623  10.058  1.5327 -1.5350 -1.7537
12980SOL     OW40946   1.452   9.983   5.972 -0.0309  0.8233 -0.0820
12980SOL    HW140947   1.405   9.920   6.026 -0.0621  0.9420  0.0287
12980SOL    HW240948   1.530  10.005   6.022  0.4130  0.2271 -0.4958
12981SOL     OW40949  10.533   3.067   6.385 -0.1866 -1.0347  0.5402
12981SOL    HW140950  10.562   2.979   6.362 -0.8276 -1.5739  1.7004
12981SOL    HW240951  10.532   3.114   6.302  3.2871 -1.1259  0.3008
12982SOL     OW40952   5.894   6.737   9.328  0.1004 -0.2476 -0.2037
12982SOL    HW140953   5.956   6.809   9.319  0.8030 -0.4545  2.2279
12982SOL    HW240954   5.906   6.685   9.249  0.0355  1.8901 -1.7243
12983SOL     OW40955   1.817   7.053   0.677  0.1801 -0.3297  0.1905
12983SOL    HW140956   1.775   6.988   0.734  2.1979 -0.5662  1.4786
12983SOL    HW240957   1.906   7.021   0.665  0.8746  1.5979 -0.1489
12984SOL     OW40958   7.352   8.616  10.707 -0.0162  0.0718 -0.0000
12984SOL    HW140959   7.309   8.700  10.725 -1.3808 -0.6894  0.4655
12984SOL    HW240960   7.280   8.559  10.678  1.0446 -0.6621 -1.3141
12985SOL     OW40961   7.217   0.856  10.337  0.1601 -0.6745 -0.2165
12985SOL    HW140962   7.273   0.782  10.362  0.2805 -1.4588 -2.5536
12985SOL    HW240963   7.128   0.821  10.340  0.0730 -0.4233  0.2263
12986SOL     OW40964   3.313   4.303   2.608  0.0842 -0.4752 -0.6468
12986SOL    HW140965   3.328   4.234   2.544 -0.9227  0.2100 -1.6507
12986SOL    HW240966   3.223   4.331   2.593  0.1616  0.4028  0.3883
12987SOL     OW40967   9.858   8.625   0.680  0.1430 -0.5670 -0.7569
12987SOL    HW140968   9.869   8.674   0.598 -0.0304 -0.4590 -0.7167
12987SOL    HW240969   9.774   8.657   0.715  0.6999  0.1213 -0.0315
12988SOL     OW40970   1.454   4.660   6.676 -0.7068 -0.4551  0.2205
12988SOL    HW140971   1.364   4.671   6.645 -0.7403  0.8552  0.7313
12988SOL    HW240972   1.471   4.738   6.728  1.4801  0.4328 -1.6391
12989SOL     OW40973   4.665   2.652   8.842  0.3788 -0.0233 -0.1877
12989SOL    HW140974   4.616   2.583   8.797 -3.3180  1.1243  1.6932
12989SOL    HW240975   4.665   2.625   8.934  0.9594  1.3316  0.2362
12990SOL     OW40976   5.593   6.865   4.502 -0.3686 -0.3793 -0.2168
12990SOL    HW140977   5.549   6.783   4.480  1.9286 -2.0991  1.1402
12990SOL    HW240978   5.686   6.843   4.502  0.2602  1.8936  1.4792
12991SOL     OW40979   6.928   3.711   5.773 -0.4263  0.8242 -0.5128
12991SOL    HW140980   6.893   3.738   5.689 -1.8694  1.8460  0.3763
12991SOL    HW240981   6.966   3.791   5.811 -1.9785  0.9840  0.8212
12992SOL     OW40982   8.102   4.838   4.948  0.1498  0.3223 -0.4082
12992SOL    HW140983   8.117   4.803   5.036  0.4456  0.9457 -0.1989
12992SOL    HW240984   8.184   4.884   4.927 -0.6901  2.0449 -0.0909
12993SOL     OW40985   3.572   6.867   1.557  0.1277 -0.3105 -0.1077
12993SOL    HW140986   3.476   6.864   1.559  0.0962 -0.0917 -0.9057
12993SOL    HW240987   3.598   6.775   1.545 -0.0492 -0.2029 -1.5053
12994SOL     OW40988   3.536   5.540   1.668 -0.1639 -0.2317 -0.0391
12994SOL    HW140989   3.441   5.532   1.657 -0.1784  0.4309 -0.4095
12994SOL    HW240990   3.572   5.535   1.580  0.1130 -0.0319  0.0595
12995SOL     OW40991   7.270   7.842   1.269  0.1843  0.2097  0.7872
12995SOL    HW140992   7.253   7.799   1.353 -3.6117 -0.6273 -0.2362
12995SOL    HW240993   7.280   7.934   1.291  1.4708 -0.2534  2.3242
12996SOL     OW40994   8.387   7.070  10.049  0.3528  0.0070 -0.5197
12996SOL    HW140995   8.343   7.151  10.073 -1.2990 -0.9129 -0.3384
12996SOL    HW240996   8.383   7.068   9.953 -0.8398 -0.5144 -0.4658
12997SOL     OW40997   1.352   9.630   5.034  0.2238 -0.3098  0.4590
12997SOL    HW140998   1.421   9.679   4.989  1.6102 -1.1833  1.5450
12997SOL    HW240999   1.280   9.692   5.042 -0.4649 -0.3316 -3.6365
12998SOL     OW41000   4.913   2.025   5.598  0.5802  0.0182  0.4312
12998SOL    HW141001   4.881   2.114   5.611 -1.3984 -0.3390 -1.3635
12998SOL    HW241002   4.856   1.970   5.651  1.4392 -0.2525  1.0977
12999SOL     OW41003   1.523   7.940   1.298 -0.0082 -0.1512 -0.0130
12999SOL    HW141004   1.583   7.950   1.371  1.8936  1.1072 -1.6301
12999SOL    HW241005   1.512   7.846   1.287 -0.9193 -0.3604  2.2714
13000SOL     OW41006   7.258   2.489   3.493 -0.5370  0.0155  0.7019
13000SOL    HW141007   7.264   2.543   3.414  1.9471  0.6738  1.2787
13000SOL    HW241008   7.312   2.412   3.473 -2.1323 -1.1787  0.7818
13001SOL     OW41009   4.315   1.364   3.226  0.9534  0.0380 -0.1742
13001SOL    HW141010   4.312   1.294   3.292 -1.8375  1.0162  0.8889
13001SOL    HW241011   4.388   1.420   3.253  1.8760 -1.3050  0.1849
13002SOL     OW41012   4.470   9.034   9.542 -0.8808  0.0753  0.1462
13002SOL    HW141013   4.509   8.969   9.484  0.3923  2.1110 -1.4172
13002SOL    HW241014   4.376   9.031   9.522 -1.0252 -1.9985  0.9303
13003SOL     OW41015   1.843   1.631   9.087  0.0636  0.7469 -0.2672
13003SOL    HW141016   1.922   1.662   9.045  0.0935 -0.5003 -1.1857
13003SOL    HW241017   1.791   1.593   9.016 -1.3049  1.4309  0.3346
13004SOL     OW41018   2.073   4.282  10.457  0.3770 -0.2720  0.1950
13004SOL    HW141019   2.102   4.370  10.433  1.2602 -0.5375  0.2198
13004SOL    HW241020   2.034   4.247  10.377  0.4402 -0.0185  0.0519
13005SOL     OW41021   0.995   6.579   4.878  0.2508  0.2418 -0.2548
13005SOL    HW141022   0.940   6.657   4.880 -1.5008 -0.9368 -0.9200
13005SOL    HW241023   0.967   6.531   4.801  1.0368 -1.2428  0.3445
13006SOL     OW41024   1.699   7.230   7.341  0.4182 -0.2590  0.5050
13006SOL    HW141025   1.713   7.216   7.435  1.4470  0.1221  0.4306
13006SOL    HW241026   1.605   7.221   7.329  0.4480 -2.0061  1.2779
13007SOL     OW41027  10.868   7.332   9.112  0.4031 -0.0146 -0.4256
13007SOL    HW141028  10.803   7.349   9.181 -0.4867 -2.3084 -0.6080
13007SOL    HW241029  10.940   7.288   9.158  0.2990 -0.5400 -0.7568
13008SOL     OW41030   4.357   7.915   6.626  0.1080 -0.0815  0.0024
13008SOL    HW141031   4.383   7.996   6.670  0.5151 -0.9296  1.4019
13008SOL    HW241032   4.316   7.862   6.695  0.3044 -1.2632 -0.7546
13009SOL     OW41033   7.646   1.268   9.016 -0.4066  0.7828  0.0531
13009SOL    HW141034   7.604   1.337   9.069 -0.4749  0.7789  0.0037
13009SOL    HW241035   7.579   1.243   8.953 -0.1922  1.0595 -0.2848
13010SOL     OW41036  10.776   3.163   6.499 -0.2633  0.1860  0.4691
13010SOL    HW141037  10.713   3.097   6.471 -0.9480 -0.7105  3.6601
13010SOL    HW241038  10.726   3.244   6.505 -0.2638  0.2381 -0.1688
13011SOL     OW41039   0.535   6.773   2.639 -0.3216  0.2608 -0.0912
13011SOL    HW141040   0.605   6.708   2.633  1.8672  2.5776 -2.7888
13011SOL    HW241041   0.460   6.733   2.595  0.9516 -0.5185 -1.6226
13012SOL     OW41042   8.485   2.993   4.426 -0.7453  0.1670 -0.1041
13012SOL    HW141043   8.394   3.023   4.417 -1.5857 -2.3666 -1.2293
13012SOL    HW241044   8.494   2.926   4.358  0.9423 -1.9074  2.0063
13013SOL     OW41045   0.960   7.114   2.398 -0.5269 -0.2351  0.0738
13013SOL    HW141046   1.034   7.093   2.454 -0.7732 -2.0749 -0.2366
13013SOL    HW241047   0.960   7.047   2.330 -0.1477  1.9818 -2.2933
13014SOL     OW41048   6.415   3.164   4.303 -0.1191 -0.0690 -0.1037
13014SOL    HW141049   6.411   3.072   4.330 -0.3507  0.5747  2.2760
13014SOL    HW241050   6.509   3.180   4.289 -0.2066 -1.0222 -2.0688
13015SOL     OW41051   0.812   1.369   5.417  0.3992 -0.1600  0.0159
13015SOL    HW141052   0.743   1.371   5.484  0.4042 -1.1944  0.0654
13015SOL    HW241053   0.806   1.454   5.374  0.3071  0.4861  1.2427
13016SOL     OW41054   7.965   5.914  10.987 -0.0274 -0.1479 -0.2022
13016SOL    HW141055   8.013   5.991  11.018  1.2826 -1.8296  2.2899
13016SOL    HW241056   7.873   5.933  11.007  0.5203 -0.1762  2.8805
13017SOL     OW41057   9.284   5.856   8.008 -0.5721  0.0541  0.6803
13017SOL    HW141058   9.219   5.813   8.064 -1.2544 -0.2527 -0.3231
13017SOL    HW241059   9.368   5.831   8.046 -0.9519 -2.0314  0.2504
13018SOL     OW41060   8.086   2.799   9.233 -0.1695 -0.1608  0.3308
13018SOL    HW141061   8.030   2.721   9.239 -0.6789  0.0172 -1.5347
13018SOL    HW241062   8.123   2.794   9.146  0.2119  1.4294  0.3854
13019SOL     OW41063   0.890  10.098   4.744  0.6176 -0.1287  0.4618
13019SOL    HW141064   0.874  10.007   4.719  1.9136 -0.1715 -0.3053
13019SOL    HW241065   0.858  10.104   4.834 -1.0365 -0.8781 -0.0232
13020SOL     OW41066   4.274   1.135  10.386 -0.1776 -0.1278  0.3524
13020SOL    HW141067   4.311   1.151  10.299 -0.6651  1.7379  0.4482
13020SOL    HW241068   4.347   1.098  10.436  0.2739 -0.6905 -0.6831
13021SOL     OW41069   8.071   2.403  10.623  0.2399 -0.1379 -0.3985
13021SOL    HW141070   8.155   2.429  10.661  0.2614 -0.3721 -0.2848
13021SOL    HW241071   8.017   2.482  10.626 -0.0946 -0.3957  1.0444
13022SOL     OW41072   9.428   4.008   5.299  0.4017 -0.0729  0.2258
13022SOL    HW141073   9.483   3.971   5.368  0.8854 -1.2818 -0.7727
13022SOL    HW241074   9.369   3.937   5.274 -0.6261  0.7450  0.2340
13023SOL     OW41075   9.103   4.150   8.753 -0.2295  0.0084 -0.3062
13023SOL    HW141076   9.116   4.064   8.791  0.8015  0.4492  0.3892
13023SOL    HW241077   9.141   4.211   8.816 -2.6123  1.1561  0.1493
13024SOL     OW41078   8.961   4.032   7.132 -0.2245 -0.6323  0.0258
13024SOL    HW141079   8.921   3.981   7.202 -1.7705  0.2024 -0.2122
13024SOL    HW241080   8.930   4.122   7.146  0.0585 -0.3048 -1.2654
13025SOL     OW41081   9.259   6.732   9.682  0.2148  0.4215  0.1516
13025SOL    HW141082   9.205   6.767   9.611  0.5852  1.0082  0.1567
13025SOL    HW241083   9.347   6.724   9.643  0.5593  1.3176  0.7088
13026SOL     OW41084   2.901   9.886   2.589  0.4094 -0.1029  0.0361
13026SOL    HW141085   2.924   9.869   2.681  1.8001  1.1137 -0.0527
13026SOL    HW241086   2.816   9.930   2.594 -1.0568 -2.7752  0.5059
13027SOL     OW41087   7.826   6.179   0.215  0.2938 -0.0421 -0.5586
13027SOL    HW141088   7.855   6.152   0.128  0.3857 -4.8171  0.6642
13027SOL    HW241089   7.905   6.213   0.257  0.7403  0.3539 -1.6870
13028SOL     OW41090  10.784   8.262   9.482 -0.3472  0.2723  0.2180
13028SOL    HW141091  10.869   8.219   9.486  0.6049  2.1100  0.7487
13028SOL    HW241092  10.722   8.193   9.506  1.2060 -0.5522  2.1759
13029SOL     OW41093   5.820   6.149   1.885 -0.4361  0.3202 -0.1744
13029SOL    HW141094   5.907   6.137   1.848  0.9865  0.7392  2.7787
13029SOL    HW241095   5.802   6.243   1.875  1.0187  0.9197  2.2184
13030SOL     OW41096   9.476  10.743   3.419  0.2097  0.3210  0.5454
13030SOL    HW141097   9.423  10.685   3.474 -2.8384  3.2541  1.0156
13030SOL    HW241098   9.465  10.708   3.331  1.2602 -1.6805  1.1408
13031SOL     OW41099   0.625   0.303   4.960  0.1372  0.3439  0.2283
13031SOL    HW141100   0.594   0.251   5.034 -0.8018 -0.0538 -0.4224
13031SOL    HW241101   0.546   0.343   4.925  0.4687 -0.0173 -0.9702
13032SOL     OW41102   5.122   3.092   5.149  0.0920  0.2084 -0.1702
13032SOL    HW141103   5.214   3.118   5.145  0.3195 -0.6716 -2.9387
13032SOL    HW241104   5.115   3.017   5.090 -2.2231 -0.4364  0.7825
13033SOL     OW41105   2.574   0.594   6.962 -0.5410 -0.0423 -0.3132
13033SOL    HW141106   2.656   0.640   6.983 -1.2131  0.9523  0.2002
13033SOL    HW241107   2.581   0.574   6.869  0.8965 -1.2485  0.0050
13034SOL     OW41108  10.155   3.034   1.922 -0.1567  0.0857 -0.1684
13034SOL    HW141109  10.065   3.043   1.890 -0.3619  0.9128  0.6163
13034SOL    HW241110  10.167   2.939   1.931 -0.9429 -0.0379 -0.3128
13035SOL     OW41111   4.089   9.159   0.356 -0.1719 -0.4150 -0.6310
13035SOL    HW141112   4.116   9.173   0.265 -0.9300 -1.3751 -1.0123
13035SOL    HW241113   4.024   9.227   0.372  0.4287  0.1619 -0.5894
13036SOL     OW41114  10.360  10.121   3.148 -0.2092 -0.1402  0.7856
13036SOL    HW141115  10.356  10.050   3.085  2.6710 -1.7657  2.2409
13036SOL    HW241116  10.280  10.112   3.200 -1.0126 -0.8007 -0.5356
13037SOL     OW41117  10.866   8.603   3.801 -0.1255  0.0592 -0.1142
13037SOL    HW141118  10.788   8.555   3.828  0.6111 -0.6079  0.9061
13037SOL    HW241119  10.898   8.555   3.724 -0.9885  0.6485 -0.8659
13038SOL     OW41120   5.897   3.801   7.217  0.0187  0.8100  0.0978
13038SOL    HW141121   5.991   3.787   7.232  0.1349  0.4940 -0.8872
13038SOL    HW241122   5.892   3.891   7.185 -0.0841  1.0046  0.6362
13039SOL     OW41123   2.081  10.024   5.372  0.1395  0.4740  0.4492
13039SOL    HW141124   2.081  10.071   5.288 -0.5713  1.0104  0.7349
13039SOL    HW241125   1.992   9.990   5.380  0.3175  0.0858  0.8086
13040SOL     OW41126   1.910   5.907   9.032  0.2004  0.1275 -0.1645
13040SOL    HW141127   1.993   5.926   9.078  1.1570  0.4715 -1.9573
13040SOL    HW241128   1.846   5.964   9.074  1.1868  0.9248  0.3071
13041SOL     OW41129   0.418   2.307   2.982  0.2294  0.1952 -0.9791
13041SOL    HW141130   0.485   2.240   2.997 -0.4618 -0.1945  0.6466
13041SOL    HW241131   0.451   2.358   2.909  0.6375 -2.1034 -2.5265
13042SOL     OW41132   7.357   6.456   1.827 -0.0844 -0.0676 -0.0450
13042SOL    HW141133   7.397   6.506   1.756  0.5612 -0.1468  0.2524
13042SOL    HW241134   7.429   6.440   1.888  0.0216 -2.3041 -0.6522
13043SOL     OW41135   4.094   9.808   9.730  0.8454 -0.0545  0.3031
13043SOL    HW141136   4.181   9.815   9.770  1.3600  0.0449 -0.8199
13043SOL    HW241137   4.082   9.891   9.685  0.5347 -0.4200 -0.2842
13044SOL     OW41138   7.774   8.873   9.585  0.5183  0.1347  0.6279
13044SOL    HW141139   7.855   8.917   9.559  0.1817  0.1440 -0.4494
13044SOL    HW241140   7.717   8.881   9.509 -0.7462  0.7195  1.6030
13045SOL     OW41141   6.193   0.014   3.838  0.2610  0.2920 -0.2195
13045SOL    HW141142   6.212  -0.076   3.811 -0.8462 -0.5105  1.5189
13045SOL    HW241143   6.163   0.057   3.758  0.9182 -0.8333 -1.1130
13046SOL     OW41144   7.270   1.557   2.035 -0.1347 -0.3181  0.6337
13046SOL    HW141145   7.355   1.519   2.015 -1.2117 -1.9334 -1.3087
13046SOL    HW241146   7.250   1.528   2.124  0.6078 -1.3940  0.4594
13047SOL     OW41147   5.406   8.549   6.519 -0.2142 -0.1509 -0.2478
13047SOL    HW141148   5.437   8.639   6.530 -1.9579  0.9092 -3.0341
13047SOL    HW241149   5.481   8.502   6.482  0.3083  0.4748 -0.0051
13048SOL     OW41150   4.179   4.809   7.026 -0.0856 -0.4566  0.4304
13048SOL    HW141151   4.269   4.834   7.046 -0.2871  1.7413 -1.0274
13048SOL    HW241152   4.140   4.789   7.111  1.1213  0.9493  1.3705
13049SOL     OW41153   0.039   9.115   5.493 -0.2460 -0.7257 -0.4258
13049SOL    HW141154  -0.036   9.150   5.541  0.7164 -1.1720  1.4904
13049SOL    HW241155   0.002   9.045   5.439 -1.0848 -1.7310  1.3636
13050SOL     OW41156   5.321   4.927   2.796  0.5234  0.3709 -0.0198
13050SOL    HW141157   5.361   5.013   2.810 -0.4661  0.9323 -0.5187
13050SOL    HW241158   5.268   4.938   2.718 -1.4912  0.0026  1.2188
13051SOL     OW41159   7.999   4.856   2.648  0.3983 -0.1228  0.0114
13051SOL    HW141160   7.908   4.882   2.633 -0.6254 -2.1606  1.8891
13051SOL    HW241161   8.035   4.924   2.705 -0.6793 -0.3067  0.9590
13052SOL     OW41162   5.138   7.434   1.249 -0.2005  0.2822  0.3723
13052SOL    HW141163   5.209   7.427   1.185 -0.9223  0.5203 -0.4759
13052SOL    HW241164   5.096   7.348   1.250 -0.3353  0.3463  0.3520
13053SOL     OW41165   2.675   3.728   2.310 -0.3525  0.0341  0.1554
13053SOL    HW141166   2.738   3.657   2.311 -2.2760 -1.7953 -0.4528
13053SOL    HW241167   2.707   3.790   2.375  0.1447 -2.5512  2.5772
13054SOL     OW41168   2.985   3.731   0.466 -0.4654 -0.5827  0.1576
13054SOL    HW141169   3.027   3.780   0.537  0.4813 -0.8121 -0.2274
13054SOL    HW241170   3.016   3.641   0.477  0.6691 -0.4063 -1.2294
13055SOL     OW41171   9.037   8.350   8.630  0.4421  0.0716 -0.2295
13055SOL    HW141172   8.979   8.393   8.566  0.1769  0.3509  0.1962
13055SOL    HW241173   8.977   8.301   8.687  0.6875 -0.2642 -0.2544
13056SOL     OW41174  10.966   5.780  10.890 -0.3735 -0.8290  0.5662
13056SOL    HW141175  11.035   5.730  10.846 -0.0484  0.5557 -0.5660
13056SOL    HW241176  11.010   5.823  10.964 -0.6156 -2.0095  1.4321
13057SOL     OW41177   5.632   7.144   9.586  0.5160 -0.4781  0.3968
13057SOL    HW141178   5.570   7.172   9.519  0.9855  0.5234  0.3510
13057SOL    HW241179   5.604   7.056   9.611  1.4307 -1.6623 -2.4319
13058SOL     OW41180   5.466   5.744   4.350 -0.2291 -0.3720 -0.0720
13058SOL    HW141181   5.450   5.717   4.259  0.8222  1.6837 -0.9582
13058SOL    HW241182   5.391   5.800   4.371 -2.5340 -3.8107  1.8351
13059SOL     OW41183   3.500   1.876   6.746 -0.0567 -0.6420  0.0209
13059SOL    HW141184   3.456   1.943   6.799  0.2965  0.4485 -1.0202
13059SOL    HW241185   3.515   1.804   6.807  0.3219  0.5658  1.4302
13060SOL     OW41186  10.123   9.427   2.729 -0.0309  0.6593  0.6403
13060SOL    HW141187  10.047   9.459   2.777 -0.1381 -0.1866  1.0614
13060SOL    HW241188  10.189   9.411   2.796 -0.0035 -0.0290  0.4654
13061SOL     OW41189   3.307   5.428   3.518 -0.3489  0.0649  0.2806
13061SOL    HW141190   3.296   5.363   3.448 -0.0674 -1.0448  1.2413
13061SOL    HW241191   3.365   5.386   3.581 -0.9150  0.8967  1.3850
13062SOL     OW41192   3.036   4.504   8.904 -0.4045  0.3064  0.2053
13062SOL    HW141193   3.012   4.533   8.815 -1.2031 -0.4765  0.1600
13062SOL    HW241194   3.079   4.420   8.891 -0.8373  0.0244  0.5905
13063SOL     OW41195   7.074   9.110   4.727 -0.0670 -0.4861  0.5660
13063SOL    HW141196   7.156   9.084   4.769  0.0410 -2.0685 -0.5421
13063SOL    HW241197   7.015   9.035   4.741 -0.8689  0.0505  0.1418
13064SOL     OW41198   9.404   4.367   3.155  0.4859 -0.0121  0.5394
13064SOL    HW141199   9.472   4.393   3.218  0.2779  0.0432  0.7435
13064SOL    HW241200   9.363   4.450   3.129  2.0658  0.2207 -1.4138
13065SOL     OW41201   2.342   7.078   8.529  0.0313  0.1621 -0.6986
13065SOL    HW141202   2.340   6.991   8.568  0.9658  0.6771  0.5350
13065SOL    HW241203   2.433   7.090   8.501  0.0970  1.0546 -0.1196
13066SOL     OW41204   2.893   6.349   1.828  0.0542 -0.1106  0.2033
13066SOL    HW141205   2.938   6.265   1.823 -0.5257 -0.4353  0.2870
13066SOL    HW241206   2.920   6.385   1.912 -1.9335 -1.5655  1.5744
13067SOL     OW41207   0.449   2.253   1.032 -0.2492  0.2219  0.7071
13067SOL    HW141208   0.438   2.346   1.014 -2.1062  0.2288  1.6624
13067SOL    HW241209   0.537   2.246   1.069 -0.2576  1.6515  1.0554
13068SOL     OW41210   8.992   0.283  11.028 -0.3124  0.6510 -0.0249
13068SOL    HW141211   9.036   0.352  11.078  1.2969  0.5646 -1.2640
13068SOL    HW241212   9.014   0.203  11.075 -0.1191  0.7235  0.0096
13069SOL     OW41213   5.190   0.974  10.689 -0.1560 -0.6430 -0.5311
13069SOL    HW141214   5.248   0.922  10.633  0.6960 -0.3070  0.0147
13069SOL    HW241215   5.237   0.980  10.772 -0.9441 -0.2840 -0.0981
13070SOL     OW41216   9.459   0.245   7.492 -0.2488  0.1758  0.1470
13070SOL    HW141217   9.398   0.182   7.531 -0.9249 -0.6024 -2.0341
13070SOL    HW241218   9.542   0.228   7.537 -0.6729 -1.5579  0.3656
13071SOL     OW41219   4.914   0.443   1.599 -0.1593 -0.1208 -0.3480
13071SOL    HW141220   4.841   0.461   1.659  0.3006  0.4503  0.0486
13071SOL    HW241221   4.877   0.382   1.535 -0.7374 -0.5304  0.3534
13072SOL     OW41222   3.251   9.573   4.329 -0.2618  0.4153  0.0510
13072SOL    HW141223   3.238   9.651   4.275  0.1685  0.1706 -0.4176
13072SOL    HW241224   3.241   9.499   4.268 -0.3364  0.1138  0.4208
13073SOL     OW41225   7.761   0.627   7.821 -0.3421 -0.3957  0.2337
13073SOL    HW141226   7.684   0.682   7.808  0.7428  0.9904 -0.6506
13073SOL    HW241227   7.727   0.546   7.859 -2.3214 -0.1041 -0.7968
13074SOL     OW41228   4.793   7.949   4.714 -0.3479 -0.1724 -0.1749
13074SOL    HW141229   4.717   7.994   4.750 -1.2992 -2.3201  0.7222
13074SOL    HW241230   4.765   7.920   4.627 -0.7728 -1.3711  0.3394
13075SOL     OW41231   5.067   4.484   5.215  0.2475  0.2165 -0.2077
13075SOL    HW141232   4.998   4.529   5.167 -0.5625 -1.3650 -0.5715
13075SOL    HW241233   5.041   4.392   5.216  2.6056 -0.5401 -0.8318
13076SOL     OW41234   5.149  10.929   4.180 -0.3063 -0.3707 -0.1584
13076SOL    HW141235   5.128  10.866   4.249  1.3009 -0.8330 -0.0378
13076SOL    HW241236   5.217  10.985   4.218 -0.0086 -0.0883 -1.0687
13077SOL     OW41237   7.487   4.301   8.208 -0.0210  0.4558  0.0942
13077SOL    HW141238   7.412   4.336   8.257 -0.5749 -0.1407 -0.3089
13077SOL    HW241239   7.448   4.248   8.139  0.7598 -1.9506  1.3640
13078SOL     OW41240   6.840   3.240   3.490 -0.0361 -0.1041 -0.5259
13078SOL    HW141241   6.921   3.190   3.490  0.7755  1.1631 -0.3867
13078SOL    HW241242   6.787   3.201   3.560 -0.2539 -1.9798 -1.6637
13079SOL     OW41243   2.984   2.569   3.514  0.0373  0.0223 -0.2276
13079SOL    HW141244   3.015   2.632   3.450 -0.0581 -0.0848 -0.3793
13079SOL    HW241245   2.950   2.622   3.586  0.5672  0.1396 -0.0620
13080SOL     OW41246   7.031   5.106   4.992 -0.3077 -0.6771 -0.0270
13080SOL    HW141247   7.083   5.063   4.924 -1.3664 -0.5528 -0.9396
13080SOL    HW241248   7.096   5.148   5.049  0.5807 -0.1328 -1.3947
13081SOL     OW41249   0.168   8.493   3.223  0.2072 -0.1911  0.4501
13081SOL    HW141250   0.137   8.456   3.306 -0.0108 -1.6307 -0.2432
13081SOL    HW241251   0.263   8.494   3.232  0.1855  3.0988  2.1014
13082SOL     OW41252   1.339   1.693   3.874  0.4661 -0.0671  0.7838
13082SOL    HW141253   1.366   1.743   3.796 -0.7776  1.8382  1.4964
13082SOL    HW241254   1.420   1.684   3.924  1.1499 -0.7154 -0.3872
13083SOL     OW41255   8.838   4.416   7.429 -0.5099 -0.4413  0.0421
13083SOL    HW141256   8.819   4.326   7.457  1.1142 -0.4588  1.2262
13083SOL    HW241257   8.933   4.422   7.432 -0.6019  1.4626  0.4321
13084SOL     OW41258   2.671   3.835   5.042  0.4636 -0.4709  0.2120
13084SOL    HW141259   2.731   3.910   5.045  0.0018 -0.1160  2.1462
13084SOL    HW241260   2.701   3.779   5.114 -1.8582  0.0236  1.6617
13085SOL     OW41261   8.715   2.201   8.254  0.0767  0.4962  0.0356
13085SOL    HW141262   8.673   2.119   8.228 -0.0343  0.5359  0.0898
13085SOL    HW241263   8.644   2.253   8.292  0.2745  0.3733  0.5754
13086SOL     OW41264   5.090   3.690   9.474 -0.5200  0.5898  0.3065
13086SOL    HW141265   5.015   3.631   9.481 -0.0538  0.2039  2.5856
13086SOL    HW241266   5.052   3.772   9.441 -1.5341 -0.2496 -0.7245
13087SOL     OW41267  10.966   8.957   7.424  0.1138  0.0342 -0.2754
13087SOL    HW141268  10.970   9.006   7.343 -0.7202 -0.2098 -0.4729
13087SOL    HW241269  11.026   9.002   7.483  0.2715  0.5622 -0.8385
13088SOL     OW41270   4.580   7.493   0.523  0.3377 -0.1752 -0.2243
13088SOL    HW141271   4.541   7.521   0.605  0.1561 -0.0958 -0.3382
13088SOL    HW241272   4.643   7.425   0.548  0.1647 -0.2661 -0.0382
13089SOL     OW41273   6.969   2.225  10.608  0.4294  0.3584 -0.0723
13089SOL    HW141274   6.885   2.234  10.564  0.1575 -0.6339  0.2039
13089SOL    HW241275   6.967   2.291  10.677 -0.7947 -0.6543  0.9114
13090SOL     OW41276   4.420   0.829   9.294 -0.4838  0.7210 -0.1506
13090SOL    HW141277   4.416   0.886   9.217 -0.0643 -0.6688 -1.2487
13090SOL    HW241278   4.496   0.861   9.343 -0.3264  1.1817 -0.6775
13091SOL     OW41279   3.486   5.424   9.146 -0.6520 -0.7335  0.3509
13091SOL    HW141280   3.443   5.363   9.206 -0.3633 -0.0796  1.2357
13091SOL    HW241281   3.415   5.478   9.111 -0.9295 -1.6468 -0.5530
13092SOL     OW41282   4.087   0.099   2.428  0.4450  0.2009 -0.5485
13092SOL    HW141283   4.020   0.166   2.435 -2.2376 -2.3373 -0.1988
13092SOL    HW241284   4.071   0.040   2.501  2.2438 -1.2229 -1.2154
13093SOL     OW41285   0.428   4.250   8.401  0.6313 -0.2367  0.0705
13093SOL    HW141286   0.474   4.222   8.322 -0.6394 -0.3468 -0.6491
13093SOL    HW241287   0.368   4.178   8.420 -0.4771  0.6428 -0.0136
13094SOL     OW41288   3.771   1.720   0.208  0.2595 -0.4154  0.1847
13094SOL    HW141289   3.846   1.779   0.203  0.5398 -0.5309  2.1133
13094SOL    HW241290   3.725   1.733   0.125  1.2706  1.1993 -0.1804
13095SOL     OW41291  10.435   6.010   9.924 -0.4524  0.1735  0.7097
13095SOL    HW141292  10.451   5.944   9.857  3.4782  0.0244  1.5695
13095SOL    HW241293  10.484   6.087   9.895 -1.1503  1.1367  1.9558
13096SOL     OW41294   9.054   5.580   8.025  0.0430  0.4745 -0.3514
13096SOL    HW141295   8.982   5.569   7.963  0.0434  1.3409 -0.5184
13096SOL    HW241296   9.128   5.535   7.983 -0.3057 -0.1549 -0.3181
13097SOL     OW41297   2.281   4.781   4.653 -0.5209 -0.2914  0.1369
13097SOL    HW141298   2.374   4.791   4.671 -0.5591 -0.0886  0.2245
13097SOL    HW241299   2.269   4.687   4.637 -0.1110 -0.1580 -0.9736
13098SOL     OW41300   4.075   2.082   5.896 -0.0390  0.1945 -0.1755
13098SOL    HW141301   3.986   2.110   5.917  0.3546  1.6469 -0.3238
13098SOL    HW241302   4.077   1.989   5.917 -1.4561  0.2448  0.2596
13099SOL     OW41303   2.807   8.796   1.097 -0.0976 -0.5136 -0.2802
13099SOL    HW141304   2.732   8.845   1.132 -0.7829 -0.8741 -1.1854
13099SOL    HW241305   2.843   8.854   1.030  0.4086 -0.3637  0.1175
13100SOL     OW41306   5.745   5.675   8.813  0.3895 -0.1928  0.3945
13100SOL    HW141307   5.763   5.766   8.838  0.8661 -0.7873  2.3270
13100SOL    HW241308   5.690   5.641   8.883 -0.5331 -1.1717 -0.7539
13101SOL     OW41309   4.574   8.626   1.296 -0.1254 -0.1535 -0.0141
13101SOL    HW141310   4.600   8.618   1.204 -0.2384 -0.1723 -0.0450
13101SOL    HW241311   4.501   8.565   1.305  1.1237 -1.6278  0.5744
13102SOL     OW41312   7.585   0.164   5.482  0.7419 -0.8039  0.1280
13102SOL    HW141313   7.634   0.194   5.406 -0.4297  1.2533  0.1291
13102SOL    HW241314   7.598   0.069   5.483  0.1218 -1.0317 -3.1066
13103SOL     OW41315   5.293   5.416   5.828  0.4681 -0.3167  0.3102
13103SOL    HW141316   5.301   5.322   5.817  1.4172 -0.1525 -0.5700
13103SOL    HW241317   5.201   5.434   5.813  0.6619 -0.8516 -1.8202
13104SOL     OW41318   1.492   4.242   0.499 -0.4525  0.1503 -0.4894
13104SOL    HW141319   1.434   4.222   0.572  0.3356  0.0864  0.1306
13104SOL    HW241320   1.482   4.167   0.440 -0.6796 -0.0654 -0.1806
13105SOL     OW41321  10.106   3.859   1.916 -0.1415  0.1075  0.2348
13105SOL    HW141322  10.015   3.865   1.886 -0.0287  0.6738 -0.0044
13105SOL    HW241323  10.121   3.765   1.927  0.0293 -0.2134 -2.1979
13106SOL     OW41324   4.744  10.396   1.217 -0.0721 -0.4000 -0.2823
13106SOL    HW141325   4.830  10.429   1.191 -0.2365  0.6439  0.4776
13106SOL    HW241326   4.690  10.474   1.229 -0.8432 -0.9960  0.2277
13107SOL     OW41327   2.954   5.746   7.530 -0.2811  0.6435 -0.1435
13107SOL    HW141328   3.025   5.805   7.556 -0.1843 -0.3256  1.9797
13107SOL    HW241329   2.997   5.665   7.503 -0.5451  0.2961  0.4631
13108SOL     OW41330   8.356   6.484   7.305  0.7297  0.1778  0.7003
13108SOL    HW141331   8.443   6.523   7.300  0.7886 -0.0662 -0.4639
13108SOL    HW241332   8.365   6.413   7.368  1.1766  0.6342  1.1605
13109SOL     OW41333   8.156   3.710   8.674  0.6781  0.1207 -0.5875
13109SOL    HW141334   8.173   3.799   8.703 -0.1130 -0.2729  1.2753
13109SOL    HW241335   8.065   3.711   8.645 -0.3443 -0.6205  2.2164
13110SOL     OW41336   0.205   9.092   6.723 -0.1458  0.3205 -0.4652
13110SOL    HW141337   0.158   9.022   6.768 -1.0458  0.5241 -1.0737
13110SOL    HW241338   0.201   9.166   6.784 -1.8887  0.7805 -1.0959
13111SOL     OW41339   1.934   4.223   0.665 -0.1563 -0.3310 -0.2503
13111SOL    HW141340   1.854   4.211   0.715  0.4196 -2.1084  0.3139
13111SOL    HW241341   1.905   4.258   0.581 -1.2682  1.4125  0.8066
13112SOL     OW41342   4.135   7.920   4.521  0.0622  0.7451  0.2141
13112SOL    HW141343   4.208   7.982   4.518 -0.1686  0.9949 -0.4221
13112SOL    HW241344   4.173   7.839   4.556  0.9914  0.4047 -1.5052
13113SOL     OW41345   5.568   8.663   4.120  0.5504 -0.2636  0.5503
13113SOL    HW141346   5.623   8.646   4.043 -0.8447 -1.8341 -0.1644
13113SOL    HW241347   5.625   8.647   4.195  1.6532  0.3180 -0.1351
13114SOL     OW41348   6.643   1.222   1.139 -0.1976 -0.0486 -0.3286
13114SOL    HW141349   6.608   1.295   1.190 -0.8393  0.3093 -1.2618
13114SOL    HW241350   6.722   1.257   1.098 -0.7599  0.2715 -1.1489
13115SOL     OW41351   7.430   4.318  10.294 -0.0045  0.0020  0.6192
13115SOL    HW141352   7.415   4.413  10.305 -0.4740  0.1883 -1.3597
13115SOL    HW241353   7.521   4.312  10.265 -0.4860  0.0143 -0.9547
13116SOL     OW41354   9.251   2.676  10.016 -0.3077 -0.3858  0.2195
13116SOL    HW141355   9.292   2.715  10.093 -0.2000  1.3344 -0.6555
13116SOL    HW241356   9.256   2.582  10.031  0.6048 -0.1169  1.8407
13117SOL     OW41357   8.018   8.127   2.195  0.0178  0.1602  0.1549
13117SOL    HW141358   7.975   8.043   2.213 -0.0681  0.0295 -0.6513
13117SOL    HW241359   8.053   8.118   2.107  0.2903  0.8639  0.1843
13118SOL     OW41360   5.747   4.494   3.913  0.0841 -0.1015  0.1149
13118SOL    HW141361   5.770   4.420   3.971 -0.5322  1.0220  1.8786
13118SOL    HW241362   5.660   4.472   3.880 -1.0674  0.7422  2.3567
13119SOL     OW41363   0.911   2.033   9.387 -0.2403 -0.0675 -0.6807
13119SOL    HW141364   0.911   1.964   9.321 -1.9078 -2.4371  1.6031
13119SOL    HW241365   0.824   2.072   9.383  0.6596  2.0555 -1.9123
13120SOL     OW41366   0.408   9.398   3.346 -0.3191 -0.1938  0.7014
13120SOL    HW141367   0.441   9.483   3.373 -0.1609 -0.2418  0.6585
13120SOL    HW241368   0.458   9.377   3.267 -1.1152  0.1703  0.0932
13121SOL     OW41369   7.442   9.769   4.716  0.7149 -0.0385 -0.4050
13121SOL    HW141370   7.372   9.795   4.657 -0.7457 -1.6137  0.5299
13121SOL    HW241371   7.516   9.748   4.659 -1.1303 -3.0749 -1.9225
13122SOL     OW41372   3.778   4.162   0.813  0.6225  0.1177  0.0818
13122SOL    HW141373   3.793   4.072   0.842  0.3121  0.4287  1.3002
13122SOL    HW241374   3.771   4.212   0.895 -1.8853  0.7958 -0.4531
13123SOL     OW41375   2.722   0.173   7.437 -0.4387  0.2165  0.2797
13123SOL    HW141376   2.806   0.151   7.478 -0.7792 -0.5803  0.5730
13123SOL    HW241377   2.743   0.243   7.376  0.9790 -1.7523 -1.6509
13124SOL     OW41378   1.971   0.021   3.678  0.1478  0.5608 -0.9308
13124SOL    HW141379   2.055   0.005   3.721 -0.1675  2.9973  0.7904
13124SOL    HW241380   1.990   0.013   3.584  2.0088 -0.0647 -0.5426
13125SOL     OW41381   7.201   7.307   8.438 -0.4310 -0.4119  0.4408
13125SOL    HW141382   7.202   7.215   8.464  1.7042 -0.5405  0.0766
13125SOL    HW241383   7.246   7.353   8.508 -2.4182  0.5736  1.1433
13126SOL     OW41384   7.933   7.457   1.237 -0.2852  0.2183 -0.0065
13126SOL    HW141385   7.873   7.508   1.292 -0.4368 -1.9013  1.9333
13126SOL    HW241386   8.016   7.457   1.285 -0.0747 -0.6932 -0.3425
13127SOL     OW41387  11.027  10.743   5.352 -0.7389  0.1483  0.0289
13127SOL    HW141388  10.991  10.730   5.440 -0.9649 -0.0785 -0.0962
13127SOL    HW241389  10.971  10.808   5.311  1.0988  2.5291  1.0757
13128SOL     OW41390   5.149   4.933   1.252  0.4184 -0.2721  0.2095
13128SOL    HW141391   5.087   4.874   1.209  0.7140 -0.9336  0.6732
13128SOL    HW241392   5.230   4.923   1.203  0.4462 -0.1903  0.2386
13129SOL     OW41393   7.774   1.004   2.447 -0.1544 -0.1335  0.6437
13129SOL    HW141394   7.703   0.968   2.394 -1.3053  1.5445  0.9741
13129SOL    HW241395   7.851   0.955   2.420 -0.9771 -0.3291 -1.5196
13130SOL     OW41396   4.222   7.726   2.572  0.7131  0.3966 -0.4388
13130SOL    HW141397   4.194   7.715   2.481  0.2040  1.5191 -0.4297
13130SOL    HW241398   4.316   7.742   2.565  0.5216  1.4081 -0.8539
13131SOL     OW41399  10.411   0.476  10.377 -0.3873  0.2521 -0.2755
13131SOL    HW141400  10.408   0.387  10.342 -1.1945  0.3412 -0.4503
13131SOL    HW241401  10.333   0.518  10.341 -1.1812  0.3846  1.5159
13132SOL     OW41402  10.578   1.014  10.214 -0.3199 -0.3734 -0.3748
13132SOL    HW141403  10.560   1.086  10.154  1.8107  1.0922  0.5913
13132SOL    HW241404  10.625   0.950  10.161  0.8393  0.5493 -0.5019
13133SOL     OW41405   7.062   5.810   8.449  0.2825 -0.0435  0.2919
13133SOL    HW141406   7.146   5.828   8.490  0.6699  1.6929 -1.1607
13133SOL    HW241407   7.057   5.871   8.376 -2.0165 -0.4658  0.0193
13134SOL     OW41408   9.348   5.513   3.634 -0.5198  0.3058 -0.3710
13134SOL    HW141409   9.433   5.472   3.650 -1.0676 -1.1943 -1.0994
13134SOL    HW241410   9.364   5.607   3.645  0.7912 -0.0768  1.3406
13135SOL     OW41411   0.402   9.424   8.627  0.2686  0.3008 -0.2228
13135SOL    HW141412   0.438   9.399   8.713  0.9293  1.4039 -0.1662
13135SOL    HW241413   0.420   9.347   8.572 -0.4991 -0.5729  0.6989
13136SOL     OW41414   8.222   4.145   2.943  0.6354 -0.4769  0.3590
13136SOL    HW141415   8.207   4.109   2.856  1.2209  2.5718 -1.1394
13136SOL    HW241416   8.318   4.152   2.950  0.6222  3.4929 -0.8418
13137SOL     OW41417   4.771   3.556  10.616  0.2528 -0.1543  0.5501
13137SOL    HW141418   4.803   3.549  10.526 -1.9109  0.4684 -0.3237
13137SOL    HW241419   4.745   3.648  10.625 -1.5818 -0.6869  1.0596
13138SOL     OW41420   8.114   6.730   1.053 -0.1302 -0.1572  0.6141
13138SOL    HW141421   8.078   6.689   0.974 -0.3200 -1.1094  1.1909
13138SOL    HW241422   8.083   6.821   1.048 -0.3071 -0.2571 -0.3039
13139SOL     OW41423   7.604   6.538   7.571 -0.1212  0.5023 -0.3111
13139SOL    HW141424   7.691   6.569   7.597  0.5690 -2.0120  0.7533
13139SOL    HW241425   7.618   6.494   7.487 -0.4032  0.3212 -0.2648
13140SOL     OW41426  10.675   8.916   9.192  0.3263 -0.3124  0.2062
13140SOL    HW141427  10.685   8.838   9.248 -0.6554 -0.2051  0.5480
13140SOL    HW241428  10.628   8.884   9.115 -1.1821  0.1707  0.9006
13141SOL     OW41429   8.252  10.444   0.500 -0.1071  0.3412  0.1500
13141SOL    HW141430   8.202  10.377   0.547 -0.4275 -0.9354 -1.8498
13141SOL    HW241431   8.197  10.464   0.423  1.0326  1.2392 -0.4582
13142SOL     OW41432   0.841   1.848   9.942  0.1788 -0.0316 -0.4849
13142SOL    HW141433   0.914   1.841  10.004  0.3315  0.9934 -0.5401
13142SOL    HW241434   0.855   1.930   9.896 -0.1457 -0.5954 -1.6316
13143SOL     OW41435   7.898   5.472  10.330 -0.9601 -0.2493  0.4455
13143SOL    HW141436   7.981   5.512  10.356 -0.4262 -0.3339 -1.0039
13143SOL    HW241437   7.915   5.377  10.335 -0.7125 -0.2675 -0.5625
13144SOL     OW41438   4.987   7.874   0.073 -0.2603  0.4422  0.2997
13144SOL    HW141439   5.050   7.812   0.110 -0.7129 -1.0173 -1.2720
13144SOL    HW241440   4.942   7.910   0.149  2.3548  1.4754  1.4831
13145SOL     OW41441   1.529   5.178  10.844  0.2498  0.1689  0.3841
13145SOL    HW141442   1.503   5.241  10.776  1.5278  0.3094 -0.0070
13145SOL    HW241443   1.592   5.226  10.897 -0.4039 -0.0891  1.4286
13146SOL     OW41444   3.816   1.159   6.415 -0.5851  0.1860  0.1187
13146SOL    HW141445   3.736   1.170   6.465 -0.8567  0.7497 -0.4366
13146SOL    HW241446   3.884   1.198   6.470 -0.5369 -1.0325  0.9696
13147SOL     OW41447   5.471  10.163   4.933  0.5168 -0.3274 -0.2073
13147SOL    HW141448   5.463  10.079   4.888 -1.8109  0.0933 -0.6946
13147SOL    HW241449   5.551  10.201   4.897 -1.0372 -0.1416 -3.9073
13148SOL     OW41450   3.019   9.499   5.033  0.3211 -0.0096 -0.1201
13148SOL    HW141451   3.019   9.447   5.113 -0.9956 -0.6423 -0.5149
13148SOL    HW241452   3.030   9.589   5.064 -1.4218 -0.0969  0.9146
13149SOL     OW41453   9.352   7.200   4.027 -0.3367 -0.0259  0.4439
13149SOL    HW141454   9.314   7.125   4.072 -0.6179 -0.7617 -0.9869
13149SOL    HW241455   9.436   7.214   4.071 -0.8431 -0.3567  1.5523
13150SOL     OW41456   1.333   2.917   2.020  0.2635 -0.0960 -0.8912
13150SOL    HW141457   1.301   2.827   2.022  2.4537 -0.9643  1.0124
13150SOL    HW241458   1.340   2.941   2.113 -1.6950  2.6642 -1.3441
13151SOL     OW41459   4.121   7.374  10.583 -0.6997  0.3367  0.8951
13151SOL    HW141460   4.209   7.401  10.608  0.8194 -2.7370 -0.7342
13151SOL    HW241461   4.096   7.309  10.648 -0.3207 -1.2555 -0.4916
13152SOL     OW41462   2.926   1.262   1.365 -0.0525  0.1777  0.0164
13152SOL    HW141463   2.864   1.236   1.433 -1.6014  2.8477 -0.2203
13152SOL    HW241464   2.921   1.358   1.364 -0.9997  0.3045 -4.6100
13153SOL     OW41465   8.259   1.984   9.471  0.2964  0.1952  0.4699
13153SOL    HW141466   8.178   1.992   9.423  1.2862  0.8062 -1.1733
13153SOL    HW241467   8.235   1.941   9.553 -1.6890  0.5658  0.1133
13154SOL     OW41468   0.146  10.341   4.637  0.1035 -0.5493  0.2289
13154SOL    HW141469   0.188  10.389   4.708 -0.4437  0.0557  0.1513
13154SOL    HW241470   0.216  10.325   4.574  0.1616  0.7598 -0.0665
13155SOL     OW41471   2.925   1.172   1.782  0.2000 -0.2453 -0.3554
13155SOL    HW141472   2.883   1.258   1.787 -0.8074 -0.7635  3.9100
13155SOL    HW241473   2.863   1.118   1.734 -1.1353  0.4910  0.4689
13156SOL     OW41474   4.615   2.347   6.141 -0.6643  0.1892 -0.0538
13156SOL    HW141475   4.627   2.294   6.219 -1.2085 -1.1939 -0.8792
13156SOL    HW241476   4.638   2.436   6.169  1.0155 -0.5822  1.1493
13157SOL     OW41477   2.466   4.234   2.553 -0.2869 -0.2835 -0.0114
13157SOL    HW141478   2.488   4.172   2.623  0.3096 -1.7777 -1.4595
13157SOL    HW241479   2.419   4.181   2.489 -0.8821  1.0754 -0.7274
13158SOL     OW41480   8.469   2.825   5.429 -0.2430  0.4622 -0.5293
13158SOL    HW141481   8.400   2.888   5.407 -0.1469  0.3140 -1.2968
13158SOL    HW241482   8.506   2.800   5.344 -1.5138 -2.0612 -0.4340
13159SOL     OW41483   4.894   6.637   8.297  0.6734 -0.2134 -0.5208
13159SOL    HW141484   4.933   6.552   8.277  2.1559  0.5171 -0.9365
13159SOL    HW241485   4.905   6.688   8.216  2.8950  1.4306  0.7122
13160SOL     OW41486   3.572   7.476  10.272  0.0924  0.6944  0.4758
13160SOL    HW141487   3.537   7.456  10.359  0.2305 -0.1963  0.3399
13160SOL    HW241488   3.663   7.444  10.275 -0.0601  0.1842 -0.1532
13161SOL     OW41489   4.400   6.969   9.200  0.5024  0.2732  0.1514
13161SOL    HW141490   4.348   6.912   9.144 -0.8949  0.4021  1.2534
13161SOL    HW241491   4.489   6.933   9.195 -0.1699 -1.5128  0.1793
13162SOL     OW41492   2.561   4.625   5.409  0.8624 -0.3108 -0.1898
13162SOL    HW141493   2.565   4.629   5.504 -0.5717 -0.1489 -0.1190
13162SOL    HW241494   2.635   4.570   5.384  1.1174 -0.5403  1.0296
13163SOL     OW41495   8.402   4.054   2.139  0.0144 -0.0556  0.1909
13163SOL    HW141496   8.486   4.095   2.157  0.3509 -0.6524  0.0065
13163SOL    HW241497   8.350   4.071   2.217  0.0984  0.8363  0.0583
13164SOL     OW41498   1.162   7.704   3.937  0.6479  0.0959  0.3581
13164SOL    HW141499   1.114   7.744   4.009  1.4990 -0.0225  1.0073
13164SOL    HW241500   1.121   7.739   3.858  0.3059  0.9570  0.9062
13165SOL     OW41501   2.959   0.758   8.810  0.1363 -0.1721  0.7302
13165SOL    HW141502   2.964   0.812   8.731  0.2548 -0.2268  0.6994
13165SOL    HW241503   2.910   0.811   8.873  0.2733 -0.0188  0.7088
13166SOL     OW41504   1.252   1.475   1.013 -0.4047 -0.3962  0.0291
13166SOL    HW141505   1.239   1.433   0.928 -1.6762  0.3988 -0.1845
13166SOL    HW241506   1.329   1.531   1.000 -1.2091  0.5152 -0.9236
13167SOL     OW41507   4.340   0.033   6.109  0.5379 -0.5089 -0.5054
13167SOL    HW141508   4.338   0.061   6.018 -0.6065 -0.5813 -0.5084
13167SOL    HW241509   4.387  -0.051   6.107 -1.4418 -1.6505 -1.3684
13168SOL     OW41510  10.817   6.501   8.295 -0.0903  0.1329  0.0541
13168SOL    HW141511  10.793   6.590   8.267 -0.0731 -0.0308 -0.4987
13168SOL    HW241512  10.764   6.443   8.240  0.2115 -0.2052  0.1155
13169SOL     OW41513   7.966   8.703   4.940  0.5350 -0.0276  0.1860
13169SOL    HW141514   7.909   8.626   4.938  0.9867 -0.3656 -0.1227
13169SOL    HW241515   7.910   8.776   4.913  0.0562 -0.2157  0.6544
13170SOL     OW41516   0.124   4.290   4.954  0.5583 -0.5214 -0.2047
13170SOL    HW141517   0.123   4.336   5.037 -1.7366 -1.7790  0.5415
13170SOL    HW241518   0.146   4.358   4.889  3.0655  0.3314  1.4217
13171SOL     OW41519   9.936   1.956   8.239  0.6257  0.2687 -0.0423
13171SOL    HW141520   9.979   2.038   8.264  1.1926  0.1596 -0.6083
13171SOL    HW241521   9.878   1.981   8.167 -1.0116  0.5870  1.3447
13172SOL     OW41522   3.733   5.549  10.313 -0.1969  0.4912 -0.1257
13172SOL    HW141523   3.678   5.555  10.236  0.0180  1.1830 -0.2395
13172SOL    HW241524   3.674   5.520  10.383 -0.8029  1.5533 -0.1665
13173SOL     OW41525   6.660   1.418   3.589  0.3109  0.1461  0.3399
13173SOL    HW141526   6.706   1.502   3.595  0.3574  0.1708 -0.2513
13173SOL    HW241527   6.696   1.365   3.660  2.4134 -0.3908 -1.0491
13174SOL     OW41528   4.361   7.890   7.382  0.1228 -0.3307  0.4307
13174SOL    HW141529   4.318   7.974   7.368 -0.3017 -0.8378 -1.6129
13174SOL    HW241530   4.321   7.855   7.462  0.4232  1.4440  1.3968
13175SOL     OW41531   7.138   0.519   0.984  0.5675 -0.2888 -0.3920
13175SOL    HW141532   7.066   0.480   1.034  1.2744  1.2399  1.9778
13175SOL    HW241533   7.113   0.610   0.972  1.5616 -0.0296 -0.6043
13176SOL     OW41534   0.347   0.808   9.173  0.5717 -0.3801 -0.0840
13176SOL    HW141535   0.315   0.889   9.212  1.4803  0.1233 -0.3499
13176SOL    HW241536   0.432   0.793   9.215  0.1741 -1.4876  0.3514
13177SOL     OW41537   3.958   9.804   9.075 -0.0258 -0.5989 -0.5462
13177SOL    HW141538   3.977   9.805   8.981 -1.1666 -2.4199 -0.8467
13177SOL    HW241539   3.879   9.857   9.084  1.7102  2.0887 -0.1230
13178SOL     OW41540   7.942   4.837   4.351 -0.4082 -0.2025  0.0112
13178SOL    HW141541   7.987   4.794   4.279 -0.1356 -0.7898  0.5316
13178SOL    HW241542   8.007   4.844   4.421 -1.3085 -1.8171  1.0780
13179SOL     OW41543   9.974   4.157   9.754  0.4177  0.8400 -0.4685
13179SOL    HW141544   9.940   4.106   9.827 -3.1500  1.0146 -1.8377
13179SOL    HW241545  10.036   4.099   9.710 -0.0849 -0.5665  0.6409
13180SOL     OW41546   4.147   1.990   1.447 -0.1224  0.6277 -0.0161
13180SOL    HW141547   4.204   2.014   1.520  0.9016 -0.9912 -0.2320
13180SOL    HW241548   4.145   2.068   1.391  0.0764  1.4582  1.1016
13181SOL     OW41549   6.678   4.835   7.414  0.9385  0.5281 -0.4726
13181SOL    HW141550   6.680   4.907   7.351  1.2460  0.9556  0.0225
13181SOL    HW241551   6.666   4.877   7.499 -1.5333 -0.1653 -0.4054
13182SOL     OW41552   1.840   7.745   4.281 -0.1799  0.0409  0.8294
13182SOL    HW141553   1.901   7.818   4.271 -1.0345  0.8000  0.9873
13182SOL    HW241554   1.801   7.733   4.195  1.2220 -1.4173  0.3504
13183SOL     OW41555   0.798   8.828   4.978 -0.1676 -0.1355  0.9500
13183SOL    HW141556   0.833   8.807   4.892 -1.3702 -0.7808  0.5998
13183SOL    HW241557   0.810   8.747   5.029 -1.3307 -0.4343  0.7592
13184SOL     OW41558   5.788   7.146   1.105  0.0923 -0.0308  0.3832
13184SOL    HW141559   5.709   7.193   1.130 -1.0266 -1.1503 -0.8959
13184SOL    HW241560   5.782   7.062   1.151  1.4571  0.5271  1.6726
13185SOL     OW41561  10.357   5.111   6.112  0.2378  0.6219  1.0502
13185SOL    HW141562  10.445   5.090   6.079  0.3862  3.1702 -0.4862
13185SOL    HW241563  10.301   5.107   6.034 -0.7545  0.3682  1.7615
13186SOL     OW41564   6.141   9.078  10.923 -0.9413  0.1000  0.0012
13186SOL    HW141565   6.133   9.100  10.831 -1.5285 -0.5950 -0.1241
13186SOL    HW241566   6.205   9.140  10.958 -0.4253  0.1143 -0.9541
13187SOL     OW41567   4.130  10.285   5.079 -0.3594 -0.1738 -0.0850
13187SOL    HW141568   4.109  10.308   5.169 -1.3877 -0.0410 -0.3480
13187SOL    HW241569   4.224  10.267   5.080 -0.2623  0.3429  0.8994
13188SOL     OW41570   8.417   9.697   4.722  0.1245  0.3946  0.5858
13188SOL    HW141571   8.340   9.687   4.777 -0.2540  0.5430  0.0921
13188SOL    HW241572   8.453   9.608   4.714  0.5872  0.4780  1.6343
13189SOL     OW41573   6.143   9.504   0.186 -0.3121  0.3789 -0.3310
13189SOL    HW141574   6.093   9.584   0.196 -0.8338 -0.1926  2.3301
13189SOL    HW241575   6.124   9.453   0.265  1.0162 -1.8005 -1.3126
13190SOL     OW41576   5.868   0.558   2.053  0.2583  0.0509  0.1889
13190SOL    HW141577   5.831   0.535   1.968  0.6065  0.1760  0.0040
13190SOL    HW241578   5.904   0.476   2.087 -0.2957 -0.0987  0.4258
13191SOL     OW41579   9.781   0.541   8.646 -0.0872 -0.0458 -0.5557
13191SOL    HW141580   9.745   0.591   8.574  0.7626  0.2735 -0.7634
13191SOL    HW241581   9.840   0.601   8.691  0.0913 -0.5178 -0.1427
13192SOL     OW41582   2.373   4.068   9.297 -0.4132  0.2564  0.1221
13192SOL    HW141583   2.326   3.999   9.344  0.8035 -0.0848  0.8949
13192SOL    HW241584   2.335   4.149   9.331 -0.4867 -0.0128  0.7024
13193SOL     OW41585   1.933   7.046   8.780 -0.2699  0.3514 -0.5215
13193SOL    HW141586   1.849   7.018   8.815  0.9473 -1.3313  1.2434
13193SOL    HW241587   1.928   7.029   8.686 -1.2345 -1.5223 -0.1591
13194SOL     OW41588   1.935   0.807   4.335  0.1009 -0.0692  0.3850
13194SOL    HW141589   1.857   0.753   4.324 -0.2962  0.8491 -1.9406
13194SOL    HW241590   1.902   0.897   4.339  0.8633  0.1564  2.4626
13195SOL     OW41591   3.412   2.854   0.276 -0.4527  0.4466  0.1416
13195SOL    HW141592   3.392   2.903   0.356  0.4022  0.3304  0.4362
13195SOL    HW241593   3.505   2.870   0.260 -0.8724  1.5335 -1.5631
13196SOL     OW41594   3.257   9.562   7.598 -0.6769  0.0078  0.3594
13196SOL    HW141595   3.168   9.552   7.563 -0.6218  2.0693 -0.4823
13196SOL    HW241596   3.260   9.652   7.630  0.7814 -0.3786  1.4184
13197SOL     OW41597   6.502   7.973   1.251  0.0086 -0.2433 -0.1280
13197SOL    HW141598   6.417   8.014   1.237  0.9617  1.7232 -0.5830
13197SOL    HW241599   6.514   7.973   1.346 -0.5758 -0.7694 -0.0446
13198SOL     OW41600   8.692   5.397  10.027  0.6140  0.1523  0.2385
13198SOL    HW141601   8.706   5.364  10.116  3.5769  1.9425  0.5940
13198SOL    HW241602   8.646   5.480  10.040  1.7152  0.7897  0.2387
13199SOL     OW41603   3.892   1.317   3.121  0.2707 -0.8590  0.1978
13199SOL    HW141604   3.896   1.260   3.197  2.8078 -1.2116 -0.1036
13199SOL    HW241605   3.984   1.335   3.100 -0.4032  2.2623 -0.5330
13200SOL     OW41606  10.006   7.097   8.285 -0.2328  0.5399  0.1900
13200SOL    HW141607  10.054   7.015   8.271 -1.1341  0.1365 -0.6565
13200SOL    HW241608  10.053   7.161   8.232 -0.7656  0.0889 -0.8508
13201SOL     OW41609   7.539   6.214   9.856 -0.7248  0.5667  0.4212
13201SOL    HW141610   7.512   6.192   9.945 -1.8603  0.7845  0.1394
13201SOL    HW241611   7.539   6.131   9.809  1.0118  0.2643  0.8915
13202SOL     OW41612  10.465   8.699   1.315 -0.3105  0.1375 -0.6246
13202SOL    HW141613  10.537   8.636   1.323 -0.7656 -0.3182 -0.0151
13202SOL    HW241614  10.457   8.738   1.402 -0.1127  0.9635 -0.9671
13203SOL     OW41615   2.728  10.303   1.403 -0.1432 -0.0650  0.0969
13203SOL    HW141616   2.767  10.386   1.377 -1.0932  0.3380 -0.0538
13203SOL    HW241617   2.800  10.255   1.444  0.4661  0.7344 -0.0173
13204SOL     OW41618   5.765   3.314  10.927  0.3900 -0.2266  0.1467
13204SOL    HW141619   5.830   3.286  10.862 -0.7680 -1.9867 -0.3128
13204SOL    HW241620   5.758   3.408  10.913  1.2590 -0.3270 -1.2737
13205SOL     OW41621   4.686   1.514   0.058  0.0947 -0.4154 -0.0100
13205SOL    HW141622   4.752   1.449   0.080  0.5636  0.0308 -0.0852
13205SOL    HW241623   4.734   1.596   0.049 -0.7395  0.3918  2.1159
13206SOL     OW41624   5.786  10.035   0.537 -0.4330 -0.1740 -0.2183
13206SOL    HW141625   5.864  10.084   0.513 -1.3812  1.5566  0.1062
13206SOL    HW241626   5.715  10.078   0.489 -1.4030 -0.7663  0.6588
13207SOL     OW41627  10.955   8.673   1.808  0.4813 -0.3245 -0.1655
13207SOL    HW141628  10.927   8.763   1.790  1.9728  0.7272  2.2460
13207SOL    HW241629  10.959   8.668   1.904 -0.4986 -3.3023 -0.1843
13208SOL     OW41630   2.819   5.611   1.596  0.7066 -0.1618  0.3132
13208SOL    HW141631   2.893   5.626   1.537  0.4466 -1.1301 -0.2671
13208SOL    HW241632   2.766   5.544   1.553 -0.7875  0.8628  0.4840
13209SOL     OW41633   5.859   6.942   8.885  0.1260 -0.4615  0.4130
13209SOL    HW141634   5.876   7.034   8.866 -0.3417 -0.2208  1.1222
13209SOL    HW241635   5.859   6.900   8.799 -0.0175  0.2634  0.0464
13210SOL     OW41636   8.974   1.560   1.489  0.0616 -0.3999  0.4501
13210SOL    HW141637   8.957   1.647   1.524 -0.4225 -1.6033  3.5587
13210SOL    HW241638   9.070   1.550   1.494  0.6083  1.1260 -3.3903
13211SOL     OW41639   0.100   4.858  10.527  0.1694  0.7288 -0.2040
13211SOL    HW141640   0.075   4.768  10.549 -0.0527  0.4506 -1.5459
13211SOL    HW241641   0.183   4.871  10.573  0.1782 -0.1332  0.0442
13212SOL     OW41642   9.696   7.861   3.119  0.1108  0.3985 -0.2989
13212SOL    HW141643   9.676   7.948   3.084  0.8557 -0.4114 -2.9157
13212SOL    HW241644   9.627   7.805   3.084 -0.3737 -0.1403  1.3846
13213SOL     OW41645   9.190   4.087  10.720 -0.7555  0.7465 -0.2047
13213SOL    HW141646   9.204   4.170  10.766 -1.1241  0.1645  0.9781
13213SOL    HW241647   9.278   4.057  10.698 -0.4271  0.1213  1.7827
13214SOL     OW41648   9.418   4.324   7.140 -0.4027 -0.3136 -0.1996
13214SOL    HW141649   9.381   4.254   7.087 -1.2671 -1.3084  1.6463
13214SOL    HW241650   9.513   4.314   7.130 -0.5395 -0.2851 -1.7559
13215SOL     OW41651   2.637   9.131   9.884  0.1469  0.1738  0.1832
13215SOL    HW141652   2.651   9.210   9.936  1.1486 -0.2189  0.5455
13215SOL    HW241653   2.562   9.088   9.925  0.5112  0.2075  0.8945
13216SOL     OW41654   4.238   2.046   3.496  0.0127  0.2171  0.5458
13216SOL    HW141655   4.245   2.074   3.587  0.8675 -1.8032  1.1778
13216SOL    HW241656   4.160   1.990   3.494 -0.5697  1.0184 -0.2204
13217SOL     OW41657   0.280   7.620   7.653 -0.2179  0.2930  0.5330
13217SOL    HW141658   0.202   7.640   7.706 -0.4400 -0.5268  0.5173
13217SOL    HW241659   0.280   7.687   7.584  0.1566  1.4813  1.6316
13218SOL     OW41660   2.536   5.580   6.409  0.1086 -0.2199 -0.4927
13218SOL    HW141661   2.580   5.529   6.341  0.4310  0.3484 -0.7148
13218SOL    HW241662   2.498   5.514   6.467  1.4881 -0.7381 -0.1454
13219SOL     OW41663   4.612   3.163   9.129  0.9371  0.0733 -0.0839
13219SOL    HW141664   4.687   3.170   9.071  1.6128  0.4920  0.8212
13219SOL    HW241665   4.542   3.126   9.074  1.1372  1.7311 -1.5283
13220SOL     OW41666   6.397   7.752   5.665  0.0166 -0.0655  0.4303
13220SOL    HW141667   6.471   7.736   5.724 -0.7162 -2.3326  0.8670
13220SOL    HW241668   6.351   7.668   5.663 -1.7320  0.8713 -0.9655
13221SOL     OW41669   2.430   0.359   6.138  0.1524 -0.3440 -0.6793
13221SOL    HW141670   2.461   0.440   6.098 -0.1093 -0.6415 -1.5049
13221SOL    HW241671   2.335   0.363   6.130  0.1282 -0.6503 -0.5540
13222SOL     OW41672   0.315   3.870   6.380  0.1431  0.0979 -0.3039
13222SOL    HW141673   0.335   3.957   6.346  0.3390  0.2116  0.0883
13222SOL    HW241674   0.222   3.873   6.403 -0.5322 -0.6322 -2.7319
13223SOL     OW41675   7.573   3.995   6.707 -0.4012 -0.1961 -0.5087
13223SOL    HW141676   7.596   4.086   6.727  0.5197  0.2062 -3.0206
13223SOL    HW241677   7.618   3.944   6.774 -0.5680  1.1455  0.6821
13224SOL     OW41678   3.777   7.816   9.341  0.1383  0.1080 -0.2151
13224SOL    HW141679   3.810   7.795   9.254  0.6150  1.9186 -0.5119
13224SOL    HW241680   3.695   7.862   9.324 -0.7418 -1.1775  0.3936
13225SOL     OW41681   1.808  10.189  10.555  0.0727  0.3444  0.0645
13225SOL    HW141682   1.815  10.276  10.595  0.2126  0.6240 -0.5578
13225SOL    HW241683   1.895  10.173  10.518  1.1700 -1.4901  3.0010
13226SOL     OW41684   4.025  10.621   0.362 -0.6348  0.3218 -0.6778
13226SOL    HW141685   4.079  10.614   0.440 -3.2456  1.2827  1.3811
13226SOL    HW241686   4.068  10.565   0.297  0.5540 -2.2807  2.1091
13227SOL     OW41687   1.289   0.341  10.991 -0.2935  0.9482  0.0781
13227SOL    HW141688   1.325   0.345  11.080  0.6605 -1.6835 -0.1092
13227SOL    HW241689   1.352   0.389  10.937  1.0610 -0.5084  0.3156
13228SOL     OW41690   1.916  10.643   8.285 -0.1920 -0.3841 -0.2722
13228SOL    HW141691   2.007  10.620   8.265 -0.3409 -0.2154 -1.1865
13228SOL    HW241692   1.922  10.725   8.334  0.3005 -1.8605  2.3508
13229SOL     OW41693   1.826   6.635   3.449 -0.1572  0.1775  0.5268
13229SOL    HW141694   1.880   6.565   3.412  1.2705  0.8097  1.2936
13229SOL    HW241695   1.861   6.648   3.537 -0.2422  1.9575  0.3367
13230SOL     OW41696   0.513   7.408   4.011  0.3753  0.1353  0.4019
13230SOL    HW141697   0.550   7.345   4.073 -1.1573 -0.1237  1.0761
13230SOL    HW241698   0.590   7.453   3.975  1.4277 -1.3201  0.7333
13231SOL     OW41699   2.186   0.589   2.452  0.5551  0.1668  0.3714
13231SOL    HW141700   2.218   0.665   2.404  2.1180  0.5817  1.9514
13231SOL    HW241701   2.182   0.618   2.544 -2.4572 -0.5343  0.5810
13232SOL     OW41702  10.480   0.167   4.398  0.0753 -0.2884  0.4077
13232SOL    HW141703  10.522   0.081   4.405  0.3544 -0.0591  1.9889
13232SOL    HW241704  10.527   0.211   4.328 -0.2453 -1.5138 -0.6085
13233SOL     OW41705   9.967  11.002   9.981  0.1909  0.2173  0.0725
13233SOL    HW141706   9.948  10.944  10.055 -1.9115  2.1737  1.1817
13233SOL    HW241707  10.030  10.953   9.928 -0.2752 -2.3791  1.7370
13234SOL     OW41708   8.468   0.620   7.346  0.7123  0.4112 -0.2474
13234SOL    HW141709   8.440   0.569   7.270  0.4852 -0.2787  0.2897
13234SOL    HW241710   8.534   0.680   7.311  0.6824  0.0393 -0.9719
13235SOL     OW41711   9.424   7.299   5.130 -0.2230 -0.0830  0.4826
13235SOL    HW141712   9.421   7.389   5.163 -0.6986  0.1894 -0.2792
13235SOL    HW241713   9.333   7.271   5.126 -0.1121 -0.4230  0.2526
13236SOL     OW41714  10.498   5.341   9.705 -0.1497  0.5204  0.3495
13236SOL    HW141715  10.517   5.382   9.790  1.5412  0.5510 -0.0067
13236SOL    HW241716  10.567   5.276   9.694 -2.0164 -1.5647  0.2893
13237SOL     OW41717   8.332   8.916   8.702  0.0239  0.3818 -0.9329
13237SOL    HW141718   8.282   8.907   8.783 -0.0568  1.9781 -0.7640
13237SOL    HW241719   8.271   8.956   8.640  0.9798  2.2424 -0.7618
13238SOL     OW41720   6.401   2.562   8.286  0.0526  0.3139 -0.3441
13238SOL    HW141721   6.467   2.560   8.217 -0.3139  1.1244 -0.7317
13238SOL    HW241722   6.430   2.631   8.345 -0.9054  1.3102 -1.0023
13239SOL     OW41723   7.482   9.033   5.650  0.2763 -0.1122 -0.0787
13239SOL    HW141724   7.393   9.065   5.667  0.6161  1.3079 -0.8462
13239SOL    HW241725   7.539   9.107   5.672  1.0922 -0.1163 -2.0179
13240SOL     OW41726   2.103   0.028  10.061  0.4614  0.2455  0.4317
13240SOL    HW141727   2.009   0.019  10.077  0.1869 -2.8218 -2.0237
13240SOL    HW241728   2.144  -0.028  10.128  0.2580 -0.9631 -0.4128
13241SOL     OW41729   8.588   7.380   8.979 -0.2947 -0.2012  0.1309
13241SOL    HW141730   8.625   7.374   8.891 -1.2340 -2.1602 -0.1795
13241SOL    HW241731   8.522   7.449   8.972  0.9591  1.0224 -0.1515
13242SOL     OW41732   8.027   9.078   3.909  0.1666  0.2836 -0.0514
13242SOL    HW141733   8.057   8.993   3.877  0.3037  0.2851  0.0697
13242SOL    HW241734   8.047   9.140   3.839 -0.5789  0.1056 -0.4373
13243SOL     OW41735   8.356   0.707   0.188  0.0951 -0.2154 -0.6280
13243SOL    HW141736   8.406   0.765   0.245 -1.5611  1.2975 -0.6369
13243SOL    HW241737   8.422   0.661   0.137  1.5123  0.5738  0.4190
13244SOL     OW41738   1.686   2.304   7.134  0.5535 -0.3102  0.1790
13244SOL    HW141739   1.636   2.223   7.140 -2.4449  1.5040  1.7947
13244SOL    HW241740   1.678   2.330   7.042  1.6528 -1.8056 -0.3892
13245SOL     OW41741   5.452  10.016   2.362 -0.0248 -0.7454 -0.2856
13245SOL    HW141742   5.490  10.101   2.339 -1.5809  0.0535 -0.0438
13245SOL    HW241743   5.393   9.996   2.290 -1.4851 -0.4173  0.7617
13246SOL     OW41744   5.380   9.157   2.803 -0.0617 -0.4389 -0.0349
13246SOL    HW141745   5.334   9.238   2.781 -2.5675 -1.3642  1.2970
13246SOL    HW241746   5.398   9.116   2.718  0.5185  1.1111 -0.6877
13247SOL     OW41747   8.875   5.230   7.430 -0.4868 -0.1495  1.0306
13247SOL    HW141748   8.888   5.164   7.498  2.7476 -0.8153 -0.0821
13247SOL    HW241749   8.806   5.193   7.374 -0.7581 -1.2181  2.0313
13248SOL     OW41750   6.041   4.419   4.861  0.7336  0.3570  0.0818
13248SOL    HW141751   6.051   4.400   4.768  0.7203  0.6227  0.0248
13248SOL    HW241752   6.092   4.352   4.905  1.6345  0.8678 -0.1582
13249SOL     OW41753   4.433   2.027  10.980  0.6500 -0.0526  0.5814
13249SOL    HW141754   4.497   2.087  11.018  2.1261 -0.4473 -1.1774
13249SOL    HW241755   4.351   2.049  11.025  1.5313  2.0017  1.3192
13250SOL     OW41756   9.352  10.040   4.396 -0.0326  0.2601  0.4968
13250SOL    HW141757   9.259  10.050   4.419 -0.1636 -2.8057  1.7729
13250SOL    HW241758   9.392  10.000   4.473  1.6383 -1.4158 -1.1306
13251SOL     OW41759   3.517   8.646   9.191 -0.1322  0.0818 -0.1679
13251SOL    HW141760   3.555   8.665   9.105  0.8421  3.5263  0.8266
13251SOL    HW241761   3.445   8.709   9.199 -0.2246 -0.2063  1.4990
13252SOL     OW41762   0.594   8.924   3.702  0.4486  0.0262  0.3772
13252SOL    HW141763   0.673   8.876   3.729  0.4477  0.3456  0.9662
13252SOL    HW241764   0.594   8.919   3.606  0.9485 -0.3522  0.3952
13253SOL     OW41765   7.024   2.496   5.954 -0.1159 -0.1616  0.4599
13253SOL    HW141766   7.115   2.513   5.928 -0.4609 -0.0410 -0.7406
13253SOL    HW241767   6.972   2.549   5.893 -1.0230 -1.1354  0.3726
13254SOL     OW41768   0.717   6.636   9.265 -0.1272  0.0328 -0.7594
13254SOL    HW141769   0.795   6.656   9.318 -0.2752 -0.5419 -0.3085
13254SOL    HW241770   0.730   6.684   9.184  1.7317 -1.6754 -1.5575
13255SOL     OW41771   5.864   8.497   9.723  0.3362 -0.3946  0.3335
13255SOL    HW141772   5.931   8.482   9.656  1.3049 -1.0061  1.3921
13255SOL    HW241773   5.836   8.587   9.709  0.8929 -0.3446 -0.5518
13256SOL     OW41774  10.592  10.620   1.856  0.1082  0.3757  0.4400
13256SOL    HW141775  10.578  10.527   1.836 -1.1384  0.1853  1.9702
13256SOL    HW241776  10.612  10.621   1.950  0.5664  1.6227  0.3394
13257SOL     OW41777   7.754   2.370   0.484  0.1566  0.0504 -0.1964
13257SOL    HW141778   7.781   2.326   0.564 -0.3881  0.3814  0.1752
13257SOL    HW241779   7.668   2.407   0.504 -0.7586 -1.2772 -1.4374
13258SOL     OW41780   9.236   6.166   4.002  0.0373  0.0886 -0.2202
13258SOL    HW141781   9.239   6.081   4.045  0.4483 -1.1839 -2.5947
13258SOL    HW241782   9.142   6.184   3.993 -0.0679  0.6274  1.5418
13259SOL     OW41783   9.863   9.803  10.858  0.1983 -0.1717 -0.0361
13259SOL    HW141784   9.782   9.756  10.878 -0.6595  1.3878  0.2982
13259SOL    HW241785   9.854   9.829  10.766  0.2644  0.1259  0.0423
13260SOL     OW41786   3.645   4.170   8.351  0.1767 -0.4845 -0.4431
13260SOL    HW141787   3.737   4.184   8.374  0.4020 -0.1308 -1.4999
13260SOL    HW241788   3.624   4.243   8.292 -0.5420 -1.0231 -0.8643
13261SOL     OW41789   6.821   3.974   7.776 -0.5556 -0.5712  0.5663
13261SOL    HW141790   6.821   4.010   7.865 -1.0619  0.0024  0.3432
13261SOL    HW241791   6.813   3.879   7.789  0.2316 -0.5644  1.1511
13262SOL     OW41792   5.631   3.339   9.250 -0.3305 -0.5630  0.4110
13262SOL    HW141793   5.540   3.314   9.268  0.1061 -1.2898  1.7515
13262SOL    HW241794   5.645   3.312   9.159 -1.3511 -0.7549  0.2914
13263SOL     OW41795   4.490   5.474  11.006  0.3031  0.4024  0.4327
13263SOL    HW141796   4.570   5.478  10.955 -0.0419  0.1150 -0.1429
13263SOL    HW241797   4.432   5.539  10.966  0.2539  0.6260  0.8607
13264SOL     OW41798   9.859   5.068   6.626  0.4404 -0.4505 -0.2567
13264SOL    HW141799   9.909   5.149   6.617  0.9417 -0.7122  0.1663
13264SOL    HW241800   9.924   5.000   6.641  0.0117 -0.9133 -0.4459
13265SOL     OW41801   6.652   1.977   1.920  0.3326 -0.7579  0.2414
13265SOL    HW141802   6.670   2.057   1.968  0.5304 -1.0607  0.6816
13265SOL    HW241803   6.598   2.004   1.846 -0.3038 -0.3404  0.8499
13266SOL     OW41804   0.159   4.717   8.716 -0.0338 -0.1767  0.0341
13266SOL    HW141805   0.141   4.658   8.643  0.3029 -0.8212  0.4678
13266SOL    HW241806   0.154   4.804   8.678  2.3216 -0.5320 -1.2839
13267SOL     OW41807   8.031   0.226   3.820  0.2982 -0.5315  0.4303
13267SOL    HW141808   8.013   0.248   3.729  0.1873  0.9869  0.7941
13267SOL    HW241809   8.111   0.274   3.841 -0.4531  0.2945  1.5304
13268SOL     OW41810   2.549  10.076   5.518 -0.1047 -0.1977 -0.3790
13268SOL    HW141811   2.473  10.027   5.487 -0.0753 -0.9525  0.7012
13268SOL    HW241812   2.515  10.162   5.541  0.0239  0.7556 -3.3122
13269SOL     OW41813   4.718   4.872   8.231 -0.6394  0.1353  0.3433
13269SOL    HW141814   4.692   4.908   8.146 -0.6001 -0.5213  0.0493
13269SOL    HW241815   4.809   4.900   8.241  0.7446 -3.0943 -1.7062
13270SOL     OW41816   8.001  10.552  10.207  0.1184  0.4021 -0.3252
13270SOL    HW141817   7.925  10.502  10.237 -0.3847  0.4837 -1.4062
13270SOL    HW241818   8.011  10.527  10.116  0.3554  1.6481 -0.6616
13271SOL     OW41819  10.841   0.239   2.510  0.0678  0.2086 -0.0756
13271SOL    HW141820  10.760   0.278   2.542  1.9343  2.7960  2.0356
13271SOL    HW241821  10.884   0.311   2.463  1.7527 -0.6094  0.1584
13272SOL     OW41822   7.533   9.794   3.102  0.5167 -0.0820 -0.5097
13272SOL    HW141823   7.583   9.729   3.051  0.1310 -0.0148 -0.9731
13272SOL    HW241824   7.452   9.749   3.125  0.4366  0.0906 -0.4546
13273SOL     OW41825   3.451  10.047   2.412  0.4679 -0.5618  0.0094
13273SOL    HW141826   3.506  10.023   2.485  0.1823 -1.6008 -0.1008
13273SOL    HW241827   3.392  10.115   2.447  1.9554  0.7595  0.0476
13274SOL     OW41828   2.197   0.933  10.120  0.3805 -0.0555 -0.0265
13274SOL    HW141829   2.152   1.016  10.101 -0.1813 -0.0172  1.3567
13274SOL    HW241830   2.222   0.899  10.034  0.1963  1.3150 -0.6479
13275SOL     OW41831   4.962  10.084   4.498  0.1585 -0.5875 -0.2273
13275SOL    HW141832   4.873  10.050   4.487  0.2986 -1.2486  0.5869
13275SOL    HW241833   4.991  10.049   4.583  0.6057  0.9167  0.2674
13276SOL     OW41834   4.096   0.635   5.670 -0.3843 -0.1633 -0.3216
13276SOL    HW141835   4.002   0.626   5.685 -0.4462 -1.1660 -1.1752
13276SOL    HW241836   4.105   0.634   5.575  0.7029 -2.9503 -0.2813
13277SOL     OW41837   9.686   7.044   3.871 -0.1204 -0.3716  0.8029
13277SOL    HW141838   9.709   7.134   3.896 -0.5742  0.3377 -1.1242
13277SOL    HW241839   9.766   6.994   3.884  1.1144  0.9916 -1.0549
13278SOL     OW41840   8.915   8.862   2.299  0.5271 -0.3883 -0.3295
13278SOL    HW141841   8.990   8.853   2.358  1.6449 -0.0833 -1.6245
13278SOL    HW241842   8.897   8.772   2.270  0.3106 -0.4770  0.0821
13279SOL     OW41843   5.124   3.509   8.859 -0.5252 -0.6892  0.9729
13279SOL    HW141844   5.080   3.573   8.804 -1.4653 -2.3430 -0.2703
13279SOL    HW241845   5.144   3.557   8.940 -1.9599  0.9151  0.4326
13280SOL     OW41846   8.013   0.934   4.366 -0.3074 -0.0437  0.4203
13280SOL    HW141847   8.008   0.963   4.457  3.0615 -0.8705  1.0051
13280SOL    HW241848   8.107   0.926   4.348 -0.8786 -1.9126 -2.4862
13281SOL     OW41849   3.731   9.107  10.623 -0.8802  0.0640 -0.1488
13281SOL    HW141850   3.810   9.069  10.661  0.1347 -0.0007 -2.2383
13281SOL    HW241851   3.661   9.046  10.648 -0.3896  0.2615  1.9399
13282SOL     OW41852   7.904   8.692  10.692  0.4222 -0.5113 -0.5262
13282SOL    HW141853   7.823   8.739  10.713  0.6615  0.2803 -1.3149
13282SOL    HW241854   7.875   8.620  10.637  0.1998 -0.4912 -0.4375
13283SOL     OW41855   5.739   7.075  10.183 -0.2797 -0.4426 -0.3169
13283SOL    HW141856   5.756   7.094  10.091  1.2784  0.1679  0.0692
13283SOL    HW241857   5.798   7.003  10.204  0.3839  0.3267  0.5366
13284SOL     OW41858   8.805   9.117   4.545  0.0361 -0.0331 -0.2724
13284SOL    HW141859   8.892   9.083   4.565  0.3486  0.3621 -0.9488
13284SOL    HW241860   8.753   9.039   4.526  0.3084 -0.2504 -0.1310
13285SOL     OW41861   5.503   9.317   3.698  0.1495  0.0816  0.1157
13285SOL    HW141862   5.454   9.293   3.620  0.3291  0.2094 -0.0353
13285SOL    HW241863   5.525   9.409   3.686 -1.6195  0.7205  1.2637
13286SOL     OW41864   7.671   9.727  10.922  0.2958 -0.0590  0.5778
13286SOL    HW141865   7.723   9.683  10.989  0.6322  0.6615  0.7948
13286SOL    HW241866   7.618   9.790  10.969 -0.1256 -0.1679  0.2590
13287SOL     OW41867   4.808   1.764   7.802  0.1266 -0.0743  0.5990
13287SOL    HW141868   4.831   1.737   7.713  0.1405 -2.8703  1.3759
13287SOL    HW241869   4.745   1.834   7.789  0.1936 -0.3365 -1.6121
13288SOL     OW41870   3.389   8.351   3.498  0.1152  0.3088 -0.2458
13288SOL    HW141871   3.343   8.435   3.497 -2.0278 -0.7010  1.8762
13288SOL    HW241872   3.453   8.360   3.569 -0.3687  0.0741  0.2324
13289SOL     OW41873   8.368  10.385   2.806 -0.7975 -0.0941 -0.0911
13289SOL    HW141874   8.286  10.344   2.831  0.4112 -1.8929  1.1564
13289SOL    HW241875   8.391  10.441   2.879 -0.0532 -1.0114  0.4104
13290SOL     OW41876  10.835   0.407   9.350 -0.3230 -0.3540  0.1496
13290SOL    HW141877  10.755   0.381   9.305  1.0755 -1.9708 -1.5520
13290SOL    HW241878  10.868   0.482   9.300 -0.5426  0.0422  0.5926
13291SOL     OW41879   1.728   3.479   3.833 -0.0897 -0.1563 -0.0261
13291SOL    HW141880   1.765   3.428   3.905  1.2759 -0.9642 -1.2446
13291SOL    HW241881   1.652   3.428   3.805 -0.9740  0.4517  1.1576
13292SOL     OW41882   7.018   9.247   9.614  0.2313  0.6039  0.1128
13292SOL    HW141883   7.088   9.308   9.637  1.9498 -0.6397 -1.4735
13292SOL    HW241884   7.031   9.173   9.673  1.1670 -0.1983 -1.0391
13293SOL     OW41885   2.423   5.726   3.504 -0.4337  0.4412 -0.6445
13293SOL    HW141886   2.479   5.690   3.574 -0.4638  0.7069 -0.4844
13293SOL    HW241887   2.338   5.740   3.546 -0.8528 -0.6593 -1.0691
13294SOL     OW41888   2.358   2.728   6.597 -0.1120 -1.1728 -0.1543
13294SOL    HW141889   2.336   2.705   6.507  0.8603 -0.4125 -0.5919
13294SOL    HW241890   2.452   2.712   6.605  0.1320  0.2708  0.2387
13295SOL     OW41891   7.246   5.439   0.279 -0.1229  0.5227 -0.0318
13295SOL    HW141892   7.296   5.513   0.313  0.1723  0.3161 -0.0143
13295SOL    HW241893   7.262   5.441   0.184 -0.9316  1.0885 -0.1646
13296SOL     OW41894   7.844   9.596   7.796  0.3672  0.2984 -0.3755
13296SOL    HW141895   7.768   9.644   7.764  1.6924  3.6783  1.0433
13296SOL    HW241896   7.900   9.587   7.719 -0.8546 -1.1181 -1.1533
13297SOL     OW41897   1.577   5.163   1.259 -0.2260  0.4461 -0.0136
13297SOL    HW141898   1.538   5.106   1.325 -0.6259 -0.6231 -1.1110
13297SOL    HW241899   1.509   5.227   1.239 -0.2451  0.5362  0.3373
13298SOL     OW41900  10.569   1.726   2.735  0.0929 -0.0809  0.4126
13298SOL    HW141901  10.559   1.676   2.653  1.1481 -0.3336  0.4155
13298SOL    HW241902  10.483   1.763   2.751 -0.4977 -1.1886 -0.0659
13299SOL     OW41903   1.014   8.365   3.232 -0.0117 -0.1202  0.2901
13299SOL    HW141904   0.924   8.342   3.209 -0.0547  0.7815 -0.5267
13299SOL    HW241905   1.008   8.398   3.321 -0.9365  2.1605 -0.5301
13300SOL     OW41906   7.221  11.000   8.969  0.0337 -0.2334 -0.3587
13300SOL    HW141907   7.256  10.956   8.892 -1.2210 -1.2795 -0.3580
13300SOL    HW241908   7.235  11.094   8.952 -0.1416 -0.4556 -1.8088
13301SOL     OW41909   2.760   8.388   2.308 -0.1008  0.0292 -0.1228
13301SOL    HW141910   2.775   8.472   2.351 -1.5515  0.9607 -1.3358
13301SOL    HW241911   2.700   8.341   2.365  2.1757 -1.0665  1.5359
13302SOL     OW41912   1.494   0.096   5.252 -0.1210 -0.2718 -0.1078
13302SOL    HW141913   1.587   0.113   5.240 -0.1195 -1.6595 -2.9631
13302SOL    HW241914   1.450   0.164   5.201 -0.7484  0.7278  1.6947
13303SOL     OW41915   1.154   2.900   9.816  0.2442 -0.4989 -0.1434
13303SOL    HW141916   1.090   2.830   9.801 -0.4681 -0.6335  2.9684
13303SOL    HW241917   1.178   2.928   9.728  0.1678 -4.2585 -1.5597
13304SOL     OW41918   3.415   4.466  10.302  0.4635  0.1439 -0.1946
13304SOL    HW141919   3.417   4.384  10.351  0.1057 -0.2957 -0.9022
13304SOL    HW241920   3.323   4.492  10.304  0.3968 -0.0353 -0.8944
13305SOL     OW41921   2.395   7.290   2.503 -0.4457 -0.2792 -0.2409
13305SOL    HW141922   2.476   7.242   2.486 -1.3723 -1.7082 -0.8148
13305SOL    HW241923   2.379   7.339   2.422  0.2005  0.5515  0.1303
13306SOL     OW41924   4.309   0.594   0.352  0.4376  0.5803 -0.2721
13306SOL    HW141925   4.320   0.504   0.385  2.0467  0.3279 -1.4005
13306SOL    HW241926   4.306   0.584   0.257  1.8297  1.8196 -0.4717
13307SOL     OW41927   6.116  10.445   1.488 -0.2884  0.3249  0.3324
13307SOL    HW141928   6.053  10.376   1.466 -0.2816  0.6267 -0.7179
13307SOL    HW241929   6.201  10.405   1.472 -0.2662  0.3874  0.2934
13308SOL     OW41930   7.141   8.939   7.531  0.0628 -0.1510 -0.1448
13308SOL    HW141931   7.234   8.962   7.532 -0.1214  0.7900  2.1163
13308SOL    HW241932   7.139   8.844   7.523  1.1724 -0.1173 -1.0373
13309SOL     OW41933   7.961   2.197   7.160 -0.3542 -0.4734 -0.0165
13309SOL    HW141934   7.881   2.248   7.149 -0.6170 -1.1102 -1.2110
13309SOL    HW241935   8.026   2.242   7.105  0.1221  0.0193  0.9160
13310SOL     OW41936   5.971   0.705   2.364  0.8032 -0.3960  0.0196
13310SOL    HW141937   5.882   0.701   2.328  0.1241 -0.6981  1.6212
13310SOL    HW241938   6.022   0.647   2.308  0.0453 -0.0855 -1.0332
13311SOL     OW41939   7.618  10.230   9.504  0.5596 -0.6437 -0.3088
13311SOL    HW141940   7.530  10.249   9.537  1.4271  0.2248  1.6608
13311SOL    HW241941   7.608  10.149   9.454 -1.1380 -1.2083  0.8708
13312SOL     OW41942   4.262   9.484   0.187  0.0420  0.2565 -0.2872
13312SOL    HW141943   4.334   9.542   0.164  0.6250 -0.6525 -0.8289
13312SOL    HW241944   4.294   9.436   0.264 -0.2649  0.3432 -0.1045
13313SOL     OW41945   0.801   9.969   4.177  0.7143  0.5398 -0.2371
13313SOL    HW141946   0.854   9.957   4.256  0.5994  2.1223  0.1303
13313SOL    HW241947   0.721  10.012   4.208  1.1389  2.2119 -1.3076
13314SOL     OW41948   1.232   1.028   5.660  0.6272  0.0211  0.4594
13314SOL    HW141949   1.224   1.011   5.754  0.3114  3.6079  1.2043
13314SOL    HW241950   1.322   1.059   5.649  0.2613  0.9151 -0.1345
13315SOL     OW41951   5.493   6.853   1.261  0.1762  0.0897 -0.0296
13315SOL    HW141952   5.486   6.762   1.291  1.0981  0.4318  1.3317
13315SOL    HW241953   5.463   6.851   1.170 -2.3294 -1.0956  0.7433
13316SOL     OW41954   5.749   8.177   3.049 -0.2738 -0.0861  0.0029
13316SOL    HW141955   5.735   8.100   3.103 -0.3280 -0.6486 -0.7916
13316SOL    HW241956   5.818   8.152   2.988 -0.4117  0.4308 -0.3770
13317SOL     OW41957   7.770   6.237   4.499 -0.0157 -0.5838 -0.0615
13317SOL    HW141958   7.801   6.203   4.415  1.4195  0.9097 -0.1854
13317SOL    HW241959   7.677   6.257   4.484  0.0374 -1.0226 -1.0728
13318SOL     OW41960   9.248   7.281   9.334 -0.1118  0.1802  0.2097
13318SOL    HW141961   9.326   7.335   9.345  0.2566 -0.5644  1.4264
13318SOL    HW241962   9.226   7.291   9.242  2.1342 -0.5467 -0.4723
13319SOL     OW41963   0.972   6.750   7.337  0.3652  0.0094  0.0951
13319SOL    HW141964   0.971   6.815   7.407  0.2414  0.9617 -0.7708
13319SOL    HW241965   0.933   6.672   7.376 -2.1064  1.2849  0.3871
13320SOL     OW41966   3.817  10.141   6.540  0.2547  0.1998 -0.1406
13320SOL    HW141967   3.743  10.102   6.493  0.1779  0.7154 -0.4575
13320SOL    HW241968   3.795  10.234   6.546  0.6389  0.2718  0.2196
13321SOL     OW41969   7.356   5.193   2.634  0.0649  0.4130  0.1023
13321SOL    HW141970   7.398   5.109   2.655  0.7966  1.0248  1.1327
13321SOL    HW241971   7.422   5.259   2.655 -1.6443  1.4717  2.4722
13322SOL     OW41972   4.609   9.860   1.667  0.3724  0.3248 -0.1174
13322SOL    HW141973   4.614   9.841   1.573 -0.5295  0.9063 -0.2945
13322SOL    HW241974   4.565   9.945   1.672  0.8251  0.5117  0.8197
13323SOL     OW41975   6.404   7.483   1.140 -0.2405 -0.0317 -0.1833
13323SOL    HW141976   6.431   7.575   1.134  0.5812 -0.2703 -0.2642
13323SOL    HW241977   6.440   7.442   1.062 -1.6010 -0.1970 -0.7458
13324SOL     OW41978   1.379   8.556   7.416  0.8452 -0.0790 -0.1353
13324SOL    HW141979   1.385   8.473   7.370 -0.2719 -1.3411  1.8220
13324SOL    HW241980   1.288   8.583   7.406  1.0432  0.5690 -0.2210
13325SOL     OW41981   2.010   1.125   6.098 -0.1528  0.1801  0.3033
13325SOL    HW141982   2.067   1.065   6.050 -1.3734  0.4889 -1.6128
13325SOL    HW241983   1.968   1.070   6.164  0.7583 -0.4753  0.3647
13326SOL     OW41984   7.569   0.450   7.619  0.1306 -0.0794  0.1259
13326SOL    HW141985   7.663   0.434   7.613  0.3414  0.7887  0.9002
13326SOL    HW241986   7.548   0.497   7.539 -0.3289 -3.1415 -1.7318
13327SOL     OW41987   0.871   4.626   6.643 -0.3086 -0.3087 -0.0778
13327SOL    HW141988   0.786   4.667   6.629 -0.1791 -0.2411 -0.6805
13327SOL    HW241989   0.900   4.600   6.555  0.4264 -0.0640  0.0852
13328SOL     OW41990   7.726   0.490   4.381  0.2085 -0.8280  0.4266
13328SOL    HW141991   7.631   0.481   4.387 -0.4732  2.1743 -2.6702
13328SOL    HW241992   7.744   0.574   4.424  1.3824 -1.0385  0.3741
13329SOL     OW41993   3.750   1.087   3.806  0.2833 -0.8496  0.4925
13329SOL    HW141994   3.843   1.089   3.787  0.3568  1.4476  0.8101
13329SOL    HW241995   3.708   1.102   3.721  0.4884  4.2495  0.9520
13330SOL     OW41996   1.667   5.336   9.696  0.3476  0.0073 -0.2480
13330SOL    HW141997   1.586   5.287   9.710  0.9471 -0.7906  0.5195
13330SOL    HW241998   1.697   5.358   9.784  1.5529 -0.6895 -0.4684
13331SOL     OW41999   0.725   3.159   8.618  0.2347  0.0800 -0.5153
13331SOL    HW142000   0.676   3.140   8.699  0.9125  0.5722  0.0135
13331SOL    HW242001   0.685   3.101   8.553 -1.3197  0.7315 -0.1956
13332SOL     OW42002   8.023   5.548   0.573  0.2631 -0.3731  0.1417
13332SOL    HW142003   8.009   5.476   0.512 -0.0149  0.1128 -0.3774
13332SOL    HW242004   7.935   5.573   0.600  0.3879 -0.7192  0.9179
13333SOL     OW42005   7.927   4.909   5.849 -0.0941  0.3175  0.3686
13333SOL    HW142006   7.978   4.900   5.769  2.1986 -1.8271  1.8970
13333SOL    HW242007   7.917   4.820   5.882 -0.2216  1.1498  2.8530
13334SOL     OW42008   1.916  10.058   8.118 -0.0234  0.0278 -0.0514
13334SOL    HW142009   1.997  10.047   8.168  0.6327  0.4271 -1.0030
13334SOL    HW242010   1.911  10.151   8.098 -0.6533 -0.0100 -0.1132
13335SOL     OW42011   2.847  11.019   2.636  0.0453 -0.1367  0.1407
13335SOL    HW142012   2.858  11.004   2.542  0.8915  0.4487  0.1345
13335SOL    HW242013   2.901  11.095   2.654 -1.5783  0.9082  0.7789
13336SOL     OW42014   8.772   8.103   8.439  0.1240 -0.0565  0.5175
13336SOL    HW142015   8.689   8.120   8.394  0.7220 -2.3643 -1.7471
13336SOL    HW242016   8.818   8.187   8.438 -0.5061  0.3469 -2.0731
13337SOL     OW42017  10.038   3.345   1.937 -0.5948  0.1182 -0.0646
13337SOL    HW142018   9.949   3.313   1.931 -0.6729 -0.0819  1.6920
13337SOL    HW242019  10.031   3.439   1.916 -0.5663 -0.5858 -3.8021
13338SOL     OW42020   2.096   5.791   0.915 -0.0341  0.6129 -0.2560
13338SOL    HW142021   2.191   5.778   0.918 -0.0324  0.2624 -1.3660
13338SOL    HW242022   2.083   5.862   0.852 -0.5047  0.6999 -0.0666
13339SOL     OW42023  10.636  10.848   2.467  0.3662  0.3108 -0.6030
13339SOL    HW142024  10.689  10.920   2.432 -0.1139 -0.1453 -2.3968
13339SOL    HW242025  10.648  10.853   2.562  1.5608  1.7920 -0.7892
13340SOL     OW42026   9.411   5.421   7.311 -0.5206 -0.2216 -0.2665
13340SOL    HW142027   9.397   5.346   7.370 -1.9000  0.6529  0.5732
13340SOL    HW242028   9.473   5.476   7.358 -3.5968  1.8157  1.8346
13341SOL     OW42029   0.546   9.078   7.196 -0.2279  0.5068 -0.2859
13341SOL    HW142030   0.503   9.132   7.130  0.3627 -0.3775 -1.4319
13341SOL    HW242031   0.474   9.042   7.248 -0.9981 -1.3952 -2.5062
13342SOL     OW42032   1.048   8.006   4.901 -0.7537 -0.1807  0.1706
13342SOL    HW142033   0.998   7.966   4.830 -0.3773  0.7876 -0.6700
13342SOL    HW242034   0.981   8.044   4.958 -1.0756 -1.2785  0.5466
13343SOL     OW42035  10.575   3.518   2.189 -0.4402  0.5654  0.4577
13343SOL    HW142036  10.598   3.610   2.176 -2.1695  0.8273 -1.2197
13343SOL    HW242037  10.659   3.472   2.190  0.4024  2.0370  0.1425
13344SOL     OW42038   4.684  10.457   6.170 -0.1345 -0.7152 -0.0907
13344SOL    HW142039   4.731  10.512   6.108 -1.3326  0.1093 -0.3091
13344SOL    HW242040   4.654  10.382   6.119 -0.9303 -0.1453 -0.4849
13345SOL     OW42041   7.156   6.216   4.773  0.1348  0.1843 -0.7431
13345SOL    HW142042   7.212   6.198   4.848 -0.4073  1.7723  0.0950
13345SOL    HW242043   7.212   6.264   4.712  0.3234 -0.3121 -0.9670
13346SOL     OW42044   5.400   2.767   9.735  0.3499 -0.2072  0.7065
13346SOL    HW142045   5.452   2.806   9.805 -2.2976 -0.6191  3.0937
13346SOL    HW242046   5.337   2.835   9.710  0.3856 -0.5301 -0.3011
13347SOL     OW42047   3.102   1.017  10.035  0.1044 -0.5286 -0.0569
13347SOL    HW142048   3.046   1.044   9.962  1.2711 -0.6582 -1.0251
13347SOL    HW242049   3.178   0.975   9.994 -0.4243 -3.0242  1.2919
13348SOL     OW42050   5.851   9.252   2.006 -0.7731 -0.2877  0.0386
13348SOL    HW142051   5.924   9.239   1.944 -1.0490 -1.7006 -0.0371
13348SOL    HW242052   5.847   9.346   2.019  1.2616 -0.1823  0.2565
13349SOL     OW42053   0.978   3.663   3.351 -0.6214 -0.7466  0.2597
13349SOL    HW142054   1.020   3.602   3.411 -1.3103 -1.9947 -0.4976
13349SOL    HW242055   1.008   3.636   3.264  0.3448  1.0188 -0.0071
13350SOL     OW42056   2.470   3.858   7.549 -0.4193  0.4193  0.0160
13350SOL    HW142057   2.528   3.863   7.473  0.0653 -1.1182  0.2477
13350SOL    HW242058   2.467   3.947   7.583 -0.5183  1.1023 -1.7054
13351SOL     OW42059   1.625   4.846   3.841  0.2733 -0.4270  0.0198
13351SOL    HW142060   1.672   4.775   3.886  0.1615  0.4909  1.6582
13351SOL    HW242061   1.551   4.803   3.799 -0.3625 -1.1828  1.8279
13352SOL     OW42062   0.496   6.426   0.507 -0.0271  0.1529 -0.4790
13352SOL    HW142063   0.436   6.410   0.434 -0.1591 -1.0659 -0.1252
13352SOL    HW242064   0.514   6.339   0.543  0.7975  0.6430  0.3432
13353SOL     OW42065   0.646   8.676   3.944 -0.3623 -0.3226  0.0622
13353SOL    HW142066   0.560   8.712   3.966  0.5491  1.0071  1.6317
13353SOL    HW242067   0.683   8.647   4.027  0.2580 -2.0270 -0.7443
13354SOL     OW42068   9.840   9.675   0.207 -0.1874  0.4687 -0.5466
13354SOL    HW142069   9.894   9.614   0.157 -1.4385 -1.1475 -0.0661
13354SOL    HW242070   9.851   9.647   0.298 -0.4265  1.2710 -0.2633
13355SOL     OW42071   3.517   4.400   9.548  0.2379 -0.5415 -0.6708
13355SOL    HW142072   3.429   4.427   9.577  1.2519  1.2767  0.9309
13355SOL    HW242073   3.500   4.339   9.476 -2.3447 -0.9134  0.1269
13356SOL     OW42074   1.261   4.034   9.949 -0.0037  0.5234  0.1862
13356SOL    HW142075   1.278   4.102   9.884 -1.5709 -1.9985 -3.1882
13356SOL    HW242076   1.168   4.044   9.971 -0.0470 -0.0394  0.2735
13357SOL     OW42077   2.888   5.964  10.851 -0.3582 -0.3887 -0.2545
13357SOL    HW142078   2.950   6.037  10.853  0.6531 -1.2294  0.4271
13357SOL    HW242079   2.931   5.897  10.799 -1.0621 -0.6983 -0.4536
13358SOL     OW42080   9.773   9.137   3.385 -0.2850  0.0460  0.6648
13358SOL    HW142081   9.846   9.198   3.377 -0.0223 -0.2512  0.7347
13358SOL    HW242082   9.815   9.051   3.394 -0.6480 -0.2157 -0.0361
13359SOL     OW42083   4.130   1.406   6.862  0.0218  1.0041 -0.4002
13359SOL    HW142084   4.182   1.481   6.892  0.5127  0.3838  0.3222
13359SOL    HW242085   4.175   1.376   6.783  0.8322  0.4225  0.2615
13360SOL     OW42086   1.056   4.757   7.406 -0.6078  0.5665  0.1518
13360SOL    HW142087   0.967   4.723   7.415 -0.0467 -0.3856  3.1388
13360SOL    HW242088   1.062   4.824   7.474  1.0598  0.3118  0.2786
13361SOL     OW42089  10.974   7.952   8.671  0.0208  0.1852  0.4402
13361SOL    HW142090  10.906   7.935   8.735 -2.5261  2.5128 -1.4083
13361SOL    HW242091  10.938   7.919   8.588  1.7609  0.2338 -0.3881
13362SOL     OW42092   3.538   1.673   5.074  0.7536  0.2346 -0.5845
13362SOL    HW142093   3.448   1.652   5.100  0.4166 -1.1271 -2.6058
13362SOL    HW242094   3.533   1.761   5.037  0.1919  0.0861 -0.8735
13363SOL     OW42095   6.445   3.867   6.699  0.2027  0.3359 -0.5052
13363SOL    HW142096   6.364   3.918   6.694  0.7850  1.3346 -0.1190
13363SOL    HW242097   6.495   3.909   6.769  1.3809  0.2133 -1.2483
13364SOL     OW42098   1.624   8.308   4.277 -0.4224  0.4976 -0.0609
13364SOL    HW142099   1.616   8.271   4.365 -0.0725 -1.4574 -0.8149
13364SOL    HW242100   1.622   8.233   4.218 -0.4414  1.7440 -1.7369
13365SOL     OW42101   3.449   1.774   1.473  0.1277  0.0985 -0.4301
13365SOL    HW142102   3.496   1.753   1.554 -0.3400 -0.8191 -0.3896
13365SOL    HW242103   3.412   1.861   1.488 -0.0938 -0.1379  0.4044
13366SOL     OW42104   7.070   7.174   5.941  0.1097 -0.8576  0.6264
13366SOL    HW142105   7.117   7.098   5.974  2.0103  0.1352  0.3159
13366SOL    HW242106   7.049   7.225   6.019  1.7538 -0.1103  0.6198
13367SOL     OW42107   7.665   3.345   5.934  0.0087 -0.3422 -0.5258
13367SOL    HW142108   7.696   3.352   6.024 -1.9092 -0.5617  0.1854
13367SOL    HW242109   7.570   3.355   5.940 -0.3339 -1.9794 -2.3261
13368SOL     OW42110   0.651   3.428   8.630  0.2082  0.2268 -0.1725
13368SOL    HW142111   0.721   3.462   8.686 -0.4228  0.8852  0.2460
13368SOL    HW242112   0.665   3.333   8.628  0.9483  0.3253  0.1213
13369SOL     OW42113   4.035   5.678   5.151  0.1117 -0.0096  0.1114
13369SOL    HW142114   3.969   5.633   5.204  1.7685 -1.7864  0.7706
13369SOL    HW242115   4.017   5.648   5.062 -0.9418  0.8060  0.0213
13370SOL     OW42116   2.153   9.722   8.064  0.3526 -1.0385 -0.5716
13370SOL    HW142117   2.130   9.645   8.116  0.8043 -1.3344 -0.8001
13370SOL    HW242118   2.149   9.691   7.973 -0.0395 -0.6330 -0.6919
13371SOL     OW42119   8.300   7.257   9.130  0.1179  0.0244 -0.3562
13371SOL    HW142120   8.366   7.267   9.060 -0.0011 -2.0728 -0.8394
13371SOL    HW242121   8.216   7.267   9.085  0.0197  2.6013  0.2463
13372SOL     OW42122   7.462   7.431   4.353  0.0531  0.5426  0.1530
13372SOL    HW142123   7.416   7.514   4.361  1.8640  1.5194  0.8785
13372SOL    HW242124   7.545   7.453   4.312  0.7955 -0.8186  0.8649
13373SOL     OW42125   9.769   1.354   4.588  0.2303 -0.1348 -0.5457
13373SOL    HW142126   9.812   1.280   4.630  0.6316  0.7435  0.6483
13373SOL    HW242127   9.750   1.415   4.659  0.2702  1.0912 -1.5348
13374SOL     OW42128   3.550   4.094   5.900  0.5455 -0.2371 -0.0998
13374SOL    HW142129   3.510   4.170   5.943 -1.2915 -0.0907 -1.8938
13374SOL    HW242130   3.536   4.022   5.960 -0.0009  0.3601  0.5098
13375SOL     OW42131   5.422   6.898   4.133  0.2742 -0.2946  0.2044
13375SOL    HW142132   5.430   6.954   4.210 -1.0773 -0.5036  0.5352
13375SOL    HW242133   5.506   6.853   4.127  1.1409  1.2199  0.3452
13376SOL     OW42134   8.145   0.757  10.648  0.3095  0.0411 -0.1801
13376SOL    HW142135   8.183   0.688  10.595  0.3274 -0.0538 -0.0449
13376SOL    HW242136   8.094   0.810  10.587 -2.0313 -1.7067  0.1661
13377SOL     OW42137  11.004   8.145   5.123  0.2672 -0.0640 -0.4988
13377SOL    HW142138  10.936   8.178   5.180  1.1918  1.0407 -0.0002
13377SOL    HW242139  11.045   8.074   5.172  0.4595  0.2790 -0.1569
13378SOL     OW42140   4.719   9.892   0.465  0.1658  0.3471  0.0641
13378SOL    HW142141   4.624   9.881   0.471  0.2387  0.4293  2.9717
13378SOL    HW242142   4.732   9.964   0.403 -1.6076 -0.1246 -0.8978
13379SOL     OW42143   5.143   0.979   0.488 -0.7737  0.6675 -0.6367
13379SOL    HW142144   5.232   0.987   0.522 -1.0047  1.2721 -0.1584
13379SOL    HW242145   5.150   1.006   0.396  0.0932 -2.1866 -1.4907
13380SOL     OW42146  10.312   7.450   9.820 -0.0248 -0.1181  0.0895
13380SOL    HW142147  10.285   7.481   9.733 -1.0235 -0.8054  0.1402
13380SOL    HW242148  10.334   7.530   9.868 -2.5742  0.5993  0.2335
13381SOL     OW42149   9.623   3.429   3.625 -0.4143 -0.3283 -0.2183
13381SOL    HW142150   9.711   3.454   3.596 -0.2185 -1.1203 -0.3203
13381SOL    HW242151   9.612   3.339   3.595 -0.7251 -0.7137  0.9821
13382SOL     OW42152   4.461   9.175  10.677 -0.9008  0.5108  0.6936
13382SOL    HW142153   4.379   9.211  10.711 -1.3640  0.6221 -0.4756
13382SOL    HW242154   4.439   9.145  10.589 -0.1756 -1.3225  1.0858
13383SOL     OW42155   4.122   0.415   7.247 -0.0451  0.4252 -0.4263
13383SOL    HW142156   4.192   0.446   7.304  1.2513 -0.7702 -1.2870
13383SOL    HW242157   4.140   0.457   7.163 -0.2702  0.0080 -0.6884
13384SOL     OW42158   2.645   9.870   5.088 -0.0681  0.1570  0.1436
13384SOL    HW142159   2.656   9.808   5.016 -0.2295  0.4961 -0.1730
13384SOL    HW242160   2.723   9.857   5.142  0.3602  0.3390 -0.4208
13385SOL     OW42161   5.319   0.784   5.885  0.3924 -0.3153 -0.7419
13385SOL    HW142162   5.243   0.764   5.830  0.0164 -1.1335  0.0570
13385SOL    HW242163   5.287   0.779   5.974  1.0574  0.7652 -0.4142
13386SOL     OW42164   2.361   1.489  10.456  0.3159  0.0183 -0.6578
13386SOL    HW142165   2.364   1.566  10.512 -2.3182 -0.2965  0.0239
13386SOL    HW242166   2.374   1.523  10.367  1.1474  0.9671 -0.1913
13387SOL     OW42167  10.711   0.388   4.445  0.4365  0.0229  0.1804
13387SOL    HW142168  10.652   0.338   4.501  0.8999 -0.7175  0.0115
13387SOL    HW242169  10.768   0.435   4.506  0.7538 -0.5596  0.3421
13388SOL     OW42170   3.673   2.532  10.064 -0.4235  0.1616  0.0491
13388SOL    HW142171   3.652   2.567  10.151 -0.5411  2.0925 -0.6936
13388SOL    HW242172   3.728   2.456  10.080 -1.7013 -0.4299  1.8471
13389SOL     OW42173   7.443   7.105   1.934 -0.2857 -0.2866  0.0157
13389SOL    HW142174   7.463   7.180   1.991 -0.8414  0.0785 -0.2645
13389SOL    HW242175   7.528   7.066   1.915  0.1751  1.1237 -0.9994
13390SOL     OW42176   4.489   0.526   9.694  0.6282  0.1138  0.2930
13390SOL    HW142177   4.410   0.490   9.735  0.8743  1.2140  1.8528
13390SOL    HW242178   4.469   0.528   9.600 -0.6126 -1.0014  0.5048
13391SOL     OW42179   0.483   2.377   2.519 -0.0212 -0.1655  0.5258
13391SOL    HW142180   0.563   2.345   2.478  0.0055  0.0202  0.4281
13391SOL    HW242181   0.439   2.426   2.449 -0.8626 -1.3558  0.1927
13392SOL     OW42182   8.952   6.948   6.745  0.1806 -0.0184  0.4909
13392SOL    HW142183   9.028   6.915   6.698  1.1242 -0.3815  2.1981
13392SOL    HW242184   8.881   6.888   6.721  0.5870 -0.1289 -0.5080
13393SOL     OW42185   9.957   7.954   5.986 -1.1305  0.3065 -0.0347
13393SOL    HW142186   9.951   7.914   5.899  0.1714  0.8661 -0.3954
13393SOL    HW242187   9.870   7.993   6.000 -1.3196  0.3147 -1.1363
13394SOL     OW42188  10.216   7.467  10.519  0.6097 -0.3244  0.3489
13394SOL    HW142189  10.136   7.448  10.568 -0.8153  0.0578 -1.6903
13394SOL    HW242190  10.263   7.383  10.517  0.3825 -0.4991  1.7679
13395SOL     OW42191   5.778   1.301   2.434  0.5122  0.3454 -0.3665
13395SOL    HW142192   5.799   1.219   2.479  0.6082  0.3544 -0.3949
13395SOL    HW242193   5.696   1.283   2.388 -1.4301  1.2896  2.4462
13396SOL     OW42194   1.293  10.422   6.286 -0.1826  0.1282 -0.5106
13396SOL    HW142195   1.318  10.431   6.378 -0.2339 -0.5267 -0.4327
13396SOL    HW242196   1.327  10.337   6.260 -0.5453  0.1263 -0.9837
13397SOL     OW42197   3.300   6.560   7.378  0.0357 -0.3932 -0.1197
13397SOL    HW142198   3.357   6.517   7.314  0.3734  1.2126 -0.9605
13397SOL    HW242199   3.324   6.653   7.372 -1.7036  0.1276  0.5212
13398SOL     OW42200   1.164   1.734   2.535 -0.3372  0.0427 -0.0009
13398SOL    HW142201   1.161   1.830   2.527 -2.3819 -0.0573 -1.1243
13398SOL    HW242202   1.193   1.704   2.449  0.9979 -0.3566  0.5668
13399SOL     OW42203   0.346   8.115   5.077  0.1582 -0.5321  0.2933
13399SOL    HW142204   0.326   8.051   5.145 -0.2281  0.7156  1.3947
13399SOL    HW242205   0.336   8.200   5.120  1.7713  0.2611 -0.8153
13400SOL     OW42206   1.027   9.834   8.071  0.2997  0.2241  0.4734
13400SOL    HW142207   1.008   9.924   8.098 -1.0440  0.3465 -0.7484
13400SOL    HW242208   1.014   9.782   8.151  2.3515  1.2019  1.5277
13401SOL     OW42209   3.264   7.132  10.838 -0.3126  0.3939 -0.2211
13401SOL    HW142210   3.216   7.201  10.884  0.2845  0.2757  0.5958
13401SOL    HW242211   3.356   7.150  10.857 -0.1438 -0.5967 -0.0328
13402SOL     OW42212   6.628   4.723   0.638  0.7166  0.6318  0.1237
13402SOL    HW142213   6.598   4.639   0.672  1.2694 -0.3289 -1.6517
13402SOL    HW242214   6.640   4.777   0.716 -0.4880 -0.6400  1.2380
13403SOL     OW42215  10.410   8.934   2.458 -0.5042 -0.2409  0.0074
13403SOL    HW142216  10.371   8.871   2.397  0.4695 -1.7471  0.8638
13403SOL    HW242217  10.449   9.000   2.401 -0.4897 -1.0719 -0.9951
13404SOL     OW42218   1.608   3.801   5.520 -0.6568 -0.0208  0.2437
13404SOL    HW142219   1.691   3.780   5.563  0.3395  2.3595 -0.3597
13404SOL    HW242220   1.555   3.842   5.589 -0.6832  0.0173  0.2005
13405SOL     OW42221   4.396   2.865   3.978  0.2797  0.0331  0.1215
13405SOL    HW142222   4.485   2.833   3.987 -0.4204 -1.8373  0.8748
13405SOL    HW242223   4.396   2.912   3.895  2.2827  1.3211  0.7672
13406SOL     OW42224   3.594   0.392   6.883 -0.7957 -0.3492  0.1089
13406SOL    HW142225   3.665   0.341   6.844 -1.2113 -0.0847 -1.0334
13406SOL    HW242226   3.597   0.369   6.976  0.4099 -0.7811 -0.0101
13407SOL     OW42227   7.347   7.866   2.677 -0.1743  0.4265 -0.5097
13407SOL    HW142228   7.281   7.812   2.719 -1.2606  0.8576 -1.6101
13407SOL    HW242229   7.430   7.840   2.718 -1.0107 -0.1469  0.8597
13408SOL     OW42230   2.294   7.752   6.815 -0.0882 -0.4284  0.2225
13408SOL    HW142231   2.322   7.678   6.761 -0.8596  0.6088 -1.7141
13408SOL    HW242232   2.346   7.826   6.783 -0.9280  0.3199  0.5305
13409SOL     OW42233   8.337   8.333   3.877  0.2943 -0.4949  0.2311
13409SOL    HW142234   8.279   8.329   3.953  2.3894 -0.2689  1.9407
13409SOL    HW242235   8.419   8.366   3.912  1.3689 -0.4436 -2.1621
13410SOL     OW42236   9.260   7.575   5.468  0.3320 -0.2994 -0.1990
13410SOL    HW142237   9.224   7.660   5.495  1.5770  0.2058 -0.0705
13410SOL    HW242238   9.187   7.532   5.423 -0.1087  1.1545 -0.9663
13411SOL     OW42239   7.085   1.897   6.534 -0.0883 -0.6926 -0.7086
13411SOL    HW142240   7.125   1.835   6.473  0.1617 -1.8525  0.5788
13411SOL    HW242241   7.151   1.907   6.603 -1.4476 -1.5842  0.7743
13412SOL     OW42242  10.523   1.004   6.924  0.2012  0.0626  0.5362
13412SOL    HW142243  10.534   1.072   6.856 -1.4052 -2.2693 -2.2590
13412SOL    HW242244  10.608   0.959   6.926  0.4727  0.5674  0.5812
13413SOL     OW42245   7.375   6.346   8.957  0.4762  0.2751 -0.0526
13413SOL    HW142246   7.409   6.420   8.906 -1.5708  1.7491  0.5572
13413SOL    HW242247   7.418   6.354   9.042 -0.2010  1.2214  0.2273
13414SOL     OW42248   7.998   0.303   3.227  0.2773 -0.1967  0.3330
13414SOL    HW142249   7.955   0.370   3.174  0.4327 -0.7446 -0.5196
13414SOL    HW242250   7.994   0.224   3.172 -0.8209 -1.1568  1.7189
13415SOL     OW42251   9.065   9.103   5.506 -0.1453  0.4202  0.0628
13415SOL    HW142252   9.147   9.154   5.505 -0.6797  1.3093 -0.8552
13415SOL    HW242253   9.076   9.039   5.436  0.3714 -0.4943  0.9638
13416SOL     OW42254   7.541   6.716   9.026  0.2328  0.1354 -0.0895
13416SOL    HW142255   7.466   6.752   9.074  0.2146  0.1902 -0.1596
13416SOL    HW242256   7.546   6.767   8.946 -2.4153 -2.6398 -2.2728
13417SOL     OW42257   7.644   4.618  10.863  0.5723 -0.1576 -0.2584
13417SOL    HW142258   7.713   4.623  10.796  0.4835 -0.6614 -0.3978
13417SOL    HW242259   7.668   4.683  10.928 -0.4323  1.8350 -1.7854
13418SOL     OW42260   4.219   4.449   3.461  0.2587  0.0034  0.5834
13418SOL    HW142261   4.189   4.523   3.513  0.1406 -0.0958  0.6549
13418SOL    HW242262   4.309   4.471   3.438 -0.2264  0.8238 -0.5927
13419SOL     OW42263   4.625   6.420   2.485 -0.4881  0.0305 -0.0513
13419SOL    HW142264   4.619   6.457   2.398  0.4533  0.8950  0.2254
13419SOL    HW242265   4.711   6.449   2.517 -1.4341  1.0427  1.7392
13420SOL     OW42266   6.965   7.823   8.258 -0.1622 -0.2895 -0.0188
13420SOL    HW142267   7.032   7.890   8.269 -0.0333 -0.5923  1.2199
13420SOL    HW242268   6.987   7.756   8.323 -0.5290 -1.3391 -0.9455
13421SOL     OW42269   7.736  10.244   5.477  0.1138 -0.0695 -0.0687
13421SOL    HW142270   7.817  10.195   5.492 -0.0998 -0.3534  0.1668
13421SOL    HW242271   7.682  10.227   5.555  0.4489  1.3812  0.5212
13422SOL     OW42272   6.294  10.726   4.243  0.4449 -0.0527 -0.7823
13422SOL    HW142273   6.232  10.676   4.297 -0.9568  0.5284 -1.7852
13422SOL    HW242274   6.261  10.816   4.245  0.2544 -0.0344 -2.6824
13423SOL     OW42275   2.580   5.110   4.187 -0.0155 -0.1092  0.1668
13423SOL    HW142276   2.579   5.204   4.204  1.7377  0.8295 -3.8940
13423SOL    HW242277   2.671   5.084   4.201 -0.2554 -0.9468  0.1964
13424SOL     OW42278   3.983   1.718  10.106 -0.0100 -0.3132 -0.7455
13424SOL    HW142279   4.014   1.744  10.193  0.9028 -0.6031 -0.9798
13424SOL    HW242280   3.937   1.635  10.121 -0.6272  0.0724 -0.4170
13425SOL     OW42281   6.817   9.403   6.398 -0.3583  0.4634  0.0302
13425SOL    HW142282   6.822   9.403   6.493 -0.2271 -0.4872  0.0373
13425SOL    HW242283   6.772   9.485   6.376  1.1560  1.5490  0.8051
13426SOL     OW42284   0.601  10.604   4.356  0.4272 -0.3644 -0.2460
13426SOL    HW142285   0.597  10.671   4.424  0.7465 -0.5119 -0.0792
13426SOL    HW242286   0.636  10.526   4.401 -2.7493 -1.5958  0.3235
13427SOL     OW42287   9.360   9.937   2.185  0.4447  0.2506 -0.5729
13427SOL    HW142288   9.268   9.926   2.161 -0.3024  1.0347  1.6536
13427SOL    HW242289   9.382  10.025   2.153 -0.1301  0.7550  0.3797
13428SOL     OW42290   2.816   8.163   1.115 -0.2569  0.5117 -0.3633
13428SOL    HW142291   2.911   8.163   1.128 -0.0808  0.9363 -1.5569
13428SOL    HW242292   2.803   8.212   1.035 -1.6535  2.1187  0.7861
13429SOL     OW42293   9.417   7.849   6.546 -0.0035 -0.4634 -0.2693
13429SOL    HW142294   9.378   7.768   6.579 -0.3852 -0.4536 -0.6928
13429SOL    HW242295   9.372   7.866   6.463 -0.5970  0.6966  0.2670
13430SOL     OW42296   4.539   2.156  10.028 -0.2356 -0.0142  0.0150
13430SOL    HW142297   4.521   2.233   9.973  3.2540  2.4832  1.9260
13430SOL    HW242298   4.485   2.169  10.105  0.5387  0.7557  0.4503
13431SOL     OW42299   3.817   1.376  10.619  0.2565  0.0003 -1.0014
13431SOL    HW142300   3.785   1.308  10.559 -2.7979 -0.6035  1.0832
13431SOL    HW242301   3.756   1.449  10.607 -1.1063 -0.5178  1.9105
13432SOL     OW42302   0.295   0.110   8.109  0.0963  0.4617  0.6810
13432SOL    HW142303   0.304   0.046   8.180 -0.5599  0.2853  0.6106
13432SOL    HW242304   0.329   0.191   8.146 -1.3880  0.6815  1.6363
13433SOL     OW42305  10.480   8.845   2.719  0.3092 -0.2053  0.4367
13433SOL    HW142306  10.424   8.888   2.655 -0.2356  0.1369  1.1226
13433SOL    HW242307  10.528   8.779   2.669  0.1174  0.2500 -0.3684
13434SOL     OW42308   5.247   9.685   8.528  0.1333  0.0765 -0.0111
13434SOL    HW142309   5.210   9.652   8.609  1.5955 -0.9570  0.2859
13434SOL    HW242310   5.175   9.680   8.465 -0.6655 -0.3094  0.9010
13435SOL     OW42311   4.522   4.067   7.922 -0.1892  0.2573 -0.8118
13435SOL    HW142312   4.470   3.994   7.956 -1.5809  1.4145 -0.3156
13435SOL    HW242313   4.602   4.066   7.974 -0.5458 -0.4256 -0.2518
13436SOL     OW42314   4.243   8.811   0.157  0.3784  0.5245 -0.1933
13436SOL    HW142315   4.157   8.788   0.190  0.1083 -0.2039 -1.3592
13436SOL    HW242316   4.301   8.742   0.190  0.1728 -0.0028 -0.9073
13437SOL     OW42317   3.273   2.369   9.183  0.0049  0.0955  0.0267
13437SOL    HW142318   3.351   2.412   9.147  0.6217 -0.5553  0.5484
13437SOL    HW242319   3.304   2.329   9.264 -0.7662 -0.5813 -0.0074
13438SOL     OW42320   2.791   5.297   5.340  0.3059 -0.2719  0.0121
13438SOL    HW142321   2.738   5.281   5.262 -0.3562 -1.8921  0.7382
13438SOL    HW242322   2.822   5.387   5.330  2.2632 -1.1277 -3.2979
13439SOL     OW42323   6.338   8.689   8.081 -0.1181 -0.5991 -0.6344
13439SOL    HW142324   6.312   8.778   8.059 -0.8596 -0.9451 -1.2026
13439SOL    HW242325   6.266   8.634   8.050 -0.2428 -1.3006  0.7965
13440SOL     OW42326   3.168   2.821   8.842  0.0211 -0.4364  0.3295
13440SOL    HW142327   3.193   2.838   8.751 -0.3979  1.8160  0.5712
13440SOL    HW242328   3.125   2.902   8.870 -0.2279 -1.2394  2.4166
13441SOL     OW42329   4.183   9.274   9.875 -0.5116  0.1640 -0.0084
13441SOL    HW142330   4.245   9.337   9.913 -0.8752 -0.0957  1.0525
13441SOL    HW242331   4.121   9.328   9.826 -1.0294  0.6809  1.1805
13442SOL     OW42332   4.405  10.984   1.988  0.1222 -0.2408  0.1703
13442SOL    HW142333   4.447  10.990   1.902 -0.3661  2.6215  0.0500
13442SOL    HW242334   4.476  10.960   2.048  0.5650 -1.7861 -0.8926
13443SOL     OW42335   6.235  10.881   5.933  0.0296  0.0798  0.0834
13443SOL    HW142336   6.190  10.874   5.848  0.4277 -0.1818 -0.1079
13443SOL    HW242337   6.191  10.954   5.977  0.8373  1.2624 -0.9811
13444SOL     OW42338   2.873   4.165   3.791 -0.5353  0.3997  0.3538
13444SOL    HW142339   2.844   4.212   3.713 -1.2151  1.0690  0.9925
13444SOL    HW242340   2.954   4.209   3.816 -0.3495  0.2248  0.0612
13445SOL     OW42341   1.534   0.532   6.308 -0.0766  0.0508  0.0260
13445SOL    HW142342   1.462   0.508   6.367 -0.1426 -1.0239 -0.4588
13445SOL    HW242343   1.524   0.472   6.234  1.4227 -0.2215  0.0231
13446SOL     OW42344   3.436   9.871   3.745 -0.0205  0.2985  0.4872
13446SOL    HW142345   3.476   9.931   3.807  1.7974  1.3000 -1.4914
13446SOL    HW242346   3.358   9.837   3.789  1.5368  0.3909  3.5093
13447SOL     OW42347   8.489   6.403   4.769 -0.1158  0.2078 -0.6482
13447SOL    HW142348   8.516   6.368   4.684  0.6634  1.6195 -1.0072
13447SOL    HW242349   8.410   6.353   4.791  0.8928 -1.7083 -1.1502
13448SOL     OW42350  10.751   7.725   3.385 -0.0708  0.4137  0.1468
13448SOL    HW142351  10.823   7.711   3.447 -0.8984 -1.2134  0.7976
13448SOL    HW242352  10.771   7.667   3.312 -1.3494 -1.0816  0.9244
13449SOL     OW42353   8.341   3.402   9.265  0.1318  0.1625 -0.6658
13449SOL    HW142354   8.283   3.335   9.302 -0.1596  0.2341 -0.9954
13449SOL    HW242355   8.380   3.444   9.342 -0.3319  0.1837 -0.4371
13450SOL     OW42356   2.200   4.338   5.109 -0.1759 -0.1644  0.5931
13450SOL    HW142357   2.148   4.403   5.155 -1.7753 -1.1272  0.2202
13450SOL    HW242358   2.289   4.351   5.140 -0.7737  0.9986  1.8696
13451SOL     OW42359   9.720   9.813  10.009  0.2403 -0.2812 -0.5140
13451SOL    HW142360   9.708   9.741  10.071 -0.2652 -0.3943 -0.7385
13451SOL    HW242361   9.638   9.862  10.012  0.8337  0.7260  0.1747
13452SOL     OW42362   1.336   7.258   0.385 -0.2985 -0.1750  0.3693
13452SOL    HW142363   1.379   7.323   0.330 -0.1559 -0.8136 -0.2924
13452SOL    HW242364   1.405   7.225   0.442 -0.0060 -0.8062 -0.3199
13453SOL     OW42365   3.831   8.651   1.090  0.5248 -0.3856  0.4547
13453SOL    HW142366   3.796   8.587   1.152 -1.7836 -1.5337 -1.8357
13453SOL    HW242367   3.836   8.603   1.007  0.0381  1.9983 -1.0516
13454SOL     OW42368   3.882   5.389   8.906  0.1422 -0.4684  0.9336
13454SOL    HW142369   3.869   5.371   8.813 -0.3591  0.9204  0.7096
13454SOL    HW242370   3.945   5.323   8.935  2.9857  1.0732 -1.2035
13455SOL     OW42371   5.145   1.439   8.615  0.4255  0.1038  0.1404
13455SOL    HW142372   5.167   1.357   8.570  0.2762 -0.6893  1.4650
13455SOL    HW242373   5.229   1.471   8.647  0.5857  0.8737 -1.0124
13456SOL     OW42374   2.570   6.757   3.331 -0.8326  0.1647 -0.1819
13456SOL    HW142375   2.642   6.819   3.336 -1.4350  0.8182  0.8499
13456SOL    HW242376   2.608   6.674   3.361 -0.0244  0.0073 -1.5658
13457SOL     OW42377  10.299   5.108   9.327  0.0664 -0.1509  0.0923
13457SOL    HW142378  10.337   5.052   9.394 -0.0162 -1.3429 -0.8093
13457SOL    HW242379  10.257   5.179   9.375  1.0734 -0.2968  1.2230
13458SOL     OW42380   0.036   1.158   4.425  0.3194  0.0872 -0.4273
13458SOL    HW142381  -0.046   1.192   4.459 -0.0672 -1.7573  0.6250
13458SOL    HW242382   0.076   1.232   4.379 -1.0598  1.5249  0.5938
13459SOL     OW42383   4.357   5.237  10.439 -0.0390 -0.4229  0.2556
13459SOL    HW142384   4.439   5.201  10.406 -0.7824 -0.8790 -1.1859
13459SOL    HW242385   4.382   5.317  10.485  1.0662  0.3090 -1.5181
13460SOL     OW42386   6.527   8.361   7.702  0.4291  0.3258 -0.5357
13460SOL    HW142387   6.525   8.455   7.722  2.7456  0.2703  0.2717
13460SOL    HW242388   6.600   8.351   7.641  0.5542 -1.0318 -0.1876
13461SOL     OW42389   8.286   2.851   1.286  0.0858 -0.1535  0.1285
13461SOL    HW142390   8.209   2.885   1.332 -0.5287 -0.9035 -0.3301
13461SOL    HW242391   8.359   2.900   1.323 -0.2731 -1.2547  2.4876
13462SOL     OW42392   1.993   6.322   7.553  0.1904  0.7974  0.0950
13462SOL    HW142393   2.036   6.268   7.487  0.9144  2.6364 -1.0168
13462SOL    HW242394   2.035   6.298   7.635 -0.3576 -1.1466 -0.1406
13463SOL     OW42395   4.594   2.758   0.300 -0.0800  0.5939 -0.0380
13463SOL    HW142396   4.629   2.792   0.382  0.3150  2.0081 -0.7629
13463SOL    HW242397   4.668   2.761   0.239 -0.5129  0.1017 -0.6044
13464SOL     OW42398   4.748   7.355   8.728 -0.0833 -0.3361 -0.3180
13464SOL    HW142399   4.721   7.303   8.652 -0.0611 -0.3410 -0.3225
13464SOL    HW242400   4.756   7.291   8.799 -2.9085  0.0676  0.4523
13465SOL     OW42401   9.186   0.123   8.289 -0.7904 -0.2155  0.4381
13465SOL    HW142402   9.247   0.196   8.276 -0.9866 -0.4339 -2.0414
13465SOL    HW242403   9.100   0.164   8.295 -0.6931 -0.1119  1.4042
13466SOL     OW42404   3.696   4.032   3.207 -0.3319 -0.6565  0.5358
13466SOL    HW142405   3.754   4.058   3.135 -0.6967  1.2806  0.8881
13466SOL    HW242406   3.608   4.045   3.171 -0.5359 -1.1360  0.8532
13467SOL     OW42407   5.582   0.812   4.321 -0.1121  0.0984  0.2389
13467SOL    HW142408   5.523   0.879   4.287 -0.5998  0.1136  1.0804
13467SOL    HW242409   5.562   0.808   4.414 -0.1599 -1.2794  0.1885
13468SOL     OW42410   5.071   5.182   8.827  0.7045 -0.1246  0.2195
13468SOL    HW142411   5.065   5.145   8.915  2.1134 -2.4272 -0.5810
13468SOL    HW242412   5.050   5.109   8.769 -2.1899  1.8101 -1.4116
13469SOL     OW42413   4.241   4.774   5.422  0.5157  0.5404 -0.5068
13469SOL    HW142414   4.200   4.757   5.507 -1.1088  0.7983 -1.1836
13469SOL    HW242415   4.178   4.739   5.359  1.9245 -0.1031 -1.6006
13470SOL     OW42416   1.104   1.726   4.692  0.0057  0.1331  0.1588
13470SOL    HW142417   1.058   1.736   4.775  0.8478  0.0350  0.6438
13470SOL    HW242418   1.104   1.631   4.676 -1.1417  0.2207 -0.5396
13471SOL     OW42419   2.284   0.064   4.904 -0.4277 -0.3599 -0.0612
13471SOL    HW142420   2.306   0.100   4.818 -1.0397 -0.0972 -0.1138
13471SOL    HW242421   2.196   0.027   4.893 -0.0609 -1.3199  0.1628
13472SOL     OW42422   5.140   1.250   2.524  0.1847 -0.1282 -0.0965
13472SOL    HW142423   5.055   1.293   2.515  0.5467  0.6250 -0.0011
13472SOL    HW242424   5.119   1.164   2.561 -0.4774  0.3154  0.6137
13473SOL     OW42425   9.003  10.101   5.503 -0.3630 -0.6028 -0.2685
13473SOL    HW142426   9.005  10.124   5.596  1.0819  1.6729 -0.7936
13473SOL    HW242427   8.921  10.139   5.470 -1.1728 -1.9199  0.1358
13474SOL     OW42428   6.547   6.307   7.032  0.4477 -0.2621  0.1360
13474SOL    HW142429   6.592   6.223   7.036  1.7259  0.3483 -0.8763
13474SOL    HW242430   6.461   6.287   6.995 -0.0336 -1.3910  1.7618
13475SOL     OW42431   9.520   3.758   1.387 -0.1400  0.2057  0.0493
13475SOL    HW142432   9.508   3.832   1.446 -0.3514  0.2928 -0.1038
13475SOL    HW242433   9.606   3.772   1.348 -0.7140  1.0440 -0.9378
13476SOL     OW42434   5.779   6.503   7.098  0.0729 -0.1826 -0.2934
13476SOL    HW142435   5.748   6.527   7.011 -1.1684 -1.0800 -0.1257
13476SOL    HW242436   5.818   6.417   7.086 -2.3444 -1.4751  0.4171
13477SOL     OW42437   6.058   7.151   1.227 -0.2504  0.6405 -0.3059
13477SOL    HW142438   5.969   7.158   1.192 -0.2709  0.8932 -0.2045
13477SOL    HW242439   6.081   7.241   1.251  0.0554  0.5838 -0.3895
13478SOL     OW42440   9.105   9.453   4.460  0.4007  0.0517 -0.4990
13478SOL    HW142441   9.133   9.373   4.416  1.2873 -1.2873  2.2425
13478SOL    HW242442   9.184   9.506   4.467  0.7850 -0.6764  1.1951
13479SOL     OW42443   6.415   1.246   8.666 -0.1026 -0.4636 -0.1808
13479SOL    HW142444   6.344   1.311   8.668  1.1528  0.9626  0.9042
13479SOL    HW242445   6.422   1.215   8.756 -0.5446 -2.0047 -0.6517
13480SOL     OW42446   7.287   9.169   0.967 -0.3297 -0.0560  0.0687
13480SOL    HW142447   7.246   9.135   0.887 -0.1923  0.4260 -0.2117
13480SOL    HW242448   7.364   9.113   0.980  0.9789  1.2839 -1.4635
13481SOL     OW42449   0.789   7.667   1.094 -0.1006 -0.1968 -0.1118
13481SOL    HW142450   0.716   7.613   1.064  0.7019 -1.5398  0.2801
13481SOL    HW242451   0.862   7.606   1.104  1.2450  1.1880 -1.0084
13482SOL     OW42452   2.809  10.250   8.163  0.0258 -0.0177 -0.7305
13482SOL    HW142453   2.878  10.196   8.124  0.8155  1.3065 -1.2268
13482SOL    HW242454   2.740  10.188   8.185  1.4527 -1.4293 -0.0218
13483SOL     OW42455   3.430   2.133   5.552  0.4944 -0.2950  0.4064
13483SOL    HW142456   3.353   2.080   5.571 -0.6476  0.7409 -1.0409
13483SOL    HW242457   3.436   2.131   5.456  3.0482 -1.3828  0.5176
13484SOL     OW42458   9.922   4.403   8.937  0.0635 -0.3400  0.9500
13484SOL    HW142459   9.975   4.463   8.991 -1.7025  0.3122  2.0436
13484SOL    HW242460   9.954   4.417   8.848  0.3713  1.5332  1.3084
13485SOL     OW42461   1.685   2.180   5.921 -0.5835  0.0708 -0.0190
13485SOL    HW142462   1.732   2.263   5.918  1.5729 -1.1276 -1.3966
13485SOL    HW242463   1.708   2.144   6.007 -1.7151  0.9358  0.6850
13486SOL     OW42464   9.072  10.351   3.948  0.3145  0.2552 -0.3707
13486SOL    HW142465   9.133  10.425   3.940 -0.0798  0.7104  0.7115
13486SOL    HW242466   9.108  10.285   3.889  0.8843  1.1647 -1.0821
13487SOL     OW42467   0.880   4.938   8.677 -0.0600  0.0884  0.5281
13487SOL    HW142468   0.961   4.925   8.727 -2.1992 -1.7147  3.8860
13487SOL    HW242469   0.862   4.852   8.639 -0.6171  0.3506  0.1977
13488SOL     OW42470   0.420   6.658   7.941 -0.1878 -0.2080 -0.0004
13488SOL    HW142471   0.468   6.639   8.022 -1.1265  0.8249  0.8388
13488SOL    HW242472   0.482   6.706   7.887  0.4866 -1.0052  0.0422
13489SOL     OW42473   7.125   3.695   1.334 -0.1317 -0.1607 -0.3631
13489SOL    HW142474   7.109   3.638   1.409 -1.9479 -0.0790 -0.6408
13489SOL    HW242475   7.187   3.760   1.365 -0.5965 -0.3289  0.9705
13490SOL     OW42476   0.572   3.900   6.230 -0.1278  0.6482 -0.1103
13490SOL    HW142477   0.529   3.861   6.307 -0.3514 -1.2068 -1.1337
13490SOL    HW242478   0.500   3.923   6.172  0.1216  0.5892 -0.4416
13491SOL     OW42479   1.263  11.031   9.872 -0.8625 -0.6764 -0.1416
13491SOL    HW142480   1.278  11.125   9.879 -1.1409 -0.6314 -0.1442
13491SOL    HW242481   1.331  11.000   9.813 -0.1286 -0.6380  0.6638
13492SOL     OW42482   9.017   9.504  10.182 -0.0352  0.5431 -0.2572
13492SOL    HW142483   9.082   9.440  10.154  0.1990  1.3656 -1.6945
13492SOL    HW242484   9.014   9.495  10.278  0.8074 -0.7985 -0.3317
13493SOL     OW42485   3.580   8.231   2.436 -0.3990 -0.9718 -0.4848
13493SOL    HW142486   3.506   8.264   2.487  1.5104  2.2771  0.4309
13493SOL    HW242487   3.575   8.280   2.353  0.5439 -0.9260 -0.5225
13494SOL     OW42488   3.413   3.552   8.037 -0.4295  0.2862  0.0915
13494SOL    HW142489   3.340   3.612   8.049 -0.3254  0.7694 -1.4334
13494SOL    HW242490   3.424   3.547   7.942  0.6812 -0.7976  0.2547
13495SOL     OW42491   3.618  10.182   9.923  0.0511 -0.0954  0.0102
13495SOL    HW142492   3.573  10.262   9.898  0.1237 -0.0574  0.0049
13495SOL    HW242493   3.709  10.207   9.933  0.4480 -0.6089 -1.9883
13496SOL     OW42494   8.646   8.173   7.538 -0.4587  0.2892  0.1287
13496SOL    HW142495   8.666   8.111   7.609 -0.2538 -0.1339 -0.2938
13496SOL    HW242496   8.575   8.131   7.489 -1.1919  0.9720  0.5727
13497SOL     OW42497   6.303  10.538   8.545 -0.0774  0.1531  0.4900
13497SOL    HW142498   6.396  10.515   8.552  0.5747  2.7571  1.3301
13497SOL    HW242499   6.266  10.509   8.628  0.0828 -0.4257  0.3665
13498SOL     OW42500   4.448   9.247   3.162  0.2124  0.1698 -0.0025
13498SOL    HW142501   4.475   9.169   3.211  0.7927  0.0821 -0.4418
13498SOL    HW242502   4.442   9.316   3.227 -1.2408 -0.4465  0.5570
13499SOL     OW42503   2.087   0.732   3.162 -0.0015 -0.4971 -0.1036
13499SOL    HW142504   2.055   0.788   3.233  0.8065 -1.6128  1.1654
13499SOL    HW242505   2.109   0.649   3.204  0.2830 -1.2688 -1.7032
13500SOL     OW42506  10.313   9.099   4.747 -0.6304 -0.0241 -0.0212
13500SOL    HW142507  10.244   9.040   4.778  0.1457 -0.9881 -0.0749
13500SOL    HW242508  10.320   9.165   4.816  0.1003 -1.3468  1.2326
13501SOL     OW42509   1.598   6.603   4.734 -0.1420 -0.2249  0.3072
13501SOL    HW142510   1.680   6.555   4.730  1.1099  1.6007  2.0170
13501SOL    HW242511   1.597   6.642   4.822 -2.1863  0.9134 -0.1492
13502SOL     OW42512   4.868   0.383   6.824 -0.0459 -0.0181 -0.1004
13502SOL    HW142513   4.856   0.288   6.826 -1.4568  0.1157 -0.7508
13502SOL    HW242514   4.832   0.413   6.908  0.0094 -0.0276 -0.0734
13503SOL     OW42515   7.240   1.634   2.601 -0.3416 -0.3612 -0.0474
13503SOL    HW142516   7.185   1.604   2.529  1.6338 -0.4279 -1.6074
13503SOL    HW242517   7.231   1.566   2.668 -1.3955 -0.8337 -0.6559
13504SOL     OW42518   4.919   9.807   1.090  0.2318 -0.2774 -0.1175
13504SOL    HW142519   4.981   9.789   1.020 -2.4464 -0.0843 -2.7661
13504SOL    HW242520   4.938   9.898   1.116  1.8863 -0.6723  0.1828
13505SOL     OW42521   0.389   6.157   4.243  0.0147  0.4552  0.0460
13505SOL    HW142522   0.343   6.089   4.194 -0.0990  0.0165  0.7519
13505SOL    HW242523   0.472   6.168   4.197  0.1659 -0.3833  0.1135
13506SOL     OW42524   3.458   0.182   4.211  0.1219  0.1638 -0.2425
13506SOL    HW142525   3.490   0.269   4.188 -1.5920  0.3875 -2.0629
13506SOL    HW242526   3.533   0.139   4.252  0.5349  3.0477  2.3868
13507SOL     OW42527   9.869  10.724   8.520 -0.0448  0.2463 -0.0125
13507SOL    HW142528   9.934  10.791   8.544  2.9130 -2.2982 -0.2323
13507SOL    HW242529   9.880  10.713   8.426  0.6165 -1.5038  0.2335
13508SOL     OW42530   5.090   3.979   7.913  0.0967 -0.0150 -0.2104
13508SOL    HW142531   5.051   3.999   7.998  0.1321 -0.7177 -0.0219
13508SOL    HW242532   5.136   4.059   7.888 -1.4751  0.8410 -0.4665
13509SOL     OW42533   6.416   0.484   0.398 -0.1039  0.3181 -0.4425
13509SOL    HW142534   6.454   0.416   0.453 -1.7067  1.3438  2.1503
13509SOL    HW242535   6.489   0.542   0.378  0.2921  1.0312  2.4813
13510SOL     OW42536   3.215   0.682   0.691  0.2037  0.9345 -0.0601
13510SOL    HW142537   3.197   0.620   0.762  0.4729 -0.6407 -1.3242
13510SOL    HW242538   3.178   0.641   0.613  1.6838  1.6581 -1.1868
13511SOL     OW42539   6.820   0.887   7.889  0.3048  0.3930 -0.3059
13511SOL    HW142540   6.817   0.946   7.814  0.6841  0.0344 -0.6072
13511SOL    HW242541   6.772   0.933   7.958  0.2779  0.8874 -0.6515
13512SOL     OW42542   0.534   5.875   7.458 -0.0207  0.1428  0.0631
13512SOL    HW142543   0.445   5.860   7.488  0.1617  1.5954  1.4763
13512SOL    HW242544   0.589   5.851   7.532  0.8145 -0.9624 -0.8657
13513SOL     OW42545   3.226   7.808   3.685 -0.8735 -0.0530 -0.2063
13513SOL    HW142546   3.263   7.863   3.754 -0.3431  1.3363 -1.5324
13513SOL    HW242547   3.270   7.723   3.695 -1.3234 -0.1063  1.5664
13514SOL     OW42548   4.358   6.493   6.727  0.0385 -0.0178  0.4525
13514SOL    HW142549   4.302   6.426   6.766 -0.6549  0.4059  0.2168
13514SOL    HW242550   4.447   6.468   6.752  0.0552 -2.2768 -1.4726
13515SOL     OW42551  10.008   0.810   0.552 -0.3944  0.1872  0.1209
13515SOL    HW142552   9.969   0.753   0.485 -1.0424  1.3308 -0.5114
13515SOL    HW242553  10.022   0.753   0.627 -2.8404 -0.4362  0.2116
13516SOL     OW42554   0.044   2.575   6.333  0.1824 -0.4804 -0.2407
13516SOL    HW142555  -0.039   2.622   6.339  0.0925 -0.4438 -1.4341
13516SOL    HW242556   0.098   2.629   6.274  0.3330 -1.4861 -1.0580
13517SOL     OW42557   4.256   9.598   0.700 -0.1785  0.0833  0.3596
13517SOL    HW142558   4.232   9.623   0.790 -0.5503 -0.5305  0.4359
13517SOL    HW242559   4.176   9.610   0.650  0.1528  0.8827 -0.0009
13518SOL     OW42560  10.235   2.563  10.592 -0.2629  0.5253  0.0434
13518SOL    HW142561  10.215   2.639  10.537  0.4679  0.9036  0.2943
13518SOL    HW242562  10.185   2.578  10.672 -0.6640  0.3919 -0.1776
13519SOL     OW42563   0.583   3.999   0.311  0.0095 -0.3723 -0.5427
13519SOL    HW142564   0.504   4.045   0.281  0.3390 -0.7127 -2.0175
13519SOL    HW242565   0.549   3.929   0.367 -0.6524  0.2056 -0.2062
13520SOL     OW42566   6.758   5.833   4.439 -0.1550 -0.0057 -0.8636
13520SOL    HW142567   6.829   5.813   4.377  0.2911  0.4581 -0.5140
13520SOL    HW242568   6.698   5.888   4.389 -0.7794 -1.2086 -1.4622
13521SOL     OW42569   9.351   1.399   3.217  0.1347  0.4403  0.1897
13521SOL    HW142570   9.340   1.449   3.136 -1.4942 -0.2517 -0.0603
13521SOL    HW242571   9.317   1.457   3.286  1.2031  0.8920  0.3656
13522SOL     OW42572   2.306   6.362  10.174 -0.3646  0.7562  0.4572
13522SOL    HW142573   2.380   6.303  10.187 -0.1266  0.9039 -0.1926
13522SOL    HW242574   2.312   6.388  10.082 -0.6890  1.4960  0.6386
13523SOL     OW42575   8.079   2.235   3.301  0.2940 -0.3399  0.6394
13523SOL    HW142576   8.024   2.279   3.236  0.7427 -0.9523 -0.1774
13523SOL    HW242577   8.151   2.296   3.317  1.7369 -1.3254 -1.6287
13524SOL     OW42578   8.020   9.882  10.042 -0.1272  0.0716  0.4359
13524SOL    HW142579   8.060   9.824   9.978 -2.8934 -2.1739  0.5772
13524SOL    HW242580   7.934   9.903  10.006  0.0186  2.5387  1.3333
13525SOL     OW42581   9.023   3.659   8.660 -0.2580 -0.2516 -0.1903
13525SOL    HW142582   9.020   3.609   8.578 -0.0832  2.1901 -1.8227
13525SOL    HW242583   8.931   3.680   8.678 -0.1485  3.2640 -2.6327
13526SOL     OW42584   4.954   1.514  10.013  0.4464 -0.4640  0.4377
13526SOL    HW142585   4.948   1.592   9.958  1.9782  0.5771  1.6253
13526SOL    HW242586   4.873   1.514  10.064 -1.9384 -2.5206 -2.9665
13527SOL     OW42587   1.980   9.324   8.781  0.2371  0.1078 -0.0522
13527SOL    HW142588   1.916   9.390   8.754 -0.5835 -0.2405  0.9491
13527SOL    HW242589   1.985   9.333   8.876  0.6960 -0.7448  0.0114
13528SOL     OW42590   2.461   5.089   2.108 -0.2075 -0.2667  0.1220
13528SOL    HW142591   2.473   5.004   2.065 -0.0136  0.5745 -1.5316
13528SOL    HW242592   2.545   5.134   2.098 -0.5529  0.4331  0.3087
13529SOL     OW42593   9.833   6.961  10.577  0.8418 -0.0565 -0.4888
13529SOL    HW142594   9.753   6.996  10.618 -0.1464 -1.8706 -0.7685
13529SOL    HW242595   9.874   6.910  10.647  1.2090  0.0072 -0.6597
13530SOL     OW42596   1.874   1.067   4.340 -0.2283 -0.2165 -0.0210
13530SOL    HW142597   1.832   1.130   4.282 -0.0077 -0.7755 -0.8161
13530SOL    HW242598   1.844   1.090   4.427 -2.6455 -0.9491 -0.5943
13531SOL     OW42599   4.827   2.682   1.371  0.2892  0.0525  0.1061
13531SOL    HW142600   4.877   2.629   1.308  2.1709  1.1033  0.6477
13531SOL    HW242601   4.736   2.668   1.346  0.9330  0.8377 -3.2539
13532SOL     OW42602   4.229   7.762   3.651  0.0836  0.2706 -0.3902
13532SOL    HW142603   4.318   7.788   3.676 -0.0588 -0.3816  0.9175
13532SOL    HW242604   4.179   7.770   3.732 -0.8795 -0.1257 -0.9311
13533SOL     OW42605   9.913   1.364   7.557 -0.0848  0.5763 -0.0201
13533SOL    HW142606   9.970   1.432   7.521 -2.3002  1.3414 -2.4625
13533SOL    HW242607   9.886   1.314   7.481 -3.8614  1.2791  0.6651
13534SOL     OW42608   0.678   8.547   1.024 -0.0011  0.0510 -0.0586
13534SOL    HW142609   0.588   8.545   0.991  0.1342  0.3377 -0.4472
13534SOL    HW242610   0.721   8.616   0.973  0.0608  0.9075  1.0954
13535SOL     OW42611   1.113   9.753   2.085  0.2918 -0.0437  0.3446
13535SOL    HW142612   1.061   9.778   2.160  0.8837 -0.5014  0.9175
13535SOL    HW242613   1.082   9.809   2.014 -0.6641 -0.0153  0.7814
13536SOL     OW42614   9.363   1.121   4.301 -0.2117  0.0375 -0.2724
13536SOL    HW142615   9.400   1.076   4.225 -0.3621 -0.5489  0.0019
13536SOL    HW242616   9.288   1.169   4.266  1.0225  1.5837 -0.9245
13537SOL     OW42617   5.871   5.522   7.213 -0.5135  0.3736  0.3506
13537SOL    HW142618   5.785   5.518   7.255 -0.9255 -0.5780 -0.5272
13537SOL    HW242619   5.878   5.439   7.166 -0.6163  1.8068 -2.4042
13538SOL     OW42620   2.472   2.719   1.719  0.0923 -0.5303  0.0297
13538SOL    HW142621   2.392   2.682   1.757 -0.4519 -0.1316 -0.6916
13538SOL    HW242622   2.529   2.643   1.706 -1.2141 -1.2616 -1.9393
13539SOL     OW42623   1.290  10.913   4.196 -0.4591 -0.2817 -0.5835
13539SOL    HW142624   1.322  10.995   4.234  0.7856 -0.6189 -0.8255
13539SOL    HW242625   1.217  10.939   4.140 -2.4886  0.2073  2.1050
13540SOL     OW42626   7.355   0.516   7.959 -0.4704  0.2236 -0.0805
13540SOL    HW142627   7.345   0.539   8.051 -0.3724 -0.2775  0.0556
13540SOL    HW242628   7.433   0.460   7.956 -2.3417 -2.6278  0.0646
13541SOL     OW42629   8.265   5.010   3.663 -0.5737  0.9321  0.3592
13541SOL    HW142630   8.208   5.088   3.663  1.0779  2.2239 -1.2067
13541SOL    HW242631   8.336   5.033   3.605  1.0702 -1.0177  1.4812
13542SOL     OW42632   7.832   8.816   9.853 -0.0217  0.5993  0.0096
13542SOL    HW142633   7.909   8.760   9.843  0.6151  1.3354  0.7248
13542SOL    HW242634   7.809   8.842   9.763  0.5256  0.3476 -0.2056
13543SOL     OW42635   8.910   8.307   1.139  0.0273 -0.1922  0.7566
13543SOL    HW142636   8.837   8.313   1.077 -0.2874 -1.7649  0.9273
13543SOL    HW242637   8.909   8.391   1.186  1.0109  1.5660 -2.1176
13544SOL     OW42638   4.283   3.783   8.629 -0.2283  0.4397  0.4430
13544SOL    HW142639   4.196   3.817   8.652 -1.0420 -1.2268  0.0587
13544SOL    HW242640   4.287   3.699   8.675  0.5333 -0.2256 -0.7957
13545SOL     OW42641  11.002   6.680   1.111 -0.5797  0.2237  0.3629
13545SOL    HW142642  11.023   6.632   1.031 -0.6064  1.2649 -0.2758
13545SOL    HW242643  10.919   6.642   1.141  0.4213 -1.5606  1.0304
13546SOL     OW42644   4.657   1.894  10.523 -0.0987  0.2096  0.6831
13546SOL    HW142645   4.599   1.916  10.451 -0.5347  0.0099  0.9648
13546SOL    HW242646   4.654   1.970  10.581  1.0015  0.7736  0.0358
13547SOL     OW42647   9.282   1.659   0.219  0.4896  0.4072  0.3410
13547SOL    HW142648   9.321   1.747   0.213  1.1567  0.0935 -0.1071
13547SOL    HW242649   9.356   1.600   0.230  0.3337 -0.3512 -1.9698
13548SOL     OW42650   8.485   7.693   9.206  0.5469  0.1053  0.7619
13548SOL    HW142651   8.529   7.622   9.251  0.4816  0.2964  1.1327
13548SOL    HW242652   8.422   7.727   9.270  0.5487  0.4683  0.5771
13549SOL     OW42653   2.011   9.617   0.429 -0.0670 -0.3027 -0.0337
13549SOL    HW142654   2.094   9.664   0.425 -0.2233 -0.0077  0.0606
13549SOL    HW242655   1.957   9.671   0.487 -0.6991  0.1108 -0.9773
13550SOL     OW42656   9.547   5.894   1.663 -0.1111 -0.6580 -0.8692
13550SOL    HW142657   9.560   5.831   1.734 -1.4675 -0.9142 -0.8256
13550SOL    HW242658   9.525   5.840   1.587 -0.0934 -0.3009 -1.1308
13551SOL     OW42659   6.209   3.999   6.518 -0.2498  0.4295  0.5703
13551SOL    HW142660   6.131   4.012   6.572 -2.0176  0.9059 -1.9366
13551SOL    HW242661   6.175   3.979   6.431  2.4628 -0.6128 -0.3494
13552SOL     OW42662   1.901   3.492   7.564 -0.2511 -0.7056 -0.4340
13552SOL    HW142663   1.932   3.489   7.655 -1.7895 -2.1312  0.0763
13552SOL    HW242664   1.813   3.455   7.567 -1.2419  1.3140 -2.1598
13553SOL     OW42665   1.741   2.870   9.256  0.0153  0.0143  0.7133
13553SOL    HW142666   1.807   2.810   9.292 -1.4388 -2.5512 -0.5637
13553SOL    HW242667   1.700   2.908   9.333  0.8172 -0.8596  1.6134
13554SOL     OW42668   6.015   1.081  10.284  0.1017  0.4007 -0.1084
13554SOL    HW142669   6.105   1.058  10.307 -0.4067 -0.1420  1.4574
13554SOL    HW242670   5.961   1.037  10.349 -1.2875  1.0586 -0.7603
13555SOL     OW42671   0.103   2.070   1.182  0.3839  0.0098  0.2325
13555SOL    HW142672   0.159   2.087   1.106 -1.2265 -0.3840 -1.0838
13555SOL    HW242673   0.019   2.111   1.161 -0.3580 -0.8299  1.4240
13556SOL     OW42674   0.425   6.876   6.859  0.2118 -0.4297 -0.3808
13556SOL    HW142675   0.434   6.971   6.865  0.7188 -0.5464  1.4143
13556SOL    HW242676   0.395   6.860   6.769  0.1616  1.4068 -0.7329
13557SOL     OW42677   1.965   5.044   3.972 -0.2772 -0.2740  0.2776
13557SOL    HW142678   1.984   5.128   3.931  0.8364 -0.5214  0.2800
13557SOL    HW242679   2.029   5.036   4.043 -0.4866 -1.0479  0.3934
13558SOL     OW42680   1.701   4.374   2.052  1.1871  0.1282 -0.2351
13558SOL    HW142681   1.788   4.336   2.065  1.2476  0.2346 -0.3290
13558SOL    HW242682   1.704   4.457   2.100  0.7403 -0.4256  0.8002
13559SOL     OW42683   6.338   4.217   5.941  0.4186  0.4135 -0.8539
13559SOL    HW142684   6.400   4.222   5.868 -0.4996 -0.0298 -1.6989
13559SOL    HW242685   6.333   4.124   5.961 -2.1566  0.0127 -2.8112
13560SOL     OW42686   6.119  10.141   3.512 -0.0086 -0.5607 -0.1162
13560SOL    HW142687   6.059  10.190   3.567 -0.1869  2.7516 -2.9007
13560SOL    HW242688   6.074  10.058   3.495 -2.1253  0.3422  0.7614
13561SOL     OW42689   9.819   7.723   3.394 -0.7045  0.2428  0.3064
13561SOL    HW142690   9.788   7.793   3.336  0.9409  0.4735 -0.3254
13561SOL    HW242691   9.882   7.674   3.342  0.0876 -0.1393  1.5782
13562SOL     OW42692   1.617   3.907   0.564 -0.1947 -0.3380 -0.0812
13562SOL    HW142693   1.611   3.948   0.650 -1.5004  0.1886 -0.3929
13562SOL    HW242694   1.543   3.943   0.516  1.1476  0.2228 -1.8033
13563SOL     OW42695  10.789   8.650   2.374  0.2147 -0.2749 -0.0783
13563SOL    HW142696  10.712   8.597   2.353  0.0034  0.6316 -1.7340
13563SOL    HW242697  10.753   8.737   2.393  0.5341 -0.6570  2.7814
13564SOL     OW42698   7.636   6.316   3.589  0.3722  0.0607  0.1581
13564SOL    HW142699   7.611   6.404   3.558  1.8405  0.7565  0.8643
13564SOL    HW242700   7.656   6.268   3.509 -0.8287  0.2271 -0.2674
13565SOL     OW42701   0.140   2.830   0.281  0.1881 -0.2861 -0.0172
13565SOL    HW142702   0.051   2.819   0.246  0.1082 -0.0006  0.0990
13565SOL    HW242703   0.185   2.749   0.255 -0.6760 -1.3786  1.6656
13566SOL     OW42704   4.004   3.391   8.002 -0.5141 -0.1442 -0.7489
13566SOL    HW142705   3.934   3.391   7.937 -0.1549  1.6664 -1.1808
13566SOL    HW242706   4.013   3.299   8.028 -3.2896 -0.4027 -0.4054
13567SOL     OW42707   0.049   8.319   7.320  0.1777  0.0127  0.1710
13567SOL    HW142708   0.079   8.304   7.410 -0.9521  0.1912  0.5992
13567SOL    HW242709   0.117   8.372   7.280  0.6325  0.0430  0.9654
13568SOL     OW42710  10.779   8.195   5.289  0.1682  0.0060 -0.3967
13568SOL    HW142711  10.703   8.230   5.242  0.6874  1.0366 -0.5066
13568SOL    HW242712  10.788   8.252   5.365  2.2391  1.4436 -1.6240
13569SOL     OW42713   3.196   7.798   2.642 -0.5334 -0.1521 -0.4804
13569SOL    HW142714   3.280   7.832   2.674 -0.9731 -0.1164  0.7155
13569SOL    HW242715   3.204   7.703   2.650 -1.2440 -0.1091  1.5044
13570SOL     OW42716   1.651   0.033   6.109  0.2737 -0.4200 -0.1367
13570SOL    HW142717   1.640  -0.034   6.176  1.0639  2.0989  2.7404
13570SOL    HW242718   1.563   0.066   6.093  0.1951 -0.2378  0.6185
13571SOL     OW42719   5.880   5.220   2.053  0.4940 -0.1682  0.0065
13571SOL    HW142720   5.884   5.260   1.966 -1.8206  0.0242 -0.0809
13571SOL    HW242721   5.957   5.255   2.099  0.7905  1.1269 -1.3824
13572SOL     OW42722   1.637   9.358   4.080 -0.3401 -0.6391 -0.8907
13572SOL    HW142723   1.626   9.293   4.150 -1.3109  0.5970  0.1589
13572SOL    HW242724   1.727   9.391   4.092  0.1608 -1.7489 -1.4353
13573SOL     OW42725   5.662   7.133   9.180  0.2018  0.3075 -0.0947
13573SOL    HW142726   5.715   7.100   9.252 -0.5788  0.9680  0.7907
13573SOL    HW242727   5.650   7.057   9.122  1.0694 -0.1494  0.3157
13574SOL     OW42728   5.351   1.957   6.277  0.1973 -0.1656 -0.5630
13574SOL    HW142729   5.316   1.955   6.366  0.8645 -0.8675 -0.2964
13574SOL    HW242730   5.436   2.001   6.285  1.4586 -2.4209 -0.3406
13575SOL     OW42731   9.158   5.664  10.334  0.0624  0.7656  0.1444
13575SOL    HW142732   9.213   5.701  10.265 -0.6131  0.7776 -0.4015
13575SOL    HW242733   9.108   5.595  10.290 -2.0116  2.2513  0.0602
13576SOL     OW42734   6.195   5.610  10.571  0.2503  0.1558 -0.2106
13576SOL    HW142735   6.112   5.568  10.546  0.3513  1.3198 -2.8027
13576SOL    HW242736   6.259   5.539  10.569 -0.4539 -0.5283  0.6469
13577SOL     OW42737   0.447   0.695   4.348 -0.2173 -0.1159  0.1527
13577SOL    HW142738   0.387   0.747   4.402 -0.9976 -2.5220  1.7476
13577SOL    HW242739   0.532   0.738   4.358 -1.1505  1.9613 -0.2142
13578SOL     OW42740   3.551   1.288   7.708 -0.3940  0.6466  0.3851
13578SOL    HW142741   3.526   1.235   7.633 -0.9066  0.1731  0.8757
13578SOL    HW242742   3.646   1.292   7.705 -0.3477 -0.2986  0.3270
13579SOL     OW42743   4.379   0.385   4.030  0.0551  0.3218  0.4169
13579SOL    HW142744   4.464   0.372   4.072  0.2795  1.3903  0.3240
13579SOL    HW242745   4.318   0.393   4.103 -0.4299 -2.9861  0.4960
13580SOL     OW42746   8.046   6.920   2.125  0.4804 -0.4151 -0.0004
13580SOL    HW142747   7.953   6.922   2.146  0.2906  0.9790 -0.8648
13580SOL    HW242748   8.063   6.830   2.099 -0.5338 -0.7778  0.5464
13581SOL     OW42749   7.567   3.634   3.081  0.5877  0.4102  0.7073
13581SOL    HW142750   7.652   3.678   3.082  0.4841  0.6441 -0.3009
13581SOL    HW242751   7.583   3.553   3.032 -0.4529  1.9530 -2.4454
13582SOL     OW42752   6.960   4.048   8.294 -0.0726 -0.0677 -0.5172
13582SOL    HW142753   7.004   4.090   8.368 -0.7789  1.5675 -0.9705
13582SOL    HW242754   6.867   4.046   8.320 -0.8581  3.3175 -2.4486
13583SOL     OW42755   1.520   8.980   5.687  1.2269  0.1026  0.0008
13583SOL    HW142756   1.566   8.985   5.770  0.8135 -1.5261  0.3592
13583SOL    HW242757   1.430   8.958   5.711  0.9242  0.3787 -0.8474
13584SOL     OW42758   1.343   9.676   0.445 -0.0776 -0.1931 -0.2047
13584SOL    HW142759   1.435   9.702   0.443  0.6837 -2.6657 -0.0978
13584SOL    HW242760   1.319   9.668   0.353  0.2632 -0.9438 -0.2352
13585SOL     OW42761   7.272   7.587   3.053  0.0251  0.3611 -0.5539
13585SOL    HW142762   7.359   7.547   3.050  0.4594  0.9974  1.6801
13585SOL    HW242763   7.234   7.553   3.134 -1.2587  1.1873 -0.7950
13586SOL     OW42764   7.685   4.152   3.932 -0.3148 -0.0927  0.5672
13586SOL    HW142765   7.754   4.217   3.947 -0.1140  0.2683 -1.5039
13586SOL    HW242766   7.644   4.140   4.017  2.8896 -1.0322  2.1260
13587SOL     OW42767   2.917  10.428   7.986 -0.6459 -0.3558 -0.0255
13587SOL    HW142768   2.883  10.360   8.045 -1.1365 -0.1265 -0.0463
13587SOL    HW242769   2.849  10.494   7.983  0.6215  1.1361  1.6041
13588SOL     OW42770   0.065   0.618   8.538  0.2326  0.1746  0.3862
13588SOL    HW142771   0.157   0.645   8.544 -0.1625  1.7536 -0.1547
13588SOL    HW242772   0.019   0.678   8.597 -0.6935  0.7527 -0.8812
13589SOL     OW42773   4.157   3.776   7.253  0.5430 -0.4244  0.4031
13589SOL    HW142774   4.182   3.826   7.330 -1.6151  0.3991  0.6430
13589SOL    HW242775   4.153   3.685   7.284 -1.7587  0.0611  1.7330
13590SOL     OW42776   5.383   7.122   2.147 -0.2456  0.4998 -0.2936
13590SOL    HW142777   5.329   7.160   2.217  2.0384 -1.7959  3.0301
13590SOL    HW242778   5.473   7.139   2.175  0.7803 -0.6351 -2.6821
13591SOL     OW42779   5.931   7.100   0.878  0.3816 -0.0487 -0.3609
13591SOL    HW142780   5.885   7.110   0.962 -0.1733  1.9561 -0.8399
13591SOL    HW242781   6.024   7.098   0.901  0.3098  1.7972  0.2620
13592SOL     OW42782   8.745   5.793   8.495  0.0316 -0.0049  0.7197
13592SOL    HW142783   8.830   5.770   8.535 -0.3257 -0.0250  1.4812
13592SOL    HW242784   8.763   5.795   8.401  0.7104 -0.7464  0.8144
13593SOL     OW42785   0.377  10.309   5.095 -0.0030  0.6855 -0.3288
13593SOL    HW142786   0.329  10.382   5.056 -0.3826  1.0368  0.7734
13593SOL    HW242787   0.468  10.338   5.099 -0.3605  1.6903  1.3936
13594SOL     OW42788   2.761   3.008   8.859  0.2581  0.0386  0.5805
13594SOL    HW142789   2.702   3.006   8.783 -2.4443  1.7899  2.4298
13594SOL    HW242790   2.760   2.918   8.892 -1.5649  0.0221  0.6100
13595SOL     OW42791   1.740   9.696   1.944 -0.2493 -0.6755 -0.3672
13595SOL    HW142792   1.692   9.615   1.962 -1.1989  0.1557  1.0031
13595SOL    HW242793   1.812   9.696   2.008  0.1796 -0.7770 -0.8453
13596SOL     OW42794   0.055   3.522   8.145  0.0521 -0.3871  0.2405
13596SOL    HW142795   0.110   3.458   8.100  0.1333 -0.0987 -0.0736
13596SOL    HW242796   0.116   3.575   8.195 -0.0739 -0.9601  1.0189
13597SOL     OW42797   1.865  10.986   9.222  0.2243 -0.3862  0.0054
13597SOL    HW142798   1.916  10.912   9.190  0.9809  0.3671 -0.5787
13597SOL    HW242799   1.895  11.060   9.169 -1.3054  0.1248 -0.1982
13598SOL     OW42800   9.312   2.340   3.771  0.2706  0.7661  0.0954
13598SOL    HW142801   9.271   2.366   3.853 -0.7878  1.8171 -0.7279
13598SOL    HW242802   9.248   2.282   3.729  0.2868  1.1475 -0.4826
13599SOL     OW42803   3.989  10.207   5.502 -0.1420 -0.0811 -0.1942
13599SOL    HW142804   3.942  10.136   5.459 -1.3289 -0.2035  1.2284
13599SOL    HW242805   4.029  10.256   5.430 -0.1188 -1.5955 -1.2635
13600SOL     OW42806   1.727   8.141   5.756  0.3643  0.7780  0.1627
13600SOL    HW142807   1.675   8.205   5.708 -1.0969 -0.7403 -0.3713
13600SOL    HW242808   1.778   8.096   5.690  1.0387  1.0697  0.4776
13601SOL     OW42809   4.849   1.441   6.280  0.5379 -0.1458  0.2033
13601SOL    HW142810   4.879   1.507   6.343  0.7458 -0.9074  0.9143
13601SOL    HW242811   4.798   1.491   6.216  0.4245  0.6567  0.9010
13602SOL     OW42812   5.480   6.229   9.573  0.9720  0.2349  0.4416
13602SOL    HW142813   5.549   6.162   9.568  1.2829  0.6322 -1.2290
13602SOL    HW242814   5.527   6.310   9.595  0.7375  0.1098  1.4260
13603SOL     OW42815   0.480   7.158   7.208  0.3542  0.4532 -0.2478
13603SOL    HW142816   0.514   7.168   7.119 -0.3977  1.5853 -0.4291
13603SOL    HW242817   0.444   7.069   7.210 -0.7564  0.8291 -1.5053
13604SOL     OW42818   3.783   7.397   9.132  0.1613  0.2567 -0.0840
13604SOL    HW142819   3.851   7.434   9.189 -0.1634 -0.4476  0.7811
13604SOL    HW242820   3.701   7.415   9.177 -0.1524  0.2596 -0.6511
13605SOL     OW42821   7.489   8.528   5.187  0.2504 -0.4343 -0.5051
13605SOL    HW142822   7.526   8.481   5.262  2.0846 -0.9432 -1.6776
13605SOL    HW242823   7.412   8.476   5.163 -0.0107 -0.6044  0.6185
13606SOL     OW42824   8.743   7.905   9.729 -0.1077  0.4750 -0.0501
13606SOL    HW142825   8.738   7.983   9.784  1.3129 -0.7908  2.0279
13606SOL    HW242826   8.687   7.841   9.772  1.5609 -0.7628  0.3891
13607SOL     OW42827   2.433   0.616   7.193 -0.1046 -0.3967 -0.3860
13607SOL    HW142828   2.449   0.602   7.100 -0.8744 -1.7310 -0.3426
13607SOL    HW242829   2.519   0.611   7.233  0.0201 -2.0343 -0.7820
13608SOL     OW42830   1.678   1.572   4.924  0.2771 -0.1734  0.7360
13608SOL    HW142831   1.757   1.527   4.898  0.3421  1.2200 -1.8217
13608SOL    HW242832   1.689   1.662   4.892 -1.5401  0.5910  1.9998
13609SOL     OW42833   7.655   3.516   1.211 -0.0841  0.4236 -0.1802
13609SOL    HW142834   7.565   3.503   1.180 -0.0986 -0.2070  0.1221
13609SOL    HW242835   7.684   3.596   1.166 -1.6740  2.1521  1.6683
13610SOL     OW42836   3.378   4.899   9.149 -0.0298 -0.4587  0.2631
13610SOL    HW142837   3.472   4.895   9.166  0.2210 -1.7367 -1.1985
13610SOL    HW242838   3.339   4.839   9.212  0.3364 -1.1882 -0.1859
13611SOL     OW42839   7.703   4.023   2.271 -0.0507 -0.1498 -0.0206
13611SOL    HW142840   7.678   4.004   2.181  2.1322 -1.1161 -0.4613
13611SOL    HW242841   7.688   3.941   2.318  0.0307 -0.0264  0.2234
13612SOL     OW42842   8.185   0.626   7.427  0.1966  0.0552 -0.5185
13612SOL    HW142843   8.168   0.532   7.420  1.8991 -0.4268  1.1265
13612SOL    HW242844   8.280   0.634   7.426  0.0982  1.7380 -0.2172
13613SOL     OW42845   8.259   0.334   3.307  0.2297  0.3455 -0.4565
13613SOL    HW142846   8.167   0.343   3.284  0.7253  3.2812 -1.8272
13613SOL    HW242847   8.297   0.282   3.236 -0.1040  0.5428 -0.7828
13614SOL     OW42848   1.308  10.591   1.719 -0.3531  0.2537  0.0483
13614SOL    HW142849   1.314  10.507   1.764  2.4354  0.1505 -0.3534
13614SOL    HW242850   1.306  10.569   1.626  2.6887  0.5556 -0.1891
13615SOL     OW42851   1.394  10.195   6.224 -0.2807  0.2187  0.3185
13615SOL    HW142852   1.446  10.157   6.295 -2.1756 -1.6994  0.7841
13615SOL    HW242853   1.386  10.125   6.160 -1.6814  0.6884 -0.0575
13616SOL     OW42854   0.030   6.566   5.124  0.5609 -0.3422  0.0209
13616SOL    HW142855   0.018   6.471   5.129 -0.1762 -0.1958  2.7930
13616SOL    HW242856  -0.044   6.601   5.173  1.8434  1.5768  0.6823
13617SOL     OW42857   6.158   3.656   0.731 -0.2343  0.4037  0.2892
13617SOL    HW142858   6.160   3.579   0.675 -1.6926  0.1431  0.5696
13617SOL    HW242859   6.234   3.708   0.703  0.3152 -0.7502 -0.4222
13618SOL     OW42860   9.087   1.469   7.564  0.3157 -0.0659 -0.2410
13618SOL    HW142861   9.045   1.428   7.639  0.2184  0.7822  0.1804
13618SOL    HW242862   9.147   1.402   7.530 -0.8241 -1.0372 -0.4098
13619SOL     OW42863  10.183   7.329   8.478  0.2078 -0.0712 -0.1257
13619SOL    HW142864  10.199   7.237   8.499 -0.4660 -0.0054  0.7255
13619SOL    HW242865  10.089   7.334   8.464  0.2779  0.4485 -0.4213
13620SOL     OW42866   5.184   3.306   8.043 -0.7517 -0.1186  0.4534
13620SOL    HW142867   5.179   3.221   7.999 -0.5431  0.6707 -1.1668
13620SOL    HW242868   5.187   3.370   7.972  1.3017  1.1552  1.5661
13621SOL     OW42869   2.596   5.555   0.655  0.1217 -0.0601  0.2590
13621SOL    HW142870   2.565   5.476   0.700 -1.1925  1.1969  1.6702
13621SOL    HW242871   2.517   5.594   0.619  0.7440  0.6955 -0.3027
13622SOL     OW42872   1.795   0.122   1.732 -0.1600 -0.4194 -0.3742
13622SOL    HW142873   1.736   0.188   1.768  1.3870  1.1036 -0.4462
13622SOL    HW242874   1.780   0.044   1.785  2.2283  1.7616  4.1305
13623SOL     OW42875   2.225   1.247   2.021  0.1068  0.1522  0.1480
13623SOL    HW142876   2.130   1.251   2.017  0.0843 -0.5901 -3.0193
13623SOL    HW242877   2.249   1.304   2.093 -2.7139  0.5118  0.9170
13624SOL     OW42878   4.268   3.015   8.142 -0.1342  0.0500  0.4658
13624SOL    HW142879   4.205   2.989   8.209 -1.2656  1.0858 -0.1326
13624SOL    HW242880   4.317   2.936   8.122 -0.5025 -0.5244  1.7403
13625SOL     OW42881   4.901   1.056   7.305 -0.3739 -0.6186 -0.0908
13625SOL    HW142882   4.813   1.023   7.289 -0.2299 -0.4522 -1.3522
13625SOL    HW242883   4.920   1.033   7.396 -2.3688  0.8512  0.7868
13626SOL     OW42884   4.558   5.434  10.056 -0.7048  0.1938  0.2865
13626SOL    HW142885   4.535   5.342  10.066 -2.8219  0.5499 -0.7858
13626SOL    HW242886   4.648   5.433  10.021 -0.4901 -1.4169  0.8273
13627SOL     OW42887   4.292  10.757   8.519  0.0149  0.9397 -0.5320
13627SOL    HW142888   4.219  10.755   8.580  0.3919  1.6959 -0.0497
13627SOL    HW242889   4.339  10.675   8.536 -0.2456  0.8452 -0.2632
13628SOL     OW42890   5.158   0.775   9.935  0.0091  0.1292 -0.7442
13628SOL    HW142891   5.162   0.778  10.031  1.1241 -1.7558 -0.6889
13628SOL    HW242892   5.123   0.861   9.910  2.4671  1.8539  1.1973
13629SOL     OW42893   4.089   6.530   9.370 -0.7552 -0.2884  0.0805
13629SOL    HW142894   4.076   6.514   9.463 -0.6580 -1.9702 -0.1777
13629SOL    HW242895   4.043   6.459   9.326  2.0694 -1.5593 -1.0524
13630SOL     OW42896   2.050   1.964   4.022  0.1124 -0.1471 -0.4402
13630SOL    HW142897   1.976   2.023   4.009 -0.3904 -0.6629  0.0463
13630SOL    HW242898   2.076   1.977   4.113  0.7657  0.1859 -0.6635
13631SOL     OW42899   5.562   5.805  10.160  0.6161  0.8103 -0.2461
13631SOL    HW142900   5.594   5.892  10.135 -0.7846  1.2098 -0.6954
13631SOL    HW242901   5.507   5.820  10.236 -1.3263  0.6395 -1.5445
13632SOL     OW42902   3.395   1.897   3.619  0.1943 -0.6421 -0.4760
13632SOL    HW142903   3.329   1.854   3.674 -1.2999  2.4060  0.3790
13632SOL    HW242904   3.364   1.884   3.529 -1.4871  0.4459 -0.1018
13633SOL     OW42905   2.093   4.016   5.169  0.5925 -0.3733  0.1769
13633SOL    HW142906   2.026   4.055   5.225 -0.9206 -1.6764 -0.6338
13633SOL    HW242907   2.087   4.065   5.087 -1.0202 -1.9038 -0.6940
13634SOL     OW42908   5.310   2.321   6.079 -0.3303 -0.0025 -0.5571
13634SOL    HW142909   5.282   2.231   6.067  0.2587 -0.2016 -0.4293
13634SOL    HW242910   5.384   2.316   6.139 -1.2743  0.6910  0.7281
13635SOL     OW42911   4.664   3.038   7.155  0.7969 -0.4989  0.2515
13635SOL    HW142912   4.682   3.126   7.190  0.4173 -0.9759  1.7202
13635SOL    HW242913   4.655   2.983   7.233  1.6536 -1.9813 -0.6607
13636SOL     OW42914   6.028   1.104   6.004  0.3041  0.4106 -0.3419
13636SOL    HW142915   5.982   1.023   6.026  2.6087 -1.2019 -1.0547
13636SOL    HW242916   6.029   1.154   6.086 -1.0738 -0.3105  0.1411
13637SOL     OW42917   2.099   9.677   7.241  0.4819 -0.7064  0.2692
13637SOL    HW142918   2.136   9.754   7.284 -1.4270  0.5984 -0.2824
13637SOL    HW242919   2.061   9.626   7.312 -1.0184  0.5000  0.3903
13638SOL     OW42920   6.051   1.327   3.035 -0.4064 -0.3240  0.0340
13638SOL    HW142921   6.115   1.397   3.021 -0.6644  0.2299  1.4649
13638SOL    HW242922   5.992   1.333   2.959  1.0570 -0.6741 -1.1679
13639SOL     OW42923   9.622   0.721   3.647  0.3980 -0.2677  0.0203
13639SOL    HW142924   9.667   0.705   3.565  1.0133 -0.8892  0.4659
13639SOL    HW242925   9.676   0.787   3.692  0.9554 -1.1057  0.6096
13640SOL     OW42926   1.547   8.048  10.054 -0.3030  0.1159  0.4699
13640SOL    HW142927   1.463   8.085  10.027 -0.2642 -0.7651 -0.9452
13640SOL    HW242928   1.536   8.028  10.147 -2.5344 -2.1911 -0.1732
13641SOL     OW42929   5.385   0.834  10.517 -0.0767  0.0776 -0.5318
13641SOL    HW142930   5.392   0.887  10.437  1.1527 -0.6024 -0.8934
13641SOL    HW242931   5.398   0.744  10.487  2.1741 -0.0426  0.6366
13642SOL     OW42932   6.287  10.484   9.311  0.2340  0.3170 -0.2722
13642SOL    HW142933   6.255  10.449   9.394  2.2027  1.2878  0.9736
13642SOL    HW242934   6.226  10.555   9.289  0.8445  1.4189  1.4560
13643SOL     OW42935  10.346  10.892   8.721 -0.6849 -0.1585  0.6966
13643SOL    HW142936  10.296  10.959   8.767 -1.5049 -0.7340  0.6632
13643SOL    HW242937  10.280  10.829   8.691  0.2220 -2.2304  2.7506
13644SOL     OW42938   7.790  10.783   9.138 -0.2002 -0.2841 -0.0985
13644SOL    HW142939   7.792  10.811   9.047 -1.8234  2.0922  0.5059
13644SOL    HW242940   7.756  10.694   9.135  0.3006 -0.4451 -1.8353
13645SOL     OW42941   1.674   5.643   8.489 -0.2531  0.1326  0.0675
13645SOL    HW142942   1.727   5.682   8.419  0.7118 -0.2177  0.5812
13645SOL    HW242943   1.597   5.608   8.444 -0.1201  0.7587 -0.6827
13646SOL     OW42944   2.981   6.416   4.956  0.0183 -0.7347  0.3329
13646SOL    HW142945   2.947   6.422   4.867  1.4758  0.2644 -0.1843
13646SOL    HW242946   2.959   6.327   4.984 -1.6248 -0.6307 -0.5068
13647SOL     OW42947   2.271   7.385   7.262 -0.1287 -0.2893 -0.0305
13647SOL    HW142948   2.207   7.429   7.205 -0.0868 -0.2792 -0.0696
13647SOL    HW242949   2.353   7.431   7.246 -0.4096  0.6340  1.0728
13648SOL     OW42950   1.294   7.030  10.113  0.1180 -0.6838  0.3541
13648SOL    HW142951   1.335   7.047  10.198 -0.9577  0.0632  0.7396
13648SOL    HW242952   1.363   7.049  10.049  0.2575  1.0458  0.9654
13649SOL     OW42953   1.610   4.920   3.536 -0.3436 -0.0136 -0.3601
13649SOL    HW142954   1.598   5.015   3.529  0.8476  0.1638 -0.1311
13649SOL    HW242955   1.635   4.905   3.628 -0.9821 -0.6113 -0.2713
13650SOL     OW42956   2.496   1.274  10.224 -0.2131  0.1575  0.3577
13650SOL    HW142957   2.433   1.236  10.284 -0.3688  0.3666  0.3290
13650SOL    HW242958   2.571   1.214  10.225 -0.6335 -0.3849 -0.0257
13651SOL     OW42959   6.200   6.520   9.928  1.0111  0.2733 -0.1481
13651SOL    HW142960   6.254   6.579   9.876  2.1134  0.8123  1.5342
13651SOL    HW242961   6.261   6.454   9.961  0.4314  0.1766  0.7750
13652SOL     OW42962   9.500   2.843   9.922  0.1361  0.2727 -0.0267
13652SOL    HW142963   9.497   2.902   9.997  0.4739 -2.1703  2.0352
13652SOL    HW242964   9.414   2.801   9.922  0.8689 -1.2916  0.3685
13653SOL     OW42965   1.036  10.061   7.747 -0.1394 -0.4163 -0.0554
13653SOL    HW142966   1.060   9.968   7.745  1.2125 -0.0966  0.1422
13653SOL    HW242967   0.969  10.067   7.815 -1.7991 -1.5680 -1.5249
13654SOL     OW42968   0.826   7.231   0.766 -0.0268  0.3160  0.3040
13654SOL    HW142969   0.835   7.193   0.679  1.3810 -0.1898  0.6426
13654SOL    HW242970   0.898   7.294   0.773  1.0912 -1.0187  1.7419
13655SOL     OW42971  10.251   4.114   4.215 -0.0900  0.1696  0.1874
13655SOL    HW142972  10.323   4.095   4.154 -1.0126 -0.3610 -0.7722
13655SOL    HW242973  10.211   4.193   4.181  0.5483  0.9779  1.2314
13656SOL     OW42974   1.599   8.068   4.840 -0.0173  0.6116  0.6301
13656SOL    HW142975   1.512   8.108   4.837  0.5496  2.1222  2.4596
13656SOL    HW242976   1.647   8.111   4.769 -0.6140  0.0845 -0.1098
13657SOL     OW42977   2.647   0.539   6.697  0.5906 -0.1550  0.2653
13657SOL    HW142978   2.584   0.547   6.626  0.4534 -0.2568  0.3732
13657SOL    HW242979   2.728   0.575   6.662  0.5243 -0.2052  0.0576
13658SOL     OW42980  10.801   5.229   3.963  0.0728  0.1957  0.3209
13658SOL    HW142981  10.740   5.297   3.933  0.1640  0.4391  0.6814
13658SOL    HW242982  10.767   5.204   4.049 -2.4475 -3.1728 -1.3899
13659SOL     OW42983   5.877   2.869   3.191  0.1491  0.0737  0.0814
13659SOL    HW142984   5.894   2.840   3.281 -1.0990 -0.0801  0.2909
13659SOL    HW242985   5.782   2.883   3.188  0.3708  1.6165 -0.7630
13660SOL     OW42986   0.272   7.159   8.335 -0.2223  0.0236  0.5342
13660SOL    HW142987   0.216   7.217   8.284 -0.0570  1.1001  1.5418
13660SOL    HW242988   0.338   7.127   8.272  0.5954  2.1120  0.2532
13661SOL     OW42989   7.547   3.564   7.297  0.4342  0.3913 -0.2432
13661SOL    HW142990   7.453   3.559   7.279  0.4592  1.5656 -0.7546
13661SOL    HW242991   7.565   3.486   7.350 -0.6595 -0.2994 -0.8546
13662SOL     OW42992  10.063  10.379   2.179 -0.0243 -0.0171 -0.2007
13662SOL    HW142993  10.063  10.447   2.247  2.2859  0.1770 -0.3088
13662SOL    HW242994  10.103  10.422   2.103  0.3736 -1.1400 -0.6508
13663SOL     OW42995   9.373   2.983   0.076 -0.1487  0.5045  0.0724
13663SOL    HW142996   9.297   2.953   0.126 -0.6122  1.7217  0.1328
13663SOL    HW242997   9.381   3.076   0.098  1.6290  0.3105  0.4117
13664SOL     OW42998   7.162   2.363   5.661 -0.5350 -0.5325 -0.1416
13664SOL    HW142999   7.115   2.445   5.675 -0.9967 -0.8147 -0.0129
13664SOL    HW243000   7.250   2.389   5.636 -0.5379  0.0031  0.4033
13665SOL     OW43001  10.126   5.848   3.202 -0.0426  0.7418 -0.1355
13665SOL    HW143002  10.078   5.820   3.279  0.8416 -0.4511  0.0258
13665SOL    HW243003  10.209   5.799   3.206  0.4800  1.4729 -1.2595
13666SOL     OW43004   9.111   4.870   6.772  0.4404  0.2029  0.3036
13666SOL    HW143005   9.187   4.898   6.720 -1.1986  0.6891 -2.0185
13666SOL    HW243006   9.035   4.896   6.719 -1.3505 -0.9954  2.1229
13667SOL     OW43007   2.839   8.595   6.147  0.2492  0.5659 -0.1956
13667SOL    HW143008   2.772   8.547   6.099 -0.2315  0.9611  0.0736
13667SOL    HW243009   2.803   8.683   6.158  0.8387  0.8012 -0.1097
13668SOL     OW43010   5.042   1.425   2.038  0.7713 -0.6136 -0.6228
13668SOL    HW143011   5.119   1.374   2.062  0.7187 -0.0661  0.8089
13668SOL    HW243012   5.063   1.461   1.951  1.6917 -1.2810 -0.6952
13669SOL     OW43013   7.724   3.321   9.815  0.4146 -0.4812  0.3742
13669SOL    HW143014   7.644   3.353   9.857  0.3950  0.8487 -0.6452
13669SOL    HW243015   7.694   3.279   9.735  0.7029 -0.4124  0.2300
13670SOL     OW43016   2.993   3.651   7.762  0.1502  0.2188  0.0226
13670SOL    HW143017   2.901   3.674   7.765 -0.2703 -1.3883  0.8791
13670SOL    HW243018   3.013   3.618   7.849  1.2560 -0.4316 -0.4461
13671SOL     OW43019   5.413  10.981   6.678 -0.5094 -0.2687  0.1712
13671SOL    HW143020   5.462  10.901   6.659 -1.6431 -1.7589  2.8574
13671SOL    HW243021   5.412  10.985   6.774  0.3201  3.5583  0.1476
13672SOL     OW43022   8.397   1.638  10.548 -0.3693 -0.3731 -0.2379
13672SOL    HW143023   8.449   1.630  10.468 -1.4414 -0.8706 -0.9060
13672SOL    HW243024   8.453   1.685  10.609  0.4712  0.0022 -1.2849
13673SOL     OW43025  10.181   8.233   6.833 -0.0923  0.3500 -0.0113
13673SOL    HW143026  10.186   8.327   6.814 -1.5538  0.6004  0.7027
13673SOL    HW243027  10.129   8.228   6.913 -2.5013 -1.2204 -1.5619
13674SOL     OW43028   2.209   2.829  10.315 -0.2901  0.1138  0.3687
13674SOL    HW143029   2.120   2.859  10.296 -0.1643  0.7191  0.7160
13674SOL    HW243030   2.197   2.759  10.379 -0.4801  0.5921  0.8602
13675SOL     OW43031  10.097   7.109   6.284 -0.0194  0.2968 -0.5904
13675SOL    HW143032  10.186   7.141   6.270  0.6571 -0.7289  1.0878
13675SOL    HW243033  10.041   7.180   6.255  1.3873  2.1156  0.9375
13676SOL     OW43034  10.717   8.385   8.715 -0.5451  0.1904  0.5969
13676SOL    HW143035  10.720   8.408   8.622 -2.1050 -0.6101  0.3135
13676SOL    HW243036  10.781   8.443   8.756  0.1370  0.6013 -0.9578
13677SOL     OW43037   5.020  10.516   7.320  0.0064 -0.0239 -0.1992
13677SOL    HW143038   5.087  10.476   7.264 -0.5422  0.4287 -1.2081
13677SOL    HW243039   4.978  10.442   7.363 -1.6190 -0.7130 -2.7378
13678SOL     OW43040   8.033   5.092   1.109 -0.1650  0.3106  0.3543
13678SOL    HW143041   7.949   5.077   1.152 -0.9199  0.9726 -0.8594
13678SOL    HW243042   8.028   5.044   1.027 -0.4575  2.5059 -0.9877
13679SOL     OW43043   8.897   0.931   0.781  0.1060 -0.1959  0.2593
13679SOL    HW143044   8.975   0.977   0.751 -0.6119  1.9673  1.4106
13679SOL    HW243045   8.881   0.967   0.869 -2.4803 -0.1262 -0.1592
13680SOL     OW43046   9.301  10.174   6.065 -0.5244  0.6336 -0.6766
13680SOL    HW143047   9.207  10.164   6.050 -0.7707  0.2054  0.9730
13680SOL    HW243048   9.308  10.256   6.115 -0.3308 -0.5409  1.3678
13681SOL     OW43049   4.111   5.889   1.717 -0.0723  0.1860 -0.3892
13681SOL    HW143050   4.042   5.946   1.682 -0.7563 -0.6963 -0.5029
13681SOL    HW243051   4.112   5.908   1.810  1.0914  1.8362 -0.6917
13682SOL     OW43052   0.974   8.259   5.212  0.4840 -0.5624 -0.0911
13682SOL    HW143053   0.946   8.247   5.121  1.5614 -0.3716 -0.4599
13682SOL    HW243054   0.941   8.182   5.257  1.0259 -1.3042 -0.9143
13683SOL     OW43055   3.863   3.139  10.615  0.1451  0.3245  0.0517
13683SOL    HW143056   3.910   3.068  10.660 -0.9554 -0.3034  0.2392
13683SOL    HW243057   3.919   3.215  10.628  1.2970 -0.4714 -0.0476
13684SOL     OW43058   5.501   1.287   2.611 -0.0105 -0.2604  0.1621
13684SOL    HW143059   5.473   1.198   2.587 -0.1722 -0.4335  0.9781
13684SOL    HW243060   5.564   1.274   2.682 -0.0014  0.2752  0.2551
13685SOL     OW43061   5.951   4.828   0.114  0.8905 -0.4048  0.0685
13685SOL    HW143062   5.864   4.865   0.095  1.2372  1.7181  2.0406
13685SOL    HW243063   5.933   4.752   0.170  0.1904  1.9703  3.4074
13686SOL     OW43064   3.839  10.138   1.113  0.8708 -0.5870  0.1043
13686SOL    HW143065   3.754  10.154   1.153  2.0934  0.4943  2.4993
13686SOL    HW243066   3.847  10.042   1.111 -0.4715 -0.7057 -0.3642
13687SOL     OW43067   3.758   6.001   3.941  0.1043  0.2720 -0.1849
13687SOL    HW143068   3.750   5.914   3.978  0.7786  1.0611  1.9779
13687SOL    HW243069   3.852   6.020   3.943 -0.2117  2.2513  2.6120
13688SOL     OW43070   6.448   9.898   1.955  0.4682  0.0334 -0.5832
13688SOL    HW143071   6.365   9.851   1.951 -0.0538  0.7842  0.6836
13688SOL    HW243072   6.492   9.861   2.032  1.3932 -0.4802 -1.3434
13689SOL     OW43073  10.732   0.199   3.406 -0.2131  0.3195 -0.5076
13689SOL    HW143074  10.648   0.158   3.384  0.9282 -1.4846 -1.8525
13689SOL    HW243075  10.731   0.282   3.360 -1.0562  0.0827 -0.9477
13690SOL     OW43076   7.436   2.106   1.981 -0.0972  0.2484 -0.1920
13690SOL    HW143077   7.360   2.047   1.985  1.1604 -1.3988  0.4867
13690SOL    HW243078   7.485   2.076   1.904 -0.8757  2.3425 -1.6141
13691SOL     OW43079   2.134   2.940   2.692  0.1561  0.4039 -0.1661
13691SOL    HW143080   2.219   2.977   2.717  0.4484 -0.3697  0.0007
13691SOL    HW243081   2.144   2.914   2.601  0.5634 -0.9652  0.2437
13692SOL     OW43082  10.554   4.287   8.915  0.6352 -0.4243  0.0819
13692SOL    HW143083  10.623   4.283   8.981  1.7923  1.3278 -0.9150
13692SOL    HW243084  10.523   4.378   8.918 -2.4902 -1.3949  1.2414
13693SOL     OW43085   4.349   8.467   1.201  0.4841  0.6432  0.0828
13693SOL    HW143086   4.418   8.473   1.135  1.3260  0.1443  0.8896
13693SOL    HW243087   4.275   8.514   1.163  1.2715  1.2036 -0.8024
13694SOL     OW43088   5.561   0.224   1.572  0.0075  0.5160 -0.7854
13694SOL    HW143089   5.609   0.267   1.501 -1.1543  0.1732 -1.8156
13694SOL    HW243090   5.498   0.290   1.601 -0.3494  0.2298 -0.9148
13695SOL     OW43091   8.602   1.656   3.976  0.0705  0.4022 -0.3471
13695SOL    HW143092   8.512   1.656   3.942  0.0364  1.5295 -0.3198
13695SOL    HW243093   8.613   1.571   4.017 -1.7016  0.9999  1.5152
13696SOL     OW43094  10.553   5.482   6.081 -0.0001  0.0272 -0.3300
13696SOL    HW143095  10.544   5.483   5.986 -1.4598  0.0288 -0.2091
13696SOL    HW243096  10.600   5.401   6.100  0.5791  0.1801 -1.0693
13697SOL     OW43097   5.375   2.595   2.705  0.0303 -0.6226  0.0230
13697SOL    HW143098   5.414   2.620   2.789 -0.2960 -0.4448  0.1218
13697SOL    HW243099   5.386   2.671   2.649  0.5162 -0.8462 -0.1934
13698SOL     OW43100   8.675   5.361   6.234 -0.2051 -0.2039 -0.1576
13698SOL    HW143101   8.588   5.340   6.268  0.3818 -1.3362  0.6912
13698SOL    HW243102   8.661   5.439   6.180 -1.3746  0.9475  1.7189
13699SOL     OW43103   8.690   0.492   0.024 -0.2979 -0.1306  0.7237
13699SOL    HW143104   8.643   0.428  -0.030  0.8096 -2.2282  2.1226
13699SOL    HW243105   8.764   0.519  -0.030  0.6507 -2.0034  0.9924
13700SOL     OW43106   6.555   9.258   5.469 -0.3337 -0.2500  0.8956
13700SOL    HW143107   6.581   9.168   5.488  0.0944  0.1815  2.5178
13700SOL    HW243108   6.548   9.262   5.374  3.1278 -1.0947  0.4625
13701SOL     OW43109   6.816   1.070   5.721 -0.0515 -0.2994 -0.4737
13701SOL    HW143110   6.797   0.976   5.724  1.0263 -0.6661 -2.6424
13701SOL    HW243111   6.777   1.099   5.638 -0.5430  1.2269  0.2681
13702SOL     OW43112   1.490   6.472   1.183  0.0367  0.1618  0.6033
13702SOL    HW143113   1.499   6.386   1.141 -2.5872 -1.1518  2.4625
13702SOL    HW243114   1.450   6.527   1.116  1.0852 -0.2405 -0.3857
13703SOL     OW43115  10.461   8.385   9.163  0.1283  0.4553 -0.7083
13703SOL    HW143116  10.425   8.471   9.182  0.9138  0.7245 -0.4370
13703SOL    HW243117  10.494   8.392   9.073  3.1433  1.4687  0.3722
13704SOL     OW43118   9.526   9.510   8.263  0.7108  0.1896 -0.3515
13704SOL    HW143119   9.595   9.486   8.200  1.2905 -0.8117  0.6268
13704SOL    HW243120   9.568   9.501   8.349  0.2738  2.5999  0.1923
13705SOL     OW43121   9.566   5.497   7.620 -0.1827 -0.4008 -0.1740
13705SOL    HW143122   9.555   5.572   7.562 -0.9516 -1.2547 -1.1947
13705SOL    HW243123   9.516   5.520   7.699  0.0632  0.3768 -0.2350
13706SOL     OW43124   5.259   1.534   6.002 -0.0380 -0.2023  0.2267
13706SOL    HW143125   5.179   1.554   5.955  0.0096 -1.2381 -0.3397
13706SOL    HW243126   5.252   1.582   6.085 -1.4761 -0.6801  0.4064
13707SOL     OW43127   2.232   5.357   1.666 -0.4973 -0.5243 -0.3356
13707SOL    HW143128   2.220   5.370   1.572  2.7738  0.0768 -0.8003
13707SOL    HW243129   2.267   5.440   1.698 -0.9583 -0.9232  1.3131
13708SOL     OW43130   9.215   3.131  10.675 -0.0725  0.0162 -0.1139
13708SOL    HW143131   9.222   3.197  10.744  3.0908 -0.1240 -0.1825
13708SOL    HW243132   9.250   3.051  10.715 -0.6443 -0.7457 -1.0983
13709SOL     OW43133   4.517   5.660   6.000 -1.2653  0.1935 -0.1242
13709SOL    HW143134   4.563   5.596   5.946  1.4031  1.7119  0.1701
13709SOL    HW243135   4.503   5.735   5.941  1.5393  1.8095  1.0335
13710SOL     OW43136   1.116   1.336   2.237 -0.6443  0.1049  0.6441
13710SOL    HW143137   1.205   1.303   2.227 -0.6676  0.6210 -2.5791
13710SOL    HW243138   1.063   1.281   2.178 -1.6205  2.3565 -0.7475
13711SOL     OW43139   4.517   6.756   9.005  0.2341  0.4758  0.5943
13711SOL    HW143140   4.456   6.829   8.993  1.5699  1.6372  0.6363
13711SOL    HW243141   4.604   6.795   8.997  0.9927 -1.2350 -0.0142
13712SOL     OW43142   6.270   8.347   2.686  0.0675 -0.4676  0.1310
13712SOL    HW143143   6.237   8.258   2.694  0.4588 -0.6796 -0.6018
13712SOL    HW243144   6.358   8.338   2.650 -0.2228  0.2542 -0.8128
13713SOL     OW43145   8.764   6.815   4.204  0.1676 -0.3583  0.2779
13713SOL    HW143146   8.721   6.827   4.289  0.3652  0.3909  0.2779
13713SOL    HW243147   8.839   6.759   4.224  2.4439  2.8126  1.3729
13714SOL     OW43148   6.903   2.475   5.457 -0.2758  0.2948  0.2615
13714SOL    HW143149   6.855   2.417   5.398 -2.4171  1.2217  0.9585
13714SOL    HW243150   6.973   2.421   5.493 -1.2803 -1.4064 -0.2274
13715SOL     OW43151   5.568   7.899   6.739 -0.4131 -0.4508  0.6596
13715SOL    HW143152   5.661   7.903   6.714 -0.4895 -2.0596  0.0056
13715SOL    HW243153   5.542   7.990   6.747  1.1959  0.0434  0.7256
13716SOL     OW43154   1.220   1.055   0.637  0.2029  0.4244 -0.0219
13716SOL    HW143155   1.260   1.027   0.719  1.7008  2.2273 -0.0520
13716SOL    HW243156   1.229   0.980   0.578  1.1491 -0.1178  0.7909
13717SOL     OW43157   2.386   1.306   0.215  0.3530 -0.8318 -0.0328
13717SOL    HW143158   2.364   1.225   0.261 -0.4297 -0.7125 -0.1855
13717SOL    HW243159   2.380   1.374   0.282 -0.4902 -0.7001 -0.2253
13718SOL     OW43160   1.150   8.805   0.386 -0.2040  0.2052 -0.5381
13718SOL    HW143161   1.134   8.899   0.389  1.5775  0.5439  1.7667
13718SOL    HW243162   1.187   8.790   0.299 -1.1008  1.4844 -1.1799
13719SOL     OW43163   9.565   8.439   2.022 -0.1185  0.0951  0.1895
13719SOL    HW143164   9.612   8.433   1.939 -0.3474  1.9175 -0.1201
13719SOL    HW243165   9.558   8.533   2.039 -1.2045 -0.2047  1.6312
13720SOL     OW43166   7.336   9.194   5.262 -0.3135 -0.3056 -0.1477
13720SOL    HW143167   7.324   9.189   5.167 -1.1270  1.5233 -0.1902
13720SOL    HW243168   7.422   9.235   5.274 -0.4432 -0.0478 -0.1005
13721SOL     OW43169   7.918   1.511   8.718  0.3678 -0.6243  0.3247
13721SOL    HW143170   7.963   1.536   8.637  0.2714 -1.3683  0.0270
13721SOL    HW243171   7.968   1.437   8.752 -0.3746 -1.2032  0.2063
13722SOL     OW43172  11.002   3.058   7.551 -0.0368 -0.1126 -0.5883
13722SOL    HW143173  11.010   3.029   7.460  0.8466  1.1638 -0.9434
13722SOL    HW243174  10.962   3.145   7.545  4.1726  2.0968 -0.1986
13723SOL     OW43175   9.188   2.443   3.352  0.4665 -0.4649  0.0743
13723SOL    HW143176   9.231   2.445   3.438 -1.4818  1.6043  1.1027
13723SOL    HW243177   9.235   2.508   3.300 -0.0354  0.2345  0.4841
13724SOL     OW43178   9.593   0.225   6.712 -0.2930 -0.8628  0.1681
13724SOL    HW143179   9.536   0.218   6.788 -0.2510 -0.6327  0.2217
13724SOL    HW243180   9.682   0.210   6.746 -0.1346  0.4551  0.3897
13725SOL     OW43181   5.456   2.216   0.219 -0.3304  0.0335  0.5424
13725SOL    HW143182   5.427   2.235   0.308  1.8272  0.4497  1.2236
13725SOL    HW243183   5.452   2.301   0.174 -1.5937 -0.2099  0.1377
13726SOL     OW43184   0.057   4.944   6.796 -0.1603 -0.6041 -0.0648
13726SOL    HW143185   0.105   4.975   6.873 -0.3557 -1.2524  0.3295
13726SOL    HW243186   0.087   5.000   6.725 -0.9353  0.8606  0.7202
13727SOL     OW43187   9.848   5.215   8.495  0.2673 -0.1988  0.3224
13727SOL    HW143188   9.809   5.176   8.418 -1.0315  0.4410  0.6309
13727SOL    HW243189   9.882   5.141   8.545  1.7949 -0.5744 -1.1702
13728SOL     OW43190   4.622   6.091   7.320  0.0521 -0.2227 -0.2989
13728SOL    HW143191   4.541   6.060   7.360 -0.7678  1.2419 -0.7480
13728SOL    HW243192   4.595   6.125   7.235  0.9015  1.4314  0.0424
13729SOL     OW43193   1.714   6.296   5.100 -0.2723  0.6915  0.0291
13729SOL    HW143194   1.704   6.203   5.119 -0.6844  1.0458  1.7457
13729SOL    HW243195   1.795   6.302   5.050  1.1624 -0.3383  2.0949
13730SOL     OW43196   4.265  10.487  10.650 -0.0864 -0.4257  0.4986
13730SOL    HW143197   4.332  10.422  10.673 -0.3093 -1.3944 -1.3198
13730SOL    HW243198   4.186  10.435  10.635 -0.4645  0.3435 -0.2603
13731SOL     OW43199   7.100   4.115   1.590  0.2391  0.1854  0.4076
13731SOL    HW143200   7.094   4.166   1.509  0.6780  0.0274  0.2730
13731SOL    HW243201   7.194   4.104   1.604  0.1447 -0.9684  0.1951
13732SOL     OW43202   9.754   4.740   7.389  0.4650 -0.1413  0.0893
13732SOL    HW143203   9.762   4.785   7.474  0.9586 -1.4095  0.7472
13732SOL    HW243204   9.713   4.804   7.332  0.8112  1.0160  1.0853
13733SOL     OW43205   3.255   7.123   6.342 -0.0933  0.2192  0.1090
13733SOL    HW143206   3.232   7.044   6.294 -0.0766 -0.2632  0.8932
13733SOL    HW243207   3.319   7.167   6.286  1.4256 -1.3104  0.5571
13734SOL     OW43208  10.615   8.777   5.227 -0.2174  0.2711  0.2850
13734SOL    HW143209  10.689   8.800   5.170  0.1528  0.4074  0.8097
13734SOL    HW243210  10.580   8.861   5.255  0.5159  0.2260  1.4113
13735SOL     OW43211  10.156   2.133   5.125 -0.4327  0.0929 -0.4026
13735SOL    HW143212  10.197   2.066   5.179 -1.0574  0.0925  0.0855
13735SOL    HW243213  10.112   2.190   5.188  0.4224  1.1947 -0.7780
13736SOL     OW43214  10.876   8.615   5.195 -0.1751 -0.0463 -0.2009
13736SOL    HW143215  10.809   8.603   5.128 -1.9853  0.9087  1.3627
13736SOL    HW243216  10.891   8.709   5.198 -3.1849  0.5327  3.4130
13737SOL     OW43217   0.932   5.081   1.101  0.1924 -0.4430 -0.0675
13737SOL    HW143218   0.926   5.016   1.171 -0.1488  0.3060  0.6147
13737SOL    HW243219   0.844   5.119   1.095  0.2956 -0.2907 -0.6972
13738SOL     OW43220   9.328   2.610   5.272 -0.6019 -0.3899  0.3800
13738SOL    HW143221   9.330   2.604   5.368 -1.5790 -0.4493  0.4043
13738SOL    HW243222   9.334   2.703   5.254 -0.1974 -0.3924  0.4874
13739SOL     OW43223   7.815   1.077   6.524  0.0247 -0.0408  0.3995
13739SOL    HW143224   7.724   1.103   6.536 -0.2947 -0.6194 -0.5914
13739SOL    HW243225   7.843   1.120   6.443  0.8149  0.5691  0.9784
13740SOL     OW43226   0.576   1.309   5.728 -0.0602  0.0767  0.1248
13740SOL    HW143227   0.655   1.268   5.762 -0.6864 -2.6133 -1.3587
13740SOL    HW243228   0.506   1.248   5.750 -1.1092  0.4353 -1.9345
13741SOL     OW43229   9.370   8.239   7.724 -0.1729 -0.0187 -0.0737
13741SOL    HW143230   9.353   8.227   7.631  3.7927  0.5182 -1.0825
13741SOL    HW243231   9.355   8.332   7.739  0.3473  0.1554 -0.5556
13742SOL     OW43232   4.013   4.109   6.568  0.3955 -0.0609 -0.5136
13742SOL    HW143233   3.937   4.160   6.540  0.1799  0.3311  0.7098
13742SOL    HW243234   3.976   4.024   6.595  0.0378  0.7938  1.9911
13743SOL     OW43235  10.508   9.037   8.572  0.3617 -0.3159 -0.3975
13743SOL    HW143236  10.446   8.983   8.621  2.3945 -2.4157  0.0469
13743SOL    HW243237  10.510   9.120   8.618  1.5257 -1.9025  2.6653
13744SOL     OW43238   6.427   4.212   0.774 -0.0081  0.3421  0.2200
13744SOL    HW143239   6.438   4.156   0.696  0.1910 -0.4276  0.7853
13744SOL    HW243240   6.516   4.221   0.808 -0.3221 -1.0792  1.5307
13745SOL     OW43241   1.584   4.403   0.095 -0.0751 -0.6080  0.3434
13745SOL    HW143242   1.599   4.446   0.179  0.8008 -1.2637  0.5445
13745SOL    HW243243   1.500   4.358   0.105  0.7655 -2.0253  1.4824
13746SOL     OW43244   1.689   4.829   7.250 -0.3364 -0.4598  0.2143
13746SOL    HW143245   1.629   4.827   7.176 -0.6352  0.6354  0.4083
13746SOL    HW243246   1.775   4.809   7.213 -0.8395 -2.2659 -0.0282
13747SOL     OW43247  10.075   0.035   6.118 -0.2349  0.4687  0.1683
13747SOL    HW143248  10.071  -0.025   6.043 -2.0823 -0.0098  0.6175
13747SOL    HW243249  10.119   0.112   6.083 -1.2436  0.3436 -1.5093
13748SOL     OW43250   9.620   9.028   0.158  0.4647  0.0962  0.4042
13748SOL    HW143251   9.553   9.088   0.125 -1.0475 -0.7285  1.8464
13748SOL    HW243252   9.609   9.030   0.253  0.8330 -1.9213  0.5291
13749SOL     OW43253   4.633   7.707   5.630  0.1344 -0.5626 -0.0299
13749SOL    HW143254   4.551   7.742   5.594  0.5817  0.6773  0.0867
13749SOL    HW243255   4.605   7.652   5.703 -0.6092 -0.2803 -0.0847
13750SOL     OW43256   8.061   6.606   3.828 -0.1566  0.3457 -0.3502
13750SOL    HW143257   8.010   6.544   3.775 -0.6408  1.1619 -0.8601
13750SOL    HW243258   8.113   6.655   3.765 -0.3604  0.9869 -0.0354
13751SOL     OW43259   0.429   2.268   7.315 -0.3285  0.1056 -0.4533
13751SOL    HW143260   0.349   2.219   7.299  0.3757 -0.4502 -2.4708
13751SOL    HW243261   0.500   2.205   7.302  0.5310  1.2242 -1.4005
13752SOL     OW43262   3.290   6.320   8.296  0.0627  0.0614  0.1714
13752SOL    HW143263   3.275   6.386   8.228  2.1986 -1.4133 -1.8497
13752SOL    HW243264   3.385   6.320   8.309 -0.1469 -0.8569  2.0285
13753SOL     OW43265   8.318  10.251   0.211 -0.2735 -0.7044  0.8379
13753SOL    HW143266   8.271  10.179   0.253 -2.0350  1.1743  2.3313
13753SOL    HW243267   8.261  10.278   0.139  0.6492 -1.1348 -0.0763
13754SOL     OW43268   2.512   9.948   3.002 -0.2584 -0.2575 -0.2520
13754SOL    HW143269   2.476  10.035   3.020 -0.3066  0.1160 -1.9666
13754SOL    HW243270   2.448   9.908   2.943 -0.6967 -1.8454  1.2017
13755SOL     OW43271   7.568   2.362   8.105  0.2873  0.0945 -0.1147
13755SOL    HW143272   7.579   2.328   8.194  1.6898  0.1459 -0.2468
13755SOL    HW243273   7.638   2.427   8.095  0.9118 -0.7662 -1.6692
13756SOL     OW43274   7.006   0.357   3.278 -0.2552  0.5909 -0.0168
13756SOL    HW143275   7.089   0.388   3.244  0.7711 -1.2843  0.6555
13756SOL    HW243276   6.945   0.366   3.205  1.1118 -0.2292 -1.2927
13757SOL     OW43277   2.939   3.414   0.214 -0.2429  0.0786  0.7160
13757SOL    HW143278   3.012   3.465   0.249 -0.3773  0.5668  0.3002
13757SOL    HW243279   2.881   3.479   0.175  1.3369 -0.5874 -3.1701
13758SOL     OW43280   3.696   1.571   4.317  0.3149 -0.0523 -0.3282
13758SOL    HW143281   3.788   1.552   4.301  0.2682 -2.5358  1.6005
13758SOL    HW243282   3.665   1.616   4.238  2.8393 -0.3288 -1.5451
13759SOL     OW43283   8.340   0.898  10.289  0.5480  0.3173  0.5936
13759SOL    HW143284   8.297   0.953  10.354 -0.3140  1.5583 -0.9692
13759SOL    HW243285   8.430   0.931  10.286  0.4056  0.7101  0.6398
13760SOL     OW43286   4.586   2.729   5.557 -0.6095  0.0695 -0.0992
13760SOL    HW143287   4.619   2.814   5.530 -1.5924  0.9121  1.2203
13760SOL    HW243288   4.491   2.735   5.547 -0.9299  0.0382  2.2406
13761SOL     OW43289   4.814   2.905   2.650 -0.4839 -0.5730 -0.2977
13761SOL    HW143290   4.812   2.971   2.580 -0.5086 -0.9130 -0.6240
13761SOL    HW243291   4.896   2.922   2.697 -1.3254  0.8195  0.7427
13762SOL     OW43292   4.143   2.225   9.590 -0.3291 -0.1317 -0.1404
13762SOL    HW143293   4.185   2.177   9.662 -0.1585  0.1030 -0.0826
13762SOL    HW243294   4.061   2.256   9.627 -0.1533  0.1545  0.0146
13763SOL     OW43295   0.597  10.911   7.264 -0.1825  0.4221 -0.1332
13763SOL    HW143296   0.664  10.862   7.215 -1.0074  0.0750 -0.9430
13763SOL    HW243297   0.608  10.881   7.354  0.8223  0.4497 -0.2308
13764SOL     OW43298   9.067   7.899   6.827  0.0309  0.8151 -0.4898
13764SOL    HW143299   9.022   7.929   6.749  1.5655  1.3061 -1.2291
13764SOL    HW243300   9.140   7.960   6.838  0.7789 -0.1813  0.3976
13765SOL     OW43301   4.844   0.151   6.302  0.5155  0.0003  0.3412
13765SOL    HW143302   4.916   0.089   6.291  1.7074  1.2383  0.9205
13765SOL    HW243303   4.873   0.211   6.371 -0.1755  1.7770 -0.8172
13766SOL     OW43304   4.740   9.198  10.717 -0.2113  0.0709 -0.2642
13766SOL    HW143305   4.648   9.213  10.695 -0.6294  0.9469  1.8638
13766SOL    HW243306   4.739   9.132  10.786  0.5223  1.6886  1.3986
13767SOL     OW43307   5.515   0.092   6.213 -0.8318 -0.2474 -0.1029
13767SOL    HW143308   5.580   0.157   6.187 -0.1157 -0.2177  1.6353
13767SOL    HW243309   5.432   0.141   6.216 -1.0271 -0.3186 -2.4554
13768SOL     OW43310   7.123   6.369   6.689  0.3627  0.7065  0.5604
13768SOL    HW143311   7.218   6.363   6.675  0.5948  1.3148  1.7286
13768SOL    HW243312   7.111   6.353   6.783 -0.6127  1.3152  0.5576
13769SOL     OW43313   2.459   8.906   6.694  0.3620  0.2461 -0.1675
13769SOL    HW143314   2.410   8.855   6.758  1.0782 -2.2348 -1.4624
13769SOL    HW243315   2.515   8.963   6.747 -0.3631 -0.4075  1.3617
13770SOL     OW43316   3.954   6.568   2.962  0.0501 -0.0111 -0.5122
13770SOL    HW143317   4.010   6.500   3.000  0.2161  0.0785 -0.5935
13770SOL    HW243318   3.948   6.545   2.869 -4.7114 -3.3826  0.2485
13771SOL     OW43319  10.234   6.939   0.041 -0.1223 -0.0255  0.3642
13771SOL    HW143320  10.237   6.866  -0.020  1.5939  0.4599 -0.2053
13771SOL    HW243321  10.174   6.910   0.110  1.1398 -2.3557  0.6122
13772SOL     OW43322   2.435   8.079   1.961 -0.2216 -0.3125  0.3412
13772SOL    HW143323   2.493   8.140   2.006 -1.4978  0.9043  0.4014
13772SOL    HW243324   2.433   8.111   1.870 -0.1820 -0.8271  0.1548
13773SOL     OW43325   8.956   7.814   2.615  0.6813 -0.0152 -0.5635
13773SOL    HW143326   9.028   7.818   2.678  0.3241 -2.1770  0.0603
13773SOL    HW243327   8.940   7.905   2.592  1.7532  0.7486  1.4234
13774SOL     OW43328   2.736   0.417   1.470  0.0857  0.7348 -0.4100
13774SOL    HW143329   2.811   0.468   1.500  0.3971 -0.1254  0.2862
13774SOL    HW243330   2.672   0.424   1.541  0.2935 -0.1777 -0.1224
13775SOL     OW43331   0.577   5.212   9.686  0.0506 -0.6239  0.5119
13775SOL    HW143332   0.557   5.305   9.696 -1.7133 -1.0005  0.8625
13775SOL    HW243333   0.597   5.202   9.593  1.6974  0.3338  0.7382
13776SOL     OW43334   5.244   1.845   8.888 -0.3275  0.1890  0.2894
13776SOL    HW143335   5.178   1.884   8.945 -0.7762 -1.4272  0.9406
13776SOL    HW243336   5.195   1.798   8.821  0.2013  1.1258 -0.7942
13777SOL     OW43337   3.292   6.191   1.285  0.2127  0.2797  0.2473
13777SOL    HW143338   3.258   6.264   1.337  1.4935  0.4892  0.8252
13777SOL    HW243339   3.215   6.138   1.264 -0.2729 -0.2493  3.0226
13778SOL     OW43340   5.141   6.381   3.298 -0.1575  0.2730  0.4045
13778SOL    HW143341   5.177   6.385   3.210 -0.6005  2.7750  0.2619
13778SOL    HW243342   5.212   6.347   3.352  1.3733  2.0780 -0.3701
13779SOL     OW43343   6.740   1.201   5.231 -0.2967  0.3208  0.0147
13779SOL    HW143344   6.679   1.136   5.197  0.3412 -0.5647  0.5041
13779SOL    HW243345   6.713   1.215   5.321 -0.2096  0.4415  0.0220
13780SOL     OW43346  10.483   3.861   5.877  0.1347 -0.1439 -0.4407
13780SOL    HW143347  10.438   3.876   5.794  0.4568  1.6993 -0.3202
13780SOL    HW243348  10.524   3.945   5.898  0.2405 -0.6263  1.4779
13781SOL     OW43349   7.570   5.990   9.691  0.4471 -0.7092  0.3713
13781SOL    HW143350   7.495   5.991   9.631 -0.4004  0.2047  1.3982
13781SOL    HW243351   7.631   5.928   9.652  0.3328  0.4898 -1.9079
13782SOL     OW43352   2.800   3.661   5.273  0.2483  0.4991 -0.5508
13782SOL    HW143353   2.802   3.585   5.214 -2.8253  0.5405 -0.8664
13782SOL    HW243354   2.734   3.639   5.338 -0.3884  2.6871 -0.3862
13783SOL     OW43355  10.457   5.960  10.352  0.7575  0.0614 -0.1711
13783SOL    HW143356  10.486   6.041  10.394 -1.7604  1.9863 -1.8685
13783SOL    HW243357  10.435   5.902  10.424  0.0972  1.8888  1.1732
13784SOL     OW43358   2.995   9.875   1.216  0.0487  0.0480  0.4117
13784SOL    HW143359   3.033   9.951   1.260  0.3558 -0.3341  0.8200
13784SOL    HW243360   3.069   9.832   1.173 -0.4380  1.1451 -1.6255
13785SOL     OW43361   6.360   3.758   1.840  0.0283  0.1192 -0.1449
13785SOL    HW143362   6.307   3.827   1.801 -1.5628 -0.5531  0.7245
13785SOL    HW243363   6.347   3.769   1.935  0.9492 -0.4519  0.0614
13786SOL     OW43364   5.641   8.474  10.998 -0.8433 -0.0544 -1.0777
13786SOL    HW143365   5.551   8.440  11.001 -0.5863 -0.6616  0.2422
13786SOL    HW243366   5.656   8.512  11.084  1.3543 -3.1837  0.0801
13787SOL     OW43367   8.655   1.746   6.871 -0.1619  0.4475 -0.5812
13787SOL    HW143368   8.588   1.814   6.875 -0.6073 -0.0414  0.3731
13787SOL    HW243369   8.617   1.679   6.814  0.1015  0.7933 -1.1731
13788SOL     OW43370   8.283   1.245   5.549  0.3675 -0.3865 -0.2669
13788SOL    HW143371   8.204   1.299   5.545  1.4746  1.4208  1.1633
13788SOL    HW243372   8.289   1.206   5.462 -0.5548  1.7175 -1.3531
13789SOL     OW43373   8.262   8.416   1.699  0.6439  0.4263 -0.4988
13789SOL    HW143374   8.335   8.411   1.761  1.2544  0.7222 -1.1750
13789SOL    HW243375   8.184   8.403   1.753  1.0549  1.9933  0.5702
13790SOL     OW43376   4.316   1.083   6.853  0.3313 -0.0600 -0.6748
13790SOL    HW143377   4.224   1.078   6.828  0.7683  2.0436 -3.1466
13790SOL    HW243378   4.361   1.029   6.788  0.9441 -0.1350 -0.2006
13791SOL     OW43379   7.290   4.365   7.781  0.3508 -0.0548  0.0061
13791SOL    HW143380   7.355   4.428   7.750 -0.0028  0.9846  1.2925
13791SOL    HW243381   7.334   4.280   7.778  0.9322  0.2825 -1.4774
13792SOL     OW43382  10.931   4.026   8.808 -0.4381  0.7027  0.3607
13792SOL    HW143383  10.953   4.093   8.873 -2.1322  1.6205  0.0629
13792SOL    HW243384  10.839   4.006   8.825 -1.0126  1.1250 -1.8481
13793SOL     OW43385   6.148   6.235   1.191 -0.1604  0.1441  0.2939
13793SOL    HW143386   6.218   6.290   1.226 -0.5752  0.8919 -0.0503
13793SOL    HW243387   6.110   6.285   1.119 -0.4540 -0.6485 -0.1217
13794SOL     OW43388  10.785   1.392   2.715  0.2334  0.0518  0.3183
13794SOL    HW143389  10.793   1.307   2.758  0.5683  0.0962  0.3492
13794SOL    HW243390  10.691   1.403   2.700  0.0235  0.3800  1.7294
13795SOL     OW43391   4.438  11.021   0.709  0.1223 -0.3957  0.1956
13795SOL    HW143392   4.352  11.015   0.749  0.2004 -0.3995  0.3635
13795SOL    HW243393   4.479  11.097   0.750 -0.2663  0.3573 -0.7856
13796SOL     OW43394   3.322  10.275   3.240 -0.7787 -0.5619 -0.1792
13796SOL    HW143395   3.290  10.287   3.329 -1.5973 -0.4876 -0.4770
13796SOL    HW243396   3.250  10.304   3.184  0.4004  1.2338 -0.8834
13797SOL     OW43397   4.811   2.686   4.712  0.1403 -0.1574  0.3664
13797SOL    HW143398   4.814   2.768   4.761  0.6456 -0.5711  1.0255
13797SOL    HW243399   4.766   2.710   4.630 -2.5733  0.1086  1.8102
13798SOL     OW43400   7.420   8.771   3.649  0.0209  0.5279  0.0458
13798SOL    HW143401   7.378   8.719   3.582 -0.2495 -1.4582  1.6593
13798SOL    HW243402   7.390   8.861   3.632  0.1015  0.1381 -2.5122
13799SOL     OW43403   0.307   8.700   4.599  0.1328  0.5414 -0.3242
13799SOL    HW143404   0.318   8.605   4.590  0.1218  0.5871 -0.8502
13799SOL    HW243405   0.267   8.711   4.685 -0.0761  0.0493 -0.3512
13800SOL     OW43406   3.010  10.194   7.188  0.0968  0.1114 -0.0576
13800SOL    HW143407   3.008  10.174   7.094 -0.6435 -1.0845  0.1955
13800SOL    HW243408   2.935  10.147   7.225  0.3596  0.5852  1.1348
13801SOL     OW43409   5.970   3.645   2.187  0.7184  0.5606 -0.2528
13801SOL    HW143410   5.978   3.596   2.105  0.6812  0.8390 -0.4248
13801SOL    HW243411   5.882   3.684   2.183  0.9227  1.0205 -0.3328
13802SOL     OW43412   2.099   1.615  10.683  0.4820 -0.5758 -0.1298
13802SOL    HW143413   2.190   1.635  10.660  0.6994 -0.8068  0.5063
13802SOL    HW243414   2.050   1.632  10.603  0.9978  0.1608 -0.3053
13803SOL     OW43415   9.798   2.167  10.575 -0.1218  0.6397 -0.2569
13803SOL    HW143416   9.848   2.154  10.494 -0.3097 -1.3586 -0.1176
13803SOL    HW243417   9.737   2.238  10.555  0.4623  0.8081 -1.5495
13804SOL     OW43418   3.967   5.029   5.267  0.3013  1.0350  0.5803
13804SOL    HW143419   4.037   5.009   5.205 -0.1220 -2.0158  0.9454
13804SOL    HW243420   4.011   5.071   5.341  1.2788  1.7195 -0.3569
13805SOL     OW43421   2.738   8.706   3.441  0.0330  0.4119 -0.2316
13805SOL    HW143422   2.690   8.755   3.374 -0.7809  0.9104  0.7041
13805SOL    HW243423   2.697   8.731   3.524 -1.3220 -2.7977  0.2260
13806SOL     OW43424   0.762   2.730   4.835  0.1639 -0.2036 -0.3264
13806SOL    HW143425   0.807   2.680   4.766 -1.3032  0.1703 -1.6033
13806SOL    HW243426   0.669   2.713   4.820 -0.2668  1.3200  0.4516
13807SOL     OW43427   3.535   7.167   9.094 -0.7050 -0.2702  0.2741
13807SOL    HW143428   3.453   7.211   9.114 -0.0020  1.3683 -0.2560
13807SOL    HW243429   3.528   7.142   9.002 -0.5240  0.1174  0.1504
13808SOL     OW43430   4.047   6.874   3.627  0.3314 -0.0712 -0.1350
13808SOL    HW143431   4.017   6.791   3.665  1.3473 -0.2936  0.2326
13808SOL    HW243432   3.985   6.892   3.557 -1.8828  0.5692  1.8645
13809SOL     OW43433  10.562   2.390   8.128  0.3176 -0.1034  0.8341
13809SOL    HW143434  10.626   2.453   8.160 -0.0569  0.3686  0.6626
13809SOL    HW243435  10.532   2.345   8.207 -1.4222  1.8209  1.3402
13810SOL     OW43436   3.837   4.387   1.010  0.6237  0.2932  0.3368
13810SOL    HW143437   3.769   4.375   1.077  0.8454  0.6372  0.6267
13810SOL    HW243438   3.916   4.408   1.059  1.0908 -0.6942  0.0351
13811SOL     OW43439   4.583   2.511   1.410 -0.4510 -0.0295  0.3962
13811SOL    HW143440   4.631   2.442   1.456 -0.2330 -1.1533 -1.4307
13811SOL    HW243441   4.600   2.495   1.318 -2.3577  1.0301 -0.1935
13812SOL     OW43442   4.069   7.142   8.781 -0.0438 -0.2744  0.1962
13812SOL    HW143443   4.165   7.139   8.786 -0.0108 -0.5929 -0.4374
13812SOL    HW243444   4.040   7.150   8.872  0.5853 -0.1501  0.3901
13813SOL     OW43445   1.902   9.425   4.152 -0.1705 -0.2856  0.6222
13813SOL    HW143446   1.940   9.342   4.183  0.2284  0.3449  1.9072
13813SOL    HW243447   1.977   9.474   4.119 -0.1849  0.0903  1.1327
13814SOL     OW43448  10.398   0.263   1.969  0.2705  0.2669 -0.1675
13814SOL    HW143449  10.439   0.177   1.967 -1.4337 -0.5931  0.2665
13814SOL    HW243450  10.375   0.281   1.877 -0.1188 -0.1231 -0.1472
13815SOL     OW43451   9.609   8.398   8.324 -0.7742  0.1392  0.4681
13815SOL    HW143452   9.524   8.414   8.282 -0.6884  2.3021  1.0045
13815SOL    HW243453   9.592   8.413   8.417 -0.2157 -1.4086  0.8551
13816SOL     OW43454   8.348   4.124   1.877 -0.1945 -0.6699 -0.5170
13816SOL    HW143455   8.433   4.151   1.842  0.0643 -0.2377  0.3971
13816SOL    HW243456   8.367   4.098   1.968 -1.1950  0.4618  0.0511
13817SOL     OW43457  10.295   2.642   7.710  0.0538  0.1211  0.1522
13817SOL    HW143458  10.286   2.675   7.620  0.9369  1.1386  0.4073
13817SOL    HW243459  10.210   2.658   7.750 -1.3896 -3.0881 -1.2999
13818SOL     OW43460   5.705   5.921   2.309  0.0894  0.0981  0.1448
13818SOL    HW143461   5.617   5.894   2.334 -0.9267  1.9913 -1.1130
13818SOL    HW243462   5.691   5.996   2.251  2.5671  1.1227  0.7418
13819SOL     OW43463   0.676   2.632   1.814  0.9969  0.0741  0.6307
13819SOL    HW143464   0.610   2.623   1.882  1.1720 -0.2262  0.7600
13819SOL    HW243465   0.678   2.726   1.795  1.1863  0.2012  1.2725
13820SOL     OW43466   1.840   5.492   2.042  0.3414  0.2181 -0.2310
13820SOL    HW143467   1.888   5.432   1.986  0.1203  2.6742 -3.3100
13820SOL    HW243468   1.901   5.564   2.059 -0.5660  0.9223  0.1994
13821SOL     OW43469   4.727   0.080   3.091  0.1575 -0.6301  0.0669
13821SOL    HW143470   4.750   0.172   3.099  0.0009 -0.5117 -0.7266
13821SOL    HW243471   4.797   0.033   3.136  1.0965 -0.1974 -0.8910
13822SOL     OW43472   4.307   2.058   0.858 -0.2985 -0.2356 -0.1063
13822SOL    HW143473   4.365   1.983   0.844  0.5307  0.5473 -1.0592
13822SOL    HW243474   4.364   2.127   0.891 -0.2708  1.0615 -2.5754
13823SOL     OW43475   4.385  10.441   2.911  0.3102  0.1189 -0.2507
13823SOL    HW143476   4.316  10.391   2.955  1.4274 -0.2345  1.1604
13823SOL    HW243477   4.338  10.510   2.864 -0.9985 -0.0927  0.6927
13824SOL     OW43478   7.647   8.653   1.375  0.3529  0.2643  0.5009
13824SOL    HW143479   7.573   8.674   1.434 -0.9275  0.3144 -1.0629
13824SOL    HW243480   7.617   8.577   1.325  1.7574 -0.2947  0.4796
13825SOL     OW43481   4.924   2.310   5.692 -0.3248  0.7963  0.4916
13825SOL    HW143482   4.946   2.270   5.776 -0.3887 -0.9722 -0.2964
13825SOL    HW243483   4.849   2.367   5.711 -0.4379  0.2939  1.6034
13826SOL     OW43484   4.048   6.499  10.803 -0.7247  0.1504 -0.3784
13826SOL    HW143485   4.097   6.523  10.881  0.9681 -1.0775 -0.9965
13826SOL    HW243486   4.091   6.545  10.731 -1.1964 -0.0573 -0.8072
13827SOL     OW43487   1.144   5.072   4.222  0.2751 -0.2616  0.4873
13827SOL    HW143488   1.187   5.001   4.270 -0.4411 -2.1736 -1.5243
13827SOL    HW243489   1.217   5.119   4.179  0.7141 -0.0435  1.4389
13828SOL     OW43490   6.852   5.194   4.139  0.0157  0.1647  0.2319
13828SOL    HW143491   6.803   5.158   4.065  0.1130 -0.3321  0.4081
13828SOL    HW243492   6.913   5.257   4.099  0.5160 -0.5728 -0.1809
13829SOL     OW43493   3.668   8.359   6.953  0.1466  0.1821 -0.0007
13829SOL    HW143494   3.712   8.436   6.916  0.5892  0.2791  0.7021
13829SOL    HW243495   3.728   8.287   6.934  0.7775  0.3571  1.2017
13830SOL     OW43496   0.246   1.833   5.251 -0.6242 -0.7197 -0.3656
13830SOL    HW143497   0.304   1.798   5.184  0.3728  1.8650 -0.9947
13830SOL    HW243498   0.304   1.858   5.323 -1.2527 -0.3793  0.0308
13831SOL     OW43499   6.252   3.907   7.015  1.0525 -0.5967  0.1981
13831SOL    HW143500   6.218   3.995   7.036  1.5748 -0.5962  1.1208
13831SOL    HW243501   6.235   3.856   7.095  2.3578 -0.8400  0.3323
13832SOL     OW43502   8.845   6.982   4.827 -0.5760 -0.0775 -0.1205
13832SOL    HW143503   8.934   6.951   4.816 -0.0314  1.2962  0.1604
13832SOL    HW243504   8.809   6.930   4.899 -0.0200 -0.6753 -0.2772
13833SOL     OW43505   5.628   1.667   4.361 -0.0910  0.3741  0.0195
13833SOL    HW143506   5.655   1.609   4.289  0.5703 -0.4381  0.8869
13833SOL    HW243507   5.610   1.751   4.319 -1.2843 -0.5024 -1.3126
13834SOL     OW43508   7.575   5.943   9.996 -0.2342 -0.1159  0.1829
13834SOL    HW143509   7.565   5.949   9.901 -1.5977  2.9645  0.3819
13834SOL    HW243510   7.666   5.968  10.013 -0.8831  2.8823 -0.2420
13835SOL     OW43511   5.058   6.084   0.226 -0.2641  0.3480 -0.0283
13835SOL    HW143512   5.011   6.068   0.144  1.2028  2.0716 -1.2581
13835SOL    HW243513   5.130   6.022   0.225 -0.6312 -0.0970  0.3202
13836SOL     OW43514   0.751   3.672   6.301  0.2071  0.2826  0.0292
13836SOL    HW143515   0.704   3.753   6.284 -0.4705  0.0341  0.6763
13836SOL    HW243516   0.720   3.644   6.387  3.1193  1.2497  1.5671
13837SOL     OW43517   6.034   8.313   3.568 -0.1877  0.3550  0.2179
13837SOL    HW143518   6.112   8.260   3.582  0.3494  0.9904 -0.2492
13837SOL    HW243519   6.069   8.400   3.546 -1.0193  0.4865 -0.6136
13838SOL     OW43520   3.150   7.637   0.658  0.3913 -0.1375  0.1358
13838SOL    HW143521   3.101   7.614   0.579  2.1246 -0.4263 -0.9192
13838SOL    HW243522   3.147   7.732   0.661  1.9445  0.0170 -1.4476
13839SOL     OW43523  10.478   0.411   8.562  0.2715 -0.4870 -0.4793
13839SOL    HW143524  10.502   0.372   8.478  0.0280 -0.0729 -0.7456
13839SOL    HW243525  10.421   0.484   8.539 -1.6912 -1.7438  0.1562
13840SOL     OW43526   8.625   2.284   1.873 -0.1778 -0.5742  0.6206
13840SOL    HW143527   8.697   2.229   1.903 -0.0770  0.2430  1.9288
13840SOL    HW243528   8.612   2.258   1.782  3.5973  1.0770 -0.6136
13841SOL     OW43529   2.615   2.359   1.733  0.2661  0.3023  0.3443
13841SOL    HW143530   2.620   2.453   1.753 -1.8876  0.6008 -0.2940
13841SOL    HW243531   2.555   2.353   1.659  0.0995 -1.6209  0.5785
13842SOL     OW43532   4.305   4.371   4.612  0.8415  0.2147  0.1127
13842SOL    HW143533   4.346   4.311   4.674 -0.3764 -0.7388  0.0351
13842SOL    HW243534   4.314   4.457   4.652 -0.0904 -0.3939  1.7435
13843SOL     OW43535   8.001   8.452   5.505  0.2129  0.6010  0.1285
13843SOL    HW143536   7.940   8.460   5.432  1.0367  0.6185 -0.5827
13843SOL    HW243537   8.037   8.540   5.516  1.8031  0.1383 -1.0046
13844SOL     OW43538   1.931   0.302  10.552  0.4115 -0.0103 -0.1890
13844SOL    HW143539   2.003   0.287  10.613  0.6635  1.3560 -0.1133
13844SOL    HW243540   1.852   0.286  10.604  0.6202 -1.5758 -0.2892
13845SOL     OW43541   0.788  10.825   0.203  0.0130  0.2229  0.4331
13845SOL    HW143542   0.725  10.894   0.182  0.7136  0.1318 -2.3625
13845SOL    HW243543   0.735  10.745   0.208 -0.2165  0.1241 -2.0175
13846SOL     OW43544   2.867   2.714   7.509  0.1139  0.1649  0.2195
13846SOL    HW143545   2.820   2.639   7.543 -0.1220 -0.3849 -1.2388
13846SOL    HW243546   2.863   2.779   7.579 -0.3709 -0.8778  1.1927
13847SOL     OW43547  10.593   4.228   5.698 -0.1078 -0.0819  0.1549
13847SOL    HW143548  10.622   4.320   5.700 -0.9154  0.1786  0.1154
13847SOL    HW243549  10.572   4.207   5.788 -0.1702 -0.1534  0.1234
13848SOL     OW43550   9.481   0.351   0.670  0.1199  0.0409  1.1056
13848SOL    HW143551   9.535   0.429   0.663  1.1422 -0.7800 -1.2395
13848SOL    HW243552   9.417   0.360   0.598 -1.1220 -0.3063  2.1231
13849SOL     OW43553   9.496   3.688   5.962 -0.3946 -0.0671 -0.0792
13849SOL    HW143554   9.560   3.635   6.009 -0.3549  0.3685  0.3690
13849SOL    HW243555   9.492   3.649   5.875  1.4885  0.7344 -0.5538
13850SOL     OW43556   0.664   3.969   3.132 -0.2668  0.3278  0.0546
13850SOL    HW143557   0.573   3.942   3.144 -0.6292  0.8418 -1.3576
13850SOL    HW243558   0.659   4.041   3.069  1.2591 -0.7069 -1.3062
13851SOL     OW43559   5.755   9.270   9.771 -0.3665  0.5260  0.1856
13851SOL    HW143560   5.737   9.218   9.849 -0.7132 -0.9132 -0.8110
13851SOL    HW243561   5.847   9.295   9.780 -0.7765  1.6278  1.7309
13852SOL     OW43562   7.367   1.104   1.026 -0.1594  0.4574 -0.2850
13852SOL    HW143563   7.353   1.009   1.028  0.9552  0.2465 -1.1223
13852SOL    HW243564   7.279   1.141   1.036 -0.5952 -0.6507  0.2499
13853SOL     OW43565   6.349   6.465   4.157 -0.2921 -0.2144  0.4631
13853SOL    HW143566   6.444   6.458   4.161 -0.2290  1.0259  1.9123
13853SOL    HW243567   6.317   6.400   4.219 -0.3090  0.3619  1.0774
13854SOL     OW43568  10.269  10.128   0.989  0.1335  0.3405 -1.0222
13854SOL    HW143569  10.229  10.045   1.015  1.9642  0.1220  1.4598
13854SOL    HW243570  10.318  10.107   0.910 -1.6278 -0.2013 -2.0404
13855SOL     OW43571   1.461   0.734   6.122  0.4651  0.3665 -0.0025
13855SOL    HW143572   1.376   0.776   6.112 -0.1437 -0.6876  0.6382
13855SOL    HW243573   1.469   0.716   6.216  1.3213  0.2757 -0.0778
13856SOL     OW43574   8.130   8.431   1.041 -0.3287 -0.5745 -0.0863
13856SOL    HW143575   8.226   8.434   1.039 -0.3153 -0.1708  0.6579
13856SOL    HW243576   8.109   8.407   1.132 -0.9262 -1.1825 -0.3740
13857SOL     OW43577   4.160   7.025   4.825  0.0434  0.6331 -0.3530
13857SOL    HW143578   4.122   6.962   4.764  0.8157  0.3821 -0.5953
13857SOL    HW243579   4.177   7.103   4.772  0.0407  0.6729 -0.2952
13858SOL     OW43580   1.500   6.248   8.302  0.3436 -0.0763  0.4737
13858SOL    HW143581   1.535   6.217   8.385  1.1669  0.6647  0.4236
13858SOL    HW243582   1.505   6.344   8.308 -0.6388  0.0135  0.0129
13859SOL     OW43583   8.363   1.957   1.432 -0.4579 -1.1263  0.3647
13859SOL    HW143584   8.364   1.861   1.427 -0.3493 -1.1067  0.0228
13859SOL    HW243585   8.450   1.980   1.466 -0.1284 -1.0975 -0.4829
13860SOL     OW43586  10.739   8.689   8.723  0.4841  0.5122 -0.1385
13860SOL    HW143587  10.833   8.704   8.729  0.8332 -0.8222 -1.6095
13860SOL    HW243588  10.713   8.730   8.641 -0.4720  1.8481  0.7823
13861SOL     OW43589   2.163   7.305   1.241  0.4553 -0.7035 -0.0299
13861SOL    HW143590   2.224   7.349   1.182 -0.3894 -2.2924 -2.2115
13861SOL    HW243591   2.076   7.326   1.207 -0.1060 -0.9813  1.1681
13862SOL     OW43592   9.988   9.429   4.074 -0.3729 -0.5628 -0.1105
13862SOL    HW143593   9.904   9.475   4.074 -0.1579 -0.0345  2.5486
13862SOL    HW243594   9.983   9.371   4.150  0.1217 -3.6598 -2.2658
13863SOL     OW43595   2.518   3.098   4.734  0.1611 -0.1183 -0.1290
13863SOL    HW143596   2.439   3.090   4.681  0.0986 -0.0430 -0.0473
13863SOL    HW243597   2.549   3.187   4.716 -0.7008  0.4583  1.1351
13864SOL     OW43598   3.461   4.378   1.451  0.1864 -0.4485  0.1826
13864SOL    HW143599   3.470   4.300   1.505 -0.6532 -0.6852  0.0028
13864SOL    HW243600   3.545   4.387   1.406 -0.5856 -2.9603 -2.0770
13865SOL     OW43601   8.566   1.085   7.363  0.1119  0.6235  0.4532
13865SOL    HW143602   8.543   1.141   7.289 -0.4303 -0.5065 -0.2803
13865SOL    HW243603   8.556   1.140   7.440 -1.0449  1.3513 -0.1926
13866SOL     OW43604   6.784   7.424   9.280  0.1430  0.3216 -0.7649
13866SOL    HW143605   6.716   7.367   9.244 -1.0963  0.9999  0.3941
13866SOL    HW243606   6.752   7.513   9.263 -0.1638  0.6624  1.2974
13867SOL     OW43607   0.659   0.257  10.494  0.1650 -0.0625 -0.1144
13867SOL    HW143608   0.600   0.196  10.539  1.8066 -1.3648  0.3459
13867SOL    HW243609   0.735   0.204  10.471  0.5448  1.2301 -2.0346
13868SOL     OW43610   5.750   5.679   7.026  0.2011 -0.6582  0.4582
13868SOL    HW143611   5.802   5.644   7.098 -2.1105  0.0051  2.5998
13868SOL    HW243612   5.721   5.602   6.978  0.2791 -1.2658  1.3601
13869SOL     OW43613   8.857   9.995   1.859  0.1369 -0.5108  0.1947
13869SOL    HW143614   8.871   9.904   1.883  1.3380 -0.5493 -0.5667
13869SOL    HW243615   8.789   9.992   1.792  2.6756 -1.2805 -2.5358
13870SOL     OW43616   4.316   9.229   8.482  0.1426 -0.6947  0.1232
13870SOL    HW143617   4.257   9.196   8.550  2.1418 -2.2842  1.1900
13870SOL    HW243618   4.382   9.160   8.472  1.4292  0.6871 -1.5273
13871SOL     OW43619   2.083   4.648   2.666 -0.2151 -0.2079 -0.3796
13871SOL    HW143620   2.081   4.631   2.760  0.9071  1.9463  0.1007
13871SOL    HW243621   2.018   4.717   2.652 -0.6920 -0.8211 -1.2722
13872SOL     OW43622   3.666   2.637   5.645  0.6483  0.2840  0.1087
13872SOL    HW143623   3.736   2.703   5.643 -1.0504  2.2072  0.6578
13872SOL    HW243624   3.684   2.586   5.725 -0.5106  3.1491  2.3969
13873SOL     OW43625   9.454   7.578   6.559 -0.5518  0.0489  0.3810
13873SOL    HW143626   9.387   7.541   6.501  0.0053  0.0813 -0.2927
13873SOL    HW243627   9.526   7.602   6.501 -0.1615  0.4987  1.0362
13874SOL     OW43628   6.421   4.496   2.124  0.2758  0.0044 -0.2851
13874SOL    HW143629   6.477   4.460   2.056  0.0386  1.0497 -1.0654
13874SOL    HW243630   6.474   4.493   2.204  0.7512 -0.7317 -0.6169
13875SOL     OW43631   0.740   1.915   5.971 -0.0363 -0.2667  0.2643
13875SOL    HW143632   0.705   1.840   6.020  1.6001 -2.0803 -1.2000
13875SOL    HW243633   0.701   1.907   5.884 -1.1112  1.5982  0.5130
13876SOL     OW43634   7.412   9.581   2.641  0.6208  0.6863  0.1635
13876SOL    HW143635   7.434   9.671   2.617 -0.0779  0.7988 -0.0794
13876SOL    HW243636   7.328   9.587   2.686  0.9361  0.2373  0.8347
13877SOL     OW43637   8.508   7.146   9.347 -0.0102 -0.5333  0.0898
13877SOL    HW143638   8.490   7.059   9.310 -0.1505 -0.3916 -0.1835
13877SOL    HW243639   8.435   7.200   9.317 -0.5997 -0.6243  1.3268
13878SOL     OW43640   1.895   3.064   8.669  0.0221  0.3086 -0.2860
13878SOL    HW143641   1.853   3.117   8.736 -0.7020  0.4628 -0.8483
13878SOL    HW243642   1.951   3.125   8.620  0.6508  0.1707  0.2442
13879SOL     OW43643   7.239   9.121   5.722  0.0703  0.2740 -0.6386
13879SOL    HW143644   7.206   9.202   5.761  0.8089 -0.0626  0.7570
13879SOL    HW243645   7.224   9.054   5.789  2.4262 -0.1207 -0.4333
13880SOL     OW43646  10.067   0.767   0.909 -0.3180 -0.4806 -0.5494
13880SOL    HW143647  10.062   0.729   0.821  0.6912 -1.3820 -0.2568
13880SOL    HW243648  10.010   0.712   0.962 -0.6701 -0.1431 -0.5816
13881SOL     OW43649   1.493   6.388  10.196 -0.2730  0.1042  0.0540
13881SOL    HW143650   1.462   6.401  10.286 -2.2891  1.0961 -0.7108
13881SOL    HW243651   1.587   6.373  10.205 -0.4057  0.2569  2.3193
13882SOL     OW43652   6.723  10.749   7.212 -0.8706  0.1323  0.2924
13882SOL    HW143653   6.814  10.755   7.238 -1.0617  1.4824  0.7036
13882SOL    HW243654   6.717  10.665   7.165  0.3544 -0.4171  1.0696
13883SOL     OW43655   6.924   0.218   5.860 -0.1862 -0.4772  0.2380
13883SOL    HW143656   6.930   0.189   5.769 -0.7566  0.1783 -0.0149
13883SOL    HW243657   6.863   0.292   5.858  1.2629  0.8035  0.8451
13884SOL     OW43658   8.258   8.945   4.702  0.0082 -0.5248 -0.0474
13884SOL    HW143659   8.250   9.040   4.709  0.0251 -0.5980  1.0979
13884SOL    HW243660   8.210   8.911   4.778 -0.9475 -1.4845 -1.0282
13885SOL     OW43661   7.424   1.479   4.354 -0.1615 -0.7232 -0.1276
13885SOL    HW143662   7.462   1.452   4.438  1.1969 -2.2709 -1.1920
13885SOL    HW243663   7.462   1.565   4.337 -0.2534 -0.5080  0.6988
13886SOL     OW43664   8.481   2.126   3.578 -0.6396  0.0896  0.1549
13886SOL    HW143665   8.474   2.197   3.642 -1.0660 -0.5569  0.8547
13886SOL    HW243666   8.529   2.058   3.624  1.2906  0.5500 -1.0924
13887SOL     OW43667   7.058   7.471   1.287  1.1205 -0.1784 -0.0225
13887SOL    HW143668   6.970   7.478   1.326  1.1040  2.4437 -0.3448
13887SOL    HW243669   7.112   7.435   1.357 -0.1577 -1.8155  0.1987
13888SOL     OW43670   9.746   9.487   9.911  0.3091  0.3871  0.0233
13888SOL    HW143671   9.788   9.427   9.973  0.5138 -0.0159 -0.5002
13888SOL    HW243672   9.715   9.431   9.840 -1.3094  0.6518  0.4908
13889SOL     OW43673   8.549  10.162  10.187 -0.1345  0.2314 -0.1417
13889SOL    HW143674   8.480  10.165  10.120 -0.7515  1.1245  0.5054
13889SOL    HW243675   8.619  10.217  10.152  0.3303 -0.8017 -0.8715
13890SOL     OW43676   3.572   8.896   9.629  0.4643  0.3546  0.0361
13890SOL    HW143677   3.514   8.969   9.650 -0.2865 -0.6978  1.7991
13890SOL    HW243678   3.656   8.920   9.667  0.5937  0.8465 -0.5257
13891SOL     OW43679   5.728   5.345   3.866  0.1817 -0.2691 -0.0164
13891SOL    HW143680   5.667   5.281   3.830 -0.3647  0.2334  0.0130
13891SOL    HW243681   5.712   5.342   3.961 -0.8672  0.9346 -0.1327
13892SOL     OW43682   6.197   9.290   4.535 -0.8708  0.3433 -0.1492
13892SOL    HW143683   6.198   9.236   4.614 -2.5892  0.3894 -0.0500
13892SOL    HW243684   6.273   9.347   4.544  0.3034 -1.2155  0.3252
13893SOL     OW43685   7.086   5.550   8.297 -0.3707  0.2800  0.3804
13893SOL    HW143686   7.155   5.570   8.233 -0.3166  0.6395  0.5521
13893SOL    HW243687   7.067   5.633   8.339  0.2814 -0.1230  1.5266
13894SOL     OW43688  10.821   7.270   3.405 -0.0129  0.2843 -0.4804
13894SOL    HW143689  10.786   7.204   3.345  0.3926  0.0117 -0.4196
13894SOL    HW243690  10.849   7.220   3.481  0.1313  0.5518 -0.3571
13895SOL     OW43691   4.965   9.361   1.936 -0.1490 -0.2653 -0.0428
13895SOL    HW143692   4.923   9.447   1.938 -0.9559 -0.6306 -0.7961
13895SOL    HW243693   4.969   9.338   1.843  2.1812 -0.0333 -0.0551
13896SOL     OW43694   1.465   0.016   1.626  0.1514 -0.2224 -0.5139
13896SOL    HW143695   1.505   0.102   1.637 -0.3137 -0.3343  2.8023
13896SOL    HW243696   1.373   0.028   1.649  0.2781 -1.7523  0.9599
13897SOL     OW43697   6.111  10.894   2.627  0.3078 -0.0542  0.0838
13897SOL    HW143698   6.116  10.817   2.570  0.3161  0.8574 -1.2006
13897SOL    HW243699   6.163  10.871   2.704 -0.6051 -1.7361  0.2388
13898SOL     OW43700   9.310   7.304   7.225  0.4346  0.7142  0.1600
13898SOL    HW143701   9.244   7.238   7.245 -0.2282  0.7072 -1.8458
13898SOL    HW243702   9.269   7.360   7.159  2.4840  0.5540 -1.3596
13899SOL     OW43703  10.665   5.741   7.848 -0.4578 -0.0749 -0.4888
13899SOL    HW143704  10.645   5.659   7.803  1.7962 -0.4623 -0.8936
13899SOL    HW243705  10.635   5.728   7.938 -1.6211 -0.6945 -0.9511
13900SOL     OW43706   4.968   5.452   2.063  0.7066 -0.2673 -0.2659
13900SOL    HW143707   4.986   5.543   2.040 -0.3749  0.0058 -0.0939
13900SOL    HW243708   5.027   5.433   2.136 -0.7039  1.0873  1.3144
13901SOL     OW43709   5.752   2.861   8.718  0.5585 -0.5434  0.2843
13901SOL    HW143710   5.730   2.842   8.627 -0.9950 -0.1743  0.5514
13901SOL    HW243711   5.733   2.780   8.765  0.5205 -0.4656  0.4048
13902SOL     OW43712   6.821   3.503   5.416  0.9590  0.2441 -0.0940
13902SOL    HW143713   6.824   3.416   5.457 -1.4651 -0.9118 -2.1506
13902SOL    HW243714   6.746   3.546   5.457  1.7790  1.1983  0.4607
13903SOL     OW43715   6.550   2.047   6.540 -0.2897 -0.8504 -0.5122
13903SOL    HW143716   6.635   2.009   6.516  0.1743 -0.1626 -0.0087
13903SOL    HW243717   6.572   2.134   6.572 -1.1576 -0.8137 -0.0060
13904SOL     OW43718   2.184   2.065   8.316  0.5111 -0.0286 -0.3350
13904SOL    HW143719   2.094   2.039   8.295 -0.3265  2.1003  0.3052
13904SOL    HW243720   2.226   1.985   8.348 -1.1971 -1.0471 -0.5324
13905SOL     OW43721  10.327  10.080   5.667 -0.0336 -0.1453  0.4744
13905SOL    HW143722  10.366  10.168   5.670 -0.5550  0.1635 -1.2272
13905SOL    HW243723  10.399  10.022   5.693  0.4048  0.7325  1.3227
13906SOL     OW43724  10.536   6.855   4.543  0.2465 -0.7363 -0.8319
13906SOL    HW143725  10.443   6.851   4.521 -0.3347 -0.3614  1.3109
13906SOL    HW243726  10.539   6.835   4.637  2.1201  1.3111 -0.3849
13907SOL     OW43727   8.812   9.940   3.059  0.2672  0.4572  0.1142
13907SOL    HW143728   8.741   9.958   2.997  0.0519 -0.0475  0.2171
13907SOL    HW243729   8.769   9.929   3.143  0.3561 -0.9030 -0.0030
13908SOL     OW43730   6.693   4.175   6.078 -0.2823  0.1851  0.0396
13908SOL    HW143731   6.638   4.191   6.155  0.2325  1.8478  0.1049
13908SOL    HW243732   6.737   4.259   6.063  1.7313 -0.9029 -0.4154
13909SOL     OW43733   1.779   8.217   2.324 -0.1866  0.3896 -0.3039
13909SOL    HW143734   1.799   8.265   2.405  0.8559  2.0667 -1.4981
13909SOL    HW243735   1.853   8.234   2.267 -0.6822 -1.1671 -1.4656
13910SOL     OW43736   4.979   2.695   9.148  0.1935  0.1156  0.0342
13910SOL    HW143737   5.022   2.693   9.063 -0.6070  1.8190 -0.4478
13910SOL    HW243738   4.893   2.657   9.133 -0.3668  1.4469 -0.1891
13911SOL     OW43739   6.726   1.831   9.936 -0.3992  0.1563 -0.1022
13911SOL    HW143740   6.637   1.861   9.916 -0.9958 -2.6702 -2.3314
13911SOL    HW243741   6.716   1.777  10.014 -0.8606 -1.0038 -0.9503
13912SOL     OW43742   6.549   6.065   5.002  0.3325 -0.0077  0.1636
13912SOL    HW143743   6.542   6.107   5.088  1.7202 -2.2432  1.4769
13912SOL    HW243744   6.481   6.106   4.949 -0.2613  1.7752  2.1821
13913SOL     OW43745   6.961   3.333   8.646  0.2421  0.2972 -0.9474
13913SOL    HW143746   6.996   3.350   8.734 -1.0538  0.8529 -0.5259
13913SOL    HW243747   7.000   3.401   8.592  0.3825  0.4694 -0.6358
13914SOL     OW43748   4.687   9.520   3.171 -0.0951 -0.0112  0.3842
13914SOL    HW143749   4.673   9.597   3.116 -0.6920  0.7708  1.5878
13914SOL    HW243750   4.778   9.527   3.200 -0.3135  0.5745  0.9558
13915SOL     OW43751   0.011  10.639   4.554 -0.2315  0.3533 -0.2447
13915SOL    HW143752   0.095  10.684   4.562 -0.2482  0.6070 -1.3531
13915SOL    HW243753  -0.017  10.624   4.644  2.2743 -2.1327  0.2580
13916SOL     OW43754   2.989   2.442   9.195  0.8617  0.3292  0.5445
13916SOL    HW143755   3.083   2.429   9.184  0.5161 -0.7266 -1.5119
13916SOL    HW243756   2.948   2.389   9.127 -1.2795  0.2916  1.7512
13917SOL     OW43757   7.493   2.608  10.628  0.0208  0.4294 -0.0671
13917SOL    HW143758   7.440   2.633  10.553  0.9306  1.9994 -0.2483
13917SOL    HW243759   7.444   2.538  10.671 -1.1571  0.4212 -1.3690
13918SOL     OW43760   8.608   2.464   9.926 -0.0543  0.6645  0.3161
13918SOL    HW143761   8.620   2.437   9.835  0.6994  0.5683  0.4331
13918SOL    HW243762   8.530   2.519   9.925 -0.9874 -0.6140 -0.1212
13919SOL     OW43763   2.924   3.231   4.202 -0.1778 -0.2709 -0.6210
13919SOL    HW143764   2.944   3.315   4.159 -1.3785  0.4643  0.2047
13919SOL    HW243765   2.966   3.237   4.288 -1.0465 -0.1144 -0.1977
13920SOL     OW43766   5.813  10.480   8.040  0.5605 -0.8078 -0.3539
13920SOL    HW143767   5.728  10.441   8.020 -0.6316  1.0280  0.7372
13920SOL    HW243768   5.877  10.414   8.015 -0.9884 -1.1747 -3.9986
13921SOL     OW43769   4.736   3.740   7.811 -0.3911 -0.4633  0.1178
13921SOL    HW143770   4.674   3.752   7.883  2.1971 -0.4777  2.5386
13921SOL    HW243771   4.795   3.671   7.841  1.8009  0.6806 -1.2431
13922SOL     OW43772  10.150   4.781   0.719 -0.0768  0.4125 -0.4285
13922SOL    HW143773  10.132   4.688   0.710  1.8789 -0.0796  0.3786
13922SOL    HW243774  10.245   4.787   0.725 -0.2556  2.2741  1.5957
13923SOL     OW43775   1.988   3.484   9.689  0.0928 -0.2804 -0.0125
13923SOL    HW143776   2.012   3.407   9.740 -0.6094  0.2386  1.1668
13923SOL    HW243777   1.925   3.530   9.745  0.8923  1.4172 -0.4511
13924SOL     OW43778   8.255  10.081   8.907  0.1897  0.4309  0.2993
13924SOL    HW143779   8.309  10.132   8.967  1.4987 -0.4342 -0.1005
13924SOL    HW243780   8.311  10.068   8.830 -1.6048  1.9676 -1.3816
13925SOL     OW43781   8.177   5.409   7.437  1.2545  0.0373  0.1041
13925SOL    HW143782   8.257   5.360   7.454  1.0786 -0.2498  0.1113
13925SOL    HW243783   8.148   5.438   7.524  1.4270  0.2652  0.0868
13926SOL     OW43784   5.119   5.092   9.892 -0.1129 -0.2534 -0.4464
13926SOL    HW143785   5.101   5.062   9.803 -0.2747  0.2793 -0.5945
13926SOL    HW243786   5.115   5.013   9.945  1.2439 -0.7913 -1.1000
13927SOL     OW43787   7.143   9.766   8.531  0.2219 -0.0107  0.1241
13927SOL    HW143788   7.225   9.802   8.565  0.5435 -1.1485  0.6172
13927SOL    HW243789   7.109   9.834   8.473 -0.3481  2.0816  2.6801
13928SOL     OW43790  10.772   7.801   0.767 -0.7479 -0.2055 -0.2926
13928SOL    HW143791  10.756   7.708   0.755 -0.3802 -0.1872 -0.9496
13928SOL    HW243792  10.865   7.808   0.787 -0.2645  0.1904 -2.4399
13929SOL     OW43793   0.043   1.377   5.153  0.2818  0.3416  0.0729
13929SOL    HW143794  -0.017   1.318   5.107  2.2079 -2.4288  0.8845
13929SOL    HW243795   0.062   1.447   5.089 -1.9017  0.0387 -1.0100
13930SOL     OW43796   7.124   7.151   5.395 -0.7044 -0.3347  0.5173
13930SOL    HW143797   7.129   7.245   5.377  1.0941 -0.4391  0.2194
13930SOL    HW243798   7.152   7.142   5.486  0.6121 -0.6739  0.1034
13931SOL     OW43799   3.128   2.310   6.052  0.1268 -0.1220 -0.1327
13931SOL    HW143800   3.190   2.254   6.099 -1.3702 -0.8517  1.0635
13931SOL    HW243801   3.062   2.250   6.019 -1.2581  0.8506  0.7621
13932SOL     OW43802   7.759   1.544   1.810  0.6237 -0.3481  0.4136
13932SOL    HW143803   7.785   1.565   1.720 -0.1493 -1.0177  0.0224
13932SOL    HW243804   7.758   1.629   1.855  3.6433 -0.2722  0.5445
13933SOL     OW43805   8.865   1.242   4.656  0.0865  0.5746  0.1331
13933SOL    HW143806   8.878   1.295   4.734  2.9392  2.0723 -1.2012
13933SOL    HW243807   8.835   1.304   4.590 -1.6699 -0.5518 -0.1914
13934SOL     OW43808   7.613   4.635  10.046 -0.5811 -0.0036  0.1861
13934SOL    HW143809   7.705   4.634  10.020 -0.6820 -1.0037 -0.1692
13934SOL    HW243810   7.598   4.548  10.082 -1.4936  0.0160 -0.1365
13935SOL     OW43811   0.365   5.793   5.345 -0.4700 -0.2187 -0.2202
13935SOL    HW143812   0.394   5.723   5.403 -2.1101 -1.1743 -0.5033
13935SOL    HW243813   0.359   5.751   5.259 -1.1338  0.3508 -0.4583
13936SOL     OW43814   3.822  10.670   0.983 -0.1707 -0.8884 -0.0805
13936SOL    HW143815   3.878  10.682   1.060 -0.5707  0.5636  0.0177
13936SOL    HW243816   3.790  10.580   0.991 -0.3447 -0.7260  1.5621
13937SOL     OW43817   1.505   0.423  10.532  0.3805 -0.1236 -0.2802
13937SOL    HW143818   1.530   0.504  10.576  0.5355 -0.5253  0.3841
13937SOL    HW243819   1.412   0.411  10.554  0.0240  0.5023 -1.3824
13938SOL     OW43820   1.718  10.593   1.953  0.1124 -0.4398  0.5390
13938SOL    HW143821   1.803  10.634   1.936 -0.0171  0.2707  1.5385
13938SOL    HW243822   1.666  10.613   1.875  0.6922 -0.4208  0.1519
13939SOL     OW43823   4.876   1.189   3.507 -0.0272 -0.2533 -0.1738
13939SOL    HW143824   4.877   1.120   3.574 -1.8989 -0.7286 -0.5735
13939SOL    HW243825   4.807   1.162   3.446  0.8403  0.7704 -1.6746
13940SOL     OW43826   3.717   1.683   1.407  0.2231 -1.6001 -0.0589
13940SOL    HW143827   3.723   1.619   1.336 -0.1931 -1.1012 -0.5574
13940SOL    HW243828   3.623   1.697   1.418  0.3265 -0.0128 -0.9439
13941SOL     OW43829   6.867   4.073   7.246 -0.3685 -0.1107  0.0744
13941SOL    HW143830   6.807   4.042   7.314  0.2701 -0.9676  0.2555
13941SOL    HW243831   6.949   4.090   7.292 -0.0313 -0.3749 -0.4279
13942SOL     OW43832   0.821   8.364  10.063 -0.1722 -0.0810  0.2713
13942SOL    HW143833   0.814   8.458  10.076  0.9501  0.1478 -0.6605
13942SOL    HW243834   0.867   8.354   9.980 -3.1894 -1.4678 -1.3868
13943SOL     OW43835   8.255  10.699   7.848 -0.3721 -0.2375  0.4680
13943SOL    HW143836   8.259  10.794   7.836 -2.4935 -0.1197  0.2190
13943SOL    HW243837   8.344  10.668   7.830  0.1712  1.6161 -0.2353
13944SOL     OW43838   9.266   5.657   5.659  0.0812 -0.1623  0.2880
13944SOL    HW143839   9.228   5.570   5.673  1.9101 -1.1255 -0.3598
13944SOL    HW243840   9.267   5.697   5.746 -1.7849 -0.3078  0.4227
13945SOL     OW43841   9.077   2.109   2.870 -1.1467 -0.2506 -0.2704
13945SOL    HW143842   9.010   2.170   2.837 -1.1017  0.3511  0.7249
13945SOL    HW243843   9.046   2.023   2.842 -1.6922  0.1412 -0.8992
13946SOL     OW43844   2.936  10.414   9.192 -0.5529  0.3979 -0.1209
13946SOL    HW143845   2.994  10.461   9.132  0.5250 -0.4546  0.2143
13946SOL    HW243846   2.930  10.471   9.268  1.3197 -0.2501  0.5786
13947SOL     OW43847   5.138   2.557  10.589  0.0400 -0.1860 -0.0912
13947SOL    HW143848   5.059   2.506  10.602  0.6977 -1.0534  0.6721
13947SOL    HW243849   5.183   2.514  10.517  0.2395 -0.2274  0.0577
13948SOL     OW43850   9.855   5.059   5.988  0.0046  0.7679 -0.0185
13948SOL    HW143851   9.896   5.015   6.062 -0.6883  0.9620  0.4931
13948SOL    HW243852   9.793   4.995   5.953 -1.2930  1.4361  0.9708
13949SOL     OW43853   1.957   9.203  10.982  0.2820 -0.6350 -0.1865
13949SOL    HW143854   1.938   9.291  11.014  1.3724 -0.8342  1.1409
13949SOL    HW243855   2.045   9.209  10.945  0.0746 -1.0117 -0.7583
13950SOL     OW43856   0.975   4.865   7.178 -0.6953  0.1636  0.3577
13950SOL    HW143857   1.010   4.833   7.261 -0.0829  2.3863  1.0189
13950SOL    HW243858   0.891   4.820   7.168 -0.9411  0.0829  2.3558
13951SOL     OW43859   1.408   6.019   8.077  0.2517  0.9073 -0.2325
13951SOL    HW143860   1.473   5.992   8.012 -0.9069  2.0031 -1.9118
13951SOL    HW243861   1.334   5.961   8.064  0.7488 -0.2044  1.5411
13952SOL     OW43862   1.377   8.748   3.993  0.0544 -0.4363  0.1800
13952SOL    HW143863   1.398   8.840   3.980 -0.9479 -0.4407 -1.8038
13952SOL    HW243864   1.398   8.732   4.085 -0.1169  1.8635  0.6865
13953SOL     OW43865   7.416   2.038   2.793  0.4110  0.5316 -0.3598
13953SOL    HW143866   7.473   2.113   2.778 -1.1962  2.2384  1.4707
13953SOL    HW243867   7.391   2.044   2.886 -0.7539 -1.5566 -0.4630
13954SOL     OW43868   5.976   8.825   9.051 -0.2167 -0.4076  0.3459
13954SOL    HW143869   6.018   8.847   9.134 -0.1578 -1.7758  0.7097
13954SOL    HW243870   6.029   8.754   9.015 -0.3102  0.0912 -0.8136
13955SOL     OW43871   2.118  10.987   1.921  0.1690  0.2547 -0.5350
13955SOL    HW143872   2.062  10.923   1.965 -0.9950 -0.4119 -2.8327
13955SOL    HW243873   2.086  11.072   1.950 -1.5100 -0.1455 -1.1365
13956SOL     OW43874   7.275   0.349   4.149 -0.4032 -0.2759  0.2181
13956SOL    HW143875   7.355   0.374   4.104 -0.1445 -0.8898  0.3241
13956SOL    HW243876   7.205   0.373   4.089 -0.1421  0.2676  0.1273
13957SOL     OW43877   5.157   6.727   7.627 -0.0060 -0.3659  0.5332
13957SOL    HW143878   5.183   6.641   7.594 -1.3186 -0.6237  0.1159
13957SOL    HW243879   5.221   6.747   7.695  0.3793 -1.6222  0.5627
13958SOL     OW43880   0.852   6.591   1.006 -0.0499 -0.3563  0.7128
13958SOL    HW143881   0.870   6.573   0.914  0.2677 -2.2458  1.1076
13958SOL    HW243882   0.769   6.640   1.005 -0.4477 -1.0005 -0.5457
13959SOL     OW43883  10.224   6.754   0.704 -0.1200  0.1663  1.0938
13959SOL    HW143884  10.159   6.754   0.775 -1.7410 -0.4190 -0.3240
13959SOL    HW243885  10.188   6.815   0.639  2.0048  1.7716  1.2839
13960SOL     OW43886   5.642   5.506   1.393  0.1284 -0.2367 -0.4410
13960SOL    HW143887   5.669   5.533   1.480 -0.7455 -0.9056  0.0507
13960SOL    HW243888   5.713   5.450   1.361  0.9954  0.9535 -0.6506
13961SOL     OW43889   7.900   4.887   1.622 -0.0682 -0.0370 -0.0526
13961SOL    HW143890   7.863   4.813   1.572  1.2245 -1.7493  1.3910
13961SOL    HW243891   7.856   4.882   1.707 -0.9590  1.7517 -0.3748
13962SOL     OW43892   7.902   5.069   4.920  0.0909  0.2517 -0.4489
13962SOL    HW143893   7.888   5.016   4.842 -0.4260 -1.2246  0.6011
13962SOL    HW243894   7.921   5.006   4.989 -0.7353  1.4168  0.9021
13963SOL     OW43895   8.942   8.853   1.296  0.1002 -0.0868  0.0446
13963SOL    HW143896   9.011   8.793   1.323  1.0332  0.4574 -1.0548
13963SOL    HW243897   8.944   8.923   1.361  0.6152 -0.0459 -0.0157
13964SOL     OW43898   5.769   6.864   0.562  0.0115  0.5155 -0.0563
13964SOL    HW143899   5.854   6.900   0.539  0.1877  0.6766  0.8352
13964SOL    HW243900   5.751   6.800   0.493  1.0048  0.2266 -0.0566
13965SOL     OW43901   0.256   3.333   6.212 -0.4062 -0.1358 -0.1672
13965SOL    HW143902   0.260   3.397   6.283 -2.1610 -1.2457  1.0185
13965SOL    HW243903   0.279   3.250   6.254 -0.0231 -0.5875 -1.2455
13966SOL     OW43904   1.338   8.831   9.802 -0.1955 -0.0099  0.0170
13966SOL    HW143905   1.288   8.907   9.833 -0.9377 -0.9572  1.2533
13966SOL    HW243906   1.305   8.815   9.714 -0.0427  1.0764 -0.2534
13967SOL     OW43907   7.286   1.729   5.336  0.2689 -0.1221  0.0247
13967SOL    HW143908   7.225   1.709   5.407 -0.3259 -0.0634 -0.4603
13967SOL    HW243909   7.334   1.806   5.367 -0.2767  0.1570  0.2009
13968SOL     OW43910   9.623  10.881   5.469 -0.3341 -0.3873  0.3847
13968SOL    HW143911   9.628  10.916   5.558  0.8127  1.0358 -0.1914
13968SOL    HW243912   9.615  10.786   5.481 -0.1172 -0.2312  1.9981
13969SOL     OW43913   9.722   9.028   5.773  0.2475 -0.1070  0.1124
13969SOL    HW143914   9.809   9.061   5.793  0.7031 -0.4605 -1.2395
13969SOL    HW243915   9.669   9.055   5.848  1.8662 -1.3669  1.8086
13970SOL     OW43916   6.292  10.582   6.569 -0.2797  0.0455 -0.4739
13970SOL    HW143917   6.262  10.672   6.556  0.4341  0.1454 -1.5253
13970SOL    HW243918   6.225  10.543   6.625  0.2312  1.6734  1.3554
13971SOL     OW43919   2.223   5.915  10.508  0.0252 -0.2695  0.1653
13971SOL    HW143920   2.267   5.936  10.590  0.4910 -0.2519 -0.0831
13971SOL    HW243921   2.209   6.000  10.466  1.1498 -0.3708 -0.4551
13972SOL     OW43922   9.902   7.336   2.682 -0.2915  0.1263 -0.2816
13972SOL    HW143923   9.900   7.273   2.610  0.7628 -0.0563 -0.1562
13972SOL    HW243924   9.883   7.285   2.760  1.9777 -0.3486  0.0182
13973SOL     OW43925   4.475   9.212   3.629 -0.5447  0.6487  0.1247
13973SOL    HW143926   4.389   9.198   3.587 -1.0332  3.1182  0.1371
13973SOL    HW243927   4.535   9.221   3.555 -0.5273  0.2497  0.0866
13974SOL     OW43928   7.865   7.171   1.206 -0.2508 -0.1971  0.5150
13974SOL    HW143929   7.891   7.108   1.273  0.5142 -0.9730 -0.4791
13974SOL    HW243930   7.890   7.256   1.242 -1.7994 -0.3741  2.1116
13975SOL     OW43931   0.033   4.439   5.683 -0.5810  0.0761  0.2674
13975SOL    HW143932  -0.043   4.484   5.645 -1.4564 -0.6525  1.1106
13975SOL    HW243933   0.005   4.416   5.772  0.7622  0.1137  0.7202
13976SOL     OW43934   3.361   1.179   3.162  0.2228 -0.3276 -0.7091
13976SOL    HW143935   3.410   1.213   3.087  1.0354  0.7814  0.2830
13976SOL    HW243936   3.279   1.146   3.125  0.6395  0.1339 -2.0841
13977SOL     OW43937   4.641  10.480   3.053  0.3708 -0.1478  0.1496
13977SOL    HW143938   4.661  10.390   3.078  0.6583 -0.1593 -0.1195
13977SOL    HW243939   4.562  10.474   2.999  0.5969 -0.2753 -0.1658
13978SOL     OW43940   9.082   9.326   2.176  0.0813 -0.2186 -0.3680
13978SOL    HW143941   8.996   9.285   2.184 -0.8025  1.6425  0.1648
13978SOL    HW243942   9.126   9.308   2.259  0.5772 -1.9033 -0.9642
13979SOL     OW43943   7.985   7.743   0.524  0.3896 -0.2532  0.2749
13979SOL    HW143944   7.942   7.671   0.573  1.8598 -1.1077  0.3560
13979SOL    HW243945   8.018   7.701   0.445 -0.3214  0.7474 -0.5761
13980SOL     OW43946   9.571   5.596  10.120  0.0911  0.5441  0.3713
13980SOL    HW143947   9.536   5.670  10.070 -0.4119 -0.7393 -1.2650
13980SOL    HW243948   9.636   5.635  10.178  1.7564  1.9914 -2.2751
13981SOL     OW43949   8.819   9.997   3.904  0.7197 -0.0952 -0.6089
13981SOL    HW143950   8.769   9.958   3.976  0.4667  0.0583 -0.6995
13981SOL    HW243951   8.895   9.939   3.894  1.1411  0.2936  0.2644
13982SOL     OW43952   2.983   1.115   5.760  0.2939  0.6842  0.5023
13982SOL    HW143953   3.019   1.128   5.848 -0.0223  0.3762  0.6790
13982SOL    HW243954   3.008   1.194   5.712 -0.3496  1.2939  1.1410
13983SOL     OW43955   3.346   1.184   9.326  0.5939  0.1493 -0.1213
13983SOL    HW143956   3.320   1.250   9.262  0.5903  0.3439  0.0824
13983SOL    HW243957   3.341   1.228   9.410  1.8726  0.2838 -0.0938
13984SOL     OW43958   5.649   9.162   8.985 -0.8582 -0.0182  0.2838
13984SOL    HW143959   5.668   9.214   8.906 -1.4441 -0.5833 -0.2410
13984SOL    HW243960   5.733   9.152   9.029  0.2129 -2.6920 -2.0945
13985SOL     OW43961   7.014   4.146   3.480  0.4955 -0.1500 -0.0574
13985SOL    HW143962   7.077   4.216   3.467  1.4251 -0.8046  0.7439
13985SOL    HW243963   7.033   4.082   3.411  2.4315 -1.5135  1.6103
13986SOL     OW43964   3.634   8.525   5.918  0.9511  0.6734  0.3898
13986SOL    HW143965   3.688   8.563   5.987  1.2258  2.1435 -0.5793
13986SOL    HW243966   3.544   8.542   5.947  1.0372  0.3124  0.8871
13987SOL     OW43967   1.534   1.464   9.179 -0.0400 -0.6194 -0.0110
13987SOL    HW143968   1.544   1.494   9.089  1.1515  0.3971  0.4462
13987SOL    HW243969   1.514   1.543   9.229  0.5741 -0.9745  0.8136
13988SOL     OW43970  10.183   9.389   5.976 -0.2116 -0.5212 -0.3742
13988SOL    HW143971  10.109   9.422   6.027  1.8173  1.1826  1.6852
13988SOL    HW243972  10.170   9.426   5.889 -0.6398  1.6498  0.5526
13989SOL     OW43973   1.463   8.595   3.621 -0.0365 -0.3032 -0.3965
13989SOL    HW143974   1.493   8.684   3.605 -0.2596 -0.5140 -2.1337
13989SOL    HW243975   1.524   8.540   3.572 -0.7572 -1.0005 -0.5286
13990SOL     OW43976   2.380   8.873   8.928  0.4725 -0.7163 -0.4596
13990SOL    HW143977   2.408   8.911   9.011 -0.5363 -1.4745  0.2542
13990SOL    HW243978   2.460   8.838   8.889  1.2059  0.9397 -0.5266
13991SOL     OW43979   9.126   3.750   1.765 -0.5497  0.0286  0.7561
13991SOL    HW143980   9.215   3.768   1.795  0.3042  0.4230 -1.8034
13991SOL    HW243981   9.082   3.835   1.767 -0.4729  0.0679  0.7820
13992SOL     OW43982   4.581   9.330   2.373  0.1104  0.3744 -0.5854
13992SOL    HW143983   4.534   9.264   2.322 -2.1595  2.0684 -0.8701
13992SOL    HW243984   4.595   9.289   2.458  0.2962 -1.0476 -1.2703
13993SOL     OW43985   7.583   7.701   4.769 -0.1612  0.1286 -0.3359
13993SOL    HW143986   7.628   7.690   4.685 -0.7952 -1.8006 -0.4676
13993SOL    HW243987   7.495   7.666   4.754  0.1753 -1.7398  1.4965
13994SOL     OW43988   1.759   1.364   6.742 -0.4497  0.6799 -0.6207
13994SOL    HW143989   1.711   1.422   6.800  1.5420 -0.4243  2.3659
13994SOL    HW243990   1.851   1.383   6.758  0.2222 -1.1016 -1.9348
13995SOL     OW43991   7.290   0.044   2.602 -0.2956  0.8789  0.0304
13995SOL    HW143992   7.344  -0.012   2.657 -0.0524  2.2836  1.3024
13995SOL    HW243993   7.350   0.080   2.537 -0.9699 -2.4760 -2.7329
13996SOL     OW43994   8.180   4.137   5.424 -0.2557 -0.2934  0.0252
13996SOL    HW143995   8.145   4.199   5.488 -0.4646 -0.7034  0.3197
13996SOL    HW243996   8.259   4.179   5.390  0.0345 -0.1987  0.7876
13997SOL     OW43997   1.731   2.579   6.618  0.0865  0.1746  0.3009
13997SOL    HW143998   1.802   2.535   6.571  0.1382  0.6013 -0.0350
13997SOL    HW243999   1.772   2.659   6.652 -0.6081  1.2586 -1.3024
13998SOL     OW44000   9.067   6.278   5.998 -0.0904 -0.4524  0.6505
13998SOL    HW144001   9.096   6.225   6.072 -1.1172 -1.8019  0.1218
13998SOL    HW244002   9.146   6.293   5.946  0.4423 -0.3723  1.4745
13999SOL     OW44003   8.038   8.544   7.489 -0.1201  0.2248 -0.2387
13999SOL    HW144004   8.009   8.468   7.437 -0.5414 -0.1431  0.5192
13999SOL    HW244005   7.971   8.554   7.556  0.7429  0.2961  0.6269
14000SOL     OW44006   1.132   9.432   3.928  0.7177  0.0946 -0.3178
14000SOL    HW144007   1.126   9.508   3.870 -0.1215 -0.9001 -1.5645
14000SOL    HW244008   1.190   9.371   3.882  0.7934 -0.3295  0.3285
14001SOL     OW44009   0.364  10.505   1.370  0.3930  1.1976  0.5609
14001SOL    HW144010   0.303  10.461   1.310 -0.0339  0.6180  1.3912
14001SOL    HW244011   0.446  10.510   1.321  0.1066  0.5708 -0.0062
14002SOL     OW44012  10.816   5.900   2.982 -0.0881  0.1227  0.4005
14002SOL    HW144013  10.749   5.873   2.920  0.3071 -0.5735  0.2589
14002SOL    HW244014  10.868   5.820   2.997 -0.4854  0.1364  2.0297
14003SOL     OW44015   2.212   6.938   8.883  0.1694 -0.2446  0.1462
14003SOL    HW144016   2.127   6.981   8.875 -0.0554 -0.8593 -1.1890
14003SOL    HW244017   2.209   6.891   8.966 -0.1633  1.0465  0.8771
14004SOL     OW44018   5.504   6.125  10.440  0.0839 -0.2760 -0.4151
14004SOL    HW144019   5.473   6.155  10.355  0.8562 -1.8224 -1.2831
14004SOL    HW244020   5.595   6.099  10.425  1.0611  1.7067  1.4645
14005SOL     OW44021  10.916   4.657   4.277 -0.4475  0.2584 -0.0392
14005SOL    HW144022  10.938   4.574   4.319 -0.5595 -0.3177 -1.0840
14005SOL    HW244023  10.828   4.643   4.242  0.1810  0.2356 -1.6603
14006SOL     OW44024   2.937   6.217   6.210  0.5836  0.2533 -0.1667
14006SOL    HW144025   2.853   6.249   6.177 -0.8632 -0.4719  2.5731
14006SOL    HW244026   2.959   6.143   6.153 -0.8824  0.1687 -0.6545
14007SOL     OW44027   5.243   3.914   6.580 -0.4021 -0.7344  0.7297
14007SOL    HW144028   5.337   3.898   6.570 -0.5099 -0.1621 -1.9443
14007SOL    HW244029   5.210   3.837   6.626  1.2990 -1.1313  1.3627
14008SOL     OW44030   3.574   0.673   8.213  0.5692 -0.1398  0.1085
14008SOL    HW144031   3.564   0.660   8.119  0.4892  0.8078 -0.0154
14008SOL    HW244032   3.569   0.767   8.226 -0.5866 -0.3269  1.2019
14009SOL     OW44033   4.534   6.236  10.769 -0.3614  0.4803 -0.8051
14009SOL    HW144034   4.550   6.164  10.708 -3.3932 -1.6530  0.6695
14009SOL    HW244035   4.440   6.254  10.760 -0.7190  0.7555  2.4136
14010SOL     OW44036   6.490   4.115   5.010  0.1676  0.3352  0.2051
14010SOL    HW144037   6.414   4.056   5.015  0.2218  0.1376 -1.0016
14010SOL    HW244038   6.452   4.201   4.993  0.1329  0.5510  1.2756
14011SOL     OW44039   6.823   6.990  10.877  0.6024  0.3816 -0.0649
14011SOL    HW144040   6.842   7.060  10.939  1.5136 -0.0187  0.1228
14011SOL    HW244041   6.888   7.000  10.808  0.5682 -0.1142 -0.1740
14012SOL     OW44042   0.559   8.500   4.609 -0.1784 -0.3430 -0.4206
14012SOL    HW144043   0.473   8.473   4.578 -0.2539 -0.1069 -0.4153
14012SOL    HW244044   0.605   8.418   4.625 -0.8310 -0.4997  0.7918
14013SOL     OW44045   0.188   7.120   2.788  0.0983  0.1684  0.0107
14013SOL    HW144046   0.105   7.159   2.817 -0.1082  1.0060 -1.6094
14013SOL    HW244047   0.255   7.179   2.822 -0.2213  2.3697 -2.7495
14014SOL     OW44048   2.390   2.919   3.182 -0.2340 -0.0294 -0.4660
14014SOL    HW144049   2.331   2.955   3.117  1.5050  0.2759 -1.9579
14014SOL    HW244050   2.394   2.826   3.161 -0.2321 -0.0589 -0.3340
14015SOL     OW44051   0.751   5.429   1.978 -0.6789  0.2373 -0.2757
14015SOL    HW144052   0.773   5.402   1.889 -0.4284 -1.2147  0.1982
14015SOL    HW244053   0.674   5.378   2.001 -1.4073  1.4034 -0.0231
14016SOL     OW44054   2.814   1.082   4.971 -0.0002 -0.5262  0.4710
14016SOL    HW144055   2.772   0.998   4.954  1.9267 -1.5152  0.4521
14016SOL    HW244056   2.883   1.063   5.034  1.2953  0.8007 -0.4927
14017SOL     OW44057  10.989   5.469   4.933  0.4786  0.1385 -0.8815
14017SOL    HW144058  11.079   5.447   4.909  0.9370 -1.7450  2.1620
14017SOL    HW244059  10.998   5.541   4.995  0.0753 -1.1694  0.7479
14018SOL     OW44060   0.823   5.188   0.262  0.1241  0.4107 -0.0304
14018SOL    HW144061   0.742   5.146   0.291  0.0252 -0.8507 -1.9571
14018SOL    HW244062   0.816   5.278   0.294 -1.8167  0.2059  0.2420
14019SOL     OW44063   6.156   8.516   4.038  0.4799 -0.8122  0.0690
14019SOL    HW144064   6.138   8.443   4.097  0.5743 -0.7591  0.1630
14019SOL    HW244065   6.153   8.593   4.094  0.6087 -0.7653  0.0111
14020SOL     OW44066   9.901  10.173   4.782 -0.6684 -0.4644 -0.6775
14020SOL    HW144067   9.906  10.081   4.809  0.9457 -0.1844  0.1179
14020SOL    HW244068   9.851  10.216   4.851 -0.8446 -0.6237 -0.7052
14021SOL     OW44069   6.017   7.956   0.267  0.3689 -0.1551  0.2971
14021SOL    HW144070   5.967   7.881   0.233 -0.8463  0.7497  0.0500
14021SOL    HW244071   5.981   7.970   0.355  0.2348  0.4631  0.1419
14022SOL     OW44072  10.843   8.924   1.753 -0.0351 -0.2750  0.0970
14022SOL    HW144073  10.889   8.936   1.670  1.3766 -0.2974  0.8505
14022SOL    HW244074  10.806   9.010   1.772 -1.3515 -0.5389 -1.0866
14023SOL     OW44075   3.859   3.539   8.438 -0.2463  0.4720  0.8626
14023SOL    HW144076   3.838   3.633   8.438  0.5557  0.6598  0.5635
14023SOL    HW244077   3.831   3.508   8.353  0.9194  0.7892  0.3416
14024SOL     OW44078   6.984  10.241   6.211 -0.0696 -0.1119 -0.1923
14024SOL    HW144079   6.969  10.314   6.270  1.5768 -0.6005  0.9149
14024SOL    HW244080   7.010  10.281   6.128  0.7803  0.5716  0.3912
14025SOL     OW44081   3.933   4.369   7.913  0.4512 -0.0780  0.2429
14025SOL    HW144082   3.908   4.461   7.911  1.2883  0.1503 -1.2037
14025SOL    HW244083   4.024   4.370   7.941  0.7140 -0.3885 -0.5814
14026SOL     OW44084   9.686   6.723  10.841  0.4670  0.3438 -0.1814
14026SOL    HW144085   9.627   6.696  10.770  2.4410  2.5484 -2.8727
14026SOL    HW244086   9.742   6.647  10.855 -0.2154 -0.2768 -0.7015
14027SOL     OW44087   3.312   3.808  10.628  0.4291 -0.0897  0.1222
14027SOL    HW144088   3.343   3.832  10.541  0.4705  1.0173  0.4347
14027SOL    HW244089   3.333   3.883  10.683 -2.5861  0.6940  0.4073
14028SOL     OW44090   9.694   5.719   1.857  0.6219 -0.6504  0.1658
14028SOL    HW144091   9.716   5.778   1.929  1.0589  0.4414 -0.8204
14028SOL    HW244092   9.773   5.666   1.845  1.2787  0.4919 -0.7378
14029SOL     OW44093   6.873   6.446   2.820  0.5003  0.2380 -0.4326
14029SOL    HW144094   6.881   6.354   2.795 -0.0830  0.2619 -0.7084
14029SOL    HW244095   6.964   6.474   2.836  0.6189 -0.6441  0.5939
14030SOL     OW44096   3.526   7.804   5.846  0.6351 -0.7144 -0.3227
14030SOL    HW144097   3.493   7.715   5.838 -1.5769 -0.1219  1.2500
14030SOL    HW244098   3.538   7.818   5.940 -1.7095  1.4335 -0.2197
14031SOL     OW44099   4.504   2.151   0.504 -0.2530  0.3709 -0.4118
14031SOL    HW144100   4.433   2.153   0.440 -0.8407 -0.8583  0.1538
14031SOL    HW244101   4.517   2.058   0.522 -0.0237  0.6751  1.1548
14032SOL     OW44102   6.295   2.245   1.867 -0.3001 -0.3660  0.0305
14032SOL    HW144103   6.255   2.282   1.787 -1.3427 -1.7160 -0.0971
14032SOL    HW244104   6.257   2.158   1.875  1.5872 -1.1799  0.7121
14033SOL     OW44105   6.442   9.042   0.118 -0.4014  0.3015 -0.3491
14033SOL    HW144106   6.424   9.133   0.095  1.3509  0.3468 -1.7735
14033SOL    HW244107   6.444   8.996   0.034  0.9328 -0.6021  0.1387
14034SOL     OW44108   5.109   4.917   1.571  0.4748  0.5016 -0.2588
14034SOL    HW144109   5.063   4.922   1.487  1.9643 -0.8283 -1.2082
14034SOL    HW244110   5.075   4.838   1.613  0.3776  0.6724 -0.0154
14035SOL     OW44111   7.010   3.062   3.629 -0.8518 -0.2197  0.9871
14035SOL    HW144112   6.924   3.048   3.669 -1.3007  2.1888  1.0314
14035SOL    HW244113   7.071   3.062   3.703 -1.2362  0.8914  1.3311
14036SOL     OW44114   2.972   4.151   5.637  0.0766 -0.3572 -0.7478
14036SOL    HW144115   2.909   4.104   5.691  0.5374 -0.2203 -0.0752
14036SOL    HW244116   3.037   4.183   5.699  0.7887 -0.4647 -1.4257
14037SOL     OW44117  10.157   2.166   1.399 -0.1223  0.3032 -0.0093
14037SOL    HW144118  10.149   2.206   1.485  2.0783  0.4322  0.1987
14037SOL    HW244119  10.248   2.181   1.374 -0.0584 -1.7895 -1.3196
14038SOL     OW44120   0.915   7.637   7.787 -0.1441  0.0315  0.3733
14038SOL    HW144121   0.834   7.635   7.736 -0.0587 -2.1604  0.2393
14038SOL    HW244122   0.976   7.687   7.733 -1.2201  1.2273  0.2220
14039SOL     OW44123   2.824   4.078   9.195  0.0620 -0.1388 -0.0755
14039SOL    HW144124   2.762   4.151   9.187  0.2617 -0.1851 -2.8014
14039SOL    HW244125   2.885   4.090   9.123  2.7372 -0.6409  1.9639
14040SOL     OW44126   1.455   7.209   7.251  0.2236 -0.2964 -0.0694
14040SOL    HW144127   1.400   7.282   7.281 -0.1277  0.3747 -2.1871
14040SOL    HW244128   1.410   7.131   7.282 -1.5032  0.2708 -1.0196
14041SOL     OW44129   2.010   7.452   1.807 -0.4054 -0.4598  0.1056
14041SOL    HW144130   2.091   7.423   1.765  1.0712  2.0901  0.9894
14041SOL    HW244131   1.940   7.410   1.757  1.3471 -0.2430 -2.6864
14042SOL     OW44132   6.326   5.432   9.939  0.3862  0.3142 -0.3157
14042SOL    HW144133   6.309   5.363  10.004  2.9749  1.2510  1.5311
14042SOL    HW244134   6.297   5.394   9.856  0.3251 -2.4133  0.8368
14043SOL     OW44135   8.097   6.279   1.155 -0.4304 -0.2475  0.0183
14043SOL    HW144136   8.058   6.312   1.074  0.6110 -1.6923 -1.1364
14043SOL    HW244137   8.048   6.199   1.175 -0.0288 -0.4417  0.2480
14044SOL     OW44138   0.222   7.939   3.419  0.3208  0.0188 -0.0820
14044SOL    HW144139   0.223   7.980   3.505 -0.8756 -1.8071  0.8651
14044SOL    HW244140   0.266   8.002   3.362 -0.0520  1.8653  1.5684
14045SOL     OW44141   0.737   6.759   1.493  0.2129 -0.3592  0.1526
14045SOL    HW144142   0.695   6.831   1.445 -0.3349  1.2720  2.8658
14045SOL    HW244143   0.802   6.724   1.432  0.1400  2.1016 -1.4848
14046SOL     OW44144  10.822   8.228   7.252  0.2025  0.5475  0.4035
14046SOL    HW144145  10.905   8.203   7.293  0.4322 -0.4910 -0.6406
14046SOL    HW244146  10.770   8.264   7.323  0.8884 -0.4461  1.4465
14047SOL     OW44147   0.809   7.421   9.708 -0.5811  0.3937  0.1015
14047SOL    HW144148   0.776   7.373   9.784 -2.6690  1.5268  0.0028
14047SOL    HW244149   0.824   7.510   9.740  0.3173  0.4429 -0.4096
14048SOL     OW44150   9.811   5.062   5.299 -0.3336 -0.1109  0.4780
14048SOL    HW144151   9.803   4.970   5.274 -1.4987  0.0075  0.3521
14048SOL    HW244152   9.905   5.074   5.316  0.0922 -0.9031 -1.1058
14049SOL     OW44153   1.963   0.046   6.798 -0.0713  0.1133 -0.5850
14049SOL    HW144154   1.989   0.020   6.710  0.3570  0.2603 -0.5032
14049SOL    HW244155   2.034   0.016   6.854  0.0495  0.7326 -0.3919
14050SOL     OW44156   0.928   4.724   2.934  0.0855  0.1526  0.1111
14050SOL    HW144157   0.922   4.813   2.899 -0.1059  0.5585  1.1530
14050SOL    HW244158   1.020   4.712   2.954  0.6022 -0.8575 -2.4350
14051SOL     OW44159   2.093   5.383   7.114 -0.2271 -0.2844 -0.2785
14051SOL    HW144160   2.089   5.437   7.194 -0.9219 -0.5251 -0.1504
14051SOL    HW244161   2.003   5.356   7.098  0.2489 -2.3424  0.2830
14052SOL     OW44162   6.997  10.745   7.266 -0.2179  0.4132  0.3701
14052SOL    HW144163   7.042  10.727   7.184 -0.3588  0.1571  0.3503
14052SOL    HW244164   7.053  10.810   7.310  0.7618 -0.7301  0.8488
14053SOL     OW44165   0.174   4.808   7.166 -0.3022  0.1011  0.0373
14053SOL    HW144166   0.084   4.788   7.191  0.0492 -0.8928  0.5568
14053SOL    HW244167   0.166   4.884   7.108 -1.4657  0.0462  0.0951
14054SOL     OW44168   0.885   3.347   0.010  0.3436  0.0531 -0.5152
14054SOL    HW144169   0.848   3.423  -0.036  1.3721  0.0173 -1.4251
14054SOL    HW244170   0.858   3.272  -0.043  1.2509 -0.0174 -0.8871
14055SOL     OW44171   4.259   3.746   5.459  0.1206 -0.0696  0.5974
14055SOL    HW144172   4.320   3.762   5.532 -0.8454  1.3774  1.1370
14055SOL    HW244173   4.181   3.797   5.481 -1.0345 -1.3099 -0.4248
14056SOL     OW44174   3.918   1.604   8.339  0.0014  0.2266  0.1748
14056SOL    HW144175   3.951   1.660   8.409  0.4895 -0.4916  0.5354
14056SOL    HW244176   3.995   1.584   8.286 -0.3459  0.6727 -0.5060
14057SOL     OW44177   4.523  10.665   3.366 -0.4305  0.6096 -0.5548
14057SOL    HW144178   4.582  10.678   3.441  0.7430 -0.1970 -1.3075
14057SOL    HW244179   4.443  10.712   3.390  0.4217  1.5229  0.6108
14058SOL     OW44180   2.794   5.635   3.595 -0.6812 -0.4129  1.0627
14058SOL    HW144181   2.797   5.660   3.503  0.3759 -0.7093  1.0049
14058SOL    HW244182   2.845   5.554   3.600 -1.1171 -0.6577  1.8367
14059SOL     OW44183   2.241   2.092   9.085 -0.0505  0.3713  0.3947
14059SOL    HW144184   2.205   2.142   9.158 -1.5381  0.1703 -0.1639
14059SOL    HW244185   2.299   2.153   9.040 -1.8224  1.6369 -0.2722
14060SOL     OW44186   1.728   0.346   0.297 -0.6608 -0.0786 -0.1275
14060SOL    HW144187   1.656   0.334   0.359  0.4336 -0.0370  1.1975
14060SOL    HW244188   1.743   0.440   0.295 -0.4881 -0.1077 -0.2389
14061SOL     OW44189   8.158  10.008   2.562  0.3515 -0.1421  0.0533
14061SOL    HW144190   8.160   9.929   2.509 -0.0015  1.5868 -2.6931
14061SOL    HW244191   8.068  10.040   2.557  0.0815 -0.3146  2.4380
14062SOL     OW44192   7.692   6.038   6.579  0.0174 -0.1525  0.1270
14062SOL    HW144193   7.610   6.084   6.564  0.0021  0.0584  0.8270
14062SOL    HW244194   7.734   6.034   6.492 -1.9559 -2.6995 -0.8420
14063SOL     OW44195   3.777   5.944   9.305  0.1237  0.2348 -0.0433
14063SOL    HW144196   3.867   5.952   9.334  0.4330 -0.9613 -0.6309
14063SOL    HW244197   3.768   5.853   9.277 -0.8065  0.7257 -1.4765
14064SOL     OW44198   6.138   5.360   7.984 -0.2389 -0.1470  0.2678
14064SOL    HW144199   6.204   5.319   7.928  0.1283 -1.7447  1.7726
14064SOL    HW244200   6.188   5.422   8.037 -0.2162 -0.2117  0.3219
14065SOL     OW44201   0.933  10.614  10.021  0.1639 -0.5247  0.6337
14065SOL    HW144202   1.006  10.579  10.073  1.7927 -1.2755 -1.9878
14065SOL    HW244203   0.954  10.707  10.011  0.6175 -0.6778  0.1357
14066SOL     OW44204   3.142   9.324   7.781 -0.0904  0.2141 -0.1377
14066SOL    HW144205   3.086   9.356   7.853  1.6018  3.2680 -0.0247
14066SOL    HW244206   3.107   9.367   7.703  1.3136  1.2285 -0.2416
14067SOL     OW44207   0.687   3.443   6.980 -0.1286 -0.0605 -0.2209
14067SOL    HW144208   0.673   3.350   6.962  0.8125  0.1125 -2.0178
14067SOL    HW244209   0.606   3.471   7.023 -0.7746 -1.5041 -0.4352
14068SOL     OW44210   9.432   9.697   0.989  0.0612 -0.0807 -0.2832
14068SOL    HW144211   9.520   9.713   1.024  0.2045 -0.5904 -0.4038
14068SOL    HW244212   9.428   9.602   0.978 -0.6377 -0.0961  0.0628
14069SOL     OW44213  10.802   5.326  10.376 -0.4516 -0.0790  0.1002
14069SOL    HW144214  10.879   5.355  10.327 -0.0464 -1.5873 -0.1942
14069SOL    HW244215  10.827   5.337  10.468 -0.4512  0.8279 -0.0028
14070SOL     OW44216  10.513   8.197   4.810  0.7163 -0.8625  0.3852
14070SOL    HW144217  10.597   8.171   4.771 -0.0660 -4.1046  0.6054
14070SOL    HW244218  10.530   8.198   4.905  0.8303 -0.2166  0.3578
14071SOL     OW44219   1.529   5.729   0.070  0.9359  0.5580  0.2287
14071SOL    HW144220   1.464   5.745   0.138  0.8705  1.2125  0.0222
14071SOL    HW244221   1.507   5.643   0.035  0.5235  0.5331  0.5419
14072SOL     OW44222   4.198  10.034   6.579 -0.5345  0.6094 -0.1440
14072SOL    HW144223   4.127   9.978   6.545 -1.4397  1.0564  0.9291
14072SOL    HW244224   4.267   9.973   6.603 -2.0896 -0.2951  2.4316
14073SOL     OW44225   7.768   2.378   7.016 -0.6317 -0.1614  0.1053
14073SOL    HW144226   7.723   2.322   7.079 -2.0996  0.4661 -0.3552
14073SOL    HW244227   7.741   2.467   7.038 -0.6591  0.1238 -0.9883
14074SOL     OW44228   1.242   0.630   3.839 -0.1024 -0.3931 -0.1805
14074SOL    HW144229   1.182   0.693   3.797  0.3029 -1.3204 -2.2779
14074SOL    HW244230   1.327   0.674   3.838 -0.4773  0.4512  1.7244
14075SOL     OW44231   0.439   9.434   2.975 -0.6762 -0.3976  0.4788
14075SOL    HW144232   0.460   9.366   3.038  0.9231 -0.0479  0.3576
14075SOL    HW244233   0.347   9.419   2.954 -0.6787 -1.7772  1.3409
14076SOL     OW44234   8.253  10.076   9.519  0.1995  0.3084 -0.0114
14076SOL    HW144235   8.163  10.098   9.540  0.5689  1.8316  0.0852
14076SOL    HW244236   8.300  10.084   9.603  0.2163 -1.8804  0.2612
14077SOL     OW44237   1.449   7.849   8.571  0.3962  0.1395  0.5735
14077SOL    HW144238   1.478   7.858   8.480 -2.7058 -0.7370 -0.6591
14077SOL    HW244239   1.503   7.779   8.607  0.8972 -0.3192 -0.9820
14078SOL     OW44240   6.497  10.466  10.065  0.3233  0.5108 -0.1534
14078SOL    HW144241   6.436  10.518  10.013  0.0312  1.2185  0.8630
14078SOL    HW244242   6.502  10.512  10.149  0.9230 -0.4949  0.3813
14079SOL     OW44243   8.353   3.141   4.847 -0.0815  0.8169  0.1845
14079SOL    HW144244   8.369   3.232   4.819  2.0746  0.2811 -0.4938
14079SOL    HW244245   8.269   3.145   4.894 -0.1123  3.1247  0.0508
14080SOL     OW44246   6.173   1.318   1.685  0.4391 -0.4736  0.0622
14080SOL    HW144247   6.153   1.355   1.771  0.3457 -2.1839  0.8162
14080SOL    HW244248   6.089   1.315   1.640 -0.0209 -2.0203  0.9454
14081SOL     OW44249   5.552   0.813   0.875 -0.2725 -0.8631  0.2650
14081SOL    HW144250   5.634   0.819   0.925  0.2154 -0.9448 -0.5159
14081SOL    HW244251   5.572   0.752   0.804 -2.0982 -3.9396  2.1913
14082SOL     OW44252   8.533   4.137   5.934 -0.1848 -0.2329 -0.2791
14082SOL    HW144253   8.460   4.169   5.882 -0.2366 -0.1719 -0.1694
14082SOL    HW244254   8.492   4.092   6.008 -0.1839  2.2404  1.3551
14083SOL     OW44255   0.542   5.769   2.907 -0.3865  0.1156 -1.0129
14083SOL    HW144256   0.447   5.758   2.906 -0.4599  0.7666 -1.6528
14083SOL    HW244257   0.556   5.852   2.953 -0.1261  0.0527 -0.9772
14084SOL     OW44258   1.278   0.316   6.642  0.3248  0.0229  0.0675
14084SOL    HW144259   1.291   0.222   6.637 -0.1266 -0.0890  0.8903
14084SOL    HW244260   1.297   0.339   6.733  0.4224  0.7268 -0.1226
14085SOL     OW44261   5.658   0.698   0.650  0.2345 -0.3171  0.6612
14085SOL    HW144262   5.672   0.605   0.633 -0.4926 -0.2817 -0.2572
14085SOL    HW244263   5.665   0.740   0.564  0.7054  0.5022  1.0838
14086SOL     OW44264   1.500   9.091   7.355  0.6175 -0.4094  0.3510
14086SOL    HW144265   1.561   9.041   7.409  1.7683  2.0356  1.4802
14086SOL    HW244266   1.475   9.030   7.285  0.6557 -3.0236  2.4339
14087SOL     OW44267   0.170   0.921   6.640  0.2255 -0.1156 -0.2686
14087SOL    HW144268   0.191   0.889   6.552 -1.0880 -0.8627 -0.3302
14087SOL    HW244269   0.174   1.016   6.632 -0.3024 -0.1619 -1.2512
14088SOL     OW44270  10.572   1.821   2.199  0.2243  0.3246 -0.6252
14088SOL    HW144271  10.638   1.886   2.177 -0.4461  1.0286 -0.5978
14088SOL    HW244272  10.544   1.844   2.288 -0.1417  0.1006 -0.6790
14089SOL     OW44273   4.983   6.860   2.248 -0.1505 -0.0412  0.8095
14089SOL    HW144274   5.025   6.805   2.181  2.1878  2.0819  0.3674
14089SOL    HW244275   4.902   6.889   2.208 -0.4057 -1.4327  0.2430
14090SOL     OW44276   1.479   9.695   0.026  0.2875  0.5790 -0.4674
14090SOL    HW144277   1.528   9.773   0.049 -0.2125  0.9214 -0.5418
14090SOL    HW244278   1.388   9.724   0.022  0.3517  0.6157 -3.1081
14091SOL     OW44279   2.423   6.931   9.670  0.1616 -0.6625  0.0667
14091SOL    HW144280   2.417   6.981   9.752  0.3285 -0.0682 -0.2772
14091SOL    HW244281   2.359   6.973   9.613 -0.3015 -1.3793  0.0372
14092SOL     OW44282   9.837   5.775   2.385  0.4334 -0.6299 -0.6930
14092SOL    HW144283   9.898   5.828   2.333  1.2675 -0.0717  0.7890
14092SOL    HW244284   9.812   5.833   2.458 -1.3077 -1.1118 -0.8534
14093SOL     OW44285   5.208  10.891  10.184 -0.1363 -0.7828  0.2323
14093SOL    HW144286   5.293  10.931  10.167 -0.0125 -1.6228 -1.3058
14093SOL    HW244287   5.148  10.965  10.193  0.8067 -0.1503  1.9171
14094SOL     OW44288   9.034   0.082   0.188 -0.2742  0.9578  0.6804
14094SOL    HW144289   9.125   0.086   0.217 -0.6042  1.7256  1.6454
14094SOL    HW244290   9.019  -0.010   0.167  0.4853  0.6932  1.2745
14095SOL     OW44291   1.474   7.042   9.379  0.2775 -0.1725 -0.0758
14095SOL    HW144292   1.433   7.098   9.313 -1.0418 -0.6819  0.2830
14095SOL    HW244293   1.554   7.088   9.404 -0.5362  1.3104 -0.1348
14096SOL     OW44294   6.588   9.003   7.201 -0.3068  0.2099  0.8623
14096SOL    HW144295   6.538   8.998   7.282 -0.9050  1.0260  0.5650
14096SOL    HW244296   6.677   9.024   7.228 -0.9361  2.7296  1.2459
14097SOL     OW44297   1.604   3.383  10.312  0.1103 -0.3931 -0.6234
14097SOL    HW144298   1.546   3.307  10.321  0.1070 -0.3566 -0.3143
14097SOL    HW244299   1.545   3.457  10.297 -0.1536  0.0925  2.2812
14098SOL     OW44300   4.965   0.781   6.143  0.2198 -0.1216 -0.0052
14098SOL    HW144301   4.920   0.736   6.072 -0.7060  1.4423 -0.4575
14098SOL    HW244302   5.054   0.745   6.142  0.4710  0.3868 -2.4612
14099SOL     OW44303   4.105   3.266   6.770 -0.1978 -0.7551  0.3416
14099SOL    HW144304   4.051   3.201   6.724 -1.8614  0.8198 -0.0283
14099SOL    HW244305   4.043   3.312   6.827  0.7228  1.2001 -0.1741
14100SOL     OW44306   9.541   6.984   2.404 -0.0298  0.3952  0.2664
14100SOL    HW144307   9.452   6.950   2.394 -0.0549  0.7519 -0.9134
14100SOL    HW244308   9.560   6.975   2.497 -0.7993 -0.9278  0.3185
14101SOL     OW44309   3.399   3.264   1.094 -0.3808  0.3386  0.0342
14101SOL    HW144310   3.336   3.335   1.107  1.2371  1.9010 -0.3172
14101SOL    HW244311   3.480   3.296   1.134  0.6634 -0.8859 -1.0259
14102SOL     OW44312   3.989   2.518  10.606  0.3432 -0.1505 -0.5414
14102SOL    HW144313   4.077   2.547  10.582 -0.2546  0.7777 -1.7275
14102SOL    HW244314   3.949   2.596  10.646  0.5061 -0.9802  1.3395
14103SOL     OW44315   0.203   1.353   6.439 -0.5990  0.2437  0.5788
14103SOL    HW144316   0.258   1.293   6.389  0.5661  0.6935  1.2971
14103SOL    HW244317   0.187   1.427   6.381 -0.1280  0.2818  0.4968
14104SOL     OW44318  10.442   8.034   5.315  0.0902 -0.0242  0.2084
14104SOL    HW144319  10.451   8.116   5.364 -1.1557  0.8139 -0.8949
14104SOL    HW244320  10.529   7.994   5.320  0.7106  1.3115  0.8475
14105SOL     OW44321   8.196  10.122   2.122 -0.2300  0.1970 -0.2074
14105SOL    HW144322   8.256  10.196   2.133  0.3361  0.0075 -1.7203
14105SOL    HW244323   8.246  10.059   2.070  0.0759 -2.1847  2.6779
14106SOL     OW44324   4.674   2.685   4.482 -0.1777 -0.1123  0.4162
14106SOL    HW144325   4.600   2.626   4.464 -0.5163  0.0428  1.2167
14106SOL    HW244326   4.653   2.765   4.434 -0.0912 -0.3727 -0.0636
14107SOL     OW44327   7.799   7.780   6.326  0.6158  0.3791 -0.1687
14107SOL    HW144328   7.738   7.807   6.257 -0.0164  1.0567  0.6279
14107SOL    HW244329   7.838   7.699   6.293  0.4862  0.7853 -1.4048
14108SOL     OW44330   3.038   1.548   4.121  0.5802  0.4681  0.3121
14108SOL    HW144331   2.963   1.604   4.140 -0.0986 -0.1651 -0.3953
14108SOL    HW244332   3.058   1.504   4.203 -0.0769  0.3502  0.4096
14109SOL     OW44333   8.876   2.939   2.795 -0.1298 -0.0513  0.1879
14109SOL    HW144334   8.848   2.959   2.884  1.1723 -1.0685  0.8775
14109SOL    HW244335   8.934   3.011   2.771 -0.3050  0.1126  0.2574
14110SOL     OW44336   5.110   9.283   4.200  0.0914 -0.0260  0.0851
14110SOL    HW144337   5.177   9.227   4.160  2.7014  3.2306 -0.5407
14110SOL    HW244338   5.146   9.304   4.287 -1.5860 -0.4852  0.9299
14111SOL     OW44339   3.459   8.315   9.689  0.0709 -0.2155 -1.1522
14111SOL    HW144340   3.547   8.332   9.654  0.3514  1.8282  0.4000
14111SOL    HW244341   3.444   8.384   9.753 -2.3719 -0.9951 -0.7666
14112SOL     OW44342   9.910   6.729   7.243 -0.0481  0.3037 -0.4977
14112SOL    HW144343   9.868   6.797   7.190  0.1837  0.9450  0.1268
14112SOL    HW244344  10.004   6.748   7.235  0.0977 -0.6696 -1.2827
14113SOL     OW44345   3.789   4.956   0.956  0.5671  0.1660 -0.3318
14113SOL    HW144346   3.718   4.892   0.950  2.1047 -1.7572  0.7059
14113SOL    HW244347   3.782   5.007   0.875 -1.2343 -0.7643 -0.8199
14114SOL     OW44348   2.893   1.803   9.368 -0.0792  0.2619 -0.0451
14114SOL    HW144349   2.925   1.747   9.439 -0.5919 -0.4122 -0.3358
14114SOL    HW244350   2.800   1.782   9.361 -0.1566  0.7565 -0.5293
14115SOL     OW44351  10.010   5.325   3.148 -0.4539  0.7276 -0.0638
14115SOL    HW144352  10.064   5.391   3.191  0.7198  0.5058 -1.1210
14115SOL    HW244353   9.984   5.265   3.218 -1.0965  2.0029  0.8177
14116SOL     OW44354  10.395   8.605   0.092 -0.2662  0.2071  0.0804
14116SOL    HW144355  10.483   8.643   0.089 -0.2323  0.1695  0.4737
14116SOL    HW244356  10.366   8.604   0.001  0.6881 -1.0780 -0.2387
14117SOL     OW44357   4.554   4.394   6.181 -0.4310  0.1180 -0.4442
14117SOL    HW144358   4.547   4.426   6.091  0.7826  1.4760 -0.0963
14117SOL    HW244359   4.580   4.471   6.232  0.2091 -0.9103  0.8518
14118SOL     OW44360   3.585   2.837   8.114  0.9892  0.8017 -0.5187
14118SOL    HW144361   3.555   2.785   8.040 -0.5328  0.8383  0.0339
14118SOL    HW244362   3.674   2.808   8.129  1.0855  0.2954 -1.9181
14119SOL     OW44363   0.281  10.617   8.832 -0.1182  0.2849 -0.0101
14119SOL    HW144364   0.352  10.678   8.848 -1.3303  1.8549 -0.3936
14119SOL    HW244365   0.271  10.615   8.737 -2.0652  1.9334  0.0951
14120SOL     OW44366   9.668   0.756   0.621 -0.3075 -0.3646 -0.5729
14120SOL    HW144367   9.646   0.840   0.582 -2.1575 -1.0308 -1.0410
14120SOL    HW244368   9.731   0.777   0.690  0.9967  1.1290 -2.1197
14121SOL     OW44369   0.262   4.027   6.986 -0.0034  0.6133  0.1395
14121SOL    HW144370   0.217   3.943   6.998  1.2733 -0.1054  0.0884
14121SOL    HW244371   0.351   4.011   7.018  0.0045  2.2370  1.0483
14122SOL     OW44372   1.001   8.150   4.107  0.5075  0.0297  0.0932
14122SOL    HW144373   1.044   8.092   4.169  0.9388  0.7798  0.5019
14122SOL    HW244374   1.072   8.192   4.058  0.1731 -1.3949 -1.7391
14123SOL     OW44375   7.225   4.072  10.809 -0.0428  0.1369  0.5401
14123SOL    HW144376   7.232   4.047  10.902  2.2201 -0.2397  0.3342
14123SOL    HW244377   7.242   3.991  10.762  0.4799  0.6726 -0.2018
14124SOL     OW44378   9.556   4.240   9.453  0.1505  0.3837  0.1683
14124SOL    HW144379   9.616   4.197   9.514 -1.5305 -1.2312  0.7691
14124SOL    HW244380   9.607   4.247   9.372  1.3127 -0.5016  0.7830
14125SOL     OW44381  10.827   2.268   0.551 -0.2560 -0.5823 -0.0017
14125SOL    HW144382  10.770   2.259   0.474 -0.7584 -0.7512  0.3864
14125SOL    HW244383  10.863   2.356   0.543  1.8239 -1.4877 -1.8720
14126SOL     OW44384   7.222  10.132   4.751  0.0712  0.3089  0.0113
14126SOL    HW144385   7.174  10.148   4.833  1.9857  3.0091  0.7502
14126SOL    HW244386   7.271  10.052   4.767  1.2866  1.3678  2.0292
14127SOL     OW44387   3.530   1.535   6.646  0.5786 -0.3172 -0.5049
14127SOL    HW144388   3.436   1.520   6.645  0.2545  1.4261  0.3459
14127SOL    HW244389   3.549   1.566   6.734  2.0278 -0.9660 -0.5485
14128SOL     OW44390  10.412   5.469   7.113  0.1193 -0.3208  0.3442
14128SOL    HW144391  10.480   5.428   7.059 -0.4295 -0.5668 -0.1738
14128SOL    HW244392  10.422   5.563   7.097  0.6063 -0.3239  0.6005
14129SOL     OW44393   9.371   6.528   9.146 -0.1343  0.1592 -0.0192
14129SOL    HW144394   9.417   6.447   9.124 -0.8729 -0.1727 -0.3870
14129SOL    HW244395   9.375   6.580   9.066 -0.9672 -0.1501 -0.2683
14130SOL     OW44396   4.447   6.757   8.037 -0.0283 -0.4762  0.1845
14130SOL    HW144397   4.487   6.843   8.051 -1.4568  0.1948  0.3651
14130SOL    HW244398   4.481   6.703   8.108  0.7481 -0.0131  0.1770
14131SOL     OW44399   5.810   1.256   1.183 -0.7399 -0.3823  0.2077
14131SOL    HW144400   5.845   1.209   1.259  1.1215  0.2254 -0.2390
14131SOL    HW244401   5.828   1.348   1.201 -1.6801 -0.0942 -0.2812
14132SOL     OW44402   2.098  10.765   2.257  0.2377  0.4451  0.3829
14132SOL    HW144403   2.023  10.796   2.206  0.5014  1.7145  0.7332
14132SOL    HW244404   2.140  10.700   2.201  0.5334  1.8239 -1.0443
14133SOL     OW44405   2.458   3.097   0.912 -0.1862  0.3553 -0.1666
14133SOL    HW144406   2.491   3.179   0.875 -2.5378  0.6454 -1.8413
14133SOL    HW244407   2.438   3.119   1.004  0.3321  1.3165 -0.2736
14134SOL     OW44408   6.125   4.243   6.163 -0.0053 -0.2579 -0.1931
14134SOL    HW144409   6.164   4.193   6.091  0.5232 -0.7028  0.3889
14134SOL    HW244410   6.132   4.334   6.136 -0.0098 -0.4311 -0.7974
14135SOL     OW44411   6.463   4.031   9.398  0.1876  0.1949 -0.3285
14135SOL    HW144412   6.549   4.053   9.363  0.5804  0.1869  0.6138
14135SOL    HW244413   6.403   4.086   9.348  0.4346 -1.5680 -2.7549
14136SOL     OW44414   2.743  10.111   3.919 -0.3090 -0.2487  0.3690
14136SOL    HW144415   2.767  10.199   3.888 -2.5244  0.7134  1.1539
14136SOL    HW244416   2.726  10.061   3.840 -1.5730  0.8377 -0.0632
14137SOL     OW44417   5.117   2.549   7.149  0.6733  0.1459 -0.2061
14137SOL    HW144418   5.127   2.644   7.139 -0.7332  0.2916 -0.4958
14137SOL    HW244419   5.202   2.518   7.179  0.9596  1.5958  0.5433
14138SOL     OW44420   2.252   6.659   6.796 -0.2807  0.0956 -0.4850
14138SOL    HW144421   2.232   6.738   6.847 -1.2993  0.9379 -2.1163
14138SOL    HW244422   2.347   6.650   6.802 -0.4398 -1.1256  3.3376
14139SOL     OW44423   1.971   3.746   8.488  0.1013 -0.0922 -0.5656
14139SOL    HW144424   1.903   3.712   8.430  0.5774 -0.9121 -0.6581
14139SOL    HW244425   2.010   3.668   8.527  1.1832  0.3596 -0.7273
14140SOL     OW44426   1.560   0.982   5.225 -0.0988  0.2651 -0.1702
14140SOL    HW144427   1.474   0.977   5.268  0.9653 -1.3584  1.9505
14140SOL    HW244428   1.611   1.040   5.281  0.5555  0.3143 -0.8049
14141SOL     OW44429   8.148   1.280  10.287 -0.2670 -0.1325 -0.0713
14141SOL    HW144430   8.070   1.234  10.257  0.0779 -0.3175 -0.7124
14141SOL    HW244431   8.197   1.214  10.338 -0.2875 -0.1676 -0.0969
14142SOL     OW44432   4.173   3.811  10.284  0.0316  0.0161  0.0455
14142SOL    HW144433   4.080   3.814  10.307  0.1677  0.0292  0.6033
14142SOL    HW244434   4.215   3.872  10.344  0.5984 -1.0536  0.7617
14143SOL     OW44435   7.818   9.195   0.855  0.2318  0.1917  0.8635
14143SOL    HW144436   7.908   9.175   0.832  0.4292 -0.7801  2.3083
14143SOL    HW244437   7.765   9.137   0.800  0.4082  1.3225 -0.5609
14144SOL     OW44438  10.526   6.609   1.636 -0.1326  0.4982  0.3623
14144SOL    HW144439  10.435   6.623   1.610  0.3479  0.1941 -1.5793
14144SOL    HW244440  10.519   6.562   1.720 -1.7580 -0.0421 -0.0308
14145SOL     OW44441   7.338   6.196   1.703 -0.3230 -0.3616 -0.0677
14145SOL    HW144442   7.397   6.160   1.770 -1.4538 -0.7273  0.7728
14145SOL    HW244443   7.318   6.284   1.735 -0.6792 -0.4517 -0.0404
14146SOL     OW44444   9.558   2.250   3.480 -0.0167  0.5286  0.7536
14146SOL    HW144445   9.609   2.170   3.467 -3.2465 -1.9998  2.2424
14146SOL    HW244446   9.543   2.254   3.574 -0.3636  2.7062  0.6674
14147SOL     OW44447   9.301   0.869   0.648  0.1950 -0.0108  0.2477
14147SOL    HW144448   9.313   0.909   0.561 -0.6303 -0.4336 -0.0736
14147SOL    HW244449   9.221   0.818   0.639 -0.4414  0.7105  1.5447
14148SOL     OW44450  10.595   9.223   5.826  0.1328 -0.3886 -0.1753
14148SOL    HW144451  10.526   9.170   5.866  0.4502 -2.0197 -1.6643
14148SOL    HW244452  10.673   9.168   5.830  0.8821  0.6241 -0.3278
14149SOL     OW44453   9.757   3.505   4.680  0.4498 -0.1869 -0.8717
14149SOL    HW144454   9.694   3.491   4.608 -1.0581 -3.4846  0.8525
14149SOL    HW244455   9.710   3.477   4.758  2.4327  2.1404  1.3165
14150SOL     OW44456   5.754   4.041   7.999 -0.0562 -0.1380 -0.0773
14150SOL    HW144457   5.676   4.007   8.042 -0.2348 -1.2208 -1.2203
14150SOL    HW244458   5.827   3.997   8.043 -0.2028 -0.7502 -0.4426
14151SOL     OW44459   1.068   3.941   3.379 -0.6260  0.5906  0.8447
14151SOL    HW144460   1.037   3.853   3.398  1.3133 -0.5923 -1.0661
14151SOL    HW244461   1.163   3.934   3.376 -0.4605  2.4599 -0.5006
14152SOL     OW44462   2.906   3.528   4.611  0.5799 -0.1665  0.0531
14152SOL    HW144463   2.928   3.572   4.529 -0.3946  1.1929  0.4879
14152SOL    HW244464   2.930   3.591   4.679 -0.6352 -0.3752  0.7067
14153SOL     OW44465   6.533   7.946   4.329  0.2898 -0.6649 -0.0065
14153SOL    HW144466   6.628   7.955   4.338  0.1870 -1.1449  2.1005
14153SOL    HW244467   6.503   8.033   4.301  1.4457 -0.8779 -2.1021
14154SOL     OW44468   7.499   0.145   0.089  0.3254  0.2027 -0.7146
14154SOL    HW144469   7.464   0.229   0.058  0.4032  0.6934  0.4675
14154SOL    HW244470   7.512   0.094   0.009  0.0948  1.2428 -1.4471
14155SOL     OW44471   7.207   5.570  10.253 -0.5847  0.2104 -0.1660
14155SOL    HW144472   7.156   5.632  10.202 -0.7376  0.1406 -0.0994
14155SOL    HW244473   7.277   5.543  10.195  0.2730  1.4497  0.2490
14156SOL     OW44474   3.694   3.594   3.055 -0.0376 -0.9768  0.1328
14156SOL    HW144475   3.784   3.570   3.032 -0.1528 -0.6070 -0.7487
14156SOL    HW244476   3.639   3.543   2.994 -0.5001 -2.2177  1.5353
14157SOL     OW44477   6.694   5.191   2.894  0.3792  0.4206 -0.0746
14157SOL    HW144478   6.780   5.234   2.898  0.4620  0.2922 -0.4390
14157SOL    HW244479   6.668   5.198   2.803 -0.3191  1.0765  0.1670
14158SOL     OW44480   7.006  10.062  10.774  0.0855  0.5487 -0.4749
14158SOL    HW144481   7.086  10.009  10.770  0.1901  0.4758  1.4987
14158SOL    HW244482   6.959  10.028  10.851 -0.9452  1.8172 -0.5084
14159SOL     OW44483   7.707   8.533   2.540  0.0948 -0.0260  0.5425
14159SOL    HW144484   7.752   8.576   2.613 -2.1458  2.1928  0.7657
14159SOL    HW244485   7.665   8.457   2.580  1.6512 -0.7917  0.7944
14160SOL     OW44486   9.042   3.691  10.690 -0.6813 -0.0475 -0.4381
14160SOL    HW144487   8.977   3.692  10.760 -0.2057  0.1514  0.0040
14160SOL    HW244488   9.102   3.620  10.713 -0.2300  0.3477 -0.3673
14161SOL     OW44489   2.684   8.726   5.731  0.2651 -0.4111  0.5191
14161SOL    HW144490   2.620   8.738   5.801  0.7349  0.3225  0.8345
14161SOL    HW244491   2.662   8.794   5.667 -0.3592 -1.2720 -0.2107
14162SOL     OW44492   2.814   1.192   7.539  0.1531 -0.0419 -0.5934
14162SOL    HW144493   2.900   1.150   7.538 -0.9697 -2.4787 -1.3589
14162SOL    HW244494   2.800   1.224   7.450  0.1731  0.1695 -0.5221
14163SOL     OW44495   3.582   8.709   5.029 -0.5869 -0.2020 -0.1924
14163SOL    HW144496   3.600   8.634   4.973 -0.3538 -0.0822 -0.2813
14163SOL    HW244497   3.570   8.672   5.116 -1.6870 -0.4700 -0.4471
14164SOL     OW44498   6.878   6.666   0.047  0.3182 -0.4631 -0.0522
14164SOL    HW144499   6.831   6.615   0.114  1.5336 -0.3506  0.9116
14164SOL    HW244500   6.809   6.715   0.003 -0.6394 -1.3590  0.3893
14165SOL     OW44501   4.114   7.415   5.304 -0.1379 -0.4531  0.3941
14165SOL    HW144502   4.193   7.468   5.293 -0.7937  0.2276 -1.5782
14165SOL    HW244503   4.098   7.415   5.398  2.7169 -1.4095  0.9814
14166SOL     OW44504   9.485   0.356   0.937 -0.6290  0.0810 -0.4697
14166SOL    HW144505   9.468   0.356   0.843 -2.3230  0.4251 -0.1948
14166SOL    HW244506   9.463   0.444   0.966 -0.5850 -0.1572  0.3222
14167SOL     OW44507   6.422   9.228   8.123  0.0959 -0.3790 -0.0820
14167SOL    HW144508   6.377   9.312   8.125 -1.7853 -1.2265 -2.1104
14167SOL    HW244509   6.490   9.239   8.057 -0.9594 -0.7392 -1.2811
14168SOL     OW44510   2.384   8.722   9.957 -0.6034 -0.1833  0.2520
14168SOL    HW144511   2.455   8.657   9.960 -0.3381  0.1076  0.3077
14168SOL    HW244512   2.398   8.769   9.875 -0.1508  0.5247  0.7292
14169SOL     OW44513   2.964   6.554   9.514 -0.4642 -0.1099 -0.2376
14169SOL    HW144514   2.978   6.524   9.603  1.2018  1.1704 -0.0113
14169SOL    HW244515   2.910   6.632   9.523 -0.4340 -0.0750 -0.3565
14170SOL     OW44516   4.054   9.380   1.040  0.1645 -0.0215  0.1272
14170SOL    HW144517   4.147   9.356   1.045  0.4145  1.1073  3.4703
14170SOL    HW244518   4.009   9.297   1.023  1.6552 -0.9351  0.3899
14171SOL     OW44519  10.951   0.620   7.336 -0.2534  0.5092  0.1573
14171SOL    HW144520  10.992   0.568   7.267 -0.5437 -0.0057  0.3652
14171SOL    HW244521  10.860   0.590   7.337 -0.1805  0.2826  0.9769
14172SOL     OW44522   1.005   8.232   9.638 -0.0241  0.0938 -0.3267
14172SOL    HW144523   0.926   8.195   9.676  0.8448 -0.3244  1.1459
14172SOL    HW244524   1.009   8.193   9.550 -1.4105  0.1041 -0.4167
14173SOL     OW44525   1.071   2.656   2.107  0.2385 -0.5849  0.4724
14173SOL    HW144526   0.976   2.671   2.105  0.2560 -0.3709  1.0689
14173SOL    HW244527   1.104   2.720   2.170  0.9932  0.4863 -0.9715
14174SOL     OW44528   2.341   2.584   9.662  0.1450  0.2880 -0.2482
14174SOL    HW144529   2.301   2.497   9.673  1.5208 -0.2150  1.0956
14174SOL    HW244530   2.421   2.567   9.614 -0.3271  1.0529 -1.3480
14175SOL     OW44531   6.565   3.910   8.559 -0.7408  0.7129 -0.2809
14175SOL    HW144532   6.506   3.898   8.485 -1.2027  1.7094 -0.0916
14175SOL    HW244533   6.601   3.998   8.547  3.5199 -1.0025 -2.3898
14176SOL     OW44534   4.692   7.423   4.912  0.2679  0.2774  0.2395
14176SOL    HW144535   4.696   7.328   4.927 -0.2111  0.1761 -0.2460
14176SOL    HW244536   4.601   7.446   4.929  0.3894  0.6559  0.3748
14177SOL     OW44537   4.317  10.463   8.171  0.3160  0.2792  0.5188
14177SOL    HW144538   4.389  10.514   8.135  0.1802 -0.0321 -0.2144
14177SOL    HW244539   4.249  10.466   8.103 -1.1050  2.0954  1.8980
14178SOL     OW44540   4.244   6.510   8.684  0.0451 -0.6254  0.5680
14178SOL    HW144541   4.211   6.600   8.677 -1.1197 -1.0728  0.0774
14178SOL    HW244542   4.290   6.508   8.768  2.7270  1.2198 -0.7240
14179SOL     OW44543   1.395   8.336   2.821 -0.2400 -0.1865 -0.5190
14179SOL    HW144544   1.408   8.285   2.901  0.0588 -0.3388 -0.6645
14179SOL    HW244545   1.302   8.324   2.800  0.2006 -2.1381 -1.5417
14180SOL     OW44546  10.163   9.130   3.485  0.0601 -0.3640 -0.4985
14180SOL    HW144547  10.191   9.122   3.576  0.7164 -0.9803 -0.7459
14180SOL    HW244548  10.200   9.053   3.442  0.4597  0.3547 -1.4658
14181SOL     OW44549   0.057   4.928   8.584  0.5987  0.0020 -0.0671
14181SOL    HW144550  -0.014   4.981   8.549 -0.0817 -0.4916  0.5229
14181SOL    HW244551   0.071   4.860   8.518  0.3021 -0.0778 -0.0531
14182SOL     OW44552   6.263   8.105   7.562 -0.4521 -0.3067  0.4302
14182SOL    HW144553   6.328   8.051   7.517 -1.1482 -0.4971 -0.3841
14182SOL    HW244554   6.241   8.056   7.641  0.6007 -0.0942  0.8687
14183SOL     OW44555   5.406   8.505   9.235  0.1990 -0.0169 -0.3852
14183SOL    HW144556   5.367   8.426   9.197 -0.3583  0.6323 -1.2063
14183SOL    HW244557   5.331   8.558   9.263  0.5719 -1.0371  2.9553
14184SOL     OW44558   6.322   1.075   7.311 -0.0095 -0.1571  0.3936
14184SOL    HW144559   6.266   1.068   7.234  0.7049  0.0744 -0.1588
14184SOL    HW244560   6.376   0.996   7.309 -1.9677 -1.6682  2.3052
14185SOL     OW44561   2.969   2.562   0.275 -0.4165  0.8245  0.1423
14185SOL    HW144562   2.967   2.559   0.180  1.7640 -3.4068  0.0140
14185SOL    HW244563   3.055   2.601   0.295  1.1390 -2.3122  0.1060
14186SOL     OW44564   5.890  10.547   9.727 -0.3188 -0.1284 -0.1114
14186SOL    HW144565   5.842  10.590   9.657 -1.3415  1.1083  1.2683
14186SOL    HW244566   5.909  10.460   9.693 -1.8410  0.0150 -1.4703
14187SOL     OW44567   1.504   0.834   4.158  0.4808  0.7077  0.1330
14187SOL    HW144568   1.566   0.868   4.094  0.6579 -0.7224 -0.4920
14187SOL    HW244569   1.522   0.740   4.163 -0.0801  0.6372  1.6791
14188SOL     OW44570   2.947   4.238   3.363  0.3055 -0.1667  0.6942
14188SOL    HW144571   2.907   4.279   3.287  0.5596 -1.0667  0.0493
14188SOL    HW244572   2.878   4.236   3.429 -0.3243 -0.5573  0.0298
14189SOL     OW44573   4.956   9.819   0.572 -0.5158 -0.0558  0.4736
14189SOL    HW144574   4.964   9.727   0.550 -1.7450 -0.2780  0.8392
14189SOL    HW244575   4.872   9.845   0.533  1.6840  2.0642 -3.4141
14190SOL     OW44576   4.494   2.059   8.245  0.7691  0.1722 -0.4387
14190SOL    HW144577   4.511   2.078   8.153  0.5744 -1.1663 -0.7667
14190SOL    HW244578   4.503   2.144   8.289  1.6476  0.6812 -1.5656
14191SOL     OW44579   8.905   9.090   7.553  0.0219  0.4281 -0.2191
14191SOL    HW144580   8.924   9.061   7.643 -0.8223 -0.0498 -0.1778
14191SOL    HW244581   8.919   9.184   7.555 -0.0646  0.4354  0.4419
14192SOL     OW44582   3.800   1.266   2.048  0.4532  0.4037  0.5395
14192SOL    HW144583   3.777   1.272   2.140  0.9016  0.0020  0.6760
14192SOL    HW244584   3.740   1.328   2.005  1.6562  2.2198  1.3423
14193SOL     OW44585  10.085   6.583   1.900 -0.0533 -0.5472 -0.5863
14193SOL    HW144586  10.153   6.516   1.898 -1.8168 -2.4451 -2.3568
14193SOL    HW244587  10.058   6.593   1.808 -1.0720  1.3209 -0.1489
14194SOL     OW44588   4.775   9.566   5.909 -0.1751  0.2341  0.1298
14194SOL    HW144589   4.842   9.526   5.854 -0.4250  1.7177 -1.3192
14194SOL    HW244590   4.823   9.602   5.984  0.7478  1.5990 -1.0675
14195SOL     OW44591   1.066   7.235   4.929 -1.1569  0.7154 -0.4885
14195SOL    HW144592   1.151   7.248   4.969 -0.3091 -2.6346 -0.8959
14195SOL    HW244593   1.009   7.208   5.001 -1.0214 -0.0438 -0.6493
14196SOL     OW44594   7.493   3.805   5.220 -0.3545  0.2872  0.9913
14196SOL    HW144595   7.576   3.836   5.257 -1.1639  1.5475  1.8202
14196SOL    HW244596   7.431   3.809   5.294 -1.1099 -0.8823  0.4559
14197SOL     OW44597   0.900   7.952   2.919  0.1886  0.0161  0.7504
14197SOL    HW144598   0.871   8.037   2.953 -0.2354  0.0054  0.4244
14197SOL    HW244599   0.821   7.899   2.915  0.2634 -0.0534 -0.0443
14198SOL     OW44600   5.414   0.609   9.214 -0.0590 -0.1852  0.1204
14198SOL    HW144601   5.426   0.693   9.258 -0.7559  0.2130 -0.4468
14198SOL    HW244602   5.501   0.569   9.215  0.1319  0.2278  1.0137
14199SOL     OW44603   3.149   8.788   8.718  0.4361  0.4548 -0.0062
14199SOL    HW144604   3.190   8.772   8.803  0.0748 -1.0895 -0.0913
14199SOL    HW244605   3.220   8.779   8.655  0.4462  0.2396  0.0345
14200SOL     OW44606   3.143   4.983   0.602 -0.0553  0.0128  0.7479
14200SOL    HW144607   3.078   5.025   0.658 -1.1925 -0.3513 -0.2622
14200SOL    HW244608   3.104   4.899   0.578  0.1857  0.3307 -0.9181
14201SOL     OW44609  10.039   2.085   2.227 -0.0743 -0.7267  0.0717
14201SOL    HW144610  10.022   2.174   2.197  0.9956 -0.5214  0.0425
14201SOL    HW244611  10.060   2.095   2.320 -2.0940 -1.2156  0.6478
14202SOL     OW44612   1.518   4.768   3.324  0.0362 -0.3042  0.0835
14202SOL    HW144613   1.541   4.807   3.409 -0.4480 -1.2764  0.6894
14202SOL    HW244614   1.586   4.702   3.308  1.1150  1.0638 -1.1621
14203SOL     OW44615   0.789  10.944   2.162 -0.2221  0.1058  0.5632
14203SOL    HW144616   0.799  10.852   2.136 -0.7428 -0.1178  1.1343
14203SOL    HW244617   0.876  10.971   2.191 -0.2019 -0.3812  0.9582
14204SOL     OW44618   6.126   9.860   3.467 -0.0237  0.0022 -0.2718
14204SOL    HW144619   6.034   9.864   3.441 -0.1131 -1.0153 -0.1709
14204SOL    HW244620   6.172   9.832   3.388  0.1314  0.0418 -0.1967
14205SOL     OW44621   3.901   9.072   9.560  1.0718  0.0383  0.0978
14205SOL    HW144622   3.850   9.081   9.641  0.2237  1.7700 -0.5724
14205SOL    HW244623   3.961   9.000   9.578 -1.2340 -1.7759  1.1173
14206SOL     OW44624   4.748   8.123   2.692 -0.4805 -0.5414  0.4185
14206SOL    HW144625   4.780   8.197   2.743  0.8192 -1.9459  1.7633
14206SOL    HW244626   4.736   8.053   2.756 -1.5794 -1.5347 -0.8143
14207SOL     OW44627   6.088   5.763   5.653  0.4622 -0.3711 -0.1415
14207SOL    HW144628   6.016   5.726   5.601  1.3996 -1.9817 -0.3525
14207SOL    HW244629   6.053   5.765   5.742  0.5598 -2.3943 -0.0134
14208SOL     OW44630   4.762   4.433   7.324  0.5326 -0.1805 -0.1788
14208SOL    HW144631   4.704   4.427   7.248  0.8297  0.4209 -0.4647
14208SOL    HW244632   4.824   4.361   7.312  0.8080  0.1340 -0.7164
14209SOL     OW44633   7.518   1.839   0.574 -0.3135  0.3166  0.1303
14209SOL    HW144634   7.608   1.807   0.580 -0.5065 -0.0396  1.9324
14209SOL    HW244635   7.501   1.849   0.480  1.9639  1.4937 -0.2135
14210SOL     OW44636   3.204  10.444   8.008 -0.6768  0.3437 -0.2463
14210SOL    HW144637   3.180  10.430   7.917  0.4188 -1.7274 -0.2715
14210SOL    HW244638   3.123  10.430   8.057 -0.9681  0.0834 -0.7986
14211SOL     OW44639   1.923   1.337  10.668  0.6904 -0.2456  0.1966
14211SOL    HW144640   2.014   1.367  10.658  1.2450 -0.8497  2.6758
14211SOL    HW244641   1.931   1.250  10.706 -0.9687 -1.1009 -1.2766
14212SOL     OW44642   1.335   1.484   2.932 -0.1470  0.7876 -0.3648
14212SOL    HW144643   1.297   1.571   2.924 -2.3533  0.0430  0.9696
14212SOL    HW244644   1.298   1.435   2.859 -0.0769  0.6110 -0.2820
14213SOL     OW44645   3.784   7.919   0.413  0.0932 -0.0338 -0.2880
14213SOL    HW144646   3.730   7.852   0.455 -0.9298 -0.0673 -1.6023
14213SOL    HW244647   3.721   7.983   0.379  1.0298  1.6364  0.9293
14214SOL     OW44648   9.343   1.907   0.897  0.6466  0.2984  0.2096
14214SOL    HW144649   9.322   2.001   0.891  0.9629  0.4124  0.8003
14214SOL    HW244650   9.263   1.863   0.867  0.0683  0.7451  1.0341
14215SOL     OW44651   7.959   4.534   8.655 -0.0335 -0.3436 -0.8210
14215SOL    HW144652   7.974   4.628   8.643  1.9925 -0.2828  1.3020
14215SOL    HW244653   8.047   4.496   8.653 -0.4399 -1.6557  1.7921
14216SOL     OW44654   5.075   2.890   3.514  0.1353  0.4767 -0.3931
14216SOL    HW144655   5.020   2.844   3.451  0.0553  1.0172 -0.7238
14216SOL    HW244656   5.056   2.982   3.499  0.1806  0.6150  0.3623
14217SOL     OW44657   0.890   1.994  10.225  0.3125  0.2162  0.1306
14217SOL    HW144658   0.971   1.969  10.269  0.7752  0.5655 -0.5065
14217SOL    HW244659   0.821   1.958  10.280  0.8994 -0.1023  0.6735
14218SOL     OW44660   1.860   2.734   1.385  0.0113 -0.0572  0.2273
14218SOL    HW144661   1.920   2.669   1.420 -0.1634  0.3432  1.3065
14218SOL    HW244662   1.775   2.710   1.421 -0.0185  0.8738  0.8107
14219SOL     OW44663   3.217   5.894   2.477 -0.2531 -0.1058 -0.4836
14219SOL    HW144664   3.285   5.947   2.519  1.5852 -1.5390 -1.5112
14219SOL    HW244665   3.138   5.914   2.526  0.7758  2.0419  0.4268
14220SOL     OW44666   7.806   0.757   4.984  0.1867  0.6321 -0.1614
14220SOL    HW144667   7.876   0.773   5.048  1.4968 -3.3206 -0.3305
14220SOL    HW244668   7.729   0.737   5.038  1.2723 -2.6267  0.4109
14221SOL     OW44669   4.481  10.333  10.256  0.2983 -0.0626 -0.1883
14221SOL    HW144670   4.521  10.365  10.337 -0.7077  0.7670 -0.0098
14221SOL    HW244671   4.399  10.293  10.284  0.4958 -0.8409 -0.6782
14222SOL     OW44672   4.704   6.830   2.056  0.2695 -0.3481  0.9175
14222SOL    HW144673   4.648   6.844   2.132  0.3979 -1.6799  1.2845
14222SOL    HW244674   4.748   6.746   2.073  1.3675  0.0130  0.0279
14223SOL     OW44675   9.839   1.864  10.191  0.0858 -0.2695  0.1056
14223SOL    HW144676   9.769   1.844  10.253  0.1024  1.1635  0.6319
14223SOL    HW244677   9.867   1.953  10.215  0.5119  0.0775 -1.5672
14224SOL     OW44678   1.840   3.337   2.020  0.2186  0.1813 -0.4317
14224SOL    HW144679   1.840   3.428   1.990 -0.5728  0.3914  0.1463
14224SOL    HW244680   1.848   3.344   2.115  0.2348 -0.3565 -0.3938
14225SOL     OW44681   1.672   9.352   5.494 -0.7195 -0.1936  0.4444
14225SOL    HW144682   1.618   9.272   5.496  0.4156 -0.9894 -0.1357
14225SOL    HW244683   1.643   9.399   5.416 -1.9942  0.4210  1.2484
14226SOL     OW44684   8.192   8.752   4.475  0.1422 -1.0488  0.2308
14226SOL    HW144685   8.279   8.717   4.454  0.0232 -0.8838 -0.5431
14226SOL    HW244686   8.210   8.822   4.538  0.7781  0.3954 -1.4855
14227SOL     OW44687   7.479   2.577   6.815  0.0080 -0.2891 -0.3496
14227SOL    HW144688   7.513   2.595   6.903 -0.1704 -0.4534 -0.2440
14227SOL    HW244689   7.478   2.662   6.772 -1.7985  0.1664  0.4865
14228SOL     OW44690   4.036  10.561   2.424 -0.1234  0.0689 -0.7319
14228SOL    HW144691   4.017  10.467   2.428 -0.2926 -0.0083 -2.4830
14228SOL    HW244692   4.081  10.580   2.506 -1.5037 -1.1997  0.3849
14229SOL     OW44693   7.269   7.644   6.214 -0.0855  1.1171  0.0273
14229SOL    HW144694   7.279   7.669   6.122 -1.4598  0.6200 -0.2847
14229SOL    HW244695   7.201   7.702   6.248  1.2819  2.1749  1.1261
14230SOL     OW44696   5.688   6.639   7.698 -0.1144  0.0337 -0.7461
14230SOL    HW144697   5.652   6.712   7.648 -1.3418 -0.2269 -0.2667
14230SOL    HW244698   5.719   6.678   7.779 -3.9802 -0.3288  1.1350
14231SOL     OW44699   3.250   6.810   8.148  0.8600  0.0985 -0.0644
14231SOL    HW144700   3.281   6.723   8.123 -1.6547 -0.6013 -1.0098
14231SOL    HW244701   3.313   6.870   8.108  2.1716 -1.2456 -0.0943
14232SOL     OW44702   5.406   0.825   8.962 -0.1749  0.1362 -0.0795
14232SOL    HW144703   5.448   0.792   8.882  0.2449  1.0088 -0.2308
14232SOL    HW244704   5.351   0.753   8.991  0.3041 -0.4997 -0.7006
14233SOL     OW44705   2.968   2.065   0.850 -0.0087 -0.0848 -0.1232
14233SOL    HW144706   3.015   2.135   0.896 -0.5971 -0.1872  0.6623
14233SOL    HW244707   3.015   1.985   0.873 -0.1064 -0.0967  0.0385
14234SOL     OW44708   6.382   0.331   3.105  0.5404  0.6027  0.2295
14234SOL    HW144709   6.416   0.260   3.052  1.4978  0.5640  0.8650
14234SOL    HW244710   6.291   0.306   3.125  1.0829 -0.8102  1.0661
14235SOL     OW44711   7.900   2.192   8.250 -0.0756 -0.1293  0.3389
14235SOL    HW144712   7.944   2.254   8.309  0.8285 -0.9743  0.5852
14235SOL    HW244713   7.960   2.184   8.176 -0.0698 -0.8924  0.4240
14236SOL     OW44714  10.545  10.215   1.265 -0.3314  0.7226  0.2061
14236SOL    HW144715  10.554  10.304   1.231 -0.1170  1.0291  1.0215
14236SOL    HW244716  10.585  10.159   1.199  1.6334  1.4508  0.6990
14237SOL     OW44717   8.137   7.309   6.914  0.0334 -0.3527  0.6696
14237SOL    HW144718   8.162   7.264   6.994  0.7526 -0.8083  0.2025
14237SOL    HW244719   8.198   7.275   6.848  1.2152  1.9417  0.4794
14238SOL     OW44720   5.116   5.545  10.133 -0.6658 -0.1447  0.4669
14238SOL    HW144721   5.196   5.595  10.113  0.1659 -1.0148  1.4751
14238SOL    HW244722   5.116   5.473  10.070 -0.2858 -0.5110  0.8723
14239SOL     OW44723   2.860   6.494   9.766 -0.0301 -0.0865  0.3284
14239SOL    HW144724   2.771   6.521   9.744  0.6892  2.1869 -0.0076
14239SOL    HW244725   2.852   6.454   9.853 -1.7514 -2.5322 -0.8111
14240SOL     OW44726   9.788   0.043   6.328  0.1014 -0.4064 -0.0432
14240SOL    HW144727   9.839  -0.012   6.268  0.5495 -0.6183  0.5239
14240SOL    HW244728   9.740  -0.019   6.383  1.3206 -0.2651  1.2137
14241SOL     OW44729   9.991   8.651   6.615 -0.1290  0.3406  0.4497
14241SOL    HW144730   9.939   8.583   6.572  0.2683 -0.0869  0.6369
14241SOL    HW244731   9.932   8.726   6.622 -0.4122  0.1914 -0.2229
14242SOL     OW44732   1.906   6.065  10.199  0.0454  0.1891  0.1509
14242SOL    HW144733   1.878   6.116  10.123  0.4613 -0.1324 -0.2224
14242SOL    HW244734   2.001   6.076  10.202 -0.0122  0.5386  0.8776
14243SOL     OW44735   7.994   2.994   5.581  0.2530  0.3441  0.0842
14243SOL    HW144736   8.015   3.026   5.668 -0.1681  2.0430 -0.3984
14243SOL    HW244737   7.898   2.997   5.576  0.2990  1.0091 -0.6818
14244SOL     OW44738   2.501   5.966   4.390 -0.3271  0.7128  0.0654
14244SOL    HW144739   2.595   5.960   4.371 -0.3445  1.0950 -0.1349
14244SOL    HW244740   2.459   5.958   4.304 -0.6307 -2.4557  0.3774
14245SOL     OW44741   0.142   0.330  10.087  0.3231 -0.2182  0.0856
14245SOL    HW144742   0.152   0.261  10.021  0.2723  0.2974 -0.4653
14245SOL    HW244743   0.099   0.402  10.041 -2.2997 -0.8395  1.3275
14246SOL     OW44744   0.392   7.198   7.814  0.6877 -0.1120  0.2158
14246SOL    HW144745   0.400   7.183   7.908  0.4926  2.3117  0.6953
14246SOL    HW244746   0.299   7.215   7.801  0.6921 -0.5840 -0.4392
14247SOL     OW44747   8.661   5.234   8.700 -0.3370 -0.4009  0.2097
14247SOL    HW144748   8.567   5.243   8.716 -0.5257 -0.5784 -0.7315
14247SOL    HW244749   8.672   5.146   8.664  0.3770 -0.8666  1.4997
14248SOL     OW44750   7.684   1.880   5.754 -0.6210  0.1144  0.0089
14248SOL    HW144751   7.597   1.872   5.793 -0.3867  0.8772  0.7446
14248SOL    HW244752   7.711   1.970   5.776  0.5012 -0.2378  0.1182
14249SOL     OW44753   0.391  11.012   1.770 -0.3488 -0.5264 -0.4880
14249SOL    HW144754   0.437  11.030   1.689 -0.2673 -0.7976 -0.5032
14249SOL    HW244755   0.438  10.938   1.809  0.2128  0.2145  0.2813
14250SOL     OW44756   3.860   9.163   8.638  0.6060  0.0580 -0.2911
14250SOL    HW144757   3.861   9.229   8.568  2.9567  0.1484 -0.2537
14250SOL    HW244758   3.952   9.152   8.662  0.0902 -1.8243  1.0743
14251SOL     OW44759   0.469   6.226   5.570  0.3325  0.2375  0.2875
14251SOL    HW144760   0.417   6.197   5.645 -0.8535 -0.8808 -0.9174
14251SOL    HW244761   0.509   6.146   5.536  1.5631  0.8597  0.2355
14252SOL     OW44762   1.746   6.368  10.307 -0.0182  0.5703 -0.2127
14252SOL    HW144763   1.809   6.308  10.347  0.3676 -0.1901 -1.8859
14252SOL    HW244764   1.780   6.383  10.219 -2.9951 -1.2204 -1.8130
14253SOL     OW44765   9.095   2.572   1.497  0.4351 -0.0610  0.4261
14253SOL    HW144766   9.160   2.577   1.427 -0.8504  0.7137 -0.7564
14253SOL    HW244767   9.025   2.518   1.460 -0.9114  1.5383  0.5338
14254SOL     OW44768   0.333   2.750   8.296  0.1373 -0.0900 -0.0923
14254SOL    HW144769   0.334   2.846   8.300 -2.1318  0.0309 -0.9619
14254SOL    HW244770   0.396   2.729   8.227 -0.3574  0.8800 -0.8714
14255SOL     OW44771   6.079   8.574   5.627  0.6049 -0.0778  0.1494
14255SOL    HW144772   6.108   8.653   5.583 -1.9015  1.0129  0.2906
14255SOL    HW244773   6.048   8.517   5.557 -1.5805  0.8820  0.2377
14256SOL     OW44774   6.765  10.945   1.897  0.0247 -0.4966 -0.9521
14256SOL    HW144775   6.816  11.025   1.907 -0.5883 -0.3361  1.2781
14256SOL    HW244776   6.686  10.973   1.851 -1.7912  1.0297  2.6695
14257SOL     OW44777   1.818   5.958   9.928  0.0155 -0.2191 -0.0077
14257SOL    HW144778   1.749   6.020   9.949  1.1019  0.8147  0.5753
14257SOL    HW244779   1.896   6.011   9.916  1.5152 -1.5814  2.7718
14258SOL     OW44780   8.529   5.383  10.787 -0.0011  0.6498  0.3383
14258SOL    HW144781   8.507   5.474  10.804 -1.3215  0.7004 -1.3488
14258SOL    HW244782   8.610   5.368  10.836 -0.0758  2.5427  1.1182
14259SOL     OW44783  10.115   6.194   2.645 -0.9451  0.4225 -0.2236
14259SOL    HW144784  10.132   6.243   2.564 -0.0491 -0.5657 -0.6626
14259SOL    HW244785  10.157   6.109   2.630 -1.6017 -0.1180  0.9111
14260SOL     OW44786   6.074  10.292   6.281  0.0353  0.2110  0.1797
14260SOL    HW144787   6.028  10.372   6.257  0.9087  0.1574 -1.8818
14260SOL    HW244788   6.161  10.322   6.310 -0.7317  0.2086  2.7147
14261SOL     OW44789   4.545   5.924   7.740  0.1565  0.2416 -0.2600
14261SOL    HW144790   4.628   5.963   7.765  0.4907 -0.8810  0.4493
14261SOL    HW244791   4.503   5.901   7.823 -0.2949 -0.3648 -0.6454
14262SOL     OW44792   5.672  10.997   5.089  0.4946 -0.2253  0.1342
14262SOL    HW144793   5.731  10.972   5.018  0.2385 -1.3616  0.3081
14262SOL    HW244794   5.713  11.075   5.127  0.4372  0.6531 -1.4859
14263SOL     OW44795   3.293   8.023   4.473  0.3557 -0.2668  0.2089
14263SOL    HW144796   3.224   7.957   4.480 -0.4719  0.5174 -0.3676
14263SOL    HW244797   3.258   8.099   4.521  0.6100  0.3058 -0.5030
14264SOL     OW44798   0.851   1.130  10.989  0.4552  0.1367 -0.0988
14264SOL    HW144799   0.940   1.137  10.956  0.4699 -0.0106 -0.0913
14264SOL    HW244800   0.860   1.090  11.075  0.3619 -0.1247 -0.2086
14265SOL     OW44801   9.402   6.286   8.038  0.6502 -0.3989 -0.3850
14265SOL    HW144802   9.456   6.344   7.984 -0.7861  1.1045 -0.2947
14265SOL    HW244803   9.464   6.230   8.083  2.0690  0.5882 -1.0455
14266SOL     OW44804   3.878   5.498   5.262 -0.1942 -0.2449  0.0370
14266SOL    HW144805   3.806   5.465   5.315 -1.8157  0.3542 -1.6687
14266SOL    HW244806   3.902   5.425   5.205  0.0035 -0.2003  0.0618
14267SOL     OW44807   2.651   7.840   8.924  0.1173 -0.7416 -0.3028
14267SOL    HW144808   2.671   7.841   8.830 -0.2869  1.7293 -0.4438
14267SOL    HW244809   2.609   7.925   8.940  1.2041 -0.6082  2.3274
14268SOL     OW44810   2.806  10.910   1.844  0.5062 -0.4649 -0.9113
14268SOL    HW144811   2.884  10.856   1.844  1.3811  0.7314  0.3402
14268SOL    HW244812   2.734  10.848   1.857  1.5515 -1.2946  1.6116
14269SOL     OW44813   9.156   7.994   8.906 -0.4918  0.1731  0.2027
14269SOL    HW144814   9.089   8.050   8.944 -1.5555 -0.2554 -0.9402
14269SOL    HW244815   9.220   7.981   8.976 -0.4648  2.3665  0.6516
14270SOL     OW44816   4.289  10.313   4.392 -0.1315 -0.0217 -0.0699
14270SOL    HW144817   4.254  10.360   4.316 -1.1771  0.3591  0.6345
14270SOL    HW244818   4.273  10.371   4.466  0.7236 -0.4672  0.4827
14271SOL     OW44819   5.533   6.335   6.965 -0.2085  0.1041 -0.0597
14271SOL    HW144820   5.531   6.398   6.893 -0.8860  1.3123  0.9654
14271SOL    HW244821   5.545   6.250   6.923 -1.5621  0.6584 -1.6598
14272SOL     OW44822   1.015   2.835   2.324 -0.1197 -0.7587 -0.5586
14272SOL    HW144823   1.110   2.850   2.327  0.0344 -1.6160  2.0225
14272SOL    HW244824   0.991   2.823   2.416 -2.9456  0.4900 -1.0339
14273SOL     OW44825   4.235   7.055   6.996  0.2293 -0.3035 -0.5658
14273SOL    HW144826   4.325   7.073   6.967  0.5552 -1.0567 -0.0498
14273SOL    HW244827   4.188   7.036   6.915  0.3534  0.7917 -0.9172
14274SOL     OW44828   7.852   8.516   5.280 -0.6977 -0.4318  0.2720
14274SOL    HW144829   7.773   8.569   5.275 -0.3492  0.1802  0.9903
14274SOL    HW244830   7.894   8.527   5.195 -1.0997 -0.3198  0.0839
14275SOL     OW44831   9.162   1.431   3.768 -0.0716 -0.3958 -0.7070
14275SOL    HW144832   9.199   1.474   3.691  1.9353 -0.6637  0.0359
14275SOL    HW244833   9.178   1.492   3.840 -0.9551 -0.6151 -0.3047
14276SOL     OW44834   6.642   4.550   6.236 -0.7046  0.0593 -0.5776
14276SOL    HW144835   6.634   4.566   6.330 -1.3615 -2.2542 -0.1603
14276SOL    HW244836   6.596   4.467   6.223  1.1122 -0.7182 -2.5938
14277SOL     OW44837   8.954   0.871   6.598  0.1555  0.3182 -0.5155
14277SOL    HW144838   8.937   0.883   6.692  0.7857  0.3391 -0.3975
14277SOL    HW244839   9.005   0.790   6.593  0.1660  0.3450 -0.8345
14278SOL     OW44840   2.449   3.004   7.908  0.9834 -0.5423  0.7462
14278SOL    HW144841   2.358   3.028   7.892  0.7642 -1.2873  0.8308
14278SOL    HW244842   2.446   2.910   7.929  1.9521 -0.9609 -0.8301
14279SOL     OW44843   6.717  10.769   5.240 -0.0386  0.4662 -0.2238
14279SOL    HW144844   6.648  10.704   5.232  1.3257 -0.9177 -1.2585
14279SOL    HW244845   6.688  10.842   5.184  0.0890 -0.8106 -2.0339
14280SOL     OW44846   4.957   1.753   6.745  0.0187  0.0930 -0.1094
14280SOL    HW144847   4.937   1.820   6.810  0.2160 -0.2006  0.2594
14280SOL    HW244848   5.053   1.753   6.739 -0.0391  1.1364 -1.4853
14281SOL     OW44849   3.667   0.660   8.984 -0.5118  0.2118  0.5951
14281SOL    HW144850   3.610   0.646   9.060 -0.8167 -2.8192 -0.0512
14281SOL    HW244851   3.613   0.707   8.921 -1.2798  0.0504  1.1214
14282SOL     OW44852   4.868  10.514   2.358  0.2353 -0.0708  0.3068
14282SOL    HW144853   4.919  10.481   2.284  0.6507  0.0546  0.5326
14282SOL    HW244854   4.803  10.446   2.374  0.8519 -0.6214  0.5353
14283SOL     OW44855   6.211   2.953   3.698  1.0113 -0.5584  0.1821
14283SOL    HW144856   6.166   2.878   3.660  1.8740 -1.9590  1.7446
14283SOL    HW244857   6.141   3.013   3.723  0.0691 -1.9478  1.0704
14284SOL     OW44858   8.026   8.702   8.645  0.2303 -0.1624  0.4764
14284SOL    HW144859   7.985   8.771   8.697 -1.0636  0.4922 -1.3154
14284SOL    HW244860   7.955   8.640   8.626  0.1793  0.5296 -1.9249
14285SOL     OW44861   8.538   9.798   1.868  0.1626 -0.1086 -0.0417
14285SOL    HW144862   8.568   9.849   1.793  0.4307 -0.0455  0.1065
14285SOL    HW244863   8.558   9.707   1.845  0.9277 -0.0237  0.2647
14286SOL     OW44864   1.800   7.931   3.867  0.4908  0.4046  0.6365
14286SOL    HW144865   1.746   7.968   3.797  1.1478  1.7876  0.8268
14286SOL    HW244866   1.869   7.996   3.880  1.5121 -0.7630  1.2162
14287SOL     OW44867   2.255   3.765   3.803  0.5562  0.4321  0.5106
14287SOL    HW144868   2.258   3.736   3.712 -0.3766 -1.1435  0.9532
14287SOL    HW244869   2.330   3.721   3.845  0.8877  1.0265  0.5608
14288SOL     OW44870   9.331   8.841   6.489  0.0858  0.0326 -0.2345
14288SOL    HW144871   9.386   8.807   6.419  0.7229 -0.4789  0.4981
14288SOL    HW244872   9.254   8.785   6.489  0.0780  0.0412 -0.5278
14289SOL     OW44873   5.664   5.255   7.410  0.2662 -0.2104  0.4215
14289SOL    HW144874   5.700   5.177   7.369  2.2084 -0.2315  2.0065
14289SOL    HW244875   5.700   5.254   7.499  0.9370  2.8415  0.2885
14290SOL     OW44876   6.844   4.091   5.610 -0.1183 -0.2874 -0.0637
14290SOL    HW144877   6.925   4.040   5.619 -0.8540 -1.4055  0.4000
14290SOL    HW244878   6.863   4.173   5.657  1.1304 -0.0239 -0.9626
14291SOL     OW44879   8.466   3.066   8.183  0.5351  0.5875 -0.0811
14291SOL    HW144880   8.437   3.033   8.267  0.4589  1.4581  0.2493
14291SOL    HW244881   8.511   3.148   8.204 -1.4061  1.9767 -1.0565
14292SOL     OW44882   1.806   4.512   4.144  0.3572 -0.2366  0.3713
14292SOL    HW144883   1.874   4.556   4.196  0.1579 -0.7641  1.0878
14292SOL    HW244884   1.769   4.446   4.203 -0.2565 -0.4719 -0.2620
14293SOL     OW44885   3.164   6.296   7.994  0.5816 -0.0431  0.1796
14293SOL    HW144886   3.153   6.202   7.980 -0.0882  0.1493 -0.6669
14293SOL    HW244887   3.203   6.327   7.912  0.2602  0.5044  0.2335
14294SOL     OW44888   6.129   4.315   4.508  0.4092  0.1498  0.1474
14294SOL    HW144889   6.103   4.311   4.416  1.4195 -0.0409 -0.1409
14294SOL    HW244890   6.128   4.408   4.529 -0.3158  0.1607  0.0991
14295SOL     OW44891  10.961  10.311   1.888  0.2671 -0.0977 -0.4660
14295SOL    HW144892  11.033  10.322   1.826 -1.7247  0.2827 -2.8501
14295SOL    HW244893  10.898  10.256   1.842 -0.5588 -1.2942  1.9514
14296SOL     OW44894   6.400   9.239   9.274  0.1485 -0.5061 -0.1230
14296SOL    HW144895   6.327   9.204   9.325  0.0403  0.7369  0.6208
14296SOL    HW244896   6.458   9.279   9.339 -0.6317  2.2834 -1.0304
14297SOL     OW44897   6.909   2.628   9.432 -0.0636 -0.1985 -0.4389
14297SOL    HW144898   6.850   2.698   9.403 -0.5170 -1.9164 -4.1836
14297SOL    HW244899   6.853   2.570   9.484 -0.5198  0.4226 -0.2191
14298SOL     OW44900   6.606   9.344   9.419 -0.2010  0.2855 -0.0893
14298SOL    HW144901   6.656   9.274   9.460 -0.7918  0.3556  0.7732
14298SOL    HW244902   6.671   9.408   9.392  0.1166  0.7986  1.8232
14299SOL     OW44903   0.229   8.447  10.863  0.3923 -0.3251 -0.7765
14299SOL    HW144904   0.167   8.415  10.797 -1.8533  0.5485  0.8056
14299SOL    HW244905   0.212   8.541  10.868  3.7164  0.4852 -2.1032
14300SOL     OW44906   9.776   5.772   6.531 -0.4984  0.0042  0.6915
14300SOL    HW144907   9.697   5.808   6.571 -0.3979 -0.3505  1.2230
14300SOL    HW244908   9.840   5.843   6.533 -0.7592  0.2443  0.4001
14301SOL     OW44909  10.515   3.303   2.347  0.8099  0.0923  0.4043
14301SOL    HW144910  10.451   3.344   2.406 -2.3898 -2.0532 -1.2940
14301SOL    HW244911  10.522   3.363   2.274  0.2762  0.0920  0.3480
14302SOL     OW44912   8.286   9.465   2.354  0.3543 -0.1943 -0.4098
14302SOL    HW144913   8.236   9.435   2.430  0.4477  1.0151  0.1561
14302SOL    HW244914   8.224   9.460   2.282 -0.0092 -0.5235 -0.0835
14303SOL     OW44915   7.330   7.365   6.139 -0.6674  0.2195 -0.0930
14303SOL    HW144916   7.274   7.442   6.154 -2.8192 -0.6523 -2.7486
14303SOL    HW244917   7.273   7.291   6.157  0.4320 -0.7428 -0.4570
14304SOL     OW44918   5.497   9.893  10.520 -0.0915 -0.1070  0.0624
14304SOL    HW144919   5.475   9.941  10.600 -1.0745  0.7556 -0.6952
14304SOL    HW244920   5.412   9.866  10.485  0.3712 -1.0111 -0.3711
14305SOL     OW44921   2.053   9.814   6.509  0.6481 -0.1146  0.3511
14305SOL    HW144922   2.065   9.896   6.462 -0.8706  0.6989  1.3119
14305SOL    HW244923   1.971   9.778   6.474  0.7593 -0.6949  0.6756
14306SOL     OW44924   4.679   8.016   2.083  0.0941 -0.0001 -0.0687
14306SOL    HW144925   4.650   7.985   1.997 -0.7179  1.3083 -0.2816
14306SOL    HW244926   4.751   7.956   2.106 -0.1629 -0.8334 -1.3099
14307SOL     OW44927   7.198   1.122  10.420  0.4531  0.0168 -0.1250
14307SOL    HW144928   7.228   1.041  10.380  0.1027 -2.0998  3.4307
14307SOL    HW244929   7.103   1.111  10.429  0.4868  0.4776  1.0083
14308SOL     OW44930   0.182   9.063   8.438 -0.0633 -0.1522 -0.4818
14308SOL    HW144931   0.160   8.970   8.441 -0.8523  0.0250 -0.4682
14308SOL    HW244932   0.212   9.077   8.349 -2.1775  0.0334 -1.2368
14309SOL     OW44933   4.480   1.977   5.889  0.3279  0.7780 -0.1754
14309SOL    HW144934   4.480   2.071   5.908  1.6976  0.6551  0.5400
14309SOL    HW244935   4.456   1.971   5.797 -0.3719  1.7808 -0.0789
14310SOL     OW44936   6.230  11.007   0.323 -0.5270  0.3833  0.1070
14310SOL    HW144937   6.266  11.082   0.370 -0.1714 -0.2823  0.9108
14310SOL    HW244938   6.211  10.942   0.391 -0.8238 -0.2583 -0.5725
14311SOL     OW44939   7.609   7.390   7.799  0.4014  0.0195  0.5499
14311SOL    HW144940   7.572   7.326   7.738  1.2199  0.4703 -0.4503
14311SOL    HW244941   7.702   7.396   7.774  0.6920  0.4263  1.6617
14312SOL     OW44942   4.104  10.433  10.412  0.0731  0.2115  0.3815
14312SOL    HW144943   4.142  10.485  10.341  1.1645 -1.4344 -0.3068
14312SOL    HW244944   4.013  10.421  10.388  0.2531  0.3152 -0.3673
14313SOL     OW44945   4.423   2.234   3.793 -0.4321 -0.5845  0.0664
14313SOL    HW144946   4.349   2.175   3.809 -0.1642 -1.0453 -0.3742
14313SOL    HW244947   4.472   2.193   3.722  0.8790 -0.8616  1.0912
14314SOL     OW44948   2.295   6.616  10.914  0.3572  0.1552  0.4710
14314SOL    HW144949   2.246   6.571  10.983 -1.1122 -0.3904 -0.8573
14314SOL    HW244950   2.368   6.658  10.960 -0.2124 -0.6820  2.2515
14315SOL     OW44951   6.450  10.667   4.839  0.5516 -0.3190 -0.3325
14315SOL    HW144952   6.401  10.709   4.910  1.0636 -0.4814  0.1263
14315SOL    HW244953   6.444  10.728   4.766 -0.3267 -0.3322 -0.2835
14316SOL     OW44954   9.307   3.236   5.804  0.3537  0.3361  0.1502
14316SOL    HW144955   9.250   3.218   5.730 -0.6617  0.2906  0.9108
14316SOL    HW244956   9.373   3.166   5.801 -1.0044 -1.0181  0.5656
14317SOL     OW44957   3.686   6.843   5.322 -0.6438 -0.0590  0.7359
14317SOL    HW144958   3.668   6.923   5.373  0.9913  1.7923 -1.3721
14317SOL    HW244959   3.740   6.789   5.379 -1.3569  0.5643  2.0326
14318SOL     OW44960   7.071   9.247  10.527  0.2371 -0.0720  0.1981
14318SOL    HW144961   6.993   9.296  10.557  0.2014  0.4824 -0.7670
14318SOL    HW244962   7.036   9.166  10.491  0.1614 -0.1187  0.3766
14319SOL     OW44963   7.357   7.309   9.187  0.5557  0.1758 -0.4911
14319SOL    HW144964   7.303   7.239   9.225  1.4329 -1.3669 -1.9070
14319SOL    HW244965   7.296   7.361   9.136 -0.2735  1.0409  1.3157
14320SOL     OW44966   9.693   4.909   4.394 -0.0139  0.1308 -0.3585
14320SOL    HW144967   9.610   4.949   4.420 -0.0278  0.4365 -0.8547
14320SOL    HW244968   9.681   4.816   4.412  0.0569  0.3473  0.9117
14321SOL     OW44969   1.667   9.257   9.295 -0.2359 -0.3999  0.2578
14321SOL    HW144970   1.746   9.284   9.341  0.5694 -1.1752 -0.6244
14321SOL    HW244971   1.693   9.252   9.203 -1.6537  0.5580 -0.2306
14322SOL     OW44972   0.956   4.950   6.656 -0.7537  0.1066  0.0633
14322SOL    HW144973   1.047   4.965   6.683 -0.9941 -0.4887  1.2558
14322SOL    HW244974   0.956   4.862   6.621 -1.1579 -0.4849  1.4877
14323SOL     OW44975   1.720   4.280  10.913 -0.6269  0.3136 -0.2367
14323SOL    HW144976   1.681   4.341  10.976  1.2152  1.7527 -0.4037
14323SOL    HW244977   1.791   4.238  10.961  3.4958  4.2993 -2.1096
14324SOL     OW44978   4.785   0.637   9.554 -0.0958  0.3236  0.5588
14324SOL    HW144979   4.873   0.673   9.566 -0.0736  0.1168  1.0197
14324SOL    HW244980   4.795   0.543   9.566 -0.0396  0.0493 -1.2913
14325SOL     OW44981  10.292   1.083   5.149 -0.2393  0.3024  0.0241
14325SOL    HW144982  10.298   0.989   5.134 -0.9911  0.4411 -1.2894
14325SOL    HW244983  10.383   1.111   5.162 -0.0628 -0.6756  1.0292
14326SOL     OW44984   2.100   2.689   4.646  0.5083  0.1261  0.2749
14326SOL    HW144985   2.022   2.742   4.627 -0.0150 -1.6450 -3.2293
14326SOL    HW244986   2.126   2.653   4.562  2.9408 -2.3711  1.9318
14327SOL     OW44987   5.994   4.768   4.417 -0.2037 -0.1963  0.3895
14327SOL    HW144988   5.951   4.839   4.465 -1.1645 -0.6353  0.2002
14327SOL    HW244989   5.922   4.718   4.379  0.5253  0.3035 -1.7583
14328SOL     OW44990   6.292   3.029   1.730 -0.1330 -0.2966 -0.5147
14328SOL    HW144991   6.265   3.118   1.751  0.3202 -0.3469  0.3655
14328SOL    HW244992   6.234   3.002   1.659 -1.4754  0.0726  0.3867
14329SOL     OW44993   7.444   4.231   5.356  0.5538 -0.3464  0.1761
14329SOL    HW144994   7.425   4.161   5.293  1.3377 -0.1329 -0.3135
14329SOL    HW244995   7.373   4.294   5.344 -0.1107 -1.0038  0.5591
14330SOL     OW44996   7.652  10.656   5.933 -0.1382  0.0419 -0.1318
14330SOL    HW144997   7.724  10.614   5.886 -0.4283  0.0564 -0.5941
14330SOL    HW244998   7.695  10.717   5.993  0.2854 -0.7838  0.4285
14331SOL     OW44999   2.402   9.762   0.731 -0.3693 -0.2659  0.8899
14331SOL    HW145000   2.382   9.689   0.790 -0.8319 -0.1859  0.8394
14331SOL    HW245001   2.316   9.798   0.709 -0.1426  0.2794  0.8962
14332SOL     OW45002   7.766   9.106   3.931  0.1450  0.7836 -0.3915
14332SOL    HW145003   7.748   9.012   3.933 -1.9016  1.1307  0.0676
14332SOL    HW245004   7.859   9.113   3.953 -0.0717 -1.0483  1.4301
14333SOL     OW45005   6.283   1.899   7.947 -0.2453 -0.4776  0.3892
14333SOL    HW145006   6.303   1.916   8.039 -0.5894  0.5373  0.2818
14333SOL    HW245007   6.237   1.977   7.917  1.4191 -0.0214 -1.1237
14334SOL     OW45008   5.930   4.848   0.696 -0.6775  0.3647 -0.4928
14334SOL    HW145009   6.025   4.852   0.683 -0.5571  1.8465  0.5862
14334SOL    HW245010   5.894   4.846   0.607  0.3499 -1.0060 -0.9193
14335SOL     OW45011   3.735   3.354   4.793 -0.2573  0.5037 -0.2081
14335SOL    HW145012   3.822   3.328   4.823 -1.2733 -2.5455  0.4779
14335SOL    HW245013   3.706   3.417   4.859  1.0820  0.8741  0.0628
14336SOL     OW45014   4.533   6.963   5.166  0.2291 -0.2086  0.3865
14336SOL    HW145015   4.581   6.882   5.146 -0.2369 -0.4256  0.1445
14336SOL    HW245016   4.487   6.943   5.248 -0.0024 -0.2404  0.2498
14337SOL     OW45017   2.027   7.779   6.200  0.7797  0.1137  0.1784
14337SOL    HW145018   2.024   7.742   6.112  1.6799  0.5116 -0.0366
14337SOL    HW245019   1.988   7.866   6.190 -1.3391 -0.7301  0.6833
14338SOL     OW45020  10.235   1.006   6.969 -0.1345 -0.6552 -0.1747
14338SOL    HW145021  10.330   0.992   6.975 -0.0324  0.4392  1.8925
14338SOL    HW245022  10.199   0.956   7.042 -1.3784 -2.3097 -1.8325
14339SOL     OW45023   2.433   4.024   7.257 -0.2511  0.0739  0.8671
14339SOL    HW145024   2.472   3.938   7.273 -2.8178 -1.0049  1.9700
14339SOL    HW245025   2.427   4.064   7.343  1.8861  1.9145  0.2496
14340SOL     OW45026   0.837   2.032   2.753  0.3947  0.0551 -0.4781
14340SOL    HW145027   0.791   2.074   2.826  0.4318 -0.9800  0.1491
14340SOL    HW245028   0.771   2.024   2.684 -0.1696 -0.7186  0.1400
14341SOL     OW45029   9.982   9.285   1.078  0.6550  0.2224 -0.1529
14341SOL    HW145030   9.994   9.273   0.984 -0.1334 -1.6879 -0.0679
14341SOL    HW245031  10.060   9.331   1.107  2.1837 -1.4698 -1.3562
14342SOL     OW45032   4.467   5.245   7.929 -0.3492 -0.2208 -0.0568
14342SOL    HW145033   4.390   5.193   7.954 -2.6083  1.6841 -2.4351
14342SOL    HW245034   4.475   5.310   7.999  0.1696 -1.4092  1.0282
14343SOL     OW45035   1.987   8.899   4.060  0.2550  0.4160 -0.1230
14343SOL    HW145036   1.929   8.833   4.098  0.3203  0.2324 -0.3444
14343SOL    HW245037   2.073   8.878   4.096  0.2240  0.5728  0.0527
14344SOL     OW45038   1.501   1.179   8.569  0.1338 -0.0463  0.3809
14344SOL    HW145039   1.469   1.091   8.591  2.6906 -1.2846 -0.4519
14344SOL    HW245040   1.498   1.183   8.474 -0.4926  1.0315  0.4266
14345SOL     OW45041   8.270   9.423   9.292 -0.0967 -0.4156 -0.3255
14345SOL    HW145042   8.280   9.492   9.357  0.9998 -0.9057  0.0652
14345SOL    HW245043   8.240   9.347   9.343 -0.7881 -0.3658 -0.6601
14346SOL     OW45044   4.605   4.399   0.723 -0.6092  0.6267  0.1454
14346SOL    HW145045   4.587   4.430   0.634 -0.0509  0.3666 -0.0579
14346SOL    HW245046   4.538   4.332   0.738 -0.1138 -0.0180 -0.4448
14347SOL     OW45047   4.531   1.456   3.921 -0.5875  0.3976  0.2672
14347SOL    HW145048   4.453   1.508   3.943 -0.6647  0.4621 -0.1471
14347SOL    HW245049   4.563   1.424   4.005 -0.1771  1.6383  0.6092
14348SOL     OW45050   9.663   2.717   5.373  0.1156 -0.3619  0.3065
14348SOL    HW145051   9.678   2.804   5.408  2.8094 -0.9848  0.9554
14348SOL    HW245052   9.676   2.727   5.279 -1.4556  0.2472  0.1299
14349SOL     OW45053   2.557   7.604   4.370 -0.2409  0.1652 -0.0936
14349SOL    HW145054   2.542   7.612   4.465  0.0667  0.7939 -0.0950
14349SOL    HW245055   2.580   7.512   4.358 -2.8913 -0.6205  0.0678
14350SOL     OW45056  10.630   5.318   6.349  0.1179  0.0063  0.1957
14350SOL    HW145057  10.697   5.249   6.355 -0.2941 -0.6146 -1.6369
14350SOL    HW245058  10.547   5.270   6.349 -0.3101  0.7097  1.5275
14351SOL     OW45059   2.192   8.518   1.589 -0.0971 -0.1020  0.3017
14351SOL    HW145060   2.277   8.520   1.545 -0.0282  1.1731  0.4490
14351SOL    HW245061   2.202   8.576   1.664 -1.2693  0.5329 -0.0064
14352SOL     OW45062   7.814   5.718   0.959 -0.0736 -0.1065  0.1763
14352SOL    HW145063   7.758   5.657   1.008 -1.0762  0.5937 -0.0600
14352SOL    HW245064   7.781   5.805   0.983 -0.1313  0.2652 -1.1842
14353SOL     OW45065   8.078   5.244   3.633 -0.2581  0.1734 -0.4675
14353SOL    HW145066   8.009   5.238   3.568 -0.9497 -0.0649  0.2765
14353SOL    HW245067   8.126   5.324   3.610 -0.7753  0.3374 -0.9935
14354SOL     OW45068   5.157   9.861   0.319 -0.3313 -1.0257 -0.1126
14354SOL    HW145069   5.116   9.927   0.375  0.7752 -1.5826  1.4037
14354SOL    HW245070   5.232   9.830   0.369  1.0166 -1.1981 -2.1272
14355SOL     OW45071   7.357   4.319   0.593 -0.4710 -0.1810 -0.7145
14355SOL    HW145072   7.430   4.351   0.646 -0.2620  0.8202 -1.5757
14355SOL    HW245073   7.375   4.225   0.582 -0.4322 -0.3795  0.8056
14356SOL     OW45074  10.283   4.121   4.773 -0.0489  0.4081  0.3481
14356SOL    HW145075  10.244   4.200   4.736  0.4779  1.1528  1.3308
14356SOL    HW245076  10.367   4.113   4.727  0.0132  0.5714  0.4302
14357SOL     OW45077   5.087   1.250   4.182  0.0907 -0.0582 -0.2773
14357SOL    HW145078   5.040   1.324   4.220 -1.2329  0.4982 -2.7993
14357SOL    HW245079   5.163   1.290   4.139  1.4719 -0.6554  1.5124
14358SOL     OW45080   9.347   8.347   6.487  0.2806  0.4909 -0.6632
14358SOL    HW145081   9.305   8.318   6.568 -0.9095  2.6792 -0.4227
14358SOL    HW245082   9.311   8.289   6.419 -0.8375  0.3999 -0.0132
14359SOL     OW45083   0.655   1.775   5.694 -0.2591 -0.6578  0.2328
14359SOL    HW145084   0.747   1.749   5.685 -0.3570 -0.8538 -0.2207
14359SOL    HW245085   0.606   1.700   5.660 -0.5602 -0.0869 -0.6180
14360SOL     OW45086   5.091   1.449   9.108 -0.3360  0.5618  1.0460
14360SOL    HW145087   5.000   1.479   9.103 -0.1837  0.7904 -1.3471
14360SOL    HW245088   5.083   1.354   9.117 -0.8242  0.5507  0.5731
14361SOL     OW45089   8.618   0.829   6.842  0.3509 -0.3505 -0.1833
14361SOL    HW145090   8.586   0.917   6.825 -1.0655 -0.6403  0.7382
14361SOL    HW245091   8.547   0.772   6.810  1.6342 -1.2161 -1.6163
14362SOL     OW45092   9.547   4.515   9.596 -0.1264 -0.5413  0.1531
14362SOL    HW145093   9.545   4.547   9.506 -1.9168 -2.1505 -0.4506
14362SOL    HW245094   9.603   4.437   9.593  0.1868 -0.3380  0.5492
14363SOL     OW45095   6.876   2.407   7.713 -0.0872  0.1590  0.5801
14363SOL    HW145096   6.938   2.359   7.768  0.0892  1.0513  1.1847
14363SOL    HW245097   6.831   2.340   7.663  2.2952 -0.4647 -0.8937
14364SOL     OW45098   2.153  10.639   9.333  0.0752  0.1770 -0.1586
14364SOL    HW145099   2.150  10.675   9.421 -0.4979 -0.8008  0.2374
14364SOL    HW245100   2.245  10.645   9.307  0.2104  0.6681  0.4185
14365SOL     OW45101   4.466  10.240   0.437  0.3352  0.1140  0.2072
14365SOL    HW145102   4.523  10.249   0.514 -0.7580  0.5107  0.9973
14365SOL    HW245103   4.393  10.298   0.455 -1.0541 -1.4710 -0.0904
14366SOL     OW45104   2.126   4.947   4.836 -0.3191 -0.5304  0.2107
14366SOL    HW145105   2.150   5.039   4.835 -0.6453 -0.4450  0.3609
14366SOL    HW245106   2.200   4.903   4.794 -0.0023 -0.2410  0.4603
14367SOL     OW45107   9.004   7.443   3.749  0.5371 -0.0915 -0.4212
14367SOL    HW145108   8.987   7.529   3.710  1.4802  0.4959  0.4235
14367SOL    HW245109   9.033   7.463   3.838 -0.2332 -1.3390  0.1353
14368SOL     OW45110   8.785   1.052   8.712 -0.1877 -0.2447 -0.4473
14368SOL    HW145111   8.874   1.020   8.696  0.2400  0.0856  1.1628
14368SOL    HW245112   8.776   1.126   8.651  0.0684 -1.1930 -1.6918
14369SOL     OW45113   3.662   2.373   4.065 -0.1794 -0.0328 -0.2481
14369SOL    HW145114   3.659   2.396   4.158  1.4168  0.9334 -0.4047
14369SOL    HW245115   3.610   2.441   4.022 -0.8997 -0.4672 -0.0975
14370SOL     OW45116   6.575   5.049   0.071 -0.4738 -0.2364 -1.2083
14370SOL    HW145117   6.585   4.985   0.140 -2.4484 -0.5766 -1.1671
14370SOL    HW245118   6.556   5.131   0.116  0.4506  0.0373 -1.3029
14371SOL     OW45119   7.684   2.989   0.093 -0.0637 -0.5875 -0.8011
14371SOL    HW145120   7.667   2.911   0.146 -0.9679  1.0815  1.5526
14371SOL    HW245121   7.779   3.000   0.096 -0.1388 -0.0006  1.4516
14372SOL     OW45122   8.441   6.441   6.569  0.2277  0.0615 -0.5248
14372SOL    HW145123   8.366   6.484   6.529 -0.2098  0.0051  0.2223
14372SOL    HW245124   8.432   6.458   6.663  0.8205 -0.4429 -0.3679
14373SOL     OW45125   7.234   0.034   7.740 -0.0269  0.0718 -0.8641
14373SOL    HW145126   7.237  -0.010   7.655  0.6295  0.0411 -0.8315
14373SOL    HW245127   7.322   0.072   7.751 -0.4238  0.9712 -0.6703
14374SOL     OW45128   9.721   8.797   9.105  0.1150  0.1415 -0.0463
14374SOL    HW145129   9.640   8.828   9.065 -1.0997 -3.4394 -0.6807
14374SOL    HW245130   9.782   8.789   9.032  0.2429  0.3963  0.0289
14375SOL     OW45131   7.272   6.664   6.109  0.1457 -0.1665  0.0682
14375SOL    HW145132   7.318   6.669   6.025 -2.2134 -0.9181 -1.3554
14375SOL    HW245133   7.197   6.724   6.099 -1.5635 -2.1032  0.6484
14376SOL     OW45134   8.555   8.224   8.039  0.1412  0.2468  0.2476
14376SOL    HW145135   8.639   8.190   8.008 -0.7363 -1.6575 -0.1849
14376SOL    HW245136   8.552   8.314   8.006  2.8769  1.1438  2.0291
14377SOL     OW45137   9.955   9.442   1.741  0.1313 -0.0761 -0.1665
14377SOL    HW145138   9.863   9.447   1.716 -0.1750  2.7017  1.1543
14377SOL    HW245139   9.992   9.525   1.711  2.1711 -1.0060 -0.3823
14378SOL     OW45140   9.073   6.883   8.993  0.3367  0.4842  0.0959
14378SOL    HW145141   8.999   6.907   8.937  1.6845  1.1882 -1.4594
14378SOL    HW245142   9.056   6.929   9.075 -1.4817 -0.2433  0.1853
14379SOL     OW45143  10.736   2.619   4.094 -0.4650 -0.2857  0.4414
14379SOL    HW145144  10.719   2.541   4.147  0.6309 -1.3766 -0.7411
14379SOL    HW245145  10.682   2.687   4.134  0.9051 -0.8101  3.4804
14380SOL     OW45146   4.059   3.991   4.103 -0.0671  0.2710 -0.4767
14380SOL    HW145147   3.974   3.963   4.136  0.3318 -1.1790 -0.5999
14380SOL    HW245148   4.110   3.910   4.096  1.3996  1.1257 -0.1978
14381SOL     OW45149   4.021   3.646   6.695 -0.1639  0.5490 -0.0903
14381SOL    HW145150   4.006   3.574   6.756 -0.2767  0.0291 -0.7256
14381SOL    HW245151   3.992   3.613   6.610  3.0915 -0.0169 -1.1319
14382SOL     OW45152   1.916   5.757   4.556 -0.2464 -0.1919  0.0629
14382SOL    HW145153   1.961   5.678   4.586 -0.2661  0.0957  0.8885
14382SOL    HW245154   1.981   5.803   4.502  0.3688  0.0775  1.0071
14383SOL     OW45155   5.530   7.301   3.990 -0.7066 -0.2694  0.3629
14383SOL    HW145156   5.443   7.266   4.008 -0.9515  0.2108  0.1557
14383SOL    HW245157   5.513   7.377   3.934 -0.1993  0.1636  0.7852
14384SOL     OW45158   7.747   5.310   8.976 -0.1090  0.3394  0.3086
14384SOL    HW145159   7.792   5.379   9.024 -0.3624 -1.7740  3.9051
14384SOL    HW245160   7.655   5.320   9.000 -0.2475 -0.8132  0.3194
14385SOL     OW45161  11.006   2.289   0.220 -0.0150  0.2880  0.2799
14385SOL    HW145162  10.977   2.205   0.186 -3.7825  0.7768  1.8019
14385SOL    HW245163  10.973   2.353   0.157  1.3943  0.7329 -0.0315
14386SOL     OW45164   0.117   8.023   0.931 -0.3268  0.2149 -0.1980
14386SOL    HW145165   0.051   7.968   0.972 -2.0039  2.6527  0.5085
14386SOL    HW245166   0.079   8.048   0.847 -0.8526  2.5206  0.6730
14387SOL     OW45167   4.488   6.133   5.691 -0.1322 -0.1984 -0.2179
14387SOL    HW145168   4.465   6.216   5.649 -0.4185 -0.5876 -0.8521
14387SOL    HW245169   4.574   6.111   5.655  0.1093  0.0021  0.2309
14388SOL     OW45170   8.924   7.938   4.767  0.4415  0.3756 -0.0335
14388SOL    HW145171   8.956   7.880   4.698  0.7413  0.3853  0.0970
14388SOL    HW245172   9.001   7.956   4.821  0.0998 -0.0395  0.5985
14389SOL     OW45173   1.498   3.868   4.437 -0.0660  0.4752 -0.1744
14389SOL    HW145174   1.471   3.935   4.374  0.6481  0.2134 -0.7762
14389SOL    HW245175   1.592   3.859   4.422 -0.2223 -0.9558 -0.3732
14390SOL     OW45176   2.855   6.773   2.862  0.0062 -0.4312  0.3019
14390SOL    HW145177   2.879   6.852   2.814 -0.9217 -1.1824 -1.4760
14390SOL    HW245178   2.931   6.716   2.856 -0.2124 -0.6431 -0.5828
14391SOL     OW45179   9.984   5.831  10.041 -0.2412 -0.2639  0.4560
14391SOL    HW145180   9.941   5.752  10.072 -0.8368  0.3380  1.1998
14391SOL    HW245181  10.022   5.871  10.120 -1.2925  0.9911  0.3681
14392SOL     OW45182   4.009  10.637   8.381  0.0418  0.0911 -0.6731
14392SOL    HW145183   3.969  10.677   8.458  1.3260  1.0923 -0.4877
14392SOL    HW245184   4.044  10.711   8.331  1.1308 -0.6881 -1.1087
14393SOL     OW45185   4.284   3.789  10.037 -0.3719  0.1344  0.3889
14393SOL    HW145186   4.254   3.782  10.127  2.5506  0.9725  1.5649
14393SOL    HW245187   4.328   3.706  10.020  1.9340  1.1444  1.0075
14394SOL     OW45188   9.124   3.378   8.594  0.3696  0.1012 -0.5184
14394SOL    HW145189   9.063   3.332   8.651 -0.0095  0.5498 -0.5666
14394SOL    HW245190   9.209   3.371   8.639  0.0776  0.4403  0.0966
14395SOL     OW45191   4.095  10.898   8.246 -0.5606 -0.1794 -0.1393
14395SOL    HW145192   4.003  10.913   8.226  0.0369  1.1548 -2.0545
14395SOL    HW245193   4.113  10.956   8.320 -0.9335  0.5578 -0.6181
14396SOL     OW45194  10.319   4.813   1.086  0.6658 -0.0061  0.6493
14396SOL    HW145195  10.306   4.756   1.011  0.9010 -1.0664  1.3963
14396SOL    HW245196  10.409   4.844   1.078  1.1033 -1.1169  1.1554
14397SOL     OW45197   1.959   8.385  10.027  0.1384  0.0147 -0.5049
14397SOL    HW145198   1.884   8.341   9.987 -0.8237  0.9808  0.1903
14397SOL    HW245199   2.035   8.346   9.984 -0.7505 -1.0637 -1.1467
14398SOL     OW45200   3.948   9.270   5.764  0.3792 -0.1673  0.1023
14398SOL    HW145201   3.981   9.240   5.849 -0.1895 -0.6428  0.1673
14398SOL    HW245202   3.887   9.341   5.786 -0.7121 -1.0995  0.2089
14399SOL     OW45203   5.677   3.063   8.291 -0.8920 -0.1438 -0.0316
14399SOL    HW145204   5.660   3.034   8.381 -0.0274  1.7230  0.7895
14399SOL    HW245205   5.629   3.145   8.283  1.3137  1.2215 -0.2439
14400SOL     OW45206   3.515   4.855  11.027  0.2929  0.1316 -0.2430
14400SOL    HW145207   3.431   4.816  11.004  0.5275 -0.1860 -0.5815
14400SOL    HW245208   3.577   4.782  11.024  0.6963  0.4785 -0.6438
14401SOL     OW45209   7.236   7.960   4.761 -0.2883  0.3799  0.0060
14401SOL    HW145210   7.263   7.880   4.716  2.4929  1.4864 -0.5333
14401SOL    HW245211   7.208   7.930   4.848  1.1583 -1.1849 -0.0093
14402SOL     OW45212   7.953   6.774   8.685  0.1969  0.4173  0.3088
14402SOL    HW145213   7.988   6.687   8.665  0.9249  0.9462 -0.8782
14402SOL    HW245214   7.912   6.765   8.771  1.1348 -0.8467  0.6540
14403SOL     OW45215   0.773   4.460   9.571 -0.3994 -0.3927  0.5272
14403SOL    HW145216   0.804   4.549   9.585 -0.5508  0.4683 -3.3199
14403SOL    HW245217   0.852   4.406   9.571  0.1245  0.3479 -0.4058
14404SOL     OW45218   1.094   2.530  10.406 -0.3223  0.1119  0.1869
14404SOL    HW145219   1.147   2.592  10.456 -0.9098  1.6055 -0.9732
14404SOL    HW245220   1.054   2.473  10.473  0.7317  0.5546  1.2290
14405SOL     OW45221   0.244   4.879   3.673  0.3552 -0.3156  0.1461
14405SOL    HW145222   0.152   4.872   3.646  0.2325 -0.2487  0.5359
14405SOL    HW245223   0.283   4.938   3.609  0.0816 -0.2003  0.0816
14406SOL     OW45224   1.758   3.407   5.036 -0.8714  0.2884 -0.1170
14406SOL    HW145225   1.769   3.429   5.128 -0.1683  1.1839 -0.4093
14406SOL    HW245226   1.694   3.335   5.036  0.3678 -0.8667  1.1747
14407SOL     OW45227   5.375   3.913   7.632  0.2043  0.2719 -0.1151
14407SOL    HW145228   5.396   3.977   7.700 -0.0485  3.3910 -2.6716
14407SOL    HW245229   5.459   3.889   7.594  0.2105  0.3049 -0.1230
14408SOL     OW45230   8.570   8.308  10.873  0.0632  0.2881 -0.0061
14408SOL    HW145231   8.570   8.381  10.811 -1.1625  1.2704  1.0843
14408SOL    HW245232   8.653   8.317  10.920 -0.2986  1.3176  0.4692
14409SOL     OW45233   3.305   3.439   4.427  0.7231  0.7446  0.4300
14409SOL    HW145234   3.348   3.437   4.512  1.1498  0.1679  0.2081
14409SOL    HW245235   3.344   3.366   4.378 -0.2071  0.4619  0.0766
14410SOL     OW45236   5.123   0.163  10.435  0.5496 -0.1166  0.3316
14410SOL    HW145237   5.096   0.247  10.474 -0.1579  0.3793 -1.1486
14410SOL    HW245238   5.186   0.188  10.367  0.1769 -0.7654 -0.2580
14411SOL     OW45239   6.536   3.749   6.246  0.2492  0.2339 -0.8171
14411SOL    HW145240   6.532   3.842   6.224 -0.5911 -0.0480 -1.9781
14411SOL    HW245241   6.623   3.737   6.285 -0.1055  1.7320  0.5405
14412SOL     OW45242   4.924   8.917   7.179 -1.1481 -0.7129 -0.7773
14412SOL    HW145243   4.993   8.976   7.209 -2.5590  0.8913 -0.5501
14412SOL    HW245244   4.963   8.829   7.186 -0.0314 -0.0955  1.9060
14413SOL     OW45245   9.948   9.666   4.908 -0.1740 -0.8060 -0.3443
14413SOL    HW145246  10.027   9.636   4.954 -0.2719  0.8336  1.0147
14413SOL    HW245247   9.881   9.602   4.931 -0.0784 -0.3329  1.4654
14414SOL     OW45248   1.198   3.116   1.515  0.5946 -0.2032 -0.8022
14414SOL    HW145249   1.120   3.167   1.535  1.8100  1.0519  1.0788
14414SOL    HW245250   1.186   3.088   1.424 -1.7429  0.4315 -0.7455
14415SOL     OW45251   6.944   1.196   0.076 -0.1449  0.1590 -0.1448
14415SOL    HW145252   7.007   1.190   0.003  0.4460 -1.0974  0.4338
14415SOL    HW245253   6.890   1.117   0.067  0.1689 -0.2037  0.9759
14416SOL     OW45254   9.378   7.452   2.150  0.2239  0.8436  0.8060
14416SOL    HW145255   9.398   7.507   2.226  1.2690 -0.7564  1.7536
14416SOL    HW245256   9.283   7.457   2.142  0.0781  1.0359  2.2533
14417SOL     OW45257   2.627   4.174   4.627 -0.0828 -0.2662 -0.1330
14417SOL    HW145258   2.576   4.093   4.635 -0.1874 -0.0735  1.9087
14417SOL    HW245259   2.569   4.241   4.664  1.6407 -0.0910  2.5290
14418SOL     OW45260   1.721   5.683   1.286 -0.1909 -0.0453 -0.7361
14418SOL    HW145261   1.804   5.666   1.242 -0.8869 -0.5435 -1.9204
14418SOL    HW245262   1.658   5.627   1.241 -1.1110  0.0620  0.3611
14419SOL     OW45263   7.838   2.563   8.729  0.3249 -0.0351  0.1581
14419SOL    HW145264   7.751   2.535   8.756  0.5633 -0.1274  0.8653
14419SOL    HW245265   7.897   2.504   8.776  0.8234  1.3487  1.3399
14420SOL     OW45266   6.445   6.122   6.396 -0.5531  0.1672  0.7725
14420SOL    HW145267   6.457   6.193   6.459 -1.7473 -0.0357  1.2443
14420SOL    HW245268   6.501   6.147   6.322  0.0709  0.9205  1.4797
14421SOL     OW45269   4.899   6.017   5.300 -0.0702  0.1321 -0.2750
14421SOL    HW145270   4.968   5.952   5.284 -1.8499 -1.7588 -0.6788
14421SOL    HW245271   4.837   5.972   5.358 -1.9371  1.0392 -1.4805
14422SOL     OW45272   9.424  10.090  10.272  0.1818 -0.2158  0.0944
14422SOL    HW145273   9.333  10.076  10.245  0.7231 -0.6442 -1.6178
14422SOL    HW245274   9.448  10.173  10.231 -0.1560  1.2091  2.5888
14423SOL     OW45275   4.206   5.037   5.089  0.0806 -0.2875 -0.2288
14423SOL    HW145276   4.294   5.058   5.119  0.6472 -1.1101 -1.2692
14423SOL    HW245277   4.182   5.111   5.033 -0.4935  0.6433  1.1777
14424SOL     OW45278   7.406   3.203  10.111 -0.2264 -0.7015 -0.3255
14424SOL    HW145279   7.357   3.252  10.177  0.6561 -0.9050  0.5069
14424SOL    HW245280   7.387   3.111  10.130  1.2720 -0.8399  0.6967
14425SOL     OW45281   6.130  10.732   1.567 -0.1159  0.2635 -0.4387
14425SOL    HW145282   6.107  10.687   1.648  0.9787 -0.0081 -0.2672
14425SOL    HW245283   6.092  10.677   1.498 -0.0864 -0.1127 -0.1567
14426SOL     OW45284   4.498   4.606   3.936 -0.3442  0.4394  0.5838
14426SOL    HW145285   4.554   4.569   4.004 -1.2249 -1.1145  0.5213
14426SOL    HW245286   4.558   4.629   3.865  0.4165  0.6898  1.2865
14427SOL     OW45287  10.347   5.879   0.147 -0.8807 -0.1867  0.4455
14427SOL    HW145288  10.270   5.907   0.198 -0.5150  0.0364  0.8775
14427SOL    HW245289  10.401   5.831   0.210  0.4737  1.6536  0.7698
14428SOL     OW45290   6.706   6.786   5.941  0.0154 -0.3113 -0.0511
14428SOL    HW145291   6.620   6.745   5.951  0.2054 -1.0781 -1.3013
14428SOL    HW245292   6.765   6.712   5.925  0.6385  0.3223 -0.7262
14429SOL     OW45293   3.116   8.547   9.168 -0.3466 -0.4738 -0.3995
14429SOL    HW145294   3.138   8.593   9.249 -0.9580 -2.1383  0.7522
14429SOL    HW245295   3.082   8.616   9.110 -1.8765  0.4325  1.4832
14430SOL     OW45296   6.083   9.356   1.641  0.5543 -0.5497 -0.2669
14430SOL    HW145297   6.062   9.353   1.735 -0.3697  1.5382 -0.3553
14430SOL    HW245298   6.179   9.349   1.639  0.4970 -2.3047  0.6777
14431SOL     OW45299  10.577   9.764   5.095 -0.8196 -0.3301 -0.6848
14431SOL    HW145300  10.673   9.754   5.093 -0.5861  1.5967 -3.1172
14431SOL    HW245301  10.563   9.853   5.125 -1.8557 -0.4956 -0.6693
14432SOL     OW45302   5.402   5.429   5.391 -0.3040  0.7750  0.1627
14432SOL    HW145303   5.322   5.398   5.349 -0.6768  0.6970  0.9081
14432SOL    HW245304   5.436   5.496   5.332 -0.2757 -0.0204 -0.7505
14433SOL     OW45305   1.429  10.754   2.255 -0.0718  0.6586 -0.3494
14433SOL    HW145306   1.374  10.755   2.333 -1.5790  2.4954 -1.3430
14433SOL    HW245307   1.412  10.669   2.215  2.0122 -1.0563  2.0746
14434SOL     OW45308   0.325   3.856   1.484  0.1971  0.7092 -0.2319
14434SOL    HW145309   0.319   3.876   1.577  2.2841 -1.6569  0.5436
14434SOL    HW245310   0.286   3.769   1.475  1.0556  0.4007 -1.3217
14435SOL     OW45311   9.728   0.722   7.725  0.3691 -0.2995 -0.3604
14435SOL    HW145312   9.718   0.688   7.636 -1.8181  1.2265 -0.7779
14435SOL    HW245313   9.695   0.811   7.721  2.5641  0.7038  1.4775
14436SOL     OW45314   4.411   7.875   1.276  0.2563 -0.0562  0.3483
14436SOL    HW145315   4.333   7.928   1.289 -0.9781 -1.8726  0.7895
14436SOL    HW245316   4.396   7.829   1.194  0.1698 -1.4757  1.1161
14437SOL     OW45317   6.414   3.151   2.241 -0.3954  0.1310 -0.6700
14437SOL    HW145318   6.375   3.091   2.178  0.8155  0.1341 -1.4627
14437SOL    HW245319   6.448   3.095   2.311 -1.4363  0.1020 -0.1719
14438SOL     OW45320   0.663   1.754   2.335  0.6879  0.4619  0.2710
14438SOL    HW145321   0.680   1.813   2.409  3.1919  0.7555 -0.4539
14438SOL    HW245322   0.749   1.738   2.297 -0.4824  0.0171 -2.3745
14439SOL     OW45323   9.711   9.304   0.327 -0.0330 -0.4047 -0.6643
14439SOL    HW145324   9.794   9.257   0.318 -0.0260 -0.9403  1.5668
14439SOL    HW245325   9.664   9.255   0.395 -1.2473  1.1619 -0.3386
14440SOL     OW45326   4.092   9.305   9.199  0.2399 -0.7182  0.5444
14440SOL    HW145327   4.055   9.236   9.144  1.4455 -1.1322  0.2169
14440SOL    HW245328   4.183   9.311   9.172  0.5049  0.0568  1.5305
14441SOL     OW45329   0.089   6.739   9.511  0.1388  0.0990 -0.6340
14441SOL    HW145330   0.074   6.729   9.605 -1.0897 -0.0696 -0.8396
14441SOL    HW245331   0.104   6.833   9.499  1.0486  0.0227 -0.1802
14442SOL     OW45332   3.833   9.964   6.745 -0.0274  0.5941 -0.0317
14442SOL    HW145333   3.791   9.998   6.825 -3.5497 -1.9457 -0.5548
14442SOL    HW245334   3.827  10.036   6.683 -0.7343  1.3767  0.8986
14443SOL     OW45335   5.206   7.635   5.434  0.2970  0.0291 -0.4545
14443SOL    HW145336   5.266   7.567   5.404  1.0750  0.6263 -0.2626
14443SOL    HW245337   5.262   7.707   5.462 -0.4983  1.7410 -2.9093
14444SOL     OW45338   9.231   1.036   9.621 -0.6429 -0.0788  0.3916
14444SOL    HW145339   9.178   1.115   9.613 -0.7619 -0.2385 -0.5688
14444SOL    HW245340   9.300   1.059   9.683 -1.3546  0.3919  1.0277
14445SOL     OW45341   1.347   5.736   4.942 -0.7265 -0.1918 -0.0816
14445SOL    HW145342   1.380   5.742   5.032  1.5671 -0.4243 -0.8461
14445SOL    HW245343   1.349   5.642   4.922  0.7288  0.0071 -1.0064
14446SOL     OW45344   2.691   9.348  10.072 -0.4839  0.2115  0.1178
14446SOL    HW145345   2.704   9.432  10.115 -0.0473  0.1592  0.0942
14446SOL    HW245346   2.598   9.329  10.083 -0.3780  0.1854  1.0734
14447SOL     OW45347   4.444   2.064   1.159 -0.9107  0.1053 -0.1646
14447SOL    HW145348   4.357   2.077   1.121 -0.8464  0.9173 -0.0523
14447SOL    HW245349   4.447   2.125   1.232 -0.9890 -1.3387  1.0979
14448SOL     OW45350   8.246   4.819   5.181  0.5553  0.2930  0.6086
14448SOL    HW145351   8.327   4.853   5.142 -0.1242  0.3231 -0.8837
14448SOL    HW245352   8.273   4.746   5.235  1.3859 -1.6731 -2.2119
14449SOL     OW45353   5.182   0.023   6.535 -0.1572  0.0675  0.0480
14449SOL    HW145354   5.276   0.015   6.553 -0.2912  2.3804  2.4400
14449SOL    HW245355   5.143   0.046   6.620 -2.0423  4.5880 -1.7068
14450SOL     OW45356   4.034   5.877   2.388 -1.0456  0.2375 -0.2459
14450SOL    HW145357   4.116   5.878   2.339 -0.9687 -0.4440 -0.1471
14450SOL    HW245358   4.003   5.786   2.381 -0.3219 -0.2659  2.1284
14451SOL     OW45359   3.428   9.845   0.231  0.0853  0.2155 -0.6863
14451SOL    HW145360   3.428   9.752   0.252  1.7312  0.1359 -0.8839
14451SOL    HW245361   3.518   9.873   0.247 -0.6277  2.0328  0.4324
14452SOL     OW45362   6.873   3.817   4.160 -0.2095 -0.3421 -0.1689
14452SOL    HW145363   6.869   3.769   4.242 -1.7214 -2.0200 -1.1334
14452SOL    HW245364   6.894   3.907   4.185  0.7316 -1.0862  1.8976
14453SOL     OW45365   6.037   3.347   8.578  0.4771 -0.0002 -0.4366
14453SOL    HW145366   6.018   3.392   8.660 -1.0148  1.4316 -1.5135
14453SOL    HW245367   6.116   3.390   8.545  1.7555 -1.3251  0.7071
14454SOL     OW45368  10.555   5.900   3.154 -0.7512 -0.1586  0.5364
14454SOL    HW145369  10.628   5.942   3.199 -1.0163  1.6335 -0.6021
14454SOL    HW245370  10.585   5.892   3.063 -1.5963 -0.3443  0.2658
14455SOL     OW45371   8.143   9.078  10.295 -0.7349  0.2774  0.5980
14455SOL    HW145372   8.104   8.996  10.325  1.3368 -1.3130 -0.8302
14455SOL    HW245373   8.180   9.118  10.374 -0.4587 -0.9163  1.0936
14456SOL     OW45374   1.808   5.983   6.809 -0.4594  0.1211  0.4652
14456SOL    HW145375   1.862   6.027   6.743 -2.3133  0.0186 -1.1961
14456SOL    HW245376   1.724   6.028   6.806 -1.3584 -1.4366  1.0324
14457SOL     OW45377   7.469   5.308   9.061 -0.5303  0.2609 -0.3118
14457SOL    HW145378   7.444   5.274   9.147 -3.4602  0.5214 -0.9553
14457SOL    HW245379   7.400   5.369   9.038  1.0511  1.4584 -2.1777
14458SOL     OW45380   0.352   0.667   7.672 -0.0466  0.2690 -0.2270
14458SOL    HW145381   0.339   0.733   7.603 -0.7735 -1.6286 -2.0131
14458SOL    HW245382   0.303   0.701   7.746 -0.4831  1.6922 -1.1161
14459SOL     OW45383   4.404   3.688   1.094  0.0726  0.0797  0.0914
14459SOL    HW145384   4.411   3.611   1.038 -0.2418  0.7197 -0.8604
14459SOL    HW245385   4.347   3.748   1.045 -1.6227  0.0111  1.8394
14460SOL     OW45386   3.309   7.707   2.103  0.2038 -0.2659  0.0172
14460SOL    HW145387   3.302   7.620   2.063  0.4948  0.3820 -1.5293
14460SOL    HW245388   3.221   7.726   2.135  0.6910 -2.2330  2.9344
14461SOL     OW45389   7.881   1.949   1.791  0.7091 -0.2975  0.4200
14461SOL    HW145390   7.828   1.896   1.850 -0.9460  0.6486 -0.1707
14461SOL    HW245391   7.930   1.885   1.739  0.0801 -1.1947  0.9096
14462SOL     OW45392   9.442   7.274   0.521  0.7616  0.2210  0.5593
14462SOL    HW145393   9.365   7.330   0.534  0.8284  0.9467 -1.6258
14462SOL    HW245394   9.505   7.331   0.477  1.2227 -1.2735 -0.8246
14463SOL     OW45395   8.659   0.750   1.405  0.2547  0.5153 -0.1650
14463SOL    HW145396   8.627   0.788   1.323 -1.9612  0.5732  0.6660
14463SOL    HW245397   8.729   0.690   1.378 -0.5658  0.3745 -2.1342
14464SOL     OW45398   6.463   8.799   5.080  0.0755  0.0641  0.3106
14464SOL    HW145399   6.462   8.728   5.145  0.6107 -0.4258 -0.2064
14464SOL    HW245400   6.425   8.873   5.126 -0.2976 -0.4961  0.9342
14465SOL     OW45401   9.067   8.229   0.179 -0.6185 -0.4429  0.3815
14465SOL    HW145402   9.148   8.204   0.134 -1.7965  0.3669 -2.4175
14465SOL    HW245403   9.021   8.146   0.191  0.2937 -0.8316  1.4061
14466SOL     OW45404   7.990   5.526   0.106  0.1644  0.3274 -0.7930
14466SOL    HW145405   8.025   5.514   0.018  1.2746  1.4891 -0.5431
14466SOL    HW245406   7.955   5.615   0.105  1.0764  0.7068  0.2198
14467SOL     OW45407   3.371   8.206   6.288 -0.4445 -0.2734  0.3329
14467SOL    HW145408   3.392   8.119   6.255 -1.0443 -0.1217 -0.4760
14467SOL    HW245409   3.383   8.200   6.383 -2.5387 -1.8402  0.5664
14468SOL     OW45410  10.055   4.631   9.108  0.3808  0.1759  0.3240
14468SOL    HW145411  10.118   4.701   9.125 -1.1380  1.6783  0.0433
14468SOL    HW245412  10.048   4.584   9.191  2.6260 -0.7298  0.0773
14469SOL     OW45413   5.931   8.803   7.927 -1.0363  0.1074  0.1214
14469SOL    HW145414   5.903   8.826   7.838 -0.7628  0.6622  0.1757
14469SOL    HW245415   5.971   8.882   7.961 -0.4888 -0.3185  0.4836
14470SOL     OW45416   9.844   1.977   9.138 -0.2015 -0.0161 -0.0773
14470SOL    HW145417   9.927   1.966   9.184 -0.0594 -0.4604 -0.4319
14470SOL    HW245418   9.860   2.049   9.077  0.7740 -1.7528 -2.0030
14471SOL     OW45419   9.428   3.218   9.915  0.2344 -0.4935  0.5279
14471SOL    HW145420   9.482   3.179   9.983  1.1719 -0.1009  0.0368
14471SOL    HW245421   9.436   3.313   9.930 -1.4980 -0.4309  1.3246
14472SOL     OW45422   7.761   0.183  10.624  0.0857 -0.0066 -0.6697
14472SOL    HW145423   7.777   0.204  10.716  2.7471 -1.4314 -0.7063
14472SOL    HW245424   7.785   0.091  10.616  0.0208  0.1070 -2.8104
14473SOL     OW45425  10.479   7.376   8.582  0.0450 -0.0389  0.3711
14473SOL    HW145426  10.462   7.448   8.643  1.4045 -0.9739  1.9256
14473SOL    HW245427  10.402   7.319   8.592  0.4988 -0.4586  1.6627
14474SOL     OW45428   5.512   4.387   7.216  0.3767 -0.8543 -0.2717
14474SOL    HW145429   5.479   4.380   7.305 -0.3115 -1.6017 -0.5695
14474SOL    HW245430   5.531   4.297   7.190  2.3950 -0.4781 -0.2329
14475SOL     OW45431   3.564   9.212   3.074 -0.1359  0.2559  0.0111
14475SOL    HW145432   3.545   9.221   3.167  0.9674  1.5121  0.1544
14475SOL    HW245433   3.517   9.133   3.047  0.4763 -0.8143  1.8869
14476SOL     OW45434   2.615   0.566   9.579 -0.3739  0.3084 -0.6444
14476SOL    HW145435   2.596   0.491   9.637  0.1651  0.7148  0.0729
14476SOL    HW245436   2.702   0.594   9.604 -0.2950  0.7579 -1.3893
14477SOL     OW45437   4.831   5.244   2.878 -0.6487 -0.0551  0.1887
14477SOL    HW145438   4.910   5.192   2.865  0.6273  2.0193 -0.8548
14477SOL    HW245439   4.833   5.268   2.970  0.2475  0.4067  0.0608
14478SOL     OW45440   9.751   9.446   5.248  0.5407  0.3517  0.6023
14478SOL    HW145441   9.781   9.461   5.158 -0.5696 -2.3332 -0.3339
14478SOL    HW245442   9.677   9.506   5.258  0.1726  0.1468 -0.6171
14479SOL     OW45443   0.989   6.926   7.569  0.2600 -0.0502  0.1450
14479SOL    HW145444   0.992   6.867   7.643  2.7835 -0.9293 -0.5659
14479SOL    HW245445   1.067   6.980   7.577  1.0249 -0.6595 -2.1964
14480SOL     OW45446   3.946   9.192   1.718 -0.1524 -0.4253  0.0373
14480SOL    HW145447   3.918   9.209   1.808  0.1101 -2.2162  0.5109
14480SOL    HW245448   3.901   9.110   1.695 -1.3407  0.7251 -2.0024
14481SOL     OW45449   2.689   6.444   3.758 -0.2385 -0.5530 -0.4587
14481SOL    HW145450   2.603   6.471   3.727 -0.5328 -2.6183 -1.6281
14481SOL    HW245451   2.749   6.467   3.686  0.1194  0.3110  0.0943
14482SOL     OW45452   2.578   4.651   6.110 -0.4567  0.7275  0.1010
14482SOL    HW145453   2.511   4.650   6.041 -0.4419  1.1484  0.0800
14482SOL    HW245454   2.537   4.606   6.183  0.1237 -1.2570 -0.7225
14483SOL     OW45455   9.348   9.375   7.936  0.2747  0.3634 -0.1156
14483SOL    HW145456   9.308   9.454   7.900  0.1369  2.0550  3.3961
14483SOL    HW245457   9.439   9.400   7.955  0.6071 -0.7531 -0.1390
14484SOL     OW45458   1.741  10.952   1.403  0.1011  0.2343  1.1940
14484SOL    HW145459   1.661  10.974   1.451 -0.1946 -0.2237  0.9192
14484SOL    HW245460   1.801  10.920   1.470 -0.5966 -1.1919  1.1698
14485SOL     OW45461   8.034   6.453   6.235  0.5112  0.5391  0.0652
14485SOL    HW145462   8.005   6.538   6.203  1.6454  0.9757  0.1328
14485SOL    HW245463   8.089   6.419   6.164 -1.3806 -0.9809 -0.7539
14486SOL     OW45464   4.400   4.353   2.097 -0.2641  0.3302  0.1403
14486SOL    HW145465   4.349   4.273   2.087  0.9775 -0.5810  0.8836
14486SOL    HW245466   4.349   4.406   2.158 -1.6423  0.6243 -1.1862
14487SOL     OW45467   0.151   8.247   4.935  0.5914  0.1259 -0.2198
14487SOL    HW145468   0.083   8.213   4.994 -1.0163  3.0384 -0.2020
14487SOL    HW245469   0.231   8.204   4.964 -1.1343 -3.4651 -0.2132
14488SOL     OW45470   5.213   0.475   6.443 -0.1071  0.0138  0.2541
14488SOL    HW145471   5.185   0.566   6.444 -1.0615 -0.2461 -0.4500
14488SOL    HW245472   5.175   0.437   6.523  1.4309  0.5257  1.2633
14489SOL     OW45473   1.449  10.834   0.468  0.3450  0.0786 -0.3693
14489SOL    HW145474   1.414  10.880   0.544  0.7578  0.1791 -0.2401
14489SOL    HW245475   1.531  10.794   0.499  0.5262  0.1359 -0.7654
14490SOL     OW45476   0.997   9.558  10.944  0.4694  0.2852  0.0977
14490SOL    HW145477   1.048   9.521  10.872 -0.3388  0.9382 -0.8294
14490SOL    HW245478   1.062   9.592  11.005  1.2319 -1.9379  0.6167
14491SOL     OW45479   7.895   6.966   9.304  0.0773 -0.2084  0.1313
14491SOL    HW145480   7.818   6.999   9.257  1.0740 -0.6548 -1.9175
14491SOL    HW245481   7.859   6.902   9.365 -1.1522 -0.7347 -1.0873
14492SOL     OW45482   7.250   0.974   9.417 -0.4024 -0.0699  0.1558
14492SOL    HW145483   7.228   0.888   9.451 -0.5544  1.0634  3.2081
14492SOL    HW245484   7.180   1.031   9.448 -0.0743  1.2682 -1.4209
14493SOL     OW45485   0.777  10.817   5.268  0.1056  0.0408 -0.0941
14493SOL    HW145486   0.870  10.830   5.283 -0.0037 -0.2516  0.9178
14493SOL    HW245487   0.772  10.777   5.181  0.8513  0.8628 -0.5288
14494SOL     OW45488   6.021   0.393  10.025 -0.2691 -0.2883  0.1784
14494SOL    HW145489   5.971   0.424  10.101 -1.1385 -1.2763  0.0488
14494SOL    HW245490   5.962   0.407   9.951  0.7110  0.9938 -0.3810
14495SOL     OW45491   0.779   8.565   5.985  0.4604  0.3404 -0.0597
14495SOL    HW145492   0.799   8.624   5.912 -0.9043  0.7817 -0.1154
14495SOL    HW245493   0.855   8.508   5.991  1.2835  1.3107 -0.8132
14496SOL     OW45494   8.333   6.298   1.313  0.3038  0.9046 -0.0420
14496SOL    HW145495   8.255   6.305   1.258 -0.1905  0.6873  0.6219
14496SOL    HW245496   8.356   6.388   1.334 -0.8190  0.9324  1.1989
14497SOL     OW45497   8.770   5.016   8.387 -1.0437  0.5088 -0.5549
14497SOL    HW145498   8.715   4.996   8.463 -0.6501  0.5908 -0.2430
14497SOL    HW245499   8.715   5.071   8.332 -1.6395 -0.2676 -0.7469
14498SOL     OW45500   8.490   7.473   2.645  0.4169 -0.5121  0.3570
14498SOL    HW145501   8.550   7.407   2.610 -0.0388 -0.5801 -0.3102
14498SOL    HW245502   8.485   7.454   2.738 -0.9556 -2.4279 -0.0615
14499SOL     OW45503  10.537   5.303   0.862  0.3124  0.1606 -0.2414
14499SOL    HW145504  10.572   5.264   0.942 -0.3778  0.5434  0.2539
14499SOL    HW245505  10.614   5.311   0.805  0.5945 -1.3042 -0.1285
14500SOL     OW45506   0.333   0.482   8.420 -0.5376 -0.7953 -0.2786
14500SOL    HW145507   0.355   0.489   8.327  1.1520 -0.5065  0.1080
14500SOL    HW245508   0.418   0.476   8.464 -1.3233 -1.9769  1.1744
14501SOL     OW45509   1.054   9.061   9.092 -0.2720 -0.6905  0.5449
14501SOL    HW145510   0.964   9.030   9.101 -0.6631  0.7440  2.0553
14501SOL    HW245511   1.091   9.051   9.180  0.5943  0.0333  0.2772
14502SOL     OW45512   2.556   2.750   1.065  0.2685 -0.2180 -0.0136
14502SOL    HW145513   2.577   2.661   1.035  0.7662 -0.5427  1.2069
14502SOL    HW245514   2.577   2.806   0.990 -1.2348 -1.2195 -1.2472
14503SOL     OW45515   4.798   3.915   3.802  0.1484  0.2932 -0.2154
14503SOL    HW145516   4.781   3.909   3.708  1.7173  2.0947 -0.6877
14503SOL    HW245517   4.849   3.837   3.822  0.3816  0.2271 -1.0164
14504SOL     OW45518   3.201  10.861   9.718 -0.9244 -0.2720 -0.2161
14504SOL    HW145519   3.174  10.923   9.785 -0.6366  0.1269 -0.4638
14504SOL    HW245520   3.258  10.799   9.763 -0.8842 -0.1151 -0.0520
14505SOL     OW45521   0.969   8.379   9.150  0.0079 -0.5503 -0.0665
14505SOL    HW145522   0.934   8.438   9.084  3.4212 -1.0210 -2.5850
14505SOL    HW245523   0.992   8.299   9.102  0.5025 -1.8555  2.1538
14506SOL     OW45524   3.691   6.052   5.393 -0.0486 -0.1352  0.2819
14506SOL    HW145525   3.694   6.106   5.472 -1.4888 -1.1615  1.0744
14506SOL    HW245526   3.645   5.973   5.419  0.2897 -0.9164 -1.3575
14507SOL     OW45527   1.646   6.652   5.966  0.4109 -0.0761  0.1473
14507SOL    HW145528   1.627   6.622   5.877 -1.2175  1.4045 -0.0734
14507SOL    HW245529   1.741   6.646   5.974  0.6897  0.5023 -1.9848
14508SOL     OW45530   2.745   1.153   3.925  0.4465 -0.7988  0.4855
14508SOL    HW145531   2.717   1.102   4.001 -0.8020 -0.8707  0.0133
14508SOL    HW245532   2.693   1.233   3.930  0.7203 -0.5850 -0.0270
14509SOL     OW45533   8.177   4.212   0.644  0.0259 -0.2870  0.0317
14509SOL    HW145534   8.100   4.267   0.659  0.7941  0.4731  1.3270
14509SOL    HW245535   8.150   4.153   0.574 -1.7434 -0.0634  0.4707
14510SOL     OW45536   2.469   2.725   7.617  0.1129  0.0914  0.4950
14510SOL    HW145537   2.563   2.712   7.631  0.0345 -1.0230  0.0636
14510SOL    HW245538   2.430   2.712   7.703  0.2430 -0.6436  0.4491
14511SOL     OW45539   3.179   7.752   5.009  0.7020 -0.3896  0.0222
14511SOL    HW145540   3.182   7.663   5.045 -0.1350 -0.8195 -0.9356
14511SOL    HW245541   3.271   7.778   5.004  0.9038 -0.8010  1.2546
14512SOL     OW45542  10.352   9.189   7.744  0.4977  0.6877  0.3609
14512SOL    HW145543  10.422   9.254   7.735  1.0694  0.4083  2.3421
14512SOL    HW245544  10.392   9.106   7.719  0.8329  0.5556  1.3205
14513SOL     OW45545   1.490   1.866   0.987  0.1478  0.3082 -0.0930
14513SOL    HW145546   1.475   1.908   1.072 -0.7739 -1.6280  0.7738
14513SOL    HW245547   1.491   1.938   0.924  2.0448  1.9182  1.6666
14514SOL     OW45548   6.434   5.215   6.615  0.1216 -0.4950 -0.0112
14514SOL    HW145549   6.342   5.196   6.595  0.4166 -0.3418 -1.7145
14514SOL    HW245550   6.482   5.182   6.538  1.2125  1.8367 -0.4268
14515SOL     OW45551   3.727   7.033   7.408  0.0645 -0.4902  0.3142
14515SOL    HW145552   3.668   6.988   7.468  1.6105 -1.2382  1.3223
14515SOL    HW245553   3.743   7.118   7.449 -0.7444 -0.0447 -0.2585
14516SOL     OW45554   8.990   5.568   1.771 -0.1379 -0.1514 -0.2664
14516SOL    HW145555   9.008   5.475   1.784 -1.4161 -0.5973 -1.4626
14516SOL    HW245556   9.072   5.612   1.795  0.7896 -1.6506 -0.5726
14517SOL     OW45557   2.885  10.570   5.799 -0.6656  0.8221 -0.0195
14517SOL    HW145558   2.828  10.617   5.738 -1.2406  0.0102 -0.1257
14517SOL    HW245559   2.825  10.521   5.856 -0.0854 -1.5519 -1.3229
14518SOL     OW45560   2.238   8.115   9.364  0.0120  0.2344 -0.6599
14518SOL    HW145561   2.289   8.036   9.380 -1.0977 -0.3935 -0.0864
14518SOL    HW245562   2.189   8.095   9.284 -0.0184  0.4770 -0.7016
14519SOL     OW45563   5.888   8.973   3.650 -0.7334 -0.0051 -0.0781
14519SOL    HW145564   5.956   8.934   3.594 -1.3361 -0.3858 -0.5587
14519SOL    HW245565   5.927   8.973   3.738 -0.7941 -1.9783  0.0024
14520SOL     OW45566  10.467   8.796  10.020  0.4782 -0.2917  0.2741
14520SOL    HW145567  10.506   8.767  10.102 -0.6144 -1.7242  0.3233
14520SOL    HW245568  10.455   8.715   9.969 -0.1417  0.4062 -0.7268
14521SOL     OW45569   2.291   7.443   4.127  0.3985 -0.2267 -0.4717
14521SOL    HW145570   2.331   7.368   4.172 -2.8540 -1.5215  0.5196
14521SOL    HW245571   2.343   7.453   4.047  4.8416  0.5761  2.1487
14522SOL     OW45572   8.507   7.361   6.542  0.4428 -0.1517 -0.1859
14522SOL    HW145573   8.459   7.304   6.482 -0.8403  0.4833  0.1952
14522SOL    HW245574   8.477   7.334   6.629 -1.0524  1.7718 -0.0310
14523SOL     OW45575   9.528   0.072   0.706  0.0558  0.5213  0.3069
14523SOL    HW145576   9.443   0.029   0.708  0.6662 -0.9117 -1.7529
14523SOL    HW245577   9.509   0.163   0.686 -0.9616 -0.0952 -1.8053
14524SOL     OW45578   1.533  10.160   1.794  0.0531 -0.1809 -0.0660
14524SOL    HW145579   1.468  10.102   1.755 -1.0227 -0.7231  2.3742
14524SOL    HW245580   1.589  10.103   1.846  0.7696  0.6293  0.0863
14525SOL     OW45581   4.644   3.878   4.047 -0.0552  0.3761  0.0052
14525SOL    HW145582   4.709   3.919   3.989 -0.0815  2.0856  1.0973
14525SOL    HW245583   4.679   3.892   4.135 -0.4314 -1.4117  0.4756
14526SOL     OW45584  10.759   9.999   0.803 -0.5022  0.2368  0.2076
14526SOL    HW145585  10.848  10.021   0.777 -1.0684  1.0494 -1.1668
14526SOL    HW245586  10.740   9.917   0.757  0.1400 -0.9778  1.9825
14527SOL     OW45587  10.783   6.262   4.100 -0.2691  0.6262 -0.3114
14527SOL    HW145588  10.688   6.269   4.110 -0.3631 -1.2353  0.6341
14527SOL    HW245589  10.796   6.243   4.007 -0.9565 -0.3417 -0.2303
14528SOL     OW45590  10.913  10.806  10.305 -0.3059 -0.2872  0.0654
14528SOL    HW145591  10.956  10.881  10.264  0.7629 -0.4661  0.8246
14528SOL    HW245592  10.826  10.804  10.265  0.0488  0.6587 -0.8082
14529SOL     OW45593   9.357  10.438   5.903  0.1159 -0.4544 -0.1500
14529SOL    HW145594   9.273  10.442   5.857  0.6614  2.5680 -1.0657
14529SOL    HW245595   9.342  10.484   5.985  0.7743 -0.1633 -0.1856
14530SOL     OW45596   9.156   2.629   8.524 -0.3833 -0.0651 -0.3979
14530SOL    HW145597   9.208   2.690   8.576  0.8627 -2.1653  0.9433
14530SOL    HW245598   9.219   2.591   8.462 -1.3594  0.6769 -1.9263
14531SOL     OW45599   2.513  11.016   4.058  0.1600  0.2775 -0.6993
14531SOL    HW145600   2.465  11.078   4.003 -0.1790  1.1450  0.5280
14531SOL    HW245601   2.534  11.066   4.137  2.1476 -0.4151 -0.7410
14532SOL     OW45602   4.360  10.184   2.348  1.0024  0.3463 -0.0117
14532SOL    HW145603   4.299  10.252   2.319  0.7657 -0.3488 -1.2477
14532SOL    HW245604   4.390  10.143   2.266  0.3018 -1.7434  0.6904
14533SOL     OW45605   6.577   6.813   4.132 -0.1476  0.0096 -0.1725
14533SOL    HW145606   6.515   6.845   4.197 -1.4980  2.2200 -2.3552
14533SOL    HW245607   6.580   6.719   4.146 -0.1020  0.3925  3.2078
14534SOL     OW45608   0.932   9.023  10.164  0.2422 -0.3316  0.3134
14534SOL    HW145609   1.009   9.015  10.220 -0.6171 -0.5838  1.4855
14534SOL    HW245610   0.868   9.070  10.217 -0.2209  0.4157 -0.8663
14535SOL     OW45611   7.624   7.702   3.300  0.3850 -0.3596  0.4077
14535SOL    HW145612   7.591   7.772   3.245 -1.3747 -1.7219 -0.3653
14535SOL    HW245613   7.599   7.622   3.255  1.3308 -1.5126  1.8227
14536SOL     OW45614   7.664  10.955   2.418 -0.2755 -0.8700 -0.3881
14536SOL    HW145615   7.679  11.047   2.439 -2.0410  0.0263 -2.6727
14536SOL    HW245616   7.585  10.955   2.365 -0.1010 -3.6845 -0.7873
14537SOL     OW45617   1.915   4.537   8.799 -0.2883  0.0537  0.5089
14537SOL    HW145618   1.864   4.470   8.846 -0.5798  0.2681  0.4993
14537SOL    HW245619   1.874   4.541   8.712 -0.2002  0.1646  0.4740
14538SOL     OW45620   8.682   3.296   8.770 -0.5820 -0.2235 -0.5014
14538SOL    HW145621   8.629   3.271   8.694 -0.1404 -1.0105 -0.5557
14538SOL    HW245622   8.684   3.218   8.825 -0.1242  0.0495 -0.1199
14539SOL     OW45623  10.354   9.298   4.909  0.2412 -0.1694  0.5641
14539SOL    HW145624  10.298   9.371   4.936 -0.1972  0.3576 -1.5402
14539SOL    HW245625  10.444   9.332   4.917  0.0403  0.6494 -0.4049
14540SOL     OW45626   6.897   0.799   9.995 -0.6992  0.1728  0.0124
14540SOL    HW145627   6.990   0.799   9.975 -0.6930 -1.2302 -0.0679
14540SOL    HW245628   6.887   0.734  10.064 -1.6865 -0.0266 -0.2958
14541SOL     OW45629   8.707   7.335  10.712 -0.1916 -0.1404  0.2262
14541SOL    HW145630   8.625   7.317  10.759  0.8832 -2.4099  1.4179
14541SOL    HW245631   8.690   7.305  10.623 -0.4706 -1.2222  0.6296
14542SOL     OW45632   6.816   5.540   2.696 -0.3838  0.7343  0.0484
14542SOL    HW145633   6.823   5.626   2.653 -1.2996  0.5505 -0.4884
14542SOL    HW245634   6.725   5.536   2.725  0.1603  0.7620  1.8481
14543SOL     OW45635   7.329   6.063   9.578  0.4851  0.0855  0.3563
14543SOL    HW145636   7.290   6.150   9.588  0.5443  0.1813 -0.2080
14543SOL    HW245637   7.263   6.012   9.531  0.6164 -0.0556  0.3219
14544SOL     OW45638   7.863  10.457   7.267  0.5483  0.8018  0.4438
14544SOL    HW145639   7.805  10.393   7.308 -1.5890  2.7055  0.5533
14544SOL    HW245640   7.853  10.441   7.173  1.6282 -0.2971  0.4773
14545SOL     OW45641   1.263   0.229   3.233  0.0408 -0.6769  0.1878
14545SOL    HW145642   1.335   0.188   3.281 -0.0937 -0.6223  0.4394
14545SOL    HW245643   1.288   0.321   3.226  0.5691 -0.8727 -0.7932
14546SOL     OW45644   3.749   3.923   3.616  0.8269  0.2398 -0.0572
14546SOL    HW145645   3.718   3.956   3.700  2.1990  0.1621  0.5113
14546SOL    HW245646   3.675   3.876   3.579 -0.0438  0.9457  0.7456
14547SOL     OW45647   7.231   9.100   8.362  0.4650  0.6648 -0.0850
14547SOL    HW145648   7.184   9.178   8.391 -2.2271 -0.9697  0.3575
14547SOL    HW245649   7.259   9.058   8.443  0.1553  0.1927 -0.2197
14548SOL     OW45650   6.552   2.048   4.094 -0.5811  0.0371 -0.2459
14548SOL    HW145651   6.504   2.021   4.016  0.5790  0.6132 -1.1795
14548SOL    HW245652   6.590   1.967   4.128 -0.7863 -0.1612 -0.4834
14549SOL     OW45653   6.802   1.879  10.783  0.1366  0.0489  0.0996
14549SOL    HW145654   6.795   1.795  10.828 -2.3940 -0.0310 -0.2692
14549SOL    HW245655   6.843   1.937  10.848  1.5241 -1.3295  0.5093
14550SOL     OW45656   7.313   2.262   5.888  0.0545  0.3132 -0.2183
14550SOL    HW145657   7.261   2.262   5.969 -1.4294 -1.9684 -1.0828
14550SOL    HW245658   7.250   2.279   5.819  0.6601 -1.2024 -1.1897
14551SOL     OW45659   3.033  10.835   8.583 -0.5730  0.0305  0.2824
14551SOL    HW145660   3.078  10.881   8.512 -1.1308 -0.8824 -0.7023
14551SOL    HW245661   2.983  10.766   8.538 -2.7487  0.8295  1.3299
14552SOL     OW45662   4.388   1.894   1.642 -0.4305  0.2081 -0.0551
14552SOL    HW145663   4.345   1.978   1.656 -1.2561  0.1542 -1.8737
14552SOL    HW245664   4.331   1.849   1.579  0.3562 -1.4337  0.3599
14553SOL     OW45665   4.758   1.216   2.830  0.0188  0.0219 -0.8060
14553SOL    HW145666   4.673   1.216   2.785 -0.6388  0.0600  0.4010
14553SOL    HW245667   4.788   1.307   2.824 -0.9264  0.4368  0.3807
14554SOL     OW45668   0.567   5.966   6.615  0.0367 -0.4410 -0.3042
14554SOL    HW145669   0.568   5.872   6.631  0.3882 -0.3128  0.5072
14554SOL    HW245670   0.548   6.005   6.700  0.1549  0.2284 -0.5729
14555SOL     OW45671   9.475   4.339   6.780 -0.1003 -0.2480  0.5489
14555SOL    HW145672   9.519   4.255   6.790  1.7913  0.6659  0.3833
14555SOL    HW245673   9.519   4.381   6.706 -0.3536  1.2583  1.2049
14556SOL     OW45674   6.856   2.467   3.257 -0.1972  0.1242 -0.3051
14556SOL    HW145675   6.922   2.473   3.188  0.2426 -0.0664  0.0965
14556SOL    HW245676   6.817   2.554   3.260  1.8747  1.0946  1.2621
14557SOL     OW45677  10.595   9.288   2.637 -0.1141 -0.1384  0.2941
14557SOL    HW145678  10.605   9.374   2.678 -0.1826  0.0803 -0.1425
14557SOL    HW245679  10.530   9.301   2.568  0.0387 -0.4885  0.0775
14558SOL     OW45680   0.818   7.030   5.415 -0.5228  0.4092  0.2931
14558SOL    HW145681   0.768   6.948   5.420 -0.6246  0.4617  0.1306
14558SOL    HW245682   0.757   7.093   5.377  0.0190  0.1940 -0.9846
14559SOL     OW45683   5.221  10.494   3.779  0.0628 -0.0908 -0.6254
14559SOL    HW145684   5.160  10.420   3.786 -0.4861  0.2524 -1.5156
14559SOL    HW245685   5.307  10.454   3.789 -0.2948 -0.4805  1.4230
14560SOL     OW45686   1.865   0.814   7.541  0.4087 -0.0106 -0.6957
14560SOL    HW145687   1.882   0.839   7.632  0.2835 -0.9761 -0.3935
14560SOL    HW245688   1.804   0.881   7.509  0.1651  0.1327  0.0475
14561SOL     OW45689   4.294   1.155  10.901 -0.5252 -0.1143 -0.4989
14561SOL    HW145690   4.246   1.091  10.850  0.4312 -0.4420 -1.0070
14561SOL    HW245691   4.229   1.191  10.961 -1.4311 -0.4348 -1.2636
14562SOL     OW45692   1.999   2.979   5.535  0.6849 -0.2472  0.0040
14562SOL    HW145693   2.065   3.046   5.523  1.9477 -1.1025  1.7092
14562SOL    HW245694   1.988   2.973   5.630 -1.3611 -0.6188 -0.2023
14563SOL     OW45695   7.891   5.319   7.361  0.3128 -0.2522 -0.0583
14563SOL    HW145696   7.871   5.388   7.425 -0.1788  1.8072 -2.2725
14563SOL    HW245697   7.973   5.347   7.321 -0.2528 -0.5694 -1.4817
14564SOL     OW45698   8.126   9.931   5.548 -0.3160  0.0187 -0.1036
14564SOL    HW145699   8.194   9.867   5.528 -1.6438 -1.8688  0.9939
14564SOL    HW245700   8.141   9.953   5.640 -1.7555 -1.2936  0.5040
14565SOL     OW45701   5.985   9.061   4.146  0.4785 -0.3672  0.1911
14565SOL    HW145702   6.028   8.997   4.202 -0.8656 -1.5635 -0.0693
14565SOL    HW245703   5.892   9.055   4.171  0.0289 -0.0610 -1.3099
14566SOL     OW45704   3.459   4.933  10.432 -0.0899  0.2374  0.1779
14566SOL    HW145705   3.523   4.997  10.462  0.6866 -0.8675  0.9754
14566SOL    HW245706   3.507   4.850  10.429 -0.8204 -0.1840 -1.6713
14567SOL     OW45707   1.511   7.544   2.197 -0.8568  0.6603 -0.0835
14567SOL    HW145708   1.566   7.574   2.269 -0.0642  0.4416 -0.5787
14567SOL    HW245709   1.544   7.590   2.120  0.2566 -1.2404 -0.8309
14568SOL     OW45710   4.026   9.081   6.479  0.5126 -0.6470 -0.4320
14568SOL    HW145711   4.029   9.012   6.545 -1.6811  0.9151  1.4751
14568SOL    HW245712   4.067   9.156   6.521 -1.9145  0.7139 -0.2902
14569SOL     OW45713   2.670   8.130   4.359  0.4337  0.1930 -0.0914
14569SOL    HW145714   2.630   8.135   4.272 -1.4977 -1.1598  0.6584
14569SOL    HW245715   2.702   8.040   4.367  0.4167  0.2460  0.6710
14570SOL     OW45716   0.034   7.948   5.311  0.5489  0.6341 -0.1367
14570SOL    HW145717  -0.034   7.926   5.375  0.3150 -1.9507 -1.1388
14570SOL    HW245718   0.042   7.870   5.257  1.8302  2.1581 -2.3153
14571SOL     OW45719   2.277   8.533   5.001 -0.4547 -0.2631 -0.1990
14571SOL    HW145720   2.234   8.506   4.920 -1.3454  0.6909 -0.0657
14571SOL    HW245721   2.348   8.591   4.973 -0.3916 -0.3965 -0.3189
14572SOL     OW45722   9.547   0.906  10.801  0.1268 -0.3418 -0.5072
14572SOL    HW145723   9.562   0.932  10.892 -0.1093  0.1658 -0.6075
14572SOL    HW245724   9.452   0.905  10.792  0.1500 -0.4039 -0.7490
14573SOL     OW45725   8.694   7.316   8.704 -0.2460 -0.0397  0.0444
14573SOL    HW145726   8.699   7.393   8.648  2.1383 -0.7285 -0.7999
14573SOL    HW245727   8.624   7.262   8.666 -1.4152  1.3064  0.2062
14574SOL     OW45728   9.412   7.007   6.963 -0.1434  0.4205 -0.0909
14574SOL    HW145729   9.499   7.029   6.929  1.1025  0.2060  2.6292
14574SOL    HW245730   9.421   7.018   7.058 -3.5421  1.7938  0.1922
14575SOL     OW45731   7.549   3.093   8.720 -0.2002  0.3042 -0.4031
14575SOL    HW145732   7.506   3.154   8.661 -1.2854  1.4961  1.5094
14575SOL    HW245733   7.631   3.137   8.745 -0.4607  0.4858  0.1345
14576SOL     OW45734   4.332   0.817   4.360  0.0445 -0.1556 -0.0476
14576SOL    HW145735   4.239   0.838   4.375  0.2187 -0.0637  0.9912
14576SOL    HW245736   4.371   0.820   4.447  0.8270 -1.1736 -0.3510
14577SOL     OW45737   0.628   3.044   3.393 -0.4901 -0.1053 -0.2342
14577SOL    HW145738   0.646   3.018   3.483 -0.3438 -0.0304 -0.2417
14577SOL    HW245739   0.536   3.070   3.393 -0.5341 -0.2609 -0.1429
14578SOL     OW45740   4.036   4.558   4.543  0.1620  0.0603 -0.6480
14578SOL    HW145741   4.016   4.465   4.550  0.2671  0.0332 -0.7061
14578SOL    HW245742   3.975   4.601   4.603  1.0821 -0.1630  0.4771
14579SOL     OW45743   7.530  10.941   1.192 -0.8612  0.0177  0.4766
14579SOL    HW145744   7.568  11.005   1.253 -0.7326 -1.8430  2.4652
14579SOL    HW245745   7.436  10.956   1.197 -0.8471 -0.0907  1.1004
14580SOL     OW45746  10.024   7.152   1.735  0.0048  0.1279  0.3802
14580SOL    HW145747   9.975   7.084   1.780 -0.0646 -0.2885 -0.3042
14580SOL    HW245748   9.970   7.230   1.742  0.9708  0.6785  2.8952
14581SOL     OW45749   6.982   8.200   9.305  0.4279  0.0828  0.3268
14581SOL    HW145750   7.026   8.226   9.224  0.3563 -0.6296  0.0511
14581SOL    HW245751   7.045   8.220   9.374  1.4207 -1.4018 -0.0999
14582SOL     OW45752   1.203   5.478   5.637 -0.6575 -0.2404 -0.2401
14582SOL    HW145753   1.166   5.436   5.715 -0.8551  2.2486  1.1262
14582SOL    HW245754   1.141   5.458   5.567 -0.8597 -1.9339  0.3749
14583SOL     OW45755   1.113   9.026   0.706  0.1651  0.3682  0.1590
14583SOL    HW145756   1.142   9.093   0.768  2.1203 -0.2123 -0.0511
14583SOL    HW245757   1.180   8.958   0.711 -0.4525 -0.4261 -1.4561
14584SOL     OW45758   7.178   5.598   9.238 -0.3172 -0.1856  0.3407
14584SOL    HW145759   7.239   5.672   9.243 -0.0962 -0.3565  0.1785
14584SOL    HW245760   7.202   5.552   9.157  0.3891 -1.1657  1.0787
14585SOL     OW45761   3.360   1.950   0.421  0.2065  0.2244  0.3421
14585SOL    HW145762   3.396   1.966   0.333  0.4547  0.7840  0.5414
14585SOL    HW245763   3.269   1.977   0.415  0.4227  0.9838  0.4644
14586SOL     OW45764   3.322   8.010   3.113 -0.4572  0.1566 -0.2025
14586SOL    HW145765   3.311   8.043   3.025 -0.0523 -1.0771 -0.7448
14586SOL    HW245766   3.240   8.029   3.157 -0.9693  0.0545 -1.0957
14587SOL     OW45767   8.209   7.041   1.660  0.4465 -0.1873  0.0690
14587SOL    HW145768   8.240   7.057   1.750 -0.3568 -0.6878  0.4374
14587SOL    HW245769   8.269   6.975   1.625 -1.5836 -3.0197  1.6191
14588SOL     OW45770   1.189   7.973   1.272 -0.3334  0.2008  0.0055
14588SOL    HW145771   1.193   8.055   1.223 -0.0983  0.4867  0.4981
14588SOL    HW245772   1.216   7.996   1.360 -0.5977 -0.3433  0.2359
14589SOL     OW45773   7.581   2.518   9.843  0.1366  0.3072  0.7170
14589SOL    HW145774   7.587   2.452   9.913 -1.6180 -0.8377 -0.1526
14589SOL    HW245775   7.524   2.478   9.777  1.9800  1.1995 -1.5630
14590SOL     OW45776   4.688   0.557   4.320  0.3097 -0.6871  0.2150
14590SOL    HW145777   4.610   0.602   4.288  1.2798 -0.7213 -2.4709
14590SOL    HW245778   4.658   0.467   4.338 -0.6758 -0.1691  1.2525
14591SOL     OW45779   2.086   5.570   5.790  0.2043 -0.6135  0.2453
14591SOL    HW145780   2.020   5.503   5.806 -0.1066 -0.3370  0.1437
14591SOL    HW245781   2.126   5.544   5.707  0.0382 -0.6367  0.1718
14592SOL     OW45782   8.244   6.261   8.315  0.0351 -0.0975 -0.2560
14592SOL    HW145783   8.160   6.232   8.277  1.2530 -0.5273 -2.8710
14592SOL    HW245784   8.258   6.202   8.389 -2.5074  0.7762  1.0506
14593SOL     OW45785   4.864   6.290   6.407 -0.4305  0.3392 -0.2235
14593SOL    HW145786   4.886   6.207   6.450 -2.5676  0.0404  0.4076
14593SOL    HW245787   4.772   6.280   6.382 -0.3982  2.1038 -1.1560
14594SOL     OW45788   0.120   1.415   8.114  0.7418 -0.0082  0.3226
14594SOL    HW145789   0.145   1.323   8.125 -1.0212 -0.4625  0.7199
14594SOL    HW245790   0.035   1.412   8.071 -1.2931  1.2538  3.8793
14595SOL     OW45791   9.256   5.791   5.906 -0.3337  0.1558  0.5795
14595SOL    HW145792   9.312   5.860   5.870  0.9309  1.8247  5.0915
14595SOL    HW245793   9.316   5.732   5.951 -1.7820 -1.2746  0.7298
14596SOL     OW45794   1.817   0.694   1.437 -0.3941  0.8511  0.5111
14596SOL    HW145795   1.842   0.728   1.351  2.0490 -1.8735 -0.0273
14596SOL    HW245796   1.753   0.626   1.418  0.5366 -0.1172  0.7238
14597SOL     OW45797   8.716   9.721  10.566 -0.1139 -0.1341 -0.1970
14597SOL    HW145798   8.658   9.720  10.491  0.4618 -1.1933 -0.6426
14597SOL    HW245799   8.752   9.633  10.570 -0.3675 -0.1911  1.5096
14598SOL     OW45800   6.944   9.048   7.707  0.2386 -0.1040 -0.1451
14598SOL    HW145801   7.016   9.049   7.644  1.3219  0.2103  1.0487
14598SOL    HW245802   6.987   9.031   7.792 -1.4593 -3.9322  0.1648
14599SOL     OW45803   7.529   7.211   1.122 -0.8451 -0.9486 -0.0697
14599SOL    HW145804   7.496   7.296   1.092 -0.0666  0.4518  2.6279
14599SOL    HW245805   7.607   7.195   1.069 -0.8210  0.1988 -0.4163
14600SOL     OW45806   3.935   1.470   3.840 -0.1549 -0.1071 -0.5351
14600SOL    HW145807   3.876   1.440   3.909  0.0422 -1.0813 -0.7803
14600SOL    HW245808   4.011   1.413   3.846  0.0998  0.1472 -1.2085
14601SOL     OW45809   6.249   8.054   1.285 -0.0484  0.2372  0.0354
14601SOL    HW145810   6.232   7.970   1.327  1.1223  0.6151  1.3577
14601SOL    HW245811   6.166   8.078   1.244 -1.3694 -0.0668  2.3395
14602SOL     OW45812   0.575  10.340   7.819  0.5412 -0.3717 -0.2235
14602SOL    HW145813   0.571  10.248   7.845  2.2207 -0.3500  0.2065
14602SOL    HW245814   0.516  10.346   7.744 -4.0405 -0.6085  2.9068
14603SOL     OW45815   1.997   2.429   9.681  0.3798 -0.2144  0.5371
14603SOL    HW145816   2.084   2.407   9.713  1.1319  0.5655 -0.8568
14603SOL    HW245817   1.966   2.497   9.740  0.6606 -0.5919  1.1242
14604SOL     OW45818   4.063   7.550   6.924 -0.1075  0.1713  0.2066
14604SOL    HW145819   4.114   7.474   6.954  0.2235  0.4552  0.3698
14604SOL    HW245820   3.977   7.539   6.964 -0.4742 -0.7821 -0.7695
14605SOL     OW45821   5.715   2.758   1.393 -0.6636  0.4814  0.0283
14605SOL    HW145822   5.620   2.752   1.407 -0.6217  0.7716  0.4623
14605SOL    HW245823   5.752   2.758   1.481 -0.2642  0.4350 -0.1407
14606SOL     OW45824   2.357   5.743   0.561 -0.8814  0.8810  0.4423
14606SOL    HW145825   2.278   5.701   0.597 -1.5247  1.4258 -0.2966
14606SOL    HW245826   2.410   5.764   0.638 -0.5395 -1.2431  0.8363
14607SOL     OW45827   6.010   0.761   1.856 -0.1008 -0.7014 -0.0535
14607SOL    HW145828   5.928   0.785   1.900 -0.0982 -2.3018  0.9301
14607SOL    HW245829   6.052   0.701   1.918  1.1339 -1.0185 -1.1782
14608SOL     OW45830   9.796   5.924   2.011 -0.1055  0.2079 -0.9459
14608SOL    HW145831   9.719   5.980   2.016 -0.2575  0.0412 -1.3859
14608SOL    HW245832   9.853   5.956   2.080 -1.2993 -0.7959  0.5649
14609SOL     OW45833   1.252   3.610   5.658 -0.0164 -0.3199 -0.3351
14609SOL    HW145834   1.329   3.606   5.716 -0.7913  0.2407  0.7814
14609SOL    HW245835   1.280   3.664   5.585  0.4312  0.5155  0.4345
14610SOL     OW45836   9.079   2.417   0.730  0.2561 -0.4699  0.3188
14610SOL    HW145837   9.101   2.489   0.789 -0.6674  0.2273 -0.1415
14610SOL    HW245838   9.045   2.461   0.652 -1.1278 -1.4059  0.3601
14611SOL     OW45839   8.374   6.715   0.155 -0.2712 -0.1463 -0.3966
14611SOL    HW145840   8.312   6.756   0.094  1.8371  0.8315 -2.0244
14611SOL    HW245841   8.405   6.638   0.109  0.9168  0.2779 -0.3267
14612SOL     OW45842   5.894   0.659   5.974  0.1142 -0.0517  0.0264
14612SOL    HW145843   5.914   0.676   5.882 -1.0807 -1.1399 -0.4562
14612SOL    HW245844   5.801   0.638   5.975 -0.2755  1.4612  1.7154
14613SOL     OW45845   8.505  10.321   5.317  0.0964  0.3864 -0.2720
14613SOL    HW145846   8.563  10.322   5.241  0.0596  2.1428 -0.3099
14613SOL    HW245847   8.418  10.305   5.280  0.4110 -1.4120 -0.2983
14614SOL     OW45848   1.278   7.719  10.370 -0.2946 -0.1566 -0.0472
14614SOL    HW145849   1.243   7.639  10.410 -0.8991 -0.0256 -0.3132
14614SOL    HW245850   1.305   7.692  10.282  0.7903 -0.3822  0.3355
14615SOL     OW45851   0.466   3.740   5.607  0.1737 -0.0979  0.2871
14615SOL    HW145852   0.517   3.816   5.578 -0.2483  1.1453  2.4796
14615SOL    HW245853   0.421   3.709   5.529  2.6861  0.0051 -1.3035
14616SOL     OW45854   2.228   0.290   0.986 -0.2352  0.5472 -0.0568
14616SOL    HW145855   2.144   0.246   0.975 -0.1546  0.7580 -1.7438
14616SOL    HW245856   2.210   0.382   0.968  0.6420  0.3557 -2.1913
14617SOL     OW45857   7.973   6.805   2.955 -0.3065  0.1007  0.3928
14617SOL    HW145858   8.008   6.856   2.882 -0.6953  1.5439  1.1667
14617SOL    HW245859   7.939   6.871   3.015 -2.0394 -1.1556  0.8460
14618SOL     OW45860   5.300   4.120   9.332 -0.7451  0.4261 -0.3940
14618SOL    HW145861   5.246   4.193   9.303 -2.4905 -0.6105  0.1211
14618SOL    HW245862   5.290   4.120   9.427 -0.4489 -0.2470 -0.3615
14619SOL     OW45863   8.460   0.081   0.910  0.2519 -0.2728 -0.4328
14619SOL    HW145864   8.389   0.121   0.861  1.2847  1.1049 -0.8682
14619SOL    HW245865   8.464   0.131   0.992  0.3344 -0.7245 -0.1583
14620SOL     OW45866   1.489   9.702   6.656 -0.3004 -0.0988 -0.6536
14620SOL    HW145867   1.498   9.664   6.744  1.7928 -1.6490 -1.4522
14620SOL    HW245868   1.405   9.668   6.624  0.5161 -2.4599 -0.5172
14621SOL     OW45869   4.971  10.701   3.427  0.1674 -0.4932 -0.5649
14621SOL    HW145870   5.013  10.765   3.486  2.1103  0.4455 -2.7902
14621SOL    HW245871   4.883  10.689   3.463  0.9671  0.6636  1.9989
14622SOL     OW45872   8.845   5.063   9.735 -0.0259 -0.1337  0.0141
14622SOL    HW145873   8.753   5.039   9.723  0.0995 -1.0809  0.7915
14622SOL    HW245874   8.845   5.119   9.813  0.0783 -0.2660  0.1088
14623SOL     OW45875   5.293   9.210   3.182  0.1340 -0.1110  0.3678
14623SOL    HW145876   5.279   9.125   3.140  0.0946  0.9919 -2.0238
14623SOL    HW245877   5.210   9.256   3.171  0.5539  0.6896  0.4443
14624SOL     OW45878   5.525   8.287   5.279  0.2523  0.6300 -0.3285
14624SOL    HW145879   5.578   8.224   5.230  1.0429  0.1807  1.0310
14624SOL    HW245880   5.450   8.305   5.222  1.8062  1.2563 -2.3095
14625SOL     OW45881   2.960   5.703   8.537  0.7173 -0.5697  0.1943
14625SOL    HW145882   3.005   5.635   8.587  0.3573 -2.1540 -1.5181
14625SOL    HW245883   2.959   5.670   8.447 -2.0173  0.3300 -0.2080
14626SOL     OW45884   1.506   3.016   4.867 -0.0924  0.0035  0.3347
14626SOL    HW145885   1.536   3.054   4.950  1.1747  2.7976 -1.2394
14626SOL    HW245886   1.586   2.984   4.825 -0.5707 -0.4341 -0.2526
14627SOL     OW45887   8.603   4.064   3.454  0.2131 -0.1988 -0.3131
14627SOL    HW145888   8.571   4.109   3.375 -0.7410  0.7593  0.5924
14627SOL    HW245889   8.543   3.991   3.466  0.1971 -0.1852 -0.3107
14628SOL     OW45890   6.992   9.404   4.969  0.2703 -0.0698  0.2422
14628SOL    HW145891   6.946   9.487   4.961  0.4828 -0.0238 -0.6486
14628SOL    HW245892   6.940   9.343   4.917  0.4536 -0.3436  0.3773
14629SOL     OW45893   5.158  10.237   2.446  0.0903 -0.5226  0.2434
14629SOL    HW145894   5.210  10.200   2.374  0.9437  1.2282 -0.0892
14629SOL    HW245895   5.068  10.211   2.425 -0.0631  1.8767 -2.8428
14630SOL     OW45896   4.292   3.398   5.666 -0.4506  0.1072  0.1224
14630SOL    HW145897   4.368   3.406   5.608 -0.7423 -1.1997 -0.4608
14630SOL    HW245898   4.263   3.489   5.680  0.3659  0.5211 -0.7860
14631SOL     OW45899   1.805   0.538   4.771  0.2293 -0.5695 -0.3400
14631SOL    HW145900   1.737   0.571   4.831 -0.4149 -1.2610 -0.6650
14631SOL    HW245901   1.877   0.599   4.781  0.0988 -0.5994  1.0707
14632SOL     OW45902   3.450   6.341   6.931 -0.7419  0.1803 -0.1706
14632SOL    HW145903   3.405   6.391   6.998 -1.1932 -0.4922  0.0388
14632SOL    HW245904   3.540   6.331   6.964 -1.2313 -1.0567  0.8580
14633SOL     OW45905   5.474   7.642   7.536  0.0951 -0.1765 -0.4079
14633SOL    HW145906   5.395   7.588   7.543 -0.4267  0.6051 -0.1888
14633SOL    HW245907   5.518   7.609   7.458 -0.0711 -1.1051 -0.1182
14634SOL     OW45908   1.199   0.247   6.330 -0.4051 -0.1090 -0.3667
14634SOL    HW145909   1.263   0.319   6.335  0.5422 -1.0362  1.6157
14634SOL    HW245910   1.184   0.236   6.236  0.0175  2.1383 -0.7658
14635SOL     OW45911   1.814  10.456   9.177  0.0317 -0.1104 -0.5792
14635SOL    HW145912   1.791  10.497   9.261 -1.5832 -2.9623  0.5307
14635SOL    HW245913   1.765  10.506   9.112 -1.2586  0.2412  0.5973
14636SOL     OW45914   3.975   9.340   6.999  0.0398 -0.2312  0.0917
14636SOL    HW145915   4.014   9.376   6.919  1.5148  0.1428  0.9443
14636SOL    HW245916   4.022   9.257   7.013  0.5790  0.2286  1.1404
14637SOL     OW45917   8.055   9.868   4.955  0.2389  0.3114 -0.2974
14637SOL    HW145918   8.081   9.875   5.047 -0.1069  0.6210 -0.2188
14637SOL    HW245919   8.136   9.879   4.906  0.6994 -1.4306  0.0081
14638SOL     OW45920   7.623   6.715   4.141 -0.4636  0.8410  0.1733
14638SOL    HW145921   7.574   6.793   4.169 -0.6558  0.5838  0.5623
14638SOL    HW245922   7.634   6.664   4.221 -1.0832  0.0514 -0.2283
14639SOL     OW45923   9.262  10.070   0.383  0.9629  0.0660 -0.2226
14639SOL    HW145924   9.215  10.153   0.389  0.1625 -0.4311  0.9665
14639SOL    HW245925   9.223  10.025   0.308 -0.8672 -0.5204  0.9976
14640SOL     OW45926  10.586   4.182   8.650  0.4550  1.1652  0.0773
14640SOL    HW145927  10.565   4.211   8.738 -1.5778 -0.6464  0.2788
14640SOL    HW245928  10.575   4.260   8.595 -0.8048  1.7461  1.1015
14641SOL     OW45929   1.681   8.843   2.005  0.4795  0.2770  0.0762
14641SOL    HW145930   1.777   8.851   2.006  0.6590 -1.2072  2.0576
14641SOL    HW245931   1.650   8.932   2.021  1.3227  1.4123 -3.6454
14642SOL     OW45932   4.797   0.451   2.513 -0.2257  0.5837  0.3777
14642SOL    HW145933   4.806   0.360   2.540 -0.2922  0.4119 -0.1699
14642SOL    HW245934   4.840   0.501   2.583  0.7790  0.0735  0.1388
14643SOL     OW45935  10.308   2.585  10.161 -0.3061 -0.5083  0.0571
14643SOL    HW145936  10.386   2.623  10.120  0.0487  0.2719  1.3960
14643SOL    HW245937  10.320   2.490  10.151 -0.7671 -0.3776 -2.5425
14644SOL     OW45938   2.817   1.553   7.614  0.0636 -0.0928 -0.0297
14644SOL    HW145939   2.736   1.603   7.605 -0.9133 -1.7883 -1.2200
14644SOL    HW245940   2.882   1.603   7.565 -1.0878 -0.3786 -1.9215
14645SOL     OW45941   9.081   5.303   0.430 -0.2153 -0.4780  0.0410
14645SOL    HW145942   9.042   5.237   0.372 -0.6984 -2.5300  2.4967
14645SOL    HW245943   9.006   5.341   0.477  0.2767 -0.0893  0.5248
14646SOL     OW45944   0.128  10.674   2.319 -0.0205 -0.2440  0.2166
14646SOL    HW145945   0.181  10.740   2.362 -1.1420  0.5830  0.3924
14646SOL    HW245946   0.157  10.675   2.228  2.4187 -2.0571  0.8918
14647SOL     OW45947   0.720   0.538   0.636 -0.7909 -0.0462 -0.7251
14647SOL    HW145948   0.677   0.597   0.574  1.6560 -0.8546 -3.4210
14647SOL    HW245949   0.812   0.563   0.632  0.1204 -3.0972 -0.9010
14648SOL     OW45950   3.485   4.907   1.211  0.0644  0.4627 -0.3613
14648SOL    HW145951   3.507   4.997   1.234 -1.4788  1.1750 -1.5065
14648SOL    HW245952   3.422   4.880   1.279 -2.5356  1.6910 -2.1258
14649SOL     OW45953   7.685   6.996   4.786  0.0337  0.3657  0.6214
14649SOL    HW145954   7.658   7.009   4.696  0.2595  0.2017  0.5286
14649SOL    HW245955   7.776   6.967   4.780 -0.4297 -1.1798  0.8267
14650SOL     OW45956   0.323  10.670   8.329 -0.4551 -0.4113 -0.4301
14650SOL    HW145957   0.358  10.759   8.339  1.6258 -1.1417 -0.7573
14650SOL    HW245958   0.315  10.637   8.418  0.5499 -0.5188 -0.3683
14651SOL     OW45959   5.899  10.573   3.303  0.1222  0.0427  0.1130
14651SOL    HW145960   5.987  10.536   3.294  0.0844  0.3481 -2.4332
14651SOL    HW245961   5.855  10.515   3.365  2.2153  0.1634  1.8487
14652SOL     OW45962  10.211   0.622   3.879  0.3686  0.2371 -0.4400
14652SOL    HW145963  10.295   0.657   3.909  0.3495  1.9820 -2.2239
14652SOL    HW245964  10.146   0.680   3.917  0.0205 -0.4500  0.0305
14653SOL     OW45965   9.328  10.115   8.785  0.2483  0.6779 -0.1524
14653SOL    HW145966   9.240  10.083   8.802  0.9404 -0.8953  0.7217
14653SOL    HW245967   9.346  10.092   8.694 -0.5352  1.7898 -0.6061
14654SOL     OW45968  10.480   1.034   3.823  0.5584  0.3278 -0.1111
14654SOL    HW145969  10.407   1.008   3.880  1.0838 -0.1488  0.3540
14654SOL    HW245970  10.525   1.103   3.871 -0.3989  1.6392 -1.0236
14655SOL     OW45971   3.885   8.916   8.143  0.6474  0.0865 -0.6454
14655SOL    HW145972   3.872   8.932   8.049 -0.8176  1.0628 -0.3214
14655SOL    HW245973   3.804   8.947   8.184  1.3692 -0.0506  0.9815
14656SOL     OW45974  10.088   9.218   1.845  0.5477  0.4841 -0.6802
14656SOL    HW145975  10.125   9.264   1.920  0.7529 -1.9499  0.8369
14656SOL    HW245976  10.037   9.284   1.798  1.0637  2.2685  1.1485
14657SOL     OW45977  10.958   0.476   2.436  0.0616  0.5609 -0.2555
14657SOL    HW145978  10.939   0.536   2.508 -1.9041  0.8269 -0.9477
14657SOL    HW245979  11.042   0.507   2.401  0.5196  1.0793  1.2212
14658SOL     OW45980   2.789   5.377   0.441  0.3649 -0.5631  0.2580
14658SOL    HW145981   2.773   5.424   0.522 -1.1959 -0.6670  0.0305
14658SOL    HW245982   2.884   5.363   0.440  0.4292 -0.4216  1.9690
14659SOL     OW45983   8.361   6.631   1.044  0.7074  0.1829 -0.4335
14659SOL    HW145984   8.384   6.658   0.955  0.3394  1.1318 -0.2452
14659SOL    HW245985   8.272   6.663   1.056  0.7740  0.0935  0.2999
14660SOL     OW45986   2.640   8.078   3.633  0.3733 -0.1229  0.1411
14660SOL    HW145987   2.729   8.085   3.665 -0.0098 -0.7168  1.4197
14660SOL    HW245988   2.647   8.027   3.552  1.2779  0.6132 -0.2486
14661SOL     OW45989   7.115   5.917   5.850  0.2900  0.1347  0.7072
14661SOL    HW145990   7.173   5.963   5.911 -1.9614  1.0467  2.3132
14661SOL    HW245991   7.059   5.862   5.906 -0.6386 -0.4093 -0.6977
14662SOL     OW45992   4.252   5.755   7.809  0.6509  0.4498 -0.5236
14662SOL    HW145993   4.213   5.703   7.880  0.4067  1.8098  0.3732
14662SOL    HW245994   4.313   5.695   7.766 -0.9872 -1.1520 -0.7334
14663SOL     OW45995   7.646  10.251   0.609  0.1399  0.4855  0.0633
14663SOL    HW145996   7.607  10.333   0.580  0.0305  0.0056 -1.2354
14663SOL    HW245997   7.731  10.276   0.643 -0.9364  1.4562  2.2270
14664SOL     OW45998   8.205   9.037   2.560  0.6348  1.3848  0.1696
14664SOL    HW145999   8.289   9.048   2.516  1.3929 -2.3373  0.3199
14664SOL    HW246000   8.220   9.066   2.649  1.8031  0.7891  0.1818
14665SOL     OW46001  10.083   3.739   4.032  0.3995  0.5207 -0.2063
14665SOL    HW146002  10.046   3.810   4.084  0.2542 -0.1340  0.6104
14665SOL    HW246003  10.044   3.659   4.069 -0.5171  0.0795 -1.9923
14666SOL     OW46004   0.572   4.910   1.248  0.3292  0.4448 -0.1698
14666SOL    HW146005   0.491   4.882   1.290 -1.1544 -1.0161 -3.5883
14666SOL    HW246006   0.561   5.004   1.236 -1.0317  0.2496 -0.7448
14667SOL     OW46007   8.297   5.164   4.891 -0.2509  0.4100 -0.3351
14667SOL    HW146008   8.324   5.081   4.931  0.2691  0.7101 -0.0678
14667SOL    HW246009   8.219   5.189   4.940  0.5640  0.9387  0.7201
14668SOL     OW46010  10.428   6.599  10.746 -0.2480 -0.2532  0.6667
14668SOL    HW146011  10.495   6.663  10.771  0.2412 -1.3611  2.3595
14668SOL    HW246012  10.411   6.550  10.826 -0.6553 -2.2106 -0.5595
14669SOL     OW46013   5.790   5.874   1.586  0.2183 -0.1859  0.4765
14669SOL    HW146014   5.866   5.932   1.587 -0.1291  0.3280  3.1063
14669SOL    HW246015   5.738   5.900   1.662 -2.7743 -0.3302 -1.3442
14670SOL     OW46016   0.294   2.681   6.223  0.2202 -0.0324 -0.3324
14670SOL    HW146017   0.388   2.673   6.238 -0.0870 -2.4458  0.8145
14670SOL    HW246018   0.279   2.635   6.140 -0.1484 -1.3724  0.4498
14671SOL     OW46019   5.317  10.088   4.195  0.2027 -0.1906  0.9953
14671SOL    HW146020   5.332  10.040   4.114  1.1040 -0.4435  1.3002
14671SOL    HW246021   5.223  10.082   4.210  0.1006 -0.5645  0.2316
14672SOL     OW46022   6.396  10.049   4.630 -0.8264 -0.6759  0.1838
14672SOL    HW146023   6.391   9.981   4.563  0.0927 -0.5099 -0.0587
14672SOL    HW246024   6.486  10.081   4.626 -0.8242 -0.4810  1.3214
14673SOL     OW46025   5.938   3.489   2.743 -0.0859  0.5845 -0.0006
14673SOL    HW146026   5.984   3.571   2.723  0.3002  0.5103  0.5464
14673SOL    HW246027   6.007   3.423   2.741 -0.5089  0.1736 -1.0668
14674SOL     OW46028   3.444  10.465   9.307 -0.3542  0.0033 -0.3541
14674SOL    HW146029   3.476  10.554   9.318  3.6545 -1.2107 -0.2823
14674SOL    HW246030   3.502  10.427   9.240 -1.8433 -2.5720 -0.3279
14675SOL     OW46031   2.042  10.032   9.872 -0.4911 -0.0939 -0.2925
14675SOL    HW146032   2.009  10.060   9.957 -2.0862  1.0974 -1.2186
14675SOL    HW246033   2.021  10.105   9.813 -0.7645 -1.4405 -1.9735
14676SOL     OW46034   4.739   0.974   1.121 -0.2993  1.2819 -0.0219
14676SOL    HW146035   4.741   0.992   1.027  0.4362  0.5891 -0.1472
14676SOL    HW246036   4.829   0.987   1.150 -0.4058  0.9327  0.4710
14677SOL     OW46037   5.768   9.033   7.821  0.1607 -0.0268 -0.6996
14677SOL    HW146038   5.789   8.967   7.755 -0.3607 -0.7585 -0.1503
14677SOL    HW246039   5.791   9.117   7.780  0.3004 -0.5053 -1.6173
14678SOL     OW46040   2.811   6.346   8.404 -0.1791 -0.7748 -0.1209
14678SOL    HW146041   2.841   6.344   8.313 -0.5404  0.4816 -0.2881
14678SOL    HW246042   2.725   6.304   8.402 -1.7311  2.1815 -1.0303
14679SOL     OW46043   8.846   1.229   6.820  0.4994  0.1695  0.2722
14679SOL    HW146044   8.771   1.173   6.842 -0.4469  1.2265 -0.1482
14679SOL    HW246045   8.832   1.308   6.872  0.8715  0.7138 -0.4519
14680SOL     OW46046   5.878   4.686   1.309 -0.1198  0.4393  0.2700
14680SOL    HW146047   5.804   4.744   1.331  1.2915  2.4750 -0.1158
14680SOL    HW246048   5.900   4.709   1.219  0.7901 -0.3618  0.2820
14681SOL     OW46049   4.386   4.159   6.198  0.3555 -0.1038  0.6130
14681SOL    HW146050   4.403   4.252   6.206  1.7366 -0.1628 -1.1693
14681SOL    HW246051   4.434   4.119   6.271 -0.0851  0.5236  1.2649
14682SOL     OW46052   2.720   6.986   8.215 -0.6255  0.0519  0.4844
14682SOL    HW146053   2.733   7.061   8.158  1.6229  1.1299  2.2746
14682SOL    HW246054   2.797   6.931   8.201 -0.0897  0.2775  2.2901
14683SOL     OW46055   6.680   4.617   7.189  0.0103 -0.3648  0.0009
14683SOL    HW146056   6.728   4.653   7.264  1.1726 -1.1397 -0.3393
14683SOL    HW246057   6.671   4.524   7.209 -1.0916 -0.2955 -0.0996
14684SOL     OW46058   6.575   9.738   2.128 -0.1286 -0.4406  0.6955
14684SOL    HW146059   6.603   9.747   2.218  0.0585 -1.1877  0.7182
14684SOL    HW246060   6.496   9.683   2.133 -0.5689  0.1561  0.4712
14685SOL     OW46061   1.429  10.452   9.684 -0.5385  0.5423 -0.1750
14685SOL    HW146062   1.337  10.468   9.705 -0.0243  2.1085  1.0916
14685SOL    HW246063   1.476  10.475   9.764  1.1394  2.0328 -1.5128
14686SOL     OW46064  10.916   4.949   2.843  0.3471 -0.7929  0.4950
14686SOL    HW146065  10.889   4.961   2.752  1.9184  1.0414  0.1935
14686SOL    HW246066  10.950   4.859   2.846 -0.4502 -1.1484 -0.5090
14687SOL     OW46067   6.618   5.727   1.365 -0.6081 -0.5008  0.0719
14687SOL    HW146068   6.701   5.750   1.323 -0.4464  1.9214  1.5367
14687SOL    HW246069   6.565   5.692   1.294  0.4162  1.3317 -1.7256
14688SOL     OW46070   7.532   4.002   4.836 -0.5584  0.0188 -0.2137
14688SOL    HW146071   7.481   4.031   4.761 -0.9271 -2.2695 -0.9216
14688SOL    HW246072   7.617   3.976   4.799 -0.2889  0.0629  0.3605
14689SOL     OW46073   9.939   2.054   7.096 -0.4605 -0.3301 -0.0909
14689SOL    HW146074   9.910   2.021   7.181  0.1921 -1.1586 -0.1825
14689SOL    HW246075   9.915   1.985   7.034 -1.2119  0.3987 -0.6432
14690SOL     OW46076   2.695   9.343   4.878  0.0906  0.1608  0.4801
14690SOL    HW146077   2.614   9.294   4.873 -0.5642  1.2392  0.2042
14690SOL    HW246078   2.683   9.403   4.952  0.7770  0.0977  0.6581
14691SOL     OW46079   2.415   3.403   6.334  0.2067  0.2072 -0.2685
14691SOL    HW146080   2.468   3.455   6.394  0.7986 -0.3981 -0.2416
14691SOL    HW246081   2.441   3.433   6.247  1.0206 -0.4530 -0.2742
14692SOL     OW46082   9.683   8.101  10.720  0.0935 -0.5735 -0.0769
14692SOL    HW146083   9.688   8.022  10.665 -1.1508 -0.6288 -0.1347
14692SOL    HW246084   9.771   8.139  10.716  1.4349 -3.1483  1.7414
14693SOL     OW46085   2.431  10.383   2.477 -0.3142  0.3377 -0.3678
14693SOL    HW146086   2.511  10.430   2.455  0.7135 -1.4488 -0.7010
14693SOL    HW246087   2.363  10.449   2.475  1.1531  1.9384  0.0083
14694SOL     OW46088   1.081   5.598   1.899 -0.5636 -0.1286 -0.5185
14694SOL    HW146089   1.152   5.657   1.920  0.5631 -1.7395  0.4582
14694SOL    HW246090   1.015   5.615   1.966 -0.1276 -0.1663 -0.0730
14695SOL     OW46091   7.498   5.428   2.726 -0.1070  0.2912  0.0837
14695SOL    HW146092   7.419   5.449   2.677  0.7346 -0.2500 -1.5852
14695SOL    HW246093   7.553   5.506   2.718 -0.4076  0.6290  1.1567
14696SOL     OW46094   1.295   6.977   2.692 -0.3216  0.0241 -0.2692
14696SOL    HW146095   1.239   7.054   2.696 -1.3678 -0.7527  0.9167
14696SOL    HW246096   1.374   7.001   2.740 -1.1011  0.0264  1.0498
14697SOL     OW46097   1.038   9.268   7.299 -0.1227  0.2009  0.6575
14697SOL    HW146098   1.047   9.329   7.226  0.2218 -0.0122  0.5241
14697SOL    HW246099   0.951   9.288   7.336 -0.9420 -0.6946 -0.7066
14698SOL     OW46100   9.358   5.446   2.827  0.0641 -0.3556  0.1235
14698SOL    HW146101   9.280   5.482   2.870  0.7927 -0.0908  1.2432
14698SOL    HW246102   9.430   5.466   2.887  0.9876 -0.6738 -0.8606
14699SOL     OW46103   1.708   4.874   6.065 -0.2873  0.1627  0.4874
14699SOL    HW146104   1.746   4.857   5.979  1.3975  0.1451  1.2136
14699SOL    HW246105   1.736   4.801   6.119 -0.3617  0.7524  1.3492
14700SOL     OW46106   9.537   6.083  10.613  0.2261 -0.6355  0.4998
14700SOL    HW146107   9.619   6.039  10.635  0.3817 -0.3676  0.4624
14700SOL    HW246108   9.483   6.016  10.571  0.5447 -0.7360  0.2490
14701SOL     OW46109   6.698   5.521   6.038 -0.2057 -0.0826 -0.0677
14701SOL    HW146110   6.734   5.446   5.990 -2.0916 -1.1041  0.0143
14701SOL    HW246111   6.738   5.598   5.997  1.5890 -1.0951 -0.3239
14702SOL     OW46112   0.484   1.247  10.424  0.0679  0.5925  0.3969
14702SOL    HW146113   0.514   1.157  10.433 -2.0428 -0.2470 -0.3067
14702SOL    HW246114   0.450   1.252  10.335 -1.6374  1.4771  1.0606
14703SOL     OW46115   1.662   1.441   2.766  0.8171 -0.2395 -0.1392
14703SOL    HW146116   1.672   1.407   2.677  1.6318 -2.3554  0.6833
14703SOL    HW246117   1.742   1.491   2.782  0.5991  0.2751 -0.6387
14704SOL     OW46118  10.546   7.225   3.930 -0.0961  0.3768  0.0243
14704SOL    HW146119  10.601   7.258   4.001  1.7823 -2.1028 -0.1432
14704SOL    HW246120  10.530   7.302   3.875 -2.8395  2.7590  3.6727
14705SOL     OW46121   4.475   2.368   0.952 -0.0935  0.0817 -0.1361
14705SOL    HW146122   4.519   2.393   0.871  0.2347 -0.5666 -0.1591
14705SOL    HW246123   4.400   2.428   0.958 -1.5324 -1.4168 -2.1340
14706SOL     OW46124   3.518   7.249   2.765  0.0971  0.1870 -0.4036
14706SOL    HW146125   3.528   7.344   2.775  0.0839  0.2421 -0.8892
14706SOL    HW246126   3.481   7.238   2.678 -1.4178 -0.1725  0.2550
14707SOL     OW46127   4.160   2.109   1.872 -0.3170 -0.5573  0.0072
14707SOL    HW146128   4.122   2.030   1.908  1.7766 -1.0949  1.2021
14707SOL    HW246129   4.184   2.162   1.948 -0.5022  0.6420 -0.7354
14708SOL     OW46130   0.429   0.183   6.419 -0.0599  0.0863 -0.0341
14708SOL    HW146131   0.489   0.118   6.381  1.2215  1.5830 -0.6924
14708SOL    HW246132   0.392   0.140   6.496  0.9061 -1.3481 -0.3390
14709SOL     OW46133   3.492   3.925   5.650 -0.3305  0.4087 -0.1364
14709SOL    HW146134   3.548   3.978   5.708 -0.5027 -0.4969  0.8827
14709SOL    HW246135   3.453   3.989   5.591  0.3286  1.2930  0.3522
14710SOL     OW46136   3.347   2.420   0.213 -0.1906  0.1555 -0.4969
14710SOL    HW146137   3.384   2.349   0.161 -0.8979  0.1942 -1.0718
14710SOL    HW246138   3.420   2.451   0.267  0.1146 -0.9961 -0.2390
14711SOL     OW46139   4.912   1.437   7.383 -0.5942  0.2375 -0.1054
14711SOL    HW146140   4.838   1.400   7.334 -1.8492  0.7625  1.3117
14711SOL    HW246141   4.931   1.520   7.339 -1.8618  0.8153  0.3716
14712SOL     OW46142   5.263  10.658   4.185  0.2116  0.2138 -0.1924
14712SOL    HW146143   5.334  10.714   4.215  0.4076  0.8626 -1.7465
14712SOL    HW246144   5.269  10.661   4.089 -1.3466 -0.4359 -0.3455
14713SOL     OW46145   7.321   5.293   1.951 -0.7692 -0.1950 -0.0406
14713SOL    HW146146   7.374   5.220   1.918  1.7023  1.0904  0.7986
14713SOL    HW246147   7.275   5.256   2.027  1.2900 -0.7236  1.0589
14714SOL     OW46148   6.169  10.610   9.726 -0.1025  0.2115 -0.2745
14714SOL    HW146149   6.191  10.702   9.710 -0.7546  0.2703 -0.8776
14714SOL    HW246150   6.074  10.608   9.729 -0.1471 -0.5965 -1.3299
14715SOL     OW46151   1.852  10.133   6.412 -0.4278  0.6057 -0.1965
14715SOL    HW146152   1.941  10.132   6.376 -0.6042  0.0692 -0.6275
14715SOL    HW246153   1.806  10.198   6.360 -0.8923 -0.7139 -1.4813
14716SOL     OW46154  10.666  10.018   9.709  0.1897  0.0672 -0.1054
14716SOL    HW146155  10.615   9.938   9.721  0.4893 -0.0584  0.3305
14716SOL    HW246156  10.619  10.066   9.641 -0.7941  0.1885  0.6379
14717SOL     OW46157   6.804   5.401   8.619  0.0174 -0.1872  0.2760
14717SOL    HW146158   6.741   5.387   8.690 -0.2237 -0.6027 -0.0152
14717SOL    HW246159   6.831   5.492   8.629 -1.3115  0.2746 -0.1345
14718SOL     OW46160   3.903  10.833   0.181 -0.3560 -0.2822 -0.0825
14718SOL    HW146161   3.952  10.865   0.105 -0.8225 -0.2205 -0.3602
14718SOL    HW246162   3.959  10.765   0.218 -1.3720 -2.3865 -2.1724
14719SOL     OW46163   1.364   0.631   7.015  0.2547 -0.0127 -0.0364
14719SOL    HW146164   1.350   0.601   7.105  1.0842  1.0957  0.4894
14719SOL    HW246165   1.414   0.712   7.024  0.1884  0.2243 -1.4986
14720SOL     OW46166   3.019   8.701  10.736  0.1828 -0.2027  0.3001
14720SOL    HW146167   2.925   8.706  10.751 -0.5713 -0.3060 -3.3647
14720SOL    HW246168   3.030   8.632  10.670  2.7051  0.3812 -0.0175
14721SOL     OW46169   8.020   4.466   9.165 -0.0433 -0.1471  0.0557
14721SOL    HW146170   8.070   4.484   9.085  2.0247 -3.3087  0.4607
14721SOL    HW246171   8.080   4.487   9.236 -1.0923  0.5559  0.7683
14722SOL     OW46172   9.496   3.587   7.732  0.1186 -0.5309  0.3413
14722SOL    HW146173   9.502   3.495   7.759  0.0094 -0.9398 -0.9378
14722SOL    HW246174   9.580   3.605   7.690 -0.4728 -0.5760 -0.9111
14723SOL     OW46175  10.606   9.623   7.746  0.0123 -0.2564  0.2850
14723SOL    HW146176  10.551   9.598   7.820 -1.5065 -0.3397 -0.8279
14723SOL    HW246177  10.689   9.648   7.785 -0.6245 -0.6780  1.9771
14724SOL     OW46178   7.670   2.088   9.233  0.0942  0.4123 -0.3956
14724SOL    HW146179   7.725   2.019   9.197  0.1078  0.1689  0.0745
14724SOL    HW246180   7.595   2.092   9.175  0.6478  0.8166 -1.1037
14725SOL     OW46181   1.083   9.535   6.085  0.1642 -0.1120 -0.6216
14725SOL    HW146182   1.134   9.587   6.023 -1.1183  0.4600 -1.2262
14725SOL    HW246183   0.998   9.579   6.091  0.3935  0.1664  1.9497
14726SOL     OW46184  10.894   4.211  10.277 -0.1255  0.0773 -0.2464
14726SOL    HW146185  10.924   4.297  10.247 -0.5567 -0.8233 -3.6504
14726SOL    HW246186  10.972   4.155  10.270 -0.0664 -0.0586  1.1387
14727SOL     OW46187   3.071   5.620   7.215  0.3984  0.0052  0.0954
14727SOL    HW146188   3.021   5.618   7.133 -0.1794  3.6088  0.2028
14727SOL    HW246189   3.158   5.650   7.189  0.0815  1.6016  0.7817
14728SOL     OW46190   7.465  10.741   9.733 -0.5382 -0.1684 -0.3637
14728SOL    HW146191   7.482  10.831   9.760 -1.3746  0.0084 -0.4055
14728SOL    HW246192   7.548  10.711   9.694 -0.0611  0.3586  0.2401
14729SOL     OW46193   6.703   0.097   7.234 -0.1202 -0.0150  0.1841
14729SOL    HW146194   6.795   0.098   7.260 -0.0436 -2.5417  0.2690
14729SOL    HW246195   6.657   0.065   7.312 -0.5751 -2.2895 -0.9380
14730SOL     OW46196   5.557   3.795   3.991  0.0975  0.6709 -0.1638
14730SOL    HW146197   5.513   3.743   4.058 -0.1622 -1.2429 -1.7211
14730SOL    HW246198   5.650   3.788   4.012 -0.0703  1.2650  0.7891
14731SOL     OW46199   2.449   9.881   0.991 -0.3599  0.0518 -0.0741
14731SOL    HW146200   2.502   9.810   1.027 -2.0726 -0.3604  1.8739
14731SOL    HW246201   2.429   9.854   0.902  0.4755 -1.0507  0.0498
14732SOL     OW46202   9.914   8.396   1.045  0.4806 -0.2786 -0.1528
14732SOL    HW146203   9.982   8.419   0.982  0.2475  0.9035 -0.0008
14732SOL    HW246204   9.836   8.444   1.014 -0.0598 -0.9500  0.1411
14733SOL     OW46205   3.433   4.110   9.675  0.0278  0.3657  0.0588
14733SOL    HW146206   3.488   4.113   9.597  0.8249 -0.7079  0.5574
14733SOL    HW246207   3.487   4.067   9.741 -1.2642 -0.3623  0.6880
14734SOL     OW46208   6.167   2.339   5.878  0.2405 -0.2669  0.2438
14734SOL    HW146209   6.136   2.254   5.845 -0.8320 -0.7577  2.3189
14734SOL    HW246210   6.154   2.399   5.804 -0.6658 -1.5479 -0.6963
14735SOL     OW46211   3.144   1.593   5.647 -0.2429  0.0403  0.4129
14735SOL    HW146212   3.118   1.510   5.686  0.8628  0.7404  2.7817
14735SOL    HW246213   3.238   1.586   5.634 -0.2914  0.5784 -0.3311
14736SOL     OW46214   2.454   3.911   1.278  0.6570  0.1120  0.5059
14736SOL    HW146215   2.471   4.004   1.291 -2.5099  1.4193 -2.8075
14736SOL    HW246216   2.394   3.887   1.348 -0.6962  1.4210 -0.1530
14737SOL     OW46217   7.476   3.584   0.765 -0.1608  0.1200 -0.4439
14737SOL    HW146218   7.533   3.556   0.694  0.0784  0.9950 -0.6132
14737SOL    HW246219   7.389   3.591   0.725 -0.1230  0.1242 -0.5268
14738SOL     OW46220  10.241   7.983   3.749 -0.1898 -0.3497  0.0197
14738SOL    HW146221  10.284   8.009   3.668 -1.5694  0.6323 -0.4411
14738SOL    HW246222  10.169   8.046   3.759 -0.3671 -0.7703  1.7346
14739SOL     OW46223   5.607   5.529   0.437 -0.0333  0.2915 -0.4151
14739SOL    HW146224   5.549   5.529   0.513  0.3386  0.5725 -0.1253
14739SOL    HW246225   5.675   5.593   0.459  1.2235 -1.1094 -0.1054
14740SOL     OW46226   7.480   2.377   0.865 -0.5542  0.2025  0.1140
14740SOL    HW146227   7.529   2.309   0.910 -0.6458 -0.6159 -0.9780
14740SOL    HW246228   7.388   2.349   0.873 -0.6053  0.2756 -0.2026
14741SOL     OW46229   1.455   0.952   9.658 -0.0795  0.3972  0.1089
14741SOL    HW146230   1.366   0.978   9.682  0.4400 -0.3355  3.3807
14741SOL    HW246231   1.503   1.034   9.651 -0.6688  0.7285 -0.0660
14742SOL     OW46232   1.807   8.885   7.094  0.1110 -0.3471 -0.2296
14742SOL    HW146233   1.765   8.962   7.057  1.2868  0.4665  0.0785
14742SOL    HW246234   1.794   8.894   7.189  1.9372  0.5449 -0.0213
14743SOL     OW46235   4.845   3.591   5.171  0.5221 -0.0363  0.0947
14743SOL    HW146236   4.754   3.583   5.201  0.8217 -0.2388  1.0052
14743SOL    HW246237   4.878   3.501   5.171  0.7722  0.0542 -0.0715
14744SOL     OW46238   3.537  10.817   4.047 -0.4595 -0.1835 -0.1677
14744SOL    HW146239   3.494  10.732   4.032  0.3850 -0.4099 -1.5343
14744SOL    HW246240   3.627  10.795   4.071  0.6512  0.2336 -3.3822
14745SOL     OW46241   4.194   5.776   3.577 -0.4363  0.3543 -0.3588
14745SOL    HW146242   4.132   5.703   3.578 -0.0475  0.0205  1.4816
14745SOL    HW246243   4.215   5.793   3.669  1.0934  1.4181 -0.8499
14746SOL     OW46244   4.268   7.919   9.481 -0.2909 -0.4267  0.3815
14746SOL    HW146245   4.355   7.922   9.442 -0.2795  0.1137  0.4344
14746SOL    HW246246   4.251   8.009   9.508 -1.4504 -0.2315 -0.9098
14747SOL     OW46247   2.314   1.696   0.093  0.2170  0.3242 -0.2365
14747SOL    HW146248   2.297   1.633   0.163 -1.4857  0.5169 -0.4127
14747SOL    HW246249   2.233   1.747   0.087  0.8344  1.2257 -1.4224
14748SOL     OW46250   4.146   4.058   5.330  0.6002  0.0356 -0.3899
14748SOL    HW146251   4.107   3.998   5.393  2.0185 -0.6696 -0.1637
14748SOL    HW246252   4.239   4.036   5.328  0.7717  0.6951 -1.9953
14749SOL     OW46253   6.274   1.956   1.967  0.0162 -0.2660 -0.0172
14749SOL    HW146254   6.345   2.012   2.000  0.2755 -1.3699  1.3525
14749SOL    HW246255   6.197   1.981   2.018 -0.6516  0.9515 -1.5222
14750SOL     OW46256   4.248   0.497   1.437 -0.8008 -0.1330  0.1971
14750SOL    HW146257   4.325   0.493   1.381 -1.4627 -1.7714 -0.6614
14750SOL    HW246258   4.279   0.539   1.518  0.5942  0.6298 -0.6948
14751SOL     OW46259   7.529   2.484   0.582  0.6026 -0.0244  0.0278
14751SOL    HW146260   7.527   2.540   0.659 -0.1469 -0.3431  0.2531
14751SOL    HW246261   7.486   2.403   0.610  3.5890 -1.6497  0.3982
14752SOL     OW46262   0.582   5.975   1.521 -0.7363  0.2263  0.3371
14752SOL    HW146263   0.677   5.975   1.530 -0.6874  0.6890 -0.1473
14752SOL    HW246264   0.549   5.957   1.609 -0.1749 -1.8588  0.1801
14753SOL     OW46265   6.101   0.201   3.639 -0.2911  0.2296  0.3673
14753SOL    HW146266   6.016   0.244   3.640  0.9549  3.2179 -2.8517
14753SOL    HW246267   6.097   0.142   3.563  0.1792 -0.4324  0.8474
14754SOL     OW46268   6.016   0.975   3.336 -0.0250  0.1274  0.7961
14754SOL    HW146269   6.055   0.956   3.422  0.3694  1.2032  0.8820
14754SOL    HW246270   6.068   1.048   3.303  1.8279 -2.1632 -1.7393
14755SOL     OW46271   8.968   4.789   0.388 -0.3922 -0.0759  0.5335
14755SOL    HW146272   8.939   4.805   0.478 -0.1936  0.6159  0.4809
14755SOL    HW246273   9.061   4.811   0.389 -0.1510 -1.0454  0.3955
14756SOL     OW46274   3.623   8.417   1.310  0.4219  0.0159 -0.5156
14756SOL    HW146275   3.626   8.460   1.395 -0.9436 -1.3737  0.2873
14756SOL    HW246276   3.565   8.472   1.257 -0.1891 -0.0904  0.0413
14757SOL     OW46277   0.938   2.482   6.675  0.2617  0.0272  0.4079
14757SOL    HW146278   0.981   2.567   6.669  0.2002 -0.0072 -0.8681
14757SOL    HW246279   0.894   2.471   6.591 -0.4864 -0.8758  0.8879
14758SOL     OW46280   2.754   3.480   3.193 -0.3918 -0.2558  0.6744
14758SOL    HW146281   2.749   3.547   3.125  0.7900 -0.1374  0.6944
14758SOL    HW246282   2.724   3.525   3.273 -4.0570 -0.9820 -0.0756
14759SOL     OW46283   1.130   4.160   6.542  0.7024  0.8115 -0.1884
14759SOL    HW146284   1.179   4.094   6.494  1.9470  0.9930  0.7849
14759SOL    HW246285   1.151   4.144   6.634 -1.2346  0.7729  0.2891
14760SOL     OW46286  10.510   3.563   6.169  0.1094 -0.1738 -0.6025
14760SOL    HW146287  10.570   3.637   6.160 -1.3541  0.7768 -6.6892
14760SOL    HW246288  10.426   3.603   6.192 -0.0201 -0.3791 -0.7203
14761SOL     OW46289   9.777   1.515   3.508  0.2940  0.3328  0.1204
14761SOL    HW146290   9.814   1.571   3.439 -1.8306  1.4694 -0.1808
14761SOL    HW246291   9.779   1.569   3.586 -0.0854  0.1511  0.2548
14762SOL     OW46292   3.828   9.417  10.933 -0.3735 -0.4033 -0.1414
14762SOL    HW146293   3.833   9.506  10.898 -2.4783  0.5318  1.6547
14762SOL    HW246294   3.885   9.418  11.010  0.3269 -0.9093 -0.6473
14763SOL     OW46295   1.970   2.774   8.610 -0.1315 -0.7872 -0.6947
14763SOL    HW146296   2.033   2.713   8.648 -0.5377 -0.7054  0.1250
14763SOL    HW246297   1.984   2.856   8.656 -0.4501 -0.6089 -0.9093
14764SOL     OW46298   9.565   6.131   8.236 -0.4243 -0.0323 -0.4094
14764SOL    HW146299   9.654   6.155   8.209 -0.0262 -0.8099  0.1819
14764SOL    HW246300   9.574   6.045   8.278 -1.7075 -0.8718 -1.7658
14765SOL     OW46301   3.486   5.268   2.222  0.1627  0.3253  0.2221
14765SOL    HW146302   3.485   5.182   2.264  0.3062  0.7903  1.2318
14765SOL    HW246303   3.500   5.329   2.295 -0.4505  1.2402 -0.4119
14766SOL     OW46304   9.447   9.687   8.523 -0.3270 -0.0675 -0.3669
14766SOL    HW146305   9.352   9.695   8.525 -0.3148 -0.0030  0.4411
14766SOL    HW246306   9.476   9.756   8.464 -0.7209  0.5541  0.1550
14767SOL     OW46307   9.167   6.947  10.525  0.6975  0.3119 -0.2076
14767SOL    HW146308   9.218   6.888  10.470  0.0724 -0.2305 -0.2137
14767SOL    HW246309   9.076   6.927  10.504  0.4687  0.9913  0.0939
14768SOL     OW46310   1.796   2.715   6.883  0.5345 -0.2650  0.1894
14768SOL    HW146311   1.885   2.750   6.874  0.7771 -1.0369 -0.5681
14768SOL    HW246312   1.807   2.633   6.930  0.0085  0.4540  1.6117
14769SOL     OW46313   2.223   6.300   9.127 -0.1254 -0.1657  0.6025
14769SOL    HW146314   2.193   6.257   9.047 -0.2285 -0.9631  1.0587
14769SOL    HW246315   2.305   6.256   9.148 -0.4517 -0.4485  1.3173
14770SOL     OW46316   4.438   0.530   4.544  0.7491 -0.5148 -0.5145
14770SOL    HW146317   4.433   0.625   4.553  1.7426 -0.2341 -2.4729
14770SOL    HW246318   4.348   0.500   4.556 -0.0637  0.9489 -2.4455
14771SOL     OW46319   5.455   0.407  10.097  0.0555  0.3187 -0.2562
14771SOL    HW146320   5.465   0.413  10.192 -1.9811  0.7199 -0.0322
14771SOL    HW246321   5.442   0.498  10.068  0.0255  0.1303 -0.8565
14772SOL     OW46322   5.960   1.764   6.410 -0.5301 -0.1226 -0.1998
14772SOL    HW146323   6.051   1.787   6.391 -0.4105 -0.8951 -0.5962
14772SOL    HW246324   5.942   1.808   6.493  0.1857  0.0811 -0.1384
14773SOL     OW46325   6.207  10.863  10.143  0.1905 -0.0201 -0.7140
14773SOL    HW146326   6.250  10.947  10.157 -1.6408  1.2120 -2.1170
14773SOL    HW246327   6.168  10.869  10.056  2.6539 -3.5535 -2.3329
14774SOL     OW46328   6.825   1.930  10.242  0.2784 -0.1164 -0.3317
14774SOL    HW146329   6.866   1.947  10.157 -2.4490  0.5579 -1.6183
14774SOL    HW246330   6.737   1.899  10.221 -0.0096 -1.3238  2.2601
14775SOL     OW46331   6.774   9.757   3.758 -0.0468  0.6316  0.3787
14775SOL    HW146332   6.796   9.681   3.813 -1.7130 -0.5392 -0.4685
14775SOL    HW246333   6.718   9.811   3.813 -1.7586 -0.5654 -0.1108
14776SOL     OW46334   5.122  10.373   7.967 -0.1815  0.6859 -0.1845
14776SOL    HW146335   5.095  10.333   8.049 -2.3108 -1.4993 -1.8016
14776SOL    HW246336   5.055  10.440   7.950  0.5494  1.4991  0.0876
14777SOL     OW46337   4.067   2.203   5.124  0.2699 -0.1282 -0.2501
14777SOL    HW146338   4.011   2.136   5.164  0.5830 -0.1707  0.1189
14777SOL    HW246339   4.045   2.200   5.031 -0.4473 -0.0511 -0.0920
14778SOL     OW46340   0.517   7.412   5.090  0.3768  0.0693 -0.4153
14778SOL    HW146341   0.473   7.464   5.023  0.3412 -0.0868 -0.5155
14778SOL    HW246342   0.546   7.475   5.155 -1.4141  0.0400  0.4716
14779SOL     OW46343   4.060   1.129   8.088  0.4284 -0.2755  0.0008
14779SOL    HW146344   4.130   1.185   8.054  0.3789  0.0699  0.4500
14779SOL    HW246345   4.105   1.066   8.143  0.4788 -0.6461 -0.4633
14780SOL     OW46346   2.730   7.893   7.869  0.0552 -0.6321 -0.0360
14780SOL    HW146347   2.738   7.894   7.964  0.4206 -1.4574 -0.0484
14780SOL    HW246348   2.645   7.852   7.853  1.0600 -2.8545 -0.0776
14781SOL     OW46349  10.840   3.080   6.199  0.2422  0.0710 -0.3584
14781SOL    HW146350  10.776   3.141   6.236  2.2013  1.7731  0.3999
14781SOL    HW246351  10.886   3.130   6.132  1.0526 -0.9673 -0.6095
14782SOL     OW46352   0.176   8.941   2.051 -0.1167  0.3024 -0.1514
14782SOL    HW146353   0.106   8.962   2.112 -0.7547 -0.6532 -0.5352
14782SOL    HW246354   0.224   9.024   2.040 -0.0281  0.5175  1.5570
14783SOL     OW46355   2.444   5.537   2.064  0.1608  0.0224 -0.0130
14783SOL    HW146356   2.440   5.460   2.007 -0.6927 -1.3283  1.7920
14783SOL    HW246357   2.498   5.600   2.015  0.1373 -1.3639 -1.9309
14784SOL     OW46358   8.507   0.613   9.073 -0.0550 -0.3766 -0.7900
14784SOL    HW146359   8.530   0.678   9.006 -0.4579 -3.7036 -4.5332
14784SOL    HW246360   8.411   0.609   9.069  0.0252 -2.3499 -2.0113
14785SOL     OW46361   5.529   1.585   8.125  0.2030 -0.2369 -0.0235
14785SOL    HW146362   5.570   1.641   8.192 -0.7607  0.6442 -0.1546
14785SOL    HW246363   5.460   1.639   8.088 -0.0889 -1.1745 -0.8693
14786SOL     OW46364  10.502   7.334   7.028  0.2554  0.0816  0.3504
14786SOL    HW146365  10.580   7.312   6.978 -0.0406  0.8113 -0.4484
14786SOL    HW246366  10.534   7.391   7.099  0.1945  2.4091 -1.3692
14787SOL     OW46367   5.479   1.280   0.616 -0.4834 -1.1801  0.3288
14787SOL    HW146368   5.565   1.297   0.656 -0.4356 -0.0313 -0.2061
14787SOL    HW246369   5.452   1.195   0.651  0.5899 -1.2659  0.9917
14788SOL     OW46370   4.099   2.252   6.168  0.1307  0.2326  0.1054
14788SOL    HW146371   4.006   2.261   6.151  0.2518  1.0237 -0.1609
14788SOL    HW246372   4.136   2.221   6.085  0.2623  1.0183 -0.1364
14789SOL     OW46373   6.065   3.137   7.415  0.4874  0.2697  0.2931
14789SOL    HW146374   6.064   3.144   7.511 -0.4943  0.5055  0.2810
14789SOL    HW246375   6.156   3.150   7.391  0.2323  5.2377  0.8930
14790SOL     OW46376   2.307   8.107   6.979  0.1629  0.1978 -0.3008
14790SOL    HW146377   2.274   8.145   6.898 -0.2092 -1.0382 -0.7420
14790SOL    HW246378   2.371   8.042   6.951 -1.2020 -1.4718  0.2841
14791SOL     OW46379   6.895   0.691   4.338  0.2654  0.2108  0.2498
14791SOL    HW146380   6.826   0.629   4.315 -1.2605  0.1208  4.2411
14791SOL    HW246381   6.946   0.701   4.258 -2.9706 -1.5102 -2.2967
14792SOL     OW46382   6.807   9.336   0.749 -0.6549 -0.3008 -0.0345
14792SOL    HW146383   6.889   9.315   0.704 -0.4371  0.2049  0.1190
14792SOL    HW246384   6.738   9.302   0.691 -0.3179 -2.3672  0.6772
14793SOL     OW46385   6.171  10.313   1.163 -0.2994 -0.1669 -0.3850
14793SOL    HW146386   6.209  10.400   1.180 -0.3225 -0.1240 -0.5558
14793SOL    HW246387   6.097  10.330   1.106  0.0207 -0.3537 -0.8609
14794SOL     OW46388   4.066   2.266   8.674  0.0310 -0.3541 -0.0020
14794SOL    HW146389   4.016   2.323   8.732 -0.6284 -1.2349  0.3303
14794SOL    HW246390   4.105   2.324   8.609 -1.0754  0.4012 -0.0037
14795SOL     OW46391   7.556   8.665   4.879  0.0788 -0.1083 -0.0806
14795SOL    HW146392   7.527   8.643   4.967  1.6688 -0.6546  0.3311
14795SOL    HW246393   7.477   8.658   4.825 -0.6916 -0.8119  1.1024
14796SOL     OW46394   4.421   5.527   0.835  0.2828 -0.1639  0.2053
14796SOL    HW146395   4.350   5.539   0.898 -1.1943  0.2009 -1.4600
14796SOL    HW246396   4.500   5.550   0.884 -1.0556  3.0357  1.1222
14797SOL     OW46397   6.717   9.985  10.286 -0.2429 -0.0089 -0.3990
14797SOL    HW146398   6.652  10.043  10.326 -0.3371  0.2418 -0.9013
14797SOL    HW246399   6.736  10.026  10.201  1.5795  0.6713  0.2914
14798SOL     OW46400   1.202   0.541   3.446 -0.4123 -0.1861 -0.3078
14798SOL    HW146401   1.172   0.505   3.530 -0.3188  1.0842  0.2819
14798SOL    HW246402   1.139   0.610   3.425 -0.4724 -0.5308 -1.3300
14799SOL     OW46403   0.606   7.577  10.438  0.2328  0.3866 -0.0851
14799SOL    HW146404   0.590   7.606  10.528  0.0241  0.4121 -0.1321
14799SOL    HW246405   0.687   7.622  10.413 -0.0826  0.9233 -0.1535
14800SOL     OW46406   3.317   0.852   2.890 -0.2726  0.4366 -0.4354
14800SOL    HW146407   3.265   0.927   2.919 -0.8698 -0.0492 -0.2370
14800SOL    HW246408   3.407   0.885   2.886 -0.3504  0.8520  0.7717
14801SOL     OW46409   4.633   8.583   0.310 -0.1993  0.3339  0.4434
14801SOL    HW146410   4.666   8.600   0.221 -0.7827  0.6176  0.2742
14801SOL    HW246411   4.689   8.513   0.343  0.8118  1.0528  0.3050
14802SOL     OW46412  10.694  10.196   3.661 -0.6701  0.4661 -0.1422
14802SOL    HW146413  10.740  10.180   3.578 -0.5038  3.7533 -0.8326
14802SOL    HW246414  10.602  10.203   3.636 -0.6390  1.2856 -0.0540
14803SOL     OW46415  10.475   1.863   6.030 -0.1846  0.9186  0.8102
14803SOL    HW146416  10.397   1.901   5.990 -0.3121  0.7788  0.9187
14803SOL    HW246417  10.463   1.768   6.019  1.2425  0.9432 -1.5377
14804SOL     OW46418   2.865   3.197   6.529 -0.0672 -0.1533 -0.4509
14804SOL    HW146419   2.819   3.161   6.453 -1.5646  1.7058 -0.5087
14804SOL    HW246420   2.936   3.249   6.492  0.1930 -0.5219 -0.4833
14805SOL     OW46421   5.674  10.855   7.647  0.3523  0.5092  0.1466
14805SOL    HW146422   5.612  10.829   7.716  0.6677  0.0770  0.2692
14805SOL    HW246423   5.619  10.896   7.580 -0.3076 -1.3927 -0.5387
14806SOL     OW46424  11.010   7.908   7.348 -0.1265 -0.1974 -0.3064
14806SOL    HW146425  10.922   7.870   7.341 -0.2060  0.0188 -0.4732
14806SOL    HW246426  11.055   7.880   7.269 -0.7323  1.4729 -1.2989
14807SOL     OW46427   8.633   7.709   3.982  0.1511  0.6274  0.0871
14807SOL    HW146428   8.704   7.699   3.919 -0.6128 -1.7033 -0.5031
14807SOL    HW246429   8.576   7.634   3.966 -0.7980  0.7046  2.6374
14808SOL     OW46430   7.094   2.346   9.658 -0.1269 -0.3715  0.0977
14808SOL    HW146431   7.082   2.432   9.698 -0.2205 -1.1823  1.9440
14808SOL    HW246432   7.009   2.302   9.671  0.2539 -1.0992  0.1527
14809SOL     OW46433   0.202   7.743   5.097  0.3617  0.5578  0.3578
14809SOL    HW146434   0.120   7.791   5.081  0.6810  0.9457 -0.1633
14809SOL    HW246435   0.258   7.806   5.142  0.4730  0.3813  0.4671
14810SOL     OW46436   7.364   8.342   9.570 -0.0531 -0.2349 -0.2017
14810SOL    HW146437   7.424   8.275   9.604  1.0868  1.6518  1.8255
14810SOL    HW246438   7.420   8.418   9.552 -1.5054  0.7728 -0.7285
14811SOL     OW46439   0.089   9.087   2.740 -0.2497  0.0280  0.0963
14811SOL    HW146440   0.143   9.045   2.673 -0.8807 -0.3747 -0.1689
14811SOL    HW246441   0.044   9.014   2.784  1.8777  0.0609  2.5335
14812SOL     OW46442   3.217  10.311   3.471 -0.0015  0.0707 -0.3924
14812SOL    HW146443   3.288  10.361   3.511  1.6482 -1.1938 -1.6318
14812SOL    HW246444   3.211  10.231   3.525 -2.3496  1.2753  1.3302
14813SOL     OW46445   3.561   4.448  10.024  0.2664  0.4639 -0.0106
14813SOL    HW146446   3.624   4.518  10.040 -0.6123  1.0395  1.0974
14813SOL    HW246447   3.496   4.457  10.094 -1.5487  0.4490 -1.6071
14814SOL     OW46448   2.902   7.857   4.915 -0.3717  0.0866  0.3299
14814SOL    HW146449   2.958   7.780   4.908  0.2439  0.5232  0.3158
14814SOL    HW246450   2.872   7.856   5.006  1.2903  0.9228  0.9475
14815SOL     OW46451   2.639   4.367   7.279  0.0786 -0.1149  0.4216
14815SOL    HW146452   2.604   4.337   7.363 -2.0478  0.1979 -0.2934
14815SOL    HW246453   2.675   4.454   7.298 -1.7270  0.6041  0.7704
14816SOL     OW46454   6.587   9.180   0.986 -0.1581  0.0606 -0.2007
14816SOL    HW146455   6.662   9.130   0.954 -0.1383  0.3122 -0.5616
14816SOL    HW246456   6.624   9.244   1.047 -0.3682 -1.3896  1.5025
14817SOL     OW46457   5.244   2.061   5.356 -0.6960 -0.5090 -0.0422
14817SOL    HW146458   5.217   2.151   5.373 -1.4224 -0.9463  1.2475
14817SOL    HW246459   5.196   2.035   5.278  2.3921  1.4134 -2.8518
14818SOL     OW46460   2.427   0.618   0.671 -0.2914  0.1218 -0.5978
14818SOL    HW146461   2.429   0.534   0.625  0.6657  0.5478 -1.3683
14818SOL    HW246462   2.463   0.680   0.609  0.8468  0.7612  0.6603
14819SOL     OW46463   8.287   5.835   0.027 -0.2057  0.0591 -0.2096
14819SOL    HW146464   8.206   5.843  -0.022 -0.3872 -0.3056  0.0254
14819SOL    HW246465   8.337   5.767  -0.019 -0.4767 -0.4536  0.2376
14820SOL     OW46466   9.505   4.478   5.045  0.1404  0.0396 -0.2990
14820SOL    HW146467   9.506   4.384   5.061 -0.7447 -0.1179 -1.0444
14820SOL    HW246468   9.474   4.487   4.954  0.5836  1.0305 -0.3715
14821SOL     OW46469   2.366   6.105   3.369 -0.1045  0.2202 -0.1263
14821SOL    HW146470   2.351   6.035   3.304 -0.8579 -0.1723  0.4480
14821SOL    HW246471   2.326   6.071   3.449 -1.7290  1.8675 -0.1622
14822SOL     OW46472   2.111   9.012   5.263 -0.2107 -0.2998  0.1974
14822SOL    HW146473   2.031   9.039   5.218 -0.8778 -0.7035  1.1024
14822SOL    HW246474   2.127   8.922   5.232  0.4790  0.1352 -0.7509
14823SOL     OW46475   1.624   6.746   8.223  0.3491 -0.8134  0.1523
14823SOL    HW146476   1.662   6.767   8.308  0.7055 -3.1811  0.6533
14823SOL    HW246477   1.690   6.692   8.179 -0.2624 -0.5116 -1.1886
14824SOL     OW46478  11.010   6.008   0.461  0.0169 -0.1830 -0.6598
14824SOL    HW146479  11.100   6.034   0.443  0.5364 -2.1390 -1.0825
14824SOL    HW246480  11.018   5.935   0.522 -1.1891 -1.4125 -1.9203
14825SOL     OW46481   4.639   2.133   0.110  0.5030  0.1882  0.3723
14825SOL    HW146482   4.619   2.195   0.181 -0.3493  0.2996  0.0543
14825SOL    HW246483   4.624   2.047   0.149  1.0863  0.1989  0.6343
14826SOL     OW46484   5.651   4.922   6.630 -0.2585  0.5401 -0.2587
14826SOL    HW146485   5.580   4.980   6.656 -1.5178 -1.1179  0.2193
14826SOL    HW246486   5.710   4.921   6.705 -0.0639  1.4312 -0.3962
14827SOL     OW46487   2.287   9.597   4.577  0.1112  0.2785  0.3966
14827SOL    HW146488   2.262   9.545   4.500  0.9609 -2.9897  2.1351
14827SOL    HW246489   2.216   9.583   4.639 -0.6668  3.0600  0.2387
14828SOL     OW46490   5.529   4.461   1.686 -0.0647  0.0717  0.4752
14828SOL    HW146491   5.520   4.550   1.722  0.6756  0.0928  0.6183
14828SOL    HW246492   5.521   4.403   1.761  0.4258  0.0669  0.5276
14829SOL     OW46493   2.423   9.264   4.548 -0.2316 -0.7759  0.5011
14829SOL    HW146494   2.351   9.225   4.499 -0.0998 -2.0337  1.2712
14829SOL    HW246495   2.381   9.304   4.624 -0.0893 -2.0622  1.2862
14830SOL     OW46496   0.041   2.041   1.830  0.0399 -0.6197 -0.4895
14830SOL    HW146497  -0.041   2.031   1.783 -0.1078  0.3368 -0.4594
14830SOL    HW246498   0.093   2.101   1.777 -0.3996  1.0391  0.8496
14831SOL     OW46499   7.822  10.805   0.111  0.5450 -0.0540 -0.0751
14831SOL    HW146500   7.740  10.758   0.095  0.5193 -0.7727  1.9376
14831SOL    HW246501   7.811  10.843   0.198  0.5402  3.7952 -1.5258
14832SOL     OW46502   9.057   8.924   1.039 -0.8713 -0.1719  0.4797
14832SOL    HW146503   9.112   8.990   1.082 -0.4209 -1.6901  2.3838
14832SOL    HW246504   8.968   8.959   1.044 -0.5527  0.6136  0.7819
14833SOL     OW46505   7.060   4.000   3.242  0.4162 -0.1742  0.1183
14833SOL    HW146506   6.986   4.016   3.184  0.0136 -2.3681 -0.0833
14833SOL    HW246507   7.133   4.048   3.203 -0.3765  0.1852 -0.9485
14834SOL     OW46508   1.031   8.582   0.006 -0.5982  0.1920 -0.0460
14834SOL    HW146509   0.981   8.576  -0.076 -0.1307  1.4686 -0.4521
14834SOL    HW246510   0.989   8.519   0.064 -1.9942  0.4311 -0.7393
14835SOL     OW46511   1.690   7.001  10.281 -0.0841  0.3466  0.0308
14835SOL    HW146512   1.708   6.967  10.193 -1.6166  0.3838 -0.3273
14835SOL    HW246513   1.735   6.941  10.340  0.1823 -0.2304 -0.7381
14836SOL     OW46514   4.770   6.638   2.817  0.0498  0.1490 -0.0409
14836SOL    HW146515   4.792   6.731   2.803  1.7407 -0.2020  0.0061
14836SOL    HW246516   4.818   6.614   2.896  0.6579 -1.0603 -0.7449
14837SOL     OW46517  10.939   1.299   3.694  0.1549  0.2709 -0.5699
14837SOL    HW146518  10.997   1.223   3.684  0.5291  0.6472 -1.3592
14837SOL    HW246519  10.914   1.322   3.604 -0.2061  0.8889 -0.3177
14838SOL     OW46520   7.541   4.138   4.158 -0.2845  0.0430 -0.0212
14838SOL    HW146521   7.472   4.090   4.204 -2.6757  1.8744 -1.4490
14838SOL    HW246522   7.568   4.206   4.220 -1.5103  0.7681 -0.2347
14839SOL     OW46523   2.861   1.436   8.822  0.1883  0.0465  0.1816
14839SOL    HW146524   2.907   1.480   8.750 -0.0554 -0.0829 -0.0575
14839SOL    HW246525   2.897   1.348   8.823  0.2079  0.0551  0.2349
14840SOL     OW46526   2.563   2.546   5.914 -0.2606  0.2831 -0.1246
14840SOL    HW146527   2.649   2.538   5.871 -0.7620  0.4316 -1.1771
14840SOL    HW246528   2.501   2.512   5.850 -0.9380 -0.4277  0.8811
14841SOL     OW46529   7.073   7.311   4.816  0.6834 -0.4653 -0.1860
14841SOL    HW146530   7.070   7.406   4.814 -1.2027 -0.4901 -0.6242
14841SOL    HW246531   7.121   7.290   4.896  0.0347  0.8670  0.5869
14842SOL     OW46532   3.103   4.656   4.073 -0.6403 -0.5063  0.5244
14842SOL    HW146533   3.132   4.686   4.160 -0.5929 -0.3111  0.4424
14842SOL    HW246534   3.088   4.737   4.024 -2.3827 -0.5779  0.9021
14843SOL     OW46535   7.343   1.071   6.488  0.0555 -0.6185  0.1868
14843SOL    HW146536   7.430   1.096   6.518  0.2368 -0.1622 -0.6684
14843SOL    HW246537   7.301   1.154   6.465 -0.2637 -0.9059 -0.2813
14844SOL     OW46538   6.640   6.192   3.193 -0.1156  0.0959  0.5410
14844SOL    HW146539   6.591   6.161   3.269 -0.6619  0.4112  0.3233
14844SOL    HW246540   6.731   6.194   3.222 -0.3949  0.8322  1.3949
14845SOL     OW46541   2.325   0.279   8.901 -0.4440  0.0198 -0.2656
14845SOL    HW146542   2.329   0.197   8.951 -0.7876 -1.9589 -3.2767
14845SOL    HW246543   2.231   0.297   8.893 -0.3636  0.8598  0.5595
14846SOL     OW46544   6.309  10.057   6.319 -0.4608 -0.0764 -0.2758
14846SOL    HW146545   6.252  10.111   6.374  1.3558  0.4312  1.2193
14846SOL    HW246546   6.322  10.110   6.240 -1.1517  0.2829 -0.1635
14847SOL     OW46547   5.595   6.001   6.045  0.2994  0.1194  0.2183
14847SOL    HW146548   5.562   5.912   6.034 -1.1889  0.7611 -0.8762
14847SOL    HW246549   5.542   6.054   5.985  0.9228  1.7951  1.0808
14848SOL     OW46550   5.083   5.667   5.063  0.5545  0.7512  0.6888
14848SOL    HW146551   5.129   5.707   4.990  1.5487  0.9851  1.4202
14848SOL    HW246552   5.096   5.573   5.052 -0.6456  0.6825 -0.2909
14849SOL     OW46553   6.625   4.083   1.996  0.6641  0.1176  0.2030
14849SOL    HW146554   6.595   4.174   1.986  2.6380  0.7337 -0.5742
14849SOL    HW246555   6.634   4.051   1.906 -0.8952 -1.1929  0.4772
14850SOL     OW46556   9.086   5.127   3.625 -0.1936  0.3575  0.1117
14850SOL    HW146557   9.177   5.115   3.653  0.3916  1.4709 -1.2005
14850SOL    HW246558   9.077   5.221   3.613 -0.9850  0.1095 -1.4777
14851SOL     OW46559   0.932   8.360   1.507  0.3180  0.0215 -0.0915
14851SOL    HW146560   0.967   8.438   1.549 -2.0710  1.0251  0.1980
14851SOL    HW246561   0.941   8.290   1.572 -0.1094  0.7330  0.7401
14852SOL     OW46562   7.702   7.971   9.693 -0.1329 -0.3889 -0.4137
14852SOL    HW146563   7.780   8.023   9.715  0.1274 -0.2653 -1.5813
14852SOL    HW246564   7.711   7.952   9.600 -0.1979 -2.5695 -0.0318
14853SOL     OW46565   8.326   4.888   9.993  0.0924  0.1899  0.2745
14853SOL    HW146566   8.239   4.847   9.988 -0.1044  0.4883  1.0795
14853SOL    HW246567   8.321   4.945  10.069  0.7974  0.7028 -0.0514
14854SOL     OW46568   4.377   7.428  10.638 -0.4698  0.2646 -0.2278
14854SOL    HW146569   4.401   7.336  10.624 -1.4368 -0.1829  0.8774
14854SOL    HW246570   4.447   7.463  10.692  0.2703  0.3946 -1.2386
14855SOL     OW46571   1.420   9.010   8.945  0.2952  0.7208 -0.6663
14855SOL    HW146572   1.443   8.975   9.031 -1.4073  0.0653 -0.4576
14855SOL    HW246573   1.499   8.996   8.892  0.6121 -0.8996  0.1849
14856SOL     OW46574   1.637   5.495   8.120 -0.2739 -0.6006  0.3101
14856SOL    HW146575   1.728   5.491   8.089  0.3698 -0.0988  2.0123
14856SOL    HW246576   1.639   5.449   8.204 -1.1317  1.1849  1.3594
14857SOL     OW46577   7.705   6.871   2.043 -0.2001  0.2422  0.2995
14857SOL    HW146578   7.705   6.933   1.969  2.6317  1.6698  1.3326
14857SOL    HW246579   7.696   6.785   2.002  0.5699  1.0337 -1.6796
14858SOL     OW46580   4.964   9.449   0.983 -0.5429  0.7088  0.6274
14858SOL    HW146581   4.978   9.469   0.891  0.7236 -2.1177  0.0865
14858SOL    HW246582   5.037   9.492   1.028  0.3911 -0.0919 -0.0738
14859SOL     OW46583   9.283   5.608   4.468 -0.3606  0.3017  0.0508
14859SOL    HW146584   9.213   5.544   4.456  0.6204 -0.5824 -1.1409
14859SOL    HW246585   9.256   5.683   4.414 -1.2520  0.7298  1.0411
14860SOL     OW46586   7.540   9.157   2.365  0.2494  0.1571  0.3059
14860SOL    HW146587   7.513   9.070   2.337  0.7761  0.0872  0.0031
14860SOL    HW246588   7.502   9.216   2.300  1.0726  0.0338 -0.2976
14861SOL     OW46589   4.177   5.220   7.046 -0.2205 -0.1609  0.2517
14861SOL    HW146590   4.136   5.157   7.104  0.1344 -1.6063 -1.0025
14861SOL    HW246591   4.114   5.292   7.040 -1.2482 -1.0160  0.6321
14862SOL     OW46592   8.357   7.609   1.805  0.0578  0.1318  0.4972
14862SOL    HW146593   8.416   7.552   1.854 -1.9744 -1.1455  1.5806
14862SOL    HW246594   8.404   7.693   1.800  0.5609  0.2598  4.3742
14863SOL     OW46595   4.526   7.823   1.517  0.2125  0.4718  0.4758
14863SOL    HW146596   4.485   7.843   1.433  2.4045  0.0605 -0.7530
14863SOL    HW246597   4.577   7.901   1.538  1.9255 -0.4813 -0.0263
14864SOL     OW46598   5.713   3.120   5.494 -0.7065 -0.4516 -0.1150
14864SOL    HW146599   5.699   3.191   5.432 -0.3861 -0.2731  0.0150
14864SOL    HW246600   5.719   3.041   5.439 -1.6972 -0.4678 -0.2104
14865SOL     OW46601   2.033   1.670  10.239  0.0344 -0.0942 -0.4049
14865SOL    HW146602   2.014   1.687  10.332  0.8176 -0.0041 -0.2544
14865SOL    HW246603   2.091   1.741  10.213  1.7250 -1.4031 -0.3164
14866SOL     OW46604   2.557   3.341   7.754  0.2506  0.2883 -0.3276
14866SOL    HW146605   2.500   3.328   7.830 -2.6114  0.3981 -2.3210
14866SOL    HW246606   2.543   3.433   7.729  0.5508  0.0425 -1.4409
14867SOL     OW46607  10.605   9.276   7.547  0.0330 -0.3522  0.1390
14867SOL    HW146608  10.615   9.192   7.503  0.7801 -0.4868  0.5321
14867SOL    HW246609  10.527   9.315   7.509  0.7834 -0.3556 -1.4770
14868SOL     OW46610   0.881   2.283   0.176 -0.3787 -0.0709  0.0577
14868SOL    HW146611   0.975   2.279   0.163  0.1031  2.2083  2.0295
14868SOL    HW246612   0.865   2.225   0.251 -0.9546 -2.1969 -1.6317
14869SOL     OW46613   3.002   6.158  10.401 -0.0782 -0.4056 -0.7367
14869SOL    HW146614   2.953   6.107  10.335  1.4791 -0.7640 -1.6760
14869SOL    HW246615   3.076   6.102  10.423 -0.5760 -0.2890  1.3874
14870SOL     OW46616   7.262   7.107  10.231  0.2853  0.3150 -0.3266
14870SOL    HW146617   7.291   7.145  10.314 -0.0500  0.6325 -0.3521
14870SOL    HW246618   7.229   7.182  10.181  1.1570  0.2412 -1.0359
14871SOL     OW46619  10.909   7.051   0.776  0.2370  0.1811  0.1905
14871SOL    HW146620  10.933   7.065   0.868  0.4553  2.4855 -0.1608
14871SOL    HW246621  10.992   7.056   0.728 -0.1648  2.1706 -0.4057
14872SOL     OW46622   9.945   9.270   4.562 -0.1563 -0.0254  0.1081
14872SOL    HW146623   9.876   9.204   4.562  0.7048 -0.9590  0.0541
14872SOL    HW246624   9.964   9.285   4.655 -2.0135  1.9882  0.2217
14873SOL     OW46625   1.858   7.550   8.143  0.5620  0.0781  0.8295
14873SOL    HW146626   1.948   7.526   8.122  0.7846  1.0391  0.6686
14873SOL    HW246627   1.865   7.609   8.217  0.0163 -0.3227  1.2157
14874SOL     OW46628   1.196   0.905   4.595 -0.5443  0.2011 -0.2043
14874SOL    HW146629   1.290   0.902   4.609 -0.5238 -1.2702 -0.4025
14874SOL    HW246630   1.159   0.922   4.681 -0.0676  2.6926 -0.4349
14875SOL     OW46631   9.210   4.893   8.984 -0.1318 -0.5166  0.4380
14875SOL    HW146632   9.256   4.833   9.043 -0.9130 -0.5167  1.0705
14875SOL    HW246633   9.118   4.868   8.993 -0.3048 -0.1889 -0.4227
14876SOL     OW46634   9.832   3.387   7.767 -0.1059  0.4075  0.1019
14876SOL    HW146635   9.809   3.477   7.747  0.6007  0.6929  0.5315
14876SOL    HW246636   9.864   3.390   7.858 -0.3954 -0.3277  0.2357
14877SOL     OW46637   8.451   9.070   5.504  0.5300  0.4733 -0.4364
14877SOL    HW146638   8.514   9.054   5.433  2.0602  0.0021  0.9440
14877SOL    HW246639   8.449   9.165   5.513  3.7659  0.4962  1.6687
14878SOL     OW46640  10.385   1.712   1.905 -0.6160  0.3183 -0.5448
14878SOL    HW146641  10.474   1.682   1.926 -0.6724  0.5048 -0.0143
14878SOL    HW246642  10.353   1.750   1.987 -0.7571  1.2972 -1.0393
14879SOL     OW46643   2.385   5.904   2.010  0.0114  0.0782 -0.2692
14879SOL    HW146644   2.423   5.989   1.986 -2.9247  2.0651  1.5162
14879SOL    HW246645   2.399   5.898   2.104  0.7576 -1.8194 -0.4610
14880SOL     OW46646   3.231   0.698   0.088 -0.1788  0.3859  0.0218
14880SOL    HW146647   3.162   0.638   0.060  0.0787 -0.1889  0.6129
14880SOL    HW246648   3.297   0.693   0.020 -0.6776  0.8869 -0.5146
14881SOL     OW46649  10.848   9.557   3.184  0.0006  0.3339  0.6661
14881SOL    HW146650  10.787   9.517   3.123  0.6578  1.1644 -0.5746
14881SOL    HW246651  10.934   9.540   3.146  0.5048 -0.0312  1.9105
14882SOL     OW46652   9.315   0.886   7.538  0.3665 -0.2842 -0.0508
14882SOL    HW146653   9.334   0.979   7.552  1.3476 -0.2448 -1.4571
14882SOL    HW246654   9.373   0.840   7.598 -0.0294 -0.0123  0.5589
14883SOL     OW46655   2.414   4.022   1.642 -0.2204 -0.2540 -0.0701
14883SOL    HW146656   2.430   3.968   1.720  0.8712 -1.2077 -0.9300
14883SOL    HW246657   2.385   4.106   1.678 -2.5013 -1.5027  1.3007
14884SOL     OW46658   6.983   0.380   9.558 -0.9703 -0.4422  0.3536
14884SOL    HW146659   6.894   0.402   9.587 -0.5090  0.6129  1.0413
14884SOL    HW246660   7.023   0.465   9.539 -0.0754 -0.9034  0.1257
14885SOL     OW46661  10.305   1.653   0.169 -0.0789 -0.4507 -0.3076
14885SOL    HW146662  10.285   1.563   0.197 -1.7059 -0.1505 -0.4017
14885SOL    HW246663  10.225   1.682   0.125  0.1764  1.3015  0.3438
14886SOL     OW46664   8.353   7.468   3.268  0.8728  0.2290  0.0191
14886SOL    HW146665   8.338   7.417   3.348  0.7559 -2.7142 -1.7237
14886SOL    HW246666   8.443   7.448   3.243  0.1642 -0.9279 -1.8256
14887SOL     OW46667   8.620   6.830   3.217  0.1896 -0.4843 -0.0062
14887SOL    HW146668   8.647   6.768   3.284  1.3072 -1.3509 -1.2170
14887SOL    HW246669   8.585   6.776   3.146  1.6930  0.1566 -1.3155
14888SOL     OW46670   6.799   7.927   8.033 -0.5042  0.2411 -0.1620
14888SOL    HW146671   6.830   7.868   8.102 -1.0959 -0.7248 -0.6884
14888SOL    HW246672   6.716   7.960   8.066 -0.5231  0.2052 -0.1740
14889SOL     OW46673   3.548   2.917   5.007 -0.1872 -0.2874 -0.1078
14889SOL    HW146674   3.580   2.883   4.924 -2.0773 -2.3163 -0.1129
14889SOL    HW246675   3.612   2.887   5.071 -0.3095 -1.4677 -0.4980
14890SOL     OW46676  10.342   4.745   9.701  0.0420  0.1293 -0.5994
14890SOL    HW146677  10.281   4.672   9.687 -0.0433  0.3603 -1.4936
14890SOL    HW246678  10.306   4.817   9.649 -0.4462  1.1676  1.0942
14891SOL     OW46679   4.569   0.767   2.889 -0.3743 -0.7909  0.1710
14891SOL    HW146680   4.601   0.680   2.915 -0.4494 -0.3095  1.9884
14891SOL    HW246681   4.649   0.818   2.876 -0.3349 -1.0534 -0.6878
14892SOL     OW46682   3.837   9.366   3.868 -0.2006 -0.4069 -0.0288
14892SOL    HW146683   3.905   9.299   3.879 -0.8366 -0.8696  1.3354
14892SOL    HW246684   3.771   9.343   3.933 -0.2513  1.7923  0.7565
14893SOL     OW46685   2.117   7.403   6.011  0.3261  0.2015  0.0116
14893SOL    HW146686   2.068   7.344   5.954  0.5909 -0.4614  0.4568
14893SOL    HW246687   2.200   7.417   5.966 -1.1989  3.6126 -2.1993
14894SOL     OW46688   5.703   0.317  10.320  0.7170  0.0683  0.8307
14894SOL    HW146689   5.745   0.348  10.400 -0.0469  0.6142  1.0419
14894SOL    HW246690   5.679   0.397  10.273  1.3586 -0.2476 -0.0605
14895SOL     OW46691   3.314   9.209   7.172  0.5442 -0.1559  0.6412
14895SOL    HW146692   3.293   9.170   7.256  0.1530 -0.5087  0.3864
14895SOL    HW246693   3.234   9.196   7.119  0.8051  0.0018  0.2006
14896SOL     OW46694   8.181   0.358   7.401  0.4423  0.1808 -0.2814
14896SOL    HW146695   8.255   0.310   7.439 -0.2975 -0.9362 -0.2093
14896SOL    HW246696   8.153   0.305   7.327  0.5819  1.3170 -1.1733
14897SOL     OW46697   0.242   7.843   0.345  0.3266  0.0146 -0.1633
14897SOL    HW146698   0.176   7.773   0.351  0.9811 -0.7702 -1.5623
14897SOL    HW246699   0.197   7.921   0.378 -1.6608 -0.2781 -1.9486
14898SOL     OW46700   9.562   5.521   4.501  0.5698  0.6905  0.0715
14898SOL    HW146701   9.567   5.429   4.474 -3.3572  0.0693  0.8685
14898SOL    HW246702   9.469   5.542   4.497  1.1230  4.1433  1.6695
14899SOL     OW46703   6.059   5.960   2.857 -0.5782  0.1626  0.4979
14899SOL    HW146704   6.032   6.042   2.817 -0.3677  0.0637  0.1455
14899SOL    HW246705   5.990   5.898   2.834  0.8395 -0.5870 -2.0867
14900SOL     OW46706   8.405   4.591   4.335  0.4071 -0.0678 -0.2696
14900SOL    HW146707   8.351   4.656   4.290 -1.2471 -0.5609  0.8692
14900SOL    HW246708   8.344   4.519   4.353  1.5106 -0.7272  0.9627
14901SOL     OW46709   0.301   6.469   1.328 -0.1037  0.2291 -0.2949
14901SOL    HW146710   0.386   6.511   1.315  0.4784 -1.4096 -2.3113
14901SOL    HW246711   0.315   6.410   1.402 -0.1101  1.4100  0.6804
14902SOL     OW46712   2.505   6.940   5.713  0.3743  0.1844 -0.1613
14902SOL    HW146713   2.500   6.920   5.806 -1.0171  0.6408 -0.1047
14902SOL    HW246714   2.588   6.903   5.684  0.6048 -0.3738  1.1589
14903SOL     OW46715   9.547   5.800   8.067  0.0890  0.0812  0.0742
14903SOL    HW146716   9.575   5.843   8.147 -0.1180 -0.4658  0.4500
14903SOL    HW246717   9.620   5.743   8.043 -0.6930 -1.4566  1.1369
14904SOL     OW46718   2.461   1.461   8.658 -0.0178 -0.0615  0.0686
14904SOL    HW146719   2.527   1.510   8.707 -0.0546 -0.4692  0.5351
14904SOL    HW246720   2.437   1.519   8.585 -1.9794  1.7828  2.0288
14905SOL     OW46721   0.830   5.163   6.557  0.3959 -0.2113 -0.5518
14905SOL    HW146722   0.872   5.094   6.608 -0.3637 -1.8421 -2.0235
14905SOL    HW246723   0.870   5.157   6.470  0.7801  1.6694 -0.5388
14906SOL     OW46724  10.041   0.994   6.012  0.1577  0.1705  0.4077
14906SOL    HW146725  10.031   1.088   6.002 -1.3349  0.1268  1.2356
14906SOL    HW246726   9.978   0.970   6.080 -0.6194 -1.6324 -0.8671
14907SOL     OW46727   9.921   5.499   5.246 -0.0024  0.1237 -0.5454
14907SOL    HW146728   9.950   5.408   5.244 -1.0158 -0.2156 -2.0405
14907SOL    HW246729   9.878   5.509   5.331 -2.2256 -1.6296 -1.3481
14908SOL     OW46730   6.342   2.224   2.458  0.2240  0.1393  0.2560
14908SOL    HW146731   6.321   2.309   2.419  2.1919  0.6688  0.2587
14908SOL    HW246732   6.300   2.226   2.544 -0.1677  0.9050  0.0537
14909SOL     OW46733   8.477   7.305  10.864  0.5398  0.0851  0.2926
14909SOL    HW146734   8.401   7.273  10.816 -1.0654  1.1432  1.9809
14909SOL    HW246735   8.479   7.253  10.944  1.5503  0.1184  0.3000
14910SOL     OW46736   3.616   1.127   9.359  0.3071  0.1044 -0.0351
14910SOL    HW146737   3.681   1.123   9.289 -0.8128  0.3253 -1.1107
14910SOL    HW246738   3.532   1.136   9.314 -0.2858  2.4141  1.3571
14911SOL     OW46739   2.401   1.151   8.164 -0.1381 -0.5763  0.5666
14911SOL    HW146740   2.480   1.189   8.126 -1.2416  2.0954  0.7215
14911SOL    HW246741   2.334   1.163   8.096 -0.6901 -1.6998  0.8928
14912SOL     OW46742   6.865  10.370   2.596 -0.0551  0.4282 -0.0827
14912SOL    HW146743   6.932  10.337   2.537 -1.7597 -0.0468 -1.8556
14912SOL    HW246744   6.873  10.465   2.592 -0.2481  0.4061 -1.2350
14913SOL     OW46745   8.804   6.524   4.528  0.4070 -0.4491  0.1761
14913SOL    HW146746   8.878   6.526   4.588 -0.0214  2.6765  0.7964
14913SOL    HW246747   8.830   6.581   4.455 -1.1391  0.2859  0.1456
14914SOL     OW46748   1.952  10.924   5.870 -0.0474  0.4690  0.0124
14914SOL    HW146749   2.022  10.875   5.914 -0.5293 -0.3635 -0.1191
14914SOL    HW246750   1.941  10.880   5.786 -1.0255  0.3008  0.2103
14915SOL     OW46751  10.868   1.066   1.555  0.6270 -0.6837  0.1906
14915SOL    HW146752  10.787   1.016   1.569  0.2121  0.0272  0.3651
14915SOL    HW246753  10.869   1.083   1.460 -2.0046  3.4727  0.6608
14916SOL     OW46754   1.083   3.613   1.012 -0.6242  0.2128  0.6314
14916SOL    HW146755   1.157   3.620   1.073 -1.4113  0.1286  1.6283
14916SOL    HW246756   1.010   3.583   1.066 -0.8896 -1.8552 -0.7360
14917SOL     OW46757   5.345   3.367   4.517 -0.0093 -0.7418 -0.5963
14917SOL    HW146758   5.371   3.428   4.586  0.4881 -0.7272 -0.7934
14917SOL    HW246759   5.265   3.326   4.550 -1.0246  0.8689 -0.9576
14918SOL     OW46760   2.033   9.320   1.043  0.2871  0.2896 -0.6508
14918SOL    HW146761   2.077   9.313   1.128 -0.5972 -0.9428 -0.2619
14918SOL    HW246762   1.943   9.345   1.065  0.1580  0.3570 -1.2522
14919SOL     OW46763  10.085   4.606   6.328 -0.2846  0.3908  0.1972
14919SOL    HW146764  10.046   4.678   6.378  0.9851  0.9063  0.4875
14919SOL    HW246765  10.072   4.630   6.237 -0.4170  0.6842  0.2928
14920SOL     OW46766   9.714   8.682   4.686 -0.2986 -0.1382 -0.1428
14920SOL    HW146767   9.780   8.699   4.753  0.9920 -1.6772 -0.9543
14920SOL    HW246768   9.700   8.588   4.690 -0.3715 -0.2226 -1.8506
14921SOL     OW46769   1.486   8.518   0.210  0.0767 -0.3548  0.1377
14921SOL    HW146770   1.560   8.530   0.269 -0.4156 -0.2435  0.7429
14921SOL    HW246771   1.409   8.530   0.265 -0.4318  1.8907 -0.9011
14922SOL     OW46772   3.249   9.633   5.558  0.0265  0.0518 -0.0487
14922SOL    HW146773   3.342   9.617   5.576  0.3379  1.5392 -0.1481
14922SOL    HW246774   3.230   9.580   5.481  0.4962 -1.0978  0.6018
14923SOL     OW46775   6.992   2.822   7.030  0.7217 -0.0820  0.6657
14923SOL    HW146776   7.026   2.847   6.944 -0.9898 -3.9303 -1.3663
14923SOL    HW246777   6.904   2.858   7.033  1.4527  1.7377  1.7771
14924SOL     OW46778   0.826   8.610   4.172  0.2728 -0.6759  0.2497
14924SOL    HW146779   0.854   8.519   4.187  0.3868 -0.6606  0.1351
14924SOL    HW246780   0.776   8.633   4.250 -2.3273 -1.8388 -0.9530
14925SOL     OW46781   1.696  11.031   2.989 -0.3712 -0.3173 -0.2968
14925SOL    HW146782   1.651  10.954   2.954  0.0467  0.0940 -1.8177
14925SOL    HW246783   1.690  11.096   2.919 -1.1268  1.2233  1.1338
14926SOL     OW46784   8.479   9.342   7.279  0.1796  0.2265 -0.1656
14926SOL    HW146785   8.563   9.362   7.319  0.1745  0.9799 -0.5145
14926SOL    HW246786   8.446   9.267   7.328  0.5919  0.5537  0.6231
14927SOL     OW46787   1.162   7.038   4.364 -0.2187  0.7345  0.1381
14927SOL    HW146788   1.186   7.100   4.295  1.3199 -0.8417 -0.8258
14927SOL    HW246789   1.240   7.032   4.419 -0.3861 -0.2204  0.2935
14928SOL     OW46790   3.212   7.908   1.159 -0.1478  0.1814 -0.1318
14928SOL    HW146791   3.142   7.909   1.093 -0.7520  0.5040  0.5012
14928SOL    HW246792   3.181   7.846   1.225  0.2053  0.2632  0.1122
14929SOL     OW46793   1.482   9.820   8.684 -0.3671 -0.0443  0.2318
14929SOL    HW146794   1.469   9.823   8.778  3.0919  0.5504  0.8179
14929SOL    HW246795   1.462   9.909   8.654 -1.4039 -0.2171  0.3970
14930SOL     OW46796   0.206   4.792   5.833 -0.4226  0.7257  0.2721
14930SOL    HW146797   0.196   4.718   5.894  0.1175  0.5368  0.1443
14930SOL    HW246798   0.299   4.790   5.810 -0.6420  0.7212 -0.6556
14931SOL     OW46799   2.709   2.017   4.871 -0.5055 -0.1111  0.0823
14931SOL    HW146800   2.657   2.089   4.907  1.3338  2.8003 -2.5798
14931SOL    HW246801   2.798   2.034   4.903  0.1673 -0.5326 -1.4713
14932SOL     OW46802   5.205   1.145   4.898  0.0010 -0.1033  0.2904
14932SOL    HW146803   5.252   1.088   4.837 -0.2015 -0.2939  0.3109
14932SOL    HW246804   5.165   1.085   4.961  1.3709  0.1547  1.4504
14933SOL     OW46805   8.629   2.298   5.264  0.1866  0.1768  0.0044
14933SOL    HW146806   8.684   2.369   5.297  1.7206 -0.4031 -1.2062
14933SOL    HW246807   8.658   2.284   5.174  0.0641 -2.0912  0.2480
14934SOL     OW46808   1.163   8.183   1.899 -0.1981 -0.2146 -0.6891
14934SOL    HW146809   1.112   8.226   1.831 -0.6128  0.2517 -0.1003
14934SOL    HW246810   1.156   8.089   1.879  0.3662 -0.0483 -1.7400
14935SOL     OW46811   6.410   5.551   3.569 -0.4893 -0.1818 -0.4398
14935SOL    HW146812   6.351   5.509   3.506  0.3414 -1.3432 -0.4727
14935SOL    HW246813   6.496   5.546   3.528 -0.3131  1.2661 -0.2732
14936SOL     OW46814   4.429  11.027   6.535 -0.0831  0.4251  0.1290
14936SOL    HW146815   4.478  11.013   6.453 -1.0350  0.0526 -0.3935
14936SOL    HW246816   4.455  11.114   6.564  0.7157  0.3267 -0.2538
14937SOL     OW46817   2.008   7.404   2.229  0.2222 -0.0299 -0.1241
14937SOL    HW146818   1.963   7.488   2.220  1.0732  0.3668 -0.7884
14937SOL    HW246819   1.952   7.341   2.184  1.8534  1.0198 -3.9992
14938SOL     OW46820   9.113   7.560   8.975 -0.1768 -0.0824  0.3119
14938SOL    HW146821   9.067   7.569   9.059 -0.1443 -3.0349  0.7783
14938SOL    HW246822   9.204   7.582   8.995  0.2511 -2.6266  1.7039
14939SOL     OW46823   5.184   9.173   8.055  0.2042 -0.2112 -0.4530
14939SOL    HW146824   5.137   9.106   8.006  0.3533  0.6006 -1.7778
14939SOL    HW246825   5.115   9.230   8.089  0.1545  0.3545 -1.4578
14940SOL     OW46826   5.818   5.052   2.262  0.3421 -0.1229 -0.2374
14940SOL    HW146827   5.833   5.125   2.202 -0.1514  0.0511 -0.1600
14940SOL    HW246828   5.808   4.976   2.204  0.5912 -0.0815 -0.3351
14941SOL     OW46829   9.634   7.016   8.333  0.0488 -0.2289 -0.5073
14941SOL    HW146830   9.572   6.946   8.312 -0.2138 -0.6084  1.3475
14941SOL    HW246831   9.646   7.009   8.428 -0.7087  2.8053 -0.0851
14942SOL     OW46832   7.471   3.204   8.324 -0.0737 -0.6193  0.4947
14942SOL    HW146833   7.455   3.298   8.316 -0.9932 -0.8384 -0.3663
14942SOL    HW246834   7.403   3.172   8.382 -0.6050 -0.9711 -0.3108
14943SOL     OW46835  11.018   2.412   3.256 -0.0397  0.0578  0.2511
14943SOL    HW146836  11.091   2.360   3.289  0.2268  0.0607 -0.3124
14943SOL    HW246837  11.059   2.486   3.212 -0.3543 -0.2540 -0.5988
14944SOL     OW46838   0.972   4.294   0.905 -0.0165 -0.1802  0.0934
14944SOL    HW146839   1.026   4.215   0.913  1.4995  0.9042  1.4302
14944SOL    HW246840   1.036   4.365   0.898 -1.3426  0.8935 -1.9494
14945SOL     OW46841   7.488  10.309   2.700  0.6583  0.1466  0.3810
14945SOL    HW146842   7.500  10.380   2.637  1.3259  0.2616  0.6302
14945SOL    HW246843   7.545  10.332   2.774 -0.6682  0.3966  1.3671
14946SOL     OW46844   9.830   1.609   4.126  0.0902  0.3037 -0.1269
14946SOL    HW146845   9.860   1.541   4.066  0.3149  0.8176 -0.6040
14946SOL    HW246846   9.797   1.679   4.069  2.6319  1.9034  0.2123
14947SOL     OW46847  10.774   4.255   8.031  0.1159  0.1950 -0.4458
14947SOL    HW146848  10.836   4.247   7.958 -1.1334  0.5633 -1.5808
14947SOL    HW246849  10.731   4.340   8.016  0.7766  0.9240  1.4912
14948SOL     OW46850   1.389   3.043   7.284 -0.3624  0.2776  0.5139
14948SOL    HW146851   1.341   3.057   7.202 -1.1268  1.3291  1.1242
14948SOL    HW246852   1.406   2.948   7.286  1.0756  0.3973 -1.6188
14949SOL     OW46853   7.174   4.147   4.125  1.0722  0.2201 -0.4207
14949SOL    HW146854   7.141   4.094   4.053 -0.2623  1.0551 -0.4397
14949SOL    HW246855   7.213   4.224   4.083 -0.8513  1.3465 -0.2551
14950SOL     OW46856   8.731   7.226  10.457  0.2199  0.0527 -0.5260
14950SOL    HW146857   8.826   7.227  10.444  0.1568 -1.5712 -1.3501
14950SOL    HW246858   8.694   7.233  10.369 -0.4162  0.2473 -0.2532
14951SOL     OW46859   1.008   8.632   0.541  0.4512 -0.2632 -0.2467
14951SOL    HW146860   1.048   8.693   0.479 -0.0397 -0.2666 -0.5766
14951SOL    HW246861   1.041   8.659   0.626  2.8483 -1.5692 -0.6681
14952SOL     OW46862   3.563   8.060   6.865  0.3847  0.3119 -0.1781
14952SOL    HW146863   3.502   8.128   6.894 -1.1395 -0.6249 -1.0178
14952SOL    HW246864   3.648   8.087   6.900 -0.6730  1.1637  1.8792
14953SOL     OW46865   8.268  10.239   3.278 -0.4711  0.1390 -0.3024
14953SOL    HW146866   8.361  10.218   3.270 -0.4121 -0.5385  1.5228
14953SOL    HW246867   8.265  10.307   3.346 -1.4202 -1.6446  1.5779
14954SOL     OW46868  10.093   9.596   8.822  0.3012 -0.5890  0.2191
14954SOL    HW146869  10.159   9.579   8.889 -0.1100 -1.2319  0.4627
14954SOL    HW246870  10.025   9.530   8.837  1.3302 -2.3638 -2.3330
14955SOL     OW46871   9.097  10.699   0.689 -0.1682  0.1079  0.5405
14955SOL    HW146872   9.020  10.741   0.652  0.2945  1.0839  0.6592
14955SOL    HW246873   9.064  10.620   0.731 -0.8700 -0.3704 -0.8701
14956SOL     OW46874   0.363   9.197   2.363  0.1624  0.1813  0.4810
14956SOL    HW146875   0.455   9.174   2.354  0.3981  0.8736  1.0445
14956SOL    HW246876   0.348   9.263   2.295 -0.3325 -1.0795 -0.6652
14957SOL     OW46877   1.786   2.246   1.608 -0.0892 -0.2059  0.3970
14957SOL    HW146878   1.702   2.229   1.652 -0.0454 -0.5249  0.3577
14957SOL    HW246879   1.828   2.160   1.602 -0.6106 -0.3727 -1.3400
14958SOL     OW46880   7.137   8.917   8.190  0.2101 -0.6472  0.0957
14958SOL    HW146881   7.227   8.884   8.193  0.0109 -1.1632  0.9717
14958SOL    HW246882   7.134   8.986   8.257 -0.2141 -1.1350  0.6031
14959SOL     OW46883   0.132  10.700   7.115 -0.1226 -0.2866 -0.4343
14959SOL    HW146884   0.065  10.745   7.063 -0.2470 -0.0942 -0.1102
14959SOL    HW246885   0.098  10.702   7.205 -0.1852 -1.1202 -0.4295
14960SOL     OW46886   4.586   2.725   2.075  0.2486 -0.2120 -0.2389
14960SOL    HW146887   4.630   2.766   2.149  0.0551  0.5037 -0.5131
14960SOL    HW246888   4.607   2.632   2.083  1.6012  0.0761 -0.2326
14961SOL     OW46889   5.385   8.626   8.037  0.6288  0.7722  0.3192
14961SOL    HW146890   5.432   8.670   8.108  1.1372 -0.6651  0.9150
14961SOL    HW246891   5.444   8.631   7.962  0.4486  1.5712  0.2272
14962SOL     OW46892   8.886   3.059   8.410  0.6106  0.3719  0.7169
14962SOL    HW146893   8.946   3.011   8.469  0.1746 -1.3892 -0.2018
14962SOL    HW246894   8.816   3.090   8.468  1.7122  1.3325  1.5942
14963SOL     OW46895   2.597   5.067  10.543 -0.1780  0.0871  0.2623
14963SOL    HW146896   2.664   5.102  10.483 -0.1825  2.3623  1.4703
14963SOL    HW246897   2.524   5.128  10.535  0.3108  1.2769  3.4741
14964SOL     OW46898   7.246   5.314   6.671 -0.0896 -0.4991  0.0115
14964SOL    HW146899   7.267   5.406   6.657 -0.2741 -0.2716  1.1108
14964SOL    HW246900   7.303   5.266   6.612  0.1334  0.3170 -0.4397
14965SOL     OW46901   8.380   5.570   5.813  0.3529 -0.3582  0.0112
14965SOL    HW146902   8.308   5.556   5.874  0.8936 -0.2098  0.6898
14965SOL    HW246903   8.344   5.631   5.748 -0.0647 -0.1223  0.4588
14966SOL     OW46904   3.929   2.977   8.564 -0.1237 -0.1609  0.1561
14966SOL    HW146905   4.018   2.980   8.597 -0.0843 -0.2471  0.0592
14966SOL    HW246906   3.907   2.883   8.561 -0.5401 -0.0992  1.0476
14967SOL     OW46907   2.549   6.806   2.814  0.4630 -0.1793 -0.3610
14967SOL    HW146908   2.603   6.864   2.760 -0.2497  0.6311 -0.2219
14967SOL    HW246909   2.479   6.776   2.755 -0.8796  1.4664  0.2945
14968SOL     OW46910   8.263   0.267   2.893 -0.2019 -0.0465  0.4086
14968SOL    HW146911   8.337   0.230   2.845 -2.1811 -2.6671 -0.9291
14968SOL    HW246912   8.208   0.307   2.825 -1.4516 -0.8802  0.8846
14969SOL     OW46913   3.783   6.912   3.020  0.3508  0.4554 -0.3343
14969SOL    HW146914   3.804   6.822   3.046 -0.8113  0.3677  0.3296
14969SOL    HW246915   3.712   6.903   2.956  0.6637  0.8766 -0.7498
14970SOL     OW46916   3.281   8.900   2.029  0.5413  0.4741 -0.1952
14970SOL    HW146917   3.254   8.812   2.004  0.5084  0.5613 -0.4615
14970SOL    HW246918   3.259   8.955   1.954 -1.1298  1.0254  0.6480
14971SOL     OW46919   6.241  10.842   4.933 -0.3503  0.1409  0.1415
14971SOL    HW146920   6.236  10.937   4.926  1.3236  0.3170  0.8041
14971SOL    HW246921   6.251  10.825   5.027  1.5184 -0.5149 -0.1273
14972SOL     OW46922   6.766   2.841   9.358 -0.3122  0.3764  0.0028
14972SOL    HW146923   6.800   2.928   9.337  1.1722  0.3647  2.0568
14972SOL    HW246924   6.674   2.856   9.379 -0.5482  1.1254 -1.4305
14973SOL     OW46925   0.314   4.709   0.316 -0.2824 -0.1694  0.3950
14973SOL    HW146926   0.266   4.631   0.289 -0.8181  0.2231  0.1901
14973SOL    HW246927   0.268   4.740   0.394  0.4844 -0.5731  1.0175
14974SOL     OW46928   5.162   4.662   4.250 -0.0225  0.0640 -0.0241
14974SOL    HW146929   5.131   4.679   4.339  0.4317 -3.1233  0.8603
14974SOL    HW246930   5.142   4.743   4.202  1.2150  2.5599  3.2864
14975SOL     OW46931   0.109   3.221   9.957 -0.0990  0.9200 -0.8426
14975SOL    HW146932   0.089   3.161  10.029 -0.0146  1.7614 -0.1018
14975SOL    HW246933   0.057   3.299   9.976  2.0846  2.2729 -0.1222
14976SOL     OW46934   5.523   0.502   4.890 -0.2322 -0.1233 -0.0058
14976SOL    HW146935   5.494   0.593   4.894 -0.3218 -0.1527  0.0123
14976SOL    HW246936   5.594   0.497   4.954 -1.9770 -0.7060  2.0050
14977SOL     OW46937   5.916   5.622   7.681 -0.2792  0.1247  0.0507
14977SOL    HW146938   5.915   5.694   7.619  0.8043 -0.7009 -0.9685
14977SOL    HW246939   6.006   5.618   7.712 -0.6898  0.2062  1.3257
14978SOL     OW46940   9.473   6.001   5.618  0.7400 -0.0271  0.0395
14978SOL    HW146941   9.456   5.983   5.711 -1.1041  0.2351 -0.2177
14978SOL    HW246942   9.511   6.089   5.619  0.4685  0.0944  0.5366
14979SOL     OW46943  10.993  10.539   2.483 -0.3474 -0.1216  0.0627
14979SOL    HW146944  11.026  10.521   2.571  0.9505  0.9679 -0.1595
14979SOL    HW246945  11.028  10.626   2.462 -1.3728  0.0180 -1.1807
14980SOL     OW46946   2.583   2.701   4.971 -0.5701  0.3277  0.8292
14980SOL    HW146947   2.671   2.736   4.957 -0.9216  1.9028  2.1686
14980SOL    HW246948   2.539   2.714   4.887 -0.1677  1.6151  0.7849
14981SOL     OW46949   4.587   9.799   6.335  0.6627  0.1177  0.5498
14981SOL    HW146950   4.553   9.769   6.419  2.1092 -0.2949  1.0293
14981SOL    HW246951   4.665   9.746   6.321  1.1310  1.0305 -0.4630
14982SOL     OW46952   4.279   0.159   5.081  0.0553  0.3737 -0.3494
14982SOL    HW146953   4.351   0.217   5.057  0.2644  0.6803  0.9345
14982SOL    HW246954   4.317   0.097   5.144 -0.9024  0.8912  0.7859
14983SOL     OW46955   6.804   4.956   5.293  0.2942  0.0818 -0.1752
14983SOL    HW146956   6.823   5.017   5.363 -0.3797  0.8959 -0.6772
14983SOL    HW246957   6.837   4.872   5.324  0.2037  0.4721  1.0105
14984SOL     OW46958   0.992   7.747   6.929 -0.0649  0.2446  0.1713
14984SOL    HW146959   1.001   7.659   6.892 -1.5674 -0.6093  1.7151
14984SOL    HW246960   0.965   7.801   6.856  4.1145  0.2725 -1.6645
14985SOL     OW46961   4.477   3.904   8.187  0.2368  0.6047  0.0342
14985SOL    HW146962   4.412   3.854   8.238 -0.2721  0.9217 -0.2912
14985SOL    HW246963   4.558   3.855   8.198 -0.1757 -0.1035  0.0134
14986SOL     OW46964   9.906   4.950   4.044 -0.3819  0.5472 -0.0607
14986SOL    HW146965   9.976   4.886   4.060 -0.7206 -0.1275 -1.1643
14986SOL    HW246966   9.844   4.936   4.116 -1.0594 -1.2431 -0.9289
14987SOL     OW46967   9.614   2.625   0.498 -0.3537  0.1130 -0.3197
14987SOL    HW146968   9.638   2.683   0.426  0.9299  0.3436  0.2584
14987SOL    HW246969   9.561   2.556   0.457  0.9323 -0.1477 -1.6351
14988SOL     OW46970  10.896   7.883   5.495  0.0785 -0.3125 -0.2148
14988SOL    HW146971  10.852   7.953   5.544  0.4257 -0.8064  0.8264
14988SOL    HW246972  10.861   7.802   5.533  2.3361 -0.7327  1.1260
14989SOL     OW46973   0.892   9.537   3.515  0.6499  0.0401  0.0169
14989SOL    HW146974   0.985   9.559   3.507  1.3438 -2.7845 -1.1347
14989SOL    HW246975   0.887   9.484   3.595  0.1139 -0.1141 -0.1166
14990SOL     OW46976   0.158   5.825   3.540  0.4610  0.2203  0.1637
14990SOL    HW146977   0.135   5.882   3.613  1.8535  0.9575  0.0820
14990SOL    HW246978   0.132   5.737   3.567  0.2823  0.5888  1.2269
14991SOL     OW46979   0.452   2.151   0.401 -0.2396  0.1556 -0.3303
14991SOL    HW146980   0.389   2.086   0.432 -1.0257  0.0848 -1.9880
14991SOL    HW246981   0.485   2.116   0.319 -0.0670  1.4812 -0.8510
14992SOL     OW46982   2.063   4.281   3.170  0.0389  0.1433 -0.5849
14992SOL    HW146983   2.081   4.372   3.144  0.7330 -0.3634 -1.9994
14992SOL    HW246984   2.013   4.246   3.096  0.8611 -0.9833 -0.6181
14993SOL     OW46985   8.082   0.951   5.783  0.4316 -0.2458  0.2561
14993SOL    HW146986   8.155   1.012   5.776 -0.6422  1.2038  1.0887
14993SOL    HW246987   8.115   0.870   5.746  2.2227  0.5663 -0.0370
14994SOL     OW46988   2.598   6.738   1.141 -1.1265 -0.5077  0.2728
14994SOL    HW146989   2.627   6.822   1.106 -0.7211 -0.9110 -0.3789
14994SOL    HW246990   2.668   6.711   1.200  1.4784 -2.8917 -3.5006
14995SOL     OW46991   1.606   3.440   4.736 -0.4383  0.5429  0.4106
14995SOL    HW146992   1.628   3.402   4.821 -0.1969  1.6942  0.8733
14995SOL    HW246993   1.511   3.428   4.728 -0.5962  1.1693  1.2216
14996SOL     OW46994   2.843   1.168   2.675  0.1348 -0.1499 -0.1967
14996SOL    HW146995   2.803   1.197   2.593 -1.1914  0.9252  0.7852
14996SOL    HW246996   2.837   1.072   2.672 -1.6865 -0.0678 -0.5385
14997SOL     OW46997   5.448   2.873   0.550 -0.0804 -0.4742  0.2839
14997SOL    HW146998   5.437   2.820   0.628  3.1408 -0.9965  0.5426
14997SOL    HW246999   5.466   2.961   0.583  0.8649 -0.6071  0.1633
14998SOL     OW47000   2.791   2.710  10.666 -0.4945  0.3903  0.1807
14998SOL    HW147001   2.778   2.748  10.579 -0.5522  0.7420  0.3396
14998SOL    HW247002   2.883   2.681  10.666  0.0936  2.0949  0.6303
14999SOL     OW47003  10.316   4.137   9.855 -0.2685  0.1313 -0.2279
14999SOL    HW147004  10.277   4.127   9.942  0.6415 -0.7623  0.1043
14999SOL    HW247005  10.352   4.050   9.835 -0.0233  0.4640 -1.2726
15000SOL     OW47006   7.465   7.495   2.020 -0.4559  0.1352  0.1205
15000SOL    HW147007   7.499   7.455   1.939 -0.0804  0.4784  0.1053
15000SOL    HW247008   7.531   7.476   2.086 -0.4473  0.4285  0.1952
15001SOL     OW47009   0.846   8.434   0.490  0.0710  0.2099  0.1268
15001SOL    HW147010   0.764   8.469   0.524 -0.5012 -0.7524 -0.2021
15001SOL    HW247011   0.911   8.503   0.504 -0.9016  1.1719 -0.0594
15002SOL     OW47012   6.547   3.811   5.763  0.4095 -0.0555  0.6563
15002SOL    HW147013   6.569   3.852   5.847 -2.1225  2.7258  0.1452
15002SOL    HW247014   6.463   3.849   5.739  1.3349 -0.1221 -3.5209
15003SOL     OW47015   2.323   9.192  10.570  0.2504 -0.4600  0.1370
15003SOL    HW147016   2.383   9.221  10.638 -0.4227 -0.4840  0.7486
15003SOL    HW247017   2.241   9.239  10.587  0.3592  0.3148 -1.2605
15004SOL     OW47018   5.245  10.437   7.586  0.1906 -0.3505 -0.1147
15004SOL    HW147019   5.200  10.376   7.645 -1.1631  0.0100 -0.7508
15004SOL    HW247020   5.268  10.383   7.510  1.7033 -0.7521  0.5904
15005SOL     OW47021   3.382   8.073   2.006 -0.4825 -0.4900 -0.8785
15005SOL    HW147022   3.448   8.104   1.943 -0.0154 -1.4160 -0.8652
15005SOL    HW247023   3.326   8.015   1.954 -1.0500 -0.0133 -0.7970
15006SOL     OW47024   8.312   5.803   7.271 -0.4923  0.1281 -0.0437
15006SOL    HW147025   8.324   5.830   7.180 -0.1808 -2.2172 -0.7585
15006SOL    HW247026   8.379   5.737   7.286 -1.0584 -0.1275  1.6654
15007SOL     OW47027   2.004   8.150  10.878  0.3062 -0.4552  0.5308
15007SOL    HW147028   2.059   8.225  10.900 -1.2233  0.7653  0.4080
15007SOL    HW247029   2.011   8.143  10.782 -0.0897  0.0036  0.4609
15008SOL     OW47030   3.308  10.358  11.013 -0.5774 -0.4910  0.0094
15008SOL    HW147031   3.301  10.360  11.108 -0.7177  2.4222  0.0337
15008SOL    HW247032   3.218  10.359  10.982 -0.6125  2.0141 -0.0341
15009SOL     OW47033   8.506   5.180  10.062  0.8111 -0.3871  0.1008
15009SOL    HW147034   8.425   5.162  10.109 -0.1518  1.2175 -0.8428
15009SOL    HW247035   8.574   5.176  10.130  0.0081 -1.9676  0.8639
15010SOL     OW47036   5.716   1.693   5.950  0.1074 -0.1976 -0.2447
15010SOL    HW147037   5.782   1.730   5.891  0.2295 -0.2459 -0.1389
15010SOL    HW247038   5.644   1.666   5.892  0.2715 -0.3422 -0.3816
15011SOL     OW47039   6.040   9.992   4.919 -0.4783  0.1864 -0.1863
15011SOL    HW147040   6.117  10.047   4.930 -1.2954  0.8738  3.6534
15011SOL    HW247041   6.069   9.904   4.942 -0.5122  0.1789 -0.1702
15012SOL     OW47042   1.607   1.169   9.608 -0.1911  0.2942  0.1025
15012SOL    HW147043   1.661   1.199   9.681  1.8241  0.7715 -1.5152
15012SOL    HW247044   1.656   1.097   9.569 -0.9805  0.3727 -1.0914
15013SOL     OW47045   9.051   0.307   4.281 -0.2785 -0.1837  0.6236
15013SOL    HW147046   9.063   0.217   4.249  3.2774  0.2188  0.4028
15013SOL    HW247047   9.072   0.362   4.205  0.5816  0.8092  1.5579
15014SOL     OW47048   9.853  10.398   9.644  0.4430  0.0671 -0.5495
15014SOL    HW147049   9.775  10.396   9.700  0.6834  0.6550 -0.1782
15014SOL    HW247050   9.819  10.410   9.556  0.0925 -0.0570 -0.4307
15015SOL     OW47051   6.032   9.962   0.953  0.4975  0.0593  0.1106
15015SOL    HW147052   6.037   9.899   1.025 -0.0253  2.3869  2.3066
15015SOL    HW247053   6.106  10.020   0.966 -0.3190  1.2715 -0.4815
15016SOL     OW47054   9.647   3.859   8.343 -0.2615  0.4077 -0.1127
15016SOL    HW147055   9.644   3.912   8.263 -0.4618 -0.8810 -0.9936
15016SOL    HW247056   9.559   3.865   8.380 -0.8414 -0.7749 -1.2247
15017SOL     OW47057   1.256   4.898   5.064 -0.3295 -0.1809 -0.6736
15017SOL    HW147058   1.349   4.881   5.047 -0.1443  0.4898 -0.3760
15017SOL    HW247059   1.209   4.843   5.001  0.2828  0.0693 -1.3650
15018SOL     OW47060  10.430  10.849   6.767  0.6426  0.2933  0.1774
15018SOL    HW147061  10.339  10.819   6.767  1.0841 -1.1270  1.1132
15018SOL    HW247062  10.455  10.852   6.860  1.1646  1.9444  0.0199
15019SOL     OW47063   1.508   1.157   3.358 -0.3251 -0.2480  0.2518
15019SOL    HW147064   1.601   1.175   3.370 -0.0758 -1.3816  0.0977
15019SOL    HW247065   1.499   1.063   3.375 -0.9672 -0.7441 -2.3198
15020SOL     OW47066   4.310   6.861   0.693 -0.0786  0.1417  0.5780
15020SOL    HW147067   4.298   6.913   0.772  0.2900 -0.6643  1.1732
15020SOL    HW247068   4.303   6.925   0.621 -0.5396  0.8547  1.2422
15021SOL     OW47069   8.291   8.464  10.253 -0.3007  0.2422 -0.0344
15021SOL    HW147070   8.360   8.528  10.236 -1.5526  2.6480  2.8379
15021SOL    HW247071   8.219   8.516  10.287 -1.6534 -2.6539  1.9589
15022SOL     OW47072   7.237   3.496   9.412  0.3004 -1.4420 -0.8734
15022SOL    HW147073   7.289   3.518   9.489 -0.4989 -0.5162 -0.5701
15022SOL    HW247074   7.189   3.417   9.437  0.7051 -1.6460 -0.7410
15023SOL     OW47075   4.142   5.144   7.642  0.3944 -0.0817 -0.2431
15023SOL    HW147076   4.113   5.056   7.665 -0.3414  0.2144 -0.0114
15023SOL    HW247077   4.100   5.201   7.707 -1.1875  0.7064 -1.8673
15024SOL     OW47078   7.752   6.761   9.421  0.3131 -0.0624 -0.4240
15024SOL    HW147079   7.661   6.778   9.399  0.7698  0.5645 -1.9139
15024SOL    HW247080   7.755   6.668   9.443 -0.4370 -0.4183 -1.7396
15025SOL     OW47081   8.239   9.963   2.821  0.5077  0.2776 -0.2948
15025SOL    HW147082   8.210   9.998   2.737  2.4334  1.4520 -0.5282
15025SOL    HW247083   8.282   9.880   2.798  1.8817  1.0553 -0.6345
15026SOL     OW47084   1.553  10.451   6.766  0.2338 -0.0978  0.1609
15026SOL    HW147085   1.488  10.509   6.805 -0.2589  0.4610 -1.3884
15026SOL    HW247086   1.624  10.447   6.829 -0.3973  0.9658  0.9638
15027SOL     OW47087   5.133  10.026   5.822 -0.8015  0.0338 -0.8012
15027SOL    HW147088   5.204   9.974   5.862 -1.0171 -0.5010 -1.0955
15027SOL    HW247089   5.171  10.112   5.809 -0.6209  0.1280  0.2493
15028SOL     OW47090   6.600   3.150   5.240 -0.2211  0.0546 -0.4967
15028SOL    HW147091   6.566   3.110   5.160  0.2859  1.3116 -1.3771
15028SOL    HW247092   6.659   3.219   5.209 -1.2003  1.6137  0.9441
15029SOL     OW47093   5.162   1.946   4.865  0.6610 -0.4850 -0.0319
15029SOL    HW147094   5.142   1.900   4.783  0.6359  1.0437 -0.9397
15029SOL    HW247095   5.077   1.958   4.907  0.7066 -1.5307  0.3684
15030SOL     OW47096   1.148   4.527   3.109 -0.1595 -0.5051 -0.6834
15030SOL    HW147097   1.192   4.442   3.107  1.0406  0.0984 -0.4972
15030SOL    HW247098   1.173   4.569   3.027 -1.6145 -0.7318 -1.2807
15031SOL     OW47099   8.511   7.928   4.145  0.0867 -0.6852 -0.2579
15031SOL    HW147100   8.488   7.900   4.057 -0.2528 -0.9104 -0.0977
15031SOL    HW247101   8.511   8.024   4.140 -0.2891 -0.6935 -0.4070
15032SOL     OW47102  10.157   3.743   5.443 -0.2142 -0.7109  0.5034
15032SOL    HW147103  10.152   3.655   5.406 -0.0711 -0.6097  0.2381
15032SOL    HW247104  10.231   3.784   5.397 -1.0158 -0.0516 -0.2211
15033SOL     OW47105   2.395   2.878   9.414 -0.0643  0.3892  0.1958
15033SOL    HW147106   2.464   2.817   9.440 -0.5727  0.0886  0.8527
15033SOL    HW247107   2.363   2.915   9.497 -1.1789 -0.0026 -0.0498
15034SOL     OW47108   5.627  10.577   4.226  0.2152  0.2257  0.1288
15034SOL    HW147109   5.551  10.525   4.200  0.2745 -0.0271  0.4539
15034SOL    HW247110   5.694  10.555   4.161 -0.0138  0.5094 -0.2035
15035SOL     OW47111   6.776   6.006   2.439 -0.6401  0.5242  0.6107
15035SOL    HW147112   6.708   6.065   2.406 -1.5831  0.1174  1.7800
15035SOL    HW247113   6.850   6.020   2.380 -1.4531  1.5734 -0.1981
15036SOL     OW47114   8.714   6.845   6.435  0.2548 -0.0922  0.1916
15036SOL    HW147115   8.751   6.933   6.426 -0.7053  0.2466 -0.7299
15036SOL    HW247116   8.782   6.787   6.401  0.7528  0.3199  0.4702
15037SOL     OW47117   1.981   1.344   8.566 -0.2443  0.2845 -0.0045
15037SOL    HW147118   1.953   1.254   8.580  0.5789 -0.0578 -0.5021
15037SOL    HW247119   2.068   1.349   8.604 -1.1960  1.5394  2.2055
15038SOL     OW47120   7.338   5.603   0.055  0.1186  0.4505 -0.3771
15038SOL    HW147121   7.354   5.686   0.010  2.2093 -0.3935 -1.2818
15038SOL    HW247122   7.365   5.620   0.145 -0.6184  1.0772 -0.2591
15039SOL     OW47123   2.354   0.526   0.127  0.0041 -0.0951  0.6038
15039SOL    HW147124   2.413   0.450   0.121 -0.9480 -0.8475  0.6305
15039SOL    HW247125   2.401   0.596   0.081  0.6753 -0.8359  0.1268
15040SOL     OW47126   4.016   6.361   3.931  0.1648 -0.2368  0.3504
15040SOL    HW147127   3.979   6.418   3.999 -0.1623 -0.4708  0.3709
15040SOL    HW247128   3.960   6.376   3.855 -0.2012 -0.8647  0.4872
15041SOL     OW47129   6.301   3.401   6.135 -0.6746  0.2675 -0.2449
15041SOL    HW147130   6.351   3.334   6.087 -1.8807 -1.3381  0.6397
15041SOL    HW247131   6.326   3.388   6.227 -2.6401 -0.5562  0.2118
15042SOL     OW47132   1.123   5.562   9.531 -0.0010  0.0357 -0.1994
15042SOL    HW147133   1.105   5.605   9.448  0.5321 -0.3853 -0.5350
15042SOL    HW247134   1.133   5.634   9.594  2.0582  0.4894 -0.9729
15043SOL     OW47135   9.805   9.341   8.269  0.0828  1.0088  0.2151
15043SOL    HW147136   9.821   9.251   8.240 -0.5189  0.8811  0.2664
15043SOL    HW247137   9.892   9.379   8.280  0.3740  0.0064  1.5659
15044SOL     OW47138   5.548  10.109  10.147 -0.1965 -0.8925 -0.2399
15044SOL    HW147139   5.539  10.197  10.183  1.0851 -1.5770  1.9472
15044SOL    HW247140   5.504  10.053  10.211  0.2390 -1.9890 -0.8739
15045SOL     OW47141   2.126   3.723  10.859  0.1903  0.3162  0.4039
15045SOL    HW147142   2.073   3.645  10.842 -0.7646  1.2197 -0.8597
15045SOL    HW247143   2.208   3.688  10.895  0.2477 -1.3585 -1.2136
15046SOL     OW47144  10.411   6.012   3.829  0.1746 -0.1659  0.3529
15046SOL    HW147145  10.388   6.074   3.760 -0.7721  0.4582  1.2124
15046SOL    HW247146  10.505   5.998   3.818  0.2187  0.6722 -0.4516
15047SOL     OW47147   5.877   3.044   4.185 -0.3524  0.2208 -0.2521
15047SOL    HW147148   5.809   2.977   4.198  0.3449 -0.4090  0.2612
15047SOL    HW247149   5.836   3.108   4.127 -2.0688  0.8549  1.5221
15048SOL     OW47150   1.001   3.574   4.025 -0.7710 -0.2615  0.0471
15048SOL    HW147151   1.029   3.486   4.000  0.1289 -0.3841  1.3635
15048SOL    HW247152   1.020   3.579   4.119 -1.2474  1.1773  0.0862
15049SOL     OW47153   5.831  10.163   6.132  0.2072 -0.1822  0.8923
15049SOL    HW147154   5.892  10.141   6.203  0.5049  0.5755  0.8786
15049SOL    HW247155   5.763  10.215   6.174  1.0115  1.3020  0.4356
15050SOL     OW47156   2.831   6.369  10.755 -0.3485  0.5816 -0.0442
15050SOL    HW147157   2.801   6.286  10.717  0.9709  0.8079 -1.6945
15050SOL    HW247158   2.752   6.422  10.760 -0.5966  0.5761 -2.7083
15051SOL     OW47159   4.887   6.455  10.394  0.2771 -0.0370 -0.3423
15051SOL    HW147160   4.902   6.373  10.347  0.5866  1.0078 -2.2051
15051SOL    HW247161   4.849   6.429  10.477  0.7279 -2.0813 -0.7185
15052SOL     OW47162   4.353   5.575  10.169 -0.3861  0.0222  0.2836
15052SOL    HW147163   4.433   5.531  10.140 -0.1097  0.9310 -0.3640
15052SOL    HW247164   4.378   5.618  10.251  0.6492  2.6096 -1.2513
15053SOL     OW47165   2.718   5.842   2.780 -0.1682  0.0887 -0.1673
15053SOL    HW147166   2.642   5.787   2.800  0.5184 -0.3470  1.3503
15053SOL    HW247167   2.680   5.925   2.749 -1.2273 -0.5862 -0.7483
15054SOL     OW47168   2.468   9.143   1.819 -0.1704  0.1910 -0.2615
15054SOL    HW147169   2.523   9.144   1.897 -0.5029  0.1129 -0.0270
15054SOL    HW247170   2.455   9.236   1.799 -2.8639  0.3455  1.7468
15055SOL     OW47171   8.950   2.335   4.615 -0.3206  0.2757 -0.1273
15055SOL    HW147172   8.940   2.297   4.703  1.0269  1.8039  0.7350
15055SOL    HW247173   8.868   2.313   4.570 -1.5074  0.3906  1.8611
15056SOL     OW47174   9.237   8.053   8.636  0.1675 -0.2350 -0.0578
15056SOL    HW147175   9.253   8.053   8.730 -0.1538 -2.2010  0.0361
15056SOL    HW247176   9.151   8.012   8.626  1.1728 -2.1703 -1.3113
15057SOL     OW47177  10.316   1.139   7.386 -1.1912  0.1135  0.0472
15057SOL    HW147178  10.395   1.137   7.333 -2.0682 -0.5921 -1.3140
15057SOL    HW247179  10.317   1.057   7.435 -1.2122 -0.0442 -0.2105
15058SOL     OW47180   1.828   6.895   2.256 -0.0944 -0.6350  0.0769
15058SOL    HW147181   1.886   6.911   2.330  0.0737  0.4423 -0.2750
15058SOL    HW247182   1.867   6.819   2.211  0.1013 -0.9489  0.7702
15059SOL     OW47183   9.773   5.896   7.672 -0.7894  0.1727 -0.2126
15059SOL    HW147184   9.717   5.964   7.709  0.0891  1.2168 -0.7309
15059SOL    HW247185   9.829   5.943   7.610  0.7221 -0.8081  0.3587
15060SOL     OW47186   4.617   9.594  10.145  0.2158 -0.4820  0.2768
15060SOL    HW147187   4.626   9.580  10.051  2.2873 -1.0607  0.4915
15060SOL    HW247188   4.559   9.669  10.153  0.9762  0.3662 -1.5219
15061SOL     OW47189   3.557   3.668   8.247  0.1182  0.1087 -0.0440
15061SOL    HW147190   3.513   3.635   8.168  1.4210 -1.0032 -0.3584
15061SOL    HW247191   3.491   3.661   8.316 -1.0883  1.2131 -1.0348
15062SOL     OW47192   8.719   6.043   0.635  0.6427 -0.4020 -0.0697
15062SOL    HW147193   8.630   6.052   0.669  1.1395  1.4427  0.8693
15062SOL    HW247194   8.773   6.023   0.711  1.2497  0.0686 -0.3653
15063SOL     OW47195   4.176   2.318   5.783  0.2363 -0.0029  0.2005
15063SOL    HW147196   4.176   2.225   5.806 -0.8601 -0.0583  0.0200
15063SOL    HW247197   4.092   2.351   5.816  0.5578  0.8986  0.1493
15064SOL     OW47198   6.277   2.767   0.586 -0.3373  0.2970  0.0954
15064SOL    HW147199   6.354   2.798   0.633  0.0205  1.8274 -1.4015
15064SOL    HW247200   6.207   2.826   0.613 -0.9482 -0.8589  1.1661
15065SOL     OW47201   5.645   4.209  11.018  0.3309  0.4643 -0.2762
15065SOL    HW147202   5.718   4.194  11.078  1.3134  1.1445 -1.2597
15065SOL    HW247203   5.634   4.126  10.972 -0.0311  0.1256  0.4168
15066SOL     OW47204   1.369   1.089   9.946  0.2032 -0.8375 -0.3155
15066SOL    HW147205   1.435   1.105  10.014  1.0702 -1.7453 -0.9179
15066SOL    HW247206   1.292   1.058   9.995  0.5135 -0.6247  0.3224
15067SOL     OW47207   2.374  10.704  10.927  0.8275  0.2262  0.1436
15067SOL    HW147208   2.311  10.726  10.996  0.1639  0.5339 -0.5501
15067SOL    HW247209   2.435  10.778  10.925 -0.4053  1.2555 -1.0296
15068SOL     OW47210   3.450   4.336   7.017 -0.5710  0.4905 -0.1277
15068SOL    HW147211   3.498   4.417   7.002  0.1416  0.0220 -0.4367
15068SOL    HW247212   3.380   4.337   6.952  1.0339 -0.3740 -1.9441
15069SOL     OW47213   7.567   8.495   4.247 -0.4127  0.0133  0.1687
15069SOL    HW147214   7.652   8.452   4.250 -0.1611  0.5551  1.9430
15069SOL    HW247215   7.509   8.437   4.297 -1.1938 -0.5047 -1.2714
15070SOL     OW47216   6.953   0.647   7.781  0.2194  0.4074 -0.3461
15070SOL    HW147217   7.023   0.664   7.844  0.8131 -0.9757 -0.6064
15070SOL    HW247218   6.908   0.731   7.773 -0.3999  0.4356  2.5144
15071SOL     OW47219   1.026   0.407  11.002 -0.4964 -0.2918  0.5614
15071SOL    HW147220   1.119   0.382  11.002 -0.2764  0.5217  0.3848
15071SOL    HW247221   0.992   0.372  10.920 -0.1125  0.2633  0.1619
15072SOL     OW47222   5.047  10.950   5.053 -0.0408  0.3493 -0.4346
15072SOL    HW147223   4.987  10.894   5.004 -0.9973  0.1642  0.8894
15072SOL    HW247224   5.055  10.908   5.139  2.0187  0.3629 -0.5760
15073SOL     OW47225   4.977   0.173   3.989  0.1241 -0.3088 -0.5063
15073SOL    HW147226   5.042   0.179   3.919  0.9258  1.2985  0.3418
15073SOL    HW247227   5.001   0.242   4.051 -1.2544 -0.9414  0.7911
15074SOL     OW47228   1.672   2.408   6.235 -0.6953  0.6122 -0.1297
15074SOL    HW147229   1.593   2.384   6.187 -0.0740 -1.1932 -0.3128
15074SOL    HW247230   1.744   2.386   6.176 -0.0141  1.5587  0.3133
15075SOL     OW47231   6.395   2.761   6.368  0.1696 -0.7715  0.4355
15075SOL    HW147232   6.330   2.823   6.402 -0.7361 -0.6975 -1.3290
15075SOL    HW247233   6.348   2.678   6.363  0.0128 -0.6118 -1.3119
15076SOL     OW47234   0.862   8.645   6.342 -0.4602 -0.4630  0.0547
15076SOL    HW147235   0.882   8.614   6.431  0.3156 -1.4229 -0.4336
15076SOL    HW247236   0.911   8.586   6.285 -0.2834  0.6553 -0.9879
15077SOL     OW47237   6.928  10.744   4.961  0.0712 -0.1651  0.2811
15077SOL    HW147238   6.856  10.756   4.899 -1.0041  0.0301  1.5356
15077SOL    HW247239   6.988  10.684   4.916 -0.3341  0.5039 -1.2130
15078SOL     OW47240   7.119   8.621  10.365 -0.6791 -0.1312 -0.2103
15078SOL    HW147241   7.135   8.528  10.381 -0.4556  0.0752  0.8146
15078SOL    HW247242   7.032   8.637  10.401 -0.5768  0.1278 -0.0751
15079SOL     OW47243   2.488   2.174  10.024 -0.1042 -0.0517  0.2760
15079SOL    HW147244   2.534   2.250   9.990  0.3334 -0.0887  0.7786
15079SOL    HW247245   2.470   2.120   9.947  1.2686 -0.3443  0.1519
15080SOL     OW47246   6.072   4.919   5.183 -0.1254 -0.6363  0.6901
15080SOL    HW147247   6.001   4.968   5.142 -1.8412 -2.7522  0.9362
15080SOL    HW247248   6.121   4.881   5.110  0.5394  0.4932  0.5296
15081SOL     OW47249   3.017   3.664   6.278 -0.2870  0.1881  0.0469
15081SOL    HW147250   2.959   3.715   6.335 -0.3208  0.0271  0.1563
15081SOL    HW247251   3.044   3.589   6.331  0.8790  0.8085  0.3796
15082SOL     OW47252   2.653   6.132   0.480  0.1538  0.2867 -0.5587
15082SOL    HW147253   2.569   6.116   0.437 -0.4618 -0.7118  0.9418
15082SOL    HW247254   2.680   6.046   0.512  1.8416  0.5717 -1.1205
15083SOL     OW47255   1.120   8.995   5.273  0.0397 -0.0066  0.2499
15083SOL    HW147256   1.113   9.031   5.362 -2.8423  0.8945 -0.2431
15083SOL    HW247257   1.071   8.913   5.276 -1.2546  0.6872 -0.7642
15084SOL     OW47258   4.414   6.010   9.837 -0.1424  0.2240  0.5651
15084SOL    HW147259   4.478   6.057   9.890 -0.0994  0.6534  0.1475
15084SOL    HW247260   4.389   5.935   9.889  0.5494  0.1672  0.8239
15085SOL     OW47261   0.570   5.047   0.308 -0.2991 -0.0126 -0.0353
15085SOL    HW147262   0.590   4.954   0.302 -0.9335 -0.0858 -1.1938
15085SOL    HW247263   0.517   5.055   0.387 -0.2869 -0.6417  0.0408
15086SOL     OW47264   1.890   7.345   4.360  0.8099 -0.2226 -0.6457
15086SOL    HW147265   1.799   7.364   4.339  1.0852 -0.0338 -1.7303
15086SOL    HW247266   1.896   7.250   4.361  0.9677 -0.2518 -2.3286
15087SOL     OW47267   2.757   1.900   1.935  0.3120 -0.3972 -0.0642
15087SOL    HW147268   2.851   1.882   1.929  0.6929  1.2280  0.5794
15087SOL    HW247269   2.747   1.988   1.898 -1.0339 -0.7171 -0.5188
15088SOL     OW47270   3.654   8.215   6.013 -0.2983  0.1523 -1.0244
15088SOL    HW147271   3.699   8.183   5.935  2.1054 -1.2372  0.7735
15088SOL    HW247272   3.652   8.311   6.002 -0.8792 -0.0492 -3.1339
15089SOL     OW47273   3.662   2.762   6.357 -0.3974 -0.3722 -0.4860
15089SOL    HW147274   3.668   2.847   6.402 -0.5413 -0.1105 -0.9596
15089SOL    HW247275   3.617   2.706   6.420  0.5272 -0.3655  0.2093
15090SOL     OW47276   3.965   0.665   3.024  0.6669  0.0455 -0.4031
15090SOL    HW147277   3.879   0.703   3.039  0.2562 -1.0000 -0.0669
15090SOL    HW247278   4.010   0.729   2.968 -1.0776 -0.3905 -2.4416
15091SOL     OW47279   2.105   6.458   8.011 -0.1312 -0.4387 -0.3887
15091SOL    HW147280   2.120   6.479   7.919 -1.8263  0.9651 -0.3822
15091SOL    HW247281   2.056   6.375   8.009 -3.0464  1.1591 -0.9973
15092SOL     OW47282   5.211   3.518   4.319 -0.5750  0.2208  0.0322
15092SOL    HW147283   5.163   3.451   4.270  0.1153 -0.6999  0.5758
15092SOL    HW247284   5.251   3.470   4.392 -0.6824  1.3668  0.8695
15093SOL     OW47285   4.695   9.202   7.175  1.0089 -0.4118 -0.3247
15093SOL    HW147286   4.731   9.276   7.126  1.4327  0.8867  1.8380
15093SOL    HW247287   4.771   9.156   7.208  0.7267 -0.2539  0.5568
15094SOL     OW47288  10.550   3.041  10.559 -0.0474 -0.9250  0.5470
15094SOL    HW147289  10.514   3.057  10.646  1.5879 -1.0895  1.2960
15094SOL    HW247290  10.598   3.121  10.538  0.9550 -1.5012  0.5476
15095SOL     OW47291   9.772   1.691   8.225  0.3225 -0.1655 -0.2105
15095SOL    HW147292   9.808   1.666   8.310  0.9820 -0.9150 -0.6998
15095SOL    HW247293   9.685   1.651   8.222  0.1213  0.2239  0.2751
15096SOL     OW47294   4.223   6.432   0.717  0.1149  0.2993 -0.0710
15096SOL    HW147295   4.254   6.382   0.792  0.0632  1.4312  0.7286
15096SOL    HW247296   4.290   6.498   0.702 -0.5564  0.9957 -0.0897
15097SOL     OW47297   0.438   9.747   7.727 -0.1999 -0.2127 -0.4696
15097SOL    HW147298   0.430   9.839   7.700 -0.4024 -0.1266 -0.1185
15097SOL    HW247299   0.530   9.725   7.710 -0.5894 -0.5179 -2.3513
15098SOL     OW47300   4.872   2.935   0.750  0.4359  0.1936 -0.1610
15098SOL    HW147301   4.964   2.942   0.778  0.5211  0.0042 -0.3839
15098SOL    HW247302   4.863   3.001   0.681  1.5737 -2.4388 -3.1377
15099SOL     OW47303   3.826  10.171   7.829  0.0475 -0.1454  0.3991
15099SOL    HW147304   3.775  10.182   7.909  2.0274 -0.1044  1.7487
15099SOL    HW247305   3.794  10.089   7.791 -1.9345  0.5797  0.4012
15100SOL     OW47306   5.941   9.142   6.150  0.0451  0.1145 -0.0770
15100SOL    HW147307   5.991   9.061   6.158  0.7567  0.5695  0.2190
15100SOL    HW247308   5.849   9.114   6.152  0.1690 -0.5068  2.9174
15101SOL     OW47309   2.768   3.314   9.865  0.2131 -0.4952  0.1551
15101SOL    HW147310   2.740   3.308   9.956 -2.4350  1.7773 -0.3668
15101SOL    HW247311   2.745   3.229   9.827 -0.2436 -0.8651  1.2245
15102SOL     OW47312   8.495   1.574   1.162 -0.2048  0.1414 -0.2363
15102SOL    HW147313   8.490   1.655   1.214  0.8363  0.0600  0.0222
15102SOL    HW247314   8.588   1.563   1.145 -0.4795 -0.1273 -1.6914
15103SOL     OW47315   5.046   7.444   9.549  0.3945 -0.6257 -0.2556
15103SOL    HW147316   5.100   7.372   9.515 -0.8267 -1.5353 -0.3268
15103SOL    HW247317   4.956   7.412   9.541 -0.0771  0.1057  1.5654
15104SOL     OW47318   2.026   6.658   2.872 -0.4942 -0.0051  0.0701
15104SOL    HW147319   2.120   6.672   2.887 -0.5168  0.2469 -0.0233
15104SOL    HW247320   2.009   6.698   2.787 -0.9704  1.1724  0.7081
15105SOL     OW47321   4.489   7.242   9.163  0.5535  0.6357  0.0463
15105SOL    HW147322   4.582   7.242   9.138  0.3822  0.4378 -0.5943
15105SOL    HW247323   4.481   7.169   9.225  0.6476  0.1026 -0.5671
15106SOL     OW47324   4.009  10.475   4.924  0.0395 -0.2439  0.7303
15106SOL    HW147325   4.013  10.427   5.006 -0.2148  0.2279  1.0239
15106SOL    HW247326   4.026  10.409   4.857  1.0715 -0.4788  1.1995
15107SOL     OW47327   4.986  10.779   6.563  0.0407  0.2914 -0.1253
15107SOL    HW147328   5.060  10.803   6.619 -0.4972  0.5162  0.4988
15107SOL    HW247329   5.008  10.692   6.530  0.6203  0.3893 -0.0018
15108SOL     OW47330  10.939   2.487   6.881  0.4314 -0.8165 -0.3957
15108SOL    HW147331  10.971   2.494   6.791 -0.7052 -0.9124 -0.8152
15108SOL    HW247332  10.849   2.518   6.877  0.5680 -0.1977  0.8390
15109SOL     OW47333   4.974   3.288  10.672  0.3276 -0.3789 -0.0515
15109SOL    HW147334   4.954   3.353  10.739 -1.6945 -1.2612  0.2722
15109SOL    HW247335   4.940   3.325  10.590  2.2840  0.4433 -0.5589
15110SOL     OW47336   4.025   0.429   5.390 -0.3114  0.5366  0.2710
15110SOL    HW147337   3.990   0.500   5.335 -0.1020 -0.8201 -1.7043
15110SOL    HW247338   4.119   0.446   5.392 -0.2419  0.2223 -0.3348
15111SOL     OW47339   6.690   5.857   4.019 -0.5100  0.2253  0.5165
15111SOL    HW147340   6.666   5.925   3.956  0.6173  0.6730  0.5439
15111SOL    HW247341   6.644   5.880   4.100 -1.4558  0.0033  0.0522
15112SOL     OW47342   9.080  10.534   8.732  0.3399  0.3359  0.3487
15112SOL    HW147343   9.092  10.626   8.710  0.0106  0.0382 -1.2114
15112SOL    HW247344   9.132  10.487   8.666  0.4154 -0.5973  1.0567
15113SOL     OW47345   3.789   1.992   1.569  0.3729 -0.5445  0.8524
15113SOL    HW147346   3.855   2.058   1.588 -0.7155  0.7630  0.2274
15113SOL    HW247347   3.803   1.969   1.477  0.2547 -0.6025  0.8482
15114SOL     OW47348   5.415   6.561   4.689  0.4283 -0.1971  0.4427
15114SOL    HW147349   5.398   6.499   4.759 -0.0199  0.2129  0.7004
15114SOL    HW247350   5.493   6.526   4.645 -1.4384 -2.5952 -1.2621
15115SOL     OW47351   1.821   2.575   7.235  0.1849  0.4398 -0.1514
15115SOL    HW147352   1.753   2.509   7.242  0.9382 -0.3558 -0.2271
15115SOL    HW247353   1.802   2.637   7.305  2.4607 -2.6042  3.5436
15116SOL     OW47354  10.142   9.004   9.040  0.2678 -0.2291 -0.1834
15116SOL    HW147355  10.210   8.984   9.105 -0.7347  0.0121  0.9777
15116SOL    HW247356  10.149   9.098   9.025  1.5760 -0.5371 -1.7042
15117SOL     OW47357   6.448   8.171   2.013  0.6238  0.4610 -0.5263
15117SOL    HW147358   6.502   8.097   2.041 -0.9065 -0.3310  0.4152
15117SOL    HW247359   6.412   8.206   2.094  0.4704  1.5787 -1.0687
15118SOL     OW47360   8.247   1.718   0.446 -0.2252 -0.2649 -0.2866
15118SOL    HW147361   8.338   1.687   0.451  0.4393  1.7720  2.4113
15118SOL    HW247362   8.239   1.752   0.357  0.6128 -3.1284 -1.6062
15119SOL     OW47363   6.058  10.483   5.527  0.0291 -0.2260  0.1658
15119SOL    HW147364   6.067  10.501   5.433 -0.4488 -0.9414 -0.0180
15119SOL    HW247365   6.013  10.560   5.562  0.8512  0.3697 -0.0584
15120SOL     OW47366  10.874   1.810   4.648 -0.1532 -0.4049  0.2362
15120SOL    HW147367  10.803   1.825   4.585 -0.4923 -0.1822  0.6663
15120SOL    HW247368  10.829   1.793   4.731  0.2995  0.0603  0.5794
15121SOL     OW47369  10.312   8.450   2.250  0.2150  0.1275 -0.7288
15121SOL    HW147370  10.219   8.453   2.232  0.2538  1.1805 -0.8201
15121SOL    HW247371  10.342   8.368   2.210 -0.4631  0.3250 -1.6726
15122SOL     OW47372   1.303  10.748   9.677  0.3826 -0.7772 -0.3494
15122SOL    HW147373   1.279  10.718   9.590  2.7751 -1.9280 -0.7187
15122SOL    HW247374   1.363  10.821   9.662 -2.1279  1.6118  0.4920
15123SOL     OW47375   0.917   0.547  10.362  0.2908  0.0222  0.4482
15123SOL    HW147376   0.831   0.577  10.333  0.3661  0.2862  0.4981
15123SOL    HW247377   0.923   0.457  10.330  0.9905  0.7731 -1.7338
15124SOL     OW47378   9.680   7.108   4.763  0.2479  0.3676 -0.1228
15124SOL    HW147379   9.659   7.015   4.765 -1.4934  0.6178 -2.4330
15124SOL    HW247380   9.689   7.133   4.855 -2.7126 -1.3702  0.7642
15125SOL     OW47381   3.605   8.796   1.291 -0.5582  0.4984 -0.4022
15125SOL    HW147382   3.560   8.731   1.238 -2.2504 -1.7179  3.3500
15125SOL    HW247383   3.535   8.851   1.327  0.1727  0.3206  1.4202
15126SOL     OW47384   1.901   6.688   0.065  0.3513  0.6231  0.2003
15126SOL    HW147385   1.920   6.639   0.144 -1.4821 -1.7759 -0.7159
15126SOL    HW247386   1.952   6.645  -0.004  0.1353  1.1790 -0.3223
15127SOL     OW47387   2.695   1.506  10.355  0.0467  0.1744 -0.4377
15127SOL    HW147388   2.678   1.435  10.293  0.8688  1.5536 -2.3566
15127SOL    HW247389   2.613   1.556  10.358  0.1750  0.4178 -0.8715
15128SOL     OW47390   0.494   7.593   3.073  0.7309  0.0572 -0.4651
15128SOL    HW147391   0.507   7.560   3.162 -0.6906 -0.6464 -0.4910
15128SOL    HW247392   0.550   7.539   3.018  0.2306 -0.7191 -0.2138
15129SOL     OW47393   6.822  10.193  10.498 -0.4422  0.0017  0.1325
15129SOL    HW147394   6.738  10.213  10.456 -0.9222 -1.4532  0.3376
15129SOL    HW247395   6.887  10.240  10.446 -1.1727 -0.5738 -1.3514
15130SOL     OW47396   0.272  10.897  10.840 -0.1680 -0.1901  0.0279
15130SOL    HW147397   0.231  10.984  10.834  0.3488 -0.0134 -1.2748
15130SOL    HW247398   0.344  10.900  10.777  0.8795 -1.0283  1.1352
15131SOL     OW47399   1.444   3.279   9.380 -0.4880  0.0347  0.3289
15131SOL    HW147400   1.477   3.192   9.359  1.6261  0.2316  2.4237
15131SOL    HW247401   1.413   3.314   9.296  1.9815 -1.3656 -1.2887
15132SOL     OW47402   3.608   5.967   1.210  0.1486 -0.1856 -0.3180
15132SOL    HW147403   3.566   5.940   1.129  0.8287 -2.2605 -0.0352
15132SOL    HW247404   3.665   5.894   1.234  0.5890  0.7034  1.6064
15133SOL     OW47405   4.019   6.200   2.470 -1.0156 -0.0783  0.9261
15133SOL    HW147406   4.027   6.115   2.428  1.2509  0.7734 -0.5440
15133SOL    HW247407   4.077   6.196   2.545 -1.6933 -0.1369  1.4598
15134SOL     OW47408   3.539   2.722   8.824 -0.0651 -0.7105  0.5494
15134SOL    HW147409   3.461   2.753   8.778  1.3882  1.5281 -0.5856
15134SOL    HW247410   3.591   2.677   8.757  1.6953  1.8800  0.0183
15135SOL     OW47411   3.564   3.771   8.587 -1.0449 -0.0792  0.0552
15135SOL    HW147412   3.522   3.802   8.507 -0.9962 -1.4310 -0.5206
15135SOL    HW247413   3.544   3.838   8.652 -2.8745  0.0207 -0.5554
15136SOL     OW47414   5.688   2.559   8.403  0.1902  0.0833  0.2767
15136SOL    HW147415   5.659   2.477   8.363  1.0373  0.8542 -2.0287
15136SOL    HW247416   5.769   2.536   8.449  0.1458 -0.4759  0.0776
15137SOL     OW47417   2.907   9.723   7.741  0.0005  0.4666 -0.3865
15137SOL    HW147418   2.995   9.748   7.715  0.0817 -0.6264 -1.2479
15137SOL    HW247419   2.866   9.804   7.771  1.2847  0.9871  0.0109
15138SOL     OW47420   0.846   8.288   0.769  0.0494  0.4132  0.1595
15138SOL    HW147421   0.875   8.315   0.856  0.0045  0.3171  0.2046
15138SOL    HW247422   0.867   8.362   0.712 -0.6384  0.7936  0.3943
15139SOL     OW47423   2.566   8.822   9.753 -0.0109 -0.4017 -0.2686
15139SOL    HW147424   2.608   8.789   9.674 -1.0263 -1.4732 -0.3913
15139SOL    HW247425   2.627   8.888   9.787  1.0893 -0.9153 -1.1771
15140SOL     OW47426   8.183   0.525  10.498 -0.4225  0.0042  0.0255
15140SOL    HW147427   8.256   0.469  10.523 -0.5207 -0.5954 -0.9898
15140SOL    HW247428   8.105   0.469  10.505 -0.4871 -0.0967 -1.2681
15141SOL     OW47429   1.278   5.644   7.914 -0.3506 -0.6042 -0.2153
15141SOL    HW147430   1.336   5.673   7.985 -2.7521 -0.9641  2.0314
15141SOL    HW247431   1.220   5.719   7.899 -1.0066 -1.1719 -0.5384
15142SOL     OW47432   2.580   6.535   9.759 -0.3202 -0.0974 -0.0212
15142SOL    HW147433   2.500   6.577   9.729  0.2410 -0.2911 -1.9088
15142SOL    HW247434   2.586   6.558   9.852 -0.3635  3.5381 -0.7542
15143SOL     OW47435   1.781   5.248  10.291  0.3088 -0.2784  0.0194
15143SOL    HW147436   1.732   5.325  10.319 -0.2062 -0.3688 -0.6117
15143SOL    HW247437   1.735   5.174  10.329  0.4635 -0.3106  0.1459
15144SOL     OW47438   0.918   4.117   6.385  0.2544  0.3570  0.0647
15144SOL    HW147439   0.909   4.036   6.436  2.4257 -0.5031 -0.7897
15144SOL    HW247440   0.997   4.158   6.419 -0.2504  1.6231 -0.2342
15145SOL     OW47441   7.343   3.301   5.392 -0.1040 -0.1723 -0.0135
15145SOL    HW147442   7.286   3.362   5.439  0.5050 -0.3827  1.0478
15145SOL    HW247443   7.352   3.339   5.305 -1.6452 -0.0028 -0.1357
15146SOL     OW47444   3.983   2.914   5.540 -0.6411 -0.1237 -0.6423
15146SOL    HW147445   4.061   2.966   5.523 -2.5156  4.0000  1.9531
15146SOL    HW247446   3.911   2.966   5.506 -2.4837 -3.4292 -2.2749
15147SOL     OW47447   6.563   6.430   4.954  0.4321 -0.5455  0.2840
15147SOL    HW147448   6.521   6.387   5.029 -0.3139 -2.7316 -1.2574
15147SOL    HW247449   6.656   6.424   4.972  0.3410 -2.6451  0.3004
15148SOL     OW47450   5.719   1.084   0.033  0.1253  0.8924  0.1454
15148SOL    HW147451   5.725   1.153  -0.033  0.9346  2.4503  1.7506
15148SOL    HW247452   5.809   1.052   0.043  0.0436  0.8002  0.6144
15149SOL     OW47453   0.807   1.124  10.677 -0.5866  0.1131 -0.2268
15149SOL    HW147454   0.753   1.055  10.640 -1.2087  0.4780 -0.0121
15149SOL    HW247455   0.818   1.100  10.769  0.2316 -0.3378 -0.4316
15150SOL     OW47456   6.953   9.148   1.627  0.3190 -0.5287 -0.1345
15150SOL    HW147457   7.034   9.186   1.662  0.8185 -0.9049 -0.8512
15150SOL    HW247458   6.909   9.111   1.703  0.2717  0.6542  0.4368
15151SOL     OW47459   8.501   8.181   0.478 -0.1550 -0.5897  0.0130
15151SOL    HW147460   8.417   8.224   0.493 -0.6812 -1.2810 -0.8363
15151SOL    HW247461   8.564   8.253   0.471 -0.7827 -0.0336  0.0091
15152SOL     OW47462   8.340   7.447   7.731  0.1263 -0.0905 -0.5311
15152SOL    HW147463   8.309   7.510   7.666 -2.0484 -0.2462  0.2377
15152SOL    HW247464   8.324   7.491   7.815 -1.0975 -1.4807  0.0015
15153SOL     OW47465   6.890   1.661   0.093  0.4330  0.9756 -0.6249
15153SOL    HW147466   6.919   1.736   0.041  0.9907  2.1843  1.3005
15153SOL    HW247467   6.812   1.694   0.139  0.3617  0.1921 -0.1723
15154SOL     OW47468   6.845   2.518   4.047  0.6603  0.3276  0.0503
15154SOL    HW147469   6.836   2.428   4.081  0.3694  0.3624  0.0660
15154SOL    HW247470   6.755   2.548   4.035  0.7625  0.1752 -1.1486
15155SOL     OW47471   5.071   7.903   3.279 -0.5262 -0.6441 -0.7215
15155SOL    HW147472   5.090   7.895   3.185  1.6043  0.4181 -0.4318
15155SOL    HW247473   5.156   7.892   3.322 -1.3280 -0.2872  1.0534
15156SOL     OW47474   0.675   7.179   0.298  0.1151 -0.2132  0.0177
15156SOL    HW147475   0.618   7.218   0.232 -0.5870 -0.7083  0.3257
15156SOL    HW247476   0.697   7.093   0.261 -0.6068 -0.6567  0.6051
15157SOL     OW47477   5.761   2.028   4.913  0.3068 -0.6662  0.0240
15157SOL    HW147478   5.793   2.008   5.001  0.1146 -1.3333 -0.0503
15157SOL    HW247479   5.824   2.090   4.878  1.0874 -1.3538  0.1739
15158SOL     OW47480   5.319  10.862   1.256 -0.0293  0.6274 -0.0627
15158SOL    HW147481   5.382  10.883   1.325  0.6710  0.0853 -0.5266
15158SOL    HW247482   5.345  10.915   1.182 -0.1074  0.3919 -0.2628
15159SOL     OW47483   3.035  10.608   8.273  0.1346 -0.2173 -0.0189
15159SOL    HW147484   2.968  10.616   8.341  1.4115 -0.6710  1.3473
15159SOL    HW247485   3.063  10.517   8.276  1.4645  0.1689  0.0979
15160SOL     OW47486   0.070   9.654   1.668  0.4074  0.5747 -0.4878
15160SOL    HW147487   0.127   9.630   1.741  0.6090  0.1927 -0.7692
15160SOL    HW247488  -0.002   9.703   1.709  0.2332 -0.0994  0.0351
15161SOL     OW47489   4.506   8.861   3.045 -0.3302 -0.1019  0.0885
15161SOL    HW147490   4.421   8.829   3.073 -0.5890  0.0356 -0.5319
15161SOL    HW247491   4.513   8.836   2.953  0.6184 -0.7798  0.3269
15162SOL     OW47492   5.205  10.034   2.189 -0.0126 -0.0080  0.1368
15162SOL    HW147493   5.141   9.996   2.250  0.7510 -0.8153  0.4388
15162SOL    HW247494   5.172  10.010   2.102 -0.4793  0.1671  0.2577
15163SOL     OW47495   0.548   6.867   9.650 -0.1136  0.2620  0.2315
15163SOL    HW147496   0.510   6.946   9.613 -0.6310  0.2643  0.7591
15163SOL    HW247497   0.630   6.855   9.601 -1.0831 -0.1153 -1.3766
15164SOL     OW47498   5.238   9.654   2.133  0.0752  0.1302 -0.4794
15164SOL    HW147499   5.183   9.592   2.181 -0.0709  2.1976  2.3212
15164SOL    HW247500   5.315   9.666   2.189  0.8238  1.3177 -1.6856
15165SOL     OW47501  10.795   6.319   8.548 -0.5959  0.4254 -0.3655
15165SOL    HW147502  10.879   6.365   8.556 -0.0228 -0.7965  1.3725
15165SOL    HW247503  10.809   6.256   8.477 -0.1984  0.5641 -0.4129
15166SOL     OW47504   9.526   1.669   9.780 -0.1496 -0.5181 -0.2628
15166SOL    HW147505   9.492   1.724   9.850  1.1798  2.5324 -1.8418
15166SOL    HW247506   9.619   1.659   9.800 -0.3418 -2.2166 -0.0661
15167SOL     OW47507   2.152   7.515  10.927 -0.3884 -0.0913  0.2259
15167SOL    HW147508   2.175   7.605  10.905  0.2480 -0.3686 -0.3145
15167SOL    HW247509   2.148   7.470  10.842  0.0218 -0.7284  0.5313
15168SOL     OW47510   9.748   4.839   5.572 -0.0749 -1.3902  0.1755
15168SOL    HW147511   9.779   4.836   5.482  0.7945 -1.5650  0.4743
15168SOL    HW247512   9.657   4.808   5.567  0.1365 -1.9264 -0.5658
15169SOL     OW47513   8.223   4.451   8.713 -0.0425 -0.1287  0.1320
15169SOL    HW147514   8.299   4.508   8.705 -0.6544  0.6087 -0.6407
15169SOL    HW247515   8.240   4.398   8.791  1.4276 -0.2538 -0.2581
15170SOL     OW47516   9.874   9.351   5.502  0.0438  0.2062  0.4900
15170SOL    HW147517   9.805   9.377   5.441  0.9788 -1.1141 -1.2167
15170SOL    HW247518   9.913   9.434   5.530 -2.0692  0.9856  1.3935
15171SOL     OW47519   0.245   7.019   0.849 -0.1996  0.4240  0.2377
15171SOL    HW147520   0.198   6.937   0.836 -0.7820  0.6969  0.5939
15171SOL    HW247521   0.250   7.059   0.762  0.2578 -0.0686  0.0273
15172SOL     OW47522   0.686   0.210  10.876  0.2225  0.7560 -0.6735
15172SOL    HW147523   0.659   0.254  10.957 -3.9687 -1.3740 -0.6438
15172SOL    HW247524   0.743   0.139  10.905  1.1375  1.7510  0.0301
15173SOL     OW47525   8.561   0.230   3.223  0.8211  0.4308 -0.3807
15173SOL    HW147526   8.656   0.229   3.214  0.8377 -0.4055 -0.2092
15173SOL    HW247527   8.531   0.160   3.164  0.3543  0.3481 -0.0493
15174SOL     OW47528   1.245   7.001   7.288  0.1359 -0.0257  0.1116
15174SOL    HW147529   1.173   7.044   7.334 -0.3220 -0.2059 -0.4213
15174SOL    HW247530   1.219   7.001   7.196  0.9414  0.1415 -0.1268
15175SOL     OW47531   7.859   2.396   5.973  0.0675 -0.0596 -0.8159
15175SOL    HW147532   7.819   2.471   5.928 -0.5362  0.1698  0.0686
15175SOL    HW247533   7.801   2.323   5.953 -0.0647 -0.0088 -0.6275
15176SOL     OW47534   2.463   7.019   4.510  0.3050 -0.5154 -0.1206
15176SOL    HW147535   2.467   6.939   4.562  0.9798  0.9429  2.2338
15176SOL    HW247536   2.519   7.002   4.434  0.9570 -2.0351  0.6665
15177SOL     OW47537   3.183   2.829   9.617  0.0149 -0.2627  0.5308
15177SOL    HW147538   3.238   2.907   9.606 -0.1653  0.0141  1.4846
15177SOL    HW247539   3.241   2.764   9.655  0.1396 -0.5786 -0.1757
15178SOL     OW47540   0.823   4.886   3.556 -0.6617 -0.1131  0.3351
15178SOL    HW147541   0.902   4.923   3.595 -0.6489 -0.1944  0.3865
15178SOL    HW247542   0.804   4.809   3.609 -0.1769 -0.6917 -0.3049
15179SOL     OW47543  10.173   6.526   4.077  0.1077 -0.2623 -0.0154
15179SOL    HW147544  10.199   6.557   4.164  0.6329 -1.4176  0.2682
15179SOL    HW247545  10.081   6.552   4.068  0.6175  1.7169 -0.0020
15180SOL     OW47546   1.934   6.737   2.619  1.0436 -0.2206  0.5538
15180SOL    HW147547   1.997   6.799   2.583  1.1424  0.2577  1.5151
15180SOL    HW247548   1.856   6.747   2.563  1.0145  0.8652  0.7546
15181SOL     OW47549   0.735   4.266   5.661 -0.0067 -0.0235 -0.6548
15181SOL    HW147550   0.772   4.351   5.636  0.0167  0.4450  0.9175
15181SOL    HW247551   0.806   4.204   5.644  0.1972  0.3449 -1.2017
15182SOL     OW47552   3.857   7.561   7.098  0.4878  1.2162 -0.4144
15182SOL    HW147553   3.910   7.636   7.126 -0.1311  1.1629  0.9638
15182SOL    HW247554   3.868   7.497   7.168  1.1036 -0.0553 -1.6221
15183SOL     OW47555   3.377   3.156   2.619 -0.0498  0.0209  0.4165
15183SOL    HW147556   3.311   3.211   2.577 -0.6299 -1.4097 -0.6531
15183SOL    HW247557   3.333   3.120   2.696 -0.0680  0.1388  0.4609
15184SOL     OW47558   7.281   5.270   4.711 -0.4884 -0.9258 -0.5421
15184SOL    HW147559   7.291   5.182   4.748  0.4992 -0.7247 -0.3169
15184SOL    HW247560   7.193   5.270   4.673 -0.5538 -1.9609 -0.4128
15185SOL     OW47561   6.959   5.415   6.816 -0.1087 -0.0670 -0.1199
15185SOL    HW147562   6.882   5.466   6.791 -0.7239 -1.3134 -0.8568
15185SOL    HW247563   6.952   5.407   6.912 -0.5350  0.3820 -0.1067
15186SOL     OW47564   9.772   9.963   6.982 -0.4876 -0.0259  0.5237
15186SOL    HW147565   9.743   9.915   6.904  2.9767 -2.3274  0.4679
15186SOL    HW247566   9.762   9.900   7.053  0.3910  0.5498  1.1686
15187SOL     OW47567   3.992   5.729   2.970  0.0583 -0.1929  0.1424
15187SOL    HW147568   4.012   5.652   2.917 -1.1465 -0.0898 -0.5066
15187SOL    HW247569   4.072   5.746   3.020  1.4094  0.0033 -1.9999
15188SOL     OW47570   4.855   1.955   6.899  0.1317  0.2302 -0.0229
15188SOL    HW147571   4.880   2.047   6.893 -0.1024  0.5506  2.5396
15188SOL    HW247572   4.767   1.951   6.862 -0.9688  1.6657  2.1804
15189SOL     OW47573   1.888   8.600   7.872  0.1349  0.1909 -0.0890
15189SOL    HW147574   1.911   8.611   7.964 -2.7741  0.7784  0.6688
15189SOL    HW247575   1.901   8.687   7.834  0.7873  0.0869 -0.1231
15190SOL     OW47576   5.418   6.378   0.509  0.1001 -0.5108 -0.0911
15190SOL    HW147577   5.448   6.288   0.507  0.3185 -0.4286 -0.4735
15190SOL    HW247578   5.358   6.386   0.435  1.1865  0.0451 -0.9256
15191SOL     OW47579   3.207   3.698   2.965 -0.3057  0.2950 -0.2703
15191SOL    HW147580   3.198   3.754   3.042 -0.3585  2.8435 -2.0194
15191SOL    HW247581   3.153   3.740   2.898  1.6964 -0.3577 -2.4373
15192SOL     OW47582   4.010   7.919   8.193 -0.1710 -0.2915  0.1709
15192SOL    HW147583   4.053   7.992   8.238  1.7717 -1.0591 -0.3299
15192SOL    HW247584   3.929   7.906   8.241  0.6626  0.5179  1.9102
15193SOL     OW47585   8.174   9.624   3.653 -1.0581 -0.2610  0.1053
15193SOL    HW147586   8.236   9.554   3.674 -1.1652 -0.0160  1.3476
15193SOL    HW247587   8.136   9.648   3.738 -1.5024  0.8578 -0.3922
15194SOL     OW47588   1.806   7.798   0.116  0.2633 -0.1657  0.4016
15194SOL    HW147589   1.761   7.815   0.033 -1.4260 -1.4327  0.9752
15194SOL    HW247590   1.838   7.708   0.108  0.4325 -0.1629  0.9704
15195SOL     OW47591   6.254   1.058   9.171 -0.2165 -0.1847 -0.0018
15195SOL    HW147592   6.256   0.993   9.242  0.6893  1.0775  1.2013
15195SOL    HW247593   6.165   1.091   9.171  0.1013  0.8088  1.5832
15196SOL     OW47594   7.552   8.058   2.584  0.0859  0.9588 -0.4104
15196SOL    HW147595   7.633   8.007   2.583 -0.9702 -0.8741  0.9101
15196SOL    HW247596   7.485   7.996   2.616 -1.8832  2.3324 -1.6222
15197SOL     OW47597   7.414   8.324   4.366 -0.6510  0.1291 -0.3448
15197SOL    HW147598   7.452   8.284   4.444 -0.1701 -2.8825 -1.9540
15197SOL    HW247599   7.321   8.332   4.386 -0.5292 -0.5302  0.5580
15198SOL     OW47600   8.712   9.041   8.897 -0.4808 -0.1281  0.0949
15198SOL    HW147601   8.792   9.034   8.948 -0.3313 -2.0062 -0.3287
15198SOL    HW247602   8.666   9.116   8.935  0.3663 -0.4802  1.9107
15199SOL     OW47603   0.098   1.011   7.812  0.3803  0.3495  0.2032
15199SOL    HW147604   0.009   1.017   7.777  0.8194  1.1428 -0.8213
15199SOL    HW247605   0.108   1.087   7.869  1.1763  1.6342 -1.5713
15200SOL     OW47606   5.344  10.372   5.625 -0.3037  0.7002 -0.1342
15200SOL    HW147607   5.348  10.277   5.632 -0.3434  0.6613 -0.6095
15200SOL    HW247608   5.324  10.402   5.713  2.4277  0.4162  0.6871
15201SOL     OW47609   4.989   8.378  10.009  0.3760 -0.3156  0.3209
15201SOL    HW147610   4.946   8.311  10.063  2.3366 -1.5499  0.4501
15201SOL    HW247611   5.077   8.343   9.994  0.8449  1.4002 -1.1922
15202SOL     OW47612   1.519  10.262   4.270  0.1771  0.2707  0.8464
15202SOL    HW147613   1.598  10.307   4.239 -0.8499  1.8224  0.3617
15202SOL    HW247614   1.492  10.207   4.197  0.3518  0.3671  0.7099
15203SOL     OW47615  10.837   8.295   0.449  0.2436  0.8186 -0.0090
15203SOL    HW147616  10.789   8.279   0.530 -0.3997  2.4715 -0.0097
15203SOL    HW247617  10.793   8.242   0.384  1.9081 -2.0006  0.9988
15204SOL     OW47618   0.966   3.568   4.309  0.3977 -0.8125 -0.4726
15204SOL    HW147619   0.957   3.649   4.359 -1.8379  0.3035 -2.4931
15204SOL    HW247620   0.956   3.498   4.374 -1.4694  0.5451  0.7891
15205SOL     OW47621   3.636   9.698   7.262  0.0620 -0.3711 -0.2412
15205SOL    HW147622   3.616   9.713   7.354 -0.8015  0.2833 -0.5229
15205SOL    HW247623   3.564   9.645   7.230  0.7304 -1.2119 -0.3765
15206SOL     OW47624   5.621   2.400   3.135 -0.2028  0.1039  0.0292
15206SOL    HW147625   5.661   2.319   3.167 -0.2979  0.2064  0.4122
15206SOL    HW247626   5.682   2.469   3.160 -0.8014  0.3037  0.9693
15207SOL     OW47627   8.591   1.796  10.667  0.0827  0.8543  0.0823
15207SOL    HW147628   8.651   1.734  10.709  2.1022  1.5172 -1.6818
15207SOL    HW247629   8.568   1.858  10.737 -0.8261 -0.9506  1.5025
15208SOL     OW47630   3.107   3.110   3.595  0.8483  0.2055 -0.2522
15208SOL    HW147631   3.034   3.120   3.656 -0.1230  1.4391 -1.5341
15208SOL    HW247632   3.181   3.153   3.639  0.0948  1.3237 -0.0341
15209SOL     OW47633   2.119   3.776   1.955 -0.5742 -0.4269  0.0547
15209SOL    HW147634   2.061   3.743   1.887 -1.1841 -0.9751  0.8274
15209SOL    HW247635   2.093   3.867   1.967 -0.5523 -0.3657 -0.3500
15210SOL     OW47636   0.021  11.021   6.449  0.0385  0.2268  0.3712
15210SOL    HW147637   0.022  11.102   6.500  0.4961  0.3882  0.1150
15210SOL    HW247638  -0.045  11.036   6.381  0.9045  0.8297 -0.3642
15211SOL     OW47639   7.796   9.130   6.206 -0.0602 -0.1055  0.0065
15211SOL    HW147640   7.793   9.081   6.289 -1.7826 -0.6187 -0.3204
15211SOL    HW247641   7.863   9.085   6.155  0.8114  0.0254  0.9856
15212SOL     OW47642   3.173   0.973  10.309  0.1470 -0.2210  0.1158
15212SOL    HW147643   3.151   0.964  10.216  0.3759 -1.2706  0.1540
15212SOL    HW247644   3.227   1.052  10.313 -0.6834  0.3951 -0.4838
15213SOL     OW47645   6.605   7.789   8.801 -0.3974  1.1776  0.6579
15213SOL    HW147646   6.669   7.817   8.866 -1.2111  3.2736  0.6236
15213SOL    HW247647   6.657   7.755   8.728  0.5482 -0.6913  2.1091
15214SOL     OW47648   3.532   2.495   9.771 -0.0494  0.5855 -0.0864
15214SOL    HW147649   3.529   2.447   9.688 -1.1424 -0.7307  0.6681
15214SOL    HW247650   3.456   2.553   9.768 -1.2010 -0.8181  0.7305
15215SOL     OW47651   1.242   2.909   5.130  0.5105  0.2158 -0.1091
15215SOL    HW147652   1.161   2.928   5.177  0.3050  0.8489 -0.7040
15215SOL    HW247653   1.216   2.902   5.039  1.4124  2.7085 -0.6481
15216SOL     OW47654   9.651   9.532   4.674 -0.2661 -0.1986 -0.1928
15216SOL    HW147655   9.706   9.607   4.653 -0.3666 -0.0831 -0.0492
15216SOL    HW247656   9.574   9.570   4.716 -0.2007 -0.4031  0.1174
15217SOL     OW47657   8.601   9.302   5.155  0.2448 -0.0680 -0.0122
15217SOL    HW147658   8.637   9.369   5.213  1.2096  0.1467 -0.8217
15217SOL    HW247659   8.507   9.315   5.160  0.1803 -0.9149  2.5044
15218SOL     OW47660   1.884   1.562   5.886 -0.3037 -0.1045 -0.4631
15218SOL    HW147661   1.950   1.568   5.817  1.2491 -0.5296  0.9453
15218SOL    HW247662   1.927   1.516   5.957 -1.1968  1.9613  1.5448
15219SOL     OW47663   1.088   8.702   7.040  0.3171  0.2798  0.5249
15219SOL    HW147664   1.011   8.757   7.051 -0.0679  0.0251 -0.7352
15219SOL    HW247665   1.141   8.747   6.974  0.2960 -0.5262 -0.0580
15220SOL     OW47666   6.730   1.657   6.065 -0.4539  0.0009  0.4262
15220SOL    HW147667   6.643   1.697   6.062 -0.9685 -1.1285 -0.3210
15220SOL    HW247668   6.713   1.563   6.057  0.8737 -0.1858 -0.3186
15221SOL     OW47669   2.342   8.016   5.057  0.5960 -0.0976  0.1553
15221SOL    HW147670   2.325   8.110   5.047  1.4116  0.0327 -0.0703
15221SOL    HW247671   2.376   7.988   4.972 -2.7030 -1.3340 -0.9205
15222SOL     OW47672   2.748   9.291   1.525 -0.1382  0.2590 -0.1841
15222SOL    HW147673   2.789   9.299   1.611  0.5898  0.2722 -0.5174
15222SOL    HW247674   2.655   9.283   1.543  0.0966 -0.8978  0.6644
15223SOL     OW47675   4.558   8.927   7.062 -0.3801  0.1026  0.0874
15223SOL    HW147676   4.580   9.006   7.113 -0.1596  0.0632  0.0564
15223SOL    HW247677   4.469   8.905   7.089  0.8195 -1.8160  2.9748
15224SOL     OW47678   8.113   2.737   1.645 -0.0418  0.5247 -0.1125
15224SOL    HW147679   8.194   2.781   1.670 -0.9124  1.7071  0.7299
15224SOL    HW247680   8.064   2.802   1.594 -0.7309  0.0474 -0.0865
15225SOL     OW47681  10.457   9.026   5.929  0.1147 -0.1251  0.5459
15225SOL    HW147682  10.517   8.992   5.996 -0.3264 -0.1909  0.9116
15225SOL    HW247683  10.369   9.009   5.964 -0.1230 -0.2713 -0.1015
15226SOL     OW47684   1.102   4.346   5.285 -0.2736 -0.3086  0.2659
15226SOL    HW147685   1.108   4.441   5.286 -1.4586 -0.1659 -1.3637
15226SOL    HW247686   1.008   4.327   5.282 -0.0888 -1.5690  1.4757
15227SOL     OW47687   4.145  10.015   9.095  0.5737 -0.1242 -0.2146
15227SOL    HW147688   4.078   9.946   9.092  1.3533 -0.9054  0.1378
15227SOL    HW247689   4.216   9.978   9.147  0.9148  1.0388  0.1896
15228SOL     OW47690   5.236   9.734   4.224 -0.3442 -0.1571 -0.0426
15228SOL    HW147691   5.188   9.660   4.187 -1.7557  0.6776  0.0576
15228SOL    HW247692   5.174   9.807   4.220  0.6514  0.7629  0.8411
15229SOL     OW47693   9.475   8.454  10.072  1.0249 -0.5970 -0.0672
15229SOL    HW147694   9.445   8.539  10.040 -1.2009 -0.8498  1.1313
15229SOL    HW247695   9.514   8.412   9.996 -1.9253 -0.2622 -1.9454
15230SOL     OW47696   3.505   0.720   7.325 -0.2537  0.6678 -0.6009
15230SOL    HW147697   3.455   0.641   7.343 -1.4930  0.4725 -4.1859
15230SOL    HW247698   3.586   0.688   7.286  0.3408  1.1550  0.2022
15231SOL     OW47699   2.105   1.279   5.772  0.2133 -0.6685 -0.1311
15231SOL    HW147700   2.083   1.192   5.739 -0.8550 -0.9169  1.1751
15231SOL    HW247701   2.124   1.266   5.865 -0.7446  0.6111  0.2726
15232SOL     OW47702   7.971   1.914   5.048 -0.2653 -0.1205  0.1013
15232SOL    HW147703   8.011   1.905   4.962  1.1935  2.5015  0.4161
15232SOL    HW247704   8.000   1.836   5.096 -0.6293 -1.3231 -1.5276
15233SOL     OW47705   5.191   4.383   9.302 -0.1323 -0.0769 -0.1446
15233SOL    HW147706   5.197   4.422   9.215 -0.0203 -0.9524 -0.5499
15233SOL    HW247707   5.255   4.430   9.354 -0.3168  0.5679 -0.4939
15234SOL     OW47708   4.989   1.650   6.103  0.4012  0.1369 -0.1797
15234SOL    HW147709   4.917   1.691   6.151 -0.5076 -3.0334  1.4571
15234SOL    HW247710   5.068   1.689   6.141 -0.3699  1.7140 -0.1031
15235SOL     OW47711   5.480  10.726   3.971  0.3811 -0.0067 -0.2407
15235SOL    HW147712   5.506  10.768   3.889  0.2571  0.5773  0.0203
15235SOL    HW247713   5.529  10.772   4.039  0.0103 -0.0792  0.0774
15236SOL     OW47714   0.624   3.495   8.348  0.1456  0.9529  0.0456
15236SOL    HW147715   0.570   3.573   8.342 -1.7351 -0.0937  1.9746
15236SOL    HW247716   0.625   3.473   8.441  0.6750 -1.2490 -0.4108
15237SOL     OW47717   9.789   5.427   6.813 -0.3525  0.0166  0.0291
15237SOL    HW147718   9.739   5.372   6.873 -0.1014 -0.8533 -0.5367
15237SOL    HW247719   9.828   5.494   6.868 -0.7647 -0.3038  0.7198
15238SOL     OW47720   0.648   2.732   3.410  0.3101  0.4206  0.3106
15238SOL    HW147721   0.683   2.771   3.490  1.6188  1.3713 -0.6718
15238SOL    HW247722   0.618   2.808   3.358 -0.8078 -0.1987  0.0182
15239SOL     OW47723   5.349   5.391   1.596 -0.0979  0.1885  0.3934
15239SOL    HW147724   5.262   5.372   1.631 -0.3772 -2.0454 -1.2371
15239SOL    HW247725   5.362   5.324   1.529  2.2616  1.4216 -0.4875
15240SOL     OW47726   1.509   2.532   9.334  0.2395 -0.3632  0.4364
15240SOL    HW147727   1.431   2.512   9.282 -1.1054  0.2281  2.1477
15240SOL    HW247728   1.531   2.622   9.311  0.4911 -0.5594 -0.1123
15241SOL     OW47729   9.277  10.691   7.936  0.1058  0.0794  0.1015
15241SOL    HW147730   9.294  10.732   7.851  2.2742  2.8269  1.7107
15241SOL    HW247731   9.334  10.736   7.997 -1.3874 -1.7494  3.1095
15242SOL     OW47732  10.485  10.912   6.205 -0.6225 -0.2939  0.3984
15242SOL    HW147733  10.559  10.860   6.176 -0.2646  0.5785 -0.2730
15242SOL    HW247734  10.417  10.896   6.140  0.0046  1.2504 -0.6853
15243SOL     OW47735   7.355   6.598   9.314 -0.2036  0.1513 -0.3014
15243SOL    HW147736   7.404   6.528   9.357  0.6352  1.9174  1.8243
15243SOL    HW247737   7.271   6.599   9.359 -0.7003 -0.2599 -1.1919
15244SOL     OW47738   5.114   5.331   8.466  0.4774  0.6755  0.1280
15244SOL    HW147739   5.148   5.266   8.404 -2.8275  1.1025 -2.4207
15244SOL    HW247740   5.129   5.415   8.423 -1.2328  1.0511  0.2213
15245SOL     OW47741   8.822   6.646   5.723 -0.1151 -0.0022  0.2550
15245SOL    HW147742   8.743   6.592   5.714  0.0201 -0.7821  3.0097
15245SOL    HW247743   8.788   6.735   5.737 -0.4224  0.0543 -0.7734
15246SOL     OW47744   2.617   0.956  11.018 -0.3502  0.1680 -0.7344
15246SOL    HW147745   2.706   0.946  10.987  0.1996 -0.4776  0.9604
15246SOL    HW247746   2.612   1.048  11.047  0.7872 -0.5242  1.9988
15247SOL     OW47747   6.804   3.812   7.553 -0.3886 -0.2165 -0.0287
15247SOL    HW147748   6.741   3.841   7.487  1.3366  1.8772 -0.8730
15247SOL    HW247749   6.809   3.885   7.615  1.0802 -0.3960  0.0937
15248SOL     OW47750   5.434   0.679   6.275 -0.1940 -0.1504  0.2210
15248SOL    HW147751   5.519   0.648   6.245  0.2448  1.2913 -0.1078
15248SOL    HW247752   5.446   0.700   6.367  0.0715  0.9157 -0.0483
15249SOL     OW47753   4.897   3.453   1.604  0.0428 -0.3188  0.4806
15249SOL    HW147754   4.876   3.359   1.610  1.6725 -0.6523  1.5226
15249SOL    HW247755   4.872   3.488   1.689  1.0206 -0.1628  0.7114
15250SOL     OW47756   6.657   2.951   8.369 -0.3578 -0.0457 -0.3223
15250SOL    HW147757   6.709   3.026   8.401 -1.5821 -0.0812  1.8973
15250SOL    HW247758   6.604   2.988   8.298  0.3084  0.7672 -0.4186
15251SOL     OW47759   2.739   1.093   4.468 -0.4765 -1.0448  0.0747
15251SOL    HW147760   2.832   1.089   4.444 -0.2412 -2.3064  1.1071
15251SOL    HW247761   2.718   1.005   4.498 -2.3991 -1.1742 -1.4284
15252SOL     OW47762   8.249   8.970   0.562 -0.6257  0.2746 -0.8569
15252SOL    HW147763   8.234   8.881   0.530 -0.1540 -0.2418  0.2990
15252SOL    HW247764   8.281   8.959   0.652 -1.2269  1.6357 -0.4350
15253SOL     OW47765   4.774   7.664   9.996  0.5689 -0.0021  0.6596
15253SOL    HW147766   4.745   7.752  10.021  0.7156 -0.3664  2.2385
15253SOL    HW247767   4.794   7.671   9.903  0.2586  1.5520  0.6787
15254SOL     OW47768   8.621   4.386   0.366  0.3420 -0.0512  0.1629
15254SOL    HW147769   8.549   4.425   0.417 -1.8207 -0.6730 -2.2322
15254SOL    HW247770   8.684   4.458   0.356 -1.6265  1.6484 -0.6571
15255SOL     OW47771   1.054   3.701   0.301  0.6347  0.1469 -0.2278
15255SOL    HW147772   1.037   3.733   0.212 -0.5301 -1.0596 -0.4727
15255SOL    HW247773   0.968   3.701   0.343  0.9831 -0.4215  0.5073
15256SOL     OW47774   9.616   2.516   0.909 -0.5237 -0.0183 -0.0773
15256SOL    HW147775   9.709   2.538   0.901 -0.4654 -0.2389 -0.0379
15256SOL    HW247776   9.581   2.527   0.820  0.0400 -2.1109 -0.6215
15257SOL     OW47777   3.640   3.603   4.526 -0.4288 -0.2224 -0.0081
15257SOL    HW147778   3.604   3.519   4.556 -0.7444 -0.2846 -0.5503
15257SOL    HW247779   3.669   3.585   4.436  2.0312 -0.4974  0.7678
15258SOL     OW47780   1.809  10.032  10.148 -0.0918 -0.0819  0.8277
15258SOL    HW147781   1.866   9.967  10.107  1.4329  0.6021  1.7927
15258SOL    HW247782   1.850  10.116  10.128 -1.2429  0.5103  0.8363
15259SOL     OW47783   7.132   8.122   7.118  0.1411  0.4009  0.4313
15259SOL    HW147784   7.053   8.069   7.107 -0.3795  1.0892  0.7521
15259SOL    HW247785   7.164   8.136   7.029 -0.6952  0.9774  0.2040
15260SOL     OW47786   0.368   9.229  10.754  0.3554 -0.1203  0.4754
15260SOL    HW147787   0.311   9.281  10.810  0.1384  0.0514  0.0958
15260SOL    HW247788   0.452   9.275  10.755  0.4442 -0.2877  0.9079
15261SOL     OW47789   1.395   1.068   3.863  0.5133 -0.9920  0.0867
15261SOL    HW147790   1.471   1.119   3.889  0.1397  0.2755 -1.1416
15261SOL    HW247791   1.343   1.059   3.943  1.6095 -1.3005  0.7849
15262SOL     OW47792   2.709   6.672   9.109 -0.5216 -0.3682  0.3215
15262SOL    HW147793   2.723   6.764   9.130 -0.2108 -0.0152 -1.2968
15262SOL    HW247794   2.795   6.638   9.086 -1.0436 -0.1614 -2.2782
15263SOL     OW47795   2.393   6.407   0.263  0.4151  0.2257 -0.4811
15263SOL    HW147796   2.333   6.334   0.245  1.9787 -1.0093 -0.9680
15263SOL    HW247797   2.396   6.412   0.358  1.6039 -1.5527 -0.3817
15264SOL     OW47798   4.722   0.321   2.924 -0.2154  0.0602  0.6184
15264SOL    HW147799   4.778   0.300   2.849 -0.7825  0.6329  0.0207
15264SOL    HW247800   4.641   0.273   2.907 -0.9828  1.5359 -0.0249
15265SOL     OW47801   0.928  10.459   0.474 -0.2816 -0.5192 -0.0895
15265SOL    HW147802   1.011  10.468   0.520  1.0655 -1.4705 -2.1313
15265SOL    HW247803   0.876  10.400   0.529  0.7017 -0.5174  0.8757
15266SOL     OW47804   3.045  10.344   8.289 -0.1554 -0.0486 -0.1299
15266SOL    HW147805   2.961  10.310   8.257  0.1726 -0.9591 -0.0511
15266SOL    HW247806   3.045  10.322   8.382  0.1853 -0.0778 -0.1375
15267SOL     OW47807   5.720   2.578   7.178  0.1276 -0.1058  0.1647
15267SOL    HW147808   5.762   2.663   7.189  1.6831 -0.4976 -2.2337
15267SOL    HW247809   5.753   2.525   7.251  0.3559  0.8542  0.7729
15268SOL     OW47810   9.322  10.854   5.757  0.7273  0.2220 -0.4611
15268SOL    HW147811   9.319  10.765   5.791 -1.9529 -0.1390 -1.3474
15268SOL    HW247812   9.284  10.908   5.826 -1.3873  0.0135 -1.3847
15269SOL     OW47813   3.393   1.487   2.750  0.1493 -0.0347  0.0856
15269SOL    HW147814   3.318   1.528   2.705 -0.0786  0.1818  0.6572
15269SOL    HW247815   3.420   1.417   2.691 -0.3272  0.0675 -0.2641
15270SOL     OW47816   4.916   8.798   1.676 -0.0436 -0.2388 -0.7757
15270SOL    HW147817   4.968   8.876   1.655 -0.2944  0.3117  0.5380
15270SOL    HW247818   4.967   8.725   1.641  1.1297  0.3713 -0.4142
15271SOL     OW47819   6.519   7.064   3.133  0.1198  0.0663  0.4710
15271SOL    HW147820   6.495   7.002   3.202 -0.9267 -0.5388 -0.4157
15271SOL    HW247821   6.605   7.034   3.103 -0.2402 -0.7907  0.2609
15272SOL     OW47822   0.281   6.747   5.919 -0.1559  0.0433  0.2924
15272SOL    HW147823   0.296   6.825   5.866  0.4978  1.2289  2.1234
15272SOL    HW247824   0.199   6.711   5.886  0.8734 -0.0731 -2.3742
15273SOL     OW47825   2.948   6.553   2.512 -0.2078 -0.3569 -0.3490
15273SOL    HW147826   2.863   6.588   2.484 -0.1894  2.0480  2.1651
15273SOL    HW247827   2.931   6.460   2.529 -1.6283 -0.5198 -2.3672
15274SOL     OW47828   5.938   3.817   8.733 -0.1015  0.3669  0.3714
15274SOL    HW147829   5.968   3.750   8.795  0.1787  0.8187  0.7327
15274SOL    HW247830   6.018   3.849   8.692 -0.4199 -1.2959 -1.6969
15275SOL     OW47831   7.139   8.625   2.702 -0.6469  0.2743  0.4242
15275SOL    HW147832   7.141   8.544   2.651 -3.8487 -0.2590  0.9004
15275SOL    HW247833   7.116   8.693   2.638  1.5408  0.7839  0.1172
15276SOL     OW47834   8.413   2.006   9.749 -0.2564  0.0197  0.7080
15276SOL    HW147835   8.504   2.010   9.719 -0.5860 -2.5631 -0.9581
15276SOL    HW247836   8.414   2.046   9.836  1.6749  3.6347 -0.7547
15277SOL     OW47837   4.393   0.597   9.106 -0.7306  0.2459  0.7765
15277SOL    HW147838   4.471   0.617   9.055 -0.4389 -0.9319  0.7318
15277SOL    HW247839   4.383   0.672   9.165 -0.7106  1.3225 -0.5461
15278SOL     OW47840   8.205   5.441   0.882 -0.2744  0.2201  0.0364
15278SOL    HW147841   8.152   5.397   0.815 -0.9556 -1.0674  1.3627
15278SOL    HW247842   8.173   5.531   0.883 -0.3830  0.2105 -1.2159
15279SOL     OW47843   1.878   7.192  10.904 -0.0268  0.4383 -0.8601
15279SOL    HW147844   1.829   7.135  10.845 -0.0677  1.5029 -1.9085
15279SOL    HW247845   1.891   7.141  10.983 -0.0103 -1.0334 -1.7845
15280SOL     OW47846   3.708   7.216   1.180  0.1508  0.0340 -0.0016
15280SOL    HW147847   3.661   7.274   1.240 -1.0108  1.0427 -1.8281
15280SOL    HW247848   3.680   7.128   1.205  0.0386  0.3936  1.2070
15281SOL     OW47849   3.261   8.343   4.982 -0.2185  0.1046  0.6912
15281SOL    HW147850   3.336   8.293   5.015  0.5590  1.5109  1.1233
15281SOL    HW247851   3.191   8.325   5.045 -1.3001 -3.5786 -1.2467
15282SOL     OW47852   7.104   8.879   1.889  0.3911  0.0449  0.0540
15282SOL    HW147853   7.100   8.796   1.936  0.8759 -0.7071 -1.1862
15282SOL    HW247854   7.050   8.939   1.941 -1.0483 -1.3796  0.2763
15283SOL     OW47855  10.683   5.124   2.356 -0.2601  0.4802 -0.0537
15283SOL    HW147856  10.735   5.141   2.278 -0.7542 -2.2101 -1.0970
15283SOL    HW247857  10.593   5.146   2.331 -0.5090 -0.9397 -0.5181
15284SOL     OW47858   3.844   6.322   4.392  0.1246  0.2308  0.0252
15284SOL    HW147859   3.794   6.272   4.327  1.3097  0.1083 -0.8322
15284SOL    HW247860   3.888   6.255   4.445 -2.0918  0.2596  2.0852
15285SOL     OW47861   3.820   5.733   7.557  0.1998 -0.1088  0.4397
15285SOL    HW147862   3.767   5.810   7.534  0.9065  0.4684  0.6801
15285SOL    HW247863   3.757   5.662   7.566 -0.2575 -0.1079 -2.0773
15286SOL     OW47864   0.251  10.560   8.056 -0.2581 -0.3778 -0.1327
15286SOL    HW147865   0.301  10.549   8.137 -1.0002  2.8315  0.9365
15286SOL    HW247866   0.318  10.568   7.988  0.5858  0.6823  0.7787
15287SOL     OW47867   0.847   6.907   3.833  0.7875 -0.4942 -0.0174
15287SOL    HW147868   0.768   6.930   3.785 -1.1903 -1.5369  2.4821
15287SOL    HW247869   0.895   6.848   3.775  0.9330  1.8824 -2.4638
15288SOL     OW47870   1.109   0.857  10.194  0.0622 -0.3447 -1.0230
15288SOL    HW147871   1.019   0.859  10.225  0.2162  2.2207 -0.5740
15288SOL    HW247872   1.156   0.808  10.262 -0.8251 -0.9452 -0.8264
15289SOL     OW47873   0.097   4.983   0.223  0.6823  0.3520 -0.6846
15289SOL    HW147874   0.126   5.052   0.163 -2.0254  2.0975 -0.1813
15289SOL    HW247875   0.099   5.025   0.309 -1.8976  0.1940 -0.4803
15290SOL     OW47876   1.710  10.935   1.882  0.4140  0.1725 -0.4756
15290SOL    HW147877   1.645  10.942   1.952  0.5068  2.3058 -0.5474
15290SOL    HW247878   1.660  10.901   1.807  0.0094 -0.8066  0.2168
15291SOL     OW47879   9.816   9.058   8.198 -0.2590  0.3801 -0.1969
15291SOL    HW147880   9.850   8.974   8.228 -0.6566 -0.4566 -1.9084
15291SOL    HW247881   9.876   9.084   8.127 -1.3608  0.4314 -1.1437
15292SOL     OW47882   3.011  10.047   0.092  0.9709 -1.1040  0.3402
15292SOL    HW147883   3.026   9.955   0.071 -0.1827 -1.2226 -0.0531
15292SOL    HW247884   3.028  10.053   0.186 -0.1952 -2.0168  0.6338
15293SOL     OW47885   6.880  10.658   2.995  0.6401  0.2266 -0.6021
15293SOL    HW147886   6.948  10.711   3.037  1.3832  0.1407 -1.6524
15293SOL    HW247887   6.901  10.568   3.022 -0.8410  0.4536  1.4823
15294SOL     OW47888   9.289   7.687   7.606  0.1460  0.4450 -0.1014
15294SOL    HW147889   9.325   7.686   7.517  0.2435 -0.9692 -0.0660
15294SOL    HW247890   9.301   7.598   7.637 -1.0979  0.5920  0.8496
15295SOL     OW47891   5.508   3.737   0.775  0.7338  0.6951 -0.0254
15295SOL    HW147892   5.447   3.693   0.715  0.2156  1.9935 -0.4959
15295SOL    HW247893   5.556   3.799   0.720 -1.0368  3.2635  1.0827
15296SOL     OW47894   7.260   0.896   1.233  1.0872 -0.7409 -0.3764
15296SOL    HW147895   7.196   0.872   1.166  2.0605 -3.1790 -0.5252
15296SOL    HW247896   7.255   0.826   1.298  1.3909  0.6799  1.2620
15297SOL     OW47897   9.433   3.699   7.281  0.1948 -0.3193 -0.3123
15297SOL    HW147898   9.355   3.748   7.305 -0.0341 -0.9300  0.2028
15297SOL    HW247899   9.415   3.609   7.308  0.2827 -0.8795 -1.9597
15298SOL     OW47900  10.561   7.409   3.710 -0.1644 -0.5119  0.0497
15298SOL    HW147901  10.486   7.449   3.666 -0.7082  0.5576  1.8542
15298SOL    HW247902  10.636   7.464   3.685 -0.3054 -0.4427 -0.2301
15299SOL     OW47903  10.578   8.198   6.024  0.2472 -0.4111 -0.1226
15299SOL    HW147904  10.514   8.146   5.977  0.3228 -1.0168  0.4326
15299SOL    HW247905  10.662   8.173   5.986  0.4987 -2.2294  1.4800
15300SOL     OW47906   2.539   6.711   2.434  0.2375 -0.2802 -0.3422
15300SOL    HW147907   2.488   6.633   2.413 -2.2063  0.4284  2.3225
15300SOL    HW247908   2.491   6.783   2.391 -0.2394  0.2292  0.9957
15301SOL     OW47909   6.514   7.484   4.754  0.5674  0.1124  0.8410
15301SOL    HW147910   6.473   7.423   4.692  0.6948 -1.3740  2.1477
15301SOL    HW247911   6.605   7.456   4.758  0.7854  0.8225  0.9868
15302SOL     OW47912   5.103   9.186   9.542  0.0580 -0.2357  0.1871
15302SOL    HW147913   5.199   9.182   9.551 -0.0601  0.4025  2.1226
15302SOL    HW247914   5.083   9.280   9.543 -0.7722 -0.3637  2.8175
15303SOL     OW47915   8.947   2.501   9.844  0.8169 -0.4331  0.2582
15303SOL    HW147916   8.874   2.552   9.810  0.5443 -1.4675 -0.7956
15303SOL    HW247917   9.025   2.549   9.817  0.5848 -0.8991 -1.3106
15304SOL     OW47918   2.763   1.339  10.817  0.4347  0.1744  0.1283
15304SOL    HW147919   2.818   1.261  10.813 -0.5719 -0.8440  3.1867
15304SOL    HW247920   2.720   1.343  10.732  2.4489 -1.0771 -1.0241
15305SOL     OW47921   8.769   7.096   9.400  0.1535  0.2234  0.0267
15305SOL    HW147922   8.801   7.112   9.488  0.1393  3.5191 -0.4098
15305SOL    HW247923   8.674   7.110   9.405  0.1724  0.6204 -0.4937
15306SOL     OW47924   2.345   1.555   6.466  0.5696  0.8351 -0.4595
15306SOL    HW147925   2.335   1.628   6.405 -0.4225  1.4436  0.4044
15306SOL    HW247926   2.258   1.515   6.471  0.9269  0.0508 -0.3493
15307SOL     OW47927   2.269   6.219   4.765  0.3878  0.1195 -0.1747
15307SOL    HW147928   2.264   6.125   4.748  0.9408  0.1905 -0.7683
15307SOL    HW247929   2.349   6.248   4.720  1.1404  0.5817  1.3919
15308SOL     OW47930   4.503   3.500   6.442 -0.1948 -0.3818 -0.7352
15308SOL    HW147931   4.569   3.529   6.380 -0.1008 -0.2162 -0.5588
15308SOL    HW247932   4.485   3.577   6.495  0.2220 -0.7047 -0.1147
15309SOL     OW47933   1.085   0.125   0.753  0.2354 -0.2698 -0.0696
15309SOL    HW147934   0.993   0.122   0.727  0.5447 -2.3254 -1.1595
15309SOL    HW247935   1.091   0.065   0.828  0.4133  1.2349  1.1862
15310SOL     OW47936   8.649   8.843   0.364  0.1222  0.2120  0.1587
15310SOL    HW147937   8.656   8.917   0.424 -1.8536  1.3211 -0.8555
15310SOL    HW247938   8.715   8.861   0.297  1.3919 -0.3178  1.2248
15311SOL     OW47939   8.432   3.807   8.791 -0.0491  0.1282  0.0848
15311SOL    HW147940   8.501   3.870   8.773  0.3185 -0.6129 -1.1664
15311SOL    HW247941   8.351   3.855   8.774  0.1903  0.5521  0.1131
15312SOL     OW47942   7.957   5.849   1.926  0.2250  0.2899 -0.4600
15312SOL    HW147943   8.037   5.818   1.884  1.0988  0.8026  0.7683
15312SOL    HW247944   7.987   5.905   1.997 -1.2535  1.3242 -0.6050
15313SOL     OW47945   1.401   8.366   3.266  0.0330 -0.1822 -1.0350
15313SOL    HW147946   1.337   8.294   3.260 -0.6296  0.1211  1.4435
15313SOL    HW247947   1.350   8.441   3.296  1.4397  0.1374  0.7622
15314SOL     OW47948   9.955   3.104   7.993 -0.1985  0.3986 -0.4043
15314SOL    HW147949   9.975   3.198   7.987 -2.0346  0.8763  0.3603
15314SOL    HW247950   9.937   3.078   7.902  1.3473  0.5122 -0.7660
15315SOL     OW47951   8.406   7.147   4.824 -0.2230 -0.0072 -0.2374
15315SOL    HW147952   8.340   7.143   4.755  0.0483  1.4406 -0.6197
15315SOL    HW247953   8.479   7.096   4.790 -0.3528  0.1210 -0.7204
15316SOL     OW47954   2.095   7.029   2.418 -0.9232 -0.4153  0.3287
15316SOL    HW147955   2.139   7.076   2.347  0.0104 -0.6819  0.7148
15316SOL    HW247956   2.135   7.063   2.498 -1.3280 -0.7654  0.6917
15317SOL     OW47957  10.242   8.447   3.540 -0.3317 -0.5792 -0.4435
15317SOL    HW147958  10.235   8.398   3.458 -0.9501  1.0258 -1.4074
15317SOL    HW247959  10.321   8.501   3.529 -1.7222  1.4603 -1.0803
15318SOL     OW47960   0.939   0.413   6.392 -0.0722  0.0493  0.3061
15318SOL    HW147961   1.033   0.395   6.399 -0.3566 -1.0098  1.5770
15318SOL    HW247962   0.917   0.387   6.302  0.8546  0.4368 -0.0540
15319SOL     OW47963   1.651   7.741   9.996  0.3586  0.5054  0.0591
15319SOL    HW147964   1.696   7.797  10.058 -1.0426  2.2045 -0.3886
15319SOL    HW247965   1.586   7.694  10.048  0.8477  0.0276  0.2572
15320SOL     OW47966   2.554   8.836   1.371 -0.1087  1.0420  0.6336
15320SOL    HW147967   2.465   8.871   1.382 -0.7737  0.3990 -2.0592
15320SOL    HW247968   2.607   8.913   1.349 -0.0530  1.3417  1.7167
15321SOL     OW47969   4.162   4.816   2.550  0.1619 -0.1515  0.2631
15321SOL    HW147970   4.131   4.850   2.634  1.7458  1.9184  0.0962
15321SOL    HW247971   4.118   4.870   2.485 -0.7545 -1.4869 -0.2595
15322SOL     OW47972   1.788   1.439   4.296 -0.1517 -0.2804  0.1372
15322SOL    HW147973   1.712   1.387   4.268 -1.2390  1.2468  0.1250
15322SOL    HW247974   1.790   1.429   4.391  0.6243 -1.6109 -0.0030
15323SOL     OW47975   4.737  10.044   7.549 -0.3186  0.1086  0.2894
15323SOL    HW147976   4.830  10.023   7.538 -0.2688  1.2306 -2.2473
15323SOL    HW247977   4.717  10.021   7.639  2.1759 -1.0836  0.6150
15324SOL     OW47978   6.605   6.306   3.629  0.0455  0.0010 -0.3502
15324SOL    HW147979   6.620   6.262   3.713 -2.3052  0.8420  0.5829
15324SOL    HW247980   6.570   6.392   3.653  0.7281  0.8586 -2.2033
15325SOL     OW47981   7.293   3.979   3.549  0.2700  0.2487  0.3179
15325SOL    HW147982   7.318   3.924   3.623 -1.7991 -0.3372  0.6261
15325SOL    HW247983   7.230   4.041   3.585 -1.3587 -0.5341 -1.0516
15326SOL     OW47984   5.470   7.957   3.714  0.3921  0.7310  0.0907
15326SOL    HW147985   5.399   7.950   3.778 -1.7765  4.8136 -1.4710
15326SOL    HW247986   5.430   7.931   3.631  1.4086  0.9325 -0.4810
15327SOL     OW47987  10.729   3.151   5.818 -0.3286 -0.2238  0.5809
15327SOL    HW147988  10.666   3.081   5.833 -1.3539  0.3763 -0.6904
15327SOL    HW247989  10.734   3.159   5.723  2.1421 -0.6213  0.6211
15328SOL     OW47990   1.847  10.094   1.830  0.4029 -0.3999 -0.2964
15328SOL    HW147991   1.788  10.094   1.755  1.2038  0.7643 -0.9626
15328SOL    HW247992   1.797  10.052   1.900 -0.9967  0.0364 -0.9980
15329SOL     OW47993   1.052   1.189   2.001 -0.0810  0.2039 -0.0998
15329SOL    HW147994   0.991   1.120   2.027 -0.0812  0.2503  0.0270
15329SOL    HW247995   1.118   1.145   1.948 -0.5290  0.2553 -0.7009
15330SOL     OW47996   7.464   6.286   9.211 -0.7959  0.2464 -0.0506
15330SOL    HW147997   7.557   6.267   9.203 -0.7968  0.3310 -0.2551
15330SOL    HW247998   7.452   6.307   9.304 -0.6585 -0.0122  0.0285
15331SOL     OW47999   7.418  10.221   2.307 -0.7154 -0.1526  0.2714
15331SOL    HW148000   7.506  10.227   2.344 -1.1077 -0.2308  1.2288
15331SOL    HW248001   7.432  10.189   2.217  0.2231 -0.2133  0.4317
15332SOL     OW48002   4.181   2.173  11.008  0.0387  0.0828  0.0463
15332SOL    HW148003   4.143   2.229  11.076  1.3148  1.0225  0.0286
15332SOL    HW248004   4.126   2.190  10.931  0.2971  1.1957  0.0890
15333SOL     OW48005   9.532   2.488   8.136 -0.4005  0.2413  0.4748
15333SOL    HW148006   9.566   2.425   8.199  0.8836  0.6343  0.2182
15333SOL    HW248007   9.603   2.552   8.126 -0.7160  0.3921 -1.0654
15334SOL     OW48008   7.861   8.963   6.710  0.1891  0.5309 -0.2641
15334SOL    HW148009   7.770   8.935   6.723 -0.1623  1.6068 -0.2058
15334SOL    HW248010   7.863   9.052   6.746  0.6732  1.4124 -2.3108
15335SOL     OW48011   2.775   3.750   3.395  0.1499 -0.4099 -0.2370
15335SOL    HW148012   2.861   3.784   3.419 -0.8036  0.7321  1.8132
15335SOL    HW248013   2.734   3.821   3.345  0.2257 -0.7807 -0.8344
15336SOL     OW48014   6.073   0.522   3.247 -0.7526  0.1907  0.5796
15336SOL    HW148015   6.147   0.547   3.303  0.4892  0.3979 -1.0633
15336SOL    HW248016   6.008   0.590   3.261 -0.0742  0.7667  1.0239
15337SOL     OW48017   6.293   1.049   2.343  0.4352  0.6460 -1.0922
15337SOL    HW148018   6.222   1.015   2.396  0.8122  1.5319  0.0151
15337SOL    HW248019   6.274   1.019   2.254 -1.1715  0.6575 -0.7680
15338SOL     OW48020   2.680   8.783   0.662  0.4927  0.8589  0.3692
15338SOL    HW148021   2.622   8.776   0.586  1.6954 -1.4529 -0.4328
15338SOL    HW248022   2.763   8.814   0.626  1.4728 -1.5081  0.4270
15339SOL     OW48023   9.828  10.536   4.051 -0.7206 -0.4123  0.0665
15339SOL    HW148024   9.789  10.615   4.012 -1.8668 -0.0086  1.9194
15339SOL    HW248025   9.922  10.551   4.045 -0.8807  0.3110 -1.1176
15340SOL     OW48026   2.710   2.893   4.468 -0.5177  0.2160 -0.3616
15340SOL    HW148027   2.774   2.924   4.532 -0.5714 -0.8666  0.2369
15340SOL    HW248028   2.677   2.973   4.426 -1.0920  1.0104  1.5323
15341SOL     OW48029   9.956   5.811   9.231 -0.0281 -0.3068 -0.1637
15341SOL    HW148030  10.032   5.768   9.190 -0.2473 -0.2784 -0.6028
15341SOL    HW248031   9.974   5.904   9.222  0.4317 -0.2938  0.7625
15342SOL     OW48032   7.651   6.696   4.630  0.4773 -0.1426 -0.1131
15342SOL    HW148033   7.560   6.725   4.642  0.7706  1.0716 -0.6835
15342SOL    HW248034   7.665   6.632   4.700  0.0717  1.7667  1.8179
15343SOL     OW48035   4.129  10.880   0.443  0.6326 -0.1076 -0.2689
15343SOL    HW148036   4.170  10.815   0.386  0.8695 -0.0820 -0.1268
15343SOL    HW248037   4.115  10.834   0.526 -1.1734 -0.6442 -0.8233
15344SOL     OW48038   2.710   8.346  10.389 -0.4278  0.0110 -0.1999
15344SOL    HW148039   2.733   8.258  10.418  0.4726  0.1103 -0.5821
15344SOL    HW248040   2.694   8.395  10.470 -0.9999 -0.5204  0.0076
15345SOL     OW48041   2.223   1.521   7.280 -0.1131  0.0167 -0.0278
15345SOL    HW148042   2.263   1.535   7.366  0.9769  1.4550 -0.7309
15345SOL    HW248043   2.258   1.437   7.251  2.5005  1.1888 -0.6010
15346SOL     OW48044   2.320   3.440   2.943 -0.0143  0.3464  0.3036
15346SOL    HW148045   2.335   3.534   2.944  0.3422  0.3154 -0.8568
15346SOL    HW248046   2.371   3.407   3.018  0.5832  0.9750  0.1820
15347SOL     OW48047   0.520   3.681  11.001  0.1499 -0.2297  0.5824
15347SOL    HW148048   0.504   3.775  10.994  1.0202  0.0356  1.9341
15347SOL    HW248049   0.482   3.656  11.085  0.3771 -0.9974  0.4688
15348SOL     OW48050   9.210   2.880   2.665 -0.4742 -0.5290  0.2692
15348SOL    HW148051   9.295   2.835   2.665  0.0484  0.3377 -1.9118
15348SOL    HW248052   9.150   2.818   2.706  1.0944 -1.3349  1.4888
15349SOL     OW48053   6.637   4.838   2.492  0.9143  0.0211 -0.0738
15349SOL    HW148054   6.625   4.877   2.406 -0.3836  0.4504  0.2778
15349SOL    HW248055   6.715   4.784   2.484 -0.0700 -1.2035 -1.9493
15350SOL     OW48056   0.938   8.612   6.596  0.4137 -0.2818 -0.2609
15350SOL    HW148057   0.962   8.690   6.646 -0.6548  0.6154 -1.0880
15350SOL    HW248058   0.873   8.568   6.650  1.5772 -1.0506  0.5636
15351SOL     OW48059   7.808   6.900  10.256 -0.1992 -0.1282 -0.3698
15351SOL    HW148060   7.739   6.892  10.190 -0.0178  0.6835 -0.6768
15351SOL    HW248061   7.818   6.995  10.268 -0.0768 -0.2679  0.6635
15352SOL     OW48062   0.659   9.847   0.842 -0.0551 -0.0604 -0.1411
15352SOL    HW148063   0.609   9.800   0.776 -1.1721 -0.5232  1.0071
15352SOL    HW248064   0.611   9.928   0.855  0.5297  0.3325 -0.3457
15353SOL     OW48065  10.542   0.371   8.284  0.2368 -0.5399 -0.8128
15353SOL    HW148066  10.589   0.289   8.268 -1.6186 -1.4257 -2.0351
15353SOL    HW248067  10.452   0.353   8.258 -1.0882  0.7804  2.3246
15354SOL     OW48068   3.939   7.761   5.201 -0.2036 -0.1483 -0.1954
15354SOL    HW148069   3.903   7.765   5.290 -0.7106  0.1763 -0.4178
15354SOL    HW248070   4.031   7.786   5.212  0.7110 -3.3815  0.7716
15355SOL     OW48071   1.258   5.799   2.654 -0.6770 -0.0956  0.4369
15355SOL    HW148072   1.196   5.807   2.727 -1.8303  0.4365 -0.5742
15355SOL    HW248073   1.269   5.889   2.623  1.0241 -0.1089  0.9137
15356SOL     OW48074  10.650   7.810   8.102  0.0921 -0.3975 -0.5023
15356SOL    HW148075  10.660   7.893   8.149  0.6705 -0.2477 -0.8861
15356SOL    HW248076  10.614   7.750   8.168  2.2524 -0.5868  0.5876
15357SOL     OW48077   7.855   2.595   2.209 -0.3411 -0.4639  0.0968
15357SOL    HW148078   7.929   2.535   2.217 -0.4363 -0.4180  1.7877
15357SOL    HW248079   7.789   2.546   2.161  0.2196 -1.0633 -0.0788
15358SOL     OW48080   8.719   5.689  10.914 -0.3495 -0.3677 -1.0298
15358SOL    HW148081   8.768   5.607  10.922 -0.9936 -0.6934 -0.2501
15358SOL    HW248082   8.754   5.745  10.983  1.4435  0.7800 -2.7480
15359SOL     OW48083   7.081   7.160   3.925  0.5237 -0.7212 -0.3660
15359SOL    HW148084   7.147   7.175   3.857 -1.0252  0.1303 -1.7375
15359SOL    HW248085   7.090   7.234   3.985  0.2498 -0.1296 -1.0408
15360SOL     OW48086   3.205   1.477   1.941 -0.5338 -0.7419 -0.2951
15360SOL    HW148087   3.253   1.426   2.006  0.8303  0.6965 -0.1171
15360SOL    HW248088   3.270   1.537   1.904 -1.9577  0.5642 -0.8001
15361SOL     OW48089   3.105   4.393   1.737 -0.0987  0.1274  0.2308
15361SOL    HW148090   3.181   4.336   1.751  1.4063  2.3724  1.7542
15361SOL    HW248091   3.037   4.356   1.793  0.2194 -1.2127 -0.2259
15362SOL     OW48092   8.322   1.843   2.851 -0.2107 -0.1661  0.4867
15362SOL    HW148093   8.293   1.908   2.787  0.9272  0.2632  0.3937
15362SOL    HW248094   8.254   1.775   2.848  0.0342 -0.3717 -1.5092
15363SOL     OW48095  10.692   8.982   2.148 -0.2294  0.1254  0.4962
15363SOL    HW148096  10.750   9.011   2.077 -0.5033  0.6365  0.4735
15363SOL    HW248097  10.717   9.037   2.222  2.1239 -2.3754  1.7512
15364SOL     OW48098  10.153   5.777   6.704  0.3935  0.3343 -1.0075
15364SOL    HW148099  10.145   5.855   6.650  2.0292 -0.4252 -2.4521
15364SOL    HW248100  10.176   5.810   6.791 -2.2467  1.5732 -0.6742
15365SOL     OW48101   9.499   8.260   6.900  0.5166 -0.4980  0.2024
15365SOL    HW148102   9.485   8.196   6.830  1.6827 -1.0011  0.4094
15365SOL    HW248103   9.416   8.262   6.947 -0.5875  0.4597 -1.6678
15366SOL     OW48104   3.119   5.546   1.070 -0.0033 -0.0779 -0.6162
15366SOL    HW148105   3.121   5.497   1.152  3.3980 -0.7784 -0.9804
15366SOL    HW248106   3.080   5.631   1.094  1.2318 -0.1223  1.8241
15367SOL     OW48107   2.669   8.628   4.711 -0.1646 -0.0630  0.0163
15367SOL    HW148108   2.729   8.566   4.752 -0.8564 -1.4270 -0.9904
15367SOL    HW248109   2.726   8.692   4.668  0.5558  0.2218  1.3341
15368SOL     OW48110   4.475   5.881   8.665  0.0391  0.3037  0.1707
15368SOL    HW148111   4.400   5.886   8.606  0.3202  0.2987 -0.1900
15368SOL    HW248112   4.455   5.944   8.734 -0.3872  0.1617  0.1816
15369SOL     OW48113   8.859   1.287   3.093  0.3497 -0.3786  0.0839
15369SOL    HW148114   8.934   1.274   3.035  1.1394 -2.6502  1.5068
15369SOL    HW248115   8.790   1.231   3.055  0.4175 -0.7826  0.5531
15370SOL     OW48116  11.008   3.622   7.106 -0.6815  0.0985  0.5670
15370SOL    HW148117  11.012   3.526   7.115 -0.8471  0.1863  1.7838
15370SOL    HW248118  10.960   3.651   7.184 -0.8996  1.1545  0.0509
15371SOL     OW48119   7.499   7.454   3.172 -0.0473 -0.7232 -0.2847
15371SOL    HW148120   7.557   7.433   3.099 -1.9782  0.1027 -2.1471
15371SOL    HW248121   7.434   7.384   3.172 -2.1564  1.0784 -1.7766
15372SOL     OW48122   4.274   8.433   8.245  0.4101  0.6095 -0.0437
15372SOL    HW148123   4.207   8.425   8.177  0.5079 -0.1383 -0.0592
15372SOL    HW248124   4.305   8.524   8.238  0.3831  0.5562 -0.9561
15373SOL     OW48125   2.056   6.290   0.926  0.1391  0.3312 -0.1322
15373SOL    HW148126   1.969   6.254   0.910  0.0185  0.3503  0.4522
15373SOL    HW248127   2.044   6.350   1.000  0.5633  0.6721 -0.3348
15374SOL     OW48128   1.084  10.441   0.731  0.2390 -0.0981 -0.5956
15374SOL    HW148129   1.163  10.389   0.748  1.7079  1.4189 -2.3418
15374SOL    HW248130   1.012  10.387   0.766  1.9432 -1.8974  0.3426
15375SOL     OW48131   7.852   7.977   0.541  0.0442  0.0512  0.2894
15375SOL    HW148132   7.887   7.889   0.526 -0.2183 -0.1370  0.7854
15375SOL    HW248133   7.895   8.031   0.474 -1.3879 -0.8357 -1.4626
15376SOL     OW48134   7.857   5.977   0.526 -0.3218  0.1611  1.0652
15376SOL    HW148135   7.839   5.898   0.578 -2.0098 -0.9795 -1.0971
15376SOL    HW248136   7.942   5.959   0.485 -1.4232 -1.3746 -0.7127
15377SOL     OW48137   6.091   0.424   4.681 -0.4924 -0.0145  0.5210
15377SOL    HW148138   6.002   0.393   4.692 -0.4535  0.3031  2.0101
15377SOL    HW248139   6.133   0.360   4.624 -1.9061  0.3417 -0.9941
15378SOL     OW48140  10.662   3.466   9.680  0.3417  0.3947 -0.0336
15378SOL    HW148141  10.643   3.526   9.752  1.9067  0.6872  0.1748
15378SOL    HW248142  10.609   3.498   9.607  0.5247  1.5297  0.3155
15379SOL     OW48143   3.864   6.952   8.349  0.1545 -0.2086 -0.3796
15379SOL    HW148144   3.916   7.021   8.390  0.4246 -1.3035  1.2024
15379SOL    HW248145   3.890   6.872   8.395 -1.2511 -1.1303 -1.1276
15380SOL     OW48146   9.828   0.328  10.913  0.1049  0.2331  0.2717
15380SOL    HW148147   9.745   0.364  10.881 -0.9518 -2.3094 -0.0287
15380SOL    HW248148   9.895   0.375  10.864 -1.2383  0.9622 -0.9226
15381SOL     OW48149   4.190   0.327  10.085 -0.6921 -0.2010 -0.3271
15381SOL    HW148150   4.209   0.379  10.007  0.0315  0.5967  0.3673
15381SOL    HW248151   4.117   0.372  10.127 -0.6480 -0.2509 -0.1937
15382SOL     OW48152   9.594   6.381  10.219 -0.0847 -0.0184  0.1627
15382SOL    HW148153   9.534   6.344  10.283  0.1336 -2.0899 -0.7454
15382SOL    HW248154   9.653   6.436  10.270 -1.3678  0.2681  1.3771
15383SOL     OW48155   5.602   9.030   5.677  0.4080  0.0138  0.5232
15383SOL    HW148156   5.690   9.066   5.680  0.1077  0.8819 -0.6871
15383SOL    HW248157   5.586   9.011   5.585  0.0870 -2.1052  0.9600
15384SOL     OW48158   4.749   2.223  10.379  0.3270  0.5000  0.7196
15384SOL    HW148159   4.659   2.235  10.409  0.9073  3.1066  1.6103
15384SOL    HW248160   4.798   2.200  10.458  0.6696  0.3727  0.4735
15385SOL     OW48161   7.941  10.946   8.927  0.0715 -0.3261 -0.0907
15385SOL    HW148162   7.994  10.986   8.995  0.8945 -1.3371 -0.1165
15385SOL    HW248163   8.002  10.932   8.854 -0.4882 -0.4853 -0.5367
15386SOL     OW48164   9.075   4.661  10.474 -0.2030 -0.3433  0.9612
15386SOL    HW148165   9.094   4.580  10.427 -1.3305 -0.8328  1.3215
15386SOL    HW248166   9.152   4.674  10.531  0.0369 -1.0924  0.8175
15387SOL     OW48167   4.065   9.458  10.511  0.1327  0.3901  0.0661
15387SOL    HW148168   4.052   9.550  10.534  0.0935  0.0353  1.6039
15387SOL    HW248169   3.977   9.420  10.508  0.2126  0.1300  0.7499
15388SOL     OW48170   2.209   0.798   7.527  0.1198  0.3352 -0.2280
15388SOL    HW148171   2.203   0.854   7.605 -0.8569  2.7883 -1.9356
15388SOL    HW248172   2.269   0.845   7.469  0.6786 -1.3507 -1.0856
15389SOL     OW48173   3.067  10.761   3.732  0.5991  0.0311  0.2150
15389SOL    HW148174   3.066  10.834   3.794 -0.3809  0.4534 -0.2807
15389SOL    HW248175   2.997  10.781   3.670  0.5371 -1.1573 -0.1260
15390SOL     OW48176   5.527   8.509   2.223  0.5242  0.1097  0.6249
15390SOL    HW148177   5.489   8.571   2.160 -0.5420 -0.6281  0.5272
15390SOL    HW248178   5.465   8.508   2.296  0.8185 -0.4439  0.8710
15391SOL     OW48179   3.011   6.771   9.815 -0.1029  0.3000  0.4297
15391SOL    HW148180   2.919   6.780   9.790 -0.0986  1.3778  0.7548
15391SOL    HW248181   3.012   6.787   9.910  0.6370  2.1325  0.1475
15392SOL     OW48182   1.906   7.432   1.099 -0.6600 -0.5264 -0.2396
15392SOL    HW148183   1.871   7.508   1.145  1.4505  1.0035 -0.9600
15392SOL    HW248184   1.829   7.388   1.063 -2.0167  0.7747  0.9209
15393SOL     OW48185   0.922  10.483   4.853 -0.5874  0.3536 -0.0245
15393SOL    HW148186   1.012  10.473   4.820 -0.5921 -0.2509  0.1426
15393SOL    HW248187   0.903  10.401   4.896 -1.2321  0.4782 -0.0636
15394SOL     OW48188  11.039   8.970   5.936  0.0062  0.5024 -0.4797
15394SOL    HW148189  11.043   8.901   5.870 -1.0834  0.2800 -0.3375
15394SOL    HW248190  11.129   8.981   5.965  0.0534 -2.0535  0.6938
15395SOL     OW48191   1.828   6.960   2.836  0.3257 -0.4055 -0.5646
15395SOL    HW148192   1.879   7.040   2.823  0.0077  0.1845  1.4618
15395SOL    HW248193   1.866   6.897   2.774  2.4687  0.4754 -0.2333
15396SOL     OW48194   7.470   5.373   7.294 -0.5921  0.2312  0.0793
15396SOL    HW148195   7.520   5.407   7.369 -0.0978  0.5007 -0.3641
15396SOL    HW248196   7.527   5.388   7.219 -2.3136  2.8107 -0.8220
15397SOL     OW48197   4.139  10.528   6.496  0.1855 -0.3214  0.0794
15397SOL    HW148198   4.054  10.496   6.467  0.8135 -0.5823 -1.6171
15397SOL    HW248199   4.183  10.452   6.534 -0.5343 -0.0510  1.4981
15398SOL     OW48200   4.700  10.394   5.062 -0.1644  0.2466  0.0031
15398SOL    HW148201   4.668  10.338   4.992  2.4276 -0.8058 -0.4653
15398SOL    HW248202   4.738  10.470   5.017 -0.8646  0.8875  0.4592
15399SOL     OW48203   0.172   9.639   3.960 -0.4473  0.3775 -0.1036
15399SOL    HW148204   0.107   9.684   4.015 -0.0970 -0.4274  1.0216
15399SOL    HW248205   0.134   9.639   3.872 -2.2940 -0.6350  0.6307
15400SOL     OW48206   6.291   4.498   7.092 -0.3172  0.0991  0.3792
15400SOL    HW148207   6.271   4.418   7.043  1.0492 -1.3389  2.0402
15400SOL    HW248208   6.369   4.533   7.049  0.1985 -0.5141  0.8130
15401SOL     OW48209   8.501   0.576   6.165  0.2400 -0.2252  0.1707
15401SOL    HW148210   8.474   0.497   6.119  1.5456 -0.4199 -0.3091
15401SOL    HW248211   8.566   0.546   6.229  0.2715  0.3718  0.4297
15402SOL     OW48212   1.332   4.934   5.956 -0.3303 -0.1269  0.1634
15402SOL    HW148213   1.300   5.001   5.896  3.0023 -0.2083 -1.9134
15402SOL    HW248214   1.309   4.967   6.043  0.7544  3.5497 -0.7937
15403SOL     OW48215   0.861   5.223  10.047 -0.1145  0.6302  0.7168
15403SOL    HW148216   0.819   5.309  10.042 -1.1814  0.1888  1.5607
15403SOL    HW248217   0.860   5.190   9.957  0.0792  1.3962  0.4317
15404SOL     OW48218   9.959   2.594  10.704 -0.6302 -0.5624 -0.0896
15404SOL    HW148219   9.914   2.678  10.702  1.7822  0.8242 -0.9441
15404SOL    HW248220   9.994   2.588  10.794  1.5723  0.8310 -0.7533
15405SOL     OW48221   3.459   4.280   2.868  0.1067 -0.3090  0.1117
15405SOL    HW148222   3.453   4.256   2.775 -2.4976 -2.1832  0.6665
15405SOL    HW248223   3.400   4.355   2.877 -0.3183 -0.6713  0.3892
15406SOL     OW48224  10.630   6.831   8.067  0.2187 -0.1314  0.1960
15406SOL    HW148225  10.546   6.840   8.021  0.4152 -1.5068 -0.4720
15406SOL    HW248226  10.606   6.832   8.160 -0.5124 -0.2373  0.0170
15407SOL     OW48227   3.446   7.647   7.640 -0.1242 -0.2568  0.0156
15407SOL    HW148228   3.434   7.742   7.647 -1.5176 -0.5347  2.8215
15407SOL    HW248229   3.358   7.611   7.653 -0.0338 -1.9530 -3.2310
15408SOL     OW48230   2.048   5.594   7.562 -0.0356 -0.0294  0.4064
15408SOL    HW148231   2.001   5.600   7.645 -0.2320  0.1532  0.2808
15408SOL    HW248232   2.135   5.561   7.587 -0.4048 -0.9116  0.5726
15409SOL     OW48233   7.083   2.267   2.124  0.2064 -0.0307  0.1270
15409SOL    HW148234   6.996   2.295   2.153  0.3461  1.0587 -0.4454
15409SOL    HW248235   7.143   2.331   2.163  1.0941 -2.2337  2.7118
15410SOL     OW48236   7.748   8.525   7.320  0.0613 -0.0227  0.0539
15410SOL    HW148237   7.815   8.457   7.314 -0.0610 -0.4106  2.1194
15410SOL    HW248238   7.665   8.479   7.313 -0.0853 -0.4914  3.2746
15411SOL     OW48239   2.005   6.168   8.356 -0.4891 -0.3613 -1.2803
15411SOL    HW148240   2.018   6.262   8.370 -0.5349 -0.3954 -1.0050
15411SOL    HW248241   1.911   6.155   8.372 -0.5486 -0.3975 -1.6479
15412SOL     OW48242   6.996   0.184   7.682 -0.0238 -0.2165 -0.1804
15412SOL    HW148243   7.067   0.121   7.698  0.2463 -0.3885 -1.8309
15412SOL    HW248244   7.036   0.251   7.627 -0.5197  1.0209  0.9045
15413SOL     OW48245   7.157   6.938   3.142 -0.2895 -0.3686 -0.0235
15413SOL    HW148246   7.122   6.906   3.225  0.3976  1.4282  1.0160
15413SOL    HW248247   7.243   6.974   3.165 -0.4665  0.9789 -1.3454
15414SOL     OW48248   1.304   2.884   5.832  0.6481 -0.1010  0.2727
15414SOL    HW148249   1.260   2.852   5.911 -0.5357 -1.2442 -0.7912
15414SOL    HW248250   1.261   2.966   5.811  0.1175 -0.4073  0.1485
15415SOL     OW48251   4.413  10.529   1.802  0.2588  0.1890  0.3936
15415SOL    HW148252   4.427  10.484   1.719 -2.0310 -0.6633  0.3689
15415SOL    HW248253   4.475  10.489   1.862 -0.4493 -1.7737 -0.0998
15416SOL     OW48254   9.148   7.844   6.018 -0.1688  0.3766  0.3553
15416SOL    HW148255   9.070   7.802   5.982  1.1947 -1.8879 -0.1579
15416SOL    HW248256   9.116   7.894   6.093 -2.1949  0.1076 -0.2815
15417SOL     OW48257   3.103   0.726   2.074 -0.6958 -0.1591  0.0819
15417SOL    HW148258   3.044   0.793   2.039 -0.3781  0.3832  0.5662
15417SOL    HW248259   3.074   0.713   2.164  0.6022  0.9239  0.6828
15418SOL     OW48260   4.375  10.947   9.923 -0.3941  0.3216 -0.2177
15418SOL    HW148261   4.369  11.008   9.996 -1.5209 -2.2327  1.9679
15418SOL    HW248262   4.469  10.937   9.908  0.2681 -2.2027  3.8973
15419SOL     OW48263   9.745   5.179  10.819  0.4825  0.2768  0.4935
15419SOL    HW148264   9.681   5.131  10.871 -0.0139 -0.3493 -0.6621
15419SOL    HW248265   9.703   5.190  10.734  1.1404  1.5804  0.3197
15420SOL     OW48266   2.498   1.872   9.472 -0.0670  0.2641 -0.3930
15420SOL    HW148267   2.416   1.832   9.499  0.1954 -0.1464 -0.1874
15420SOL    HW248268   2.538   1.807   9.413  0.4061  0.1768  0.0157
15421SOL     OW48269   2.039   2.584   1.507  0.0048  0.1661  0.4676
15421SOL    HW148270   2.067   2.643   1.577  2.8971 -1.1658  0.5664
15421SOL    HW248271   2.044   2.497   1.545  0.0844 -0.4719 -0.9520
15422SOL     OW48272   4.777  10.720   3.869 -0.1614  0.1912 -0.7764
15422SOL    HW148273   4.868  10.718   3.896 -0.5735  0.7385  0.7548
15422SOL    HW248274   4.728  10.738   3.950 -1.5573  0.8112 -1.7181
15423SOL     OW48275   8.240   6.987   1.960 -0.0789  0.6916 -0.0887
15423SOL    HW148276   8.283   6.910   1.997 -0.9376  0.9054  1.4613
15423SOL    HW248277   8.152   6.986   1.999 -0.9156  1.1791 -1.8617
15424SOL     OW48278   0.871   2.156  10.740 -0.1860 -0.3453 -0.4818
15424SOL    HW148279   0.828   2.166  10.825  1.4918  0.7652  0.2993
15424SOL    HW248280   0.929   2.081  10.751  0.3847  0.0902 -0.4719
15425SOL     OW48281   2.126   9.312   5.792  0.0677 -0.2694  0.3706
15425SOL    HW148282   2.096   9.312   5.701 -0.4465 -2.7689  0.4599
15425SOL    HW248283   2.201   9.252   5.792 -0.4084 -0.9046  1.7009
15426SOL     OW48284   4.790   8.554   5.278  0.6126  0.3750  0.0484
15426SOL    HW148285   4.796   8.641   5.238 -0.5416  2.0509  3.1496
15426SOL    HW248286   4.696   8.539   5.288  0.7268 -1.8890 -1.5435
15427SOL     OW48287   7.624   8.547   9.614  0.4621  0.2942 -0.4745
15427SOL    HW148288   7.707   8.594   9.622  1.3345 -1.2627  0.0392
15427SOL    HW248289   7.643   8.474   9.555 -0.2158 -0.7594  0.5633
15428SOL     OW48290   8.805   7.705   3.440 -0.3933 -0.3109 -0.7513
15428SOL    HW148291   8.787   7.798   3.451 -2.0845 -0.9013  3.4545
15428SOL    HW248292   8.897   7.695   3.464 -0.9976  0.0479  2.0740
15429SOL     OW48293   1.244   0.539   0.413 -0.1922 -0.4125 -0.5807
15429SOL    HW148294   1.165   0.490   0.389 -0.3065 -0.3113 -0.4150
15429SOL    HW248295   1.256   0.522   0.506 -1.3385  1.3864 -0.0478
15430SOL     OW48296   1.343   5.111   0.930  0.1818  0.7316  0.1775
15430SOL    HW148297   1.333   5.039   0.867 -1.9698 -0.3118  1.5907
15430SOL    HW248298   1.310   5.075   1.013  1.8525  2.4208  1.6808
15431SOL     OW48299   3.622   2.831   4.228 -0.1875 -1.3002 -0.8008
15431SOL    HW148300   3.682   2.757   4.220  1.5851 -0.0546  0.1819
15431SOL    HW248301   3.679   2.908   4.228 -1.9753  0.1128 -1.9798
15432SOL     OW48302   4.003   2.050   9.886 -0.2850 -0.2529  0.7059
15432SOL    HW148303   4.068   2.032   9.818  0.2427  3.2054  0.1270
15432SOL    HW248304   3.920   2.018   9.849  0.2289  0.2677 -0.9687
15433SOL     OW48305  10.053   5.681   0.487 -0.5507 -0.4218  0.7849
15433SOL    HW148306   9.989   5.714   0.551  1.1608 -0.8387  2.8013
15433SOL    HW248307  10.132   5.664   0.539  1.0001 -0.5532 -1.5105
15434SOL     OW48308   6.409   3.128   6.060 -0.2808 -0.0105 -0.2271
15434SOL    HW148309   6.485   3.145   6.004  1.1160 -0.2809  1.4763
15434SOL    HW248310   6.395   3.034   6.053 -0.0956 -0.0470 -0.1186
15435SOL     OW48311   2.159   7.177   7.021  0.4506  0.3198 -0.6091
15435SOL    HW148312   2.205   7.256   6.993  0.2897  0.4913 -0.3869
15435SOL    HW248313   2.116   7.201   7.103 -2.1444  0.9436 -2.0359
15436SOL     OW48314   8.778   5.790   3.809 -0.9213 -0.5713 -0.3397
15436SOL    HW148315   8.767   5.773   3.716  2.1419  0.6150 -1.0254
15436SOL    HW248316   8.717   5.862   3.827  1.8698  2.7166 -2.7609
15437SOL     OW48317   6.524   2.293   7.688 -0.0857 -0.3936 -0.4374
15437SOL    HW148318   6.532   2.205   7.652  0.1958 -0.2205 -0.8006
15437SOL    HW248319   6.577   2.292   7.767  1.7773  0.0869 -1.6234
15438SOL     OW48320   8.621   7.653   2.929  0.2118 -0.4400  0.0735
15438SOL    HW148321   8.681   7.670   2.857  0.3685  1.6875  0.6392
15438SOL    HW248322   8.645   7.566   2.961  2.1463 -0.1743 -0.5355
15439SOL     OW48323   0.764  10.881   4.814 -0.1496  0.0564 -0.1336
15439SOL    HW148324   0.809  10.874   4.730  0.3277  0.9415  0.0380
15439SOL    HW248325   0.751  10.975   4.827 -0.8962 -0.1137  0.4301
15440SOL     OW48326   2.950   7.189   9.449 -0.1648  0.0270  0.1784
15440SOL    HW148327   2.936   7.195   9.355  1.0552  0.3673  0.0020
15440SOL    HW248328   2.993   7.105   9.462 -0.8491 -0.2851  0.5188
15441SOL     OW48329   0.188   3.837   2.938  0.1289  0.3377 -1.0112
15441SOL    HW148330   0.142   3.914   2.904 -1.0638 -0.4069 -1.1197
15441SOL    HW248331   0.211   3.861   3.027 -0.4623  0.7329 -0.9579
15442SOL     OW48332   0.884   0.659   8.218  0.7769 -0.8149  0.2235
15442SOL    HW148333   0.904   0.740   8.171  0.0133 -0.5790  0.2893
15442SOL    HW248334   0.812   0.683   8.277  1.3884 -1.2279  1.1562
15443SOL     OW48335   3.492   3.999   5.063  0.1549 -0.1849  0.0002
15443SOL    HW148336   3.569   4.041   5.024  0.0117 -0.5716 -0.7103
15443SOL    HW248337   3.425   4.067   5.064  0.5854  0.2341  0.8764
15444SOL     OW48338   9.914   5.548   2.542 -0.1636 -0.1053  0.6992
15444SOL    HW148339   9.892   5.613   2.475 -0.0802  0.0611  0.8337
15444SOL    HW248340   9.836   5.542   2.597 -0.9834 -1.6792 -0.5543
15445SOL     OW48341   9.679   4.926   0.402 -0.3583  0.4668  0.4641
15445SOL    HW148342   9.685   4.895   0.492  0.5045  1.6939  0.8527
15445SOL    HW248343   9.585   4.930   0.384 -0.5286 -0.1698  1.1520
15446SOL     OW48344   6.297   5.519   1.538  0.2164 -0.7130 -0.1120
15446SOL    HW148345   6.221   5.487   1.489 -0.6289 -0.0298  0.7098
15446SOL    HW248346   6.293   5.471   1.622  0.2525 -0.1324  0.2261
15447SOL     OW48347  10.090   7.665   5.036 -0.2987 -0.0336 -0.1665
15447SOL    HW148348  10.102   7.640   4.944  0.8088  1.2306 -0.3865
15447SOL    HW248349  10.040   7.746   5.033 -0.8318 -0.3274  0.3950
15448SOL     OW48350   2.582   3.575   6.492  0.4667 -0.3330 -0.0804
15448SOL    HW148351   2.634   3.594   6.570  0.1414 -0.0304  0.0649
15448SOL    HW248352   2.646   3.575   6.421  0.4193  2.2674 -0.2469
15449SOL     OW48353  10.918   2.299  10.439  0.1746  0.1337 -0.1865
15449SOL    HW148354  10.930   2.386  10.402  0.8142 -0.7117 -2.1125
15449SOL    HW248355  10.935   2.239  10.366  0.8314 -1.6465  1.3374
15450SOL     OW48356   3.752   3.577   3.483 -0.7878 -0.3078 -0.4044
15450SOL    HW148357   3.843   3.550   3.469 -1.1260 -2.0595  0.4628
15450SOL    HW248358   3.700   3.509   3.440 -1.6924 -0.6977  1.2244
15451SOL     OW48359   6.318  10.909   7.061  0.0981 -0.7041  0.0311
15451SOL    HW148360   6.255  10.975   7.089  1.2965  0.1386  0.8677
15451SOL    HW248361   6.364  10.884   7.142  1.1706 -0.9117 -0.6265
15452SOL     OW48362   8.460   6.804   2.630 -0.3493 -0.1513  0.4933
15452SOL    HW148363   8.535   6.771   2.680 -0.6218  0.4240  1.2954
15452SOL    HW248364   8.488   6.796   2.539  0.5096 -0.3742  0.7571
15453SOL     OW48365   9.949   0.355   3.923  0.0611 -0.6133 -0.4604
15453SOL    HW148366   9.879   0.334   3.984 -0.0707 -0.4694 -0.5611
15453SOL    HW248367   9.935   0.447   3.901  2.0981  0.3815  1.9074
15454SOL     OW48368   5.778  10.785   3.458  0.4060  0.2026 -0.0578
15454SOL    HW148369   5.801  10.701   3.416  1.6290  0.9692 -0.9908
15454SOL    HW248370   5.837  10.791   3.533 -1.8840 -1.2395  2.0318
15455SOL     OW48371   8.976   7.354  10.779  0.2816  0.3436  0.1786
15455SOL    HW148372   8.952   7.318  10.865  0.1211  1.7973  0.7713
15455SOL    HW248373   8.895   7.351  10.728  0.2744 -0.1410  0.2178
15456SOL     OW48374   3.355   6.547   4.304 -0.3094  0.4412 -0.2371
15456SOL    HW148375   3.295   6.612   4.269  0.1120  1.1818  0.3979
15456SOL    HW248376   3.354   6.561   4.398  1.4730  1.0112 -0.2668
15457SOL     OW48377   0.981   3.784   7.164 -0.1737  0.0818 -0.0780
15457SOL    HW148378   1.018   3.762   7.078 -0.6501 -0.1916 -0.2135
15457SOL    HW248379   1.046   3.842   7.203 -0.7453  1.6616 -1.3435
15458SOL     OW48380  10.744   7.728  10.888 -0.6242 -0.3211 -0.3137
15458SOL    HW148381  10.716   7.819  10.882  1.6581  0.5566  0.9096
15458SOL    HW248382  10.772   7.717  10.979  0.5641 -1.7848 -0.8038
15459SOL     OW48383   5.789   4.534  10.025  0.3506  0.3008  0.0590
15459SOL    HW148384   5.812   4.442  10.023 -2.4936 -0.5279 -2.1544
15459SOL    HW248385   5.868   4.578  10.056  2.3996 -2.6920 -0.4659
15460SOL     OW48386   2.611  10.645  10.086  0.3103  0.1784  0.1062
15460SOL    HW148387   2.547  10.586  10.127  1.2180 -0.4794  0.6159
15460SOL    HW248388   2.583  10.733  10.113 -0.9819 -0.0067 -0.5475
15461SOL     OW48389   5.436   1.459   2.819  0.3311 -0.3417  0.0475
15461SOL    HW148390   5.446   1.544   2.776  0.8287 -0.7356 -0.6470
15461SOL    HW248391   5.434   1.396   2.747  1.3773 -1.0354  0.5950
15462SOL     OW48392   5.658   8.667   2.750  0.5953  0.2164 -0.0924
15462SOL    HW148393   5.704   8.744   2.717  1.8615 -0.5044 -0.0767
15462SOL    HW248394   5.727   8.608   2.779 -0.2340 -1.6862 -1.7267
15463SOL     OW48395   5.162   0.467   9.517 -0.7955 -0.5823 -0.3230
15463SOL    HW148396   5.117   0.549   9.539  0.4378 -0.0556  0.3457
15463SOL    HW248397   5.250   0.495   9.492  0.3748 -1.8503  2.0712
15464SOL     OW48398   0.403   3.027   6.948  0.1002  0.0210  0.3089
15464SOL    HW148399   0.382   2.976   7.027  0.2621  0.9937  0.9891
15464SOL    HW248400   0.334   3.093   6.943  0.2502  0.1384 -0.2061
15465SOL     OW48401   3.938   6.836   7.462  0.1118 -0.1672 -0.2763
15465SOL    HW148402   3.883   6.882   7.399 -1.7229 -0.0599  1.3024
15465SOL    HW248403   3.877   6.783   7.513  1.2688  0.8790  2.3798
15466SOL     OW48404   4.655   6.004   4.954  0.0709 -0.6529  0.0063
15466SOL    HW148405   4.574   5.959   4.930 -0.6585  0.5431  0.1482
15466SOL    HW248406   4.703   5.940   5.006  0.2163 -2.1349 -1.8433
15467SOL     OW48407   3.253   1.120   1.586 -0.2196 -0.5290 -0.2770
15467SOL    HW148408   3.236   1.055   1.654 -0.4572  1.2441  1.4450
15467SOL    HW248409   3.331   1.166   1.616 -2.3986  2.7701  0.8929
15468SOL     OW48410   2.844   6.748  10.456  0.1549 -0.0478 -0.5874
15468SOL    HW148411   2.764   6.787  10.492 -0.1954 -0.7647 -0.5784
15468SOL    HW248412   2.813   6.684  10.392  0.7323 -0.1706 -0.7525
15469SOL     OW48413   4.840   6.932   9.775  0.2803  0.0705  0.3720
15469SOL    HW148414   4.855   7.008   9.719 -1.9698 -0.6394 -1.3414
15469SOL    HW248415   4.747   6.936   9.797  0.4876 -1.2732  1.6844
15470SOL     OW48416   7.945   8.522   9.645  0.1729 -0.1969  0.1107
15470SOL    HW148417   7.896   8.448   9.609  0.7199 -0.1076 -0.8482
15470SOL    HW248418   7.921   8.523   9.738 -0.4883 -1.0574 -0.0322
15471SOL     OW48419   9.909   0.600   2.892 -0.6187 -0.1435 -0.0742
15471SOL    HW148420   9.835   0.655   2.867 -3.1513 -2.2806  2.0264
15471SOL    HW248421   9.923   0.541   2.818 -1.5769 -0.2289 -0.1925
15472SOL     OW48422   6.350  10.628   7.534 -0.8033  0.5481 -0.2495
15472SOL    HW148423   6.364  10.678   7.454  0.9995  1.1774  0.4069
15472SOL    HW248424   6.364  10.692   7.604  0.2402 -0.5636  0.5955
15473SOL     OW48425   2.144  10.910   9.815  0.0603 -0.0017 -0.7094
15473SOL    HW148426   2.193  10.958   9.748 -0.8380 -0.9405 -2.0862
15473SOL    HW248427   2.127  10.975   9.883 -0.7363  1.5616 -2.3119
15474SOL     OW48428   7.734   6.626   7.967 -0.8977 -0.3367  0.6855
15474SOL    HW148429   7.699   6.708   7.932 -0.5255  0.0918  1.3103
15474SOL    HW248430   7.766   6.648   8.054 -0.5617 -1.0920  0.7634
15475SOL     OW48431   3.645   5.678   2.693  0.3539  0.0653  0.0697
15475SOL    HW148432   3.622   5.585   2.698  0.3026  0.0022 -1.0592
15475SOL    HW248433   3.710   5.682   2.624 -0.1270  0.9580 -0.3409
15476SOL     OW48434  10.166   5.375   7.178  0.5098 -0.6197 -0.1484
15476SOL    HW148435  10.244   5.424   7.151 -1.6997  2.5589 -1.3661
15476SOL    HW248436  10.184   5.350   7.269  2.8449  0.1780 -0.3267
15477SOL     OW48437   2.622   1.192   0.088 -0.8395 -0.0564  0.0282
15477SOL    HW148438   2.689   1.253   0.118  0.4166 -0.0827 -2.4456
15477SOL    HW248439   2.539   1.236   0.108 -0.0644  0.7998  1.5228
15478SOL     OW48440   3.808   4.187   1.622 -0.3954 -0.5358  0.0956
15478SOL    HW148441   3.822   4.257   1.559 -0.1744 -0.6908 -0.0306
15478SOL    HW248442   3.880   4.197   1.685 -1.7822  0.9289  1.5487
15479SOL     OW48443   9.902  10.842   4.801  0.1488 -0.2914  0.4570
15479SOL    HW148444   9.971  10.785   4.767 -0.0288 -0.2742  0.0630
15479SOL    HW248445   9.837  10.781   4.837 -0.6214 -0.4046 -1.0605
15480SOL     OW48446   5.872   2.897   2.896 -0.1429 -0.2112 -0.1958
15480SOL    HW148447   5.962   2.865   2.892 -0.9945 -3.1685  0.9862
15480SOL    HW248448   5.858   2.920   2.988 -0.5010  0.5511 -0.4349
15481SOL     OW48449   3.598   1.558   9.442 -0.6801 -0.0748 -0.5287
15481SOL    HW148450   3.626   1.518   9.359 -1.2351 -0.0182 -0.7431
15481SOL    HW248451   3.520   1.509   9.467 -1.5617  1.0620 -0.9542
15482SOL     OW48452   3.676   8.180  10.529 -0.0759  0.4643 -0.0992
15482SOL    HW148453   3.747   8.115  10.520  0.0267  0.7133 -1.3021
15482SOL    HW248454   3.719   8.256  10.568 -0.4782 -0.5916  2.6495
15483SOL     OW48455   7.482   3.010   7.889 -0.3211  0.2113 -0.1210
15483SOL    HW148456   7.422   3.064   7.940 -0.6617 -0.5002  0.2378
15483SOL    HW248457   7.569   3.047   7.907 -0.5470  0.6180  0.1390
15484SOL     OW48458   4.760   9.395   3.792 -0.0850  0.5086  0.5911
15484SOL    HW148459   4.695   9.453   3.832 -1.2439 -1.0132  0.9950
15484SOL    HW248460   4.769   9.428   3.703 -2.3445  0.0662  0.1348
15485SOL     OW48461   5.941   8.587   0.799  0.2625 -0.2383  0.6227
15485SOL    HW148462   5.978   8.644   0.867  1.2618  1.1526 -1.0230
15485SOL    HW248463   6.000   8.596   0.725 -1.0428 -1.3787 -0.6094
15486SOL     OW48464   1.007   1.939   9.636  0.6245  0.7479  0.3029
15486SOL    HW148465   0.937   1.987   9.680 -1.3394 -1.4525 -0.1572
15486SOL    HW248466   0.989   1.950   9.542  0.9359  0.2110  0.1743
15487SOL     OW48467   1.934   6.505   3.112  0.4531 -0.2827 -0.1090
15487SOL    HW148468   1.906   6.461   3.192  0.0753  0.8560  0.4046
15487SOL    HW248469   1.855   6.550   3.080  0.8651  0.1485 -0.5344
15488SOL     OW48470  10.540   5.903   2.364  0.2366 -0.5139 -0.0119
15488SOL    HW148471  10.584   5.829   2.406 -0.4976 -0.4756  0.8655
15488SOL    HW248472  10.536   5.879   2.271  1.3682 -0.8684  0.0157
15489SOL     OW48473  10.874   4.478   7.277  0.0335 -0.1813 -0.5898
15489SOL    HW148474  10.780   4.463   7.290  0.2927 -0.9782  0.5247
15489SOL    HW248475  10.900   4.412   7.212  0.0033 -0.6351 -0.1508
15490SOL     OW48476   6.064   6.048   3.399  0.1495 -0.1727  0.8627
15490SOL    HW148477   6.142   6.022   3.448  0.7992 -1.3534 -0.7280
15490SOL    HW248478   6.025   5.966   3.370 -0.4360  0.4805 -0.2646
15491SOL     OW48479   9.742   1.950   0.253  0.1557  0.1191 -0.5526
15491SOL    HW148480   9.760   1.858   0.235 -0.2259 -0.2628  0.9294
15491SOL    HW248481   9.791   1.997   0.185  0.6965 -1.1423 -1.0768
15492SOL     OW48482   3.136   2.320   7.886  0.2758 -0.0905 -0.1268
15492SOL    HW148483   3.101   2.264   7.816 -0.6272 -0.4437  0.5981
15492SOL    HW248484   3.096   2.287   7.966 -1.5416  2.5657  0.1620
15493SOL     OW48485   1.390   9.117   3.536 -0.3607 -0.1551 -0.1772
15493SOL    HW148486   1.453   9.116   3.608  0.8941  0.9811 -1.2167
15493SOL    HW248487   1.315   9.165   3.571  0.0886  0.0765  0.4871
15494SOL     OW48488   9.125   6.600  10.856 -0.1270 -0.2570  0.7929
15494SOL    HW148489   9.141   6.606  10.950  0.2961 -1.9227  0.8547
15494SOL    HW248490   9.207   6.629  10.816 -0.3441  0.5538  0.9326
15495SOL     OW48491   9.763   2.317   2.212  0.0959  0.5306 -0.1227
15495SOL    HW148492   9.851   2.311   2.173 -0.5023  1.5967 -1.7536
15495SOL    HW248493   9.735   2.406   2.192 -1.5355  0.0713  0.0109
15496SOL     OW48494   9.577   6.604  10.601  0.3275  0.4858  0.0661
15496SOL    HW148495   9.582   6.509  10.594  2.1135  0.3559  2.0439
15496SOL    HW248496   9.645   6.636  10.542 -0.6447  0.5994 -1.0229
15497SOL     OW48497  10.504   7.396   2.665 -0.4439 -0.1587  0.2739
15497SOL    HW148498  10.585   7.354   2.696  0.3060  1.2532  0.3035
15497SOL    HW248499  10.532   7.482   2.636 -2.0440  0.5475  0.7469
15498SOL     OW48500   5.481   0.506   4.451 -0.3686 -0.6656  0.1589
15498SOL    HW148501   5.446   0.420   4.472  0.4486 -1.0781 -0.1074
15498SOL    HW248502   5.475   0.512   4.355  2.4203 -1.7572 -0.1831
15499SOL     OW48503   5.932   9.287   6.385  0.2343 -0.1001 -0.3248
15499SOL    HW148504   5.876   9.364   6.397  0.4208 -0.0931  0.6017
15499SOL    HW248505   5.940   9.278   6.290 -0.8141  0.2760 -0.4633
15500SOL     OW48506   0.133   5.839   4.279 -0.0233 -0.2032 -0.1070
15500SOL    HW148507   0.076   5.778   4.232  0.2344 -0.1313 -0.5152
15500SOL    HW248508   0.074   5.906   4.313 -0.6003 -1.6192  1.9250
15501SOL     OW48509   1.726   2.767   7.442  0.0637  0.4229  0.3498
15501SOL    HW148510   1.666   2.693   7.451 -0.8706  1.2560  1.2521
15501SOL    HW248511   1.779   2.765   7.521  1.4510 -0.4692 -0.5692
15502SOL     OW48512   0.813   1.203  10.017  0.0982 -0.1027  0.1989
15502SOL    HW148513   0.835   1.251   9.937 -2.8455  1.0618 -0.0354
15502SOL    HW248514   0.796   1.270  10.082  0.5375 -0.9942  1.2668
15503SOL     OW48515   0.057   2.707  10.376  0.1013 -0.0958  0.0086
15503SOL    HW148516   0.049   2.631  10.320  0.5918  0.1561 -0.4115
15503SOL    HW248517   0.147   2.702  10.411  0.5343  0.8832 -0.9131
15504SOL     OW48518   1.834   0.510   6.270  0.1689 -0.1447 -0.0390
15504SOL    HW148519   1.852   0.419   6.248 -1.8358 -0.4121 -0.7302
15504SOL    HW248520   1.743   0.511   6.300  0.8675  1.2509  2.3762
15505SOL     OW48521   6.582   3.107   9.365 -0.1016  0.0857 -0.2595
15505SOL    HW148522   6.520   3.160   9.415 -0.5509 -0.4776 -0.2059
15505SOL    HW248523   6.528   3.040   9.323  0.4596 -0.3777 -0.2654
15506SOL     OW48524  10.286   1.743   8.685  0.3663 -0.0196  0.4251
15506SOL    HW148525  10.249   1.814   8.632 -0.8073 -0.2342  0.9194
15506SOL    HW248526  10.318   1.680   8.621  1.3684  0.9124 -0.0188
15507SOL     OW48527   3.831   8.381  10.635 -0.3934 -0.3880 -0.8199
15507SOL    HW148528   3.922   8.356  10.650 -0.1308  1.1899  0.5635
15507SOL    HW248529   3.835   8.470  10.601 -1.4290  0.4354  1.0511
15508SOL     OW48530   1.828   5.433   4.161 -0.0842 -0.1392  0.0574
15508SOL    HW148531   1.774   5.475   4.094  2.5272  0.9866 -1.4927
15508SOL    HW248532   1.917   5.458   4.139  1.2411 -2.8672  1.7607
15509SOL     OW48533   9.946   5.889   8.182 -0.2718  0.0212 -0.3017
15509SOL    HW148534   9.938   5.952   8.110  3.3853  1.0833 -0.0017
15509SOL    HW248535   9.935   5.942   8.261  0.3545 -0.1833 -0.0713
15510SOL     OW48536   4.841   6.118   7.484 -0.0534 -0.4693  0.1013
15510SOL    HW148537   4.793   6.157   7.557 -1.6844 -3.0062  0.5295
15510SOL    HW248538   4.773   6.096   7.420  0.4198 -3.8845  0.5641
15511SOL     OW48539   5.869   5.296   7.993 -0.3067  0.0054 -0.1765
15511SOL    HW148540   5.821   5.378   7.995  0.2843  0.3460  0.8007
15511SOL    HW248541   5.960   5.321   7.981  0.3231 -0.2327  3.1768
15512SOL     OW48542   4.384   5.749  10.866  0.6666  0.4802  0.2490
15512SOL    HW148543   4.331   5.674  10.892  1.2768 -0.1597 -0.3273
15512SOL    HW248544   4.322   5.822  10.862  0.5237  0.6562  3.4599
15513SOL     OW48545   9.190   8.906  10.675 -0.7388  0.1570  0.4011
15513SOL    HW148546   9.099   8.878  10.667 -1.4305  2.0754  0.9344
15513SOL    HW248547   9.201   8.928  10.767  0.4935 -0.6863  0.4829
15514SOL     OW48548   7.792   6.237   1.474  0.2187  0.2660 -0.7880
15514SOL    HW148549   7.865   6.295   1.494 -0.1675 -0.2723  3.0975
15514SOL    HW248550   7.716   6.294   1.470  0.3050  0.4108 -0.4328
15515SOL     OW48551   5.969   6.419   9.816 -0.3684 -0.4659 -0.1537
15515SOL    HW148552   6.042   6.473   9.846 -0.1889 -1.1965  0.7900
15515SOL    HW248553   5.897   6.442   9.875 -0.9445  0.3065 -1.1281
15516SOL     OW48554   7.649   5.376   7.051  0.1831 -0.4175  0.0705
15516SOL    HW148555   7.626   5.375   6.958  1.9623 -2.6352 -0.4490
15516SOL    HW248556   7.724   5.436   7.057 -0.0428 -0.1391  0.1081
15517SOL     OW48557  10.549   7.335   9.037 -0.0711 -0.3489  0.5163
15517SOL    HW148558  10.618   7.311   8.976  0.4783  1.5535  0.3374
15517SOL    HW248559  10.592   7.335   9.123 -0.1192 -0.2084  0.5403
15518SOL     OW48560   4.094   4.294   8.280 -0.1122 -0.4039 -0.2232
15518SOL    HW148561   4.151   4.258   8.212  0.0625 -1.9589  0.6978
15518SOL    HW248562   4.102   4.389   8.271  3.0740 -0.5444  0.2108
15519SOL     OW48563  10.494   3.519   5.229 -0.1609  0.1278  0.4983
15519SOL    HW148564  10.455   3.597   5.189  0.6185 -0.1883 -0.9346
15519SOL    HW248565  10.587   3.539   5.236  0.3872 -1.3076 -1.6138
15520SOL     OW48566   1.419   4.736  10.910  0.0479  0.3747  0.1944
15520SOL    HW148567   1.391   4.793  10.981  2.6290  0.1866  1.5018
15520SOL    HW248568   1.496   4.691  10.945  0.7196 -0.6068 -2.3340
15521SOL     OW48569   9.394   6.161   2.887 -0.1288  1.1393  0.4120
15521SOL    HW148570   9.405   6.068   2.870  0.1450  0.9757  1.3883
15521SOL    HW248571   9.408   6.170   2.982 -2.3929  1.8439  0.7328
15522SOL     OW48572   1.517   0.861   0.711 -0.3035  0.2464 -0.2991
15522SOL    HW148573   1.602   0.885   0.673  0.2207  2.5851  2.0688
15522SOL    HW248574   1.503   0.771   0.683  3.5268 -0.6426  0.1110
15523SOL     OW48575   8.872   9.603   2.358  0.1263 -0.1186 -0.3944
15523SOL    HW148576   8.816   9.579   2.432 -0.7887 -1.3321 -1.4271
15523SOL    HW248577   8.818   9.663   2.306 -0.0295 -0.8732 -1.1205
15524SOL     OW48578   7.768   8.874   4.167 -0.1892 -0.1500  0.1943
15524SOL    HW148579   7.788   8.955   4.213 -0.2219  0.5179 -0.9173
15524SOL    HW248580   7.746   8.811   4.236  0.4622  0.6004  1.1061
15525SOL     OW48581   8.644   6.724   6.673  0.2414 -0.2164  0.4360
15525SOL    HW148582   8.637   6.729   6.578  0.0020 -0.2750  0.4496
15525SOL    HW248583   8.713   6.659   6.688 -0.4068 -0.9619  0.3056
15526SOL     OW48584   5.218   6.318   6.314 -0.2392 -0.2960  0.3985
15526SOL    HW148585   5.297   6.366   6.289 -0.4770  0.8768  1.7794
15526SOL    HW248586   5.153   6.344   6.249 -0.4024  1.4214  1.1837
15527SOL     OW48587   4.593   6.185   0.319  0.0278 -0.0314  0.5301
15527SOL    HW148588   4.596   6.129   0.242  0.3106  1.7340 -0.8081
15527SOL    HW248589   4.683   6.186   0.351  0.0623 -0.1645  0.4387
15528SOL     OW48590   7.088   5.976   8.999  0.1510 -0.8578 -0.3782
15528SOL    HW148591   7.169   6.009   9.037  0.2969 -0.9523 -0.6102
15528SOL    HW248592   7.028   5.972   9.074  0.7868 -2.1528  0.1070
15529SOL     OW48593   0.235   2.969   1.181  0.5368 -0.4968  0.0719
15529SOL    HW148594   0.292   2.897   1.153  0.7611 -0.0590 -0.5977
15529SOL    HW248595   0.180   2.986   1.106  0.4488  0.0051  0.2511
15530SOL     OW48596   4.813   0.060   1.167  0.2851  0.8762  0.0129
15530SOL    HW148597   4.809   0.122   1.240 -0.9462 -0.4833  1.1701
15530SOL    HW248598   4.880  -0.003   1.193  0.1289  0.6119 -0.2236
15531SOL     OW48599   7.780   4.751  10.289 -1.1317  0.2915 -0.9448
15531SOL    HW148600   7.743   4.765  10.376 -1.0682  1.8999 -1.1368
15531SOL    HW248601   7.789   4.839  10.253 -0.7937 -0.3233 -2.4346
15532SOL     OW48602   9.440   5.969   0.700 -0.3214  0.0658 -0.0658
15532SOL    HW148603   9.397   5.986   0.783  0.4873 -2.3106  0.8999
15532SOL    HW248604   9.368   5.946   0.640 -0.6350 -2.3528  1.1235
15533SOL     OW48605   4.117   5.225   2.737  0.5246  0.0492 -0.1571
15533SOL    HW148606   4.106   5.200   2.829 -0.3477 -0.5592 -0.4158
15533SOL    HW248607   4.191   5.171   2.706  0.8448  0.2832  0.1928
15534SOL     OW48608   9.270   5.431   5.419  0.1480  0.1485  0.2448
15534SOL    HW148609   9.348   5.483   5.403 -0.3957  0.8667 -0.0978
15534SOL    HW248610   9.199   5.494   5.423 -0.3623 -0.4460  1.0305
15535SOL     OW48611   1.141   4.271   8.037 -0.2634  0.0816  0.1766
15535SOL    HW148612   1.187   4.355   8.045 -0.8569  0.4521 -0.2114
15535SOL    HW248613   1.059   4.285   8.084 -1.0078  0.2152 -1.1021
15536SOL     OW48614   7.114   6.496  10.529  0.3093 -0.6171 -0.0808
15536SOL    HW148615   7.137   6.405  10.513  0.2135 -0.7515  0.5081
15536SOL    HW248616   7.021   6.495  10.551 -0.1859 -0.1275 -2.0065
15537SOL     OW48617   6.612  10.584   0.793 -0.6596  0.0192 -0.1777
15537SOL    HW148618   6.651  10.506   0.754 -0.5677 -1.1043  1.9672
15537SOL    HW248619   6.525  10.555   0.822 -0.4281  0.5353  1.1019
15538SOL     OW48620   1.872  10.619   3.588 -0.8920 -0.3806 -0.5751
15538SOL    HW148621   1.883  10.528   3.559 -0.3526 -0.6684  0.4796
15538SOL    HW248622   1.917  10.671   3.522  1.1395 -1.0781  0.1771
15539SOL     OW48623   8.955  10.853   0.233 -0.2410  0.1881  0.3129
15539SOL    HW148624   8.891  10.808   0.178  0.0402 -1.4157  1.2410
15539SOL    HW248625   8.927  10.836   0.323  1.2702 -0.2818  0.7337
15540SOL     OW48626   4.961   8.843   0.497 -0.0897 -0.0816  0.3620
15540SOL    HW148627   5.011   8.792   0.561  1.2308  0.0385 -0.5403
15540SOL    HW248628   5.008   8.831   0.415 -1.6740 -0.1214 -0.5797
15541SOL     OW48629   8.339   2.977   8.408  0.4166  0.2815 -0.0538
15541SOL    HW148630   8.300   3.051   8.455  1.3699  0.5301  0.3689
15541SOL    HW248631   8.271   2.909   8.409  0.4262  0.2654  1.7431
15542SOL     OW48632   2.214   7.067   0.836 -0.3565  0.6344 -0.1033
15542SOL    HW148633   2.267   7.109   0.768 -0.7030  1.8662  0.3598
15542SOL    HW248634   2.273   7.061   0.911 -0.3200  0.3264 -0.1572
15543SOL     OW48635   1.428   8.287   7.676 -0.1717 -0.3903  0.5698
15543SOL    HW148636   1.406   8.238   7.756  1.1248  1.0435  1.8898
15543SOL    HW248637   1.346   8.292   7.628 -1.2710 -0.4348  2.3255
15544SOL     OW48638   2.402  10.308   4.217  0.4475 -0.2840  0.5549
15544SOL    HW148639   2.495  10.290   4.205  0.2839 -0.4226 -0.5990
15544SOL    HW248640   2.378  10.259   4.296  1.6262  0.8110  1.6384
15545SOL     OW48641  10.351   8.675   6.555  0.6394 -0.3668  0.3384
15545SOL    HW148642  10.296   8.624   6.614  1.1873 -1.3259  0.0389
15545SOL    HW248643  10.348   8.628   6.472  0.2817  0.6937 -0.2686
15546SOL     OW48644   0.529   7.867   3.064  0.2489  0.1361 -0.0724
15546SOL    HW148645   0.502   7.775   3.061 -1.1925  0.5331 -0.2009
15546SOL    HW248646   0.470   7.911   3.002 -0.1285  1.3935  1.1299
15547SOL     OW48647   9.586  10.537   4.230 -0.2277  0.3895 -0.0871
15547SOL    HW148648   9.661  10.511   4.177 -1.3257 -0.2024 -1.4151
15547SOL    HW248649   9.560  10.622   4.195  0.1540  0.8662  0.7549
15548SOL     OW48650   8.863   6.410   1.736 -0.3363 -0.1960  0.0643
15548SOL    HW148651   8.907   6.490   1.762 -3.1589  1.0201  1.5599
15548SOL    HW248652   8.902   6.342   1.792  0.9582  0.4197 -0.0632
15549SOL     OW48653   4.384  10.551   2.214 -0.4311  0.1437  0.3280
15549SOL    HW148654   4.457  10.491   2.198 -1.0380 -0.4366 -0.3408
15549SOL    HW248655   4.418  10.614   2.277  0.3891 -0.5991  0.6439
15550SOL     OW48656   7.347   3.524   8.779 -0.6724 -0.2445  0.2456
15550SOL    HW148657   7.309   3.477   8.853 -1.8275  0.6114  0.2313
15550SOL    HW248658   7.274   3.536   8.718 -0.2046  0.7669 -0.1418
15551SOL     OW48659   4.991   7.092  10.271  0.1543  0.4585  0.0618
15551SOL    HW148660   5.021   7.026  10.210  0.6014  0.6912  0.0257
15551SOL    HW248661   4.993   7.174  10.221 -1.7897  0.3049 -0.3510
15552SOL     OW48662   3.153  10.840   5.894  0.5462 -0.1235  0.1916
15552SOL    HW148663   3.175  10.923   5.936 -1.3882  0.2720  0.5162
15552SOL    HW248664   3.172  10.854   5.801 -1.7840  1.5153 -0.1242
15553SOL     OW48665   1.841   3.430   4.154 -0.0850 -0.5556  0.3035
15553SOL    HW148666   1.860   3.367   4.224 -3.3066 -1.4759  0.4930
15553SOL    HW248667   1.868   3.514   4.191  2.0242 -1.4617  1.0024
15554SOL     OW48668   6.749   0.747   1.459  0.3850 -0.8772  0.2657
15554SOL    HW148669   6.699   0.725   1.380 -1.0918  0.4610  0.7909
15554SOL    HW248670   6.718   0.833   1.485  1.1276 -1.1094  2.1066
15555SOL     OW48671   9.115   8.035   9.706 -0.6529  0.5569  0.1367
15555SOL    HW148672   9.082   8.113   9.661 -1.4073  0.7237  0.9500
15555SOL    HW248673   9.209   8.036   9.691 -0.8529  0.6996 -1.2771
15556SOL     OW48674   3.109   7.224   2.017 -0.2054  0.0444 -0.4352
15556SOL    HW148675   3.060   7.141   2.019 -2.0819  1.0619  2.9225
15556SOL    HW248676   3.198   7.200   2.045 -0.7477 -0.8538  0.5918
15557SOL     OW48677   4.589   6.550  10.777  0.2619 -0.0486  0.4026
15557SOL    HW148678   4.517   6.525  10.836  0.5203  0.3172  0.8754
15557SOL    HW248679   4.612   6.468  10.733  0.0732 -0.3321  0.8173
15558SOL     OW48680   3.008   4.383   8.214  0.6661  0.0774  0.4990
15558SOL    HW148681   3.040   4.468   8.246  0.8660 -0.4815  1.8701
15558SOL    HW248682   2.922   4.403   8.176  1.3515  1.1233 -0.5820
15559SOL     OW48683   9.895   5.627   1.598  0.4475  0.2750  0.1293
15559SOL    HW148684   9.876   5.620   1.504 -1.1754 -0.1010  0.4564
15559SOL    HW248685   9.871   5.717   1.620  3.2713  1.2299 -0.2748
15560SOL     OW48686   7.867   6.706   3.407  0.0546  0.1418  0.2327
15560SOL    HW148687   7.819   6.729   3.487 -1.2543  0.5642 -0.6381
15560SOL    HW248688   7.883   6.612   3.414 -1.3794 -0.1188  0.3367
15561SOL     OW48689   8.229   7.601   2.310  0.1523 -0.2946  0.3391
15561SOL    HW148690   8.144   7.643   2.317  0.4413  0.4478 -0.3296
15561SOL    HW248691   8.290   7.674   2.298  0.8938 -0.8068  0.9390
15562SOL     OW48692   6.780   6.794   3.245  0.1777  0.2681 -0.0159
15562SOL    HW148693   6.756   6.722   3.186  2.4377 -0.7370  0.1552
15562SOL    HW248694   6.766   6.873   3.193 -0.3960 -0.4328 -0.9675
15563SOL     OW48695   8.432   5.732   4.367 -0.1180 -0.1759 -0.0790
15563SOL    HW148696   8.411   5.826   4.362 -1.5224 -0.5289 -1.1366
15563SOL    HW248697   8.455   5.708   4.277 -0.0401 -0.9275  0.1412
15564SOL     OW48698   3.284   4.907   2.158  0.0322 -0.4818 -0.0857
15564SOL    HW148699   3.367   4.877   2.195  1.4731  0.2825 -2.4808
15564SOL    HW248700   3.230   4.927   2.234  1.2428 -2.9959  1.5878
15565SOL     OW48701   8.095   4.957   3.129  0.2395  0.7440 -0.6553
15565SOL    HW148702   8.060   5.032   3.176 -0.8794  0.8803 -1.6596
15565SOL    HW248703   8.021   4.923   3.078  0.7253 -1.0290 -0.2456
15566SOL     OW48704   8.198   2.262   9.626  0.0728  0.2581 -0.6582
15566SOL    HW148705   8.220   2.331   9.689  1.0386 -0.4130 -0.2305
15566SOL    HW248706   8.243   2.184   9.659 -1.4057 -0.7191 -0.8462
15567SOL     OW48707   6.039   1.307   7.548 -0.1701  0.5821  0.8478
15567SOL    HW148708   6.098   1.357   7.492 -0.1753 -0.0918  0.2390
15567SOL    HW248709   5.960   1.360   7.553 -0.0794  0.7587  0.4140
15568SOL     OW48710   3.400   6.628   3.679  0.0482  0.3715  0.3194
15568SOL    HW148711   3.425   6.697   3.617  0.2471  0.2956  0.3150
15568SOL    HW248712   3.444   6.653   3.760  0.4419  0.0379  0.2112
15569SOL     OW48713   6.557   8.040   8.163 -0.2776  0.4555  0.3110
15569SOL    HW148714   6.468   8.065   8.136 -0.1607  1.1186  0.5204
15569SOL    HW248715   6.543   7.974   8.231 -0.5774 -1.3896 -1.4300
15570SOL     OW48716   9.863   4.285   2.439 -0.5301 -0.0044 -0.4257
15570SOL    HW148717   9.940   4.234   2.464 -2.3848 -2.8105  0.0073
15570SOL    HW248718   9.868   4.290   2.343  0.4581  0.3588 -0.3723
15571SOL     OW48719   8.315   9.770   4.372  0.4411  0.3265  0.5533
15571SOL    HW148720   8.227   9.794   4.399  0.8914  0.7843  1.6490
15571SOL    HW248721   8.326   9.680   4.401  0.9882  0.8709  2.1573
15572SOL     OW48722   3.319   3.584  10.407 -0.3180  0.8620  0.2643
15572SOL    HW148723   3.320   3.669  10.362 -2.8061  2.0624  2.2092
15572SOL    HW248724   3.403   3.580  10.454  1.3107  0.6090 -2.4604
15573SOL     OW48725   0.840   8.205   2.967 -0.7539  0.4570  0.0651
15573SOL    HW148726   0.778   8.265   3.007 -1.0972  1.0210 -1.2687
15573SOL    HW248727   0.864   8.246   2.884  2.3963  0.8916  1.0685
15574SOL     OW48728   4.845  10.774  10.775  0.1106 -0.0446  0.3469
15574SOL    HW148729   4.763  10.763  10.823  0.0220 -0.9985  0.0114
15574SOL    HW248730   4.912  10.746  10.836  0.1487  0.3284  0.4769
15575SOL     OW48731   5.126   4.424   2.939 -0.2249  0.2643  0.4646
15575SOL    HW148732   5.072   4.390   2.868 -0.7665 -0.9797  1.4358
15575SOL    HW248733   5.078   4.500   2.971 -0.8009 -0.1183  0.5255
15576SOL     OW48734   0.582   8.789   7.329  0.3984 -0.1077  0.2065
15576SOL    HW148735   0.519   8.860   7.315 -0.2938 -0.5480  0.9625
15576SOL    HW248736   0.556   8.721   7.268 -0.0515 -0.4053  0.7230
15577SOL     OW48737   2.959   8.164   8.463 -0.7435 -0.5599  0.0688
15577SOL    HW148738   2.889   8.190   8.523 -0.3834 -1.2990  0.8359
15577SOL    HW248739   2.966   8.236   8.400 -1.6772 -0.1387  0.4335
15578SOL     OW48740  10.771   9.484   2.131  0.4386  0.2548  0.2896
15578SOL    HW148741  10.797   9.453   2.044 -0.1434  1.4026 -0.3148
15578SOL    HW248742  10.715   9.413   2.165 -0.0738  0.1794 -0.6541
15579SOL     OW48743   6.967   8.436   6.310  0.6196  0.0288 -0.3748
15579SOL    HW148744   6.954   8.373   6.239 -0.3952 -0.1255 -0.0639
15579SOL    HW248745   6.977   8.520   6.267 -1.4502  0.1659 -0.6718
15580SOL     OW48746   9.280   0.348   2.700  0.0237  0.2946 -0.5834
15580SOL    HW148747   9.367   0.386   2.712 -0.9363  2.2421  0.7064
15580SOL    HW248748   9.294   0.254   2.709  1.8185  0.6430  0.8639
15581SOL     OW48749   8.044   6.691   6.699  0.0383  0.0191  0.5154
15581SOL    HW148750   8.057   6.682   6.793 -0.3524 -1.5290  0.4462
15581SOL    HW248751   8.073   6.608   6.662  0.7916  0.8344 -0.8221
15582SOL     OW48752   9.229   4.347   6.060  0.4446  0.2396 -0.4712
15582SOL    HW148753   9.276   4.270   6.090 -0.3337  0.7047  2.2771
15582SOL    HW248754   9.137   4.321   6.062  0.3304  0.0364 -3.5756
15583SOL     OW48755   9.513   0.788   6.814 -0.0838 -0.7294  0.3483
15583SOL    HW148756   9.600   0.776   6.775  0.0255  0.4668  0.1846
15583SOL    HW248757   9.527   0.775   6.907  0.4684  0.3373  0.4325
15584SOL     OW48758  10.493   7.166   6.015 -0.0664  0.0594  0.3612
15584SOL    HW148759  10.577   7.212   6.019 -0.3367  0.4594  1.8470
15584SOL    HW248760  10.445   7.196   6.092 -1.2569 -0.7973 -0.0155
15585SOL     OW48761   2.014   1.419  10.203  0.5133  0.1356 -0.3991
15585SOL    HW148762   2.034   1.511  10.218  1.6570 -0.0341 -0.8011
15585SOL    HW248763   2.074   1.371  10.260 -0.3341 -0.3647  0.0929
15586SOL     OW48764   3.567   8.924   5.449 -0.3088  0.2541 -0.9844
15586SOL    HW148765   3.490   8.888   5.406  0.7616 -1.6865 -1.4006
15586SOL    HW248766   3.580   8.868   5.526  0.7188  0.4868 -0.9663
15587SOL     OW48767   2.255   9.521  10.838  0.5672 -0.0361 -0.1591
15587SOL    HW148768   2.190   9.573  10.885  1.7194 -0.0987  1.6016
15587SOL    HW248769   2.256   9.557  10.749 -2.9034 -1.0215 -0.7225
15588SOL     OW48770   1.853   6.246   1.374  0.8498  0.2632  0.5517
15588SOL    HW148771   1.890   6.180   1.315  1.4212 -0.3031  1.5012
15588SOL    HW248772   1.781   6.285   1.325  1.0257 -0.4977 -0.3418
15589SOL     OW48773   7.161   8.016   5.226 -0.3151 -0.2842  0.2334
15589SOL    HW148774   7.215   8.050   5.154  0.1564  0.0639  0.7473
15589SOL    HW248775   7.201   7.932   5.248 -0.2148 -0.2025  0.3618
15590SOL     OW48776   4.975   5.175   4.158  1.1719 -0.0801  0.2935
15590SOL    HW148777   5.015   5.135   4.235 -1.7225 -1.1741  1.3719
15590SOL    HW248778   4.900   5.223   4.193 -0.5465 -1.0630 -1.8580
15591SOL     OW48779   4.862   2.788   8.445  0.2940 -0.0415 -0.6663
15591SOL    HW148780   4.840   2.695   8.442  0.3566 -0.1073  0.4829
15591SOL    HW248781   4.958   2.790   8.448  0.2686  0.0024  0.4872
15592SOL     OW48782   6.834   9.051   0.094 -0.5455 -0.1701  0.1745
15592SOL    HW148783   6.784   9.073   0.015  0.0060 -1.7980 -0.6965
15592SOL    HW248784   6.769   9.048   0.164 -0.8789  2.3631  0.0356
15593SOL     OW48785   9.582   5.444   9.123  0.5077  0.0934  0.0204
15593SOL    HW148786   9.545   5.472   9.207 -1.2539  1.0506 -1.0283
15593SOL    HW248787   9.579   5.522   9.068  0.4309 -0.8300 -1.3346
15594SOL     OW48788   2.545   3.374   4.832 -0.0383  1.1294 -0.1753
15594SOL    HW148789   2.489   3.416   4.897  0.5169  0.4429  0.7818
15594SOL    HW248790   2.596   3.310   4.882 -0.5272 -0.3653 -1.4946
15595SOL     OW48791   7.284   4.577   8.664  0.0978  0.4784  0.1082
15595SOL    HW148792   7.195   4.577   8.628 -0.2119 -0.3563  0.8299
15595SOL    HW248793   7.277   4.529   8.746  1.1973  0.5232  0.2501
15596SOL     OW48794   8.904   8.901   2.692 -0.2825  0.3945 -0.2072
15596SOL    HW148795   8.890   8.963   2.620 -1.6963  0.5042  0.1294
15596SOL    HW248796   8.848   8.826   2.670 -0.5026  0.3121  0.6292
15597SOL     OW48797  10.437  10.005   4.853  0.3296  0.0093 -0.3157
15597SOL    HW148798  10.482  10.060   4.917 -0.0834  2.4482 -1.9675
15597SOL    HW248799  10.356   9.979   4.896 -0.7296  2.9707 -0.2813
15598SOL     OW48800   3.254   6.543   5.257  0.6649 -0.1581  0.1351
15598SOL    HW148801   3.316   6.504   5.319  1.8781  2.3113  0.6015
15598SOL    HW248802   3.308   6.575   5.185  0.0753  2.3285  0.6890
15599SOL     OW48803  10.628   3.085   2.277 -0.0539 -0.0476  0.0217
15599SOL    HW148804  10.596   3.169   2.312 -2.1146 -0.6302 -0.3048
15599SOL    HW248805  10.723   3.091   2.283 -0.1496  0.3689  4.6680
15600SOL     OW48806   4.458   5.681   8.932  0.0517  0.7435 -0.2280
15600SOL    HW148807   4.480   5.774   8.923 -1.0249  1.0328  0.0554
15600SOL    HW248808   4.363   5.680   8.942 -0.0519 -0.4539 -1.1717
15601SOL     OW48809   4.735   9.998  10.585  0.2015  0.6428 -0.3568
15601SOL    HW148810   4.773   9.914  10.557  0.7988  0.6568  0.3992
15601SOL    HW248811   4.645   9.994  10.553 -0.1411 -0.8030  0.6510
15602SOL     OW48812   8.922   5.875   9.821  0.0942  0.3938  0.2165
15602SOL    HW148813   8.953   5.801   9.770 -0.4177  0.5899 -0.3929
15602SOL    HW248814   8.843   5.904   9.776  0.4098  1.4533  0.3090
15603SOL     OW48815   2.876   0.584   3.179 -0.2154 -0.4572 -0.4224
15603SOL    HW148816   2.850   0.532   3.255 -0.2462 -0.0199 -0.1285
15603SOL    HW248817   2.930   0.525   3.127  1.7213 -0.1116  1.0649
15604SOL     OW48818   2.642   5.311  10.327 -0.3620 -0.3186 -0.0569
15604SOL    HW148819   2.615   5.304  10.235  0.9101 -0.6927 -0.4193
15604SOL    HW248820   2.612   5.398  10.354  1.5592  0.9258 -1.6442
15605SOL     OW48821   2.651  10.416   2.868  0.3914  0.4183 -0.1590
15605SOL    HW148822   2.673  10.395   2.958 -2.7314  0.8703  0.8539
15605SOL    HW248823   2.674  10.509   2.858  2.1276 -0.0024 -0.3847
15606SOL     OW48824   8.538   9.933   0.005 -0.5614  0.8048 -0.3683
15606SOL    HW148825   8.503   9.950   0.092  1.8287 -0.7580  1.0215
15606SOL    HW248826   8.518   9.840  -0.012  1.7167  0.1745  0.0044
15607SOL     OW48827   6.509   0.788   2.806  0.0984 -0.1283  0.0360
15607SOL    HW148828   6.595   0.819   2.777  0.2785  0.0671  0.7628
15607SOL    HW248829   6.452   0.804   2.731  0.4841  0.6868 -0.1005
15608SOL     OW48830   3.028   9.444   5.524 -0.1882 -0.0171 -0.3497
15608SOL    HW148831   2.998   9.530   5.555  0.2314 -0.0732  0.2125
15608SOL    HW248832   3.030   9.389   5.602  0.1751 -0.3610 -0.5963
15609SOL     OW48833   8.107   8.933   3.538  0.1943 -0.1194 -0.0724
15609SOL    HW148834   8.082   8.908   3.449  3.9742 -0.7038 -1.1287
15609SOL    HW248835   8.075   9.022   3.548 -1.4517 -0.4996 -1.4678
15610SOL     OW48836   4.651   0.351   4.101  0.0230  0.4970  0.0311
15610SOL    HW148837   4.740   0.383   4.084  0.1603 -0.2197 -0.7084
15610SOL    HW248838   4.650   0.330   4.194  0.4989  0.8948  0.1324
15611SOL     OW48839   1.564   4.937   2.055  0.0699  0.1157  0.4199
15611SOL    HW148840   1.482   4.946   2.007  1.6055  1.9566 -2.0992
15611SOL    HW248841   1.549   4.864   2.115 -2.6644 -1.0475 -1.4914
15612SOL     OW48842   9.044   2.661   5.468  0.3438  0.0349 -0.2967
15612SOL    HW148843   9.133   2.639   5.496  0.3101  0.4267  0.1203
15612SOL    HW248844   9.056   2.730   5.403  0.2806  1.0505  0.7472
15613SOL     OW48845   2.616   6.893   6.199  0.2309 -0.2742  0.4134
15613SOL    HW148846   2.645   6.959   6.262  2.8839 -0.6642 -0.2828
15613SOL    HW248847   2.655   6.811   6.231 -1.9663 -1.3176  0.5687
15614SOL     OW48848   0.227   7.647   8.440 -0.1683 -0.4102  0.0193
15614SOL    HW148849   0.247   7.650   8.533  0.6381  0.8722 -0.1718
15614SOL    HW248850   0.170   7.722   8.425 -1.8412 -1.6540 -0.2170
15615SOL     OW48851   8.066   0.790   7.226 -0.1954 -0.1716  0.0189
15615SOL    HW148852   8.114   0.742   7.293  0.1954  0.3524  0.1282
15615SOL    HW248853   7.985   0.817   7.270  1.0010  2.0647  1.0391
15616SOL     OW48854   0.169   6.389   5.834  0.6893 -0.2566  0.1648
15616SOL    HW148855   0.105   6.459   5.847  0.4490 -0.0332 -1.8864
15616SOL    HW248856   0.130   6.312   5.876 -0.2853  0.2222  0.1646
15617SOL     OW48857   1.880   1.585   2.807  0.3750 -0.6537 -0.1823
15617SOL    HW148858   1.955   1.584   2.866 -0.5615  0.3261  1.0852
15617SOL    HW248859   1.911   1.631   2.729  0.9608  0.2258  0.5457
15618SOL     OW48860   8.820   8.226   6.928  0.0666  0.5738 -0.1871
15618SOL    HW148861   8.805   8.280   6.850  1.1144  1.4491  0.1968
15618SOL    HW248862   8.851   8.287   6.994  0.3644 -0.3563  0.5559
15619SOL     OW48863   8.823   8.968   3.039  0.3246 -0.3364  0.2734
15619SOL    HW148864   8.853   8.933   3.123 -0.4809 -0.8075  0.3791
15619SOL    HW248865   8.851   8.903   2.975 -1.7388 -1.5911  0.5404
15620SOL     OW48866   4.956   4.201   4.278 -0.1405  0.6278 -0.1406
15620SOL    HW148867   4.946   4.236   4.366  1.0775 -2.2158  1.2331
15620SOL    HW248868   4.931   4.109   4.285  1.0867  0.0270 -2.4771
15621SOL     OW48869   3.831   8.106   0.127  0.1019  0.1548 -0.1690
15621SOL    HW148870   3.890   8.122   0.201 -1.7381 -1.1445  1.7041
15621SOL    HW248871   3.867   8.028   0.084  0.6119  0.2986 -0.0082
15622SOL     OW48872   9.378   2.886   5.178 -0.0468  0.0496 -0.5321
15622SOL    HW148873   9.440   2.888   5.105 -1.3954  1.3023 -1.7108
15622SOL    HW248874   9.292   2.887   5.136 -0.8669  0.6869  1.0806
15623SOL     OW48875  10.639   0.866   2.853 -0.3465  0.3062  0.2996
15623SOL    HW148876  10.569   0.801   2.851  1.6421 -2.1337  2.4173
15623SOL    HW248877  10.593   0.950   2.857 -3.0492 -0.8214 -2.7805
15624SOL     OW48878   3.631   0.384   5.442 -0.4593  0.1324 -0.1681
15624SOL    HW148879   3.556   0.367   5.499  0.3548 -0.3835  0.7599
15624SOL    HW248880   3.701   0.329   5.476  0.0748 -0.1419 -1.6273
15625SOL     OW48881   3.287   3.232   8.451 -0.2073 -0.2527 -0.2600
15625SOL    HW148882   3.326   3.284   8.521  0.0638 -1.3594  0.4381
15625SOL    HW248883   3.200   3.210   8.483 -0.1976 -0.5002 -0.4024
15626SOL     OW48884   0.018   0.368   8.669  0.2622 -0.2992  0.1629
15626SOL    HW148885   0.037   0.460   8.649 -0.8246 -0.2502 -0.7952
15626SOL    HW248886  -0.021   0.334   8.588 -2.1983 -0.7665  1.4516
15627SOL     OW48887   7.557   7.167   8.072 -0.0608 -0.3490 -0.1748
15627SOL    HW148888   7.490   7.208   8.127  2.1798 -0.2018  2.6699
15627SOL    HW248889   7.612   7.240   8.043 -0.2413 -0.6296 -1.2946
15628SOL     OW48890   8.242  10.647  10.075  0.6780 -0.8983 -0.2780
15628SOL    HW148891   8.159  10.614  10.039  0.3354 -0.4668  0.0977
15628SOL    HW248892   8.289  10.568  10.103  0.0563 -1.1083  0.2113
15629SOL     OW48893   8.475   2.812   5.706 -0.3555  0.1746  0.3922
15629SOL    HW148894   8.491   2.823   5.613 -0.0063  0.5732  0.4951
15629SOL    HW248895   8.385   2.780   5.712  0.4157 -2.4007 -0.2340
15630SOL     OW48896   9.565   1.362   5.082 -0.6133 -0.6034 -0.7910
15630SOL    HW148897   9.583   1.352   5.175  0.8126  1.7010 -0.7345
15630SOL    HW248898   9.492   1.424   5.077  0.3979  0.6245 -1.1504
15631SOL     OW48899   3.201   0.265   8.985 -0.4780 -0.3003  0.5386
15631SOL    HW148900   3.140   0.199   8.950 -1.0411  0.2588  0.4626
15631SOL    HW248901   3.277   0.214   9.013 -1.0155 -1.0164  0.7236
15632SOL     OW48902   7.827   9.592   0.273  0.0957 -0.3579 -0.4282
15632SOL    HW148903   7.873   9.633   0.199 -1.2810 -0.1684 -1.2121
15632SOL    HW248904   7.771   9.526   0.233 -1.0461  0.0790  0.3898
15633SOL     OW48905   9.456   7.406  10.265 -0.1890  0.2711  0.0153
15633SOL    HW148906   9.531   7.446  10.221  1.1487 -1.0670  1.0270
15633SOL    HW248907   9.436   7.466  10.337  1.9798 -0.9182  1.6930
15634SOL     OW48908   7.123   3.360   6.319  0.3630 -0.0981 -0.0580
15634SOL    HW148909   7.117   3.409   6.401 -2.4052  1.3222 -1.0035
15634SOL    HW248910   7.171   3.418   6.260 -0.6387  0.3828 -0.4155
15635SOL     OW48911   7.961   5.809   6.140  0.1219  0.3120 -0.2564
15635SOL    HW148912   7.954   5.758   6.220 -1.5110  0.7353 -0.1078
15635SOL    HW248913   8.033   5.870   6.156 -0.5638  0.7892  1.1245
15636SOL     OW48914   4.143   5.298   4.970 -0.1115 -0.3569 -0.1194
15636SOL    HW148915   4.214   5.361   4.958 -0.9810  0.6390 -0.1728
15636SOL    HW248916   4.110   5.315   5.059 -1.1372  0.1043 -0.5681
15637SOL     OW48917   4.933   1.019   4.092  0.4883 -0.8433 -0.1824
15637SOL    HW148918   4.980   1.096   4.124  0.8572 -1.2018  0.1536
15637SOL    HW248919   4.844   1.050   4.076  0.6413 -0.3421 -0.0820
15638SOL     OW48920   6.376   6.576   8.414 -0.0726 -0.4419 -0.0747
15638SOL    HW148921   6.400   6.565   8.506  0.3225 -0.3772 -0.1699
15638SOL    HW248922   6.416   6.659   8.388  1.3917 -1.3428 -0.8175
15639SOL     OW48923   2.416   6.758   7.746  0.4487  0.7437 -0.0685
15639SOL    HW148924   2.398   6.839   7.700  2.8318  1.9945  1.0023
15639SOL    HW248925   2.413   6.782   7.839  0.0664 -0.6705  0.3087
15640SOL     OW48926   8.645   4.178   6.860  0.5448 -0.4730  0.0027
15640SOL    HW148927   8.646   4.124   6.939  0.0832  1.9621  1.8049
15640SOL    HW248928   8.563   4.156   6.817 -0.8039  0.4126  1.9748
15641SOL     OW48929   4.957   6.782   6.032  0.5315 -0.6335 -0.0851
15641SOL    HW148930   4.867   6.812   6.042  0.4767 -1.0281  0.6862
15641SOL    HW248931   4.972   6.781   5.937  0.3090  1.1398 -0.1643
15642SOL     OW48932   2.266   0.238   6.958  0.3427 -0.1185 -0.7001
15642SOL    HW148933   2.261   0.171   6.890  0.1467 -1.0061  0.1624
15642SOL    HW248934   2.360   0.252   6.971  0.3949 -0.7058 -0.4290
15643SOL     OW48935   6.479   5.916   0.320 -0.3772 -0.0783  0.6799
15643SOL    HW148936   6.422   5.869   0.381 -0.0423 -0.4132  0.7436
15643SOL    HW248937   6.507   5.850   0.257 -1.2767  0.4203 -0.2621
15644SOL     OW48938   2.978   6.291   2.627  0.9260  0.1830 -0.2019
15644SOL    HW148939   2.926   6.211   2.615 -0.1449  0.6947  0.8279
15644SOL    HW248940   3.066   6.259   2.646  0.8367 -0.7271 -1.2263
15645SOL     OW48941   1.956   8.372   3.838  0.6071  0.2850 -0.0214
15645SOL    HW148942   1.887   8.390   3.775 -0.6791  0.1017  1.2852
15645SOL    HW248943   2.034   8.358   3.784 -0.1345  1.4630 -1.4858
15646SOL     OW48944   7.096   1.966   8.855  0.0548 -0.0974  0.6033
15646SOL    HW148945   7.059   1.885   8.819 -1.5724  0.3024  1.2929
15646SOL    HW248946   7.056   2.036   8.804  3.7249  0.3357 -2.1014
15647SOL     OW48947   7.758   2.025   0.730  0.1774 -0.6070 -0.1077
15647SOL    HW148948   7.677   2.032   0.680 -0.0009  1.1045  0.3570
15647SOL    HW248949   7.827   2.044   0.667  0.0192  0.5485  0.0456
15648SOL     OW48950   0.344   6.989  10.431  0.3168 -0.1006  0.0406
15648SOL    HW148951   0.415   7.008  10.492 -0.1546  1.7275  0.0812
15648SOL    HW248952   0.348   7.059  10.366 -0.5523 -0.7892 -0.7978
15649SOL     OW48953   1.013   0.486   8.728 -0.3886  0.0209  0.2117
15649SOL    HW148954   1.097   0.458   8.692 -1.0029  0.8622 -1.9935
15649SOL    HW248955   0.949   0.425   8.691 -1.2439  1.8929 -1.5214
15650SOL     OW48956   4.369   0.699   5.739  0.2900 -0.0521 -0.2457
15650SOL    HW148957   4.382   0.785   5.780 -1.5563 -0.3768  1.1449
15650SOL    HW248958   4.280   0.702   5.705  0.0415 -1.5350  0.1936
15651SOL     OW48959   8.234   2.969   5.418  0.4104 -0.1974 -0.6503
15651SOL    HW148960   8.143   2.943   5.430  0.8327 -0.9021  1.3641
15651SOL    HW248961   8.243   3.049   5.470  1.1125 -0.5322 -0.2497
15652SOL     OW48962   0.337  10.717   9.388  0.1692  0.1773  0.2322
15652SOL    HW148963   0.430  10.702   9.403  0.4139  1.2342 -0.1750
15652SOL    HW248964   0.297  10.631   9.399  1.4267 -0.6721 -1.3828
15653SOL     OW48965   3.209   3.985   8.653 -0.2232  0.2095 -0.5787
15653SOL    HW148966   3.181   3.915   8.595 -0.9732 -1.1115  1.2753
15653SOL    HW248967   3.179   3.958   8.740 -0.8248  3.0036  0.1824
15654SOL     OW48968   6.846   5.957  10.110 -0.7808  0.6836  0.3633
15654SOL    HW148969   6.791   5.931  10.035 -1.2034  2.3041  0.0857
15654SOL    HW248970   6.790   6.012  10.163  0.1174  1.1198  0.8769
15655SOL     OW48971   9.102   7.726  10.334  0.4206 -0.1686 -0.0107
15655SOL    HW148972   9.137   7.810  10.303 -0.1567 -0.3091 -1.0962
15655SOL    HW248973   9.135   7.718  10.423  0.8757  0.9922 -0.0527
15656SOL     OW48974   8.444   6.899   8.606  0.0552 -0.1993 -0.1402
15656SOL    HW148975   8.438   6.814   8.561  0.7383 -0.6759  0.6447
15656SOL    HW248976   8.360   6.908   8.650 -0.3871 -0.0137 -1.0087
15657SOL     OW48977   5.688   2.284   7.650 -0.1242  0.1283  0.5366
15657SOL    HW148978   5.709   2.372   7.682 -0.7326  0.7248 -0.6386
15657SOL    HW248979   5.773   2.239   7.646  0.4739  1.2909 -0.6314
15658SOL     OW48980   8.985   9.080   9.549 -0.3101  0.2067 -0.3714
15658SOL    HW148981   8.920   9.149   9.535 -0.8089 -0.3190 -0.6564
15658SOL    HW248982   8.946   9.023   9.615  0.8611  1.1539  1.2281
15659SOL     OW48983   9.968   4.400   0.883 -0.2005 -0.3289 -0.4008
15659SOL    HW148984   9.999   4.310   0.899  0.9221 -0.0358 -0.8270
15659SOL    HW248985  10.048   4.450   0.868 -0.6767  1.1129  1.5423
15660SOL     OW48986   3.059   7.786   9.647 -0.3865 -0.2547 -0.0321
15660SOL    HW148987   2.988   7.743   9.598 -2.6247  0.1327  2.6462
15660SOL    HW248988   3.029   7.876   9.658  0.5829 -0.0510  1.0862
15661SOL     OW48989   6.877   0.775   9.352  0.4255 -1.0674 -0.0755
15661SOL    HW148990   6.965   0.771   9.389  0.8441  1.5016 -0.6119
15661SOL    HW248991   6.885   0.836   9.278 -1.3330 -2.5904 -1.6222
15662SOL     OW48992   1.443   7.496   8.518 -0.0717  0.2844 -0.3028
15662SOL    HW148993   1.455   7.490   8.423 -2.0883 -1.9408 -0.5004
15662SOL    HW248994   1.531   7.511   8.552  1.0284 -0.9310 -2.3948
15663SOL     OW48995  10.279   8.142   8.758 -0.1979 -0.1634 -0.2069
15663SOL    HW148996  10.191   8.106   8.746 -0.9939  2.2669 -2.6334
15663SOL    HW248997  10.286   8.155   8.853 -3.0327  0.7903 -0.0315
15664SOL     OW48998   7.475   4.904   1.202 -0.4985 -0.1881 -0.0737
15664SOL    HW148999   7.424   4.954   1.138 -0.8691 -0.1443  0.2577
15664SOL    HW249000   7.470   4.813   1.171  1.6970  0.1544 -1.7321
15665SOL     OW49001   8.590   8.391   3.948  0.0763 -0.3609  0.4892
15665SOL    HW149002   8.616   8.323   4.010 -0.5448 -0.3623  0.7521
15665SOL    HW249003   8.618   8.358   3.863 -0.2836 -0.9827  0.6060
15666SOL     OW49004   2.140   0.236   1.398 -0.1849 -0.0286 -0.4842
15666SOL    HW149005   2.130   0.141   1.401 -1.2216  0.0570 -1.0065
15666SOL    HW249006   2.199   0.251   1.324 -0.6513 -0.2185 -0.8969
15667SOL     OW49007   6.851   4.628   5.663 -0.4807  0.0782 -0.1539
15667SOL    HW149008   6.858   4.660   5.753 -0.4484 -4.1048  1.5461
15667SOL    HW249009   6.768   4.581   5.662 -0.1080 -0.5962 -2.1070
15668SOL     OW49010   4.591   2.699  10.830  0.3271 -0.0303 -0.3821
15668SOL    HW149011   4.687   2.690  10.835  0.3435  0.8525  2.2423
15668SOL    HW249012   4.577   2.788  10.797  0.3001 -1.0520 -3.4483
15669SOL     OW49013   7.540   9.394   6.224 -0.1218  0.4077 -0.0239
15669SOL    HW149014   7.520   9.334   6.296  1.8962 -1.5046 -0.9442
15669SOL    HW249015   7.456   9.437   6.205 -2.1596 -3.2391 -0.2753
15670SOL     OW49016   8.941   5.092   5.121 -0.1357 -0.3523  0.0334
15670SOL    HW149017   9.001   5.021   5.100 -1.3390 -1.4832  0.2836
15670SOL    HW249018   8.932   5.089   5.216  0.2356  0.5032  0.1002
15671SOL     OW49019   3.855  10.100   8.643 -0.2850 -0.3798 -0.2317
15671SOL    HW149020   3.786  10.045   8.607 -1.2882 -0.0706  1.1343
15671SOL    HW249021   3.915  10.115   8.570 -0.4615 -2.4969 -0.8695
15672SOL     OW49022   4.409   9.348   6.455 -0.5319 -0.1982  0.2025
15672SOL    HW149023   4.467   9.343   6.379 -0.8643 -2.7088  0.0158
15672SOL    HW249024   4.469   9.354   6.530 -0.1191  0.0580 -0.1463
15673SOL     OW49025  10.349   8.025   6.961 -0.2013 -0.6683  0.4584
15673SOL    HW149026  10.395   8.072   7.031 -0.5065 -0.6804  0.6684
15673SOL    HW249027  10.279   8.084   6.934 -0.7079 -1.0793  0.8556
15674SOL     OW49028   9.324   5.623   4.732  0.4244 -0.2133  0.1951
15674SOL    HW149029   9.283   5.540   4.758  1.6128 -1.1885 -0.8924
15674SOL    HW249030   9.332   5.617   4.637  0.7120  1.0912  0.1149
15675SOL     OW49031   6.266   3.606   3.915  0.2049  0.1076 -0.1991
15675SOL    HW149032   6.195   3.630   3.976 -0.2784  0.9372 -1.0591
15675SOL    HW249033   6.345   3.642   3.956  0.4029 -2.0057  1.4615
15676SOL     OW49034   5.034  10.721  11.027  0.3686 -0.7564  0.3734
15676SOL    HW149035   5.087  10.777  10.971 -1.7940  0.3947 -0.6848
15676SOL    HW249036   5.096  10.661  11.067  2.2828 -0.3391 -1.7455
15677SOL     OW49037   0.595   4.239   5.058  0.3551  0.2271 -0.1253
15677SOL    HW149038   0.609   4.313   4.999  0.0993 -0.0817 -0.5792
15677SOL    HW249039   0.604   4.162   5.002  0.5654 -0.0832  0.3336
15678SOL     OW49040   8.522   3.883   9.062  0.1725  0.0988  0.3651
15678SOL    HW149041   8.502   3.822   8.991 -1.4566  2.8952 -1.7810
15678SOL    HW249042   8.566   3.956   9.019 -2.0446  2.5172  1.8793
15679SOL     OW49043  10.373   6.496   4.939 -0.0500 -0.1469  0.1304
15679SOL    HW149044  10.304   6.559   4.958  0.4699  0.6622 -0.5996
15679SOL    HW249045  10.394   6.457   5.024 -1.3398 -0.3659  0.3758
15680SOL     OW49046   0.657   3.135   6.963 -0.2092 -0.3986  0.2020
15680SOL    HW149047   0.570   3.098   6.980  0.4276 -1.1952  1.8999
15680SOL    HW249048   0.703   3.065   6.916  0.0383 -0.6368  0.7881
15681SOL     OW49049   3.611   3.897   6.068 -1.1062  0.2317 -0.5843
15681SOL    HW149050   3.634   3.920   6.158 -1.5302 -0.4619 -0.2858
15681SOL    HW249051   3.694   3.867   6.030 -1.0523 -0.1210 -0.2066
15682SOL     OW49052   6.348   3.183   7.429  0.0974 -0.3522  0.3542
15682SOL    HW149053   6.422   3.128   7.402 -0.4701 -0.9159 -0.1184
15682SOL    HW249054   6.350   3.181   7.525  0.8216 -0.1794  0.3458
15683SOL     OW49055   6.906   2.270   0.579 -0.2842 -0.1553  0.5184
15683SOL    HW149056   6.814   2.243   0.573 -0.4879 -0.0961  2.7243
15683SOL    HW249057   6.904   2.364   0.563 -0.3744 -0.3775 -0.9410
15684SOL     OW49058   2.519  10.866   9.623  0.1429  0.1277  0.0924
15684SOL    HW149059   2.517  10.792   9.684  3.2158 -0.0561  0.1340
15684SOL    HW249060   2.540  10.826   9.539  0.8277  0.8293 -0.0785
15685SOL     OW49061   5.832   9.676   4.557  0.0090  0.7230 -0.6605
15685SOL    HW149062   5.746   9.676   4.599 -0.5456 -0.7270 -1.7173
15685SOL    HW249063   5.895   9.672   4.629 -0.8346  0.8362  0.0864
15686SOL     OW49064   0.451   9.002   0.731  0.4441 -0.1088 -0.3976
15686SOL    HW149065   0.464   8.910   0.707 -0.5395  0.0258 -1.5361
15686SOL    HW249066   0.512   9.017   0.804  0.1214 -1.8500  0.2743
15687SOL     OW49067   8.331   1.471  10.792 -0.1385 -0.0272 -0.1308
15687SOL    HW149068   8.389   1.401  10.761 -2.7971 -2.3794 -0.2555
15687SOL    HW249069   8.322   1.530  10.717 -0.7836 -1.6795 -1.4118
15688SOL     OW49070   9.327   9.718   7.437 -0.2394 -0.3365 -0.2689
15688SOL    HW149071   9.418   9.733   7.410  0.4898  0.0740  2.1636
15688SOL    HW249072   9.333   9.647   7.501 -1.2501  1.2991  1.7472
15689SOL     OW49073   7.592   3.378  10.510  0.3172  0.1114  0.0239
15689SOL    HW149074   7.582   3.369  10.604 -0.1737 -1.7108 -0.1625
15689SOL    HW249075   7.528   3.317  10.473 -0.0065  1.3283 -1.5058
15690SOL     OW49076   0.426  10.321   9.782 -0.0118 -0.0882  0.4072
15690SOL    HW149077   0.462  10.247   9.733  3.0168  0.2754  1.8134
15690SOL    HW249078   0.428  10.292   9.874  0.3436  1.3634  0.8855
15691SOL     OW49079   5.763   3.602   4.468 -0.5289 -0.3232  0.2724
15691SOL    HW149080   5.694   3.599   4.401  0.6294  3.8946 -1.4379
15691SOL    HW249081   5.830   3.541   4.436 -1.8331 -1.6469 -0.0342
15692SOL     OW49082   2.552   5.799   9.867  0.0412 -0.3554 -0.6942
15692SOL    HW149083   2.573   5.759   9.782  1.9662 -1.6452  0.3100
15692SOL    HW249084   2.570   5.730   9.931 -2.4442  0.2022  0.7492
15693SOL     OW49085   8.478   4.740   6.572  0.2802 -0.6575  0.3266
15693SOL    HW149086   8.483   4.693   6.489  0.6076  0.9450 -0.5836
15693SOL    HW249087   8.509   4.676   6.637  0.2809 -1.8408 -0.8027
15694SOL     OW49088   3.503   9.280   8.657  0.3034 -0.2738  0.6455
15694SOL    HW149089   3.524   9.188   8.666  0.5885 -0.4569 -1.3974
15694SOL    HW249090   3.572   9.326   8.705 -0.4445 -1.0949  2.6036
15695SOL     OW49091   5.192   9.761   2.533  0.4380  0.1379 -0.3422
15695SOL    HW149092   5.282   9.736   2.556  0.6524  0.8172 -0.4185
15695SOL    HW249093   5.192   9.856   2.536 -0.5850  0.1329  0.7930
15696SOL     OW49094   3.011   7.708   1.894 -0.0117  0.3769  0.0319
15696SOL    HW149095   3.067   7.632   1.912  0.0624  0.3583 -0.2845
15696SOL    HW249096   2.930   7.671   1.861 -0.8934  0.2882  2.1087
15697SOL     OW49097  10.195   0.164   5.623 -0.5598 -0.1973  0.0455
15697SOL    HW149098  10.145   0.244   5.643  0.2893 -0.1274  2.1716
15697SOL    HW249099  10.130   0.102   5.591 -1.9791  0.0837  2.1618
15698SOL     OW49100   5.897   2.142   0.917 -0.2095  0.7449  0.0165
15698SOL    HW149101   5.988   2.123   0.897 -0.4949 -0.5045 -0.1962
15698SOL    HW249102   5.848   2.111   0.840 -0.7037  2.9204 -0.6196
15699SOL     OW49103   9.093   8.135   3.825  0.3328 -0.1002 -0.1765
15699SOL    HW149104   9.073   8.045   3.803 -1.3301  0.3032 -0.3991
15699SOL    HW249105   9.028   8.187   3.778 -0.4259  1.0521  2.0002
15700SOL     OW49106   9.407  10.951   7.916 -0.0171  0.2620 -0.2767
15700SOL    HW149107   9.437  11.038   7.891 -2.5815  1.0057 -1.0446
15700SOL    HW249108   9.402  10.902   7.834 -0.6116  0.0675 -0.1277
15701SOL     OW49109   4.246   4.512   2.268 -0.2459 -0.3158  0.1401
15701SOL    HW149110   4.216   4.597   2.235  1.0506  0.5558  1.0899
15701SOL    HW249111   4.166   4.465   2.290 -0.9964  0.6308 -0.4855
15702SOL     OW49112   3.391   1.789   7.368  0.2110 -0.3754  0.0144
15702SOL    HW149113   3.439   1.774   7.449 -0.3617  0.3571  0.5101
15702SOL    HW249114   3.457   1.824   7.308  0.4474 -0.0367  0.4617
15703SOL     OW49115   2.582   8.522   9.549  0.9394 -0.2774 -0.2396
15703SOL    HW149116   2.602   8.460   9.619 -0.1563 -0.3300  0.0529
15703SOL    HW249117   2.547   8.468   9.478 -1.6554  0.0664  0.6383
15704SOL     OW49118   3.419   5.017   7.991  0.4313 -0.4385  0.3322
15704SOL    HW149119   3.379   4.983   8.071  0.3692 -0.2352  0.3872
15704SOL    HW249120   3.347   5.020   7.928  0.7341 -1.7734 -0.1051
15705SOL     OW49121   1.684   2.332   4.277  0.2465  0.7161  0.5226
15705SOL    HW149122   1.756   2.393   4.258 -0.1679  1.1619  0.3695
15705SOL    HW249123   1.637   2.324   4.194  1.4173 -1.3353 -0.0103
15706SOL     OW49124   5.497   6.958   3.379  0.4234 -0.4938  0.5428
15706SOL    HW149125   5.572   6.974   3.436  1.3987 -0.2931 -0.7437
15706SOL    HW249126   5.460   6.875   3.410  0.3283  0.1023  2.0658
15707SOL     OW49127   1.837  10.532   8.533 -0.4484  0.1642  0.5926
15707SOL    HW149128   1.760  10.476   8.522 -0.7607  0.6090  0.4684
15707SOL    HW249129   1.867  10.549   8.443 -0.0005 -0.2789  0.6523
15708SOL     OW49130   6.473   1.370   4.293  0.4706 -0.1738  0.0845
15708SOL    HW149131   6.392   1.383   4.342 -0.2712  0.7391 -1.2980
15708SOL    HW249132   6.500   1.281   4.314 -0.3766 -0.1616  1.3129
15709SOL     OW49133   4.373   4.309   7.707  0.2939  0.4764 -0.6059
15709SOL    HW149134   4.352   4.269   7.791  0.3228 -1.5744 -1.5168
15709SOL    HW249135   4.468   4.325   7.712  0.4240 -0.2720 -0.4735
15710SOL     OW49136   6.167   9.683   4.668 -0.4524  0.2011  0.0672
15710SOL    HW149137   6.215   9.601   4.656  0.2791  0.7990 -1.3027
15710SOL    HW249138   6.183   9.706   4.760 -1.0726 -1.4132  0.6271
15711SOL     OW49139   9.330   8.574   1.500 -0.6580 -0.4248  0.3367
15711SOL    HW149140   9.289   8.659   1.485 -0.9917 -0.8360 -1.2351
15711SOL    HW249141   9.293   8.517   1.433 -0.1981 -1.7382  1.1569
15712SOL     OW49142   4.303   5.893   2.305  0.4136 -0.3825 -0.0163
15712SOL    HW149143   4.371   5.889   2.372  0.0999 -0.0147  0.3287
15712SOL    HW249144   4.349   5.871   2.224  0.7209 -1.1584  0.3607
15713SOL     OW49145   1.468   5.135   9.032  0.4207  0.0046 -0.1239
15713SOL    HW149146   1.454   5.227   9.011 -0.7419 -0.2232 -0.3998
15713SOL    HW249147   1.518   5.136   9.114  2.0241  0.8723 -1.0689
15714SOL     OW49148   5.512   1.488   6.076 -0.2590  0.1467  0.8472
15714SOL    HW149149   5.420   1.491   6.053 -0.2569 -1.0053  0.6463
15714SOL    HW249150   5.538   1.580   6.082 -1.0128  0.4973 -0.7309
15715SOL     OW49151   1.750   1.568   2.048 -0.0519 -0.6649  0.2280
15715SOL    HW149152   1.738   1.577   1.954 -0.0404 -2.1471  0.0614
15715SOL    HW249153   1.842   1.545   2.059  0.8895  2.9007  0.9164
15716SOL     OW49154   9.744   8.921   9.722  0.5598  0.7313 -0.1586
15716SOL    HW149155   9.808   8.967   9.669  2.1315 -1.3648 -0.1969
15716SOL    HW249156   9.694   8.869   9.660  1.4113 -0.5757  0.2102
15717SOL     OW49157   3.382   2.603   9.499 -0.2417 -0.0309  0.1645
15717SOL    HW149158   3.290   2.617   9.475 -0.5043  1.8307  2.0375
15717SOL    HW249159   3.415   2.690   9.519  1.4516 -0.8733  1.2008
15718SOL     OW49160   4.725   3.634   7.267  0.6141 -0.0236 -0.3985
15718SOL    HW149161   4.777   3.673   7.337  0.4471  2.2803 -1.4536
15718SOL    HW249162   4.759   3.674   7.186 -0.3197 -1.2886 -1.4624
15719SOL     OW49163  10.304   5.788   4.222  0.0548 -0.4769 -0.6489
15719SOL    HW149164  10.212   5.806   4.204 -0.8657 -2.5295  1.4806
15719SOL    HW249165  10.321   5.834   4.305  0.9371 -0.1715 -0.9866
15720SOL     OW49166   1.823   9.231   0.853 -0.8939 -0.6042  0.2464
15720SOL    HW149167   1.770   9.272   0.921 -0.4038 -0.4176  0.5168
15720SOL    HW249168   1.891   9.183   0.900  0.4159  0.8052 -0.1046
15721SOL     OW49169   6.678  10.382   5.465 -0.5802  0.4630  0.2559
15721SOL    HW149170   6.649  10.341   5.384  1.7028  1.0391 -0.9428
15721SOL    HW249171   6.598  10.411   5.508 -1.7992  1.5611 -2.5747
15722SOL     OW49172   1.479   8.164   3.013 -0.7638 -0.5730 -0.4059
15722SOL    HW149173   1.523   8.081   3.031 -0.4414  0.0520  1.9450
15722SOL    HW249174   1.393   8.155   3.054 -0.7925  0.1973 -0.2973
15723SOL     OW49175   5.492   4.804   4.975 -0.0065 -0.1214  0.0316
15723SOL    HW149176   5.556   4.767   5.036 -0.9469 -0.7589  0.6559
15723SOL    HW249177   5.494   4.744   4.901  0.7239  0.3371 -0.3350
15724SOL     OW49178   4.738  10.826   0.605 -0.2352 -0.2385 -0.2878
15724SOL    HW149179   4.701  10.821   0.517  0.5105 -1.6188 -0.5475
15724SOL    HW249180   4.819  10.877   0.594  1.2509 -2.5630 -0.9625
15725SOL     OW49181   2.955   8.308   0.914  0.2952 -0.1793  0.7721
15725SOL    HW149182   2.966   8.318   1.008  0.7601 -0.6290  0.7712
15725SOL    HW249183   3.029   8.254   0.887 -0.7167 -1.4047  0.3938
15726SOL     OW49184   0.499   1.073   8.036 -0.1330 -0.3857 -0.3700
15726SOL    HW149185   0.411   1.085   8.072 -0.3956  0.3401 -1.2167
15726SOL    HW249186   0.553   1.052   8.111 -0.7325  0.7251  0.3905
15727SOL     OW49187   4.918   8.359   9.574  0.1768  0.1472 -0.2743
15727SOL    HW149188   4.985   8.294   9.597 -0.8681 -0.4370  1.2800
15727SOL    HW249189   4.968   8.437   9.550  1.4307 -0.7009 -0.5459
15728SOL     OW49190   6.159   3.269   9.665  0.4572  0.2381  0.0579
15728SOL    HW149191   6.068   3.245   9.679  0.1752  1.1218 -0.1586
15728SOL    HW249192   6.189   3.214   9.593 -0.3761  0.9969 -0.9029
15729SOL     OW49193   3.680   7.728  10.731  0.5054 -0.2887 -0.0115
15729SOL    HW149194   3.772   7.751  10.723  0.8688 -0.8076  2.0675
15729SOL    HW249195   3.679   7.632  10.727 -0.2146 -0.2330 -2.0459
15730SOL     OW49196  10.533   2.082   0.032  0.1174  0.0105 -0.5753
15730SOL    HW149197  10.507   2.007   0.085  1.9283 -1.1162 -1.2002
15730SOL    HW249198  10.483   2.155   0.067 -1.6072 -1.4512  0.1308
15731SOL     OW49199   0.207   6.325   3.786 -0.7043  0.1283  0.5741
15731SOL    HW149200   0.139   6.372   3.738 -1.1254 -0.1168  0.9307
15731SOL    HW249201   0.219   6.374   3.867  0.9117  1.2837 -0.3075
15732SOL     OW49202   1.535   1.263   8.298  0.2952 -0.3125 -0.2789
15732SOL    HW149203   1.505   1.197   8.235 -2.0900  0.3725  0.0423
15732SOL    HW249204   1.617   1.296   8.261 -0.3176 -0.9266 -2.3023
15733SOL     OW49205  10.466   2.576   8.620  0.0474 -0.3909 -0.4149
15733SOL    HW149206  10.514   2.585   8.702 -1.5627 -1.3144  0.6765
15733SOL    HW249207  10.388   2.630   8.632  1.0553  1.7227 -2.4631
15734SOL     OW49208   5.663   2.994   1.175  0.2102 -0.3551 -0.0633
15734SOL    HW149209   5.699   2.965   1.259  0.2673  1.3800  0.5387
15734SOL    HW249210   5.716   2.948   1.109  3.3021  1.7172  0.7754
15735SOL     OW49211   2.737   8.041   8.092  0.1082 -0.0119 -0.0318
15735SOL    HW149212   2.808   8.105   8.082 -0.1462  0.5948  1.6692
15735SOL    HW249213   2.666   8.076   8.038 -0.1741  1.4330  1.1856
15736SOL     OW49214   8.747  10.709   5.549  0.5537 -0.2610 -0.1128
15736SOL    HW149215   8.678  10.775   5.561 -0.9074 -1.7375  0.0794
15736SOL    HW249216   8.827  10.760   5.534 -0.0068  1.5822  2.4545
15737SOL     OW49217   9.007   9.626   5.049 -0.7125  0.0646  0.4700
15737SOL    HW149218   8.930   9.681   5.064 -1.8267 -1.9734  3.3694
15737SOL    HW249219   9.082   9.684   5.065 -1.6900  1.5773 -0.2632
15738SOL     OW49220   4.488   4.827   0.523 -0.0373  0.2111  0.4815
15738SOL    HW149221   4.473   4.918   0.498 -0.2394  0.3482  1.0914
15738SOL    HW249222   4.537   4.790   0.450 -1.2948  0.3922 -0.4801
15739SOL     OW49223   8.741   4.951   1.839 -0.2064  0.0897 -0.2580
15739SOL    HW149224   8.783   4.940   1.924  1.1845  0.9123 -0.8038
15739SOL    HW249225   8.808   4.993   1.784 -0.7509 -1.1930 -2.0067
15740SOL     OW49226   8.563   0.061   2.082  0.3540  0.9052 -0.0090
15740SOL    HW149227   8.576  -0.020   2.131 -0.9706  1.2458  0.9534
15740SOL    HW249228   8.608   0.046   1.998 -0.0014 -0.8730  0.0820
15741SOL     OW49229   8.281   2.707   2.954 -0.0202  0.3391  0.0804
15741SOL    HW149230   8.245   2.730   2.868  1.3693 -2.7754 -1.4745
15741SOL    HW249231   8.303   2.614   2.947  0.5046  0.0497  3.7292
15742SOL     OW49232   2.558   0.388   6.374  0.0736  0.3964  0.2781
15742SOL    HW149233   2.546   0.476   6.412 -0.2217  0.4985 -0.0490
15742SOL    HW249234   2.505   0.389   6.295  0.2558 -0.0037  0.1505
15743SOL     OW49235   6.417   6.568   1.779 -0.5850  0.2112  0.0150
15743SOL    HW149236   6.366   6.522   1.845  0.0216 -0.6593 -0.1007
15743SOL    HW249237   6.352   6.592   1.712 -0.9187 -0.5290  0.0548
15744SOL     OW49238   5.110   3.972   6.329 -0.9313  0.1522 -1.0666
15744SOL    HW149239   5.149   3.920   6.399 -0.0305  0.8640 -1.0369
15744SOL    HW249240   5.106   4.061   6.364 -1.8113  0.2513 -1.3874
15745SOL     OW49241   6.638   6.635  10.355  0.0541 -0.2460  0.1209
15745SOL    HW149242   6.562   6.678  10.318  0.3099  0.8027  0.7773
15745SOL    HW249243   6.651   6.677  10.440  0.9297 -0.9070  0.3353
15746SOL     OW49244   7.635   1.246   5.561  0.3995 -0.2933  0.2333
15746SOL    HW149245   7.722   1.212   5.583  0.4542 -0.1421  0.2509
15746SOL    HW249246   7.637   1.257   5.466  1.1222  1.6747  0.4316
15747SOL     OW49247   1.507   7.081   8.407 -0.4226  0.3188 -0.2523
15747SOL    HW149248   1.462   7.125   8.479  1.0586  0.2244  0.7831
15747SOL    HW249249   1.437   7.041   8.355 -1.6175  1.5798  0.3225
15748SOL     OW49250  10.016   0.003   5.523  0.2019  1.2519  0.1990
15748SOL    HW149251  10.025  -0.045   5.440  0.0713 -2.8507  2.2899
15748SOL    HW249252   9.924   0.028   5.526 -0.4355 -0.8523  0.1036
15749SOL     OW49253   8.792  10.979   9.847  0.0436  0.4658 -0.0693
15749SOL    HW149254   8.758  11.004   9.761  1.7039 -2.1780 -1.6274
15749SOL    HW249255   8.864  11.040   9.863  1.1427 -0.3494 -1.6586
15750SOL     OW49256   1.059   6.044   4.847  0.4598 -0.0440 -0.5283
15750SOL    HW149257   1.116   6.008   4.914  2.1301  0.1688 -1.7713
15750SOL    HW249258   1.117   6.064   4.774 -1.0113  1.4440 -1.3686
15751SOL     OW49259   6.454  10.247   7.728  0.8137 -0.5579  0.3594
15751SOL    HW149260   6.447  10.153   7.744  1.7217 -1.2322 -2.5979
15751SOL    HW249261   6.364  10.276   7.715  0.6252 -1.3415 -0.1448
15752SOL     OW49262   8.078  10.192   7.318 -0.1951  0.6178 -0.4890
15752SOL    HW149263   8.061  10.210   7.225  0.2724 -0.3615 -0.7814
15752SOL    HW249264   8.094  10.097   7.321  0.4970  0.7532  0.4876
15753SOL     OW49265   2.713   7.249   5.769  0.0823  0.7077  0.0843
15753SOL    HW149266   2.765   7.221   5.694 -0.5674 -0.3945  0.0148
15753SOL    HW249267   2.646   7.181   5.778 -0.5325  1.4062  0.9766
15754SOL     OW49268   4.973   6.430   5.004  0.0049 -0.1824  0.0944
15754SOL    HW149269   5.034   6.414   5.076  1.9480 -2.8476 -1.9352
15754SOL    HW249270   4.894   6.381   5.029  0.7660 -1.3413  0.3116
15755SOL     OW49271   8.292   3.407   3.009 -0.2625  0.0230  0.1204
15755SOL    HW149272   8.302   3.467   2.936 -0.6835 -0.6913 -0.5384
15755SOL    HW249273   8.282   3.463   3.086 -0.5308  0.7865 -0.4640
15756SOL     OW49274   5.717   9.815  10.012 -0.1051  0.3478 -0.7652
15756SOL    HW149275   5.727   9.727  10.048 -0.3304 -0.4084 -2.4600
15756SOL    HW249276   5.775   9.870  10.065 -0.4264 -0.6883  0.7158
15757SOL     OW49277   7.383   5.150   5.376  0.6011 -0.0287  0.3927
15757SOL    HW149278   7.466   5.133   5.331  0.4855 -0.3435  0.3006
15757SOL    HW249279   7.409   5.173   5.465  0.7722 -0.4128  0.4461
15758SOL     OW49280   0.260   1.527   9.311 -0.0183  0.2770 -0.0765
15758SOL    HW149281   0.306   1.490   9.236 -0.9755 -2.4106  0.5308
15758SOL    HW249282   0.218   1.451   9.353 -2.3448  2.1344  1.1934
15759SOL     OW49283   1.995   2.668   2.525 -0.1200  0.5183 -0.4621
15759SOL    HW149284   2.068   2.722   2.493  0.4660  0.2840  0.4561
15759SOL    HW249285   2.015   2.652   2.617  0.5999 -2.6352 -1.0426
15760SOL     OW49286   8.255   5.544   3.723  0.1409  0.4784 -0.7253
15760SOL    HW149287   8.192   5.555   3.652 -1.6796 -3.0013  0.1494
15760SOL    HW249288   8.209   5.574   3.801  1.2503  1.9967 -0.6100
15761SOL     OW49289   8.128   4.199   1.654  0.2749 -0.1974  0.0142
15761SOL    HW149290   8.187   4.124   1.645  0.7391  0.3172 -1.7597
15761SOL    HW249291   8.178   4.272   1.618 -0.2701  0.9224  1.4754
15762SOL     OW49292   3.919   8.055  10.375  0.0167  0.4903 -0.0503
15762SOL    HW149293   3.862   8.102  10.314 -3.3939 -2.2629  0.6752
15762SOL    HW249294   3.973   8.000  10.319 -2.0989 -0.9856 -0.7790
15763SOL     OW49295  10.186   0.142  10.100  0.2431 -0.0445 -0.2766
15763SOL    HW149296  10.205   0.078  10.031  1.3961  0.1872 -0.1939
15763SOL    HW249297  10.132   0.095  10.163 -1.5542 -0.0243 -1.7250
15764SOL     OW49298   7.430   0.992   8.265  0.7475  0.1841 -0.3015
15764SOL    HW149299   7.386   0.967   8.346 -1.0964  0.2711 -1.2331
15764SOL    HW249300   7.484   1.067   8.289 -0.6170  0.9016  0.6368
15765SOL     OW49301   9.340   2.578   3.155 -0.2108  0.0404 -0.0319
15765SOL    HW149302   9.354   2.630   3.076  0.9186  0.6420  0.5389
15765SOL    HW249303   9.428   2.561   3.189 -0.7046  0.7930  1.7325
15766SOL     OW49304   9.665  10.693   1.667 -0.3841 -0.3752 -0.0620
15766SOL    HW149305   9.626  10.621   1.716 -1.3707  1.7671  2.5206
15766SOL    HW249306   9.591  10.745   1.637  0.2312  1.9818  2.1227
15767SOL     OW49307   4.380   8.829   9.288 -0.4183 -0.6960  0.3527
15767SOL    HW149308   4.457   8.867   9.330 -0.8059 -1.7273  2.0696
15767SOL    HW249309   4.363   8.887   9.213  2.0682 -0.5034 -0.1480
15768SOL     OW49310   0.666   4.946   0.020  0.2433  0.1774 -0.2494
15768SOL    HW149311   0.589   4.904   0.060 -0.2120  1.4924  0.3013
15768SOL    HW249312   0.632   4.989  -0.058 -0.0481  2.5343  1.0975
15769SOL     OW49313   1.138   7.348   2.657  0.1410 -0.5233  0.4374
15769SOL    HW149314   1.087   7.277   2.697 -0.7950 -0.6070 -0.8458
15769SOL    HW249315   1.072   7.408   2.623  0.7890 -1.3548 -2.5911
15770SOL     OW49316   5.916  10.981  10.749 -0.0681  0.2645  0.5189
15770SOL    HW149317   5.890  11.033  10.825 -0.1913  0.9749  0.0003
15770SOL    HW249318   5.842  10.988  10.690  0.2769  0.2231  0.0810
15771SOL     OW49319   8.822   6.864   0.508  0.1910 -0.1557  0.3074
15771SOL    HW149320   8.826   6.864   0.604  1.7465  0.8914  0.2892
15771SOL    HW249321   8.817   6.771   0.485  0.1254 -0.4447  1.3940
15772SOL     OW49322   1.469   3.285   2.560  0.3383  0.9963 -0.2697
15772SOL    HW149323   1.408   3.324   2.497 -0.3641 -1.1924 -1.0246
15772SOL    HW249324   1.507   3.211   2.514  0.8445  0.1415  1.4311
15773SOL     OW49325   9.055   1.687   6.953 -0.5551 -0.5499  0.0257
15773SOL    HW149326   9.072   1.615   6.892 -2.2042 -1.3300  0.4192
15773SOL    HW249327   9.046   1.644   7.039 -2.8110 -0.1106  0.0842
15774SOL     OW49328   4.016   3.175   1.240  0.0532 -0.0678  0.3105
15774SOL    HW149329   3.995   3.260   1.200  1.3383 -0.3022 -0.9366
15774SOL    HW249330   4.023   3.194   1.333  0.7611  1.2994  0.0040
15775SOL     OW49331   7.862   8.760   1.780 -0.3399  0.5569  0.1632
15775SOL    HW149332   7.945   8.802   1.805  0.6400 -0.6471 -0.9415
15775SOL    HW249333   7.798   8.832   1.779  0.9847  1.7770 -0.3703
15776SOL     OW49334   1.659   8.097   7.395  0.0049  0.0330 -0.1143
15776SOL    HW149335   1.689   8.021   7.346 -0.7431 -0.2326 -0.1817
15776SOL    HW249336   1.571   8.114   7.362  0.0582  0.7617  0.0934
15777SOL     OW49337   2.509   0.714   2.803 -0.4923 -0.8272  0.3865
15777SOL    HW149338   2.571   0.760   2.859 -1.4303  0.7543  0.1950
15777SOL    HW249339   2.439   0.687   2.862  0.0560 -2.0465  0.4972
15778SOL     OW49340   5.125   9.056   1.193  0.1241  0.3151  0.1078
15778SOL    HW149341   5.157   8.987   1.251  0.3356 -0.6524 -1.1129
15778SOL    HW249342   5.033   9.033   1.178  0.3896 -0.1606 -0.8974
15779SOL     OW49343   3.440   6.094   9.425 -0.3769 -0.0689 -0.1930
15779SOL    HW149344   3.439   6.142   9.342  0.7811  1.1992  0.5105
15779SOL    HW249345   3.528   6.106   9.459 -1.2954  0.8615  2.0354
15780SOL     OW49346   4.764   6.319   8.262 -0.0007 -0.6532 -0.1249
15780SOL    HW149347   4.805   6.399   8.230 -0.6792  0.0937  0.8493
15780SOL    HW249348   4.678   6.318   8.220  0.2449 -1.2161 -0.6356
15781SOL     OW49349   6.844   9.083   1.850  0.1944 -0.3207 -0.3626
15781SOL    HW149350   6.890   9.058   1.930 -1.2081 -2.9628 -0.2655
15781SOL    HW249351   6.775   9.142   1.879  1.4997  1.1486 -0.1033
15782SOL     OW49352   4.438   3.541   2.813  0.0298  0.1125 -0.6060
15782SOL    HW149353   4.510   3.477   2.817 -1.6346 -1.8359 -0.0478
15782SOL    HW249354   4.447   3.592   2.894 -0.4571 -1.5810  0.5698
15783SOL     OW49355   0.876   5.546   8.805 -0.3877  0.0677 -0.0110
15783SOL    HW149356   0.956   5.576   8.847 -0.2638  0.2001 -0.3367
15783SOL    HW249357   0.880   5.451   8.810  1.2366 -0.0852 -2.6267
15784SOL     OW49358   2.261   1.696   8.157 -0.3040  0.0973 -0.0893
15784SOL    HW149359   2.269   1.745   8.076 -0.3307  0.7410  0.2860
15784SOL    HW249360   2.335   1.636   8.157  0.2163  0.7306 -0.1694
15785SOL     OW49361   0.768   4.005   6.054 -0.1322  0.2663  0.1704
15785SOL    HW149362   0.702   3.966   6.112  0.7736 -0.2155  0.9068
15785SOL    HW249363   0.719   4.035   5.978 -1.1293 -0.5406  0.4801
15786SOL     OW49364   6.160   9.874   4.459 -0.0279 -0.3620 -0.2998
15786SOL    HW149365   6.235   9.831   4.418 -2.6816 -2.3431 -3.6051
15786SOL    HW249366   6.141   9.821   4.537  1.3326 -0.4575 -0.0171
15787SOL     OW49367   2.999   3.160   5.850 -1.1185 -0.6151  0.1166
15787SOL    HW149368   3.031   3.210   5.925 -3.2429 -1.1389  1.4601
15787SOL    HW249369   3.044   3.076   5.856  1.8730  0.6717 -1.7028
15788SOL     OW49370   0.416   6.236   2.901  0.9790 -0.0064  0.1071
15788SOL    HW149371   0.426   6.315   2.848  0.8726 -0.3655 -0.4578
15788SOL    HW249372   0.335   6.251   2.951 -0.7479 -0.9759 -2.2196
15789SOL     OW49373   0.361   6.363  10.412 -0.5942 -0.1730 -0.1081
15789SOL    HW149374   0.432   6.302  10.428 -1.5171 -1.1517  0.3901
15789SOL    HW249375   0.337   6.395  10.499  1.2881  2.6332 -0.4831
15790SOL     OW49376   4.552   7.237   3.501 -0.0496 -0.5143 -0.4700
15790SOL    HW149377   4.508   7.176   3.560 -1.0551  1.0405  0.4668
15790SOL    HW249378   4.510   7.224   3.416 -1.4752  0.0626  0.1256
15791SOL     OW49379   0.439   8.944   7.603 -0.2659 -0.5380 -0.0106
15791SOL    HW149380   0.415   9.020   7.655  1.9521  0.0073  0.3229
15791SOL    HW249381   0.409   8.964   7.515 -0.6347  0.2587  0.2865
15792SOL     OW49382   1.563   3.057   4.341  0.7377  0.6145 -0.0818
15792SOL    HW149383   1.552   3.052   4.436 -1.6928  1.2103 -0.2495
15792SOL    HW249384   1.573   3.151   4.323  0.4259  0.5872 -0.4390
15793SOL     OW49385   9.182   4.814   1.156 -0.4306  0.0077 -0.3968
15793SOL    HW149386   9.169   4.801   1.250  2.7627  0.0904  0.1903
15793SOL    HW249387   9.100   4.787   1.116 -2.3180  1.0301  2.4666
15794SOL     OW49388   3.170   8.437  11.028  0.1670 -0.1510 -0.2987
15794SOL    HW149389   3.180   8.418  10.934 -1.3614  2.2494 -1.0360
15794SOL    HW249390   3.163   8.532  11.032  2.5283  0.0337  2.5585
15795SOL     OW49391   3.698   5.368   1.806 -0.0239 -0.2867  0.5137
15795SOL    HW149392   3.792   5.385   1.808 -0.0861  0.0249  2.1551
15795SOL    HW249393   3.659   5.450   1.774  0.3262 -0.9973 -1.9429
15796SOL     OW49394   0.902   0.017   3.218 -0.5267  0.2286 -0.1275
15796SOL    HW149395   0.945   0.095   3.251  0.9685 -0.1397 -1.1113
15796SOL    HW249396   0.872  -0.029   3.297  3.8427 -1.1732  1.0002
15797SOL     OW49397   2.073   9.337   2.245  0.3041 -0.0942 -0.0539
15797SOL    HW149398   2.062   9.397   2.171  1.6233 -0.1154 -0.2878
15797SOL    HW249399   2.102   9.393   2.317  1.5039 -0.4233 -0.2627
15798SOL     OW49400   8.314   4.702   3.425 -0.0957 -0.1519  0.3589
15798SOL    HW149401   8.297   4.608   3.440 -1.4765  0.1412  0.8009
15798SOL    HW249402   8.384   4.723   3.486  0.9863 -1.1252 -0.5050
15799SOL     OW49403   0.258   9.622   2.514 -0.4794 -0.2820 -0.0607
15799SOL    HW149404   0.175   9.593   2.476  0.7788 -1.4029 -2.1392
15799SOL    HW249405   0.307   9.659   2.441  1.1492 -0.3495  0.9355
15800SOL     OW49406   1.468   7.608   9.764  0.6532  0.0153 -0.3607
15800SOL    HW149407   1.556   7.597   9.799 -0.0505 -0.0538  1.4861
15800SOL    HW249408   1.444   7.697   9.787  0.1005 -0.0849 -0.5356
15801SOL     OW49409   6.631   9.369   5.822 -0.2016 -0.5874  0.6591
15801SOL    HW149410   6.636   9.464   5.834 -2.1801 -0.0566 -1.8021
15801SOL    HW249411   6.697   9.350   5.755  1.1094 -1.2261  2.0749
15802SOL     OW49412   1.537  10.105   7.515 -0.9087 -0.2011  0.0582
15802SOL    HW149413   1.596  10.093   7.590  0.5914 -1.7103 -1.2908
15802SOL    HW249414   1.449  10.093   7.552 -0.4418  1.9495  2.0960
15803SOL     OW49415  10.545   0.589   1.140 -0.5186  0.0055  0.3907
15803SOL    HW149416  10.480   0.550   1.198 -0.9888  0.1554 -0.0286
15803SOL    HW249417  10.606   0.518   1.121 -1.9036 -0.8453 -1.1566
15804SOL     OW49418   2.794   7.918   1.902 -0.2916 -0.5203  0.3243
15804SOL    HW149419   2.753   7.940   1.986 -1.9920  2.2815 -1.0525
15804SOL    HW249420   2.879   7.882   1.924 -1.0014 -0.6144  3.2383
15805SOL     OW49421   4.113   7.726   9.344  0.3809  0.6318 -0.4044
15805SOL    HW149422   4.150   7.797   9.395 -1.8368  1.2944  0.3682
15805SOL    HW249423   4.183   7.661   9.339  0.7808  0.5979  3.3696
15806SOL     OW49424   3.603   5.381   2.708  0.0830 -0.1111  0.2441
15806SOL    HW149425   3.672   5.395   2.644  1.2840 -1.1715  1.2335
15806SOL    HW249426   3.544   5.318   2.667 -1.6108  2.4151 -1.4901
15807SOL     OW49427   0.453   3.871   7.345 -0.4814 -0.5427  0.4336
15807SOL    HW149428   0.374   3.849   7.394 -0.9725 -1.3769 -0.6805
15807SOL    HW249429   0.488   3.787   7.316 -0.4702 -0.0720 -1.0196
15808SOL     OW49430   3.968   2.807   6.406 -0.0463  0.1324  0.0696
15808SOL    HW149431   4.060   2.831   6.398 -0.0395  0.5503  1.1887
15808SOL    HW249432   3.922   2.870   6.351  0.3243  0.0397 -0.3487
15809SOL     OW49433   1.399   2.644   8.479 -0.0882  0.5651  0.5213
15809SOL    HW149434   1.481   2.641   8.431  1.0089 -0.9042  2.3453
15809SOL    HW249435   1.353   2.563   8.454  1.4572 -1.3748  3.3280
15810SOL     OW49436   7.697   9.418   7.958  0.4360  0.2170  0.1872
15810SOL    HW149437   7.611   9.435   7.918  0.6744  0.4350 -0.2358
15810SOL    HW249438   7.759   9.463   7.901  0.9509 -0.9034 -0.1748
15811SOL     OW49439   2.854   7.142   6.934 -0.4376  0.3131  0.2685
15811SOL    HW149440   2.904   7.162   6.855  1.8076 -1.8823  0.9836
15811SOL    HW249441   2.880   7.209   6.997  0.9396 -0.2163  0.3144
15812SOL     OW49442  10.290   3.436   5.603  0.7962 -0.4876  0.6166
15812SOL    HW149443  10.265   3.508   5.661 -0.9462 -1.2510  0.8819
15812SOL    HW249444  10.259   3.463   5.517 -0.2920 -1.0998  0.8024
15813SOL     OW49445   9.040   3.908   1.241 -0.2609 -0.3968 -0.5857
15813SOL    HW149446   9.091   3.988   1.250 -0.2699 -0.4324 -0.1963
15813SOL    HW249447   9.043   3.888   1.148  0.4688 -0.4185 -0.5645
15814SOL     OW49448   3.968  11.032   3.356 -1.1240 -0.0932 -0.2802
15814SOL    HW149449   4.063  11.016   3.352 -1.0136  0.5101 -0.1970
15814SOL    HW249450   3.931  10.948   3.381 -0.7103 -0.6270 -1.4091
15815SOL     OW49451   7.177   8.027   8.333 -0.1433  0.3685 -0.9937
15815SOL    HW149452   7.181   8.075   8.251 -0.0043  0.1033 -1.1425
15815SOL    HW249453   7.268   8.018   8.360 -0.1627  0.1137 -1.0101
15816SOL     OW49454   1.844   9.142   9.538  0.0348  0.1491 -0.5432
15816SOL    HW149455   1.937   9.163   9.531  0.1919  0.1152  1.1104
15816SOL    HW249456   1.815   9.185   9.619 -2.3813  3.6142 -2.9619
15817SOL     OW49457   9.173   6.524   3.093  0.0846 -0.1805  0.2768
15817SOL    HW149458   9.256   6.482   3.113  0.0093 -1.5759 -2.0016
15817SOL    HW249459   9.119   6.455   3.056 -1.3445  1.1579 -0.2692
15818SOL     OW49460   8.044   5.865   6.687  0.0291  0.2180 -0.0183
15818SOL    HW149461   7.982   5.866   6.760 -0.0737 -1.8488 -0.0108
15818SOL    HW249462   8.092   5.948   6.694 -1.5169  1.0597  1.0266
15819SOL     OW49463   2.125   9.741   6.944  0.5153  0.4778  0.1509
15819SOL    HW149464   2.125   9.836   6.951  0.1605  0.3993  1.4470
15819SOL    HW249465   2.094   9.710   7.029  1.9320 -0.8318  0.2433
15820SOL     OW49466   7.595   4.850   5.663 -0.0400  0.0308  0.2734
15820SOL    HW149467   7.562   4.838   5.752  1.5907 -0.9301  0.7858
15820SOL    HW249468   7.629   4.939   5.661  0.9359 -0.3051  0.9900
15821SOL     OW49469   1.765   2.902   5.437 -0.3858  0.6596 -0.3275
15821SOL    HW149470   1.846   2.934   5.476 -0.8880  1.1988  0.2853
15821SOL    HW249471   1.707   2.978   5.435 -1.3384 -0.0229  0.4759
15822SOL     OW49472   6.090   3.146   2.517  0.8701  0.4538  0.0084
15822SOL    HW149473   6.160   3.211   2.507  1.2143  0.1892  0.6222
15822SOL    HW249474   6.014   3.187   2.478  0.6821  1.8979  1.7305
15823SOL     OW49475   1.014   2.915   6.483 -0.0384 -0.2280  0.0656
15823SOL    HW149476   1.089   2.920   6.424  0.1529  1.2677  0.4129
15823SOL    HW249477   1.010   3.000   6.526 -0.9610 -0.8314  1.2613
15824SOL     OW49478  10.246   0.405   4.841 -0.0639 -0.2948 -0.0912
15824SOL    HW149479  10.312   0.473   4.850 -1.0312  0.5549  0.8362
15824SOL    HW249480  10.278   0.350   4.770 -0.2535  2.3260 -2.4098
15825SOL     OW49481   7.660   0.829   0.119 -0.0856 -0.1829  0.3456
15825SOL    HW149482   7.707   0.780   0.187 -0.7343 -0.5950  0.5020
15825SOL    HW249483   7.647   0.916   0.157  2.6734  0.7534 -0.6188
15826SOL     OW49484   9.915   0.214   6.476 -0.1003 -0.0863  0.4777
15826SOL    HW149485   9.969   0.148   6.520 -0.9582 -1.0710  0.1048
15826SOL    HW249486   9.864   0.164   6.412 -0.5832  0.9845  0.0078
15827SOL     OW49487  10.150   8.795   2.941 -0.2265  0.1748 -0.1919
15827SOL    HW149488  10.059   8.810   2.966 -0.2894 -1.0537  0.3944
15827SOL    HW249489  10.147   8.777   2.847 -0.9503 -2.2800  0.2251
15828SOL     OW49490  10.300   1.599   7.880  0.2816 -0.0585  0.0197
15828SOL    HW149491  10.336   1.556   7.958 -3.5497 -0.4530  1.7829
15828SOL    HW249492  10.343   1.684   7.878  0.6824 -0.1283  2.4925
15829SOL     OW49493   1.184   1.549   2.060 -0.2003 -0.1813  0.2950
15829SOL    HW149494   1.258   1.494   2.034 -0.9484 -0.2370 -1.9168
15829SOL    HW249495   1.145   1.502   2.134 -1.0739 -2.9710 -1.7460
15830SOL     OW49496   5.964   1.734   5.231  0.2458  0.3397 -0.1172
15830SOL    HW149497   5.917   1.793   5.291  1.2796  0.1373  0.9457
15830SOL    HW249498   5.904   1.719   5.159 -0.6749  1.3802  0.4124
15831SOL     OW49499   4.836   0.063   5.114 -0.3735  0.2716  0.2199
15831SOL    HW149500   4.864   0.148   5.079  0.3510 -0.9552 -2.4234
15831SOL    HW249501   4.909   0.004   5.095 -0.2631 -0.7179  3.2748
15832SOL     OW49502   5.742   6.692   6.174  0.0903  0.7277 -0.0313
15832SOL    HW149503   5.831   6.724   6.186  0.4062 -0.9626  2.9773
15832SOL    HW249504   5.751   6.597   6.169 -1.3509  0.6279 -2.8945
15833SOL     OW49505   4.087   4.118   2.734  0.1421 -0.6414  0.5066
15833SOL    HW149506   4.117   4.105   2.644 -0.6171 -0.2548  0.1895
15833SOL    HW249507   3.997   4.085   2.734 -0.4855  0.9774  0.6643
15834SOL     OW49508   3.636   5.713   1.066  0.4349  0.1174 -0.2633
15834SOL    HW149509   3.679   5.631   1.046  0.5904  0.2459 -0.4533
15834SOL    HW249510   3.677   5.777   1.008 -0.2426  0.1758 -0.6904
15835SOL     OW49511   5.793   6.241   7.242  0.0043  0.7484  0.2899
15835SOL    HW149512   5.780   6.148   7.258 -1.3441  0.7805 -0.4104
15835SOL    HW249513   5.727   6.284   7.297  1.8284  1.4319  2.0445
15836SOL     OW49514   3.615   2.333   0.932  0.0774  0.0415 -0.4579
15836SOL    HW149515   3.539   2.345   0.874  0.1645  0.5012 -0.4858
15836SOL    HW249516   3.688   2.318   0.872 -0.1317 -1.2756 -0.4034
15837SOL     OW49517   0.286   8.144   0.065  0.4951 -0.4041 -0.2667
15837SOL    HW149518   0.302   8.174  -0.024  1.0229  0.8546  0.2169
15837SOL    HW249519   0.193   8.160   0.079  0.1562 -1.6529 -0.9379
15838SOL     OW49520   8.729   1.096   2.957  0.3738 -0.1449 -0.0811
15838SOL    HW149521   8.682   1.113   2.876 -1.9943 -0.3743  1.1729
15838SOL    HW249522   8.673   1.036   3.006  1.7342 -0.0232  1.7423
15839SOL     OW49523   3.762   7.563   5.055 -0.0110  0.3841 -0.1208
15839SOL    HW149524   3.811   7.635   5.095 -1.4289  1.1998  0.1828
15839SOL    HW249525   3.822   7.488   5.060  1.0687  1.2683  0.5470
15840SOL     OW49526   2.079   4.058   1.988  0.1599 -0.2038  0.5641
15840SOL    HW149527   2.026   4.106   2.051 -0.4252 -0.2663  0.1347
15840SOL    HW249528   2.149   4.118   1.964 -0.6518  0.5090 -0.0856
15841SOL     OW49529   3.915   4.919   3.190  0.5676 -0.0046  0.0664
15841SOL    HW149530   3.846   4.981   3.166 -0.8729 -2.0403 -1.5346
15841SOL    HW249531   3.911   4.914   3.285 -0.3184  1.2188  0.1188
15842SOL     OW49532   7.632   4.523   1.999  0.3032  0.2029 -0.0274
15842SOL    HW149533   7.642   4.472   1.918 -0.0859  1.0223 -0.6071
15842SOL    HW249534   7.609   4.458   2.065 -1.2344 -0.2641 -0.9669
15843SOL     OW49535   3.299   3.302   2.969  0.8417 -0.4194  0.2236
15843SOL    HW149536   3.211   3.270   2.947  0.6388 -0.7849  1.4601
15843SOL    HW249537   3.357   3.231   2.943  0.9940  0.5023 -2.1984
15844SOL     OW49538   3.775   0.186   4.169  0.0626 -0.4166  0.2815
15844SOL    HW149539   3.862   0.152   4.150 -0.6346 -2.4459  0.5160
15844SOL    HW249540   3.764   0.173   4.263 -1.5868 -3.0791 -0.1721
15845SOL     OW49541   1.852   2.449   3.926  0.4326  0.0245 -0.2831
15845SOL    HW149542   1.927   2.497   3.892  0.3437 -0.2629 -0.9060
15845SOL    HW249543   1.859   2.457   4.021  0.3381  1.3835 -0.3652
15846SOL     OW49544   3.760  10.836   4.386  0.1303 -0.2697  0.1639
15846SOL    HW149545   3.689  10.901   4.389 -1.2022 -1.4877 -1.9504
15846SOL    HW249546   3.798  10.846   4.299  0.6805 -1.5108  0.2381
15847SOL     OW49547   0.329   6.934   2.117 -0.5717  0.3544 -0.1333
15847SOL    HW149548   0.372   6.855   2.082 -0.5263  0.9280 -1.4261
15847SOL    HW249549   0.337   6.998   2.047 -1.2364  1.2992  0.6369
15848SOL     OW49550   5.189   3.876   9.689 -0.0279 -0.1316  0.0391
15848SOL    HW149551   5.212   3.969   9.685 -1.9863  0.4778  1.5883
15848SOL    HW249552   5.143   3.860   9.606  1.7863 -0.2070 -1.0053
15849SOL     OW49553   0.983   2.297   1.099  0.5408  0.4669 -0.1696
15849SOL    HW149554   0.938   2.381   1.110  1.5216  1.0559 -0.5722
15849SOL    HW249555   0.978   2.280   1.005  0.2885  0.0327 -0.0808
15850SOL     OW49556   7.328   6.338   7.513  0.3210 -0.0082  0.2847
15850SOL    HW149557   7.322   6.253   7.469  0.7358 -0.0854  0.3690
15850SOL    HW249558   7.421   6.360   7.509  0.0939  0.8405 -0.4633
15851SOL     OW49559   1.071   6.369   5.027 -0.3205  0.1140 -1.2111
15851SOL    HW149560   1.167   6.367   5.021 -0.1727  0.2314  0.5006
15851SOL    HW249561   1.045   6.441   4.969  0.7908  1.2616 -0.3520
15852SOL     OW49562   3.570   3.135   0.841 -0.5997 -0.0028 -0.0792
15852SOL    HW149563   3.482   3.166   0.819 -0.8666 -0.9069 -0.3256
15852SOL    HW249564   3.557   3.075   0.914 -0.3756 -1.1813 -0.9642
15853SOL     OW49565   0.685   2.765   0.018 -0.2616 -0.2415  0.3093
15853SOL    HW149566   0.625   2.839   0.025 -0.8448 -0.6757 -0.0135
15853SOL    HW249567   0.740   2.771   0.096 -1.1103 -0.1709  0.9156
15854SOL     OW49568   4.547   0.108   8.501  1.1664 -0.3848 -0.3358
15854SOL    HW149569   4.627   0.154   8.524 -0.6193  1.6534  2.3901
15854SOL    HW249570   4.520   0.147   8.417  1.2924  1.4346  0.4255
15855SOL     OW49571   7.152  10.440   2.154 -0.0840 -0.0902  0.6287
15855SOL    HW149572   7.247  10.438   2.145 -0.0133  0.6577  1.0866
15855SOL    HW249573   7.120  10.390   2.079  0.6691 -0.4710  0.5493
15856SOL     OW49574   3.049   2.492   2.701  0.3871 -0.1604 -0.2197
15856SOL    HW149575   3.064   2.460   2.790  0.7946  1.1080  0.1881
15856SOL    HW249576   2.954   2.490   2.690  0.2569  0.6685  0.6410
15857SOL     OW49577  10.682  10.937   9.308 -0.1161 -0.0431  0.6788
15857SOL    HW149578  10.750  10.884   9.350 -0.0078  0.1862  0.7976
15857SOL    HW249579  10.730  10.998   9.252 -0.2485 -0.1827  0.4161
15858SOL     OW49580  10.254  10.323   6.696  0.1098  0.1725  0.6696
15858SOL    HW149581  10.211  10.294   6.776 -0.1315  0.7086  0.7452
15858SOL    HW249582  10.283  10.412   6.716 -0.0747  0.3621  0.1186
15859SOL     OW49583   7.290   8.300   8.804  0.6581 -0.4706  0.4324
15859SOL    HW149584   7.294   8.393   8.782  0.8519 -0.6045 -0.1021
15859SOL    HW249585   7.200   8.275   8.782  0.8817 -0.6290 -0.3198
15860SOL     OW49586   9.351   7.115  10.262 -0.6437 -0.5068 -0.3605
15860SOL    HW149587   9.359   7.210  10.261  0.6977 -0.6008 -0.6681
15860SOL    HW249588   9.271   7.098  10.311 -0.2596  0.7420  0.7487
15861SOL     OW49589  10.052   0.670   3.107 -0.1483  0.1387 -0.7934
15861SOL    HW149590   9.999   0.636   3.034 -0.4566  0.2238 -0.6102
15861SOL    HW249591  10.121   0.604   3.119 -1.3259 -0.9739  0.2238
15862SOL     OW49592   1.822   1.573   0.527 -0.6112  0.0689 -0.0930
15862SOL    HW149593   1.765   1.621   0.587  0.0811 -0.9330  1.4340
15862SOL    HW249594   1.826   1.485   0.563  1.9952  0.1235 -0.0597
15863SOL     OW49595   2.829   7.327   1.961 -0.1309  0.6493 -0.2844
15863SOL    HW149596   2.828   7.349   2.054 -2.3760 -1.9334  0.4516
15863SOL    HW249597   2.908   7.274   1.950 -0.4875 -0.0598  0.4723
15864SOL     OW49598   1.097  10.158   8.428 -0.4814 -0.0923 -0.7346
15864SOL    HW149599   1.062  10.247   8.436  0.0737  0.0625  0.0450
15864SOL    HW249600   1.135  10.139   8.514 -1.4253 -1.4485 -0.5946
15865SOL     OW49601   4.989   9.930   8.975  0.1910  0.3807 -0.0841
15865SOL    HW149602   4.953   9.951   8.889 -0.4793  1.5347  0.4628
15865SOL    HW249603   4.913   9.933   9.034  1.0526  2.4519  1.0263
15866SOL     OW49604  10.930   9.120   2.960  0.6111  0.2223 -0.2076
15866SOL    HW149605  10.993   9.106   2.889  1.3662 -0.9231  0.6481
15866SOL    HW249606  10.850   9.148   2.916  1.2616  0.1835 -1.4540
15867SOL     OW49607  10.162   9.844   4.660 -0.2216 -0.3402  0.4116
15867SOL    HW149608  10.119   9.899   4.595  0.2841 -0.8350 -0.3530
15867SOL    HW249609  10.133   9.879   4.744  0.3095  1.2768 -0.0454
15868SOL     OW49610   1.089   0.249   7.532  0.3082  0.0577 -0.1564
15868SOL    HW149611   1.146   0.233   7.608  0.1449 -1.0112 -0.2362
15868SOL    HW249612   1.004   0.273   7.571  0.4385  0.2922 -0.0151
15869SOL     OW49613   3.066   8.655   3.819  0.0359  0.4213  0.0565
15869SOL    HW149614   2.999   8.670   3.885 -2.1245 -1.0662 -1.6838
15869SOL    HW249615   3.035   8.702   3.741  1.0344 -0.2488 -0.7825
15870SOL     OW49616   7.268   1.133   3.421 -0.1002  0.5043 -0.2516
15870SOL    HW149617   7.331   1.203   3.404 -0.2914  0.6715 -0.2843
15870SOL    HW249618   7.184   1.170   3.393 -0.1332  0.0963 -0.7040
15871SOL     OW49619   0.276   3.094   8.635  0.2490  0.0132  0.2782
15871SOL    HW149620   0.262   3.092   8.729  0.2489 -0.2159  0.2734
15871SOL    HW249621   0.207   3.150   8.601  1.3750  1.6687  0.6156
15872SOL     OW49622   4.433  10.904   9.047 -0.5310  0.2338  0.3679
15872SOL    HW149623   4.450  10.837   9.114 -0.8233  0.9688  1.1992
15872SOL    HW249624   4.384  10.971   9.093 -2.6978 -0.2348 -1.1289
15873SOL     OW49625   5.874   3.103  10.007 -0.1070 -0.1242 -0.1274
15873SOL    HW149626   5.824   3.088  10.087  0.3032 -0.7138  0.0346
15873SOL    HW249627   5.935   3.173  10.029 -1.2320  1.0011 -0.5063
15874SOL     OW49628   0.958   2.594   4.313 -0.0170 -0.0849  0.6427
15874SOL    HW149629   1.038   2.543   4.297  0.0876 -0.3878  2.0130
15874SOL    HW249630   0.961   2.664   4.249  0.2018 -1.3891 -0.8246
15875SOL     OW49631   5.519   0.204   0.791 -0.2491 -0.1880 -0.7804
15875SOL    HW149632   5.502   0.208   0.885  0.6647 -0.4791 -0.5844
15875SOL    HW249633   5.593   0.264   0.778  0.8010 -1.4981 -1.0073
15876SOL     OW49634   1.100   5.291   1.086 -0.0881  0.2621  0.2721
15876SOL    HW149635   1.175   5.277   1.144  0.8389 -1.3591 -1.2257
15876SOL    HW249636   1.064   5.204   1.072 -1.3780  0.8437 -0.1790
15877SOL     OW49637   3.336   8.048   1.566  0.0653  0.2288  0.5413
15877SOL    HW149638   3.266   8.023   1.625 -0.0020 -0.1496  0.3057
15877SOL    HW249639   3.414   8.051   1.621  0.5268 -2.6973  0.2245
15878SOL     OW49640   6.900   5.409   8.125  0.1165  0.0613 -0.1978
15878SOL    HW149641   6.952   5.468   8.180 -1.2198  1.2200 -0.0961
15878SOL    HW249642   6.842   5.365   8.186 -0.3933  0.2934 -0.5040
15879SOL     OW49643   5.294   0.315   5.907 -0.2817  0.4213 -0.1969
15879SOL    HW149644   5.322   0.390   5.855  0.3702 -0.5328 -1.2408
15879SOL    HW249645   5.300   0.346   5.998 -2.1337  2.3369 -0.6535
15880SOL     OW49646   5.791   1.145   4.666 -0.4061 -0.1562  0.2472
15880SOL    HW149647   5.835   1.096   4.597  1.7324  1.5591  0.2552
15880SOL    HW249648   5.733   1.082   4.708 -1.7681 -1.2585 -3.0372
15881SOL     OW49649   6.463   8.018  10.884  0.0501  0.0978  0.6602
15881SOL    HW149650   6.500   8.057  10.963  1.0666 -1.9423  1.2430
15881SOL    HW249651   6.536   7.974  10.841 -0.1341  2.2771 -2.2356
15882SOL     OW49652   4.949   6.562   7.653  0.1493  0.0899  0.8607
15882SOL    HW149653   4.991   6.646   7.638 -0.4356  0.1365 -0.7217
15882SOL    HW249654   4.949   6.551   7.748 -2.0962  3.0807  1.3288
15883SOL     OW49655   1.895   2.249   6.860 -0.1412  0.2624 -0.8379
15883SOL    HW149656   1.930   2.196   6.931 -0.6425  1.7725  0.6234
15883SOL    HW249657   1.971   2.276   6.810  0.4508  0.6458  0.2256
15884SOL     OW49658   8.161   5.034   8.571  0.1711  0.3090 -0.1130
15884SOL    HW149659   8.103   4.967   8.535 -2.3941  1.7211  1.1151
15884SOL    HW249660   8.165   5.015   8.664  2.6538 -0.3623 -0.2816
15885SOL     OW49661   0.615   8.885   1.652 -0.0852  0.6560  0.5091
15885SOL    HW149662   0.694   8.839   1.679 -0.1302  0.1162 -0.2192
15885SOL    HW249663   0.588   8.936   1.728  0.5240  0.2331  1.0118
15886SOL     OW49664   9.007   9.482   3.479  0.5253  0.5631  0.0781
15886SOL    HW149665   8.921   9.481   3.436 -0.0921 -1.5040  1.2260
15886SOL    HW249666   9.018   9.393   3.512  1.7846  1.5328  2.5470
15887SOL     OW49667   5.933  10.492   9.134  0.2681 -0.2030  0.1685
15887SOL    HW149668   5.992  10.551   9.088 -1.0937  0.4378 -0.8032
15887SOL    HW249669   5.914  10.422   9.072  0.0277 -0.4182  0.4761
15888SOL     OW49670   0.041  10.656   0.031  0.5082 -0.1016  0.5242
15888SOL    HW149671   0.094  10.690  -0.040  0.0792 -1.2607 -0.3742
15888SOL    HW249672   0.086  10.577   0.059 -0.5093 -0.8766  0.0191
15889SOL     OW49673   4.913   1.333   0.905 -0.0192 -0.4628  0.4295
15889SOL    HW149674   4.894   1.321   0.812  0.4386 -0.6880  0.3621
15889SOL    HW249675   4.919   1.244   0.940 -0.3343 -0.3780  0.7059
15890SOL     OW49676   4.173   9.072   5.669 -0.3108  0.3796 -0.2841
15890SOL    HW149677   4.240   9.080   5.736  0.0871  0.8544 -0.7332
15890SOL    HW249678   4.104   9.132   5.697 -0.3213  0.2874 -0.1046
15891SOL     OW49679   1.957  10.633   2.439  0.8222 -0.1558 -0.6086
15891SOL    HW149680   1.883  10.612   2.384  0.2784  1.3388 -0.5053
15891SOL    HW249681   2.009  10.696   2.388  1.8446 -0.9186 -0.5470
15892SOL     OW49682   8.618   8.953  10.798  0.1518  0.0514 -0.2736
15892SOL    HW149683   8.688   8.994  10.746 -0.2033  2.8269  1.2329
15892SOL    HW249684   8.537   8.989  10.762 -0.5145 -2.3509 -1.3385
15893SOL     OW49685   7.447   5.677   2.111  0.3115 -0.2187 -0.5884
15893SOL    HW149686   7.413   5.753   2.063 -2.2083 -0.9155 -0.0978
15893SOL    HW249687   7.524   5.709   2.157  0.6076  1.4331 -2.1350
15894SOL     OW49688   1.930   1.144   2.798  0.3093 -0.2955 -0.7607
15894SOL    HW149689   1.927   1.113   2.708 -1.7736 -0.8537 -0.5371
15894SOL    HW249690   1.847   1.190   2.811  0.0546 -1.1849  1.1897
15895SOL     OW49691   4.345   6.233   9.422 -0.1361 -0.1844 -0.3659
15895SOL    HW149692   4.406   6.290   9.468  0.0920 -0.7305  0.0157
15895SOL    HW249693   4.272   6.221   9.482 -0.2405 -0.1944 -0.4933
15896SOL     OW49694   4.391   3.493   0.920  0.1152 -0.4957  0.1845
15896SOL    HW149695   4.326   3.460   0.858  0.1766 -0.7560  0.2564
15896SOL    HW249696   4.407   3.420   0.979  0.1667 -0.2950  0.4192
15897SOL     OW49697   6.754   8.857   0.793  0.3995 -0.0673 -0.5527
15897SOL    HW149698   6.669   8.817   0.773  1.0037 -1.0088 -1.3083
15897SOL    HW249699   6.745   8.888   0.883 -1.2035  1.0623 -1.0444
15898SOL     OW49700   4.695  10.503   3.711  0.6076  0.4135 -0.2247
15898SOL    HW149701   4.773  10.470   3.668  1.7914  0.3270  1.8409
15898SOL    HW249702   4.711  10.597   3.724 -0.0473  0.5873 -0.5952
15899SOL     OW49703   5.187   5.881   7.208  0.6908  0.4619  0.2830
15899SOL    HW149704   5.146   5.878   7.122  0.8085  0.4582  0.2270
15899SOL    HW249705   5.212   5.791   7.226  0.3588  0.4059  0.4706
15900SOL     OW49706   3.169  10.043  10.843 -0.5288  0.1591  0.0735
15900SOL    HW149707   3.075  10.028  10.831 -0.5902  0.2561  0.4023
15900SOL    HW249708   3.177  10.067  10.936  0.1690 -2.5647  0.7909
15901SOL     OW49709   5.088   3.059   3.173  0.0875 -0.0557  0.1186
15901SOL    HW149710   5.148   3.085   3.244  1.9857 -1.2706 -0.9624
15901SOL    HW249711   5.145   3.046   3.097 -1.5979 -1.0447 -1.0406
15902SOL     OW49712  10.265  10.711   1.392 -0.3795 -0.0907  0.9213
15902SOL    HW149713  10.277  10.690   1.300 -0.5548  0.5672  0.7407
15902SOL    HW249714  10.207  10.642   1.425  0.2536 -0.7343  0.7255
15903SOL     OW49715   5.597   4.762   6.083  0.1368  0.3743  0.1690
15903SOL    HW149716   5.573   4.780   6.174 -2.5355  1.9714 -0.7208
15903SOL    HW249717   5.558   4.676   6.065 -1.4796  1.1051 -0.0624
15904SOL     OW49718   4.821   9.343   0.613  0.6913 -0.1868 -0.1286
15904SOL    HW149719   4.831   9.287   0.537  1.7273  0.0883 -0.2078
15904SOL    HW249720   4.764   9.294   0.672  0.5067 -0.7332 -0.7543
15905SOL     OW49721   7.515   1.044   8.653  0.9092  0.0404  0.2853
15905SOL    HW149722   7.593   1.055   8.598  0.0314 -0.9168 -1.2250
15905SOL    HW249723   7.501   0.950   8.657  0.7759  0.0978  1.9771
15906SOL     OW49724   4.897   3.891   2.873  0.4428 -0.1179  0.2233
15906SOL    HW149725   4.960   3.852   2.933  1.0810  1.0871  0.3569
15906SOL    HW249726   4.812   3.871   2.912  0.3729 -4.6773 -1.6196
15907SOL     OW49727   3.619   9.189   7.199 -0.9995  0.0737  0.2178
15907SOL    HW149728   3.642   9.103   7.162 -0.4040  0.4027 -0.2034
15907SOL    HW249729   3.533   9.175   7.239 -0.6571 -0.8635  0.6677
15908SOL     OW49730   2.494   2.584  10.960 -0.0824  0.2649 -0.1298
15908SOL    HW149731   2.416   2.625  10.923  1.0086  0.7246 -2.0628
15908SOL    HW249732   2.460   2.522  11.026 -2.1827 -0.6718 -1.9646
15909SOL     OW49733   6.965   7.710   3.618 -0.2720 -0.6682 -0.0821
15909SOL    HW149734   6.873   7.729   3.632 -0.9591 -2.8124 -1.2199
15909SOL    HW249735   7.010   7.755   3.689 -2.1911  0.3328  0.5646
15910SOL     OW49736   1.432   3.434   2.087  0.3979 -0.0175  0.5396
15910SOL    HW149737   1.414   3.350   2.130  1.9950 -0.8285 -0.2901
15910SOL    HW249738   1.374   3.434   2.010  0.7319 -0.5728  0.2877
15911SOL     OW49739   4.681   6.831   7.415  0.5908 -0.0452  0.4580
15911SOL    HW149740   4.727   6.749   7.430 -1.0677 -1.2153 -0.5053
15911SOL    HW249741   4.729   6.875   7.345  1.4287 -0.2286  0.9136
15912SOL     OW49742   4.155   6.770   9.229 -0.1640  0.3920  0.8075
15912SOL    HW149743   4.085   6.816   9.184  1.2314  1.6004 -0.1862
15912SOL    HW249744   4.131   6.677   9.222 -1.3186  0.7387 -0.0842
15913SOL     OW49745   1.669   1.294   1.985 -0.5722  0.1235 -0.4684
15913SOL    HW149746   1.668   1.273   2.078 -0.7585 -0.2412 -0.5549
15913SOL    HW249747   1.682   1.389   1.983 -1.0229  0.2010 -0.0606
15914SOL     OW49748   2.504   9.129   9.451 -0.1585 -0.8844 -0.2100
15914SOL    HW149749   2.597   9.115   9.467  0.0219 -0.3113 -0.7172
15914SOL    HW249750   2.462   9.048   9.480  0.6784 -1.9079 -1.7176
15915SOL     OW49751   4.616   7.873   1.849 -0.0288  0.0106  0.0761
15915SOL    HW149752   4.645   7.782   1.856  0.3250  0.0683 -0.5794
15915SOL    HW249753   4.678   7.913   1.788  0.9856  1.1782  1.7910
15916SOL     OW49754   6.986   6.703   0.564 -0.2275 -0.6770  0.1787
15916SOL    HW149755   6.908   6.758   0.562 -0.4689 -1.0334 -1.0277
15916SOL    HW249756   7.008   6.688   0.472  2.5611  1.2052  0.3988
15917SOL     OW49757   8.491   1.829   7.392  0.4466  0.1287  0.1819
15917SOL    HW149758   8.517   1.883   7.467  1.3101 -0.0944  0.0636
15917SOL    HW249759   8.488   1.740   7.426 -0.0827  0.1368  0.1649
15918SOL     OW49760   2.053   2.916   7.686 -0.3120  0.1996 -0.2418
15918SOL    HW149761   2.035   3.009   7.673  1.0181  0.7218  1.3427
15918SOL    HW249762   2.066   2.906   7.780  1.3735 -1.2165 -0.5502
15919SOL     OW49763   6.855   7.158   2.023  0.5670  0.2538 -0.0174
15919SOL    HW149764   6.801   7.099   1.970 -0.7822 -0.4790  2.0646
15919SOL    HW249765   6.924   7.187   1.963 -1.9230  1.0035 -2.7629
15920SOL     OW49766   6.254   7.669   7.045 -0.1613  0.2685  0.1655
15920SOL    HW149767   6.215   7.701   6.963  0.2815 -0.5965 -0.4045
15920SOL    HW249768   6.257   7.574   7.033  3.1170  0.3203 -0.3038
15921SOL     OW49769   9.651   5.732   8.953 -0.4375 -0.3126  0.0559
15921SOL    HW149770   9.670   5.691   8.868  0.1726 -0.0110  0.0450
15921SOL    HW249771   9.736   5.740   8.996 -0.7824 -0.7665  0.8470
15922SOL     OW49772   3.236   2.414  10.715  0.4246 -0.0626  0.2310
15922SOL    HW149773   3.190   2.343  10.761 -0.0840 -1.4595 -2.2611
15922SOL    HW249774   3.319   2.422  10.761 -0.4036 -0.7027  1.9450
15923SOL     OW49775   6.946  10.398   3.069 -0.1606 -0.0100 -0.0858
15923SOL    HW149776   6.952  10.347   2.988  0.5814  1.2307 -0.8338
15923SOL    HW249777   7.024  10.373   3.118  0.6336  0.9823 -0.8121
15924SOL     OW49778   4.035   3.927   0.219  0.7280  0.0474 -0.1576
15924SOL    HW149779   4.028   3.832   0.235  0.2255  0.1578  0.3107
15924SOL    HW249780   4.089   3.959   0.291 -1.2493  0.4935  1.1852
15925SOL     OW49781   8.111  10.335   9.799 -0.4476 -0.3211 -0.1640
15925SOL    HW149782   8.172  10.275   9.841 -1.1633 -0.9579 -0.0214
15925SOL    HW249783   8.062  10.281   9.737  0.4073  0.5449 -1.6644
15926SOL     OW49784  10.080  10.858  10.816 -0.4579 -0.1495 -0.4696
15926SOL    HW149785  10.034  10.940  10.799 -1.1909 -0.7927 -1.7216
15926SOL    HW249786  10.173  10.879  10.803 -0.6330  0.5110 -0.6510
15927SOL     OW49787   6.863   3.473   2.242 -0.6154 -0.6426  0.1202
15927SOL    HW149788   6.844   3.447   2.332  0.2143 -0.2726  0.4144
15927SOL    HW249789   6.922   3.548   2.251  0.2651 -1.2212 -0.7337
15928SOL     OW49790   2.437   4.084   2.342 -0.3997  0.1559  0.3479
15928SOL    HW149791   2.443   4.101   2.248 -1.5090  3.1136  0.6998
15928SOL    HW249792   2.351   4.044   2.355  1.2830 -4.0860 -0.2149
15929SOL     OW49793   1.407   6.223   6.319 -0.6159  0.4266 -0.0432
15929SOL    HW149794   1.387   6.306   6.275 -0.0313  1.3850  1.4351
15929SOL    HW249795   1.483   6.242   6.374  0.0044 -1.3024 -0.2383
15930SOL     OW49796   0.325   0.816   3.684 -0.2721  0.0215 -0.2128
15930SOL    HW149797   0.236   0.814   3.720 -3.1202  0.5585 -6.0446
15930SOL    HW249798   0.336   0.730   3.642  1.9910  0.0193  0.2440
15931SOL     OW49799   1.478   0.455   2.336 -0.1523  0.1244 -0.0467
15931SOL    HW149800   1.419   0.409   2.276 -1.2321  2.4416 -0.8746
15931SOL    HW249801   1.430   0.459   2.418 -0.4215  0.4692 -0.2164
15932SOL     OW49802   5.308   7.541   6.918 -0.5032  0.1866  0.2801
15932SOL    HW149803   5.265   7.499   6.992 -0.6357  1.0266  0.6889
15932SOL    HW249804   5.366   7.606   6.957 -1.0921  1.1179 -0.3594
15933SOL     OW49805   2.856   4.571  10.768 -0.2058 -0.4207 -0.3574
15933SOL    HW149806   2.931   4.589  10.712 -0.2452 -2.2179 -1.0515
15933SOL    HW249807   2.892   4.519  10.840 -0.6222 -0.4779 -0.1886
15934SOL     OW49808   8.443  10.621   1.274 -0.8624  0.0289  0.1741
15934SOL    HW149809   8.386  10.559   1.229 -0.5538  0.1740 -0.4307
15934SOL    HW249810   8.431  10.703   1.226  0.4167 -0.1166 -0.4469
15935SOL     OW49811   0.328   1.413   7.056 -0.2561  0.6211  0.0429
15935SOL    HW149812   0.395   1.406   7.124  0.9097  2.4211 -0.8325
15935SOL    HW249813   0.285   1.497   7.074  0.1840  1.2035 -1.5047
15936SOL     OW49814   7.096   3.419   5.585  0.3100  0.2133  0.0094
15936SOL    HW149815   7.002   3.401   5.586 -0.3598  3.1847  0.1900
15936SOL    HW249816   7.130   3.370   5.660 -1.1564 -0.5784  0.2097
15937SOL     OW49817   7.914   8.028   8.313  0.0770  0.1968  0.2731
15937SOL    HW149818   7.932   7.983   8.230 -1.6504  1.1639 -0.6802
15937SOL    HW249819   7.838   7.982   8.350  0.9017 -0.2972  1.4101
15938SOL     OW49820   3.557   1.998  10.915  0.3726 -0.0036 -0.1011
15938SOL    HW149821   3.619   2.071  10.908  0.0808  0.3698  0.9564
15938SOL    HW249822   3.475   2.039  10.940 -0.0913 -0.5858 -0.6463
15939SOL     OW49823   9.080   3.887   9.595 -0.0352 -0.4117 -0.5030
15939SOL    HW149824   9.174   3.884   9.574  0.0437  0.0549 -0.2216
15939SOL    HW249825   9.078   3.890   9.691 -0.2997  0.8814 -0.5348
15940SOL     OW49826   1.972   1.820   7.440  0.3297 -0.0412 -0.1706
15940SOL    HW149827   1.996   1.728   7.425  1.9673  0.3200 -0.0134
15940SOL    HW249828   1.905   1.817   7.508  0.9113 -1.0923  0.3847
15941SOL     OW49829   3.752   4.894   5.111  0.5884 -0.4210  0.0616
15941SOL    HW149830   3.671   4.879   5.062 -0.3239  0.8854  1.1010
15941SOL    HW249831   3.788   4.975   5.075  1.9469 -1.4465 -0.9991
15942SOL     OW49832   9.397   2.421   9.207 -0.5198 -0.3304  0.2268
15942SOL    HW149833   9.413   2.469   9.289 -0.4740  0.7656 -0.4124
15942SOL    HW249834   9.430   2.479   9.138  1.1594 -2.0040 -0.4859
15943SOL     OW49835   2.902   6.289   4.691 -0.0013 -0.0601  0.1449
15943SOL    HW149836   2.829   6.321   4.637  0.3911  1.5660  0.5291
15943SOL    HW249837   2.860   6.234   4.757 -0.8526  0.5959  0.1682
15944SOL     OW49838   7.510   5.078   8.026 -0.3194 -0.0766 -0.5265
15944SOL    HW149839   7.553   5.020   7.963 -0.6052 -0.2545 -0.5566
15944SOL    HW249840   7.434   5.029   8.057 -0.6592  0.3437 -0.6784
15945SOL     OW49841   5.586   8.695   7.856 -0.1647 -0.0376  0.2486
15945SOL    HW149842   5.567   8.772   7.803 -0.0458  0.3043  0.6984
15945SOL    HW249843   5.599   8.625   7.792  0.2598  0.4299 -0.1899
15946SOL     OW49844   8.431   2.358   6.760 -0.2221  0.0327  0.9452
15946SOL    HW149845   8.361   2.296   6.779  1.2593 -1.2815  2.3200
15946SOL    HW249846   8.385   2.440   6.741 -2.1978 -1.2932 -0.3379
15947SOL     OW49847   3.249   4.139   4.997 -0.3074  0.1809  0.0492
15947SOL    HW149848   3.219   4.161   5.085  0.8057 -1.0573  0.7686
15947SOL    HW249849   3.169   4.115   4.950 -1.0019  1.5395  0.4888
15948SOL     OW49850   8.233  10.677   3.514  0.1282 -0.3593  0.2088
15948SOL    HW149851   8.156  10.730   3.493 -0.4438 -1.0838  0.4198
15948SOL    HW249852   8.305  10.720   3.469 -0.3261  0.5776  0.3543
15949SOL     OW49853  10.941  10.244   2.560  0.2985  0.4666 -0.1147
15949SOL    HW149854  10.967  10.198   2.480 -0.0524 -0.2746  0.1897
15949SOL    HW249855  10.955  10.337   2.540  1.1995  0.2205 -0.6732
15950SOL     OW49856   2.681   5.084  10.797 -0.3774  0.3188 -0.5001
15950SOL    HW149857   2.657   5.072  10.705 -0.0487  1.7443 -0.8033
15950SOL    HW249858   2.614   5.036  10.846 -1.7299  1.1631 -1.4354
15951SOL     OW49859   1.030   7.336  10.520 -0.1847  0.7208 -0.1558
15951SOL    HW149860   1.085   7.315  10.595 -0.5755  2.6768  0.7491
15951SOL    HW249861   0.941   7.317  10.549 -0.1096 -2.9459 -1.7946
15952SOL     OW49862   8.939   1.149   7.575 -0.3163  0.3893  0.0149
15952SOL    HW149863   8.916   1.199   7.496 -1.2477  0.1960  0.1501
15952SOL    HW249864   8.964   1.062   7.541  0.2825  0.6183 -0.1394
15953SOL     OW49865   0.907   6.263   0.709  0.2865 -0.3517  0.6020
15953SOL    HW149866   0.916   6.359   0.712 -0.2893 -0.3133  1.5141
15953SOL    HW249867   0.973   6.235   0.646 -1.7846  0.9291 -2.3783
15954SOL     OW49868   1.474   2.779   0.427 -0.2227  0.3288  0.2365
15954SOL    HW149869   1.482   2.874   0.439  0.2329  0.2790  0.3682
15954SOL    HW249870   1.562   2.745   0.446 -0.8982 -0.3645  2.4666
15955SOL     OW49871   7.411   4.153   3.811 -0.2251  0.2314 -0.0308
15955SOL    HW149872   7.413   4.207   3.890 -0.0254  0.3592 -0.1249
15955SOL    HW249873   7.454   4.071   3.836  1.7309  1.0373 -0.5840
15956SOL     OW49874   5.159   8.698   4.079  0.0939 -0.6612 -0.1489
15956SOL    HW149875   5.138   8.630   4.015  0.7356 -2.0605  1.0380
15956SOL    HW249876   5.076   8.741   4.098 -0.1101 -0.2578 -1.8420
15957SOL     OW49877   4.788   2.262   6.621 -0.2546  0.0055  0.2631
15957SOL    HW149878   4.753   2.345   6.653  1.0814  0.8112 -0.2975
15957SOL    HW249879   4.862   2.243   6.679 -0.2048 -0.4891  0.0372
15958SOL     OW49880   6.181   5.983   5.806 -0.7856  0.1200 -0.9858
15958SOL    HW149881   6.228   5.946   5.731  1.9717  0.8995  0.2059
15958SOL    HW249882   6.161   5.908   5.862  0.0039 -0.1656 -1.0627
15959SOL     OW49883   9.403   8.023   7.144  0.7815  0.1829 -0.4494
15959SOL    HW149884   9.404   7.949   7.206  0.9349  1.2703  0.8957
15959SOL    HW249885   9.351   8.090   7.188 -1.7679 -0.0360 -2.8412
15960SOL     OW49886   5.295   8.543   7.617 -0.2132  0.2321  0.0204
15960SOL    HW149887   5.240   8.554   7.695  0.5659 -0.0762  0.6293
15960SOL    HW249888   5.234   8.517   7.548 -0.7457 -0.8611  0.8618
15961SOL     OW49889  10.084   4.672   4.650  0.0711 -0.1458  0.5227
15961SOL    HW149890   9.988   4.665   4.653 -0.0566  1.0893 -0.0240
15961SOL    HW249891  10.104   4.687   4.557  0.8524 -0.9626  0.5467
15962SOL     OW49892   9.677   8.812   8.211 -0.0914  0.1610  0.2460
15962SOL    HW149893   9.708   8.725   8.183  1.7895  1.0282 -0.5232
15962SOL    HW249894   9.669   8.805   8.307 -0.4487 -0.9956  0.1441
15963SOL     OW49895   7.249   8.627   7.903  0.2184  0.7123 -0.0100
15963SOL    HW149896   7.300   8.636   7.984 -1.5777  2.1711  1.0568
15963SOL    HW249897   7.189   8.554   7.921  0.5636  0.3079 -0.4812
15964SOL     OW49898   4.913   2.076   7.570 -0.0480  0.5540 -0.3029
15964SOL    HW149899   4.891   2.104   7.481 -0.8038  1.2155  0.0833
15964SOL    HW249900   4.902   1.981   7.569  0.7976  0.4459 -1.1418
15965SOL     OW49901   0.775  10.904   9.967 -0.3018  0.2509 -0.2465
15965SOL    HW149902   0.802  10.975   9.908  0.6091  0.4824  0.4243
15965SOL    HW249903   0.759  10.829   9.909  3.7443 -0.5231 -0.6328
15966SOL     OW49904   0.882   9.503   9.055  0.2732  0.1321 -0.2996
15966SOL    HW149905   0.887   9.534   9.146 -2.6297 -0.1819  0.0443
15966SOL    HW249906   0.868   9.582   9.003  1.0416  0.2104 -0.4037
15967SOL     OW49907   5.772   5.856   0.848 -0.2829 -0.2334  0.4647
15967SOL    HW149908   5.788   5.850   0.942 -0.7526 -0.2041  0.5464
15967SOL    HW249909   5.695   5.912   0.840 -0.3840 -0.4253  0.0729
15968SOL     OW49910   7.769   4.282   7.040  0.4754 -0.7351 -0.1193
15968SOL    HW149911   7.855   4.291   7.000  0.8468 -2.4631  0.1798
15968SOL    HW249912   7.759   4.187   7.053 -0.6566 -0.4257  1.5967
15969SOL     OW49913   0.676   9.248   7.590 -0.6841 -0.2261  0.2542
15969SOL    HW149914   0.600   9.224   7.643 -1.1454  0.4201 -0.0928
15969SOL    HW249915   0.667   9.194   7.511 -1.6532  0.9557 -0.4722
15970SOL     OW49916   8.549   3.630   7.215  0.1266 -0.1469 -0.2746
15970SOL    HW149917   8.607   3.682   7.159  1.5175 -1.8030 -0.4701
15970SOL    HW249918   8.500   3.575   7.155 -2.5102  1.8930 -0.1947
15971SOL     OW49919   9.491   1.005   8.388 -0.5540 -0.7663 -0.3376
15971SOL    HW149920   9.430   0.935   8.362 -1.3037 -0.7482  1.2765
15971SOL    HW249921   9.435   1.074   8.423  0.2889  0.0694 -0.5991
15972SOL     OW49922   2.750   1.342   3.052  0.5981  0.3356 -0.2727
15972SOL    HW149923   2.779   1.292   3.128 -0.8348 -0.5345 -0.2491
15972SOL    HW249924   2.658   1.363   3.071 -0.1011 -0.7922 -2.1697
15973SOL     OW49925  10.632   7.209   9.525  0.1755  0.2331  0.1253
15973SOL    HW149926  10.653   7.136   9.583 -1.0828 -2.1507 -2.1667
15973SOL    HW249927  10.537   7.204   9.515  0.3909  0.1247 -2.5448
15974SOL     OW49928   5.378   4.067  10.510 -0.1412  0.3993 -0.1857
15974SOL    HW149929   5.461   4.115  10.514 -0.3216  0.8039 -1.0569
15974SOL    HW249930   5.329   4.096  10.587  0.6560 -0.1073  0.5318
15975SOL     OW49931   0.382  10.118   5.539 -0.2296 -0.3166  0.0489
15975SOL    HW149932   0.354  10.028   5.521 -0.1754 -0.4417  0.5856
15975SOL    HW249933   0.372  10.163   5.455 -1.8478 -0.4066  0.1674
15976SOL     OW49934   9.132  10.403   1.378  0.4523 -0.1293 -0.5500
15976SOL    HW149935   9.177  10.359   1.306 -0.7744 -1.1159 -0.7340
15976SOL    HW249936   9.166  10.361   1.457 -0.1783 -0.9098 -0.6894
15977SOL     OW49937   3.380   4.092   2.447  0.4602 -0.1507  0.0958
15977SOL    HW149938   3.323   4.025   2.485  0.8235 -0.5677 -0.0821
15977SOL    HW249939   3.466   4.049   2.440  0.0990 -0.6465 -2.6056
15978SOL     OW49940   1.546  10.604   6.283  0.0309 -0.1799  0.1478
15978SOL    HW149941   1.451  10.613   6.281  0.1937  2.5055 -1.6514
15978SOL    HW249942   1.565  10.573   6.372 -2.4932 -0.5091  0.6591
15979SOL     OW49943   9.099   5.929   7.803  0.1480 -0.1911  0.0266
15979SOL    HW149944   9.123   6.018   7.780 -0.7970  0.7048  2.2382
15979SOL    HW249945   9.153   5.907   7.879 -1.1530 -0.6540  0.8583
15980SOL     OW49946   8.527   3.517   6.537 -0.1851  0.7206  0.4109
15980SOL    HW149947   8.481   3.475   6.610  0.8097  0.1464  0.7381
15980SOL    HW249948   8.464   3.516   6.465 -0.4823 -0.5932  0.6625
15981SOL     OW49949   6.706   1.304   2.992 -0.1278 -0.0793 -0.0773
15981SOL    HW149950   6.628   1.350   3.021  0.0990  0.2099  0.0791
15981SOL    HW249951   6.685   1.273   2.904 -0.6240 -0.4959  0.1839
15982SOL     OW49952   6.017   6.193   2.463 -0.5316  0.6211  0.0680
15982SOL    HW149953   6.087   6.255   2.445 -0.7316  1.3259  1.5784
15982SOL    HW249954   5.984   6.168   2.377  1.7774 -0.0087 -0.7125
15983SOL     OW49955   8.952   0.277   8.310  0.4523 -0.1497  0.6036
15983SOL    HW149956   8.887   0.279   8.381 -1.6858 -1.7311 -1.1435
15983SOL    HW249957   8.905   0.310   8.234  1.1811 -2.6723 -1.0635
15984SOL     OW49958   5.463   9.546   9.187 -0.3042  0.2715 -0.1573
15984SOL    HW149959   5.542   9.491   9.192  1.4081  2.3518 -1.9046
15984SOL    HW249960   5.480   9.617   9.249 -1.0030  0.5288 -0.2573
15985SOL     OW49961   3.179   7.179   9.816  0.6106  0.7397 -0.5004
15985SOL    HW149962   3.107   7.228   9.777  1.6462  1.3301 -1.7520
15985SOL    HW249963   3.150   7.162   9.906 -0.7535  1.6247 -0.7331
15986SOL     OW49964   5.752   8.885   1.980 -0.1332 -0.4658 -0.1442
15986SOL    HW149965   5.674   8.940   1.981 -1.3143 -2.0722  0.1062
15986SOL    HW249966   5.776   8.874   2.072  0.5750  0.2599 -0.2349
15987SOL     OW49967   8.283   2.222   5.589  0.3463  0.0714  0.0781
15987SOL    HW149968   8.220   2.291   5.571  0.1797  0.1212  0.8267
15987SOL    HW249969   8.318   2.199   5.503 -0.3091  0.4022 -0.2867
15988SOL     OW49970  10.345   6.077   5.179  0.1735  0.0547  0.3131
15988SOL    HW149971  10.431   6.062   5.218  0.6479  1.6689 -0.0339
15988SOL    HW249972  10.325   6.169   5.200 -1.6670 -0.3956  0.7471
15989SOL     OW49973   5.333   4.211   2.431  0.3933  0.6611  0.0002
15989SOL    HW149974   5.425   4.192   2.449  0.2583 -0.1393 -0.1310
15989SOL    HW249975   5.313   4.287   2.487  1.3898  1.4715 -0.6972
15990SOL     OW49976   0.198  10.339   2.112  0.4970  0.2837  0.1914
15990SOL    HW149977   0.254  10.306   2.042  0.5411 -0.4387  0.5596
15990SOL    HW249978   0.253  10.403   2.158  1.2958 -0.9313  0.9863
15991SOL     OW49979   9.340   6.639   3.777 -0.5372  0.3629  0.4805
15991SOL    HW149980   9.353   6.703   3.847 -1.1747  2.4751 -1.2364
15991SOL    HW249981   9.246   6.644   3.757  0.0603  2.3152 -2.6449
15992SOL     OW49982   3.728   7.626   9.551 -0.0993  0.4202 -0.1630
15992SOL    HW149983   3.662   7.557   9.557  0.5607 -0.2381 -0.3576
15992SOL    HW249984   3.724   7.654   9.459  1.2462 -1.0078 -0.6980
15993SOL     OW49985   2.829   6.851   5.989 -0.0427  0.1493  0.1335
15993SOL    HW149986   2.782   6.865   6.071  0.6931 -0.2221  0.6348
15993SOL    HW249987   2.874   6.767   6.001 -0.2743 -0.1257 -0.8207
15994SOL     OW49988   0.051  10.224   3.633  0.0642 -0.2045 -0.0724
15994SOL    HW149989  -0.027  10.175   3.607 -1.0021  1.2693  0.2788
15994SOL    HW249990   0.062  10.290   3.564  0.5548  0.0941  0.2892
15995SOL     OW49991   0.420  10.542   9.622  0.0761  0.5074 -0.1756
15995SOL    HW149992   0.331  10.520   9.592 -1.0002  2.3708  1.3902
15995SOL    HW249993   0.444  10.469   9.680 -0.3518 -0.1022 -0.7496
15996SOL     OW49994   6.782  10.098   8.010  0.0904  0.0159  0.0012
15996SOL    HW149995   6.828  10.019   8.039 -0.3002 -1.1801 -2.3652
15996SOL    HW249996   6.830  10.126   7.932  0.9837  2.9340  1.4512
15997SOL     OW49997  10.816   9.059   8.647 -0.3715  0.6794  0.4316
15997SOL    HW149998  10.892   9.001   8.653 -0.9643 -0.1752 -0.0213
15997SOL    HW249999  10.749   9.006   8.602 -1.0685  1.5783  0.3773
15998SOL     OW50000   6.859   8.304   1.596 -0.1379 -0.3934  0.8064
15998SOL    HW150001   6.860   8.292   1.691  1.7184 -3.6660  0.5114
15998SOL    HW250002   6.948   8.333   1.575 -0.2147 -0.7167  0.0056
15999SOL     OW50003  10.219   7.597   0.833  0.7480 -0.3444 -0.0839
15999SOL    HW150004  10.231   7.611   0.927  1.6873 -1.1670 -0.0643
15999SOL    HW250005  10.205   7.503   0.824  0.1910 -0.2100 -0.7296
16000SOL     OW50006   3.879   3.274   2.909 -0.0578 -0.0045  0.4056
16000SOL    HW150007   3.878   3.252   3.002 -0.7127 -1.6302  0.0429
16000SOL    HW250008   3.801   3.232   2.874  0.4386  0.1887 -0.9692
16001SOL     OW50009   0.995   3.327   7.050  0.2283  0.6925  0.6832
16001SOL    HW150010   1.027   3.400   6.998  0.4381 -0.4225 -0.8248
16001SOL    HW250011   1.065   3.262   7.046 -1.3509 -1.0307 -1.1039
16002SOL     OW50012   2.612   8.276   3.941 -0.2782  0.2612  0.2944
16002SOL    HW150013   2.520   8.260   3.922 -0.7332 -1.0161  3.0805
16002SOL    HW250014   2.612   8.327   4.021  1.4698  0.6337  0.1059
16003SOL     OW50015   0.281  10.600   9.119  0.6434  0.2725  0.3679
16003SOL    HW150016   0.337  10.678   9.127 -0.9216  1.6267 -1.0840
16003SOL    HW250017   0.265  10.592   9.025  0.1811 -1.4066  0.5693
16004SOL     OW50018   4.144   5.922   5.008  0.7115  0.6664 -0.2195
16004SOL    HW150019   4.086   5.999   5.003  0.1116  0.1687 -1.2939
16004SOL    HW250020   4.093   5.857   5.055  0.5543  0.3729 -0.7852
16005SOL     OW50021   1.131   4.618   1.465  0.4916  0.3250 -0.2801
16005SOL    HW150022   1.119   4.574   1.381  0.5701  0.0430 -0.1444
16005SOL    HW250023   1.042   4.632   1.497  0.4755 -0.2094 -0.0811
16006SOL     OW50024   2.687   1.966  10.928  0.3034 -0.1728 -0.1903
16006SOL    HW150025   2.653   1.953  11.016  1.6234  0.8033  0.5118
16006SOL    HW250026   2.636   2.040  10.893  3.1865  3.1289  1.8639
16007SOL     OW50027   8.864   7.034   7.840  0.4754 -0.4749  0.3758
16007SOL    HW150028   8.883   7.031   7.934 -0.0325 -2.8385  0.4741
16007SOL    HW250029   8.773   7.061   7.835  0.2313 -1.2304  0.6306
16008SOL     OW50030   1.484   7.492   3.079  0.5515 -0.3052  0.3031
16008SOL    HW150031   1.481   7.435   3.002  0.0338  0.1437 -0.0178
16008SOL    HW250032   1.575   7.521   3.085  0.8856 -1.3663  0.6260
16009SOL     OW50033   0.485   2.410   9.924 -0.3520  0.1762  0.3259
16009SOL    HW150034   0.447   2.495   9.947 -2.4511 -0.5325 -0.3315
16009SOL    HW250035   0.428   2.376   9.856  1.5255 -0.9776 -0.7490
16010SOL     OW50036   7.072   0.662   5.757 -0.6220 -0.0091 -0.4520
16010SOL    HW150037   7.096   0.746   5.718  0.2151  1.1327  2.2749
16010SOL    HW250038   7.142   0.603   5.730  0.7471  1.1252  0.4612
16011SOL     OW50039   8.495   5.257   9.147 -0.4197 -0.6214  0.3315
16011SOL    HW150040   8.561   5.304   9.096  0.6175 -0.4311  1.7766
16011SOL    HW250041   8.450   5.326   9.196 -1.6007 -0.7700 -0.5036
16012SOL     OW50042   6.022   4.238   3.616 -0.4896 -0.4813 -0.4173
16012SOL    HW150043   6.082   4.164   3.614 -1.1358 -1.0101 -1.0467
16012SOL    HW250044   6.037   4.279   3.701  0.3716 -0.9137 -0.3461
16013SOL     OW50045   1.500   1.491   5.982 -0.2046 -0.0093  0.3158
16013SOL    HW150046   1.515   1.398   5.964 -2.4322 -0.4144  0.2500
16013SOL    HW250047   1.505   1.498   6.077  2.1660  0.2749  0.2091
16014SOL     OW50048   5.067   8.867   7.961 -0.1531 -0.1747  0.2588
16014SOL    HW150049   5.014   8.843   7.885  0.3049 -1.5769  0.3651
16014SOL    HW250050   5.141   8.916   7.924 -0.2064 -0.4011 -0.1453
16015SOL     OW50051   3.594   5.195   1.600  0.1298 -0.3393 -0.6557
16015SOL    HW150052   3.662   5.248   1.557  0.4537  0.5710  0.9050
16015SOL    HW250053   3.574   5.243   1.680 -0.5764 -1.8878  0.1251
16016SOL     OW50054   1.388   3.554   7.238  0.3687 -0.0732 -0.7769
16016SOL    HW150055   1.467   3.592   7.276 -0.1286  1.0916 -0.8572
16016SOL    HW250056   1.408   3.541   7.146  1.0815 -1.5305 -0.4420
16017SOL     OW50057   2.643   0.827   8.181 -0.1536 -0.1763  0.0295
16017SOL    HW150058   2.577   0.816   8.113 -1.0868  0.2173  0.8402
16017SOL    HW250059   2.698   0.900   8.151  1.3962 -1.9809 -1.7540
16018SOL     OW50060   5.034   6.524   2.924  0.0756  0.4297 -0.1062
16018SOL    HW150061   5.004   6.557   3.009  0.9234  0.8350  0.0495
16018SOL    HW250062   5.020   6.430   2.929  1.8048  0.1824  1.2309
16019SOL     OW50063   9.589   3.091   5.820  0.3138 -0.6696  0.1010
16019SOL    HW150064   9.557   3.003   5.804  2.8649 -1.8691  1.0451
16019SOL    HW250065   9.675   3.094   5.777  0.6590  1.0705  0.8061
16020SOL     OW50066   7.447  10.544   6.840  0.2709 -0.1043  0.0723
16020SOL    HW150067   7.387  10.604   6.884 -0.9580 -0.8958 -0.4790
16020SOL    HW250068   7.400  10.515   6.762  0.6530 -2.1132  0.5454
16021SOL     OW50069   5.183  10.650   7.737 -0.4080  0.8035  0.5578
16021SOL    HW150070   5.228  10.590   7.678  0.6230  0.4928  1.6122
16021SOL    HW250071   5.105  10.602   7.765 -0.6385  0.7582 -0.1473
16022SOL     OW50072   9.590   7.685   5.972  0.0442 -0.1417 -0.1964
16022SOL    HW150073   9.513   7.710   5.921  1.2268  0.2656 -1.9005
16022SOL    HW250074   9.643   7.765   5.976  1.0119 -0.7609 -0.2950
16023SOL     OW50075   5.889   8.351   3.191 -0.0213  0.2098  0.3601
16023SOL    HW150076   5.827   8.373   3.260 -0.4277  2.1053 -0.5265
16023SOL    HW250077   5.851   8.275   3.148 -2.0992  1.6213 -0.4890
16024SOL     OW50078   4.996   4.379   7.585 -0.2446  0.7344  0.1257
16024SOL    HW150079   4.925   4.315   7.584  0.6865 -0.3253 -0.5234
16024SOL    HW250080   5.071   4.331   7.619  0.3274  1.6652  0.2124
16025SOL     OW50081   9.306   5.486   5.988 -0.0682 -0.9566  0.2801
16025SOL    HW150082   9.355   5.462   6.067  1.0003 -2.1468 -0.6919
16025SOL    HW250083   9.374   5.505   5.923 -0.9212  0.7910 -0.1706
16026SOL     OW50084   5.188   9.892  10.618  0.0660 -0.2698 -0.2664
16026SOL    HW150085   5.104   9.906  10.663 -0.4737  2.1541 -1.8293
16026SOL    HW250086   5.247   9.863  10.686 -1.4410  0.4005  1.4089
16027SOL     OW50087   4.946  10.055   6.406  0.2498 -0.5052 -0.0184
16027SOL    HW150088   4.901  10.128   6.365 -0.7773 -0.5157  1.0347
16027SOL    HW250089   5.037  10.082   6.411  0.5116 -0.6628 -2.6003
16028SOL     OW50090   9.043   5.223   2.381  0.3538 -0.2327  0.7527
16028SOL    HW150091   9.007   5.140   2.411 -1.5569  0.3167  0.1149
16028SOL    HW250092   9.049   5.277   2.460  0.9619 -0.7367  1.0582
16029SOL     OW50093   2.039   6.376   0.663  0.0970  0.6749  0.2437
16029SOL    HW150094   2.126   6.407   0.636  0.2060 -0.1472 -0.3856
16029SOL    HW250095   2.051   6.349   0.754  0.0048  2.4064  0.8136
16030SOL     OW50096   3.473   5.252   5.763  0.4195 -0.5116  0.1631
16030SOL    HW150097   3.446   5.331   5.811  0.2671 -1.4820  1.7304
16030SOL    HW250098   3.417   5.183   5.798  0.3517 -1.2852 -1.3963
16031SOL     OW50099   3.426   8.279  10.479 -0.5563  0.0393  0.6517
16031SOL    HW150100   3.420   8.311  10.569  0.2889 -2.0670  1.5288
16031SOL    HW250101   3.516   8.247  10.471 -1.2678 -1.9197 -0.1456
16032SOL     OW50102   8.066   9.461   9.495 -0.4532 -0.0516 -0.0346
16032SOL    HW150103   8.124   9.479   9.569  1.0765 -1.6815 -0.7585
16032SOL    HW250104   8.061   9.545   9.448  2.8669 -0.1740 -0.9147
16033SOL     OW50105   1.178   4.557   6.707 -0.3258  1.0805  0.3510
16033SOL    HW150106   1.090   4.565   6.744 -0.4022 -1.3137  0.9079
16033SOL    HW250107   1.235   4.554   6.784 -0.0564  0.1398  0.1332
16034SOL     OW50108   3.019   7.909   8.535  0.5801  0.1668  0.8441
16034SOL    HW150109   2.978   7.995   8.534  1.5678  0.6622 -0.5641
16034SOL    HW250110   2.946   7.847   8.538 -0.3308  1.0063 -1.4025
16035SOL     OW50111   1.386   3.907   2.350 -0.2638  0.4156  0.3329
16035SOL    HW150112   1.391   3.837   2.415  0.0508 -0.7860 -0.9163
16035SOL    HW250113   1.476   3.918   2.320 -0.6435 -0.4429 -1.2551
16036SOL     OW50114   6.862   9.886   2.281  0.0379 -0.4726 -0.0133
16036SOL    HW150115   6.831   9.893   2.371  0.8431 -0.3938  0.2739
16036SOL    HW250116   6.916   9.806   2.281 -1.7685 -1.7473 -0.9981
16037SOL     OW50117   9.390   0.526   9.013 -0.2221 -0.0977 -0.2515
16037SOL    HW150118   9.295   0.535   9.020 -0.1375  0.2305  0.7073
16037SOL    HW250119   9.417   0.491   9.098  0.7225  1.9539  0.3735
16038SOL     OW50120   7.944   3.782  10.491 -0.0867  0.4480 -0.3860
16038SOL    HW150121   7.959   3.815  10.403  0.6346 -0.5837 -0.6668
16038SOL    HW250122   7.865   3.728  10.483 -1.2341  1.9806  0.0611
16039SOL     OW50123   8.131   7.039   4.401  0.2901  0.2088 -0.4317
16039SOL    HW150124   8.052   7.088   4.426 -0.8544 -1.2369 -1.0060
16039SOL    HW250125   8.123   6.957   4.449  0.1333 -0.9677 -2.3505
16040SOL     OW50126   9.501   7.235   8.226 -0.0779  0.0981 -0.5990
16040SOL    HW150127   9.559   7.167   8.259 -1.9318 -1.3219 -0.1066
16040SOL    HW250128   9.445   7.256   8.300  0.7398  2.5714 -0.5822
16041SOL     OW50129   1.192   1.348  10.045  0.0751  0.1368  0.3064
16041SOL    HW150130   1.146   1.265  10.036 -0.7837  0.3477  2.3146
16041SOL    HW250131   1.158   1.402   9.973  1.4352 -1.5162 -1.6917
16042SOL     OW50132   2.158   8.611   0.225  0.0535 -0.0002  0.1172
16042SOL    HW150133   2.114   8.530   0.252  1.3683 -0.6105  0.4998
16042SOL    HW250134   2.107   8.642   0.150 -1.0822 -0.6208  0.6042
16043SOL     OW50135   6.452   1.436   5.837 -0.2445 -0.2594  0.1048
16043SOL    HW150136   6.380   1.389   5.880 -0.2218  1.0581  1.6669
16043SOL    HW250137   6.519   1.446   5.905  0.5956  0.2571 -0.7684
16044SOL     OW50138   7.041  10.582   4.015 -0.7446 -0.0409  0.0993
16044SOL    HW150139   6.999  10.661   3.982 -1.9063 -0.8920 -0.5337
16044SOL    HW250140   7.092  10.549   3.942 -3.2425 -1.8727 -0.9811
16045SOL     OW50141   7.018   4.503   8.538 -0.1680  0.1577 -0.2220
16045SOL    HW150142   7.035   4.548   8.455 -1.3898  1.7511  0.3321
16045SOL    HW250143   6.931   4.464   8.526 -0.2376  0.1729  0.2292
16046SOL     OW50144   0.328   1.807   4.970  0.2351  0.5473 -0.1393
16046SOL    HW150145   0.420   1.784   4.975  0.4096  0.1337 -3.3966
16046SOL    HW250146   0.308   1.808   4.877 -3.3122 -0.3565  0.4559
16047SOL     OW50147   4.108   0.767   5.375  0.2500  0.3746 -0.0668
16047SOL    HW150148   4.201   0.745   5.369  0.4370  0.5625  1.5805
16047SOL    HW250149   4.088   0.809   5.291  2.4849  3.2184  0.6390
16048SOL     OW50150   2.564   0.046   0.351 -0.4862 -0.2583  0.7625
16048SOL    HW150151   2.588   0.138   0.364  0.4072 -0.3384 -0.1423
16048SOL    HW250152   2.595   0.001   0.429 -1.2278  0.2554  1.3611
16049SOL     OW50153   7.855   2.303   9.323 -0.3414 -0.0786  0.2418
16049SOL    HW150154   7.853   2.293   9.418 -0.7348 -1.1733  0.1344
16049SOL    HW250155   7.810   2.225   9.290  0.0562  0.1375 -0.8513
16050SOL     OW50156   2.532  10.672   3.363  0.3055 -0.2925  0.0345
16050SOL    HW150157   2.498  10.678   3.452  0.9832  3.0216  0.1851
16050SOL    HW250158   2.471  10.723   3.310  1.1686 -0.2746 -0.9831
16051SOL     OW50159   6.326   9.999   4.888 -0.4294 -0.0025  0.0321
16051SOL    HW150160   6.389   9.927   4.888  0.2322  0.4471  2.9435
16051SOL    HW250161   6.328  10.033   4.798  2.8163 -0.6088 -0.2469
16052SOL     OW50162   0.869   3.876   4.778 -0.2966 -0.3074  0.4463
16052SOL    HW150163   0.879   3.821   4.700  1.3143  0.2682  0.2144
16052SOL    HW250164   0.958   3.890   4.810 -0.8268  0.5228  1.6672
16053SOL     OW50165   0.532   3.948   1.815 -0.0407 -0.5256  0.3873
16053SOL    HW150166   0.455   3.892   1.807 -1.6472  1.5161  0.5102
16053SOL    HW250167   0.513   4.003   1.891  1.6804 -0.1456  0.5749
16054SOL     OW50168   2.569   4.661   1.398  0.6474 -0.1058  0.3765
16054SOL    HW150169   2.638   4.640   1.461 -0.2852  0.5694  1.6801
16054SOL    HW250170   2.505   4.590   1.408 -0.7074  1.2561  2.0784
16055SOL     OW50171   9.309   1.211   9.003  0.3300  0.5087  0.5912
16055SOL    HW150172   9.257   1.137   9.034  2.3067 -1.0516  0.3885
16055SOL    HW250173   9.292   1.216   8.909 -2.0462  2.2558  1.0247
16056SOL     OW50174   3.525   0.613   1.291  0.0473  0.7089 -0.0045
16056SOL    HW150175   3.520   0.698   1.334 -0.3653  0.8962 -0.4201
16056SOL    HW250176   3.538   0.633   1.198 -2.3945  0.3876 -0.4711
16057SOL     OW50177   8.897   5.421  10.640  0.0657 -0.4000 -0.3683
16057SOL    HW150178   8.978   5.369  10.639  0.0021 -0.5108  0.0799
16057SOL    HW250179   8.923   5.505  10.677 -0.4344 -1.1445  1.7928
16058SOL     OW50180   9.215   3.632   5.570  0.1527  0.5234  0.0612
16058SOL    HW150181   9.244   3.548   5.535 -2.1462 -0.3593  0.0904
16058SOL    HW250182   9.120   3.621   5.583 -0.3049  3.2589 -0.3318
16059SOL     OW50183   2.887   2.896   2.919 -0.2504  0.4402 -0.2302
16059SOL    HW150184   2.945   2.821   2.939 -1.1710 -0.1973  0.1046
16059SOL    HW250185   2.923   2.933   2.839  2.1266  1.5956  1.2256
16060SOL     OW50186   2.874   5.963   1.567 -0.1717  0.0385  0.4045
16060SOL    HW150187   2.958   5.961   1.612  1.3363  0.0450 -2.2264
16060SOL    HW250188   2.882   5.898   1.497 -2.9529 -1.0834  0.9650
16061SOL     OW50189   6.042   3.519   9.474 -0.0181  0.2118 -0.1226
16061SOL    HW150190   5.994   3.602   9.468  1.2994  0.9566 -0.7996
16061SOL    HW250191   5.989   3.457   9.425 -0.6678  0.8201 -0.2117
16062SOL     OW50192   2.076   8.983   2.609  0.4902  0.4728 -0.3401
16062SOL    HW150193   2.147   9.046   2.614  0.8006  0.0254  1.8164
16062SOL    HW250194   2.119   8.901   2.584  0.8556  0.1163  1.3256
16063SOL     OW50195   8.002   4.408   1.815  0.1954  0.2127 -0.4172
16063SOL    HW150196   7.999   4.496   1.854  1.5567 -0.5012  1.4510
16063SOL    HW250197   8.044   4.421   1.730 -0.5648  1.5008 -0.6223
16064SOL     OW50198   9.067   0.446   7.995  0.1139 -0.1474  0.1103
16064SOL    HW150199   9.090   0.435   7.902 -3.6688  0.7305 -1.1365
16064SOL    HW250200   9.001   0.379   8.011  0.2499  0.1371  2.0263
16065SOL     OW50201   4.119   3.579   8.504 -0.2778 -0.0994  0.1119
16065SOL    HW150202   4.024   3.592   8.510 -0.1972  1.1465 -0.8427
16065SOL    HW250203   4.130   3.487   8.481 -1.2889 -0.1183 -0.3559
16066SOL     OW50204   8.021   9.463   3.256 -0.0355 -0.7097 -0.2142
16066SOL    HW150205   8.082   9.534   3.276 -0.4786 -0.7373  1.4120
16066SOL    HW250206   8.057   9.422   3.178  0.4748  1.0075 -0.9302
16067SOL     OW50207   0.023   0.776   3.754  0.5586  0.3556 -0.5182
16067SOL    HW150208   0.013   0.705   3.817  0.2489  1.8477  1.1792
16067SOL    HW250209  -0.064   0.816   3.749  0.7507  0.6982 -1.4090
16068SOL     OW50210   7.573   3.555   7.713  0.7955  0.0836 -0.0718
16068SOL    HW150211   7.503   3.582   7.653  2.8449  2.2936 -1.6324
16068SOL    HW250212   7.596   3.634   7.760  0.5350 -1.2053  2.4059
16069SOL     OW50213   8.122   6.330   5.462 -0.0256 -0.1280  0.0991
16069SOL    HW150214   8.094   6.346   5.552 -0.7752  0.0086 -0.1510
16069SOL    HW250215   8.041   6.310   5.415  0.0192  2.1233 -1.0483
16070SOL     OW50216   1.516   6.644   3.970  0.5240 -0.2003 -0.2368
16070SOL    HW150217   1.457   6.683   3.905 -0.0829 -0.3857  0.1855
16070SOL    HW250218   1.461   6.579   4.015  0.4895  0.9252  1.4471
16071SOL     OW50219   6.744   9.627   2.675  0.0570  0.3748  0.3208
16071SOL    HW150220   6.734   9.721   2.688  0.9190  0.1617  3.2367
16071SOL    HW250221   6.661   9.590   2.703  0.2714  0.1910  0.7278
16072SOL     OW50222   9.028   3.736   1.526 -0.1880  0.4050 -0.0936
16072SOL    HW150223   9.046   3.742   1.620 -0.3933  0.2027 -0.0417
16072SOL    HW250224   9.114   3.725   1.486  0.0169  1.6132 -0.0242
16073SOL     OW50225   1.975   4.314  10.074 -1.2509  0.2493  0.4554
16073SOL    HW150226   1.929   4.351   9.999  0.9385  0.0251 -1.0671
16073SOL    HW250227   1.991   4.389  10.132  2.1241  1.7268 -2.0503
16074SOL     OW50228   8.934   7.107   9.667  0.1022  0.5597  0.3786
16074SOL    HW150229   8.985   7.172   9.618  1.3323 -0.9041 -0.3502
16074SOL    HW250230   8.999   7.060   9.718 -0.4827 -1.3245 -0.5320
16075SOL     OW50231   9.799   0.878   0.855  0.4539  0.1365 -0.4835
16075SOL    HW150232   9.888   0.912   0.863 -0.0896  1.8536 -1.2744
16075SOL    HW250233   9.743   0.952   0.877 -0.8725 -1.7167  3.3615
16076SOL     OW50234   2.011  10.281   1.904 -0.0936  0.1602 -0.3074
16076SOL    HW150235   1.965  10.231   1.837  0.8400  0.2923 -1.0731
16076SOL    HW250236   1.944  10.301   1.969 -0.5557 -1.8570 -0.0970
16077SOL     OW50237   7.595   4.607   1.650  0.3304 -0.1629  0.7554
16077SOL    HW150238   7.622   4.537   1.709  0.2046 -1.1706 -0.3398
16077SOL    HW250239   7.501   4.595   1.640  0.4022 -0.2186  0.1022
16078SOL     OW50240   3.633   7.172   4.947  0.4467 -0.4098  0.8966
16078SOL    HW150241   3.623   7.224   4.867  3.5757 -2.6612 -1.2298
16078SOL    HW250242   3.704   7.215   4.994 -0.4971  0.1483  1.8413
16079SOL     OW50243   1.752   4.903  10.967 -0.3588 -0.3159 -0.0290
16079SOL    HW150244   1.761   4.964  11.039  1.1324 -0.9547  0.3631
16079SOL    HW250245   1.681   4.845  10.994 -1.4889  0.9332 -0.2138
16080SOL     OW50246   0.989   6.285   4.742 -0.0573  0.2100 -0.0260
16080SOL    HW150247   1.075   6.319   4.717  0.2970 -0.4339  0.2854
16080SOL    HW250248   1.008   6.207   4.795 -0.8331 -1.1664 -1.6550
16081SOL     OW50249   7.487   7.926   8.328 -0.6746 -0.2623  0.2329
16081SOL    HW150250   7.452   7.854   8.274 -0.3415  0.5949 -1.1765
16081SOL    HW250251   7.565   7.889   8.369 -0.3606 -0.6586 -0.6812
16082SOL     OW50252   5.101   5.014   3.904  0.0442 -0.2239  0.2053
16082SOL    HW150253   5.029   4.980   3.957 -0.1182 -2.7663 -1.4613
16082SOL    HW250254   5.174   5.023   3.966 -0.5899 -1.4831  1.1896
16083SOL     OW50255   1.318   2.662   7.902  0.1417  0.1144  0.0039
16083SOL    HW150256   1.282   2.579   7.936  0.8779  0.1191  0.8477
16083SOL    HW250257   1.362   2.637   7.821  0.5368 -0.3795  0.3545
16084SOL     OW50258   5.527   9.759   9.327 -0.3978 -0.5306 -0.6714
16084SOL    HW150259   5.580   9.835   9.351  0.2609 -0.8874 -0.9541
16084SOL    HW250260   5.458   9.755   9.393 -0.4379  0.3039 -0.6468
16085SOL     OW50261   9.014   1.934   5.366  0.2766 -0.5271  0.2904
16085SOL    HW150262   9.102   1.897   5.368  0.2078 -0.9915 -2.4971
16085SOL    HW250263   9.025   2.025   5.395  1.6738 -0.5664 -0.0910
16086SOL     OW50264   7.738   1.721   1.358  0.0211  0.3921  0.2092
16086SOL    HW150265   7.786   1.640   1.338 -2.3622 -0.9648 -0.3987
16086SOL    HW250266   7.728   1.763   1.273  0.5384  0.9279  0.4086
16087SOL     OW50267   3.572   9.769   4.087  0.1122  0.2558 -0.2608
16087SOL    HW150268   3.548   9.678   4.068  1.8754 -0.1191 -0.8390
16087SOL    HW250269   3.488   9.815   4.090 -0.8041 -1.3580 -0.0861
16088SOL     OW50270   1.000   5.861   3.164 -0.0706  0.3295 -0.2156
16088SOL    HW150271   0.944   5.893   3.235  0.4024  1.6107 -0.3786
16088SOL    HW250272   0.978   5.769   3.155  0.9763 -0.3067  2.6623
16089SOL     OW50273   5.197   0.446   5.658 -0.4688  0.1578 -0.6631
16089SOL    HW150274   5.247   0.527   5.665  1.4004 -0.9769 -0.0378
16089SOL    HW250275   5.256   0.385   5.615 -1.5724 -1.0885 -0.4872
16090SOL     OW50276   5.636   7.245   9.947  0.6543 -0.0107 -0.5600
16090SOL    HW150277   5.586   7.298  10.009  0.8584  0.6641 -0.9670
16090SOL    HW250278   5.574   7.179   9.917 -0.3707  1.5125 -1.9287
16091SOL     OW50279   7.044  10.880   9.661  0.3050 -0.7099  0.6572
16091SOL    HW150280   7.049  10.868   9.755 -0.2027 -1.5096  0.5849
16091SOL    HW250281   6.952  10.898   9.643  0.0068 -2.6119  0.0969
16092SOL     OW50282   9.267   0.475   1.779 -1.1239 -0.4726 -0.5367
16092SOL    HW150283   9.260   0.516   1.865  0.9716  1.1147 -1.0445
16092SOL    HW250284   9.305   0.389   1.796  0.4384  0.3077  0.0588
16093SOL     OW50285   2.922   5.737   1.123 -0.1611 -0.0184 -0.0014
16093SOL    HW150286   2.836   5.703   1.100 -0.6122  0.5126  0.8374
16093SOL    HW250287   2.922   5.827   1.092  0.3160 -0.1941 -0.5219
16094SOL     OW50288   6.670  10.952   7.015 -0.0045 -0.0400  0.1273
16094SOL    HW150289   6.692  10.859   7.027 -0.4182 -0.1281  0.2366
16094SOL    HW250290   6.692  10.992   7.100  1.4356  0.2272 -0.3423
16095SOL     OW50291   2.633   0.690   5.501 -0.4138  0.3755 -0.2773
16095SOL    HW150292   2.552   0.646   5.526 -0.6594  0.8330 -0.2742
16095SOL    HW250293   2.696   0.663   5.568 -0.1477 -1.1990 -1.1071
16096SOL     OW50294  10.351   5.431   9.009  0.3836 -0.5313  0.3332
16096SOL    HW150295  10.330   5.338   8.998 -1.9424 -0.0423  0.1316
16096SOL    HW250296  10.330   5.450   9.100 -0.9973  0.1781 -0.1021
16097SOL     OW50297   4.774   9.125   9.329  0.5625  0.8037 -0.0682
16097SOL    HW150298   4.866   9.098   9.331  0.3279 -0.1937 -1.4113
16097SOL    HW250299   4.758   9.151   9.238 -0.8815 -0.6069 -0.2767
16098SOL     OW50300   1.602   6.485   0.332 -0.2267 -1.1703  0.3095
16098SOL    HW150301   1.580   6.551   0.266  1.2745 -1.1603 -0.2200
16098SOL    HW250302   1.564   6.518   0.413  0.4790  0.3716  0.0575
16099SOL     OW50303   9.299   8.512   1.772  0.3674  0.1743  0.4721
16099SOL    HW150304   9.289   8.599   1.812  2.8653  0.7385  0.0488
16099SOL    HW250305   9.294   8.529   1.677  0.4372 -0.2355  0.3937
16100SOL     OW50306   6.987   7.779   0.479  0.2287 -0.2783 -0.3789
16100SOL    HW150307   7.053   7.816   0.538  0.9827 -0.0725 -1.3227
16100SOL    HW250308   7.028   7.782   0.393 -0.0266 -2.4627 -0.6350
16101SOL     OW50309  10.578   8.616   2.596  0.4281 -0.1578  0.1319
16101SOL    HW150310  10.490   8.600   2.563 -0.8999 -0.0481  3.2436
16101SOL    HW250311  10.611   8.529   2.619 -0.5807  0.0508  2.6883
16102SOL     OW50312   2.050   9.887   1.804 -0.4304  0.7506  0.1453
16102SOL    HW150313   2.055   9.917   1.713 -0.7225 -0.0863 -0.1542
16102SOL    HW250314   2.004   9.957   1.850 -0.5707  1.0331 -0.4189
16103SOL     OW50315   9.813   5.456   8.665 -0.2834 -0.3561  0.1747
16103SOL    HW150316   9.773   5.374   8.635  0.2847 -0.5197 -0.1361
16103SOL    HW250317   9.897   5.430   8.701 -0.2571  0.0514  0.4145
16104SOL     OW50318   0.182   0.289   9.286  0.1987 -0.5529 -0.2411
16104SOL    HW150319   0.142   0.369   9.317 -0.9468 -0.9177 -0.7177
16104SOL    HW250320   0.270   0.288   9.325  0.0161  0.6356  0.2132
16105SOL     OW50321   1.517   4.348   6.547 -0.2123 -0.1823 -0.5242
16105SOL    HW150322   1.493   4.258   6.571 -0.8369  0.3267  0.8349
16105SOL    HW250323   1.436   4.385   6.512 -0.3440  0.3104  0.3079
16106SOL     OW50324  10.184   8.161   5.198  0.3189  0.3984  0.2053
16106SOL    HW150325  10.196   8.143   5.105 -0.4467 -0.5919  0.2730
16106SOL    HW250326  10.206   8.079   5.242 -1.8546  0.0004  0.6664
16107SOL     OW50327   9.741   5.656   6.270  0.7621 -0.3326 -0.2636
16107SOL    HW150328   9.830   5.649   6.235  1.6750  1.1936  1.5495
16107SOL    HW250329   9.752   5.697   6.355 -1.8671  2.2406 -0.9766
16108SOL     OW50330  10.855   7.688   8.986  0.5244 -0.6558  0.0271
16108SOL    HW150331  10.934   7.740   9.000 -0.2837  0.8312 -0.7400
16108SOL    HW250332  10.809   7.691   9.070 -0.0411  0.8346 -0.2995
16109SOL     OW50333   3.881   1.308   9.467 -0.2641 -0.0775  0.0715
16109SOL    HW150334   3.820   1.276   9.401  1.3603  2.4179 -2.9651
16109SOL    HW250335   3.963   1.263   9.448 -0.0082 -0.0776  1.0992
16110SOL     OW50336   9.934   4.883   8.847  0.3191  0.4308 -0.1483
16110SOL    HW150337   9.911   4.811   8.789 -2.0062  1.3719 -0.5102
16110SOL    HW250338   9.912   4.852   8.935 -0.2242  0.5069 -0.2534
16111SOL     OW50339   1.997   3.985   6.528  0.3531 -0.9741  0.2201
16111SOL    HW150340   1.911   4.024   6.509  0.5906 -0.5638 -0.0314
16111SOL    HW250341   2.007   3.917   6.462  0.9012  0.0303 -0.7670
16112SOL     OW50342   8.898   8.987   8.582 -0.9349  0.6192  0.2001
16112SOL    HW150343   8.853   9.067   8.605 -1.3770  0.4921 -0.2086
16112SOL    HW250344   8.829   8.927   8.553 -0.9862 -0.8643  3.0168
16113SOL     OW50345   1.605   8.885   7.726 -0.6947 -0.2728 -0.1730
16113SOL    HW150346   1.531   8.842   7.685 -1.5663  1.5296 -0.5896
16113SOL    HW250347   1.578   8.900   7.817 -0.5485 -0.2706 -0.1288
16114SOL     OW50348   0.146   3.807   6.686  0.2762 -0.4682  0.0259
16114SOL    HW150349   0.227   3.832   6.731  1.1717 -0.3742 -1.5921
16114SOL    HW250350   0.084   3.876   6.709  1.0292  0.1492  0.2573
16115SOL     OW50351   4.493   9.739   1.425  0.6986 -0.2073  0.2116
16115SOL    HW150352   4.545   9.710   1.350  0.2846 -2.0031  0.5743
16115SOL    HW250353   4.479   9.833   1.409  0.7476 -0.4959 -1.8776
16116SOL     OW50354   1.234   7.092   7.991 -0.5801 -0.0495 -0.2502
16116SOL    HW150355   1.183   7.106   8.071 -2.8925 -2.5421 -1.1118
16116SOL    HW250356   1.292   7.019   8.013 -0.5568 -0.1161 -0.5261
16117SOL     OW50357   3.857   2.175   3.390 -0.0347 -0.2072  0.0276
16117SOL    HW150358   3.923   2.227   3.436  0.3967 -0.6587 -0.0770
16117SOL    HW250359   3.774   2.200   3.431  0.1472  0.6789 -0.1280
16118SOL     OW50360   7.212   7.194   2.838  0.1509  0.1287  0.9095
16118SOL    HW150361   7.272   7.147   2.780 -0.7028 -2.0823  1.7053
16118SOL    HW250362   7.154   7.243   2.779 -0.8022 -2.1918 -0.1987
16119SOL     OW50363   0.383  10.453   5.367 -0.0067  0.8247  0.0653
16119SOL    HW150364   0.459  10.491   5.410 -0.2156  2.7717 -1.1579
16119SOL    HW250365   0.410  10.441   5.276 -0.2688 -1.1407  0.2178
16120SOL     OW50366   7.326  10.852   6.372 -0.0355 -0.3907  0.0979
16120SOL    HW150367   7.275  10.880   6.296  1.1223 -1.2886 -1.0426
16120SOL    HW250368   7.264  10.858   6.445 -1.0988  0.7350 -0.8491
16121SOL     OW50369   4.609   4.173  10.380  0.2490  0.0765  0.0366
16121SOL    HW150370   4.564   4.133  10.454  1.6215 -2.1568 -0.2569
16121SOL    HW250371   4.585   4.120  10.305  0.7702  0.8629 -0.7074
16122SOL     OW50372   9.245  10.415  10.403 -0.3024 -0.3213  1.0501
16122SOL    HW150373   9.191  10.487  10.370 -2.4690 -1.8657  0.9134
16122SOL    HW250374   9.289  10.381  10.325  1.1160  1.1067  1.1978
16123SOL     OW50375   5.524  10.607   3.390  0.8034  0.7151  0.5404
16123SOL    HW150376   5.475  10.638   3.467 -0.6045  0.0085 -0.0259
16123SOL    HW250377   5.456  10.585   3.326  1.9704  2.3456 -1.3642
16124SOL     OW50378   5.974   9.750   9.126  0.1935 -0.2889  0.2687
16124SOL    HW150379   6.043   9.684   9.129  2.2737  1.7010 -0.7369
16124SOL    HW250380   5.982   9.788   9.038 -1.8984  0.3453  0.3015
16125SOL     OW50381   8.356  10.586   3.744 -0.6032  0.8005 -0.0611
16125SOL    HW150382   8.289  10.637   3.698  0.8438  2.0407 -0.8766
16125SOL    HW250383   8.437  10.635   3.732  0.3884 -0.3746  1.3565
16126SOL     OW50384   7.906   6.665   0.863 -0.5247  0.2874 -0.3965
16126SOL    HW150385   7.927   6.698   0.775 -0.4210  0.3374 -0.3538
16126SOL    HW250386   7.827   6.713   0.888 -1.3132 -0.6819 -0.9933
16127SOL     OW50387   6.092   4.749   0.454  0.1819 -0.2501 -0.3672
16127SOL    HW150388   6.031   4.817   0.427  0.0377  0.3429  1.3596
16127SOL    HW250389   6.098   4.691   0.378 -0.0670  1.3966 -1.6966
16128SOL     OW50390   5.785   6.805   2.858 -0.1766 -0.2448 -0.4328
16128SOL    HW150391   5.734   6.754   2.921 -0.0807 -0.9902 -0.9377
16128SOL    HW250392   5.721   6.856   2.809 -0.2508  0.3486  0.2644
16129SOL     OW50393   5.719   0.640   1.082 -0.4947  0.4113 -0.3597
16129SOL    HW150394   5.742   0.558   1.127 -1.6477 -0.7840 -1.8473
16129SOL    HW250395   5.777   0.643   1.006 -3.3396 -1.4307 -2.8296
16130SOL     OW50396   0.941   5.237   7.110 -0.4119  0.5920 -0.0381
16130SOL    HW150397   0.916   5.182   7.184  0.9515 -0.0757 -0.0456
16130SOL    HW250398   1.014   5.290   7.143 -0.6237  1.2166 -0.5362
16131SOL     OW50399   3.119   4.170   3.936 -0.1066  0.4991 -0.5231
16131SOL    HW150400   3.163   4.255   3.932  1.1172 -0.0990 -0.5143
16131SOL    HW250401   3.164   4.123   4.007 -0.8966 -0.0842 -0.3924
16132SOL     OW50402   2.464   4.223   5.043 -0.3542  0.1899 -0.6719
16132SOL    HW150403   2.490   4.150   4.986 -0.5990 -0.9325  0.6134
16132SOL    HW250404   2.546   4.254   5.081 -0.3971 -0.3125 -0.1694
16133SOL     OW50405   1.249   3.764   9.823 -0.1074  0.1894  0.5116
16133SOL    HW150406   1.293   3.713   9.890  0.7983  1.0970  0.6390
16133SOL    HW250407   1.230   3.848   9.865 -3.5371 -0.7110  0.9973
16134SOL     OW50408   0.929   6.896   4.601  0.0495 -0.4984  0.1658
16134SOL    HW150409   0.974   6.947   4.668  1.7287  2.9447 -3.1833
16134SOL    HW250410   0.986   6.821   4.584  0.9792  0.0685  0.7249
16135SOL     OW50411   3.278   2.383   5.487  0.3323  0.5952 -0.4568
16135SOL    HW150412   3.254   2.320   5.556  0.0884  0.0341 -1.0422
16135SOL    HW250413   3.346   2.338   5.436  1.0264  1.2901 -0.1603
16136SOL     OW50414   8.847   9.530   8.265 -0.4741 -0.5147  0.1772
16136SOL    HW150415   8.805   9.448   8.290 -0.0556 -0.4702  1.0656
16136SOL    HW250416   8.844   9.584   8.345  1.9489 -0.7970  0.5442
16137SOL     OW50417   7.426   2.533   5.029 -0.6135  0.1396 -0.1796
16137SOL    HW150418   7.342   2.509   4.990 -0.4630 -0.3045 -0.2368
16137SOL    HW250419   7.415   2.625   5.054 -0.7675  0.3807 -1.1144
16138SOL     OW50420   6.085   7.263   6.318 -0.2906 -0.9531  0.2122
16138SOL    HW150421   6.138   7.256   6.398 -1.7176 -1.2097  1.1790
16138SOL    HW250422   6.137   7.317   6.259  0.2109  0.4209  1.8370
16139SOL     OW50423   0.998   2.427   4.746  0.4754 -0.5177  0.0178
16139SOL    HW150424   0.924   2.479   4.715 -0.2346 -1.3290  0.3349
16139SOL    HW250425   0.967   2.385   4.826  1.3919 -0.5962  0.3450
16140SOL     OW50426   9.708   0.905   5.909  0.5154 -0.6124 -0.2357
16140SOL    HW150427   9.759   0.843   5.857 -1.2858 -1.3764 -1.2006
16140SOL    HW250428   9.752   0.989   5.897  2.0310 -1.3946 -0.3021
16141SOL     OW50429   9.114   0.805  10.499  0.0010  0.2914 -0.2865
16141SOL    HW150430   9.164   0.803  10.417 -0.5176 -0.6994 -0.5977
16141SOL    HW250431   9.123   0.895  10.530  2.3964  0.0134 -0.0425
16142SOL     OW50432   3.079   8.994   4.041 -0.4431  0.4916 -0.1066
16142SOL    HW150433   3.128   8.928   4.092  0.7083 -0.0745 -1.8529
16142SOL    HW250434   3.136   9.071   4.040 -0.2196  0.3263 -0.9292
16143SOL     OW50435   1.854   2.848   2.318  0.4050 -0.1187 -0.9345
16143SOL    HW150436   1.816   2.804   2.242  0.3669 -1.2882 -0.2552
16143SOL    HW250437   1.902   2.780   2.364  0.5161  0.5957  0.0447
16144SOL     OW50438   8.646   1.626   7.133  0.1188  0.1836  0.6426
16144SOL    HW150439   8.672   1.661   7.048  0.6117 -0.7644  0.3891
16144SOL    HW250440   8.619   1.703   7.183  1.5336  0.9782  0.2394
16145SOL     OW50441   5.023  10.449   9.645 -0.0202  0.7482  0.0651
16145SOL    HW150442   5.061  10.535   9.664  1.0405  0.0062  1.4552
16145SOL    HW250443   5.077  10.388   9.694 -0.9430 -0.7011 -0.6730
16146SOL     OW50444   4.763   0.234   8.838 -0.0659  0.0491  0.4726
16146SOL    HW150445   4.792   0.288   8.764  0.6371  0.0348  0.7325
16146SOL    HW250446   4.844   0.204   8.879 -0.4256 -1.6658  0.0180
16147SOL     OW50447   0.229   6.451   2.696 -0.0926  0.2439  0.4211
16147SOL    HW150448   0.182   6.419   2.619  0.9052 -0.8782  0.2501
16147SOL    HW250449   0.235   6.546   2.683 -0.0237  0.0783 -0.8326
16148SOL     OW50450   3.759   7.646  10.016  0.1695 -0.5338 -0.0735
16148SOL    HW150451   3.791   7.567  10.060 -1.5268 -0.5878  1.1759
16148SOL    HW250452   3.835   7.704  10.014  0.7599 -1.1806  1.4660
16149SOL     OW50453  10.003   2.809   9.208 -0.6495  0.0619 -0.0278
16149SOL    HW150454   9.925   2.757   9.187  1.1755 -2.1593 -1.8813
16149SOL    HW250455  10.003   2.879   9.143  1.1072 -2.5565 -3.1633
16150SOL     OW50456   4.461  10.769  10.156 -0.1153  0.9413  0.1725
16150SOL    HW150457   4.416  10.765  10.072  0.3980 -2.2012 -0.0753
16150SOL    HW250458   4.554  10.763  10.134  0.0572  0.7241  0.9177
16151SOL     OW50459   5.782   6.121  10.404  0.0292 -0.1966  0.5858
16151SOL    HW150460   5.855   6.112  10.343 -1.7893  3.7456 -2.6913
16151SOL    HW250461   5.823   6.131  10.489  3.1719 -0.4907 -0.7493
16152SOL     OW50462   2.447  10.908   2.095  0.1726  0.3166 -0.4266
16152SOL    HW150463   2.430  10.988   2.146 -1.1068  0.7109 -1.4359
16152SOL    HW250464   2.366  10.891   2.048  0.6422 -1.2343 -0.7309
16153SOL     OW50465   4.763   7.793   6.468  0.1096 -0.2146  0.2481
16153SOL    HW150466   4.821   7.857   6.427  0.2349 -0.2550  0.3610
16153SOL    HW250467   4.783   7.710   6.424 -1.0640  0.0930 -0.8918
16154SOL     OW50468   7.676   8.238   9.187  0.0345 -0.2521  0.2304
16154SOL    HW150469   7.640   8.150   9.202  0.3990 -0.4073  0.2270
16154SOL    HW250470   7.689   8.273   9.275  0.9032 -0.6306  0.2666
16155SOL     OW50471   0.344   6.113   2.359  0.0491 -0.0175 -0.4541
16155SOL    HW150472   0.253   6.126   2.387  0.0150 -0.1754 -0.4891
16155SOL    HW250473   0.348   6.021   2.333 -0.0064  0.2116 -1.2895
16156SOL     OW50474   7.967  10.325   6.730 -0.0982 -0.0123 -0.1641
16156SOL    HW150475   8.008  10.376   6.800 -1.5759  1.2747 -0.1742
16156SOL    HW250476   8.038  10.307   6.668  0.9601 -0.0847  1.0312
16157SOL     OW50477   5.577   7.297   5.713  0.3834  0.0277  0.2589
16157SOL    HW150478   5.587   7.231   5.644 -1.8858  0.1534 -0.2568
16157SOL    HW250479   5.605   7.252   5.793  1.7152 -0.5679 -0.4922
16158SOL     OW50480  10.428   1.751   4.439  0.1827 -0.2040 -0.1494
16158SOL    HW150481  10.349   1.714   4.400 -1.1764  0.4707  1.8471
16158SOL    HW250482  10.447   1.828   4.386 -0.7061 -0.1697 -0.4380
16159SOL     OW50483   4.598   1.300   3.419  0.3552 -0.8457 -0.0645
16159SOL    HW150484   4.565   1.210   3.421 -2.4480 -0.0045 -1.6416
16159SOL    HW250485   4.558   1.341   3.495  1.0063 -0.7325  0.2198
16160SOL     OW50486   7.440   3.013   9.800 -0.1782  0.1502  0.3741
16160SOL    HW150487   7.455   2.922   9.824 -0.7702 -0.0203  0.1318
16160SOL    HW250488   7.350   3.014   9.767 -0.8843  1.1943  2.2049
16161SOL     OW50489  10.354   0.453   5.364 -0.3307  0.2410  0.2132
16161SOL    HW150490  10.422   0.470   5.429  0.1339 -0.6166 -0.0224
16161SOL    HW250491  10.273   0.447   5.414 -0.0149 -0.1627  0.6888
16162SOL     OW50492   1.201  10.207   2.556 -0.5575  0.1192  0.0412
16162SOL    HW150493   1.191  10.267   2.630 -0.0041  2.2766 -1.5551
16162SOL    HW250494   1.114  10.167   2.547 -1.0568  0.9432  0.9366
16163SOL     OW50495   7.069   2.981   8.080 -0.1795 -0.1705 -0.0677
16163SOL    HW150496   7.158   2.965   8.048 -0.2308 -0.2770 -0.1576
16163SOL    HW250497   7.080   2.992   8.174 -0.3767 -2.7451  0.3374
16164SOL     OW50498   4.884   6.417   1.825  0.0154  0.0761  0.5009
16164SOL    HW150499   4.934   6.467   1.761  0.6405 -0.1434  0.8059
16164SOL    HW250500   4.934   6.336   1.837  0.0321  0.2093  1.4240
16165SOL     OW50501   7.621   7.365   9.245 -0.4040  0.3259 -0.3355
16165SOL    HW150502   7.536   7.336   9.213 -0.0391 -0.3455 -0.7209
16165SOL    HW250503   7.685   7.323   9.187  0.1806  1.1755 -0.3341
16166SOL     OW50504   8.348   7.004   5.057  0.0408 -0.6185 -0.4450
16166SOL    HW150505   8.308   6.920   5.034 -0.8436  0.2217 -2.1795
16166SOL    HW250506   8.362   7.047   4.973  0.8135  0.8294  0.3912
16167SOL     OW50507   9.579   6.511   9.669  0.2006 -0.0693 -0.1127
16167SOL    HW150508   9.622   6.595   9.678 -2.0343  1.0561  0.7302
16167SOL    HW250509   9.554   6.507   9.576 -1.0402  0.9401  0.1533
16168SOL     OW50510   8.699   7.873   6.274  0.8101 -0.1890 -0.0593
16168SOL    HW150511   8.624   7.863   6.331 -0.5139  0.8844 -1.5163
16168SOL    HW250512   8.676   7.824   6.195  1.7262 -0.0377 -0.4363
16169SOL     OW50513   7.136   1.270   1.133 -0.5879  0.2398 -0.4212
16169SOL    HW150514   7.046   1.302   1.128  0.5055  3.4075 -2.9181
16169SOL    HW250515   7.181   1.334   1.188  0.0220 -2.1157  2.1002
16170SOL     OW50516   1.556   6.377   5.646  0.0051 -0.1940 -0.1466
16170SOL    HW150517   1.577   6.355   5.555  0.3502 -0.8823  0.0922
16170SOL    HW250518   1.615   6.448   5.668 -0.5044  0.4034 -0.6492
16171SOL     OW50519   9.315   8.383   2.001  0.5813  0.4512 -0.2162
16171SOL    HW150520   9.404   8.412   2.022  2.1690 -2.4788 -2.1673
16171SOL    HW250521   9.305   8.403   1.908 -0.7605  0.5720 -0.0650
16172SOL     OW50522   2.823  10.750   0.550 -0.0454 -0.2550 -0.4225
16172SOL    HW150523   2.811  10.662   0.585 -1.0883 -0.0998 -0.3362
16172SOL    HW250524   2.909  10.749   0.508  0.5129 -0.9225  0.7012
16173SOL     OW50525   6.761   6.018   8.339  0.2885  0.2257 -0.2349
16173SOL    HW150526   6.783   5.932   8.302  1.2201  0.4868 -0.2903
16173SOL    HW250527   6.717   6.063   8.267 -0.5557 -0.3287 -0.0893
16174SOL     OW50528   3.438   3.500   5.621 -0.0497 -0.4274  0.0218
16174SOL    HW150529   3.367   3.454   5.667  0.4356  0.0650  1.3264
16174SOL    HW250530   3.436   3.465   5.533  0.3852 -3.0787  0.9803
16175SOL     OW50531   2.596   3.304   8.789  0.3553  0.3643 -0.5838
16175SOL    HW150532   2.536   3.287   8.717  0.8725  2.0832 -1.4684
16175SOL    HW250533   2.539   3.332   8.861 -0.1430 -1.1555 -0.3495
16176SOL     OW50534   0.558   4.460  10.638 -0.6386  0.3975 -1.0404
16176SOL    HW150535   0.520   4.542  10.608 -0.7982  0.9223  0.4773
16176SOL    HW250536   0.483   4.407  10.666 -0.4567  0.2871 -0.7478
16177SOL     OW50537   5.492   5.137   6.757 -0.2089  0.0885 -0.4534
16177SOL    HW150538   5.398   5.118   6.767  0.1422 -2.9092 -1.8373
16177SOL    HW250539   5.525   5.142   6.846 -1.7259  1.8710  0.0847
16178SOL     OW50540   7.864   5.065   6.536 -0.0601  0.2813  0.2140
16178SOL    HW150541   7.837   5.153   6.563 -1.8390 -0.4859  1.1353
16178SOL    HW250542   7.844   5.061   6.443 -2.3907  0.0757  0.6674
16179SOL     OW50543   7.496   3.502   0.116  0.2971 -0.1978  0.0373
16179SOL    HW150544   7.464   3.580   0.162 -0.2441  0.2272 -1.0220
16179SOL    HW250545   7.568   3.471   0.170  2.6595  2.8639 -1.0400
16180SOL     OW50546   7.960   8.145   0.759  0.6335 -0.0859 -0.3250
16180SOL    HW150547   7.899   8.217   0.772  1.5693  0.7420 -0.3764
16180SOL    HW250548   7.910   8.079   0.712 -0.3456  0.3814  0.0456
16181SOL     OW50549   6.103   1.712   1.506  0.0864 -0.4820  0.3805
16181SOL    HW150550   6.064   1.691   1.591 -1.6855 -1.5324 -0.6310
16181SOL    HW250551   6.030   1.740   1.452  1.6350  3.5671  0.0887
16182SOL     OW50552   5.543   7.767   8.780 -0.3613  0.0285  0.1804
16182SOL    HW150553   5.497   7.683   8.776 -1.0176  0.3953 -0.0794
16182SOL    HW250554   5.630   7.747   8.746 -0.4759 -0.5709  0.2208
16183SOL     OW50555   5.425   2.500   4.944 -0.0503 -0.1377 -0.0299
16183SOL    HW150556   5.479   2.428   4.910  0.2762 -0.1948  0.5994
16183SOL    HW250557   5.358   2.458   4.997  0.4052  0.0392  0.7005
16184SOL     OW50558   1.278   6.902   4.055  0.0650 -0.4864  0.2048
16184SOL    HW150559   1.324   6.917   4.138 -2.5514  1.2432  1.4938
16184SOL    HW250560   1.278   6.988   4.012  0.8449 -1.2259 -1.3380
16185SOL     OW50561   2.482   1.590   9.057  0.0398 -0.2401 -0.0387
16185SOL    HW150562   2.571   1.581   9.024  0.0349  0.2959 -0.2033
16185SOL    HW250563   2.430   1.528   9.004 -0.0835  1.0474 -1.4916
16186SOL     OW50564   5.115   1.800   7.713 -0.3378  0.2466 -0.4250
16186SOL    HW150565   5.155   1.884   7.735  0.0672  0.0567 -0.4299
16186SOL    HW250566   5.027   1.822   7.683  0.0035  0.7340 -1.0777
16187SOL     OW50567   1.703   1.935   7.971  0.5317 -0.3200 -0.6097
16187SOL    HW150568   1.756   1.882   8.030 -1.9696 -1.6672  0.6067
16187SOL    HW250569   1.675   1.874   7.903  2.1125  0.8563 -2.4318
16188SOL     OW50570   8.546   1.933   8.206  0.4339  0.3167  0.0741
16188SOL    HW150571   8.531   1.899   8.295  0.8495 -0.3186 -0.0957
16188SOL    HW250572   8.510   2.022   8.209  0.0161  0.1382  0.7447
16189SOL     OW50573   0.276   0.470   7.045  0.3480 -0.0627 -0.0248
16189SOL    HW150574   0.315   0.533   7.106  1.1854  0.5613 -1.1550
16189SOL    HW250575   0.324   0.484   6.963  0.1384 -1.7596 -0.4748
16190SOL     OW50576   7.584   3.169  10.964 -0.1057 -0.3294 -0.3196
16190SOL    HW150577   7.516   3.208  11.018  0.2686 -1.0190  0.6840
16190SOL    HW250578   7.623   3.101  11.020  0.2377 -1.1206 -1.4868
16191SOL     OW50579   2.693   1.828   8.623  0.0544 -0.1633 -0.1637
16191SOL    HW150580   2.632   1.862   8.558 -1.1124 -1.0868  0.3892
16191SOL    HW250581   2.733   1.905   8.662  0.0566  0.4278 -1.2916
16192SOL     OW50582   6.204   1.002   6.444 -0.1099  0.0889  0.3590
16192SOL    HW150583   6.273   0.950   6.403 -0.6438 -1.4494  1.3133
16192SOL    HW250584   6.146   0.937   6.484 -1.6479  1.3644  0.3265
16193SOL     OW50585   7.967   6.526   9.057  0.3502 -0.4748 -0.2866
16193SOL    HW150586   8.019   6.528   8.976  2.2982  1.8983  0.9173
16193SOL    HW250587   8.027   6.555   9.125 -1.8629 -0.2206  1.6817
16194SOL     OW50588  10.165   9.866   8.812 -0.4623  0.2159  0.4153
16194SOL    HW150589  10.150   9.773   8.794 -0.5223  0.4844 -1.0159
16194SOL    HW250590  10.090   9.891   8.867 -1.3301 -0.2049 -0.5389
16195SOL     OW50591   3.971  10.386   9.795  0.5732  0.1724  0.2010
16195SOL    HW150592   3.923  10.451   9.844 -1.1053 -1.7801  1.2858
16195SOL    HW250593   4.057  10.382   9.837  0.8220  1.8430 -0.0899
16196SOL     OW50594   9.022   6.483   2.526 -0.1405  1.0161  0.3921
16196SOL    HW150595   9.071   6.457   2.448 -0.2836  2.2055 -0.1011
16196SOL    HW250596   9.039   6.412   2.589  1.7423  1.1140  0.0432
16197SOL     OW50597   0.196   9.134   1.609  0.6815  0.1749  0.3272
16197SOL    HW150598   0.135   9.070   1.571  0.0441  1.0220 -0.1082
16197SOL    HW250599   0.280   9.088   1.611  0.1402 -0.8364  0.4558
16198SOL     OW50600   2.120   0.176   4.156  0.0442 -0.3218  0.4833
16198SOL    HW150601   2.086   0.208   4.073 -0.6614  2.5751  1.7754
16198SOL    HW250602   2.042   0.145   4.203  0.2718 -0.7996  0.5493
16199SOL     OW50603  10.775   1.263   0.751 -0.7920 -0.4759 -0.2115
16199SOL    HW150604  10.738   1.181   0.782 -0.9746 -1.2331 -2.2905
16199SOL    HW250605  10.866   1.241   0.728 -0.7389 -0.0178 -0.4611
16200SOL     OW50606   6.685   8.702   9.293  0.2985  0.2123  0.3052
16200SOL    HW150607   6.620   8.768   9.268  0.3515  0.2054  0.1428
16200SOL    HW250608   6.769   8.740   9.270  0.3446  0.1761  0.4122
16201SOL     OW50609   7.585   0.999   6.955 -0.0363  0.8166  0.2432
16201SOL    HW150610   7.678   0.987   6.972 -0.1020 -1.7920 -0.7229
16201SOL    HW250611   7.541   0.946   7.022 -0.7333  0.4147 -0.5106
16202SOL     OW50612   1.399   0.255   6.904 -0.7765 -0.8817 -0.5307
16202SOL    HW150613   1.443   0.215   6.979 -1.0351  0.8082  0.5621
16202SOL    HW250614   1.306   0.251   6.926 -0.9399 -1.3336 -1.2654
16203SOL     OW50615   4.624   0.404   9.044 -0.3180  0.3615  0.5301
16203SOL    HW150616   4.566   0.343   8.998 -0.8561  0.5566  0.9387
16203SOL    HW250617   4.661   0.458   8.975  0.6219 -0.7980  0.0995
16204SOL     OW50618   3.311   2.054   4.917  0.3638 -0.6500 -0.0658
16204SOL    HW150619   3.279   2.017   4.835 -0.2651  0.7760 -0.4959
16204SOL    HW250620   3.376   2.119   4.890 -0.4655  0.4372  0.4899
16205SOL     OW50621  10.890   0.677   5.857 -0.1786  0.3246  0.0957
16205SOL    HW150622  10.950   0.604   5.874 -0.3378 -0.1139 -1.1474
16205SOL    HW250623  10.883   0.722   5.942 -0.0758 -1.0862  0.8856
16206SOL     OW50624   6.254   8.433   3.105 -0.0883 -0.0875 -0.4295
16206SOL    HW150625   6.333   8.415   3.157 -1.4904 -2.8654  0.9874
16206SOL    HW250626   6.206   8.496   3.158  0.3540  0.2109 -0.3765
16207SOL     OW50627   2.632   3.522   8.375  0.1077 -0.3998  0.0298
16207SOL    HW150628   2.689   3.487   8.307 -0.1071  0.0658 -0.3992
16207SOL    HW250629   2.550   3.474   8.365 -0.8515  1.4314 -1.7896
16208SOL     OW50630   5.847   1.160   9.421 -0.4479  0.4116 -0.9562
16208SOL    HW150631   5.780   1.109   9.466  0.5439  1.2616  1.6830
16208SOL    HW250632   5.804   1.244   9.403 -0.4419  0.5357 -0.3827
16209SOL     OW50633   6.788   7.386   5.435  0.6131  0.1301 -0.4188
16209SOL    HW150634   6.756   7.384   5.526  0.2600  0.9265 -0.5191
16209SOL    HW250635   6.730   7.327   5.388  0.8714 -0.3814 -0.1058
16210SOL     OW50636   0.659   7.025   3.683  0.4030 -0.1254 -0.2967
16210SOL    HW150637   0.726   7.055   3.621  0.4170  0.3434 -0.0541
16210SOL    HW250638   0.603   7.101   3.697  0.2025 -0.3275  0.0087
16211SOL     OW50639   7.136   1.604  10.694  0.4949  0.0435 -0.3621
16211SOL    HW150640   7.172   1.625  10.781  2.5861 -1.3116 -0.8386
16211SOL    HW250641   7.090   1.521  10.707 -0.7967  0.7525 -0.2044
16212SOL     OW50642   4.240   8.159   7.397  0.4009  0.2780  0.1822
16212SOL    HW150643   4.258   8.210   7.476 -0.0648  1.7474 -0.6165
16212SOL    HW250644   4.241   8.224   7.326 -1.9910 -0.5163 -0.6767
16213SOL     OW50645   9.202   4.233   6.641 -0.3920  0.4261 -0.2503
16213SOL    HW150646   9.282   4.265   6.601 -0.2479  0.8741  0.4004
16213SOL    HW250647   9.158   4.311   6.675  1.2527 -0.2128  3.7549
16214SOL     OW50648   6.500  10.368   9.440 -0.6604 -0.4920  0.1927
16214SOL    HW150649   6.485  10.403   9.528 -0.6884  1.7678 -0.6504
16214SOL    HW250650   6.418  10.384   9.394 -0.6318 -1.6347 -0.2733
16215SOL     OW50651   1.805   7.146   6.035  0.8244  0.5800  0.4500
16215SOL    HW150652   1.813   7.092   6.113 -2.8533  2.0802  2.0868
16215SOL    HW250653   1.746   7.217   6.060  1.2741  2.4755 -3.0765
16216SOL     OW50654   1.001   0.582   6.039 -0.1135 -0.1491  0.1594
16216SOL    HW150655   0.912   0.587   6.075 -0.1584 -2.8112  0.6281
16216SOL    HW250656   0.990   0.539   5.954  0.6698 -0.0650  0.0135
16217SOL     OW50657   1.742   8.447  10.674 -0.2810  0.2783 -0.3702
16217SOL    HW150658   1.824   8.493  10.655 -0.1246  0.5726  0.9330
16217SOL    HW250659   1.711   8.417  10.588  1.8003 -0.9065 -0.7717
16218SOL     OW50660   0.310   2.728   8.839 -0.1110 -0.1682 -0.0961
16218SOL    HW150661   0.361   2.773   8.772 -0.4364 -0.4743 -0.5508
16218SOL    HW250662   0.374   2.676   8.887  0.3150  0.9450  0.5915
16219SOL     OW50663   5.595   6.775   8.558  0.0665 -0.5480 -0.6652
16219SOL    HW150664   5.544   6.712   8.608  0.5328  0.6280  1.4346
16219SOL    HW250665   5.534   6.846   8.539  0.2553 -0.3171 -0.4283
16220SOL     OW50666   7.286   6.958   4.744 -0.7452 -0.3082 -0.3564
16220SOL    HW150667   7.283   6.974   4.838  0.1213 -1.0449 -0.1872
16220SOL    HW250668   7.231   7.026   4.706 -1.9930 -0.6633  0.7542
16221SOL     OW50669   4.582   9.098   5.197  0.2729 -0.4736  0.2867
16221SOL    HW150670   4.599   9.119   5.289 -0.2287  1.0633  0.0495
16221SOL    HW250671   4.491   9.069   5.195  0.5443 -1.3538  0.3965
16222SOL     OW50672   9.369   6.059   7.809  0.2586 -0.1281  0.5960
16222SOL    HW150673   9.337   6.049   7.720 -0.9218  1.8690  0.7279
16222SOL    HW250674   9.373   5.970   7.844 -0.7212 -0.8189 -0.9660
16223SOL     OW50675   4.752  10.476   9.515 -0.0360 -0.0627 -0.2374
16223SOL    HW150676   4.835  10.446   9.552 -0.6653 -0.5880  0.7889
16223SOL    HW250677   4.712  10.397   9.478  1.4799  0.7283 -4.0392
16224SOL     OW50678   4.630   7.283   6.012 -0.0805 -0.4127 -0.7369
16224SOL    HW150679   4.579   7.336   5.951 -0.3838 -0.6569 -0.6935
16224SOL    HW250680   4.717   7.279   5.972 -0.0355  0.1728 -0.7072
16225SOL     OW50681   3.896   4.206   8.506 -0.1162 -0.5747 -0.1266
16225SOL    HW150682   3.887   4.285   8.560 -1.1240 -0.1270 -0.9395
16225SOL    HW250683   3.973   4.223   8.452  0.2652 -0.5828  0.3977
16226SOL     OW50684   0.836   6.617   6.815 -0.5128  0.5490  0.7266
16226SOL    HW150685   0.809   6.682   6.751  0.2965  1.6508  1.4491
16226SOL    HW250686   0.932   6.620   6.812 -0.4139 -1.7114 -0.2793
16227SOL     OW50687   6.145   8.520   4.739  0.2054 -0.6637  0.2766
16227SOL    HW150688   6.159   8.529   4.834 -0.6987 -1.8980  0.5548
16227SOL    HW250689   6.091   8.441   4.731  0.6838 -0.8534 -1.3109
16228SOL     OW50690   1.018   9.270   5.953 -0.1756 -0.1197 -0.1293
16228SOL    HW150691   1.025   9.310   6.040 -0.0906  0.9746 -0.6325
16228SOL    HW250692   1.012   9.344   5.892 -1.1624 -0.8712 -0.9840
16229SOL     OW50693   8.251   2.495   1.606 -0.3947 -0.0092  0.2007
16229SOL    HW150694   8.216   2.578   1.638 -0.5670  0.3091 -0.7766
16229SOL    HW250695   8.295   2.517   1.524  0.1612 -0.7756  0.2832
16230SOL     OW50696   2.169   6.576   1.272 -0.1080  0.0732  0.2193
16230SOL    HW150697   2.116   6.545   1.346 -0.1295 -0.7477 -0.1387
16230SOL    HW250698   2.258   6.550   1.295 -0.2029 -0.7784 -0.3476
16231SOL     OW50699   7.853   4.921   4.692 -0.3147 -0.4219  0.0827
16231SOL    HW150700   7.776   4.947   4.641 -1.3897 -2.0505  0.7971
16231SOL    HW250701   7.833   4.832   4.723  2.9961 -2.0862 -1.9844
16232SOL     OW50702   0.531   4.856   5.659 -0.7112 -0.3786  0.0010
16232SOL    HW150703   0.601   4.895   5.607 -0.9647 -0.4240 -0.3730
16232SOL    HW250704   0.455   4.913   5.644 -0.7676 -0.3557  0.3679
16233SOL     OW50705   0.316   5.436   6.176  0.2117  0.1677  0.0531
16233SOL    HW150706   0.237   5.415   6.226  1.1544 -0.6266  1.2684
16233SOL    HW250707   0.355   5.352   6.155  0.6719  0.5478 -0.6486
16234SOL     OW50708   6.921   6.367   9.424 -0.0959 -0.0700 -0.5416
16234SOL    HW150709   6.906   6.405   9.338 -1.9198 -1.5589 -0.9421
16234SOL    HW250710   6.833   6.355   9.461  0.6168 -0.1138  1.2395
16235SOL     OW50711   6.258   3.021   5.319  0.1968 -0.1675 -0.0859
16235SOL    HW150712   6.311   2.944   5.300 -1.0523 -1.1758  0.3874
16235SOL    HW250713   6.208   3.036   5.239 -0.9751 -1.0506  0.4480
16236SOL     OW50714   1.410   7.255   9.220 -0.2484  0.9266 -0.1730
16236SOL    HW150715   1.443   7.335   9.261 -1.4797  1.2209  0.2881
16236SOL    HW250716   1.327   7.282   9.179  0.2953  0.3390 -1.7441
16237SOL     OW50717   3.578   6.088   3.754  0.9017 -0.1583  0.3677
16237SOL    HW150718   3.653   6.040   3.790  0.8399  0.6856  1.7133
16237SOL    HW250719   3.598   6.180   3.774  1.0239  0.4258 -2.1282
16238SOL     OW50720  10.926   5.988   4.735 -0.4463  0.2291 -0.1597
16238SOL    HW150721  11.016   6.008   4.707 -0.7910  0.1190 -1.4057
16238SOL    HW250722  10.926   5.894   4.751  0.0086  0.4507  1.2217
16239SOL     OW50723   4.032   6.597   2.240  0.0465  0.2339 -0.1475
16239SOL    HW150724   3.955   6.542   2.253  0.9892 -1.0227  0.2972
16239SOL    HW250725   4.091   6.573   2.311  0.8604  1.1586 -0.4885
16240SOL     OW50726   4.364   7.733   3.009 -0.1348 -0.2179 -0.1617
16240SOL    HW150727   4.370   7.792   3.085 -0.1959  0.0720 -0.3775
16240SOL    HW250728   4.283   7.684   3.023 -0.8681  0.8023 -0.7100
16241SOL     OW50729   1.516   6.946   9.642 -0.5512  0.5870 -0.0869
16241SOL    HW150730   1.604   6.970   9.672  0.4715 -1.3155 -1.3033
16241SOL    HW250731   1.511   6.981   9.553 -2.5419  3.9191  1.1799
16242SOL     OW50732   4.369   2.506   5.921  0.1208 -0.0157  0.2433
16242SOL    HW150733   4.310   2.546   5.985 -0.2438  0.8300 -0.6063
16242SOL    HW250734   4.310   2.460   5.860  0.3783  0.2828 -0.2322
16243SOL     OW50735   2.724   3.460   6.017 -0.4411 -0.2852 -0.2390
16243SOL    HW150736   2.787   3.523   5.982  0.3774 -1.0882 -0.2781
16243SOL    HW250737   2.649   3.512   6.044 -0.3132  0.5564 -1.4453
16244SOL     OW50738  10.025   1.149   1.005 -1.0067 -0.0731  0.1687
16244SOL    HW150739  10.107   1.199   1.001 -1.0131 -0.0850 -0.1398
16244SOL    HW250740   9.965   1.205   1.055 -0.4871 -0.5331  1.3665
16245SOL     OW50741   0.720   0.630   1.810 -0.2961 -0.2419  0.0766
16245SOL    HW150742   0.728   0.664   1.899  1.0418  0.7435 -0.3821
16245SOL    HW250743   0.660   0.556   1.817  0.5752 -0.8109  1.9635
16246SOL     OW50744   1.804   9.140   8.331  0.0847  0.5792 -0.2792
16246SOL    HW150745   1.729   9.194   8.305 -0.1014 -0.4209 -1.9066
16246SOL    HW250746   1.801   9.064   8.273  1.2337 -0.4533  0.9475
16247SOL     OW50747   4.408  11.006   2.712 -0.1528 -0.1783  0.1251
16247SOL    HW150748   4.471  11.063   2.668  0.1660 -1.0153 -0.5425
16247SOL    HW250749   4.457  10.968   2.785 -0.3492  0.3505  0.5371
16248SOL     OW50750   7.196   5.035   0.152 -0.4480 -0.1713 -0.1171
16248SOL    HW150751   7.150   4.955   0.180 -1.1911 -0.2241 -1.4202
16248SOL    HW250752   7.156   5.105   0.204 -0.6908 -0.4750  0.1122
16249SOL     OW50753   8.230  10.674   4.909 -0.5072  0.9211  0.6061
16249SOL    HW150754   8.240  10.769   4.896  0.3280  0.9287  1.1737
16249SOL    HW250755   8.161  10.666   4.975 -1.0522  1.0996  0.0677
16250SOL     OW50756  11.031   7.144   8.285 -0.1586  0.1861 -0.7910
16250SOL    HW150757  11.096   7.094   8.235  1.6547  2.0180 -0.4311
16250SOL    HW250758  10.953   7.144   8.230 -0.1866 -2.7239 -0.9148
16251SOL     OW50759   4.485   6.346   9.789 -0.3198 -0.4597 -0.1261
16251SOL    HW150760   4.469   6.393   9.707 -2.6045 -1.4800 -0.3550
16251SOL    HW250761   4.510   6.258   9.761 -0.2091 -0.5534  0.2650
16252SOL     OW50762  10.151   6.985   9.937  0.6002 -0.4654  0.1218
16252SOL    HW150763  10.205   7.009  10.012 -0.7905 -0.6571  1.2136
16252SOL    HW250764  10.214   6.968   9.867  1.9350 -0.4670  1.2836
16253SOL     OW50765   9.171   3.362   7.657  0.0809 -0.1998  0.2551
16253SOL    HW150766   9.095   3.358   7.715  0.2178 -1.4535  0.3699
16253SOL    HW250767   9.147   3.308   7.582  1.2080 -1.3871  0.7218
16254SOL     OW50768   7.863   3.746   2.146  0.2432  0.2746  0.0154
16254SOL    HW150769   7.936   3.723   2.203  0.9648 -2.1290 -1.7296
16254SOL    HW250770   7.787   3.747   2.204  1.0614 -1.2665  1.1878
16255SOL     OW50771   6.584   5.725   7.338  0.1787 -0.2771 -0.2961
16255SOL    HW150772   6.609   5.722   7.430 -2.0119  1.5440  0.4406
16255SOL    HW250773   6.609   5.812   7.309 -2.7835  0.7231 -0.1894
16256SOL     OW50774   6.398   5.131   2.951 -0.3082 -0.4524 -0.0473
16256SOL    HW150775   6.376   5.043   2.922  1.2514 -0.5467 -1.0506
16256SOL    HW250776   6.314   5.169   2.979 -1.1132 -1.9749 -0.3199
16257SOL     OW50777   7.661   9.719   3.537 -0.0759  0.0794 -0.4696
16257SOL    HW150778   7.567   9.732   3.524 -0.0818  0.4465 -0.0906
16257SOL    HW250779   7.697   9.714   3.448 -0.6257 -1.4779 -0.6457
16258SOL     OW50780   0.831   8.167   4.408  0.0243  0.5824  0.0753
16258SOL    HW150781   0.737   8.185   4.409 -0.2269 -0.6368  0.3469
16258SOL    HW250782   0.861   8.199   4.324 -1.8189 -4.3486 -2.9175
16259SOL     OW50783   1.037   5.843   2.854  0.1412  0.0679  0.0163
16259SOL    HW150784   1.042   5.837   2.950 -1.6457 -1.4193  0.0662
16259SOL    HW250785   0.974   5.913   2.838  0.2445  0.1412 -0.0694
16260SOL     OW50786   8.422   4.094   9.717 -0.0890 -0.5907  0.4866
16260SOL    HW150787   8.467   4.119   9.798 -1.3295  2.1661  0.4614
16260SOL    HW250788   8.373   4.015   9.740  2.3410 -1.9412  1.3332
16261SOL     OW50789   0.765   3.984   9.387 -0.6577 -0.0506 -0.4653
16261SOL    HW150790   0.720   3.900   9.401 -1.7903  0.4978 -0.7284
16261SOL    HW250791   0.719   4.045   9.445 -0.0041  0.4472 -0.4658
16262SOL     OW50792   0.351   9.957   1.276 -0.0641 -0.3665 -0.0067
16262SOL    HW150793   0.274   9.972   1.331  0.5715  0.5925  0.6513
16262SOL    HW250794   0.362   9.862   1.276 -0.9103 -0.4773  0.3453
16263SOL     OW50795   1.807   0.845   4.665 -0.1174  0.4026  0.3622
16263SOL    HW150796   1.810   0.940   4.656 -0.4425  0.2906 -1.1351
16263SOL    HW250797   1.893   0.822   4.700  0.9349  1.0471 -1.6417
16264SOL     OW50798   1.169   7.642   8.123  0.8663 -0.1404 -0.3277
16264SOL    HW150799   1.203   7.663   8.210  0.8755 -0.0490 -0.3533
16264SOL    HW250800   1.138   7.726   8.089 -0.0477 -0.3510 -0.0197
16265SOL     OW50801   1.257   8.453   4.165 -0.4058 -0.3789 -0.1420
16265SOL    HW150802   1.201   8.527   4.144 -1.2076 -1.1663 -0.8462
16265SOL    HW250803   1.340   8.492   4.191 -0.0573  0.7629 -2.6428
16266SOL     OW50804   5.683   6.433   9.952 -0.3061 -0.0076 -0.7230
16266SOL    HW150805   5.718   6.422  10.041 -0.4208  0.0321 -0.6723
16266SOL    HW250806   5.588   6.437   9.964 -0.3702 -0.7911 -0.9275
16267SOL     OW50807   7.328   4.243   6.427  0.1538 -0.2975  0.4177
16267SOL    HW150808   7.402   4.303   6.439 -0.9657  1.3039 -0.2199
16267SOL    HW250809   7.287   4.272   6.346 -1.3978 -0.8770  0.9556
16268SOL     OW50810   6.638   2.548   5.212  0.1495  0.4022 -0.0560
16268SOL    HW150811   6.682   2.634   5.213  2.0483 -0.5226  0.4886
16268SOL    HW250812   6.710   2.485   5.210 -1.1164 -1.2351  1.9465
16269SOL     OW50813   4.539   9.044   4.765  0.2464 -0.4101  0.8969
16269SOL    HW150814   4.564   9.097   4.841  1.8015  0.7812 -0.3739
16269SOL    HW250815   4.606   8.976   4.760 -0.0958 -0.7475  0.8267
16270SOL     OW50816   1.520   2.199   1.691  0.3439  0.7368 -0.6579
16270SOL    HW150817   1.449   2.262   1.696 -1.9205 -1.6837 -0.2112
16270SOL    HW250818   1.505   2.139   1.765  0.7016 -1.8895 -2.5579
16271SOL     OW50819   0.083  10.630  10.167 -0.4007 -0.2359 -0.1868
16271SOL    HW150820   0.011  10.566  10.167 -2.3371  1.6184  3.1637
16271SOL    HW250821   0.040  10.714  10.178  2.2250  1.1091  0.6949
16272SOL     OW50822   2.200   9.139   4.418 -0.1838  0.4433  0.4840
16272SOL    HW150823   2.130   9.204   4.417  1.2731  2.0874  0.7830
16272SOL    HW250824   2.200   9.106   4.508 -0.6990  0.2939  0.4301
16273SOL     OW50825   6.686   5.991   7.252 -0.4809  0.0950  0.0564
16273SOL    HW150826   6.683   6.037   7.168  0.4799 -0.8007 -0.4923
16273SOL    HW250827   6.613   6.027   7.302 -0.8647  0.8826 -1.0398
16274SOL     OW50828   0.267   1.198   7.675 -0.6557 -0.2664 -0.1223
16274SOL    HW150829   0.312   1.186   7.758 -1.3636  0.7642  0.4191
16274SOL    HW250830   0.196   1.133   7.676 -0.4806 -0.4582 -0.0667
16275SOL     OW50831   7.336   9.937   7.133 -0.3290 -0.0146  0.4009
16275SOL    HW150832   7.288   9.995   7.192 -1.7148  0.0623 -0.7529
16275SOL    HW250833   7.317   9.849   7.166 -0.4117  0.0647  0.5694
16276SOL     OW50834   1.135   0.702   0.128 -0.1790  0.3927  0.0779
16276SOL    HW150835   1.084   0.621   0.116  2.0702 -1.5105  2.2634
16276SOL    HW250836   1.115   0.728   0.218  0.8101  1.0210  0.1179
16277SOL     OW50837   8.488   8.064   8.790  0.4854 -1.0776  0.3271
16277SOL    HW150838   8.470   8.047   8.697 -1.5314  1.3178  0.1561
16277SOL    HW250839   8.442   7.995   8.836  1.7161 -2.4440 -0.4138
16278SOL     OW50840  10.342   4.980   2.964  0.2818 -0.3823 -0.3532
16278SOL    HW150841  10.416   4.984   3.025 -0.0537 -1.3668  0.1573
16278SOL    HW250842  10.274   5.033   3.006  0.3448 -0.3530 -0.2881
16279SOL     OW50843   7.807   6.657   2.734 -0.2461  0.0755  0.0561
16279SOL    HW150844   7.760   6.709   2.800 -2.3257  0.2555 -1.4841
16279SOL    HW250845   7.898   6.686   2.742 -1.1083  3.1624  0.0654
16280SOL     OW50846   3.094   0.781   2.368  0.9798  0.2742 -0.1985
16280SOL    HW150847   3.043   0.712   2.410 -0.8107 -0.6070 -3.4756
16280SOL    HW250848   3.185   0.752   2.376  0.2534 -3.4128 -2.5979
16281SOL     OW50849   3.389   7.951   6.666  0.0196 -0.2139 -0.5875
16281SOL    HW150850   3.401   7.994   6.751 -1.0453  1.1582 -1.0915
16281SOL    HW250851   3.427   8.011   6.603  1.5936 -1.6247 -1.0513
16282SOL     OW50852   8.634   3.716   6.720  0.7413 -0.2412  0.5441
16282SOL    HW150853   8.621   3.641   6.663  0.1921  0.0288  0.3123
16282SOL    HW250854   8.725   3.743   6.704  0.8317 -0.6484  0.3820
16283SOL     OW50855   1.813   6.638   9.288  0.0201  0.2912 -0.2127
16283SOL    HW150856   1.860   6.560   9.260  0.6074  1.1247 -1.6202
16283SOL    HW250857   1.856   6.710   9.242 -0.4298  1.4738  1.1464
16284SOL     OW50858  10.785   6.760   7.421 -0.0890 -0.1839  0.2401
16284SOL    HW150859  10.689   6.761   7.423 -0.1099 -0.1933 -0.6408
16284SOL    HW250860  10.810   6.723   7.506 -0.7894  2.4567  1.6936
16285SOL     OW50861   5.265   5.591   7.160 -0.0511 -0.1524 -0.0530
16285SOL    HW150862   5.212   5.545   7.095  1.1296 -0.2312 -1.0146
16285SOL    HW250863   5.355   5.567   7.137  0.4570  0.8669  0.8248
16286SOL     OW50864   6.588   4.605   6.690  0.4019 -0.1971 -0.2302
16286SOL    HW150865   6.657   4.633   6.629  1.6044 -0.7357  0.8291
16286SOL    HW250866   6.538   4.540   6.641  0.0361  0.8730 -1.3390
16287SOL     OW50867  10.267   8.554   4.311 -0.1536  0.3594  0.2618
16287SOL    HW150868  10.246   8.647   4.315 -0.2650  0.5938 -2.9228
16287SOL    HW250869  10.363   8.552   4.301 -0.2103  0.1950 -0.2863
16288SOL     OW50870   4.700   7.787   9.743 -0.1791 -0.6143  0.2143
16288SOL    HW150871   4.634   7.724   9.769 -1.6400  0.4752 -0.7220
16288SOL    HW250872   4.733   7.755   9.659 -0.6628 -0.3435 -0.0855
16289SOL     OW50873   5.660   2.615   3.684 -0.5352  0.5283 -0.0575
16289SOL    HW150874   5.655   2.541   3.744 -0.0120 -0.0537 -0.7299
16289SOL    HW250875   5.575   2.660   3.694 -0.6006  0.2191  0.8242
16290SOL     OW50876   5.469   2.106   2.920 -0.5040 -0.1052  0.0200
16290SOL    HW150877   5.539   2.069   2.974 -0.8589  2.4654  2.5032
16290SOL    HW250878   5.515   2.155   2.851 -0.0349 -2.6474 -1.5934
16291SOL     OW50879   8.218   2.228   8.723  0.0616  0.2400  0.2631
16291SOL    HW150880   8.228   2.134   8.705  0.7817 -0.1415  2.4096
16291SOL    HW250881   8.307   2.259   8.736 -0.0407  1.5814 -1.8307
16292SOL     OW50882   4.014  10.003   0.745  0.3099  0.3076  0.3431
16292SOL    HW150883   3.991   9.994   0.838 -0.0351  0.5063  0.2801
16292SOL    HW250884   4.027   9.913   0.715  1.2146  0.2838  0.7745
16293SOL     OW50885  10.094   6.885   3.462  0.5398  0.0863 -0.0098
16293SOL    HW150886  10.109   6.811   3.521  0.7063  1.1091  1.2691
16293SOL    HW250887  10.000   6.899   3.465  0.6450  0.7335  0.8008
16294SOL     OW50888   8.010   4.895   6.875  0.1260  0.2623  0.1548
16294SOL    HW150889   7.982   4.982   6.903 -1.6957 -0.2848  0.1263
16294SOL    HW250890   8.090   4.911   6.824 -1.2290  2.1382 -1.5096
16295SOL     OW50891   0.393   6.448   7.400 -0.4188 -0.4386 -0.6349
16295SOL    HW150892   0.354   6.413   7.480  0.0764  1.0025  0.2806
16295SOL    HW250893   0.319   6.486   7.352 -0.4206  0.7974  0.2968
16296SOL     OW50894   8.737   3.774   5.441  0.5447 -0.5352 -0.2700
16296SOL    HW150895   8.737   3.681   5.421 -0.2233 -0.7892  0.8486
16296SOL    HW250896   8.811   3.786   5.501  0.2918 -0.5192  0.0364
16297SOL     OW50897   6.094  10.806   3.967  0.1678 -0.0076 -0.3514
16297SOL    HW150898   6.016  10.853   3.938 -0.4125  1.4175  3.0369
16297SOL    HW250899   6.097  10.728   3.911 -2.0091  1.3093 -2.4842
16298SOL     OW50900   8.375   2.468   7.561 -0.5210  0.0039  0.4127
16298SOL    HW150901   8.447   2.457   7.498 -0.6406 -1.2003  0.4623
16298SOL    HW250902   8.309   2.518   7.513  0.1035  0.6126  0.1722
16299SOL     OW50903   5.142   8.971   5.412  0.4253 -0.1570 -0.8308
16299SOL    HW150904   5.208   9.030   5.375  0.0370 -0.3741 -1.9183
16299SOL    HW250905   5.058   9.009   5.385  0.1515 -0.8116 -0.9266
16300SOL     OW50906   1.677   3.510   5.628  0.0385 -0.5763 -0.3944
16300SOL    HW150907   1.656   3.516   5.721  0.1745 -1.2726 -0.3167
16300SOL    HW250908   1.708   3.420   5.615 -0.0011 -0.4971 -1.1149
16301SOL     OW50909   5.916   1.647  10.612 -0.1639 -0.0434 -0.4169
16301SOL    HW150910   5.936   1.600  10.693 -1.1337 -0.1254 -0.2140
16301SOL    HW250911   5.894   1.578  10.549 -0.8471  0.0802 -0.3282
16302SOL     OW50912   1.597   9.450   9.973  0.3448 -0.6588  0.1867
16302SOL    HW150913   1.676   9.407  10.005  0.5316 -1.9972 -1.9025
16302SOL    HW250914   1.561   9.389   9.909 -2.1836  0.1036  0.7599
16303SOL     OW50915   8.045   9.894   4.450  0.2485 -0.8091 -0.1146
16303SOL    HW150916   7.996   9.922   4.372  0.8914 -0.0175 -0.2541
16303SOL    HW250917   8.073   9.976   4.491 -0.0655 -1.2254  0.9441
16304SOL     OW50918   2.903   3.841   7.278  0.3240  0.3968  0.0389
16304SOL    HW150919   2.929   3.862   7.367  0.8777  2.3338 -0.5249
16304SOL    HW250920   2.966   3.775   7.249 -0.4604 -0.9993  1.3486
16305SOL     OW50921   1.118   8.523   5.328 -0.6069  0.0146  0.4980
16305SOL    HW150922   1.067   8.444   5.307 -1.1239 -0.0507  1.8988
16305SOL    HW250923   1.077   8.592   5.276 -0.6134 -0.4891 -0.1894
16306SOL     OW50924   0.467   1.641   3.957  0.3887 -0.2210 -0.1348
16306SOL    HW150925   0.556   1.628   3.988  0.5738  0.6560 -0.2502
16306SOL    HW250926   0.476   1.704   3.885 -0.3712  0.3268  0.2303
16307SOL     OW50927   8.784   0.911  10.056  1.0426  0.1739  0.3363
16307SOL    HW150928   8.714   0.899   9.992  0.9614  0.1562  0.4292
16307SOL    HW250929   8.815   0.822  10.074 -0.1777 -0.0075  1.7147
16308SOL     OW50930   8.881   7.620   6.134 -0.3808  0.4221 -0.3876
16308SOL    HW150931   8.793   7.584   6.123  0.1453 -0.9437 -0.3445
16308SOL    HW250932   8.891   7.681   6.060 -0.8296 -0.5438 -1.2753
16309SOL     OW50933   2.975   7.032   7.903  0.2315  0.1934  0.7473
16309SOL    HW150934   3.056   7.045   7.951  0.9376  2.7430 -0.9476
16309SOL    HW250935   2.982   7.089   7.827 -2.4502 -0.7839 -0.3725
16310SOL     OW50936   0.099   8.340   9.335  0.2216  0.6147 -0.3879
16310SOL    HW150937   0.172   8.372   9.388  1.5409 -2.2458 -0.3141
16310SOL    HW250938   0.041   8.416   9.326  2.6157  2.6895  0.5048
16311SOL     OW50939   7.775   7.545   5.930 -0.5282  0.1431  0.7334
16311SOL    HW150940   7.704   7.563   5.991 -1.4781  0.5799 -0.4516
16311SOL    HW250941   7.783   7.625   5.878  0.1165 -0.2768  0.1609
16312SOL     OW50942   6.086   7.367   6.689 -0.6036 -0.2741 -0.1690
16312SOL    HW150943   6.142   7.304   6.644 -1.2735 -1.0007  0.0012
16312SOL    HW250944   6.118   7.452   6.661 -0.0284 -0.6988 -0.8151
16313SOL     OW50945   9.452   5.897   7.311  0.3018  0.3703 -0.2134
16313SOL    HW150946   9.490   5.848   7.385 -1.8398  1.2658  1.5919
16313SOL    HW250947   9.377   5.943   7.349 -0.7060  1.1299 -2.9184
16314SOL     OW50948   5.484   4.123   5.057 -0.2362 -0.0280 -0.4789
16314SOL    HW150949   5.467   4.035   5.092 -0.2540  0.1430 -0.0630
16314SOL    HW250950   5.408   4.175   5.084  0.3997  0.4522  0.4126
16315SOL     OW50951   6.402   8.000   3.708 -0.3903  0.3183 -0.3426
16315SOL    HW150952   6.452   8.029   3.784  0.7070 -0.0922 -0.8798
16315SOL    HW250953   6.346   7.930   3.742  0.7576 -0.4971 -0.0804
16316SOL     OW50954   5.380   8.091   4.859  0.4147 -0.1645 -0.6706
16316SOL    HW150955   5.430   8.115   4.937  0.0245 -0.8458 -0.1929
16316SOL    HW250956   5.441   8.039   4.806  0.9147  0.9315 -1.1863
16317SOL     OW50957   3.909   1.639   9.757  0.0649 -0.1225 -0.0965
16317SOL    HW150958   3.955   1.587   9.822  0.1681  0.3819  0.2378
16317SOL    HW250959   3.880   1.717   9.804 -0.6224 -0.1604 -0.4423
16318SOL     OW50960   7.760   7.651   0.157 -0.3542  0.4035  0.5325
16318SOL    HW150961   7.691   7.655   0.223  0.1043 -0.8772  1.1287
16318SOL    HW250962   7.817   7.580   0.186 -0.3497 -0.4856 -1.4369
16319SOL     OW50963   1.137   8.819   8.140  0.0042 -0.0452 -0.1622
16319SOL    HW150964   1.072   8.832   8.209 -0.8796  1.5323 -1.2143
16319SOL    HW250965   1.136   8.902   8.092  2.3794 -0.2127 -0.5823
16320SOL     OW50966   3.198  10.358   7.727  0.2998  0.8898  0.0291
16320SOL    HW150967   3.272  10.298   7.724 -0.3425  0.1135 -0.7074
16320SOL    HW250968   3.217  10.422   7.658  0.8173  1.3467  0.5857
16321SOL     OW50969   4.089   6.481   1.206 -0.7200 -0.0513 -0.4115
16321SOL    HW150970   4.097   6.452   1.115 -0.6166 -2.1109  0.2109
16321SOL    HW250971   4.117   6.572   1.205  0.1050 -0.2939 -2.2954
16322SOL     OW50972   4.816   6.764   9.019  1.0186  0.6234 -0.0319
16322SOL    HW150973   4.801   6.700   8.949  0.1037  0.9781 -0.1774
16322SOL    HW250974   4.888   6.727   9.071  1.7326  0.3719 -1.1723
16323SOL     OW50975   8.703   1.258   8.392 -0.1767  0.1405 -0.7160
16323SOL    HW150976   8.638   1.254   8.462 -0.1418 -1.9793 -0.7400
16323SOL    HW250977   8.787   1.251   8.438 -0.0441  0.9671 -0.8243
16324SOL     OW50978   2.524   6.691   5.947 -0.6367 -0.7440 -0.0358
16324SOL    HW150979   2.582   6.766   5.932 -0.9977 -0.1040  1.5543
16324SOL    HW250980   2.461   6.722   6.012 -1.6635 -1.9974 -0.4020
16325SOL     OW50981   3.535   8.815   1.004 -0.4726 -0.1670 -0.4140
16325SOL    HW150982   3.602   8.825   0.937  1.6318 -1.3128  1.3951
16325SOL    HW250983   3.473   8.752   0.966 -0.0682  0.2335 -1.7912
16326SOL     OW50984   6.267   8.294  10.828  0.6081 -0.1095 -0.1274
16326SOL    HW150985   6.360   8.293  10.849  0.5692 -0.3405  0.0382
16326SOL    HW250986   6.223   8.295  10.913  0.4515  3.3181 -0.0984
16327SOL     OW50987   7.739   9.255   1.700 -0.1327 -0.2917  0.5875
16327SOL    HW150988   7.662   9.300   1.666  0.2995 -0.4339 -0.6634
16327SOL    HW250989   7.729   9.165   1.670  0.7179 -0.2132  0.0237
16328SOL     OW50990   3.654   7.972   7.479  0.2910 -0.6136  0.2750
16328SOL    HW150991   3.631   7.967   7.572 -0.6404 -0.3300  0.0739
16328SOL    HW250992   3.577   7.936   7.434  0.4589 -0.1161 -0.4177
16329SOL     OW50993   0.774   1.235   9.643 -0.4348 -0.5714 -0.0026
16329SOL    HW150994   0.748   1.175   9.713 -2.8426  1.1779  0.7542
16329SOL    HW250995   0.726   1.205   9.566 -2.1675  0.6162  0.5351
16330SOL     OW50996  11.023   9.390   6.092  0.1227  0.1365 -0.1302
16330SOL    HW150997  11.079   9.395   6.015 -0.6035  0.2641 -0.6543
16330SOL    HW250998  10.967   9.315   6.077 -1.0193  1.0162 -0.4196
16331SOL     OW50999   5.670   3.591   0.149  0.0129 -0.3576  0.5563
16331SOL    HW151000   5.738   3.627   0.092 -0.0212 -1.8987 -0.5164
16331SOL    HW251001   5.588   3.619   0.109 -0.0170  0.0547  0.8883
16332SOL     OW51002   9.192  10.393   1.793 -0.5543 -0.0193 -0.4356
16332SOL    HW151003   9.213  10.362   1.881  0.0433 -0.3935 -0.7059
16332SOL    HW251004   9.134  10.325   1.756 -0.0541 -0.3275 -0.6638
16333SOL     OW51005   7.225   7.837   9.103 -0.0637  0.1533  0.2197
16333SOL    HW151006   7.165   7.839   9.028 -0.7344  0.4487  0.7514
16333SOL    HW251007   7.189   7.768   9.160  2.2518 -2.3759 -1.1841
16334SOL     OW51008   2.438   1.829   5.157 -0.2902 -0.1365  0.3597
16334SOL    HW151009   2.453   1.844   5.064  2.0730 -0.0100  0.7028
16334SOL    HW251010   2.467   1.910   5.199 -0.1586 -0.6413  1.2774
16335SOL     OW51011   0.175   9.599   1.414 -0.3403 -0.2667  0.1942
16335SOL    HW151012   0.176   9.629   1.505  0.2184  0.4886 -0.0577
16335SOL    HW251013   0.255   9.634   1.376 -0.6610 -0.4284 -0.6452
16336SOL     OW51014   6.925   1.620   0.939  0.1333  0.1155  0.3275
16336SOL    HW151015   6.943   1.664   0.856 -0.6867  3.8182  1.8953
16336SOL    HW251016   6.999   1.644   0.995 -1.0553  0.8108  1.6725
16337SOL     OW51017   2.651   9.662   2.295  0.5415 -0.1074 -0.4072
16337SOL    HW151018   2.745   9.678   2.293  0.3688  0.9968 -0.5511
16337SOL    HW251019   2.613   9.748   2.312 -0.4219 -0.6236  0.1221
16338SOL     OW51020   9.627   8.585  10.299 -0.1582 -0.3584  0.3654
16338SOL    HW151021   9.679   8.524  10.246 -0.9848 -0.2792 -0.5729
16338SOL    HW251022   9.539   8.580  10.261 -0.5794  0.3230  1.2243
16339SOL     OW51023   9.688   0.442   9.841 -0.3679  0.0604  0.3266
16339SOL    HW151024   9.660   0.455   9.932 -1.9596  0.1561 -0.1429
16339SOL    HW251025   9.782   0.459   9.842 -0.5103  0.9171  1.7987
16340SOL     OW51026   3.671   9.994   5.195  0.2995 -0.0643 -0.2838
16340SOL    HW151027   3.752  10.041   5.173  1.1211 -0.9873  0.6408
16340SOL    HW251028   3.701   9.909   5.228 -1.0724 -0.5637 -0.2481
16341SOL     OW51029   6.214   2.533   1.417 -0.2687 -0.1030  0.4923
16341SOL    HW151030   6.123   2.562   1.419  0.4065  2.2111  0.9370
16341SOL    HW251031   6.246   2.557   1.330  0.1391 -0.1033  0.6384
16342SOL     OW51032   5.756   5.961   3.480 -0.0293  0.1606 -0.2658
16342SOL    HW151033   5.785   6.048   3.453  2.8204  0.0736  2.0321
16342SOL    HW251034   5.818   5.901   3.438  0.1127 -0.4575  0.7993
16343SOL     OW51035   9.255   7.875   5.438  0.3414  0.0175  0.0329
16343SOL    HW151036   9.267   7.943   5.504  1.4378 -0.6983  0.5870
16343SOL    HW251037   9.325   7.890   5.375 -0.5576  0.5482 -0.8624
16344SOL     OW51038   3.783   5.494   2.151 -0.1052 -0.7234 -0.4359
16344SOL    HW151039   3.746   5.583   2.150  0.1062 -0.5791  1.4082
16344SOL    HW251040   3.828   5.486   2.066 -1.4924  0.3141 -1.3168
16345SOL     OW51041   6.885   5.007   2.617 -0.0874  0.4236  0.2323
16345SOL    HW151042   6.904   4.935   2.556 -1.1887  0.1363  0.2144
16345SOL    HW251043   6.852   4.963   2.696 -0.0260  0.8805  0.5155
16346SOL     OW51044  10.625   0.617   0.620  0.4248  0.5918 -0.1021
16346SOL    HW151045  10.652   0.541   0.568 -0.4142 -0.4618  0.9591
16346SOL    HW251046  10.660   0.692   0.572 -0.5927 -0.3020 -2.3944
16347SOL     OW51047   2.216   9.631   8.918  0.1087  0.0542  0.3367
16347SOL    HW151048   2.191   9.553   8.868 -1.5713  1.1796 -0.6778
16347SOL    HW251049   2.214   9.603   9.009  0.7305 -1.3845 -0.0590
16348SOL     OW51050   1.742   5.474   2.719 -0.2097  0.1143 -0.0817
16348SOL    HW151051   1.758   5.542   2.784  1.6073 -1.1893  0.8987
16348SOL    HW251052   1.785   5.507   2.639  2.5408 -0.7218  0.9483
16349SOL     OW51053   5.015   8.851  10.971  0.1200  0.3534 -0.0313
16349SOL    HW151054   4.988   8.848  10.879 -0.6780 -1.1133  0.2176
16349SOL    HW251055   5.027   8.944  10.989  1.8635  0.5917 -2.0487
16350SOL     OW51056  10.827   5.069   6.071  0.0344  0.1913 -0.4653
16350SOL    HW151057  10.813   5.064   6.165  0.2101  1.4958 -0.3498
16350SOL    HW251058  10.912   5.026   6.057  0.9282  1.6336  0.2419
16351SOL     OW51059   6.842   3.329   2.025 -0.4814  0.1305  0.0948
16351SOL    HW151060   6.837   3.389   2.100 -1.0588 -1.0231  1.0185
16351SOL    HW251061   6.912   3.268   2.048  0.2578  0.5777 -0.9410
16352SOL     OW51062   6.708   9.250   2.510  0.0958 -0.0134 -0.7488
16352SOL    HW151063   6.638   9.300   2.469  1.0908  1.4556 -0.7688
16352SOL    HW251064   6.689   9.159   2.489 -2.2224  0.2582 -0.0517
16353SOL     OW51065   0.273   5.064   8.749 -0.4331  0.3968  0.4095
16353SOL    HW151066   0.249   5.146   8.793 -1.5491  0.0102  0.5614
16353SOL    HW251067   0.231   5.069   8.663  1.0828  0.7996 -0.3525
16354SOL     OW51068   9.502   3.459  10.087  0.3066  0.6617 -0.1238
16354SOL    HW151069   9.538   3.540  10.123  1.4908 -0.5801  1.7056
16354SOL    HW251070   9.440   3.429  10.153  0.8132 -0.5192 -0.1520
16355SOL     OW51071   4.783   2.310   9.838 -0.3055 -0.1466 -0.2768
16355SOL    HW151072   4.789   2.324   9.933 -0.8626 -0.4374 -0.1965
16355SOL    HW251073   4.812   2.220   9.825  0.3668  0.0917 -0.4550
16356SOL     OW51074   6.023   9.406   8.349 -0.3032 -0.1681 -0.2649
16356SOL    HW151075   6.100   9.419   8.294 -0.9893 -1.7152 -1.7057
16356SOL    HW251076   5.952   9.387   8.287 -1.9245  1.4266  0.9935
16357SOL     OW51077   7.060   8.543   8.911  0.1352  0.5657 -0.5776
16357SOL    HW151078   7.053   8.519   8.819  2.7917 -4.3408  0.1466
16357SOL    HW251079   7.154   8.551   8.927 -0.1457 -0.2102  1.9249
16358SOL     OW51080   3.292   9.265   8.081  0.2044 -0.6328 -0.0129
16358SOL    HW151081   3.323   9.246   7.992 -0.8585  1.8310 -1.0276
16358SOL    HW251082   3.306   9.359   8.091 -2.6265 -0.2303  1.1499
16359SOL     OW51083   3.091   5.227   4.483  1.1033  0.1761  0.1717
16359SOL    HW151084   3.074   5.310   4.528  2.3179  1.2192 -1.1966
16359SOL    HW251085   3.183   5.207   4.505  1.2643 -0.0412 -0.6789
16360SOL     OW51086   8.069   3.392   8.265 -0.2667  0.0993 -0.3910
16360SOL    HW151087   8.144   3.452   8.271 -0.8655  0.7225  1.6670
16360SOL    HW251088   7.994   3.448   8.246 -0.7163 -0.0693  0.8183
16361SOL     OW51089   7.421  10.573   0.000 -0.3681 -0.3523 -0.3496
16361SOL    HW151090   7.338  10.614  -0.024 -0.6912 -0.4195  0.5870
16361SOL    HW251091   7.455  10.628   0.071  0.5734 -0.1183 -0.9511
16362SOL     OW51092   6.027   0.342  10.766  0.1745 -0.2776  0.0084
16362SOL    HW151093   6.041   0.272  10.830  1.3555  0.9551  1.1672
16362SOL    HW251094   5.943   0.380  10.792  0.9370  0.6165  1.2791
16363SOL     OW51095   7.369   7.084   8.509  0.2093 -0.2178  0.2607
16363SOL    HW151096   7.426   7.135   8.567  0.0991 -0.7124  0.8177
16363SOL    HW251097   7.298   7.055   8.566  0.4858 -1.3292  0.0605
16364SOL     OW51098  10.700   1.740   3.339  0.7579 -0.1922  0.0421
16364SOL    HW151099  10.619   1.743   3.390 -0.4334 -0.4784 -1.7329
16364SOL    HW251100  10.761   1.795   3.387 -0.5384  0.1701  1.3500
16365SOL     OW51101   9.133   6.656   1.541 -0.5903 -0.3634 -0.0811
16365SOL    HW151102   9.209   6.696   1.583 -0.2623  0.3880 -1.3103
16365SOL    HW251103   9.067   6.725   1.540 -1.6352 -1.2623  1.7184
16366SOL     OW51104   1.709   3.913   9.507  0.3123  0.0418  0.4080
16366SOL    HW151105   1.675   3.883   9.591  1.3180  0.2221  0.8927
16366SOL    HW251106   1.731   3.833   9.460 -2.9427 -0.2380 -0.9212
16367SOL     OW51107   0.303  10.142   5.274  0.3565 -0.1373  0.2398
16367SOL    HW151108   0.351  10.063   5.250  1.0862  0.0585  1.0186
16367SOL    HW251109   0.324  10.205   5.205 -1.7638 -1.1710 -1.4636
16368SOL     OW51110  10.624   1.713   1.069  0.2708 -0.0413  0.2716
16368SOL    HW151111  10.626   1.766   0.989 -0.1036 -1.8669 -1.0187
16368SOL    HW251112  10.647   1.625   1.040 -0.5461 -0.9026  2.0753
16369SOL     OW51113   8.718   4.728   8.155 -0.0291  0.5260  0.3334
16369SOL    HW151114   8.625   4.747   8.159 -0.3296 -0.7081 -0.2095
16369SOL    HW251115   8.748   4.768   8.073 -0.7622 -1.6124 -1.0740
16370SOL     OW51116   5.678   1.433   3.842  0.1665  0.2327 -0.1016
16370SOL    HW151117   5.650   1.489   3.769 -1.6920  0.1190  0.4630
16370SOL    HW251118   5.699   1.349   3.801  0.8819  0.6894 -0.6992
16371SOL     OW51119   3.873   6.597   9.721 -0.3989  0.0533 -0.3307
16371SOL    HW151120   3.921   6.594   9.804 -0.7411 -2.4467 -0.1446
16371SOL    HW251121   3.889   6.685   9.687  2.5180  0.0514  0.7681
16372SOL     OW51122   9.929   5.235   0.905  0.5377 -0.0624 -0.1631
16372SOL    HW151123   9.897   5.309   0.853  2.6534  1.1158  0.0773
16372SOL    HW251124   9.965   5.174   0.840  1.7494  0.6815 -0.2338
16373SOL     OW51125   7.536   7.809  10.131 -0.2191 -0.4351  0.4698
16373SOL    HW151126   7.536   7.714  10.140  0.9414 -0.5185 -0.1722
16373SOL    HW251127   7.624   7.836  10.155 -0.4639  0.4588  0.4260
16374SOL     OW51128   8.406   9.144   7.043  0.3306 -0.3986  0.3496
16374SOL    HW151129   8.472   9.108   7.102  1.7085 -1.8378 -1.9128
16374SOL    HW251130   8.454   9.204   6.987 -1.0419  1.3112  0.9105
16375SOL     OW51131   1.852   9.989   8.806 -0.9922  0.1350 -0.9407
16375SOL    HW151132   1.800  10.050   8.859 -2.0622  0.1108 -1.9043
16375SOL    HW251133   1.887   9.926   8.868 -1.0164  0.9436 -0.0946
16376SOL     OW51134   7.635   2.241   1.778 -0.4692  0.4548  0.3912
16376SOL    HW151135   7.638   2.336   1.774  0.7422  0.3943 -0.6768
16376SOL    HW251136   7.723   2.213   1.752 -1.0158 -0.9710 -0.0142
16377SOL     OW51137   6.337   8.505   2.026 -0.5818  0.1820  0.2117
16377SOL    HW151138   6.280   8.462   1.963  0.5467  0.3511 -0.9895
16377SOL    HW251139   6.329   8.454   2.106 -0.0279 -1.6876 -0.8746
16378SOL     OW51140   3.692   5.743   3.043  0.0705  0.4223 -0.0138
16378SOL    HW151141   3.693   5.685   2.967 -1.1370  2.3943 -1.6471
16378SOL    HW251142   3.767   5.801   3.030  0.8146 -0.2357  1.1883
16379SOL     OW51143   0.909   2.561   0.543 -0.5192 -0.1335  0.1641
16379SOL    HW151144   0.919   2.651   0.511  1.9204  0.2067  1.6438
16379SOL    HW251145   0.984   2.514   0.507 -0.6205 -1.0410  1.0877
16380SOL     OW51146   5.583   7.256   0.529  0.0554 -0.0495  0.2042
16380SOL    HW151147   5.668   7.299   0.524 -0.1083  0.3225  0.5064
16380SOL    HW251148   5.596   7.182   0.589  0.2479 -0.2005 -0.0234
16381SOL     OW51149   1.900   8.273   8.159 -0.1808  0.2177  0.5332
16381SOL    HW151150   1.871   8.325   8.234 -1.5197 -0.3811  0.4607
16381SOL    HW251151   1.856   8.189   8.170  1.5228 -0.7378  0.3605
16382SOL     OW51152   6.520   9.688   9.470  0.3592 -0.3441 -0.0321
16382SOL    HW151153   6.466   9.650   9.401 -0.2588  0.9871 -0.3113
16382SOL    HW251154   6.520   9.622   9.539 -3.2135  0.3214  0.7913
16383SOL     OW51155   0.080   6.355   2.178  0.3250  0.2742 -0.1976
16383SOL    HW151156   0.143   6.324   2.112  1.5795  0.0776  1.0600
16383SOL    HW251157   0.008   6.292   2.173  2.0128 -1.9058  1.0516
16384SOL     OW51158   6.600   2.607   8.096 -0.6829  0.0733  0.3358
16384SOL    HW151159   6.595   2.541   8.027  0.6926  0.1607  0.1362
16384SOL    HW251160   6.688   2.644   8.088 -0.7126  0.4998  1.7587
16385SOL     OW51161   5.834   8.878   6.911  0.2934  0.5421  0.0423
16385SOL    HW151162   5.885   8.830   6.846 -3.3023 -1.5144 -1.5301
16385SOL    HW251163   5.841   8.824   6.990 -1.6342 -1.3808 -0.9958
16386SOL     OW51164   1.804   1.225   9.792 -0.1102  0.2513  0.1485
16386SOL    HW151165   1.871   1.184   9.737  1.1993  2.5769 -0.1384
16386SOL    HW251166   1.853   1.261   9.866 -1.1888  1.1340  0.4639
16387SOL     OW51167   3.682   4.332   7.271  0.4676  0.6524  0.1944
16387SOL    HW151168   3.611   4.383   7.232  0.3542 -1.1919 -2.1895
16387SOL    HW251169   3.760   4.385   7.256 -0.0210  1.4735  0.4542
16388SOL     OW51170   1.145   3.589   2.302 -0.1543 -0.6331  0.6462
16388SOL    HW151171   1.127   3.677   2.336 -0.9646 -0.5948  0.1405
16388SOL    HW251172   1.155   3.601   2.208  1.8648 -0.7740  0.8117
16389SOL     OW51173   1.980  10.045   7.619 -0.3995  0.1984 -0.7099
16389SOL    HW151174   2.028   9.963   7.630  0.1750  0.5788 -0.2693
16389SOL    HW251175   2.031  10.093   7.553  1.7268  1.9220  1.9454
16390SOL     OW51176   9.820   4.464   7.269  0.1875  0.4183  0.5276
16390SOL    HW151177   9.862   4.396   7.322 -1.8430 -0.4183  1.1334
16390SOL    HW251178   9.782   4.524   7.333  0.5439  1.2311 -0.0098
16391SOL     OW51179   9.129   6.113   6.225 -0.2012 -0.1974 -0.1421
16391SOL    HW151180   9.038   6.133   6.247  0.3637  0.7962  1.4701
16391SOL    HW251181   9.131   6.018   6.213 -1.0558 -0.5447  2.0319
16392SOL     OW51182   3.854   8.489   3.201  0.1916  0.3266  0.7623
16392SOL    HW151183   3.833   8.416   3.259 -1.1455 -0.1318 -0.2320
16392SOL    HW251184   3.934   8.528   3.237 -0.9598  0.5060  3.2957
16393SOL     OW51185   2.123   6.736   2.348  0.0822  0.1915 -0.0575
16393SOL    HW151186   2.151   6.730   2.257 -1.3747  1.3012 -0.6186
16393SOL    HW251187   2.116   6.830   2.364 -0.6565 -0.0170  0.8981
16394SOL     OW51188   0.595   8.393   4.896  0.0642 -0.0205  0.2849
16394SOL    HW151189   0.604   8.358   4.808 -0.7673  1.5731 -0.4865
16394SOL    HW251190   0.525   8.459   4.888 -0.2847 -0.1101  2.2143
16395SOL     OW51191   2.587   1.004   7.332  0.0441  0.1487 -0.4680
16395SOL    HW151192   2.571   1.094   7.361 -1.1090 -0.4469  0.8830
16395SOL    HW251193   2.666   0.978   7.379 -1.5176 -0.6278  1.9175
16396SOL     OW51194   6.330   6.427   0.874  0.1687  0.2037 -0.1160
16396SOL    HW151195   6.250   6.450   0.827  0.1132  0.0921 -0.0763
16396SOL    HW251196   6.343   6.499   0.936  1.3061  1.3521 -1.6031
16397SOL     OW51197   2.256   0.632   2.956 -0.4636  0.7349 -0.7349
16397SOL    HW151198   2.332   0.591   2.997 -0.9939  0.7249  0.2746
16397SOL    HW251199   2.195   0.648   3.029 -2.2858 -1.0963 -1.7565
16398SOL     OW51200   5.185   8.647   9.350  0.0795  0.4467 -0.0564
16398SOL    HW151201   5.149   8.564   9.318  0.9047 -0.0630  0.3000
16398SOL    HW251202   5.131   8.714   9.308 -0.3414 -0.2563 -0.6730
16399SOL     OW51203   8.035   0.001   6.722 -0.1086  0.2448 -0.6083
16399SOL    HW151204   7.947  -0.032   6.702  0.4596 -1.2792 -0.6881
16399SOL    HW251205   8.079   0.006   6.637 -1.0460  4.1251 -1.0775
16400SOL     OW51206   3.683   9.950   1.678  0.2560  0.7158 -0.4134
16400SOL    HW151207   3.606   9.994   1.641 -0.0770  1.5335  1.1565
16400SOL    HW251208   3.650   9.910   1.758  1.3488  0.5454 -0.0442
16401SOL     OW51209   0.437   6.464   6.831  0.0363  0.1550  0.1667
16401SOL    HW151210   0.481   6.498   6.909  0.1268  1.2104 -0.3199
16401SOL    HW251211   0.508   6.428   6.777  0.1166  0.4516  0.0723
16402SOL     OW51212  10.011   7.418   1.083  0.2765 -0.7616  0.3329
16402SOL    HW151213  10.036   7.363   1.158  1.1532 -1.7975 -0.6861
16402SOL    HW251214   9.921   7.446   1.103 -0.2273 -2.6090  0.8775
16403SOL     OW51215   8.506   1.163   4.114 -0.3829 -0.5322  0.0204
16403SOL    HW151216   8.566   1.129   4.181  0.0484 -1.1107 -0.6528
16403SOL    HW251217   8.431   1.104   4.116 -1.0101  0.2656  0.9504
16404SOL     OW51218  10.830   5.951   3.253  0.0001  0.0177 -0.4534
16404SOL    HW151219  10.823   5.954   3.158  0.1702  1.6096 -0.4362
16404SOL    HW251220  10.823   5.858   3.275  1.0121 -0.4803 -2.0935
16405SOL     OW51221   0.319   8.373   4.591  0.1208 -0.0853  0.2977
16405SOL    HW151222   0.336   8.280   4.578  0.8657 -0.1162  1.3821
16405SOL    HW251223   0.230   8.377   4.627 -0.4218 -0.2661 -0.9780
16406SOL     OW51224   1.217  10.128   1.928 -0.1755  0.0135 -0.0544
16406SOL    HW151225   1.156  10.063   1.962 -1.5857  1.4393  0.2930
16406SOL    HW251226   1.300  10.108   1.970 -1.0826 -0.3009  1.6951
16407SOL     OW51227   1.369  10.292  11.022  0.0725  0.0488  0.0541
16407SOL    HW151228   1.426  10.357  11.063  0.0967 -0.6993  1.2564
16407SOL    HW251229   1.375  10.216  11.079 -1.1757 -0.4705 -0.4738
16408SOL     OW51230  10.087   5.605   2.967 -0.1680 -0.7415  0.5746
16408SOL    HW151231  10.030   5.537   2.932 -0.0086 -0.4528 -0.2784
16408SOL    HW251232  10.149   5.558   3.023  0.4802 -1.4243 -0.6779
16409SOL     OW51233   4.040   2.952   9.329  0.8981  0.0690 -0.0501
16409SOL    HW151234   4.058   2.938   9.422 -3.2960  1.7636  1.2854
16409SOL    HW251235   4.000   2.871   9.299 -0.1630  0.3903  0.4443
16410SOL     OW51236   3.911   8.018   1.297 -0.4236 -0.0045  0.1519
16410SOL    HW151237   3.855   8.090   1.269 -0.7107  1.3347  3.7073
16410SOL    HW251238   3.851   7.947   1.318 -0.4311  0.0070  0.1691
16411SOL     OW51239   4.713   1.030   5.317 -0.2499  0.0126  0.0726
16411SOL    HW151240   4.796   1.026   5.270  0.7617 -0.9777  1.8172
16411SOL    HW251241   4.686   1.121   5.312  2.2014  0.9154  1.4729
16412SOL     OW51242   9.922   3.865   7.109 -1.0949 -0.0215  0.7913
16412SOL    HW151243   9.934   3.851   7.203 -1.8179 -0.0313  0.8839
16412SOL    HW251244   9.855   3.802   7.083  0.2638 -1.1704 -0.0671
16413SOL     OW51245   7.457   2.982   3.841  0.3274  0.0436  0.3042
16413SOL    HW151246   7.392   3.051   3.842 -1.4713 -1.5613  0.1468
16413SOL    HW251247   7.443   2.937   3.757  1.3417 -0.6058  0.4599
16414SOL     OW51248   8.258   6.468   7.037 -0.2535 -0.6831  0.3339
16414SOL    HW151249   8.317   6.482   7.111  0.0590  0.5915 -0.1210
16414SOL    HW251250   8.311   6.491   6.960 -1.4690  1.0598 -0.0434
16415SOL     OW51251   8.097   9.288   6.422 -0.3714 -0.1836  0.0470
16415SOL    HW151252   8.189   9.263   6.422  0.2148  1.7525 -0.8879
16415SOL    HW251253   8.066   9.263   6.509  1.6938  1.1914  1.2861
16416SOL     OW51254   7.835   7.033   0.632  0.2759 -0.2737 -0.3433
16416SOL    HW151255   7.753   7.072   0.602  1.0479  1.8773  0.1473
16416SOL    HW251256   7.902   7.070   0.574  1.0157 -1.3295 -0.1952
16417SOL     OW51257   3.196   9.473   2.418 -0.1965  0.7060 -0.1391
16417SOL    HW151258   3.169   9.385   2.445  0.2558  1.0791  1.6789
16417SOL    HW251259   3.215   9.518   2.500  1.2857  1.9551 -1.1077
16418SOL     OW51260   6.369   4.802   2.545  0.0292  0.8450 -0.6565
16418SOL    HW151261   6.463   4.787   2.532  0.3150  2.0575 -0.1793
16418SOL    HW251262   6.346   4.868   2.481 -1.0397 -1.0221 -2.2804
16419SOL     OW51263   0.066   0.618   8.844  0.0181  0.1647  0.0308
16419SOL    HW151264  -0.027   0.639   8.848 -0.5157 -1.7182 -1.0568
16419SOL    HW251265   0.111   0.702   8.851 -1.8305  1.3924 -1.8603
16420SOL     OW51266   9.332   0.381  10.233 -0.5245 -0.1815 -0.3829
16420SOL    HW151267   9.319   0.287  10.246 -1.6424  0.0252  0.0963
16420SOL    HW251268   9.370   0.411  10.315 -0.9919 -0.0744 -0.2020
16421SOL     OW51269   9.264   1.506   2.129  0.6385 -0.1573  0.0830
16421SOL    HW151270   9.356   1.519   2.105  0.5622  0.6457  0.2154
16421SOL    HW251271   9.236   1.590   2.166 -0.0912 -0.4600  0.2377
16422SOL     OW51272   1.197   8.473   1.318  0.0608  0.0902  0.4924
16422SOL    HW151273   1.241   8.453   1.401  1.1640 -3.5425 -0.8002
16422SOL    HW251274   1.269   8.485   1.256 -0.7686  0.4659 -0.4053
16423SOL     OW51275   6.562   8.416  10.952 -0.1286  0.1503 -0.5929
16423SOL    HW151276   6.623   8.357  10.907 -0.1245  0.2123 -0.6695
16423SOL    HW251277   6.540   8.482  10.886  0.2832  0.5419 -0.3415
16424SOL     OW51278   2.788   9.014   0.876  0.6450  0.0444  0.3107
16424SOL    HW151279   2.807   9.012   0.782 -1.1968  0.2839 -0.1159
16424SOL    HW251280   2.693   9.003   0.881  0.8085 -0.8470  2.2080
16425SOL     OW51281  10.818   2.601   6.035  0.0038  0.1431  0.5601
16425SOL    HW151282  10.743   2.661   6.034 -0.3392 -0.2848  0.7528
16425SOL    HW251283  10.894   2.658   6.051 -0.0944  0.7755 -0.9815
16426SOL     OW51284   3.188   4.616   0.743  0.5262  0.4116 -0.7122
16426SOL    HW151285   3.211   4.598   0.651 -2.4098  1.2121 -1.7072
16426SOL    HW251286   3.203   4.710   0.753 -1.3775  0.7982 -1.1560
16427SOL     OW51287   0.306  10.173   6.699 -0.4866 -0.3712 -0.2524
16427SOL    HW151288   0.242  10.239   6.671  0.3237 -0.1556 -1.6820
16427SOL    HW251289   0.367  10.167   6.626  0.3321 -1.5994  0.5090
16428SOL     OW51290   0.718  10.104   2.399 -0.3371  0.2429  0.4979
16428SOL    HW151291   0.710  10.010   2.384  0.0900  0.0386  1.4378
16428SOL    HW251292   0.633  10.129   2.435  0.0022 -0.0810  1.5853
16429SOL     OW51293   8.766   3.764   0.069 -0.5073  0.7415  0.0297
16429SOL    HW151294   8.809   3.702   0.127  0.0982  0.8447 -0.2976
16429SOL    HW251295   8.773   3.725  -0.018 -1.7644  0.3901  0.0633
16430SOL     OW51296   9.263   0.093   2.748 -0.3847 -0.1553 -0.2554
16430SOL    HW151297   9.194   0.035   2.717 -0.7353 -0.0052  0.2350
16430SOL    HW251298   9.244   0.106   2.840 -1.0390  1.7176 -0.6101
16431SOL     OW51299   9.252   9.732   0.273 -0.0873  0.0985  0.2958
16431SOL    HW151300   9.316   9.711   0.205  0.7244  1.7950  0.4721
16431SOL    HW251301   9.280   9.682   0.350  0.9084  0.6322  0.2924
16432SOL     OW51302   4.595   6.618   1.806  0.4624  0.4760  0.3556
16432SOL    HW151303   4.516   6.620   1.861 -0.1912  1.7730 -0.5807
16432SOL    HW251304   4.612   6.524   1.793 -1.5146  0.1370 -0.2088
16433SOL     OW51305   2.074  10.239   0.469  0.2667 -0.0363 -0.2707
16433SOL    HW151306   1.991  10.219   0.512 -0.4544 -0.6991 -1.8885
16433SOL    HW251307   2.106  10.154   0.438  3.0152 -0.2665  2.7259
16434SOL     OW51308   0.546   8.983   7.986 -0.3514 -0.1092  0.0110
16434SOL    HW151309   0.612   8.970   7.917  1.6766  1.7065  1.4653
16434SOL    HW251310   0.564   8.914   8.049  0.2643  0.4183  0.4347
16435SOL     OW51311   8.458   3.619   2.269 -0.2516 -0.0081 -0.0581
16435SOL    HW151312   8.387   3.642   2.208  0.3388  0.1421 -0.6973
16435SOL    HW251313   8.536   3.613   2.214  0.0848 -1.0064  0.5077
16436SOL     OW51314   4.893   0.324   3.216  0.0412  0.4602 -0.6677
16436SOL    HW151315   4.956   0.284   3.277  1.7016  4.0445  0.2036
16436SOL    HW251316   4.928   0.303   3.129  1.4356  0.8667 -0.2258
16437SOL     OW51317   2.646   9.438   4.138 -0.1496 -0.1395  0.1610
16437SOL    HW151318   2.618   9.412   4.225  0.6540 -1.1853  0.1215
16437SOL    HW251319   2.567   9.432   4.084 -0.6533  0.5412  0.8111
16438SOL     OW51320   0.566   7.803   0.196 -0.1276 -0.1066 -0.2383
16438SOL    HW151321   0.561   7.899   0.202  1.3588  0.0255 -0.6256
16438SOL    HW251322   0.496   7.779   0.136 -0.5289  0.7326 -0.1299
16439SOL     OW51323   1.779   5.814   0.130 -0.1711 -0.1761  0.1956
16439SOL    HW151324   1.762   5.816   0.224  0.4519  0.1293  0.3128
16439SOL    HW251325   1.706   5.766   0.093  0.5901 -2.1030  1.0535
16440SOL     OW51326   9.378  10.285   6.703  0.0102 -0.4216 -0.0716
16440SOL    HW151327   9.320  10.358   6.683  0.3049  0.0446  0.7360
16440SOL    HW251328   9.322  10.223   6.750  0.3845  0.5037  1.6716
16441SOL     OW51329   2.796   1.009   3.485 -0.0224  0.2070 -0.2304
16441SOL    HW151330   2.886   0.978   3.495 -0.3920 -0.8444 -0.0308
16441SOL    HW251331   2.742   0.929   3.488 -0.9736  0.8274 -0.2045
16442SOL     OW51332   5.652   7.417  11.027 -0.6189  0.0812  0.4882
16442SOL    HW151333   5.728   7.359  11.035 -0.6377 -0.4872 -2.4041
16442SOL    HW251334   5.662   7.479  11.100  2.9278  0.3782 -0.0584
16443SOL     OW51335   1.537   5.676   7.293 -0.3643  0.5121  0.2989
16443SOL    HW151336   1.562   5.637   7.377 -0.2378 -0.7748 -0.3239
16443SOL    HW251337   1.616   5.672   7.240 -0.4566  1.2900  0.0876
16444SOL     OW51338   6.521  10.776   7.973  0.1493 -1.0354  0.4563
16444SOL    HW151339   6.435  10.743   7.947 -0.3165  1.2621 -1.2913
16444SOL    HW251340   6.519  10.869   7.949  2.7178 -0.6414  1.4437
16445SOL     OW51341   9.226   1.675   6.068 -0.0562  0.2716 -0.6082
16445SOL    HW151342   9.138   1.705   6.091 -0.1615  1.3354 -2.2228
16445SOL    HW251343   9.263   1.644   6.150 -0.5394  3.4115  0.9533
16446SOL     OW51344   8.147   3.522   2.158  0.1379  0.1342  0.2606
16446SOL    HW151345   8.148   3.488   2.248  0.4516  0.1961  0.2830
16446SOL    HW251346   8.222   3.480   2.116  1.1719  1.5632  0.5860
16447SOL     OW51347   6.551   5.582   0.419  0.2442  0.1444  0.1850
16447SOL    HW151348   6.516   5.644   0.482  0.4798 -0.0491  0.5100
16447SOL    HW251349   6.540   5.496   0.461 -0.5690 -0.0999 -0.4704
16448SOL     OW51350   7.204   8.312   0.742  0.3177 -0.0401 -0.7582
16448SOL    HW151351   7.165   8.328   0.656 -0.4602 -0.6395 -0.5276
16448SOL    HW251352   7.157   8.236   0.776 -0.4823  1.1377  0.8789
16449SOL     OW51353   6.248  10.179   1.699 -0.2461  0.2111 -0.2012
16449SOL    HW151354   6.342  10.195   1.712 -0.3010  0.4722 -0.1211
16449SOL    HW251355   6.241  10.084   1.690  0.1550  0.2570 -1.2211
16450SOL     OW51356   6.264   3.873   0.042  0.2492 -0.7289 -0.5253
16450SOL    HW151357   6.296   3.904   0.126 -1.7129  0.2614 -0.1003
16450SOL    HW251358   6.169   3.874   0.050  0.0180 -0.9908 -2.6330
16451SOL     OW51359   4.691   8.363   4.989 -0.0500 -0.0311 -0.3068
16451SOL    HW151360   4.736   8.434   4.944  0.1994  0.3959  0.5998
16451SOL    HW251361   4.632   8.406   5.050 -0.5437 -0.6006 -0.3728
16452SOL     OW51362   6.998   6.149   2.284 -0.5325  0.0511  0.0081
16452SOL    HW151363   7.051   6.173   2.208 -0.0347  3.1175  1.2046
16452SOL    HW251364   7.001   6.225   2.341 -1.5368 -1.8277  2.7889
16453SOL     OW51365   1.827   5.553   6.508  0.3974 -0.0335  0.2077
16453SOL    HW151366   1.759   5.609   6.471  0.5142 -0.3079 -0.4356
16453SOL    HW251367   1.864   5.605   6.579  0.1450  0.4957 -0.0406
16454SOL     OW51368   4.005   1.461   9.048 -0.4486  0.2132 -0.3221
16454SOL    HW151369   4.000   1.550   9.014 -0.1300 -0.2239 -1.5918
16454SOL    HW251370   4.070   1.465   9.118  2.7299  0.2871 -2.9972
16455SOL     OW51371   9.806   7.392   2.245  0.3430 -0.0878  0.2379
16455SOL    HW151372   9.853   7.475   2.238  0.2449  0.0865  1.5626
16455SOL    HW251373   9.787   7.382   2.338 -0.8188 -0.9523 -0.0649
16456SOL     OW51374   9.180   3.269   9.368 -0.0488 -0.2226  0.6704
16456SOL    HW151375   9.104   3.303   9.323 -0.0526 -0.2957  0.6204
16456SOL    HW251376   9.201   3.336   9.434  0.8556  0.6022 -0.4165
16457SOL     OW51377   7.093   2.139   7.055  0.2366 -0.0182 -0.5333
16457SOL    HW151378   7.029   2.205   7.080  1.2233  0.7661 -0.0350
16457SOL    HW251379   7.040   2.061   7.035 -0.7779  0.1913  1.1755
16458SOL     OW51380  10.679  10.738   6.187 -0.2193 -0.4185  0.3696
16458SOL    HW151381  10.759  10.726   6.135 -1.1437  1.4050 -1.6517
16458SOL    HW251382  10.643  10.650   6.196  0.9833 -1.0239 -0.4507
16459SOL     OW51383   9.227   4.959   3.127  0.3143 -0.5798  0.2316
16459SOL    HW151384   9.132   4.948   3.120  0.4856 -1.9894 -0.2178
16459SOL    HW251385   9.256   4.983   3.040  0.2457  1.0952  0.6483
16460SOL     OW51386   1.441   3.926   3.438  0.1165 -0.4164  0.0701
16460SOL    HW151387   1.508   3.995   3.433 -0.9951  0.6644 -0.5890
16460SOL    HW251388   1.473   3.866   3.505  2.0604 -0.2897 -0.6662
16461SOL     OW51389   1.431   2.335  10.490  0.0241 -0.2455  0.0704
16461SOL    HW151390   1.371   2.285  10.546  0.8356 -0.0678  1.1380
16461SOL    HW251391   1.508   2.350  10.545 -0.3104  2.4851 -0.0312
16462SOL     OW51392   3.159   4.031   2.027  0.0949 -0.3533 -0.1436
16462SOL    HW151393   3.179   4.080   2.107 -0.5741 -1.1789  0.5475
16462SOL    HW251394   3.205   3.948   2.039 -0.9677 -0.9458 -0.0620
16463SOL     OW51395   3.635   5.295   5.331 -0.5538  0.2103  0.0036
16463SOL    HW151396   3.564   5.251   5.378 -0.4938  0.3478  0.2269
16463SOL    HW251397   3.710   5.290   5.391 -0.1874 -0.5125 -0.5026
16464SOL     OW51398   5.801   9.614   8.597  0.5472 -0.6243 -0.2419
16464SOL    HW151399   5.805   9.602   8.692 -1.3414  0.5419  0.0218
16464SOL    HW251400   5.767   9.531   8.564  4.6834 -2.5118 -0.3994
16465SOL     OW51401   4.796   2.268   5.413  0.1055  0.2307 -0.0974
16465SOL    HW151402   4.888   2.288   5.396 -0.1667  1.0680 -0.6716
16465SOL    HW251403   4.775   2.318   5.492 -0.1757  1.0738 -0.6840
16466SOL     OW51404   8.709   0.293   8.453  0.0897 -0.0543  0.2024
16466SOL    HW151405   8.668   0.250   8.528  2.0719  0.2305  1.5223
16466SOL    HW251406   8.649   0.364   8.430 -1.3312 -1.1298  0.4581
16467SOL     OW51407   0.770  10.786   3.105 -0.4721  0.2679 -0.0089
16467SOL    HW151408   0.844  10.726   3.096 -0.5003  0.3319 -0.7097
16467SOL    HW251409   0.809  10.873   3.111 -0.3952  0.1546  1.6584
16468SOL     OW51410   8.650   4.000   0.150  0.4958  0.1441 -0.1548
16468SOL    HW151411   8.599   3.976   0.227  0.2471 -0.9063 -0.6380
16468SOL    HW251412   8.710   3.927   0.136  1.7501  1.0954  0.0493
16469SOL     OW51413   0.920   5.407   9.333 -0.4195  0.1248 -0.3979
16469SOL    HW151414   0.960   5.487   9.301 -2.4439  0.1833 -3.0713
16469SOL    HW251415   0.870   5.434   9.410  0.1494  1.0912 -0.3563
16470SOL     OW51416   1.799   1.123   4.600  0.5974  0.2583  0.1341
16470SOL    HW151417   1.709   1.151   4.618  0.9997  1.7821 -0.1485
16470SOL    HW251418   1.853   1.199   4.621  1.7596 -0.3917 -0.4069
16471SOL     OW51419   1.113   0.128   0.077 -0.3790  0.0723 -0.1380
16471SOL    HW151420   1.197   0.144   0.121  0.2203  1.0437 -1.5791
16471SOL    HW251421   1.115   0.184  -0.000 -2.5700  0.4799  0.0352
16472SOL     OW51422   9.428   0.360   4.206 -0.4665 -0.4579 -0.3337
16472SOL    HW151423   9.385   0.423   4.147 -0.6059 -1.4545 -1.3347
16472SOL    HW251424   9.390   0.275   4.182  0.0152 -0.9868  0.7127
16473SOL     OW51425   3.554   1.419   8.044  0.0758 -0.5470 -0.7768
16473SOL    HW151426   3.524   1.418   8.135  1.6864  0.1837 -0.1934
16473SOL    HW251427   3.649   1.409   8.050  0.1775 -0.8498 -2.4124
16474SOL     OW51428   6.858   3.427   5.822  0.0176 -0.2837  0.3899
16474SOL    HW151429   6.864   3.522   5.812 -1.9989  0.8192  5.8530
16474SOL    HW251430   6.771   3.405   5.790  0.1204 -0.1254 -0.0074
16475SOL     OW51431   8.781   3.102   5.984  0.1882  0.0882  0.4470
16475SOL    HW151432   8.775   3.192   6.017 -1.1623  0.9322 -1.8577
16475SOL    HW251433   8.862   3.102   5.932 -0.9300  0.6936 -1.3733
16476SOL     OW51434   7.693   5.750   0.282  0.0245 -0.0957  0.0566
16476SOL    HW151435   7.784   5.769   0.306  0.2795 -0.7054 -0.4248
16476SOL    HW251436   7.698   5.672   0.227 -0.7640  0.0369 -0.2125
16477SOL     OW51437  10.153   2.166  11.016 -0.3384  0.5537 -0.5886
16477SOL    HW151438  10.183   2.218  10.942  3.8376 -0.7451 -0.0950
16477SOL    HW251439  10.160   2.075  10.986  3.0250 -0.1216  1.5838
16478SOL     OW51440   1.947   5.144   9.210 -0.3152  0.0349  0.2375
16478SOL    HW151441   2.013   5.186   9.156 -0.9308 -0.6602 -1.1037
16478SOL    HW251442   1.868   5.144   9.156 -1.2488  0.2516  1.5458
16479SOL     OW51443  10.524   2.388   3.181 -0.3835  0.3578 -0.7155
16479SOL    HW151444  10.437   2.394   3.221  0.0294 -1.0124  0.4744
16479SOL    HW251445  10.584   2.420   3.249 -0.0741  4.4596 -2.5926
16480SOL     OW51446   8.902   3.679   7.771 -0.3138 -0.4996  0.3003
16480SOL    HW151447   8.878   3.647   7.858 -1.4500  0.3187  0.3149
16480SOL    HW251448   8.998   3.683   7.773 -0.3388  0.2213  1.7980
16481SOL     OW51449   0.175   0.849   0.379 -0.1387  0.1399 -0.0005
16481SOL    HW151450   0.173   0.887   0.468 -0.9248  3.4681 -1.2825
16481SOL    HW251451   0.095   0.798   0.373 -0.2527  0.1533  1.0706
16482SOL     OW51452   3.220   6.901   0.595 -0.2874 -0.5944 -0.0111
16482SOL    HW151453   3.208   6.983   0.643 -2.5116  0.1020 -1.5890
16482SOL    HW251454   3.263   6.842   0.658 -2.2440  0.5163  2.5373
16483SOL     OW51455   8.115   4.440   6.285  0.6508 -0.9275  0.3547
16483SOL    HW151456   8.127   4.413   6.194  2.0057  0.4687  0.0585
16483SOL    HW251457   8.121   4.359   6.336  1.6491 -1.5293 -0.6751
16484SOL     OW51458   1.260   2.670   6.975 -0.3843 -0.4993  0.4444
16484SOL    HW151459   1.338   2.615   6.976  1.1112  1.4080 -1.2257
16484SOL    HW251460   1.236   2.680   7.068  3.0605  1.0058  1.3478
16485SOL     OW51461   5.324  10.902   7.539  0.0173 -0.1948  0.5778
16485SOL    HW151462   5.278  10.986   7.531  1.7968  0.7740 -0.3599
16485SOL    HW251463   5.353  10.898   7.630  1.5199  1.1628  0.2023
16486SOL     OW51464   3.191   7.735   4.426 -0.2063 -0.3032  0.1525
16486SOL    HW151465   3.245   7.656   4.436  1.1373  0.5005 -0.4454
16486SOL    HW251466   3.176   7.741   4.331  0.7334  0.7891  0.0514
16487SOL     OW51467   0.372   4.736   2.965  0.1996 -0.5834  0.2073
16487SOL    HW151468   0.353   4.715   3.057  1.9329  0.1480  0.7961
16487SOL    HW251469   0.451   4.686   2.946  0.7138  0.4267 -0.3879
16488SOL     OW51470   2.243   7.455   1.492 -0.6291  0.0742  0.4403
16488SOL    HW151471   2.306   7.484   1.426 -1.3183  1.4220  0.3373
16488SOL    HW251472   2.186   7.395   1.444 -0.1597 -0.2042  0.2231
16489SOL     OW51473   8.925   6.561   8.196  0.4113  0.7063 -0.6525
16489SOL    HW151474   9.008   6.521   8.167 -0.0920 -0.4241 -0.6021
16489SOL    HW251475   8.915   6.532   8.286 -1.1048 -1.0592 -1.3112
16490SOL     OW51476   9.961   7.468   8.090 -0.0072 -0.4741 -0.0315
16490SOL    HW151477   9.964   7.481   7.995  0.0883  0.9860  0.1598
16490SOL    HW251478   9.872   7.436   8.106  0.1790 -1.3543 -0.6738
16491SOL     OW51479   1.175   7.229   4.146  0.4000  0.1076  0.5714
16491SOL    HW151480   1.091   7.274   4.154 -1.0184 -1.9768 -1.2943
16491SOL    HW251481   1.226   7.282   4.085  0.3032  1.1334  1.3541
16492SOL     OW51482   7.275   4.219   6.934 -0.0935  0.3254  0.8948
16492SOL    HW151483   7.260   4.251   6.845  0.7884  1.0700  0.9984
16492SOL    HW251484   7.367   4.238   6.951 -0.4227  0.8251  2.2340
16493SOL     OW51485   2.840   5.689   4.897  0.3586 -0.6364 -0.0290
16493SOL    HW151486   2.857   5.627   4.968  1.6014 -0.5670 -0.2439
16493SOL    HW251487   2.836   5.774   4.940 -0.6478 -0.7713  0.1732
16494SOL     OW51488   1.590   1.506  10.862  0.4571  0.1672  0.0257
16494SOL    HW151489   1.580   1.512  10.767  0.8542  1.6264  0.0462
16494SOL    HW251490   1.616   1.415  10.878 -1.6453 -0.6700 -1.0295
16495SOL     OW51491   8.400  10.191   7.739  0.2822  0.5451  0.2804
16495SOL    HW151492   8.473  10.208   7.799  0.9666  1.2486 -0.7260
16495SOL    HW251493   8.440  10.188   7.653 -0.7387 -0.1462 -0.1801
16496SOL     OW51494  10.596   9.817   2.361 -0.2304 -0.0279 -0.0295
16496SOL    HW151495  10.690   9.813   2.345  0.0250  1.1659  0.9357
16496SOL    HW251496  10.580   9.749   2.426 -0.0435 -0.2692 -0.2349
16497SOL     OW51497   3.219   5.428  11.011  0.1928  0.1443  0.6313
16497SOL    HW151498   3.171   5.458  11.088 -0.4243 -0.4323  0.4740
16497SOL    HW251499   3.282   5.364  11.045 -1.4023 -1.6098  0.4468
16498SOL     OW51500   5.907   4.552   7.415  0.6280 -0.3155 -0.1093
16498SOL    HW151501   5.865   4.500   7.347  0.0680  0.0657 -0.0591
16498SOL    HW251502   5.974   4.602   7.369  0.8264 -0.6993 -0.2400
16499SOL     OW51503   1.513   4.845   9.175 -0.2636 -0.3077  0.1917
16499SOL    HW151504   1.549   4.901   9.106 -0.9336  0.0517  0.1232
16499SOL    HW251505   1.428   4.884   9.196 -0.3226 -0.7524  0.8134
16500SOL     OW51506   4.495   1.293   2.999  0.2017  0.0244 -0.3385
16500SOL    HW151507   4.465   1.323   3.085  1.1285  0.5780 -0.1967
16500SOL    HW251508   4.555   1.221   3.018  0.5131  0.2365 -0.5121
16501SOL     OW51509   4.891   2.028   8.994  0.3641 -0.3132  0.2314
16501SOL    HW151510   4.801   2.057   9.011  0.4978 -0.1127  0.6102
16501SOL    HW251511   4.910   2.059   8.906  0.0139 -0.4695  0.0994
16502SOL     OW51512   7.718  10.178   7.192 -0.8285 -0.4804  0.0261
16502SOL    HW151513   7.710  10.154   7.285  0.3949  0.9032  0.5297
16502SOL    HW251514   7.632  10.214   7.169 -0.7726  0.3041  0.9865
16503SOL     OW51515   9.757   7.197   5.828 -0.3418 -0.1502  0.1331
16503SOL    HW151516   9.703   7.258   5.878 -1.4704  1.2158 -2.5558
16503SOL    HW251517   9.695   7.132   5.794  0.5672 -1.7211  1.3503
16504SOL     OW51518   0.901  10.357   8.184  0.2682  0.3574  0.3266
16504SOL    HW151519   0.826  10.376   8.127  0.2836 -0.4836  0.0068
16504SOL    HW251520   0.883  10.405   8.265 -0.4135  0.4918  0.1025
16505SOL     OW51521   8.395   1.273   0.185 -0.0863 -0.0130 -0.9236
16505SOL    HW151522   8.387   1.192   0.236  0.7208  0.9049  0.7437
16505SOL    HW251523   8.327   1.330   0.221  0.1126  0.4524 -1.2815
16506SOL     OW51524   7.591   1.342   0.808  0.0174 -0.3181 -0.1619
16506SOL    HW151525   7.682   1.364   0.787  0.3598 -1.7716 -0.3348
16506SOL    HW251526   7.563   1.410   0.868  1.3668 -0.0703  0.2203
16507SOL     OW51527   0.349   8.749   8.297 -0.5472 -0.1609  0.1434
16507SOL    HW151528   0.332   8.663   8.257 -0.4234 -0.0595 -0.1287
16507SOL    HW251529   0.361   8.730   8.390  3.5285 -0.9994 -0.3853
16508SOL     OW51530   9.318   8.927   9.776 -0.0009 -0.0602 -0.1836
16508SOL    HW151531   9.282   8.992   9.715  0.3550 -0.6848 -1.0737
16508SOL    HW251532   9.374   8.872   9.722  2.3276  0.8768  1.1375
16509SOL     OW51533   2.736   5.308   3.620 -0.2308 -0.6443 -0.1875
16509SOL    HW151534   2.793   5.342   3.689  1.2902 -0.3625 -1.5163
16509SOL    HW251535   2.695   5.386   3.583 -0.4477 -0.7257 -0.1224
16510SOL     OW51536   4.292   9.136   6.686 -0.4226 -0.0228 -0.1990
16510SOL    HW151537   4.242   9.201   6.638 -0.3294 -0.6831 -1.2123
16510SOL    HW251538   4.260   9.143   6.776  1.9314  3.7932  0.5800
16511SOL     OW51539   0.612   2.959   2.776 -0.1137 -0.1255 -0.4869
16511SOL    HW151540   0.544   2.999   2.722  0.1786  0.0544 -0.7167
16511SOL    HW251541   0.563   2.922   2.850 -0.3565  0.9706 -0.0712
16512SOL     OW51542   5.395   4.269   5.435 -0.8382 -0.0978  0.0881
16512SOL    HW151543   5.343   4.338   5.392 -2.2787  0.0073  1.8922
16512SOL    HW251544   5.330   4.207   5.468  0.2965 -0.8168  1.0259
16513SOL     OW51545  10.843  10.320   1.035 -0.3399  0.2287  0.1694
16513SOL    HW151546  10.785  10.301   1.109 -1.0296 -0.1686 -0.4633
16513SOL    HW251547  10.796  10.384   0.982 -1.6829 -2.3474 -2.0124
16514SOL     OW51548   1.634   9.759   5.818 -0.1217 -0.2630 -0.2310
16514SOL    HW151549   1.614   9.846   5.783  1.7388  0.3501  0.1320
16514SOL    HW251550   1.643   9.773   5.912 -1.1468 -1.1335  0.0139
16515SOL     OW51551  10.791   5.743   8.705  0.3334  0.2506 -0.4062
16515SOL    HW151552  10.856   5.681   8.739 -1.6697 -2.5234 -1.2783
16515SOL    HW251553  10.765   5.794   8.782  1.5409 -0.4640  0.5237
16516SOL     OW51554   6.107   5.523   4.874  0.0654 -0.2427 -0.4063
16516SOL    HW151555   6.099   5.440   4.826 -0.4967 -0.5670  0.2179
16516SOL    HW251556   6.182   5.510   4.932  0.2750 -0.1390 -0.6580
16517SOL     OW51557   2.785   1.419   8.437 -0.2682  0.4438  0.5215
16517SOL    HW151558   2.856   1.381   8.487  1.9490 -0.2786 -2.8137
16517SOL    HW251559   2.747   1.346   8.389 -2.1983  1.1026  0.9565
16518SOL     OW51560   8.999   0.837   2.995 -0.2191 -0.8652 -0.3727
16518SOL    HW151561   8.976   0.796   2.912  2.4923 -1.4271 -0.9449
16518SOL    HW251562   9.042   0.768   3.045 -2.6988 -0.8436  2.0182
16519SOL     OW51563   7.248   8.703   2.968  0.4375  0.2031  0.1865
16519SOL    HW151564   7.290   8.621   2.943 -0.2926  0.0489 -0.5937
16519SOL    HW251565   7.166   8.704   2.918  0.3656  1.3337  0.2964
16520SOL     OW51566   4.441   4.226   4.788 -0.1852 -0.0258 -0.0566
16520SOL    HW151567   4.467   4.259   4.874  0.7853 -2.6599  0.7557
16520SOL    HW251568   4.523   4.214   4.741 -0.6393  0.3154 -0.9671
16521SOL     OW51569   9.778   9.719   6.266 -0.0986 -0.1754  0.3176
16521SOL    HW151570   9.685   9.726   6.286 -0.2539  0.6984 -0.6714
16521SOL    HW251571   9.819   9.789   6.318  0.0979 -0.9209  1.1984
16522SOL     OW51572   7.515   4.550   9.081 -0.5720  0.1759  0.4752
16522SOL    HW151573   7.534   4.626   9.027 -2.0068 -1.2145 -2.2261
16522SOL    HW251574   7.597   4.502   9.085 -0.5858 -0.0455 -1.1745
16523SOL     OW51575   6.060   0.775   1.454  0.0254 -0.1844 -0.1838
16523SOL    HW151576   5.985   0.811   1.406 -0.9527 -0.6609  0.9401
16523SOL    HW251577   6.045   0.681   1.455  1.2872 -0.4221 -0.9748
16524SOL     OW51578   7.525   8.885   5.425  0.4005 -0.2274 -0.2767
16524SOL    HW151579   7.433   8.866   5.409  0.0005  1.1718  0.1968
16524SOL    HW251580   7.526   8.920   5.515  0.7697  3.4365 -1.5548
16525SOL     OW51581   2.802   8.682  10.334  0.3714  0.1171  0.0192
16525SOL    HW151582   2.788   8.718  10.246  1.5192 -0.3843 -0.3797
16525SOL    HW251583   2.739   8.611  10.340  1.7119 -1.2453 -1.2449
16526SOL     OW51584  10.632   0.279   0.225  0.3862  0.2230  0.3263
16526SOL    HW151585  10.576   0.204   0.246 -0.4587  1.4981  3.2034
16526SOL    HW251586  10.571   0.352   0.216  1.3664  1.0491  0.2485
16527SOL     OW51587   2.189   4.240   1.129 -0.1617 -0.6460 -0.5168
16527SOL    HW151588   2.224   4.310   1.184 -0.8489 -0.1209 -0.7360
16527SOL    HW251589   2.183   4.278   1.042 -2.5986 -0.2046 -0.2380
16528SOL     OW51590   9.034   1.159   5.313 -0.1259  0.2786  0.1003
16528SOL    HW151591   9.070   1.218   5.246 -0.1881  0.4505  0.2192
16528SOL    HW251592   8.946   1.138   5.282 -1.7306  3.4828  2.0395
16529SOL     OW51593   8.082   6.071   0.878  0.0626  0.4035 -0.4526
16529SOL    HW151594   7.993   6.105   0.878 -0.9154 -2.0286 -0.7368
16529SOL    HW251595   8.106   6.069   0.785 -1.4901 -3.3902 -0.9440
16530SOL     OW51596   5.951  10.275   7.388  0.2884 -0.4977 -0.4088
16530SOL    HW151597   5.870  10.227   7.399  0.4230 -0.5421  0.4553
16530SOL    HW251598   5.952  10.338   7.461  0.5799  0.1461 -0.9508
16531SOL     OW51599   7.476   5.208   8.654 -0.1375  0.0425  0.1782
16531SOL    HW151600   7.569   5.213   8.674  0.0821 -3.0153  0.3156
16531SOL    HW251601   7.471   5.157   8.574 -1.6917  1.1035 -0.4607
16532SOL     OW51602   0.209   3.442   0.762  0.6384 -0.0571 -0.0044
16532SOL    HW151603   0.173   3.475   0.844  0.7559 -1.1520  0.4979
16532SOL    HW251604   0.297   3.478   0.757  1.0537 -0.9074  0.9291
16533SOL     OW51605   3.048   7.472   8.882 -0.2167  0.6779 -0.0688
16533SOL    HW151606   3.077   7.455   8.792  0.5195  1.1472  0.0792
16533SOL    HW251607   3.045   7.567   8.889  0.4406  0.6559  0.6280
16534SOL     OW51608   4.404   1.972   0.232  0.6948  0.4417 -0.3497
16534SOL    HW151609   4.363   2.057   0.246  0.1502  0.0353  0.5815
16534SOL    HW251610   4.415   1.935   0.320  0.9605 -0.4327 -0.7371
16535SOL     OW51611   8.209   7.930   5.136 -0.0088  0.1894  0.0422
16535SOL    HW151612   8.299   7.898   5.141 -0.9160 -2.4828  0.9517
16535SOL    HW251613   8.215   8.021   5.163  2.6231  0.6024 -1.5324
16536SOL     OW51614   1.833   5.785   8.320  0.1084 -0.4388 -0.5688
16536SOL    HW151615   1.897   5.794   8.390 -1.8646  1.9964  1.1147
16536SOL    HW251616   1.882   5.801   8.239  1.9649 -0.7503  0.4563
16537SOL     OW51617   1.998   2.918   6.387 -0.6994  0.2213  0.1999
16537SOL    HW151618   1.918   2.895   6.340 -1.2682  1.2551  0.6327
16537SOL    HW251619   1.975   2.997   6.436  0.4897  0.3381  0.5931
16538SOL     OW51620   8.584   1.591   0.849  0.1005 -0.3789  0.4454
16538SOL    HW151621   8.628   1.599   0.934 -0.3513 -1.2331  0.7674
16538SOL    HW251622   8.645   1.540   0.796 -0.4974 -1.6360  0.9181
16539SOL     OW51623   9.941   1.896   0.945  0.1812  1.0258 -0.5889
16539SOL    HW151624   9.968   1.950   1.019 -0.7873  0.2739  0.3483
16539SOL    HW251625  10.020   1.848   0.920  0.5387  1.3448 -0.0889
16540SOL     OW51626   0.944   9.667   4.293  0.2051  0.0028 -0.0637
16540SOL    HW151627   0.855   9.670   4.257 -0.1033 -0.8816  0.5947
16540SOL    HW251628   0.952   9.748   4.344 -0.0471  0.3088 -0.5002
16541SOL     OW51629   9.897   9.259   7.986 -0.3268 -0.1529  0.0356
16541SOL    HW151630   9.843   9.196   7.939 -1.3859  0.5539  0.2703
16541SOL    HW251631   9.873   9.344   7.948  1.2025  0.1113 -0.4028
16542SOL     OW51632   5.147   9.907   6.851  0.2115 -0.5587  0.3896
16542SOL    HW151633   5.063   9.913   6.805  0.9077  0.6429 -0.8400
16542SOL    HW251634   5.138   9.968   6.924 -0.3773 -1.3185  0.9655
16543SOL     OW51635   0.280  10.020   6.006  0.0464  0.5472  0.7572
16543SOL    HW151636   0.241  10.090   6.058 -1.4953 -0.0941  0.5449
16543SOL    HW251637   0.243   9.940   6.044 -1.1819  0.0597 -1.2940
16544SOL     OW51638   0.448   3.724   5.891  0.1837 -0.0803 -0.5689
16544SOL    HW151639   0.445   3.706   5.797  2.7360  0.7640 -0.8934
16544SOL    HW251640   0.470   3.817   5.898  0.1790 -0.1519  0.8574
16545SOL     OW51641  10.361   5.467   1.515  0.1548 -0.7781  0.4783
16545SOL    HW151642  10.342   5.519   1.437  0.5067  1.7789  1.9757
16545SOL    HW251643  10.279   5.422   1.535  0.5157 -2.8908 -2.2507
16546SOL     OW51644   5.860   2.761   2.417 -0.1104  0.7085  0.4851
16546SOL    HW151645   5.889   2.673   2.393 -1.4440 -0.2424  2.1604
16546SOL    HW251646   5.932   2.797   2.469 -0.2110 -0.0082  1.1219
16547SOL     OW51647   4.499  10.859   2.223  0.1807 -0.0684 -0.2349
16547SOL    HW151648   4.460  10.871   2.310  0.4918 -2.0706  0.2274
16547SOL    HW251649   4.587  10.826   2.241  0.1570 -0.7370 -1.3108
16548SOL     OW51650   9.371   5.506  11.019  0.0264  0.8525  1.0687
16548SOL    HW151651   9.419   5.443  10.964 -0.6704 -0.1566  1.5847
16548SOL    HW251652   9.352   5.458  11.099 -2.4142  0.9821  0.6283
16549SOL     OW51653   2.379   8.480  10.602  0.2177  0.7956 -0.0308
16549SOL    HW151654   2.363   8.431  10.682  2.6857 -0.9206 -0.5110
16549SOL    HW251655   2.350   8.422  10.531 -1.1242  1.9407 -0.4777
16550SOL     OW51656   4.325   9.854   9.852 -0.1345 -0.6664  0.5633
16550SOL    HW151657   4.397   9.855   9.915  0.5431 -0.1420 -0.1926
16550SOL    HW251658   4.278   9.936   9.869  0.1853 -0.4143  0.2351
16551SOL     OW51659   7.823   4.515   3.307  0.5316  0.2100  0.3420
16551SOL    HW151660   7.916   4.511   3.333  0.2037 -1.0134  1.4032
16551SOL    HW251661   7.818   4.462   3.228  0.4154 -1.3513  1.3625
16552SOL     OW51662   2.517   7.602   7.261  0.2412 -0.1988 -0.2628
16552SOL    HW151663   2.508   7.670   7.195  0.0513  0.2544  0.2183
16552SOL    HW251664   2.446   7.619   7.323  0.7508 -0.2603  0.3576
16553SOL     OW51665   9.106  10.144  10.305 -0.0278 -0.1401  0.1735
16553SOL    HW151666   9.103  10.172  10.397 -0.2902  1.8193 -0.3837
16553SOL    HW251667   9.036  10.080  10.297  0.4009 -0.8185  1.4741
16554SOL     OW51668   7.754   4.489   3.007 -0.2434  0.0006  0.3691
16554SOL    HW151669   7.815   4.490   2.933 -0.2166 -0.7481  0.3764
16554SOL    HW251670   7.729   4.581   3.019  0.0401  0.1721 -0.3292
16555SOL     OW51671   8.292   0.101   3.092 -0.0873  1.0492 -0.3117
16555SOL    HW151672   8.372   0.065   3.053 -0.2803  1.7502 -1.4033
16555SOL    HW251673   8.258   0.161   3.026 -2.1417 -0.0640 -0.3296
16556SOL     OW51674   7.753   3.893   4.717 -0.3270 -0.1099  0.0472
16556SOL    HW151675   7.706   3.810   4.702  1.1831 -1.7146  3.2587
16556SOL    HW251676   7.834   3.883   4.667 -0.6955  0.0187 -0.5922
16557SOL     OW51677   8.100   0.202   6.886 -0.3515  0.0700  0.1726
16557SOL    HW151678   8.194   0.210   6.875 -0.5036  1.9854 -0.0750
16557SOL    HW251679   8.075   0.127   6.832  1.0341 -0.5752  0.4001
16558SOL     OW51680   0.264   7.146   4.951 -0.2771 -0.0761  0.4351
16558SOL    HW151681   0.194   7.205   4.925  1.0058  1.3828  0.1933
16558SOL    HW251682   0.286   7.173   5.040 -0.6962 -1.2195  0.9091
16559SOL     OW51683   2.958   1.749   5.175  0.0263  0.1372  0.7734
16559SOL    HW151684   2.985   1.679   5.233  0.5863  0.4201  0.8690
16559SOL    HW251685   2.865   1.734   5.160  0.1263 -0.5840  0.8396
16560SOL     OW51686   7.743   4.948   2.603 -0.0715 -0.7931  0.0115
16560SOL    HW151687   7.733   4.947   2.508 -0.2368  0.5484 -0.0119
16560SOL    HW251688   7.653   4.949   2.636 -0.0619  0.9263  0.0924
16561SOL     OW51689   9.531   1.500   0.152  0.0289 -0.3092 -0.8151
16561SOL    HW151690   9.600   1.434   0.143 -0.8322 -1.1858 -1.1264
16561SOL    HW251691   9.505   1.521   0.063  0.2388  0.4075 -0.7157
16562SOL     OW51692   8.019   3.553   7.292 -0.3570 -0.0083 -0.2987
16562SOL    HW151693   7.954   3.548   7.362 -0.3823 -1.5745 -0.3933
16562SOL    HW251694   7.975   3.516   7.216  0.5337 -0.8058 -0.4482
16563SOL     OW51695   6.100   9.338   6.612 -0.1321 -0.0724  0.1774
16563SOL    HW151696   6.187   9.361   6.580 -0.4110  0.2917 -0.3512
16563SOL    HW251697   6.049   9.322   6.532 -1.1277  1.8524  0.3613
16564SOL     OW51698   5.795   1.976   9.798  0.2952 -0.0971 -0.0191
16564SOL    HW151699   5.865   1.919   9.827  0.4573  0.5917  0.9954
16564SOL    HW251700   5.802   1.976   9.702  0.6073 -1.3497 -0.0062
16565SOL     OW51701  10.103   6.406   9.744  0.1405  0.2208  0.1676
16565SOL    HW151702  10.010   6.392   9.762  0.2070 -1.4263 -0.5814
16565SOL    HW251703  10.107   6.438   9.654  0.3354 -0.8278 -0.2152
16566SOL     OW51704   4.866   9.978   5.878  0.2650  0.2413 -0.2205
16566SOL    HW151705   4.958   9.958   5.858 -0.1343 -1.1743 -0.7407
16566SOL    HW251706   4.853   9.946   5.967  0.0232 -0.4793 -0.5086
16567SOL     OW51707   4.956  10.837   4.439 -0.3141  0.2175  0.6384
16567SOL    HW151708   4.892  10.790   4.494  0.8246 -0.2295  1.6361
16567SOL    HW251709   4.970  10.920   4.485 -0.6167  0.5703  0.1003
16568SOL     OW51710   6.928   9.375   3.634  0.1089 -0.0465  0.0542
16568SOL    HW151711   6.944   9.458   3.679  1.1242 -0.0345 -0.3076
16568SOL    HW251712   6.833   9.366   3.633 -0.2074  2.4355 -2.2590
16569SOL     OW51713   5.951   6.215   2.739  0.4474 -0.6632 -0.3722
16569SOL    HW151714   5.961   6.212   2.643 -1.8632 -0.8290 -0.6566
16569SOL    HW251715   5.857   6.221   2.753  0.5976 -2.4401  1.9500
16570SOL     OW51716   6.149   1.514   5.022 -1.2239  0.0002  0.0025
16570SOL    HW151717   6.117   1.547   4.938  1.2641  0.7081 -0.7532
16570SOL    HW251718   6.155   1.592   5.077 -2.0408 -0.3287  0.5607
16571SOL     OW51719  10.682   2.225   0.327 -0.2931 -0.3817 -0.4035
16571SOL    HW151720  10.636   2.301   0.293 -0.8384  0.0733  1.2581
16571SOL    HW251721  10.757   2.215   0.269  0.6540  2.3646  0.2073
16572SOL     OW51722   9.345   1.128   3.220  0.3018 -0.2484 -0.0562
16572SOL    HW151723   9.354   1.223   3.214 -0.3023 -0.1617  0.2827
16572SOL    HW251724   9.275   1.107   3.158  0.4726 -0.4834 -0.1716
16573SOL     OW51725   5.106   2.636   5.084  0.0247 -0.4019 -0.0807
16573SOL    HW151726   5.081   2.554   5.041  1.1279 -1.5484  1.3568
16573SOL    HW251727   5.028   2.661   5.134  0.5094 -2.1191  1.6670
16574SOL     OW51728   8.256   1.133   1.794  0.2746  0.4994  0.0207
16574SOL    HW151729   8.186   1.182   1.836 -1.7243 -2.1219 -0.0110
16574SOL    HW251730   8.233   1.134   1.701  0.2253 -0.3856  0.0103
16575SOL     OW51731   0.506   9.268   4.945  0.0639  0.2914  0.1607
16575SOL    HW151732   0.518   9.189   4.998 -0.6459 -0.2508 -0.4724
16575SOL    HW251733   0.581   9.269   4.886 -0.5020 -0.5298 -0.5912
16576SOL     OW51734   7.594   3.183   1.983  0.6480  0.3438  0.1728
16576SOL    HW151735   7.669   3.180   1.924  1.3705  0.6805  1.0456
16576SOL    HW251736   7.564   3.274   1.979  1.1768  0.5670  0.8678
16577SOL     OW51737   4.378   1.907   4.310  0.8647  0.2198 -0.2009
16577SOL    HW151738   4.428   1.977   4.353 -0.4238  1.8401 -1.2516
16577SOL    HW251739   4.445   1.846   4.278  2.1364  1.8033 -0.6825
16578SOL     OW51740   0.653   5.706   9.355  0.0207 -0.3468  0.0851
16578SOL    HW151741   0.679   5.632   9.410  2.6291  0.7071  0.4055
16578SOL    HW251742   0.655   5.781   9.415  1.0130  0.5250 -0.9945
16579SOL     OW51743   0.163   6.403   4.065  0.0936  0.3250  0.1829
16579SOL    HW151744   0.113   6.483   4.084 -2.1663 -1.0100  0.1057
16579SOL    HW251745   0.139   6.343   4.136  0.4242 -0.8644 -0.6913
16580SOL     OW51746   2.674  10.469   2.061 -0.1664 -0.7314  0.0707
16580SOL    HW151747   2.674  10.542   2.123  2.6208 -1.8935  1.6197
16580SOL    HW251748   2.722  10.501   1.985 -1.8585  0.0442 -0.7324
16581SOL     OW51749   8.655   9.538   3.928  0.7675  0.2782 -0.4396
16581SOL    HW151750   8.747   9.550   3.954  1.6267 -2.3785 -1.8099
16581SOL    HW251751   8.606   9.544   4.010  2.8133 -3.2994  1.3066
16582SOL     OW51752   1.496   7.558   5.975  0.4573  0.0745 -0.6085
16582SOL    HW151753   1.575   7.611   5.964 -0.1669  1.7166  1.8312
16582SOL    HW251754   1.453   7.562   5.890  1.1131  2.4547 -0.9225
16583SOL     OW51755   5.708  10.578   7.183 -0.0893 -0.1974 -0.3119
16583SOL    HW151756   5.697  10.547   7.273  0.6019 -1.8113 -0.7401
16583SOL    HW251757   5.763  10.656   7.190  0.9075 -0.9597  0.5932
16584SOL     OW51758   4.600   6.973   0.904  0.5370  0.3123  0.0007
16584SOL    HW151759   4.631   6.948   0.817 -2.1477 -3.3158 -0.1439
16584SOL    HW251760   4.666   6.938   0.964 -0.3239 -2.4802 -0.5047
16585SOL     OW51761  11.032   2.845   5.929  0.1782 -0.0630 -0.3107
16585SOL    HW151762  11.020   2.935   5.900 -1.2127 -0.1957 -0.2125
16585SOL    HW251763  11.030   2.793   5.849  0.0861 -0.0964 -0.2861
16586SOL     OW51764   3.060   7.836   7.990 -0.0407 -0.6032  0.4520
16586SOL    HW151765   3.008   7.805   8.065 -2.1126 -1.7567 -1.3317
16586SOL    HW251766   3.007   7.906   7.952  0.9485 -0.0814  0.0116
16587SOL     OW51767   9.959   0.050   0.457  0.2644  0.4384  0.4617
16587SOL    HW151768   9.906   0.129   0.453 -2.4659 -1.3360 -1.9844
16587SOL    HW251769  10.019   0.057   0.383 -0.8870 -0.3143 -0.5683
16588SOL     OW51770   3.752   9.053  10.168 -0.1394 -0.2085  0.2819
16588SOL    HW151771   3.788   9.136  10.137  0.4106 -1.0569 -1.5459
16588SOL    HW251772   3.658   9.067  10.171 -0.0086  0.6489  0.5494
16589SOL     OW51773   7.245   0.735   1.671 -0.4612 -0.3363 -0.3376
16589SOL    HW151774   7.311   0.790   1.627  0.7006 -0.9859  0.5197
16589SOL    HW251775   7.164   0.784   1.662  0.2814  0.8797 -0.7678
16590SOL     OW51776   1.310   8.835   0.650 -0.7689  0.5064 -0.3056
16590SOL    HW151777   1.285   8.832   0.557 -0.2106 -0.4455 -0.4401
16590SOL    HW251778   1.387   8.779   0.655 -1.2500 -0.0741  0.8745
16591SOL     OW51779   7.286   8.377   8.334 -0.2466 -0.8132 -0.3521
16591SOL    HW151780   7.193   8.358   8.329 -0.1631 -1.2924 -0.1269
16591SOL    HW251781   7.292   8.471   8.320 -0.6617 -0.9535 -1.7004
16592SOL     OW51782   0.222   8.596   0.676 -0.3478 -0.4117 -0.2303
16592SOL    HW151783   0.142   8.614   0.627 -0.2308  0.3428 -0.1601
16592SOL    HW251784   0.192   8.565   0.761 -0.6009  1.1862  0.2920
16593SOL     OW51785   3.969   8.658   0.252  0.4991 -0.3062 -0.4371
16593SOL    HW151786   4.016   8.584   0.291  1.0061  0.3830  0.3048
16593SOL    HW251787   3.969   8.641   0.158  0.1155 -1.5239 -0.2296
16594SOL     OW51788   0.539   8.463   5.987 -0.1828  0.2334  0.5026
16594SOL    HW151789   0.631   8.489   5.982 -0.6759  2.1165  0.6367
16594SOL    HW251790   0.528   8.401   5.915  0.8908  0.9660 -0.3199
16595SOL     OW51791   0.800  10.636   1.412  0.5852 -0.2579 -0.0115
16595SOL    HW151792   0.734  10.585   1.365  0.5863 -0.9218  0.6917
16595SOL    HW251793   0.777  10.727   1.395 -0.9780 -0.4625  0.8476
16596SOL     OW51794   1.469   3.884  10.056 -0.3778  0.7889 -0.4757
16596SOL    HW151795   1.553   3.929  10.054  0.7181 -0.9872  1.2504
16596SOL    HW251796   1.404   3.952  10.037  1.2861  2.6794  0.2413
16597SOL     OW51797   8.054   3.169   5.162  0.2488  0.2469 -0.6656
16597SOL    HW151798   8.049   3.195   5.070  1.2579  1.0831 -0.5148
16597SOL    HW251799   8.051   3.252   5.210 -2.7991 -0.2914  0.2414
16598SOL     OW51800   8.564   0.852   5.250  0.4401  0.1979  0.1828
16598SOL    HW151801   8.487   0.797   5.265  1.1127 -0.1962  2.4481
16598SOL    HW251802   8.638   0.792   5.256  1.0968  1.0694  1.1257
16599SOL     OW51803   5.317   1.663   3.722  0.0108  0.7013  0.4726
16599SOL    HW151804   5.411   1.652   3.716 -0.1833 -0.1057 -1.9502
16599SOL    HW251805   5.304   1.720   3.798  2.5719  2.5248 -0.3450
16600SOL     OW51806   3.124   9.712   6.567 -0.5461  0.6015 -0.4892
16600SOL    HW151807   3.141   9.774   6.638 -2.2368  1.6309 -0.9400
16600SOL    HW251808   3.031   9.723   6.546 -0.8514 -1.8803 -0.7996
16601SOL     OW51809   6.829   8.961   8.372  0.1080  0.4356  0.0508
16601SOL    HW151810   6.874   8.913   8.441 -0.5499 -0.5661 -0.1925
16601SOL    HW251811   6.801   8.893   8.310  1.5724  1.3679 -1.7508
16602SOL     OW51812   8.633   9.090   1.226 -0.2248 -0.5383  0.2144
16602SOL    HW151813   8.571   9.093   1.299 -1.0501  1.8123 -0.5225
16602SOL    HW251814   8.713   9.129   1.261 -0.7910  1.0959 -0.2374
16603SOL     OW51815   2.132   3.022   0.052  0.0212  0.1149  0.4814
16603SOL    HW151816   2.216   2.976   0.055  1.1176  2.0283  2.2261
16603SOL    HW251817   2.098   3.015   0.141 -1.2068  0.2065  0.0335
16604SOL     OW51818   2.012  10.428   9.898 -0.1936  0.0982  0.7070
16604SOL    HW151819   2.013  10.521   9.877 -1.4544  0.6423  2.7594
16604SOL    HW251820   2.104  10.401   9.893 -0.0647  0.7473 -2.4665
16605SOL     OW51821   0.584   3.292   4.646 -0.7720  0.0190 -0.0604
16605SOL    HW151822   0.657   3.331   4.695 -0.2786 -2.1481  1.0807
16605SOL    HW251823   0.627   3.237   4.580 -1.3264 -1.0408  0.4291
16606SOL     OW51824   0.866   6.048   8.054 -0.2278  1.0442 -0.0711
16606SOL    HW151825   0.948   6.016   8.015 -0.5829 -1.9860  1.4268
16606SOL    HW251826   0.893   6.124   8.106  1.4047  0.9150 -0.6674
16607SOL     OW51827   7.133   7.456   6.818  0.2424  0.4366 -0.4893
16607SOL    HW151828   7.118   7.373   6.772  1.3120  0.0543 -0.1863
16607SOL    HW251829   7.092   7.522   6.763 -0.5141 -0.2823 -0.8058
16608SOL     OW51830  10.037   9.246   2.336  0.6552  0.3440  0.6717
16608SOL    HW151831  10.043   9.341   2.322 -2.9358  0.8244  1.2301
16608SOL    HW251832   9.946   9.232   2.364  1.4842 -3.1047  2.1665
16609SOL     OW51833   4.763   0.728   7.622 -0.3152 -0.0762 -0.1155
16609SOL    HW151834   4.829   0.680   7.672  0.4608 -0.9379 -1.8690
16609SOL    HW251835   4.814   0.784   7.563 -1.1048 -0.9693 -1.7039
16610SOL     OW51836   5.261   6.408   3.002 -0.4361  0.0302  0.5746
16610SOL    HW151837   5.198   6.465   2.958 -1.2681 -0.4206  1.1282
16610SOL    HW251838   5.310   6.366   2.932 -0.5279  0.6451  0.1377
16611SOL     OW51839   7.537   0.438   6.397  0.2466  0.3671  0.0528
16611SOL    HW151840   7.467   0.475   6.452  0.5850  1.0290  0.0530
16611SOL    HW251841   7.491   0.392   6.327 -0.1891  0.2886  0.3885
16612SOL     OW51842   1.625   2.243   3.043  0.3936 -0.0221 -0.1838
16612SOL    HW151843   1.655   2.231   2.953 -0.3430 -1.4310 -0.2663
16612SOL    HW251844   1.590   2.158   3.068 -0.4522  0.6629  1.0581
16613SOL     OW51845   1.899   1.460   6.511 -0.2141  0.1193 -0.8476
16613SOL    HW151846   1.985   1.487   6.544 -1.3352 -0.0767  2.7124
16613SOL    HW251847   1.917   1.387   6.452  2.0714  0.0653 -0.1744
16614SOL     OW51848   3.334   3.223   4.245 -0.0260  0.5036  0.1935
16614SOL    HW151849   3.402   3.228   4.178  2.2786 -1.8679  2.1690
16614SOL    HW251850   3.271   3.160   4.209  1.2750 -0.8801  0.2495
16615SOL     OW51851   8.298   9.069  10.786  0.2484  0.1185 -0.0387
16615SOL    HW151852   8.318   9.000  10.723 -0.2809  1.3935 -1.6571
16615SOL    HW251853   8.218   9.038  10.830 -0.9641  0.4007 -1.9220
16616SOL     OW51854   8.918   7.126   8.116  0.2002 -0.4813  0.6953
16616SOL    HW151855   8.891   7.217   8.108 -0.8195 -0.9088 -1.4159
16616SOL    HW251856   8.867   7.091   8.189 -0.8238  0.1702  0.3069
16617SOL     OW51857   0.878   6.063   9.729  0.0860 -0.0225  0.1838
16617SOL    HW151858   0.971   6.049   9.713  0.8263  2.1010  2.0359
16617SOL    HW251859   0.842   6.089   9.644  1.5547  0.6851 -0.2558
16618SOL     OW51860  10.097   9.817   0.319 -0.2717 -0.9811 -0.1291
16618SOL    HW151861  10.083   9.818   0.224 -1.0344 -1.3494 -0.0235
16618SOL    HW251862  10.051   9.893   0.352  1.0371 -0.1351 -0.1782
16619SOL     OW51863   0.932   4.423   7.859  0.2061  0.4618  0.0515
16619SOL    HW151864   0.877   4.373   7.798  1.8687  0.6734 -1.7368
16619SOL    HW251865   0.923   4.514   7.830 -1.3705  1.0507  2.1346
16620SOL     OW51866   4.997   9.328   6.592  0.4447 -0.1694  0.1566
16620SOL    HW151867   4.976   9.412   6.633  1.7361  0.0822  0.3455
16620SOL    HW251868   4.914   9.299   6.554  0.3358  2.0830 -1.5335
16621SOL     OW51869   4.184   0.274   8.392  0.1062  0.2288  0.5682
16621SOL    HW151870   4.193   0.269   8.297 -0.9101  1.5583  0.3816
16621SOL    HW251871   4.150   0.362   8.409  0.5557  0.1258  2.1919
16622SOL     OW51872   1.932   6.309   6.424  0.7716  0.7685 -0.4551
16622SOL    HW151873   1.878   6.328   6.347  0.9963  0.3980 -0.7101
16622SOL    HW251874   1.906   6.374   6.488 -2.2277 -1.2331  0.5737
16623SOL     OW51875   4.957  10.899   1.775  0.2086 -0.2445 -0.1042
16623SOL    HW151876   4.938  10.972   1.716 -1.0443  0.0695  0.6532
16623SOL    HW251877   5.051  10.907   1.793  0.0844  1.2347  0.0240
16624SOL     OW51878   3.186   9.361   4.820 -0.0119 -0.0241  0.3150
16624SOL    HW151879   3.207   9.439   4.768 -0.2921 -0.0990  0.0874
16624SOL    HW251880   3.131   9.394   4.891  0.2595  0.0564  0.4905
16625SOL     OW51881   7.064   2.922   6.764 -0.0284  0.4621  0.1132
16625SOL    HW151882   7.150   2.955   6.739 -0.3023  0.4613 -0.8687
16625SOL    HW251883   7.006   2.952   6.694 -0.5800 -0.6602  0.0770
16626SOL     OW51884   4.503   1.323   8.455 -0.3063 -0.1482 -0.3997
16626SOL    HW151885   4.531   1.399   8.404 -0.1180 -1.2010 -1.9599
16626SOL    HW251886   4.457   1.359   8.530 -0.8329  1.4943 -1.4665
16627SOL     OW51887   2.932  10.044  10.141  0.0850 -0.0527 -0.0793
16627SOL    HW151888   2.926  10.014  10.231  2.2988  0.2594  0.2270
16627SOL    HW251889   3.021  10.022  10.114 -0.4234  0.1422 -2.1026
16628SOL     OW51890   4.539   4.385   0.110 -0.0273  0.8340 -0.0097
16628SOL    HW151891   4.556   4.451   0.042  1.0047  1.3230  0.7051
16628SOL    HW251892   4.625   4.367   0.148 -0.3023 -0.8608 -0.1072
16629SOL     OW51893   2.521   8.876   8.201  0.3212  0.2317  0.0226
16629SOL    HW151894   2.458   8.826   8.148 -0.2929  0.1031  0.8496
16629SOL    HW251895   2.535   8.957   8.152  0.8096 -0.4495 -1.0030
16630SOL     OW51896   8.552   2.498   3.272 -0.2599 -0.2226 -0.1150
16630SOL    HW151897   8.643   2.526   3.269 -0.7920  1.5898 -2.1946
16630SOL    HW251898   8.514   2.547   3.345 -0.6628  3.2298 -2.3936
16631SOL     OW51899   8.957   4.712   9.444  0.1127 -0.5248  0.2672
16631SOL    HW151900   8.956   4.735   9.536 -0.1670  0.3718  0.0441
16631SOL    HW251901   8.865   4.699   9.421  0.2641 -2.0517  0.4220
16632SOL     OW51902   5.196   5.425   9.157 -0.0869  0.0416  0.0087
16632SOL    HW151903   5.276   5.465   9.192 -0.0421  1.4349 -1.5853
16632SOL    HW251904   5.198   5.444   9.064 -0.3177 -3.3831 -0.8188
16633SOL     OW51905   8.149   4.404   6.017  0.1325 -0.1636 -0.3812
16633SOL    HW151906   8.141   4.316   5.980  0.4560 -1.0778  1.5876
16633SOL    HW251907   8.242   4.423   6.013  0.1643 -0.2516 -0.1087
16634SOL     OW51908   3.268   0.121   0.165  0.2368 -0.1338 -0.4755
16634SOL    HW151909   3.301   0.086   0.247 -0.7856 -1.8868 -0.7738
16634SOL    HW251910   3.200   0.183   0.191 -0.6023 -1.2323  0.0078
16635SOL     OW51911  10.548   2.197   9.620 -0.1857  0.4063  0.8649
16635SOL    HW151912  10.506   2.280   9.597 -1.3701 -0.2358  0.6605
16635SOL    HW251913  10.641   2.212   9.604 -0.1214  2.2999  2.6494
16636SOL     OW51914   0.149   8.965   8.859  0.1119  0.0120  0.3512
16636SOL    HW151915   0.109   9.050   8.882  1.1930  0.2631  1.3782
16636SOL    HW251916   0.172   8.926   8.943 -1.1204 -1.7043 -0.0615
16637SOL     OW51917   3.063   7.299   1.591 -0.4596 -0.1902  0.1919
16637SOL    HW151918   3.010   7.232   1.634  3.0350 -1.9957  2.1159
16637SOL    HW251919   3.075   7.266   1.502 -0.2553 -1.2370  0.5936
16638SOL     OW51920   6.517   0.572   9.634 -0.0847  0.0754 -0.3816
16638SOL    HW151921   6.487   0.602   9.720  0.6751 -0.8516  0.2252
16638SOL    HW251922   6.559   0.649   9.595  0.5202  0.2271  0.5308
16639SOL     OW51923   6.154   2.698   9.959 -0.3880  0.0357 -0.1857
16639SOL    HW151924   6.160   2.692   9.864  0.2213  1.3967 -0.2517
16639SOL    HW251925   6.085   2.762   9.975  0.0354  0.3858  0.2774
16640SOL     OW51926   6.229   4.500   6.139  0.3277  0.4812  0.1655
16640SOL    HW151927   6.305   4.556   6.154 -0.2858  1.6598 -0.8918
16640SOL    HW251928   6.177   4.507   6.220 -0.1127  2.0848 -0.2259
16641SOL     OW51929   4.296   7.649   4.357  0.0801 -0.1570 -0.2054
16641SOL    HW151930   4.272   7.634   4.448 -0.4637  1.0333 -0.1241
16641SOL    HW251931   4.312   7.562   4.321 -1.0836 -0.7586  0.6592
16642SOL     OW51932   7.571   2.696   6.004  0.2261  0.4619 -0.2846
16642SOL    HW151933   7.545   2.622   5.948  1.5208 -0.0780 -0.2048
16642SOL    HW251934   7.540   2.672   6.091 -0.3382  0.5402 -0.4573
16643SOL     OW51935   3.613   1.864   7.192 -0.3279  0.2378 -0.9138
16643SOL    HW151936   3.559   1.941   7.173  0.3787  0.4227 -2.3343
16643SOL    HW251937   3.682   1.866   7.125  1.6718  0.2021  1.0300
16644SOL     OW51938   1.382   2.903   0.989  0.3440 -0.2660  0.6088
16644SOL    HW151939   1.393   2.991   0.953  0.6273 -0.6438 -0.2813
16644SOL    HW251940   1.362   2.916   1.081 -1.1637  0.7774  0.1610
16645SOL     OW51941   8.016   6.982   3.761  0.6304 -0.8309  0.5551
16645SOL    HW151942   8.077   7.045   3.723 -0.5640  0.4914  0.7566
16645SOL    HW251943   8.041   6.898   3.723  1.1078  0.0356 -1.1325
16646SOL     OW51944   1.502   6.504   7.048  0.8747 -0.0762 -0.1981
16646SOL    HW151945   1.480   6.468   6.962  0.0656  1.5307 -0.7199
16646SOL    HW251946   1.417   6.525   7.087  1.2518 -0.5084  0.8648
16647SOL     OW51947   3.351   7.890   6.978 -0.0870  0.2746  0.3699
16647SOL    HW151948   3.419   7.955   6.964  1.0440 -0.8947  0.2546
16647SOL    HW251949   3.276   7.940   7.009  1.4170  1.3990  2.4223
16648SOL     OW51950   5.672   0.570  10.245  0.4067 -0.1771 -0.2560
16648SOL    HW151951   5.759   0.598  10.218  0.3403 -1.7923 -2.5534
16648SOL    HW251952   5.616   0.646  10.229  1.3581  0.9159  1.3588
16649SOL     OW51953   5.446   3.367   0.826 -0.0610 -0.0772 -0.1833
16649SOL    HW151954   5.438   3.345   0.919 -0.4425  2.2503  0.4073
16649SOL    HW251955   5.356   3.386   0.798  0.3141  1.8583 -0.2490
16650SOL     OW51956   7.833   6.312   2.501  0.3381  0.3868  0.4230
16650SOL    HW151957   7.878   6.241   2.454 -1.3246  0.7291 -1.8507
16650SOL    HW251958   7.890   6.388   2.488  1.2168 -0.0844  1.3213
16651SOL     OW51959   1.566  10.275   8.209  0.2090 -0.1912 -0.2591
16651SOL    HW151960   1.586  10.234   8.125 -0.3774 -1.8060  0.3416
16651SOL    HW251961   1.510  10.211   8.253 -2.2205  2.0450  0.0674
16652SOL     OW51962   2.645   1.733   7.539  0.0528  0.1861 -0.0296
16652SOL    HW151963   2.596   1.798   7.590 -1.0549  0.5836 -1.5380
16652SOL    HW251964   2.642   1.765   7.449 -0.1327 -1.7223 -0.7511
16653SOL     OW51965   3.687   2.331   1.607  0.0201  0.0965 -0.2202
16653SOL    HW151966   3.764   2.283   1.635  1.2252  1.4772 -1.0409
16653SOL    HW251967   3.660   2.383   1.683 -2.5677 -3.2509  1.3993
16654SOL     OW51968   2.560   3.625  10.698 -0.2541 -0.5617  0.2726
16654SOL    HW151969   2.529   3.544  10.739  0.7253 -1.0316  0.1146
16654SOL    HW251970   2.567   3.688  10.770  0.0046 -0.9342  0.5751
16655SOL     OW51971   5.967   1.026   9.992  0.1111 -0.0335 -0.2442
16655SOL    HW151972   5.873   1.018  10.009  0.1207 -0.5635 -0.4176
16655SOL    HW251973   5.998   1.085  10.060 -0.2458 -0.3277  0.1870
16656SOL     OW51974   4.945   6.935   5.655 -0.0731 -0.1195 -0.4350
16656SOL    HW151975   4.932   6.842   5.640 -0.8176  0.1519 -1.6514
16656SOL    HW251976   4.882   6.978   5.596  0.4937  1.1524 -0.1578
16657SOL     OW51977   5.106   2.264   2.465  0.0335  0.0689  0.6227
16657SOL    HW151978   5.198   2.287   2.466  0.1114 -0.2325  0.5646
16657SOL    HW251979   5.101   2.183   2.517  0.2123 -1.3805 -1.4783
16658SOL     OW51980   4.217   5.322   6.755  0.2962  0.4986  0.1718
16658SOL    HW151981   4.291   5.365   6.798  0.1496  0.0347  0.9087
16658SOL    HW251982   4.147   5.387   6.757 -0.6502 -0.4357  3.3009
16659SOL     OW51983   2.312   5.574   7.668  0.4523  0.1527 -0.2447
16659SOL    HW151984   2.343   5.660   7.643 -0.4937  0.3711 -0.7354
16659SOL    HW251985   2.373   5.513   7.626  1.0840  0.5735  0.0535
16660SOL     OW51986   5.911   7.419   2.664 -0.1297  0.4296 -0.2951
16660SOL    HW151987   5.899   7.346   2.725 -0.9456  1.5042  0.8693
16660SOL    HW251988   5.926   7.376   2.580 -1.7694 -1.0908  0.1198
16661SOL     OW51989   9.561   5.098   7.439 -0.5514  0.3723 -0.0504
16661SOL    HW151990   9.573   5.036   7.512  0.3523  0.9775  0.3317
16661SOL    HW251991   9.486   5.063   7.391 -0.2582 -0.8578  0.3296
16662SOL     OW51992   1.568   9.271   0.358  0.2154  0.1725 -0.0670
16662SOL    HW151993   1.621   9.280   0.279  0.9886 -0.0502  0.4120
16662SOL    HW251994   1.632   9.262   0.429 -0.4596 -1.7007  0.3547
16663SOL     OW51995   9.762   5.903   5.841 -0.3562  0.1346  0.3308
16663SOL    HW151996   9.743   5.814   5.810  0.2690 -0.3535  1.2967
16663SOL    HW251997   9.802   5.946   5.766 -1.2579 -0.1880 -0.3531
16664SOL     OW51998   7.549   8.574   5.618 -0.0381  0.0372 -0.0701
16664SOL    HW151999   7.537   8.532   5.533  0.1430 -0.6675  0.2453
16664SOL    HW252000   7.574   8.503   5.677 -0.3963  0.4750  0.6297
16665SOL     OW52001   4.605   7.031   6.619 -0.0686  0.1861 -0.0163
16665SOL    HW152002   4.548   6.997   6.550 -0.8111 -0.0908  0.7116
16665SOL    HW252003   4.677   6.968   6.622  1.1636  1.4155 -2.0413
16666SOL     OW52004   4.678   2.403   9.307 -0.5248 -0.6007 -0.0519
16666SOL    HW152005   4.743   2.382   9.374 -2.4090 -1.0347  1.7188
16666SOL    HW252006   4.624   2.472   9.346 -0.1135  1.0184 -2.1656
16667SOL     OW52007   1.299   1.416   9.568  0.1363 -0.5519  0.4382
16667SOL    HW152008   1.391   1.435   9.548  0.1196 -1.4094 -0.4697
16667SOL    HW252009   1.256   1.412   9.483 -0.8403  0.2549  0.8742
16668SOL     OW52010   7.171   7.419   8.203  0.4419  0.6738 -0.2346
16668SOL    HW152011   7.094   7.475   8.197  0.9340  1.2777 -1.1379
16668SOL    HW252012   7.167   7.382   8.291 -1.0764  0.3941 -0.3993
16669SOL     OW52013   3.741   4.470   4.480 -0.4421  0.0173 -0.6145
16669SOL    HW152014   3.699   4.385   4.491 -0.6264  0.1064 -0.6310
16669SOL    HW252015   3.791   4.461   4.399 -0.5281 -0.0475 -0.6604
16670SOL     OW52016   9.939  10.106   3.747 -0.2729  0.8013  0.0893
16670SOL    HW152017   9.971  10.028   3.791  0.2512  0.1495 -1.3938
16670SOL    HW252018   9.988  10.178   3.787 -1.0838  0.4832  1.7911
16671SOL     OW52019   1.513   7.114   2.845  0.4551  0.1904  0.2537
16671SOL    HW152020   1.504   7.209   2.832  0.2709  0.1560  0.1225
16671SOL    HW252021   1.605   7.096   2.826  0.2927  0.2138 -0.5939
16672SOL     OW52022   6.319   7.448   7.855  0.5191 -0.3136 -0.6432
16672SOL    HW152023   6.365   7.461   7.771  2.1679 -1.4688  0.0192
16672SOL    HW252024   6.240   7.399   7.832 -0.9883  2.4661 -1.9352
16673SOL     OW52025   0.644   2.470   9.403  0.5629  0.0855  0.3526
16673SOL    HW152026   0.561   2.467   9.451  0.6711  0.4525  0.5693
16673SOL    HW252027   0.620   2.449   9.312 -0.2952  3.1564 -0.2457
16674SOL     OW52028   3.628   1.443   8.728  0.0863 -0.7000  0.0654
16674SOL    HW152029   3.698   1.382   8.703  1.9722  1.8039 -1.2484
16674SOL    HW252030   3.565   1.389   8.776  1.0570 -3.8697 -1.9037
16675SOL     OW52031   2.192   0.439   1.564 -1.0901 -0.0646  0.0940
16675SOL    HW152032   2.106   0.459   1.603 -0.8532  0.6846  0.2415
16675SOL    HW252033   2.172   0.380   1.492 -1.7499  0.2259  0.0310
16676SOL     OW52034   1.321   1.785   5.009  0.0442  0.0755 -0.1408
16676SOL    HW152035   1.347   1.738   5.088  0.2354  1.0583  0.4031
16676SOL    HW252036   1.231   1.812   5.026  0.7332  2.0901  0.6803
16677SOL     OW52037   4.240   0.239   1.976 -0.6378 -0.0436  0.1073
16677SOL    HW152038   4.261   0.151   1.945 -0.8664  0.1509 -0.6181
16677SOL    HW252039   4.173   0.271   1.916 -1.8835 -0.0488  1.4339
16678SOL     OW52040   3.557  10.642   5.460 -0.0088 -0.1401  0.3003
16678SOL    HW152041   3.593  10.674   5.543  0.6803 -0.0434 -0.0328
16678SOL    HW252042   3.608  10.686   5.392  0.8779 -1.8092 -0.1642
16679SOL     OW52043   6.053   6.432   4.895 -0.0312 -0.3575 -0.3544
16679SOL    HW152044   6.045   6.432   4.799  1.2152  0.5205 -0.4972
16679SOL    HW252045   6.019   6.517   4.921  1.7824  0.3936 -0.2860
16680SOL     OW52046   9.128   4.029   7.543 -0.2042  0.3795 -0.5779
16680SOL    HW152047   9.198   4.044   7.607  0.1545 -0.2805 -0.8156
16680SOL    HW252048   9.052   4.075   7.581 -0.0712 -0.2047  0.4522
16681SOL     OW52049   2.231   1.602   2.887 -0.3753 -0.9607  0.2050
16681SOL    HW152050   2.217   1.626   2.979 -0.4118 -0.0931 -0.0261
16681SOL    HW252051   2.248   1.684   2.843  1.8420 -1.5724 -0.2024
16682SOL     OW52052   7.017   7.810   9.934  0.4124  0.5324  0.0317
16682SOL    HW152053   6.999   7.890   9.982 -0.3443 -0.8748  2.2305
16682SOL    HW252054   7.112   7.808   9.926  0.5890  0.7350  1.7065
16683SOL     OW52055   2.176   1.366   2.766  0.1389  0.4188  0.1408
16683SOL    HW152056   2.182   1.395   2.675 -1.1854 -1.1577 -0.4949
16683SOL    HW252057   2.186   1.446   2.818  1.9612  1.2130 -1.3161
16684SOL     OW52058   4.224   6.443   3.445 -0.1623 -0.5781 -0.3246
16684SOL    HW152059   4.262   6.530   3.431  1.1340 -0.7629  1.7524
16684SOL    HW252060   4.168   6.430   3.368  1.2601  1.1780 -1.7782
16685SOL     OW52061   8.600  11.022   0.480 -0.0916  0.1203 -0.0217
16685SOL    HW152062   8.638  10.986   0.561  0.2930  1.4248  0.4092
16685SOL    HW252063   8.586  10.946   0.424 -0.6564 -0.8507  1.3894
16686SOL     OW52064   7.884   9.584   1.881 -0.0598  0.3716  0.3478
16686SOL    HW152065   7.881   9.563   1.974 -2.9879  0.6716  0.4259
16686SOL    HW252066   7.863   9.501   1.838  1.4613  0.1917 -0.1114
16687SOL     OW52067   3.529   5.725   9.716  0.1252  0.0150 -0.7855
16687SOL    HW152068   3.484   5.800   9.677 -0.6607 -0.1489 -0.2163
16687SOL    HW252069   3.497   5.649   9.668 -1.3514 -0.2608  0.5572
16688SOL     OW52070   3.878   6.994   4.767  0.1854 -0.5402 -0.1814
16688SOL    HW152071   3.852   7.086   4.778 -0.4058 -0.5697 -1.1583
16688SOL    HW252072   3.813   6.945   4.817  0.5908 -0.4285  0.4671
16689SOL     OW52073   1.557   3.614   0.720  0.2995 -0.7563 -0.4803
16689SOL    HW152074   1.504   3.538   0.742  0.7910 -0.6645  1.1697
16689SOL    HW252075   1.591   3.596   0.632 -1.9738 -1.0473 -1.3474
16690SOL     OW52076  11.028   1.495   1.853  0.5452 -0.1221  0.0917
16690SOL    HW152077  11.057   1.513   1.943  0.1345  0.6725  0.0789
16690SOL    HW252078  11.075   1.416   1.828  1.2432  0.0718  0.7385
16691SOL     OW52079   2.837   4.090  10.953 -0.0397 -0.4066  0.6892
16691SOL    HW152080   2.877   4.165  10.998  2.6144 -1.5955  0.4684
16691SOL    HW252081   2.751   4.122  10.926  0.2359  1.9307  2.2611
16692SOL     OW52082   6.107   6.003   8.716 -0.2588 -0.0595  0.0609
16692SOL    HW152083   6.064   5.925   8.750  0.4967 -0.3090  0.4798
16692SOL    HW252084   6.127   6.055   8.793 -2.5072  1.5252 -0.3322
16693SOL     OW52085  10.615   8.939   9.826  0.1471 -0.5033  0.3754
16693SOL    HW152086  10.578   8.896   9.903  1.8483 -1.7493  0.5529
16693SOL    HW252087  10.622   8.869   9.761 -0.4516  0.3434 -0.6344
16694SOL     OW52088   2.867   3.032  10.034  0.7178 -0.1691 -0.0208
16694SOL    HW152089   2.873   3.106  10.095 -0.1663  0.8465 -1.1342
16694SOL    HW252090   2.948   3.037   9.983  1.3103 -0.8320  0.8158
16695SOL     OW52091   7.901   4.746   8.915  0.3945 -0.0742  0.2762
16695SOL    HW152092   7.808   4.727   8.907  0.2575  1.1062 -1.4938
16695SOL    HW252093   7.906   4.842   8.922  1.5331  0.0163 -1.3058
16696SOL     OW52094   7.332   0.446   6.976  0.1099 -0.2300 -0.1638
16696SOL    HW152095   7.412   0.468   7.025 -0.4212 -1.3420  1.3088
16696SOL    HW252096   7.313   0.355   7.002 -1.4312 -0.1022 -0.7429
16697SOL     OW52097   0.717   0.078   7.443  0.3384 -0.2685  0.7368
16697SOL    HW152098   0.776   0.017   7.487 -2.7256 -1.5855  3.3724
16697SOL    HW252099   0.684   0.029   7.368  1.3629 -0.0627  0.1248
16698SOL     OW52100   0.882   0.505   8.002  0.4323 -0.2315 -0.1455
16698SOL    HW152101   0.900   0.535   8.091 -0.7155  0.0336  0.0153
16698SOL    HW252102   0.960   0.455   7.977  1.0577  0.2823  0.7420
16699SOL     OW52103   5.795   4.262   2.618 -0.1054 -0.0374 -0.5831
16699SOL    HW152104   5.853   4.245   2.692  0.3838  1.2444 -0.6571
16699SOL    HW252105   5.738   4.184   2.614  0.1899 -0.3509  0.8062
16700SOL     OW52106   5.034   8.337   3.766 -0.1991 -0.1824  0.5790
16700SOL    HW152107   5.013   8.289   3.846 -0.2026  0.4811  0.9824
16700SOL    HW252108   5.061   8.424   3.796 -2.0609  0.7417 -0.2037
16701SOL     OW52109   5.067  11.006   2.170 -0.1577 -0.4463 -0.3306
16701SOL    HW152110   5.139  11.055   2.131 -1.0100  0.0888 -1.3035
16701SOL    HW252111   5.038  10.947   2.100 -1.2652  0.0276 -0.2950
16702SOL     OW52112  10.645   4.788   6.096  0.2710 -0.0545  0.5793
16702SOL    HW152113  10.673   4.818   6.183 -0.7991 -1.5880  1.4914
16702SOL    HW252114  10.556   4.821   6.087  1.2901  2.5474 -1.2129
16703SOL     OW52115   8.951  10.119   1.240  0.5956 -0.5524 -0.0758
16703SOL    HW152116   8.989  10.206   1.230 -0.4524 -0.3211 -3.0504
16703SOL    HW252117   8.873  10.133   1.293  0.9146  0.1643  0.2194
16704SOL     OW52118  10.583   2.717   3.256  0.7255  0.0668 -0.4684
16704SOL    HW152119  10.643   2.659   3.209  2.4309 -0.5121  2.2047
16704SOL    HW252120  10.530   2.657   3.309  2.0811  0.7831  1.8510
16705SOL     OW52121   5.989   3.864   1.676  0.3533  0.1419 -0.2289
16705SOL    HW152122   5.927   3.869   1.603 -1.7094 -1.4352  1.2757
16705SOL    HW252123   6.028   3.777   1.669 -0.4588 -0.3469  0.9265
16706SOL     OW52124   5.508   2.178   6.916 -0.1180 -0.4572 -0.0743
16706SOL    HW152125   5.545   2.264   6.939 -0.8684 -0.4473  1.2005
16706SOL    HW252126   5.413   2.192   6.920 -0.2931 -1.8194  2.2468
16707SOL     OW52127  10.843   2.749   8.775 -0.0766  0.1184 -0.0119
16707SOL    HW152128  10.879   2.822   8.723  0.5697 -0.7476 -0.8141
16707SOL    HW252129  10.758   2.781   8.804  0.8600  1.8401  1.0529
16708SOL     OW52130   8.530   7.038   1.247  0.5324  0.0636 -0.3627
16708SOL    HW152131   8.440   7.047   1.280  0.9943 -0.0336  1.0004
16708SOL    HW252132   8.540   6.944   1.230  0.1081  0.1883 -1.3759
16709SOL     OW52133   8.423   2.000  10.783  0.1132  0.2967  0.1566
16709SOL    HW152134   8.409   2.014  10.689 -0.6190  0.6210  0.3101
16709SOL    HW252135   8.337   2.012  10.822  0.6338  1.3488  1.0236
16710SOL     OW52136  10.188   9.261   8.986 -0.3156 -0.4342  0.3892
16710SOL    HW152137  10.166   9.279   8.895 -1.6548 -1.7790  0.4105
16710SOL    HW252138  10.122   9.309   9.037 -1.1172 -1.6765  0.5564
16711SOL     OW52139   8.056   9.050   1.301  0.0700  0.4779  0.3902
16711SOL    HW152140   8.011   9.055   1.386  0.4404 -2.0559  0.8250
16711SOL    HW252141   7.988   9.018   1.241  0.5073 -0.5424  0.4130
16712SOL     OW52142   8.718   3.227   1.135 -0.0167  0.5834 -0.0232
16712SOL    HW152143   8.624   3.220   1.118  0.1378  0.9303 -1.0474
16712SOL    HW252144   8.742   3.140   1.167 -0.6342  0.4115 -0.0029
16713SOL     OW52145   1.215   5.832   4.559  0.4339 -0.5319 -0.1257
16713SOL    HW152146   1.185   5.749   4.594  1.6465 -0.9202  0.0284
16713SOL    HW252147   1.308   5.818   4.540  0.0584 -0.0725 -2.6434
16714SOL     OW52148   1.860   3.143   0.079  0.3048 -0.3121 -0.0812
16714SOL    HW152149   1.907   3.079   0.132  0.0604 -0.7543 -0.3869
16714SOL    HW252150   1.919   3.162   0.006  1.2223  1.3369  1.0485
16715SOL     OW52151  10.714   3.271   6.056  0.6281  0.1560 -0.1621
16715SOL    HW152152  10.734   3.237   5.969  1.8061  0.1340  0.1023
16715SOL    HW252153  10.720   3.366   6.047 -0.4226  0.2228 -0.3626
16716SOL     OW52154   8.875   0.004   4.766  0.4570 -0.2679  0.4115
16716SOL    HW152155   8.939   0.046   4.824  0.4759 -1.0215  0.9497
16716SOL    HW252156   8.926  -0.059   4.714  0.0990 -1.2247  1.1837
16717SOL     OW52157   0.958   9.868   2.864 -0.0529  0.0637  0.1317
16717SOL    HW152158   0.934   9.781   2.831 -0.4191  0.2787 -0.1646
16717SOL    HW252159   0.950   9.860   2.959  1.7134 -0.7820  0.2627
16718SOL     OW52160   6.750   7.699   8.564  0.4519 -0.0930  0.2440
16718SOL    HW152161   6.721   7.738   8.482  0.9916 -2.9995 -1.4682
16718SOL    HW252162   6.845   7.712   8.566  0.6231 -1.1870 -0.2956
16719SOL     OW52163   1.971   6.061   1.210 -0.3167  0.1782 -0.0422
16719SOL    HW152164   2.028   6.054   1.133 -1.0874  1.1426 -0.7115
16719SOL    HW252165   1.971   5.972   1.246  0.1601 -0.2691 -1.0761
16720SOL     OW52166   6.970   3.754   2.003 -0.0675  0.1201 -0.3782
16720SOL    HW152167   6.916   3.754   1.923 -1.2964 -0.1550  0.4264
16720SOL    HW252168   6.996   3.846   2.013 -1.4034  0.4962 -0.1347
16721SOL     OW52169   7.555   2.989   4.999  0.4447 -0.4097  0.2915
16721SOL    HW152170   7.630   2.980   4.941  0.3205 -0.4933  0.1416
16721SOL    HW252171   7.564   3.076   5.038  0.9018 -0.6242  0.6748
16722SOL     OW52172   3.657   2.016   6.024  0.3382  0.6660 -0.0843
16722SOL    HW152173   3.568   2.030   5.993  0.2716  1.6294  0.5170
16722SOL    HW252174   3.665   1.921   6.033 -1.2216  0.6409  1.5694
16723SOL     OW52175  10.761   9.311   8.297 -0.0737  0.0436 -0.1437
16723SOL    HW152176  10.839   9.263   8.327  1.0887  0.4676 -2.2595
16723SOL    HW252177  10.784   9.403   8.311 -0.9601  0.1281  0.8628
16724SOL     OW52178   7.648   1.834   3.266 -0.0182 -0.1149 -0.4784
16724SOL    HW152179   7.690   1.749   3.257 -1.3106 -1.5000  4.0525
16724SOL    HW252180   7.557   1.814   3.288 -0.8104  2.5611 -0.9190
16725SOL     OW52181   5.547   9.153   3.001  0.5711  0.4175  0.0402
16725SOL    HW152182   5.627   9.102   2.985 -0.4050 -1.3092  0.3985
16725SOL    HW252183   5.488   9.127   2.930 -1.0482 -1.4093  1.9081
16726SOL     OW52184   0.910   2.748   7.344  0.3139 -0.8972  0.1732
16726SOL    HW152185   0.850   2.819   7.366  0.6531  0.2690 -2.2495
16726SOL    HW252186   0.858   2.668   7.350 -0.9164 -0.1214  0.0712
16727SOL     OW52187   6.033   3.310  10.020 -0.1430  0.9192 -0.0572
16727SOL    HW152188   6.039   3.293   9.926 -0.0839  1.0139 -0.0713
16727SOL    HW252189   6.124   3.310  10.049 -0.2584 -1.7141  0.4956
16728SOL     OW52190   6.151   2.834   6.729 -0.9078  0.0206 -0.4673
16728SOL    HW152191   6.147   2.850   6.635 -0.5927  0.6299 -0.3830
16728SOL    HW252192   6.208   2.758   6.738 -0.0549  0.6161 -0.7130
16729SOL     OW52193   3.807   1.278   5.313 -0.1775  0.3324 -0.4472
16729SOL    HW152194   3.903   1.273   5.316 -0.0026  2.6532  2.0809
16729SOL    HW252195   3.789   1.359   5.265 -0.8195  0.5254  0.1118
16730SOL     OW52196  10.051   6.477  10.120  0.3212 -0.2199 -0.1515
16730SOL    HW152197   9.967   6.479  10.075 -0.3278 -0.7823  0.9756
16730SOL    HW252198  10.058   6.388  10.155  1.5966 -0.3227 -0.5908
16731SOL     OW52199   7.115  10.211   3.746  0.4863  0.6934 -0.7953
16731SOL    HW152200   7.084  10.302   3.744 -1.0258  0.4332  2.6780
16731SOL    HW252201   7.035  10.159   3.749  1.2432 -0.4569  1.1728
16732SOL     OW52202  10.167   0.069   2.314  0.1145  0.0225  0.0540
16732SOL    HW152203  10.103   0.090   2.382  0.2898 -0.1643  0.2772
16732SOL    HW252204  10.214   0.152   2.300  0.0522  0.0726  0.1329
16733SOL     OW52205   6.898   8.452   0.706  0.1158 -0.1347  0.3686
16733SOL    HW152206   6.929   8.511   0.637 -1.0537  0.8658  0.6762
16733SOL    HW252207   6.929   8.365   0.678  3.3000  0.7560  0.7392
16734SOL     OW52208  10.811   0.826   9.058 -0.2454 -0.3978  0.3995
16734SOL    HW152209  10.777   0.781   8.980 -0.0145 -1.2036  0.7509
16734SOL    HW252210  10.748   0.895   9.076  0.0880  0.2882 -0.9573
16735SOL     OW52211   5.275   6.158   2.329  0.3540 -0.2074  0.1545
16735SOL    HW152212   5.251   6.134   2.240 -0.5147 -0.4442  0.4438
16735SOL    HW252213   5.202   6.211   2.360  1.9537  2.4023 -0.2614
16736SOL     OW52214   2.896   4.267   7.433  0.1692  0.5162  0.1027
16736SOL    HW152215   2.883   4.192   7.491 -0.8173 -0.3825 -1.2141
16736SOL    HW252216   2.884   4.343   7.489  0.9567 -0.2931  1.4288
16737SOL     OW52217   3.277   9.120   4.697  0.1025 -0.4108 -0.3381
16737SOL    HW152218   3.357   9.106   4.747 -0.7840 -0.8847  0.9757
16737SOL    HW252219   3.241   9.203   4.730 -1.0948 -1.3037  0.6847
16738SOL     OW52220   1.302   8.984   6.482  0.2274 -0.2725  0.4152
16738SOL    HW152221   1.236   8.937   6.431  0.4941 -0.0385 -0.1603
16738SOL    HW252222   1.363   8.917   6.511  0.0037 -0.4242  0.5404
16739SOL     OW52223  10.115  11.033   1.577  0.1848 -0.6035 -0.0285
16739SOL    HW152224  10.195  10.982   1.580  1.3962  1.2551  0.8335
16739SOL    HW252225  10.122  11.085   1.497  1.5539  2.0597  1.6750
16740SOL     OW52226   9.087  10.048   8.303 -0.3944 -0.0293  0.3427
16740SOL    HW152227   9.125   9.962   8.284 -0.4239  0.5654 -3.1388
16740SOL    HW252228   8.995  10.030   8.324 -0.1924 -0.8841  0.5368
16741SOL     OW52229   2.652   4.442   9.714 -0.3536  0.4224  0.1187
16741SOL    HW152230   2.587   4.490   9.663 -1.4278  0.2036  1.2423
16741SOL    HW252231   2.729   4.438   9.657 -0.4905  2.7925 -0.3059
16742SOL     OW52232   3.842   3.617   2.268 -0.1136  0.5361  0.0360
16742SOL    HW152233   3.904   3.687   2.289  1.8551 -1.1707  0.2337
16742SOL    HW252234   3.897   3.543   2.240 -2.1726 -0.0433 -3.1037
16743SOL     OW52235  10.901   7.316   2.005  0.0079 -0.2963 -0.0983
16743SOL    HW152236  10.986   7.279   2.030  0.2094  0.7457  0.8429
16743SOL    HW252237  10.909   7.334   1.912 -0.5267 -3.6859 -0.9393
16744SOL     OW52238   6.359   7.063  10.639  0.4485  0.3084  0.4812
16744SOL    HW152239   6.447   7.076  10.674  0.6116  1.1134 -0.1939
16744SOL    HW252240   6.326   7.152  10.626 -0.6788  0.0158  1.2446
16745SOL     OW52241   8.511   9.508   0.976 -0.2377 -0.0864 -0.1034
16745SOL    HW152242   8.533   9.514   0.883  2.5704 -1.8491  0.3250
16745SOL    HW252243   8.471   9.422   0.986 -1.4430  0.4872  0.2199
16746SOL     OW52244   3.341   9.341   9.708  0.6329 -0.3888  0.0598
16746SOL    HW152245   3.416   9.399   9.713  0.2374  0.4826 -2.5762
16746SOL    HW252246   3.269   9.390   9.748  0.2701  1.0849 -2.2606
16747SOL     OW52247  10.919   0.622   9.230  0.2372  0.0455 -0.3417
16747SOL    HW152248  10.889   0.694   9.175  1.9438  0.6382 -0.5475
16747SOL    HW252249  11.014   0.624   9.222  0.3570 -1.7587  0.2643
16748SOL     OW52250   2.859   8.578   0.301 -0.4192  0.4013 -0.1571
16748SOL    HW152251   2.878   8.503   0.245 -0.0806 -0.8130  1.4995
16748SOL    HW252252   2.767   8.598   0.285 -1.4449 -2.3751  1.5381
16749SOL     OW52253   0.485   8.511   1.684 -0.7333 -0.1440 -0.1579
16749SOL    HW152254   0.574   8.544   1.693  0.2311 -2.6357  0.2039
16749SOL    HW252255   0.433   8.588   1.660  1.7474  1.1335 -1.8738
16750SOL     OW52256   2.014   6.183   8.802  0.1073  0.0539  0.2372
16750SOL    HW152257   2.099   6.153   8.769  0.0627  1.3192 -1.1309
16750SOL    HW252258   1.954   6.110   8.784  0.3773  0.1749 -1.2441
16751SOL     OW52259   0.861   5.828   1.181 -0.5807 -0.3800  0.4808
16751SOL    HW152260   0.775   5.861   1.210 -0.2264  1.5131 -0.5092
16751SOL    HW252261   0.875   5.750   1.234 -2.3285  0.0155  1.6131
16752SOL     OW52262   2.597   9.571   6.649 -0.3474  0.2548  0.4897
16752SOL    HW152263   2.554   9.582   6.564 -0.8666 -2.3522  0.3326
16752SOL    HW252264   2.526   9.565   6.712 -0.1965 -1.5148  0.5610
16753SOL     OW52265   4.978   1.706   1.367 -0.0361  0.4904  0.0688
16753SOL    HW152266   5.012   1.665   1.287  0.6664 -1.1784  1.1518
16753SOL    HW252267   5.052   1.757   1.401  0.0270  0.2867  0.2371
16754SOL     OW52268   7.723   8.857   2.154  0.8009 -0.1681 -0.9672
16754SOL    HW152269   7.795   8.907   2.190  0.0278  0.8456 -0.7868
16754SOL    HW252270   7.716   8.886   2.063  0.2327  0.2085 -0.8113
16755SOL     OW52271   5.348   9.751   9.517 -0.6191  0.2284 -0.1944
16755SOL    HW152272   5.345   9.782   9.607 -0.1886 -1.1971  0.3414
16755SOL    HW252273   5.313   9.662   9.521  2.4179 -1.1079 -0.8122
16756SOL     OW52274   6.733  10.132   0.338  0.1783  0.5606 -0.2343
16756SOL    HW152275   6.676  10.110   0.265 -0.4440  1.7688 -0.1336
16756SOL    HW252276   6.774  10.049   0.363 -1.6336 -0.3699 -0.2236
16757SOL     OW52277   4.883   6.577   1.297  0.1217 -0.0397  0.0200
16757SOL    HW152278   4.849   6.577   1.208 -0.1191 -1.1896  0.1014
16757SOL    HW252279   4.898   6.670   1.317  0.6483  0.2043 -1.3874
16758SOL     OW52280   7.435   5.575   5.609 -0.0341 -0.3119 -0.9340
16758SOL    HW152281   7.389   5.641   5.661  0.9361  0.5206 -1.0816
16758SOL    HW252282   7.375   5.553   5.538  0.1873  1.5787 -1.7680
16759SOL     OW52283   2.402   0.129   3.841 -0.7421  0.5228 -0.0026
16759SOL    HW152284   2.477   0.103   3.788 -0.3054 -0.3921  1.0268
16759SOL    HW252285   2.366   0.205   3.796  0.5407  0.7150 -0.7528
16760SOL     OW52286   7.022   9.235   9.092 -0.0957  0.0991 -0.1917
16760SOL    HW152287   7.055   9.292   9.023  0.8872 -0.6462 -0.3466
16760SOL    HW252288   7.030   9.287   9.172 -1.3680  1.0194 -0.6194
16761SOL     OW52289   0.744   8.345   3.182  0.4653  0.0153 -0.4838
16761SOL    HW152290   0.761   8.256   3.212  3.6526  0.6918  0.0594
16761SOL    HW252291   0.725   8.395   3.262 -0.9360 -0.0525 -0.7468
16762SOL     OW52292   2.838  10.804   3.487 -0.1445  0.1871 -0.3580
16762SOL    HW152293   2.829  10.717   3.524 -0.3730  0.4612  0.2420
16762SOL    HW252294   2.760  10.815   3.432 -1.6988  1.1325  1.9075
16763SOL     OW52295   9.217   5.122   4.405  0.7654  0.1121  0.1513
16763SOL    HW152296   9.122   5.109   4.406  0.8296 -0.6581  2.2359
16763SOL    HW252297   9.228   5.214   4.379 -0.5503  0.2513  0.0081
16764SOL     OW52298   2.388   1.922   7.984 -0.1899 -0.0306  0.0812
16764SOL    HW152299   2.441   1.973   8.045 -0.2401 -0.7386  0.7228
16764SOL    HW252300   2.323   1.984   7.951  1.1437  0.9135 -0.8791
16765SOL     OW52301   8.588   3.898  10.875 -0.5539 -0.0594 -0.0647
16765SOL    HW152302   8.635   3.899  10.958  0.0034 -0.4263 -0.3647
16765SOL    HW252303   8.646   3.850  10.815 -1.1263 -0.1600 -0.5562
16766SOL     OW52304   6.595   0.527   2.879 -0.3921  0.8493  0.0453
16766SOL    HW152305   6.602   0.516   2.974 -0.6516 -1.1077 -0.1305
16766SOL    HW252306   6.531   0.597   2.868 -2.1680 -0.5064  1.3145
16767SOL     OW52307   2.129   6.958   9.829  0.3064 -0.0182 -0.2556
16767SOL    HW152308   2.120   6.902   9.751 -1.2470 -0.8555  0.4863
16767SOL    HW252309   2.187   6.908   9.887 -0.0438 -0.2727 -0.1197
16768SOL     OW52310   2.118   2.192   4.459 -0.3905  0.2295  0.0655
16768SOL    HW152311   2.067   2.175   4.538  0.0653 -0.6551  0.1846
16768SOL    HW252312   2.053   2.192   4.389 -0.5678 -0.9493  0.2039
16769SOL     OW52313   5.321   0.326   4.912 -0.3526  0.1448  0.1772
16769SOL    HW152314   5.364   0.411   4.920  0.4970 -0.2448 -0.2016
16769SOL    HW252315   5.335   0.284   4.997  2.0393 -0.8975 -0.6439
16770SOL     OW52316   1.161   6.424   2.844 -0.2511  0.5732  0.0113
16770SOL    HW152317   1.240   6.477   2.843 -0.2236  0.5326 -1.1245
16770SOL    HW252318   1.136   6.420   2.937  0.1316  1.9679  0.1952
16771SOL     OW52319   8.719   3.760  10.304 -0.2943  0.0457 -0.5142
16771SOL    HW152320   8.635   3.720  10.283  0.0770 -0.9842 -0.1332
16771SOL    HW252321   8.749   3.713  10.382  2.0407 -1.8053 -2.3748
16772SOL     OW52322   9.233   7.261   8.832  0.0078 -0.1456 -0.0386
16772SOL    HW152323   9.318   7.254   8.876 -1.4643 -1.5059  2.8808
16772SOL    HW252324   9.211   7.354   8.839  1.8671  0.5533 -2.2934
16773SOL     OW52325  10.569   5.816   6.830  0.6922  0.4131  0.1257
16773SOL    HW152326  10.537   5.830   6.741 -0.9080  0.0790  0.6253
16773SOL    HW252327  10.574   5.903   6.868  0.0905  0.4452  0.1333
16774SOL     OW52328   6.131   6.325   0.135 -0.2781 -0.3674  0.2841
16774SOL    HW152329   6.084   6.368   0.206  2.7629  1.5619  1.3155
16774SOL    HW252330   6.110   6.377   0.058 -0.3570  0.0792  0.6003
16775SOL     OW52331   9.886   3.064   8.626 -0.2343  0.0880  0.3781
16775SOL    HW152332   9.902   3.042   8.534  1.5612  0.1379  0.6384
16775SOL    HW252333   9.955   3.017   8.673 -0.4578  0.9468  1.5926
16776SOL     OW52334   4.867   6.537   0.347 -0.9036 -0.3538 -0.0702
16776SOL    HW152335   4.882   6.471   0.414  0.1647 -1.4136 -1.2997
16776SOL    HW252336   4.879   6.621   0.392  1.0390 -1.0453  0.8064
16777SOL     OW52337   5.385   7.729   0.150  0.0134 -0.3002 -0.8803
16777SOL    HW152338   5.433   7.652   0.181 -0.3029 -0.0042  0.4183
16777SOL    HW252339   5.452   7.798   0.146 -0.1387 -0.0635  0.2581
16778SOL     OW52340   1.295   3.413  10.285 -0.3058  0.3819 -0.4031
16778SOL    HW152341   1.261   3.389  10.372  0.5901  0.5830  0.0173
16778SOL    HW252342   1.226   3.466  10.246 -0.2916  1.1920  0.6226
16779SOL     OW52343   8.437   1.656   6.405 -0.3415 -0.4768  0.1880
16779SOL    HW152344   8.445   1.596   6.330  1.3015 -2.1819  1.6248
16779SOL    HW252345   8.385   1.607   6.469 -0.0727  0.1474  0.8962
16780SOL     OW52346   0.643   9.742   5.518 -0.1773 -0.3189 -0.0543
16780SOL    HW152347   0.734   9.767   5.537 -0.7812  1.8385  0.2320
16780SOL    HW252348   0.641   9.648   5.534  2.3009 -0.6727 -1.2820
16781SOL     OW52349   7.911   7.412   7.726 -0.4739 -0.6881 -0.6980
16781SOL    HW152350   7.947   7.483   7.779 -1.6906 -0.9641  0.5545
16781SOL    HW252351   7.944   7.332   7.768 -0.7952 -0.8964 -0.8445
16782SOL     OW52352   5.972   2.650   1.908  0.2491  0.1607 -0.2925
16782SOL    HW152353   5.877   2.663   1.915  0.4399  1.3388  0.2700
16782SOL    HW252354   5.981   2.557   1.887 -0.9553 -0.4644  1.6981
16783SOL     OW52355   7.443   3.145  10.462  0.2586  0.3131 -0.4050
16783SOL    HW152356   7.474   3.096  10.538  2.1477  0.1600 -1.2035
16783SOL    HW252357   7.378   3.089  10.421  0.1949 -0.1824  0.3661
16784SOL     OW52358   8.690   3.244   8.500  0.3740  0.7864 -0.3023
16784SOL    HW152359   8.612   3.277   8.455  1.3416 -0.3730 -3.0651
16784SOL    HW252360   8.761   3.303   8.473  1.1346 -0.4141 -1.0357
16785SOL     OW52361   9.749   2.636   2.276  0.0583  0.8586  0.2466
16785SOL    HW152362   9.816   2.688   2.321 -1.0638  0.3648  2.6748
16785SOL    HW252363   9.688   2.612   2.345 -0.1058 -2.7244 -0.9482
16786SOL     OW52364   0.872   9.502   4.018 -0.8330  0.3856  0.1704
16786SOL    HW152365   0.966   9.501   3.998 -0.4774 -0.3208  1.6778
16786SOL    HW252366   0.832   9.545   3.943  0.7489  1.1288 -0.2973
16787SOL     OW52367   5.930   2.987   8.253 -0.6394  0.5158  0.0444
16787SOL    HW152368   5.839   2.999   8.279 -0.9048  0.4169 -0.8167
16787SOL    HW252369   5.930   2.906   8.202 -0.1025  0.6153 -0.1180
16788SOL     OW52370   3.740   0.923   2.295  0.2860  0.0698  0.2499
16788SOL    HW152371   3.754   0.831   2.314  0.5443 -0.0362 -0.4001
16788SOL    HW252372   3.726   0.964   2.380 -0.0971 -0.6080  0.5221
16789SOL     OW52373   3.177   0.047   2.964  0.4139  0.2284 -0.5411
16789SOL    HW152374   3.178  -0.041   3.002 -0.0277  0.5412  0.2175
16789SOL    HW252375   3.232   0.040   2.886 -0.2210 -0.9142 -0.9172
16790SOL     OW52376   0.677   7.253   5.303  0.4101 -0.8951 -0.5779
16790SOL    HW152377   0.699   7.346   5.296  1.9493 -1.0949  0.8995
16790SOL    HW252378   0.613   7.238   5.234  0.2881  1.2135 -0.9830
16791SOL     OW52379   7.021   4.588   2.722 -0.1098 -0.3001 -0.1849
16791SOL    HW152380   7.113   4.603   2.702  0.5449 -1.2396  1.9559
16791SOL    HW252381   7.004   4.642   2.799 -1.0143 -1.0981  0.1848
16792SOL     OW52382   4.520   3.013   1.500  0.2530 -0.5785 -0.3402
16792SOL    HW152383   4.539   3.085   1.560  2.5363 -1.9680  0.7170
16792SOL    HW252384   4.604   2.990   1.462 -0.6709 -1.7396 -1.8049
16793SOL     OW52385  10.867  10.923   4.182  0.1462  0.0122  0.0023
16793SOL    HW152386  10.857  10.978   4.105 -0.1084 -2.5542 -1.9116
16793SOL    HW252387  10.961  10.912   4.193  0.1607 -0.5053 -0.6270
16794SOL     OW52388   0.220   5.688   6.719  0.4438  0.6942  0.0848
16794SOL    HW152389   0.173   5.769   6.698  0.8208  1.0103  0.4330
16794SOL    HW252390   0.252   5.657   6.634 -1.0782  0.0164 -0.2831
16795SOL     OW52391   1.120   4.659   5.577 -0.3796 -0.4208  0.1693
16795SOL    HW152392   1.073   4.737   5.547 -1.7347 -1.7361 -1.3377
16795SOL    HW252393   1.147   4.615   5.496  2.9148 -0.1112  0.9706
16796SOL     OW52394   3.674   9.334   1.579  0.0837 -0.0626  0.0632
16796SOL    HW152395   3.708   9.376   1.500  1.0417 -0.4674  0.2449
16796SOL    HW252396   3.717   9.379   1.651 -0.9308  0.4266  0.3732
16797SOL     OW52397   1.003   9.871   3.669 -0.5252  0.3190 -0.0884
16797SOL    HW152398   1.091   9.840   3.693 -0.5214 -0.2022 -0.7579
16797SOL    HW252399   1.015   9.963   3.648  0.1505 -0.0753 -1.5851
16798SOL     OW52400   4.719   7.545   1.995  0.0470  0.1585  0.4607
16798SOL    HW152401   4.778   7.501   2.056  0.5371 -0.9273 -0.7538
16798SOL    HW252402   4.777   7.588   1.933 -0.4522  0.7035  0.3621
16799SOL     OW52403   4.214   3.083   3.840  0.0253  0.1478 -0.2566
16799SOL    HW152404   4.248   3.013   3.784 -0.5730  0.5925 -1.1920
16799SOL    HW252405   4.161   3.038   3.905  2.2247 -0.5543  1.1434
16800SOL     OW52406   0.208   9.773   6.455  0.1366  0.3011  0.4468
16800SOL    HW152407   0.210   9.677   6.455  0.0050  0.2668 -1.2837
16800SOL    HW252408   0.236   9.797   6.543  2.5232 -1.2960  0.2150
16801SOL     OW52409   8.946   7.145   1.455 -0.3969  0.2210  0.0522
16801SOL    HW152410   8.857   7.119   1.479 -0.1338 -0.1939  0.5867
16801SOL    HW252411   8.934   7.203   1.379 -1.0872 -0.1859 -0.1573
16802SOL     OW52412   7.846   4.547   9.462 -0.3370  0.2874  0.4078
16802SOL    HW152413   7.858   4.596   9.381 -0.0691 -0.4774 -0.0245
16802SOL    HW252414   7.751   4.533   9.469 -0.2551 -0.9794 -0.5995
16803SOL     OW52415   3.163   7.347   4.478  0.1325 -0.1002 -0.5511
16803SOL    HW152416   3.113   7.280   4.525 -1.5149  1.3112 -0.1742
16803SOL    HW252417   3.103   7.421   4.471  1.5215  0.9718 -1.8916
16804SOL     OW52418   2.277   0.218   1.711  0.2279  0.0258 -0.3945
16804SOL    HW152419   2.209   0.150   1.707  0.7417 -0.4523 -1.8650
16804SOL    HW252420   2.240   0.291   1.661  1.1092 -0.5787 -2.0059
16805SOL     OW52421   1.788   1.709   6.439 -0.2692 -0.7880 -0.1778
16805SOL    HW152422   1.801   1.630   6.491 -0.5965 -0.7814 -0.0795
16805SOL    HW252423   1.862   1.712   6.379  0.2283 -0.6856  0.4376
16806SOL     OW52424  10.747   0.559   2.863  0.4221 -0.5112  0.1378
16806SOL    HW152425  10.713   0.548   2.775  0.6455 -0.2174  0.0144
16806SOL    HW252426  10.810   0.631   2.856 -0.9189  0.7883  0.9012
16807SOL     OW52427   3.352   4.289   6.687 -0.4875  0.5700  0.2347
16807SOL    HW152428   3.259   4.274   6.698 -0.6767  1.8642  0.5428
16807SOL    HW252429   3.371   4.255   6.599 -0.9644 -0.8434  0.6466
16808SOL     OW52430   9.569   1.548   6.768 -0.1233 -0.4610 -0.2135
16808SOL    HW152431   9.484   1.509   6.788 -1.2509  0.9271 -1.9567
16808SOL    HW252432   9.548   1.627   6.718  2.1225  1.2303  1.3096
16809SOL     OW52433   3.465   7.889   2.660  0.4214  0.2650 -0.8546
16809SOL    HW152434   3.517   7.931   2.728 -0.5660  2.4074 -1.3552
16809SOL    HW252435   3.512   7.906   2.579 -0.5170  1.3722 -1.1906
16810SOL     OW52436   3.939   2.015   8.628  0.3746 -0.0559 -0.2971
16810SOL    HW152437   3.851   2.040   8.599 -0.7084 -1.1612  1.7862
16810SOL    HW252438   3.979   2.096   8.658 -0.4820  0.2423  0.0547
16811SOL     OW52439   9.239  10.509  10.040 -0.4161  0.2757 -0.0432
16811SOL    HW152440   9.323  10.516   9.995  0.3181  1.3077  1.4053
16811SOL    HW252441   9.186  10.453   9.984  1.1948 -0.2937 -1.0583
16812SOL     OW52442  10.642  10.089   8.785  0.1304  0.2627  0.4960
16812SOL    HW152443  10.551  10.099   8.814 -0.0566  0.7276 -0.2214
16812SOL    HW252444  10.674  10.011   8.831 -1.3706 -1.3507 -1.0337
16813SOL     OW52445   4.829   9.012   8.472 -0.3317  0.6891  0.3679
16813SOL    HW152446   4.850   9.048   8.558 -0.5637  1.0174  0.2910
16813SOL    HW252447   4.850   9.082   8.411 -1.4166  0.9527  0.2719
16814SOL     OW52448   3.508   8.533   7.507 -0.4359  0.5408  0.0583
16814SOL    HW152449   3.560   8.569   7.579 -0.2594  2.6074 -1.0027
16814SOL    HW252450   3.420   8.526   7.543  0.1203 -0.9159  1.2196
16815SOL     OW52451   9.146   2.436   7.124  0.2741  0.3801  0.0581
16815SOL    HW152452   9.180   2.352   7.092 -0.9142  0.0998 -0.5283
16815SOL    HW252453   9.195   2.502   7.076  0.4266 -0.0093 -0.3294
16816SOL     OW52454   0.051   8.603   8.900  0.0288 -0.3200  0.0189
16816SOL    HW152455   0.039   8.698   8.889  0.4498 -0.3311 -0.6122
16816SOL    HW252456  -0.009   8.579   8.970  3.1462  1.2028  3.5558
16817SOL     OW52457   1.775   4.632   3.916 -0.4967  0.2778  0.0514
16817SOL    HW152458   1.796   4.602   4.004 -2.9464 -2.1979 -0.0620
16817SOL    HW252459   1.779   4.553   3.862 -1.2135  1.3228 -1.6172
16818SOL     OW52460   2.277   5.605   6.210  0.0527  0.2957 -0.1865
16818SOL    HW152461   2.328   5.535   6.250 -0.9996 -2.3291 -3.0664
16818SOL    HW252462   2.191   5.599   6.252  0.7574  1.8688  1.6010
16819SOL     OW52463   7.399   7.234   4.512 -0.9318  0.3610 -0.2869
16819SOL    HW152464   7.427   7.295   4.444 -0.0476  1.7559  1.2510
16819SOL    HW252465   7.309   7.212   4.490 -1.6647  3.1052 -0.3384
16820SOL     OW52466   2.716   5.899   4.280 -0.4594  0.3522  0.4619
16820SOL    HW152467   2.792   5.849   4.311  1.4816  2.5870 -0.3350
16820SOL    HW252468   2.668   5.838   4.224  0.6252 -1.2034  1.1507
16821SOL     OW52469  10.183   4.845   9.254 -0.4122 -0.1628 -0.4455
16821SOL    HW152470  10.172   4.938   9.274  1.2416 -0.1338  0.4392
16821SOL    HW252471  10.251   4.843   9.186 -0.9227 -0.7019 -0.9551
16822SOL     OW52472   0.803   5.220   3.675 -0.1654  0.1579 -0.2952
16822SOL    HW152473   0.807   5.223   3.580 -0.2742  0.9643 -0.2790
16822SOL    HW252474   0.851   5.141   3.699  0.3474  0.2569 -0.9890
16823SOL     OW52475   0.969  10.508   1.144 -0.0572  0.0846 -0.0500
16823SOL    HW152476   0.959  10.563   1.221  0.1686 -0.3565  0.2992
16823SOL    HW252477   1.015  10.430   1.176  0.6081  0.1766 -0.7542
16824SOL     OW52478   1.211   9.432   7.883  0.1429  0.1501 -0.5908
16824SOL    HW152479   1.117   9.420   7.870 -0.2255  0.9587  1.0843
16824SOL    HW252480   1.251   9.366   7.826 -1.4316 -0.3122 -1.2249
16825SOL     OW52481   2.518  10.701   8.364  0.3314 -0.3332 -0.1194
16825SOL    HW152482   2.481  10.737   8.283 -2.3041 -0.9254  0.7335
16825SOL    HW252483   2.574  10.772   8.398 -0.2435  0.7530 -1.3499
16826SOL     OW52484   0.034   2.615   4.638  0.4803  0.1711  0.0703
16826SOL    HW152485   0.053   2.629   4.546 -1.1526  0.8317 -0.2045
16826SOL    HW252486   0.018   2.703   4.673  0.0171 -0.1609  0.7219
16827SOL     OW52487   1.021   9.994   6.077  0.0334  0.5043 -0.0726
16827SOL    HW152488   0.984  10.049   6.147  0.3187  1.0239 -0.3192
16827SOL    HW252489   1.057  10.057   6.014  2.8130  0.0582  0.9285
16828SOL     OW52490   3.933   6.950   2.298  0.2682 -0.2460  0.1517
16828SOL    HW152491   3.969   6.900   2.371 -1.3819 -1.5761  0.0920
16828SOL    HW252492   3.976   7.036   2.305  0.0132 -0.2588  2.7832
16829SOL     OW52493   0.525   5.199   2.893  0.0115 -0.0565  0.1650
16829SOL    HW152494   0.572   5.123   2.857 -0.9946 -0.8179  0.4280
16829SOL    HW252495   0.486   5.241   2.816 -1.2664 -1.0869  0.2196
16830SOL     OW52496  10.116   5.456   0.975 -0.3111 -0.0386 -0.7878
16830SOL    HW152497  10.076   5.390   0.918 -0.6450  0.0268 -0.6358
16830SOL    HW252498  10.205   5.467   0.942 -0.0076 -1.1081 -0.3679
16831SOL     OW52499   3.912   4.756   8.220 -0.4724  0.1912 -0.1519
16831SOL    HW152500   3.967   4.830   8.247 -0.7468 -0.7740  3.6006
16831SOL    HW252501   3.876   4.722   8.302 -3.0355 -2.0686 -2.0467
16832SOL     OW52502   5.120   3.203   0.472 -0.7222 -0.2679  0.7557
16832SOL    HW152503   5.194   3.260   0.490 -2.0893  1.3641  1.5451
16832SOL    HW252504   5.150   3.144   0.403  1.6080 -0.3507  1.7733
16833SOL     OW52505   8.432   8.968   8.112 -0.2282 -0.1582  0.3876
16833SOL    HW152506   8.469   9.056   8.119 -1.6514  0.5191 -0.1066
16833SOL    HW252507   8.403   8.948   8.201 -1.0371  0.4317  0.2778
16834SOL     OW52508   0.091   8.705   7.959  0.0479  0.5243  0.4420
16834SOL    HW152509   0.095   8.610   7.948 -0.0008  0.5832 -0.1069
16834SOL    HW252510   0.138   8.740   7.884 -2.3055  0.9852 -0.9288
16835SOL     OW52511   1.108  10.655  10.219  0.6897 -0.2321 -0.1057
16835SOL    HW152512   1.127  10.702  10.137 -0.9663 -0.3302 -0.5794
16835SOL    HW252513   1.115  10.722  10.287  1.4286 -0.0007 -0.3980
16836SOL     OW52514   2.417   2.078   3.424 -0.6072 -0.3665  0.0117
16836SOL    HW152515   2.418   2.170   3.453 -1.0736 -0.3621  0.0181
16836SOL    HW252516   2.496   2.069   3.371  0.3173 -0.3951  1.3392
16837SOL     OW52517   2.566   3.107   9.478  0.3309  0.1571  0.2700
16837SOL    HW152518   2.552   3.054   9.400  0.7959  0.0740  0.2412
16837SOL    HW252519   2.490   3.089   9.534  0.3239 -0.2858  0.1204
16838SOL     OW52520   3.057   9.069  10.220  0.3752 -0.8895 -0.7874
16838SOL    HW152521   3.074   9.121  10.298  0.3435 -1.3672 -0.4613
16838SOL    HW252522   3.070   8.979  10.247  1.5267 -1.0078 -1.6256
16839SOL     OW52523   1.765   3.102   2.794  0.2236  0.3112  0.2095
16839SOL    HW152524   1.828   3.090   2.865 -0.0619 -0.7686  0.3052
16839SOL    HW252525   1.814   3.080   2.715 -0.2216 -1.4231  0.3596
16840SOL     OW52526   2.338   4.575   3.974 -0.1998 -0.0524  0.7600
16840SOL    HW152527   2.330   4.483   3.998  0.2153 -0.0593  0.8891
16840SOL    HW252528   2.271   4.589   3.907  0.6198 -0.8001 -0.2566
16841SOL     OW52529   5.938  10.318   7.110  0.1780  0.3419 -0.0977
16841SOL    HW152530   5.930  10.333   7.204  0.7154  0.9520 -0.1422
16841SOL    HW252531   5.851  10.288   7.083  0.4264 -1.4306  0.8598
16842SOL     OW52532   0.840   8.710   2.682  0.3967 -0.1057  0.4816
16842SOL    HW152533   0.814   8.654   2.609  0.5369  1.9565 -1.2261
16842SOL    HW252534   0.777   8.689   2.751  1.2610 -3.3209  0.4849
16843SOL     OW52535   3.913  10.599  10.948 -0.4651  0.0878  0.2672
16843SOL    HW152536   3.926  10.536  10.877  0.4641  0.7151 -0.1373
16843SOL    HW252537   3.956  10.679  10.918  0.2317  0.2713  1.6609
16844SOL     OW52538   4.943   3.830   6.594 -0.7518  0.6013  0.5419
16844SOL    HW152539   4.959   3.818   6.687  0.2477  1.0731  0.4482
16844SOL    HW252540   4.854   3.797   6.580 -0.9455  0.6138  1.6675
16845SOL     OW52541   2.324   2.466   7.920 -0.0654 -0.4444 -0.6649
16845SOL    HW152542   2.293   2.412   7.993 -2.4961  0.8259 -0.6600
16845SOL    HW252543   2.282   2.429   7.843  0.1564  0.0052 -1.0046
16846SOL     OW52544   6.957  10.807   8.738 -0.3267 -0.3966 -0.7151
16846SOL    HW152545   7.037  10.792   8.688 -0.2213  1.2066 -1.0806
16846SOL    HW252546   6.905  10.728   8.724  1.4885 -1.8040  0.1725
16847SOL     OW52547   8.581   1.559   6.684  0.8783  0.1506 -0.4703
16847SOL    HW152548   8.555   1.516   6.603  0.3130 -0.3658 -0.0325
16847SOL    HW252549   8.670   1.588   6.669  1.6053 -1.9428 -0.5055
16848SOL     OW52550   8.036   9.622   2.883  0.0631 -0.1856 -0.9782
16848SOL    HW152551   8.131   9.625   2.894 -0.1585 -1.2535  2.3124
16848SOL    HW252552   8.007   9.552   2.942 -2.8158  0.4468 -1.4851
16849SOL     OW52553   8.858   7.216   4.066 -0.0607  0.3760 -0.2275
16849SOL    HW152554   8.898   7.303   4.067  0.9797 -0.0838  0.6850
16849SOL    HW252555   8.804   7.215   3.987  1.1704  1.2978 -1.1212
16850SOL     OW52556   9.770   9.001   4.786 -0.6453 -0.0676  0.1204
16850SOL    HW152557   9.767   8.914   4.827  0.0378  0.3107  1.0136
16850SOL    HW252558   9.743   9.061   4.856  4.0507  1.0035  1.3540
16851SOL     OW52559   2.484   5.600   4.773 -0.0479  0.0432  0.3187
16851SOL    HW152560   2.425   5.675   4.780 -1.5925 -1.0162 -0.6944
16851SOL    HW252561   2.522   5.607   4.685 -0.2538 -0.4005  0.1933
16852SOL     OW52562   0.762  10.394   9.334  0.0864  0.4171  0.1751
16852SOL    HW152563   0.683  10.398   9.281 -0.9259  1.2928  1.6843
16852SOL    HW252564   0.771  10.302   9.359  1.1696 -0.2188 -2.2912
16853SOL     OW52565   7.564   2.972   8.215  0.1983 -0.1959  0.3204
16853SOL    HW152566   7.512   3.045   8.247  1.0436  0.2967  0.6013
16853SOL    HW252567   7.596   2.928   8.294 -1.5935 -1.8485  0.1908
16854SOL     OW52568   6.389   8.163   4.657 -0.1615  0.1506  0.0324
16854SOL    HW152569   6.424   8.102   4.591  1.4253 -0.1200  1.0702
16854SOL    HW252570   6.327   8.217   4.608 -1.6030 -2.2125 -0.9627
16855SOL     OW52571   3.630   7.828   3.366  0.0678  0.4020 -0.2506
16855SOL    HW152572   3.647   7.739   3.398 -0.2340  0.0937 -0.9450
16855SOL    HW252573   3.718   7.867   3.357  0.4366 -0.8131 -2.7349
16856SOL     OW52574   4.068   2.281   6.541  0.4040  0.4001 -0.2032
16856SOL    HW152575   4.024   2.329   6.472  0.3400 -0.7398 -0.9782
16856SOL    HW252576   4.043   2.327   6.622 -1.9138  0.0193 -0.6353
16857SOL     OW52577   2.382   3.009   2.742  0.0173 -0.0935  0.5449
16857SOL    HW152578   2.374   3.088   2.689 -0.4499 -0.6239 -0.1861
16857SOL    HW252579   2.468   3.016   2.782  0.1923  0.5346  0.0722
16858SOL     OW52580   5.959   7.409   5.845  0.5542  0.2420 -0.3282
16858SOL    HW152581   6.007   7.402   5.763 -0.4382 -1.6025 -0.8166
16858SOL    HW252582   5.957   7.320   5.880  0.3900  0.8725  1.3829
16859SOL     OW52583   5.923   2.387   0.183 -0.1159 -0.1858  0.1323
16859SOL    HW152584   5.954   2.364   0.096  0.4497 -0.5762  0.4304
16859SOL    HW252585   5.857   2.454   0.168  0.8365  0.6386 -0.5383
16860SOL     OW52586   1.966   1.669   4.010 -0.1687  0.4188 -0.0594
16860SOL    HW152587   1.979   1.759   3.980 -1.8246  0.7749  0.1830
16860SOL    HW252588   2.008   1.666   4.097  0.0784  0.8914 -0.1600
16861SOL     OW52589   8.136   6.268   5.161  0.3158 -0.4212 -0.4625
16861SOL    HW152590   8.184   6.325   5.220 -1.0636  0.1048  0.1946
16861SOL    HW252591   8.069   6.227   5.216 -1.5202  0.6761 -1.7751
16862SOL     OW52592   2.985   3.006   3.163  0.0363  0.3316 -0.0339
16862SOL    HW152593   2.932   3.016   3.084  0.4503  1.0844 -0.2251
16862SOL    HW252594   3.076   3.013   3.132  0.2198  0.0039  0.4228
16863SOL     OW52595   8.243   5.994  10.781  0.3947 -0.5877  0.4782
16863SOL    HW152596   8.325   5.955  10.811 -0.6254 -3.0507  0.3697
16863SOL    HW252597   8.261   6.087  10.776  2.6582 -0.8398  2.1233
16864SOL     OW52598   1.167   9.958   5.339 -0.2034 -0.0152  0.5272
16864SOL    HW152599   1.243  10.001   5.300 -1.2971  0.6543 -0.9383
16864SOL    HW252600   1.196   9.868   5.355  0.2583 -0.4058 -2.0863
16865SOL     OW52601   0.493   2.306   1.537 -1.1893 -0.0032 -0.1426
16865SOL    HW152602   0.404   2.335   1.516 -0.5768  0.9845 -1.5331
16865SOL    HW252603   0.498   2.312   1.632 -2.5396  0.1573 -0.0636
16866SOL     OW52604   7.394   3.486   8.298  0.6557  0.4885 -0.3871
16866SOL    HW152605   7.401   3.580   8.315  1.4256  0.4607 -0.4990
16866SOL    HW252606   7.304   3.464   8.322 -0.2384  1.6618 -2.3710
16867SOL     OW52607   6.705  10.134   2.200 -0.1940  0.0400 -0.8058
16867SOL    HW152608   6.662  10.145   2.285 -0.4637 -0.3935 -0.8837
16867SOL    HW252609   6.761  10.057   2.211  0.3618  0.4359 -0.7911
16868SOL     OW52610   5.386  10.159   5.986  0.1582 -0.2284 -0.1950
16868SOL    HW152611   5.344  10.234   5.944 -0.3651 -0.1778  0.4079
16868SOL    HW252612   5.479  10.170   5.965  0.0417  0.3887 -0.4202
16869SOL     OW52613   9.279   2.131  10.220 -0.5629  0.1589  0.8749
16869SOL    HW152614   9.242   2.045  10.240  0.5829 -1.8778 -4.2028
16869SOL    HW252615   9.371   2.124  10.248 -0.7462  0.2049  1.5098
16870SOL     OW52616   8.099   4.529   4.937 -0.2404 -0.3067  0.4492
16870SOL    HW152617   8.142   4.612   4.916 -0.4391 -0.8072 -2.3905
16870SOL    HW252618   8.045   4.548   5.013  1.4366  1.5379  1.2785
16871SOL     OW52619   6.252   2.228  10.110 -0.4543  0.2849  0.1934
16871SOL    HW152620   6.197   2.244  10.187  0.0539  1.6997  0.2927
16871SOL    HW252621   6.292   2.313  10.090  0.6031 -0.3873 -0.7298
16872SOL     OW52622   7.703   9.525   9.293 -0.6209 -0.0293 -0.2636
16872SOL    HW152623   7.715   9.460   9.224  0.0439  1.1907 -1.3282
16872SOL    HW252624   7.761   9.496   9.363  0.3550 -0.1070 -1.0801
16873SOL     OW52625   4.506   2.310   2.022  0.3397  0.0228  0.1357
16873SOL    HW152626   4.492   2.380   1.958 -3.5122 -0.5501  0.1178
16873SOL    HW252627   4.554   2.243   1.973  0.4857  0.9936 -1.1097
16874SOL     OW52628   7.649   6.135   0.647  0.0735  0.3397 -0.4728
16874SOL    HW152629   7.601   6.053   0.659  0.4632  0.2043  0.2370
16874SOL    HW252630   7.707   6.118   0.574  0.8294 -0.3530  0.2664
16875SOL     OW52631   9.860   6.959   7.044  0.5134 -0.1598 -0.2835
16875SOL    HW152632   9.800   6.987   7.113  0.7027 -0.4583  0.0034
16875SOL    HW252633   9.804   6.950   6.967 -0.0936 -1.7956  0.3071
16876SOL     OW52634   1.403   8.842   8.216  0.1485  0.3519  0.5319
16876SOL    HW152635   1.410   8.799   8.301 -1.0136  0.7903  0.8626
16876SOL    HW252636   1.309   8.842   8.197  0.4512 -0.5191 -1.1600
16877SOL     OW52637   5.037   2.529   4.756 -0.5197  0.4947 -0.0104
16877SOL    HW152638   5.109   2.544   4.695 -0.1059 -0.8316  0.1358
16877SOL    HW252639   4.972   2.596   4.733  1.0271  2.2067  0.3295
16878SOL     OW52640   7.143   7.124   9.205  0.0844 -0.2881  0.1964
16878SOL    HW152641   7.115   7.214   9.222 -0.3839 -0.3352 -0.3198
16878SOL    HW252642   7.096   7.072   9.271  1.3420 -0.0286  1.3532
16879SOL     OW52643   6.425   1.250  10.061 -0.2252  0.0239 -0.0521
16879SOL    HW152644   6.466   1.187  10.003  0.5173  1.1615 -0.7788
16879SOL    HW252645   6.370   1.196  10.118 -1.4505 -1.0870 -2.1515
16880SOL     OW52646   0.763   5.188   9.246 -0.1919 -0.2888  0.4121
16880SOL    HW152647   0.820   5.112   9.231 -0.7450 -0.7442  0.5950
16880SOL    HW252648   0.823   5.259   9.269  0.5128 -0.1791 -1.5314
16881SOL     OW52649   5.289   0.467   2.282  0.3207 -0.6950  0.2049
16881SOL    HW152650   5.280   0.543   2.339  1.5869 -0.4186  0.0630
16881SOL    HW252651   5.258   0.498   2.197  0.3622 -0.4892  0.2628
16882SOL     OW52652   8.770   5.538  10.422 -0.3072 -0.1951  0.6437
16882SOL    HW152653   8.774   5.487  10.503  0.8142  0.6231  1.1308
16882SOL    HW252654   8.678   5.535  10.397 -0.2851 -2.4119  0.6610
16883SOL     OW52655   5.069   9.568   0.331 -0.5230  0.1541  0.0448
16883SOL    HW152656   5.089   9.658   0.306 -2.0159  0.8089  1.0446
16883SOL    HW252657   4.973   9.566   0.339 -0.4123 -1.1396  1.4383
16884SOL     OW52658   8.527   4.568   9.599 -0.0517  0.0335 -0.1247
16884SOL    HW152659   8.536   4.473   9.592 -0.3980  0.0622 -1.0431
16884SOL    HW252660   8.588   4.592   9.669  2.8636 -0.4446 -2.3296
16885SOL     OW52661   6.733   3.038   6.395  0.1311  0.1651  0.3721
16885SOL    HW152662   6.643   3.064   6.379  0.5075  1.8107  0.6895
16885SOL    HW252663   6.784   3.119   6.382  1.5663 -0.7410  0.0960
16886SOL     OW52664   1.732   8.869   6.799  0.3225  0.3028  0.2905
16886SOL    HW152665   1.798   8.828   6.855  0.3864 -0.1588 -0.1144
16886SOL    HW252666   1.699   8.798   6.744 -1.3567  0.2806  1.2702
16887SOL     OW52667   2.884   1.405   5.049 -0.7167  0.8124  0.3442
16887SOL    HW152668   2.948   1.358   5.103  1.1423  0.8789 -1.6427
16887SOL    HW252669   2.890   1.363   4.963 -2.2176  1.8821 -0.3271
16888SOL     OW52670   0.592   9.949   2.715  0.1705 -0.4826 -0.3475
16888SOL    HW152671   0.518   9.891   2.732  0.5336 -0.9239 -0.2558
16888SOL    HW252672   0.610   9.990   2.800  1.7221 -2.3783  0.3101
16889SOL     OW52673   5.873   4.052   0.711  0.0177 -0.5041 -0.6167
16889SOL    HW152674   5.830   4.037   0.796  1.6824  0.2054  0.3845
16889SOL    HW252675   5.824   4.125   0.672  0.9399  1.0560  1.0065
16890SOL     OW52676   0.498   7.407   8.466 -0.0529  0.5861 -0.4079
16890SOL    HW152677   0.432   7.383   8.400  0.7542 -1.5592 -0.5072
16890SOL    HW252678   0.450   7.408   8.549 -0.1527 -1.8340 -0.3478
16891SOL     OW52679   1.488   4.829  10.249 -0.2131  0.0765  0.3666
16891SOL    HW152680   1.397   4.819  10.221 -0.2169 -1.1893  0.7422
16891SOL    HW252681   1.540   4.797  10.175 -0.0994  0.0614  0.4524
16892SOL     OW52682   2.552   6.340   5.051  0.4992 -0.0702  0.0043
16892SOL    HW152683   2.623   6.377   5.103  1.2552  0.3037 -1.2777
16892SOL    HW252684   2.499   6.415   5.026 -0.4765 -0.3603  1.0822
16893SOL     OW52685   4.123   6.997   3.171 -0.4738 -0.4870 -0.5025
16893SOL    HW152686   4.120   7.030   3.261  0.6275 -1.2082 -0.1809
16893SOL    HW252687   4.166   6.912   3.178 -0.6022 -0.6652 -1.6880
16894SOL     OW52688   3.660   7.869   6.535 -0.0569 -0.4106  0.0879
16894SOL    HW152689   3.645   7.894   6.626  0.8389  1.0969 -0.1306
16894SOL    HW252690   3.604   7.794   6.521 -2.1597  0.8708  1.1544
16895SOL     OW52691   1.521   3.326   3.760 -0.1533 -0.4770  0.4361
16895SOL    HW152692   1.466   3.251   3.782 -0.7474 -0.0149  0.5733
16895SOL    HW252693   1.496   3.349   3.671 -1.7789  1.0548  1.2233
16896SOL     OW52694   2.292   7.061  10.193 -0.2374  0.2004  0.1260
16896SOL    HW152695   2.267   7.153  10.194 -0.0394  0.2703  2.0312
16896SOL    HW252696   2.214   7.015  10.224 -0.7983 -0.4589 -2.0760
16897SOL     OW52697   7.282   0.857   0.851  0.4697  0.2081 -0.3199
16897SOL    HW152698   7.222   0.918   0.892 -0.0484 -0.2428 -0.4002
16897SOL    HW252699   7.226   0.796   0.802  0.9518 -0.5087 -0.0028
16898SOL     OW52700   0.905   8.801   2.319  0.1389 -0.4974  0.6032
16898SOL    HW152701   0.998   8.817   2.304 -0.2034  0.2896 -0.9283
16898SOL    HW252702   0.894   8.708   2.299  0.2215 -0.0906 -1.6595
16899SOL     OW52703   1.872   0.957  10.401  0.5791  0.1896 -0.1709
16899SOL    HW152704   1.892   0.864  10.398  2.0160  0.4994 -1.0854
16899SOL    HW252705   1.832   0.975  10.315 -0.3183  0.2981  0.2585
16900SOL     OW52706   3.708   1.930   4.131 -0.2502 -0.3904 -0.0197
16900SOL    HW152707   3.795   1.899   4.106  0.2724 -1.2443  2.5296
16900SOL    HW252708   3.653   1.852   4.126 -0.1967 -0.5138  1.0663
16901SOL     OW52709   0.055   9.317  10.822 -0.0773 -0.2418  0.1960
16901SOL    HW152710   0.014   9.398  10.792  1.0369  0.0671 -0.5163
16901SOL    HW252711   0.122   9.345  10.883 -0.4201 -0.7081  0.7995
16902SOL     OW52712   3.337   6.978   6.978  0.0969  0.1090 -0.1440
16902SOL    HW152713   3.358   6.916   7.049  0.9598  1.2993  0.6722
16902SOL    HW252714   3.242   6.969   6.967  0.2197 -1.5250 -0.2294
16903SOL     OW52715   5.021   4.189   6.140 -0.1266 -0.3358 -0.4199
16903SOL    HW152716   4.976   4.221   6.219 -0.3776 -0.5726 -0.4657
16903SOL    HW252717   5.112   4.216   6.152  0.0220 -1.1078  0.3661
16904SOL     OW52718   6.732   7.460  10.632  0.4233 -0.5903 -0.1057
16904SOL    HW152719   6.644   7.423  10.644  0.8471 -1.4370  0.4351
16904SOL    HW252720   6.766   7.472  10.720  0.5992  0.3728 -0.2976
16905SOL     OW52721   1.174   8.926   8.868  0.0264 -0.3822 -0.4339
16905SOL    HW152722   1.264   8.956   8.869 -0.0132 -0.1379 -2.2359
16905SOL    HW252723   1.125   8.996   8.911  0.3669  0.6985 -1.7495
16906SOL     OW52724  10.937   4.444  10.847 -0.0649 -0.6580 -0.2105
16906SOL    HW152725  10.922   4.536  10.827 -0.4075 -0.6120  0.2422
16906SOL    HW252726  10.918   4.436  10.940  0.1381 -1.1499 -0.2094
16907SOL     OW52727   4.774   4.420   1.965 -0.6586  0.0958  0.7403
16907SOL    HW152728   4.685   4.456   1.966 -0.7148  0.0174 -0.1679
16907SOL    HW252729   4.829   4.494   1.938 -0.6442 -0.2256 -0.1315
16908SOL     OW52730  10.704  10.571  10.240  0.0203 -0.5763  0.2290
16908SOL    HW152731  10.774  10.515  10.207  1.4141  0.3327  1.5063
16908SOL    HW252732  10.692  10.637  10.171  1.2491 -0.0654  0.4866
16909SOL     OW52733   2.079   8.683   4.649  0.2453 -0.0704 -0.1943
16909SOL    HW152734   2.009   8.647   4.595  0.2358 -1.7094  0.8225
16909SOL    HW252735   2.133   8.734   4.589 -0.3768 -0.9147 -1.5185
16910SOL     OW52736   0.111   7.359   3.035 -0.2617  0.2905 -0.0887
16910SOL    HW152737   0.196   7.324   3.007  0.3874  0.9556  0.9518
16910SOL    HW252738   0.127   7.453   3.046 -1.1978  0.4553 -0.0986
16911SOL     OW52739   4.384  10.641   1.416  0.3753 -0.4127 -0.1634
16911SOL    HW152740   4.440  10.627   1.340  1.0269 -1.4804  0.4946
16911SOL    HW252741   4.363  10.553   1.447 -0.2802  0.0047  0.6107
16912SOL     OW52742   9.313  10.054   8.508 -0.3779  0.8065  0.4016
16912SOL    HW152743   9.256   9.978   8.499  0.8756 -0.0873 -0.4710
16912SOL    HW252744   9.402  10.018   8.507  0.2573  2.2689  0.0768
16913SOL     OW52745   4.301   2.100   7.826  0.0115  0.1030  0.1132
16913SOL    HW152746   4.222   2.079   7.777  1.0742 -2.8077 -0.5454
16913SOL    HW252747   4.354   2.151   7.764 -0.7827  0.9498  0.1127
16914SOL     OW52748  10.009   1.754   8.487 -0.0848 -0.1322  0.4874
16914SOL    HW152749   9.922   1.791   8.474 -0.1607  0.2450  1.8977
16914SOL    HW252750  10.065   1.802   8.426 -0.6068  0.6746  0.6335
16915SOL     OW52751   1.717   7.010   8.943  0.2622  0.1724  0.2104
16915SOL    HW152752   1.673   6.968   9.018  0.4664  0.3203  0.4148
16915SOL    HW252753   1.646   7.034   8.884  0.1366 -0.4627  0.0881
16916SOL     OW52754   7.775  10.952   5.523  0.3956  0.3964 -0.1866
16916SOL    HW152755   7.775  10.972   5.616 -1.6214  2.1322 -0.4795
16916SOL    HW252756   7.820  11.025   5.482  1.4191 -0.4386 -0.6053
16917SOL     OW52757   4.455  10.520   7.888  0.3128  0.8813 -0.1077
16917SOL    HW152758   4.362  10.510   7.868  0.1875 -0.1271  0.9136
16917SOL    HW252759   4.478  10.606   7.852 -0.5794  0.4263 -1.9078
16918SOL     OW52760   8.598  10.246   7.910  0.2253  0.2344 -0.4148
16918SOL    HW152761   8.540  10.316   7.941  0.2095  0.4075 -0.8408
16918SOL    HW252762   8.664  10.238   7.979 -0.2675  0.0771  0.0477
16919SOL     OW52763   4.135   2.526   1.302  0.4138 -0.2120 -0.3655
16919SOL    HW152764   4.131   2.560   1.392 -1.6762  1.9789 -1.1955
16919SOL    HW252765   4.209   2.571   1.263  0.1501  0.3124 -0.2729
16920SOL     OW52766   7.420   1.393   3.354 -0.0912 -0.5155  0.2956
16920SOL    HW152767   7.446   1.411   3.444  1.1799  0.6889 -0.2842
16920SOL    HW252768   7.497   1.353   3.314 -0.3337 -0.1926 -0.5058
16921SOL     OW52769   4.986   8.283   6.834 -0.4348 -0.2829 -0.1887
16921SOL    HW152770   4.921   8.353   6.830 -0.3049 -0.2097 -1.9093
16921SOL    HW252771   5.030   8.287   6.749  1.7076 -0.4406  0.8421
16922SOL     OW52772   4.264   3.320   3.719  0.0155 -0.5609  0.2667
16922SOL    HW152773   4.234   3.239   3.760 -0.8262 -0.5390 -0.2950
16922SOL    HW252774   4.207   3.388   3.754  1.3354 -0.0204  1.4942
16923SOL     OW52775   9.019   7.682   0.173  0.3803 -0.0837  0.0402
16923SOL    HW152776   9.041   7.631   0.251  0.1482 -0.6398 -0.2521
16923SOL    HW252777   9.093   7.740   0.160 -0.3901  1.3851  1.8016
16924SOL     OW52778   4.067   0.317   3.047  0.8864  0.2075  0.7226
16924SOL    HW152779   4.147   0.274   3.016 -0.1100 -1.4859  0.3625
16924SOL    HW252780   4.020   0.247   3.092 -1.6195  0.4335 -1.3565
16925SOL     OW52781   4.501   5.901   5.839 -0.1381 -0.8078  0.3725
16925SOL    HW152782   4.487   5.968   5.906 -1.7342 -1.8112  1.1079
16925SOL    HW252783   4.464   5.938   5.760 -0.4301 -0.5417  0.6300
16926SOL     OW52784   3.710   9.414   4.568  0.4577 -0.1615  0.4173
16926SOL    HW152785   3.784   9.386   4.620  0.4192  0.4393  0.8057
16926SOL    HW252786   3.634   9.372   4.609  0.6248 -1.1741 -0.2775
16927SOL     OW52787   0.122   4.728   5.239  0.4580 -0.7419 -0.3176
16927SOL    HW152788   0.077   4.777   5.309  2.3188 -0.2450  0.5904
16927SOL    HW252789   0.139   4.794   5.172  0.6119 -0.7350 -0.2713
16928SOL     OW52790   9.784   7.902   0.257 -0.3264  0.6950 -0.3309
16928SOL    HW152791   9.807   7.995   0.256 -2.3918  1.2351 -0.8571
16928SOL    HW252792   9.831   7.864   0.183  1.9073  0.9062  0.8823
16929SOL     OW52793   0.669   3.553   3.765 -0.3370 -0.4120 -0.3048
16929SOL    HW152794   0.578   3.525   3.756 -0.2911 -0.6538 -0.0090
16929SOL    HW252795   0.664   3.645   3.790 -0.5076 -0.6374  0.4883
16930SOL     OW52796   4.526   2.090   7.302 -0.3887 -0.3705  0.7001
16930SOL    HW152797   4.525   2.105   7.208 -0.1102 -1.9057  0.4141
16930SOL    HW252798   4.612   2.120   7.331 -1.3235  2.3071  0.9167
16931SOL     OW52799   1.117   9.792  10.024 -0.6689  0.1197 -0.1124
16931SOL    HW152800   1.022   9.787  10.033 -0.7906 -1.4452 -1.7570
16931SOL    HW252801   1.151   9.735  10.092 -0.8723  0.9830  0.7294
16932SOL     OW52802   3.749   8.066   5.522 -0.1660  0.0081  0.4528
16932SOL    HW152803   3.689   8.077   5.595 -1.7580  1.9359 -1.0242
16932SOL    HW252804   3.828   8.114   5.549 -0.4550  0.0886  1.1820
16933SOL     OW52805   1.039   3.997   9.137 -0.3168 -0.3715 -0.2270
16933SOL    HW152806   1.005   4.065   9.196 -0.3448 -0.4379 -0.1664
16933SOL    HW252807   1.116   3.963   9.183  0.8395  0.9246 -1.1053
16934SOL     OW52808   7.891   5.558   7.115  0.4735 -0.4679  0.2495
16934SOL    HW152809   7.849   5.620   7.175  0.1223 -1.2453  0.8311
16934SOL    HW252810   7.982   5.587   7.111  0.2378  0.2993  0.2153
16935SOL     OW52811   1.840   8.422   8.368 -0.7789 -0.5673 -0.8417
16935SOL    HW152812   1.774   8.487   8.392 -1.7435 -1.4775 -0.9724
16935SOL    HW252813   1.882   8.399   8.451 -2.0233 -1.4706 -0.4367
16936SOL     OW52814   4.687   5.238  10.404  0.5557  0.4515 -0.2555
16936SOL    HW152815   4.679   5.148  10.436 -0.1063  0.5384 -0.1533
16936SOL    HW252816   4.741   5.231  10.325  1.0902  0.0591  0.1350
16937SOL     OW52817  10.709   0.846   0.490  0.2669 -0.1648 -0.1284
16937SOL    HW152818  10.734   0.818   0.402 -1.1635 -0.2780 -0.5184
16937SOL    HW252819  10.678   0.936   0.478 -0.3146 -0.3213  0.1870
16938SOL     OW52820   3.034   1.375   7.659  0.4139 -0.1498 -0.2679
16938SOL    HW152821   3.101   1.438   7.631  0.2763 -0.2430 -0.8259
16938SOL    HW252822   2.953   1.407   7.620  0.3148 -0.5872 -0.4306
16939SOL     OW52823   8.047   7.932   0.885  0.5770  0.0267  0.1723
16939SOL    HW152824   8.138   7.926   0.854  0.3425 -0.0558 -0.5096
16939SOL    HW252825   8.012   8.010   0.842  0.4119  0.2363  0.6806
16940SOL     OW52826   1.773   6.504   8.108  0.1586  0.2644  0.2924
16940SOL    HW152827   1.798   6.463   8.190  2.1950 -1.8140 -1.2395
16940SOL    HW252828   1.841   6.570   8.092  0.2772  0.0452 -0.1327
16941SOL     OW52829   6.087   2.203   0.620  0.3637  0.1153  1.1489
16941SOL    HW152830   6.177   2.222   0.593  1.0481 -3.0319  0.9309
16941SOL    HW252831   6.097   2.155   0.702 -1.0550 -0.9678  0.7152
16942SOL     OW52832   2.546   4.891   8.368 -0.1934  0.4967 -0.0139
16942SOL    HW152833   2.589   4.920   8.448  0.4396  0.0111 -0.1707
16942SOL    HW252834   2.589   4.809   8.346 -0.8494  0.2659 -0.4647
16943SOL     OW52835   4.226   5.098   5.687  1.1588 -0.1333  1.0398
16943SOL    HW152836   4.238   5.116   5.780  0.5993  0.7366  0.9482
16943SOL    HW252837   4.132   5.085   5.676  1.0236  1.1800  0.3685
16944SOL     OW52838   9.295   1.874   4.745 -0.2979  0.1192  0.4170
16944SOL    HW152839   9.286   1.918   4.829 -1.0111 -1.4696  1.2256
16944SOL    HW252840   9.334   1.789   4.767 -0.9082 -0.4916 -0.7928
16945SOL     OW52841   7.400   3.586   3.753 -0.4002 -0.3485  0.3431
16945SOL    HW152842   7.407   3.580   3.849 -0.5318 -1.0032  0.3182
16945SOL    HW252843   7.349   3.509   3.729 -0.3536 -0.1899 -0.2606
16946SOL     OW52844   6.108   3.564   5.276  0.1872  0.3670 -0.3118
16946SOL    HW152845   6.022   3.593   5.306  0.0930  0.2974 -0.5115
16946SOL    HW252846   6.110   3.470   5.294  0.2750  0.3934 -0.1817
16947SOL     OW52847  11.007   6.744   9.973  0.6819 -0.0978 -0.1157
16947SOL    HW152848  10.956   6.820   9.943 -0.4757 -1.1129 -0.8569
16947SOL    HW252849  10.990   6.739  10.067  1.1745  0.8414  0.0331
16948SOL     OW52850   1.908   5.885   2.340  0.4982  0.2974 -0.4506
16948SOL    HW152851   1.978   5.822   2.327 -0.2131 -0.4920 -0.5667
16948SOL    HW252852   1.833   5.832   2.368 -0.5766  0.8702 -2.0879
16949SOL     OW52853   3.051   0.916   7.146  0.4835 -0.1715  0.0490
16949SOL    HW152854   3.095   0.880   7.069  0.2793 -0.4802  0.0716
16949SOL    HW252855   3.104   0.885   7.220  0.2080 -0.5763  0.0787
16950SOL     OW52856  10.742   8.425   2.071  0.0538  0.2459  0.2693
16950SOL    HW152857  10.822   8.477   2.083  0.1382 -0.0912  1.2336
16950SOL    HW252858  10.675   8.472   2.121  0.2591 -0.8355  1.6265
16951SOL     OW52859   9.021   8.370   7.665 -0.0661 -0.1472 -0.7735
16951SOL    HW152860   9.022   8.285   7.709 -0.2978  0.7638  1.0572
16951SOL    HW252861   9.077   8.357   7.588  2.3877 -1.1412  1.0402
16952SOL     OW52862   8.178   2.276   2.539 -0.2606  0.3864 -0.5557
16952SOL    HW152863   8.115   2.245   2.475  0.7019 -1.7910 -0.5301
16952SOL    HW252864   8.260   2.286   2.489  0.8592 -2.6520  0.4555
16953SOL     OW52865   6.579   9.400   8.304  0.4845  0.2683 -0.0801
16953SOL    HW152866   6.598   9.397   8.398  0.1390  0.7945  0.0140
16953SOL    HW252867   6.622   9.323   8.268  0.5029 -0.0150  0.5350
16954SOL     OW52868  10.077   4.684   6.078 -0.6167 -0.4790 -0.4528
16954SOL    HW152869  10.071   4.779   6.088 -3.3761 -0.2828 -2.8560
16954SOL    HW252870  10.149   4.670   6.017 -1.5967  0.2810 -1.8208
16955SOL     OW52871   8.343   8.424   3.380 -0.4921 -0.3762  0.8477
16955SOL    HW152872   8.258   8.426   3.336 -1.1510 -0.8310  2.0627
16955SOL    HW252873   8.337   8.350   3.440  1.0639 -0.8972  0.3880
16956SOL     OW52874   9.535   5.474   9.765 -0.3723  0.1117  0.1217
16956SOL    HW152875   9.526   5.559   9.723  0.8255  0.5360  0.6768
16956SOL    HW252876   9.458   5.466   9.821 -0.1644  1.1228  0.5571
16957SOL     OW52877   9.683   8.069   8.329  0.1631 -0.0733 -0.3122
16957SOL    HW152878   9.624   8.041   8.399 -0.6473 -0.3562 -1.0887
16957SOL    HW252879   9.651   8.156   8.304 -0.6659 -0.6782 -1.4910
16958SOL     OW52880   9.600   3.987   4.527 -0.0718 -0.4253  0.3579
16958SOL    HW152881   9.510   3.956   4.536 -0.0326 -1.3625 -1.7697
16958SOL    HW252882   9.650   3.908   4.508  0.8806  0.3336 -0.3581
16959SOL     OW52883   7.536   7.312   1.391  0.5930 -0.5199 -0.1128
16959SOL    HW152884   7.547   7.235   1.448 -1.3120 -1.3448 -0.7694
16959SOL    HW252885   7.580   7.289   1.310  1.3583 -0.2710  0.2262
16960SOL     OW52886   6.577   0.362   4.605  0.1648 -0.0862 -0.2721
16960SOL    HW152887   6.660   0.331   4.569  0.7803  1.3311 -0.1302
16960SOL    HW252888   6.596   0.382   4.697 -0.3716  0.0843 -0.1895
16961SOL     OW52889   6.221   3.472   2.988  0.2162 -0.1876  0.2104
16961SOL    HW152890   6.284   3.541   3.012  0.3116  0.1390 -0.9191
16961SOL    HW252891   6.156   3.474   3.058  0.3095  0.9443  0.2922
16962SOL     OW52892  10.794   4.387   5.220 -0.3714  0.3078 -0.4965
16962SOL    HW152893  10.878   4.406   5.260 -0.3047 -0.2225 -0.3826
16962SOL    HW252894  10.776   4.296   5.242 -1.5692  0.7599  0.5502
16963SOL     OW52895   5.187   2.315   3.250  0.4610  0.3227 -0.0576
16963SOL    HW152896   5.121   2.380   3.274 -0.2181 -0.6427  0.8172
16963SOL    HW252897   5.152   2.232   3.284  2.9283  0.0058  1.9807
16964SOL     OW52898  10.214   9.356   6.520 -0.2499  0.7307  0.2263
16964SOL    HW152899  10.158   9.323   6.450 -0.6384 -0.8050  1.2046
16964SOL    HW252900  10.272   9.419   6.477 -2.0519  1.6357 -0.9976
16965SOL     OW52901   7.807  10.654   6.612 -0.0866  0.3899 -0.7170
16965SOL    HW152902   7.766  10.577   6.651  0.9806  0.4096  0.5126
16965SOL    HW252903   7.889  10.622   6.575 -0.6651  0.5449 -2.1867
16966SOL     OW52904   7.972   4.202   9.018 -0.0247  0.5243  0.6691
16966SOL    HW152905   7.930   4.138   9.077  2.2426 -0.5125  1.2923
16966SOL    HW252906   7.974   4.283   9.069  0.9716 -0.0967  1.6996
16967SOL     OW52907   2.604   2.993   3.989 -0.4654  0.1463  0.1669
16967SOL    HW152908   2.645   3.079   3.996  1.2213 -0.7531  2.7039
16967SOL    HW252909   2.663   2.943   3.932 -0.8106  0.2942 -0.3311
16968SOL     OW52910   5.054   1.501   4.410 -0.0984 -1.1110 -0.2818
16968SOL    HW152911   5.130   1.516   4.466 -0.0505  1.3122 -0.8735
16968SOL    HW252912   4.978   1.507   4.469  0.0760 -3.1038  0.2317
16969SOL     OW52913   3.182   0.853   1.157 -0.1278  0.0733 -0.6128
16969SOL    HW152914   3.160   0.843   1.250 -0.4038 -1.1514 -0.7923
16969SOL    HW252915   3.172   0.765   1.121 -1.5177  0.7931 -2.1219
16970SOL     OW52916   8.695   6.152   4.093  0.0655 -0.2379  0.9220
16970SOL    HW152917   8.612   6.194   4.117 -0.2111  0.7068 -1.4303
16970SOL    HW252918   8.672   6.091   4.023  1.2173 -0.7644  0.9781
16971SOL     OW52919   0.834   3.126   7.180  0.6527  0.3078 -0.0032
16971SOL    HW152920   0.893   3.196   7.153  0.2335  0.1902 -1.2595
16971SOL    HW252921   0.758   3.134   7.123 -1.3625  1.4879  2.6099
16972SOL     OW52922  10.329   3.702   5.091 -0.3012 -0.3045  0.7506
16972SOL    HW152923  10.336   3.715   4.997  3.6591  1.1856  1.0306
16972SOL    HW252924  10.274   3.624   5.101 -1.0128 -0.4113 -2.7370
16973SOL     OW52925   1.266   9.270   1.408  0.2587  0.2197 -0.4905
16973SOL    HW152926   1.321   9.342   1.439 -0.2147  1.2085 -1.8098
16973SOL    HW252927   1.197   9.263   1.473  0.5487  0.6734 -0.1200
16974SOL     OW52928   9.195   4.917   0.255 -0.9018 -0.3207  0.2904
16974SOL    HW152929   9.175   5.006   0.285 -0.2000 -0.0842  0.0821
16974SOL    HW252930   9.284   4.900   0.286  0.2300  0.2769 -2.3059
16975SOL     OW52931   6.691  10.841   0.743  0.2666  0.4101 -0.3715
16975SOL    HW152932   6.680  10.746   0.748  0.6931  0.3997  0.6015
16975SOL    HW252933   6.631  10.875   0.810 -0.7691  0.9089 -1.5247
16976SOL     OW52934   5.968   5.315   1.795  0.6619 -0.2888  0.7788
16976SOL    HW152935   6.049   5.304   1.843  2.4038  0.8348 -1.6943
16976SOL    HW252936   5.994   5.316   1.703 -2.2567 -0.6701 -0.1638
16977SOL     OW52937   5.863   5.256   8.255 -0.0426 -0.1351 -0.0465
16977SOL    HW152938   5.853   5.250   8.160 -0.6974 -1.7882  0.0883
16977SOL    HW252939   5.883   5.166   8.282 -1.1795  0.0471  1.5153
16978SOL     OW52940   3.094   2.413   0.950  0.4747 -0.4287 -0.8364
16978SOL    HW152941   3.040   2.477   0.997  0.3314 -1.1507  0.0028
16978SOL    HW252942   3.142   2.465   0.886  2.7565  1.0597  1.8960
16979SOL     OW52943   1.735   9.894   7.968  0.2147  0.6649 -0.7506
16979SOL    HW152944   1.654   9.883   8.018 -0.7538  2.3728 -1.8590
16979SOL    HW252945   1.789   9.950   8.023 -0.1945  1.2094 -0.8966
16980SOL     OW52946   7.272   0.603   8.893  0.2590  0.3417  0.4709
16980SOL    HW152947   7.281   0.535   8.827  0.7962  0.9212 -0.0586
16980SOL    HW252948   7.326   0.573   8.966 -1.3397 -0.9259  1.1957
16981SOL     OW52949   8.294   8.447   0.136  1.0381 -0.2897 -0.4567
16981SOL    HW152950   8.371   8.389   0.136  1.9087  0.7916 -1.5932
16981SOL    HW252951   8.332   8.535   0.138 -0.2404  0.2506  0.6539
16982SOL     OW52952   8.979   7.449   5.808  0.2294  0.3510 -0.1163
16982SOL    HW152953   9.032   7.455   5.887  2.1560  2.3086 -1.4443
16982SOL    HW252954   8.889   7.458   5.840  0.8643  0.0049  1.9391
16983SOL     OW52955   7.159   6.027   2.637 -0.0763 -0.3706 -0.1813
16983SOL    HW152956   7.187   5.976   2.713 -0.7380  1.3600  1.2551
16983SOL    HW252957   7.158   5.963   2.565  1.1579 -1.9051  1.0983
16984SOL     OW52958   4.642   9.999   2.909 -0.6336  0.0369  0.6809
16984SOL    HW152959   4.649  10.039   2.995  1.1443  2.2461 -0.3746
16984SOL    HW252960   4.612  10.069   2.851  1.6845 -0.2971 -1.0925
16985SOL     OW52961   4.072   1.001   6.162 -0.1738  0.3000 -0.4908
16985SOL    HW152962   4.074   0.988   6.067  0.5018 -1.9381 -0.2501
16985SOL    HW252963   3.979   1.001   6.184 -0.3182 -0.7418 -1.0142
16986SOL     OW52964   9.913   0.416   2.035 -0.0459  0.0476  0.0417
16986SOL    HW152965   9.889   0.330   2.001 -2.0759 -0.6099  2.7539
16986SOL    HW252966   9.967   0.397   2.111  0.6441  1.2657 -0.1223
16987SOL     OW52967   7.859   5.311   5.773  0.5215 -0.4834 -0.0736
16987SOL    HW152968   7.925   5.293   5.706 -0.6419 -0.9822 -1.1209
16987SOL    HW252969   7.846   5.406   5.769  0.1441 -0.5625 -0.8785
16988SOL     OW52970   4.612   2.698   9.738  0.1625 -0.1349  0.1507
16988SOL    HW152971   4.626   2.792   9.728 -0.9591  0.0361  0.0640
16988SOL    HW252972   4.699   2.659   9.725  0.7057  0.9079  0.5460
16989SOL     OW52973   8.514   5.397   6.766 -1.0302  0.3062 -0.3355
16989SOL    HW152974   8.560   5.313   6.769 -2.3036 -0.4130  0.1321
16989SOL    HW252975   8.488   5.407   6.674 -2.5764 -0.8181 -0.0609
16990SOL     OW52976   9.379  10.218   7.262 -0.2381 -0.7167 -0.7632
16990SOL    HW152977   9.421  10.132   7.275  0.6549 -0.3759 -1.3194
16990SOL    HW252978   9.381  10.259   7.349  2.2477  0.0133 -1.0794
16991SOL     OW52979   3.724   9.290   9.645 -0.4933  0.4701 -0.0666
16991SOL    HW152980   3.795   9.268   9.586 -0.5201 -1.3118  0.4890
16991SOL    HW252981   3.654   9.322   9.588  0.1864  0.7095 -0.7754
16992SOL     OW52982  10.319  10.230   0.519  0.2885  0.3802  0.2569
16992SOL    HW152983  10.301  10.311   0.472  0.2816  1.4292  1.9493
16992SOL    HW252984  10.398  10.196   0.478  0.8794  1.7936  0.1330
16993SOL     OW52985  10.572   5.968   7.741  0.4681  0.2104 -0.0710
16993SOL    HW152986  10.616   5.886   7.762 -0.9411 -0.7772 -0.8422
16993SOL    HW252987  10.621   6.003   7.667  1.2114  0.1854  0.4031
16994SOL     OW52988   9.163   1.125   4.690  0.1856 -0.0475 -0.1686
16994SOL    HW152989   9.178   1.055   4.626  0.2793  1.8997 -2.4023
16994SOL    HW252990   9.080   1.164   4.663 -0.1944  0.3291  1.4473
16995SOL     OW52991   2.208   1.274   9.546 -0.0687  0.3185 -0.0400
16995SOL    HW152992   2.224   1.325   9.625 -1.0294 -0.3592  0.6037
16995SOL    HW252993   2.187   1.339   9.479 -0.8242  0.8088  0.6538
16996SOL     OW52994   3.163   8.022   9.450 -0.7342  0.0224 -0.8132
16996SOL    HW152995   3.128   7.934   9.463  0.3386 -0.3067 -0.0148
16996SOL    HW252996   3.257   8.009   9.438 -0.5349  1.0834 -0.4833
16997SOL     OW52997   2.325   1.516   0.397 -0.1430 -0.1252 -0.1700
16997SOL    HW152998   2.248   1.459   0.394  0.8392 -1.5119 -0.0876
16997SOL    HW252999   2.296   1.592   0.448 -1.5011 -0.5384 -0.2820
16998SOL     OW53000   8.601  10.808   4.613  0.0532  0.0440  0.0897
16998SOL    HW153001   8.617  10.743   4.544  1.8881 -0.8318  1.2365
16998SOL    HW253002   8.633  10.890   4.577 -0.7340 -0.0108 -0.7669
16999SOL     OW53003   5.303   8.225   7.470  0.1740  0.0110 -0.6027
16999SOL    HW153004   5.303   8.268   7.556 -1.4058  2.3072 -1.6473
16999SOL    HW253005   5.379   8.167   7.473  2.4619  2.7995  1.0151
17000SOL     OW53006   7.679  10.780   5.316 -0.7422 -0.3998  0.3932
17000SOL    HW153007   7.630  10.702   5.342  0.6715 -1.5941 -0.3843
17000SOL    HW253008   7.723  10.808   5.396 -1.7325 -0.0135  0.8187
17001SOL     OW53009   9.980   2.802   7.654  0.0281 -0.4290  0.0669
17001SOL    HW153010   9.995   2.744   7.728  0.2119 -0.6786 -0.1610
17001SOL    HW253011   9.917   2.866   7.685 -1.8238 -1.9871 -0.2917
17002SOL     OW53012   0.134   9.674   1.949 -0.3223  0.1322 -0.0387
17002SOL    HW153013   0.087   9.615   2.008 -0.2734  0.3331  0.1988
17002SOL    HW253014   0.225   9.645   1.953 -0.6715 -1.4751 -1.9177
17003SOL     OW53015   3.222   9.785   4.162 -0.2658 -0.0408  0.4150
17003SOL    HW153016   3.197   9.800   4.071  3.1417 -1.2261 -0.8524
17003SOL    HW253017   3.256   9.869   4.193 -0.3705  0.0624  0.2490
17004SOL     OW53018   2.544  10.152  10.430 -0.0111 -0.2417  0.2680
17004SOL    HW153019   2.488  10.188  10.499  0.1154 -0.6682  0.5987
17004SOL    HW253020   2.497  10.074  10.401 -0.2447  0.1373 -0.3882
17005SOL     OW53021   3.819   6.525   1.258  0.0800  0.2472  0.2679
17005SOL    HW153022   3.905   6.515   1.219 -0.3384 -1.1015 -0.3582
17005SOL    HW253023   3.832   6.509   1.351  0.1905 -2.1756 -0.0988
17006SOL     OW53024   2.715   8.676   5.387 -0.2701  0.0961 -0.7096
17006SOL    HW153025   2.655   8.618   5.435  0.5959  0.2386  0.5963
17006SOL    HW253026   2.730   8.749   5.446  1.5439 -0.1579 -0.8048
17007SOL     OW53027   3.545   7.344   9.917 -0.2153 -0.2850  0.4759
17007SOL    HW153028   3.603   7.360   9.991 -1.1975  0.2059  1.1548
17007SOL    HW253029   3.604   7.319   9.846  0.7235 -1.0603  1.4891
17008SOL     OW53030   6.976   5.896   6.929  0.4345 -0.8182 -0.4687
17008SOL    HW153031   6.954   5.818   6.878 -2.9026 -0.5737  0.3629
17008SOL    HW253032   6.929   5.967   6.886  0.2282 -0.0224  1.0018
17009SOL     OW53033   0.855   2.340   8.927  0.5233 -0.3995 -0.0228
17009SOL    HW153034   0.830   2.271   8.989  0.2037  0.0509  0.3606
17009SOL    HW253035   0.852   2.420   8.979  0.5948 -0.0574 -0.5410
17010SOL     OW53036   7.088  10.529   1.216 -0.1555 -0.1936  0.5653
17010SOL    HW153037   7.029  10.594   1.178  2.0904  0.2875 -2.4383
17010SOL    HW253038   7.158  10.581   1.256  2.5387 -0.4661 -3.2893
17011SOL     OW53039   8.308   0.856  10.836 -0.3193 -0.3465 -0.0121
17011SOL    HW153040   8.246   0.819  10.773  0.8882 -0.1865 -1.3600
17011SOL    HW253041   8.253   0.899  10.901 -1.6576  1.5106 -2.1901
17012SOL     OW53042  10.916   7.253   9.540  0.1359 -0.5208  0.5553
17012SOL    HW153043  10.822   7.258   9.522 -0.2486 -1.1684  2.1651
17012SOL    HW253044  10.944   7.173   9.496 -0.6280 -1.6974  2.1043
17013SOL     OW53045   8.001   9.173   2.913 -0.3025  0.7699 -0.0299
17013SOL    HW153046   7.926   9.165   2.854 -0.1628  0.0202 -0.1102
17013SOL    HW253047   7.978   9.120   2.989 -1.5242  3.5561  1.7228
17014SOL     OW53048  10.293   6.238   8.796 -0.0640 -0.0933  1.0211
17014SOL    HW153049  10.231   6.167   8.778  0.5276 -0.6429  1.1055
17014SOL    HW253050  10.306   6.280   8.711 -1.3012  0.6697  1.1778
17015SOL     OW53051   1.872   3.619   2.455  0.3292  0.3813  0.1885
17015SOL    HW153052   1.874   3.555   2.527  1.6812  0.7612  0.5239
17015SOL    HW253053   1.913   3.574   2.382 -0.4332  0.2325 -0.1611
17016SOL     OW53054  10.679   5.665   0.571  0.3303  0.0467 -0.1609
17016SOL    HW153055  10.660   5.738   0.630 -2.4632 -1.1479  0.6100
17016SOL    HW253056  10.763   5.631   0.600  0.2330  1.0891  1.4322
17017SOL     OW53057   9.714   0.309   8.030 -0.2377  0.8052  0.1115
17017SOL    HW153058   9.757   0.394   8.033  0.6298  0.4257 -0.9511
17017SOL    HW253059   9.785   0.246   8.028 -0.8696  0.0706  0.3342
17018SOL     OW53060   2.403   9.897   3.898 -0.3415 -0.2796 -0.5137
17018SOL    HW153061   2.434   9.903   3.808 -0.3476  0.9284 -0.4632
17018SOL    HW253062   2.333   9.963   3.903  2.1385  2.4999  1.2972
17019SOL     OW53063   9.590   9.608   5.776  0.3481  0.1616 -0.4173
17019SOL    HW153064   9.633   9.648   5.852 -0.1681  1.2624 -0.6847
17019SOL    HW253065   9.521   9.553   5.814 -1.4605  2.5127 -0.0827
17020SOL     OW53066  10.545   2.497   9.240  0.1707  0.0766  0.2415
17020SOL    HW153067  10.638   2.483   9.259  0.4635  1.1272 -0.3766
17020SOL    HW253068  10.532   2.591   9.249 -1.1753 -0.2104  1.7450
17021SOL     OW53069   2.170   6.967   6.336  0.1094 -0.1866 -0.4610
17021SOL    HW153070   2.263   6.945   6.339  0.4774  1.3238  1.0129
17021SOL    HW253071   2.150   6.975   6.243  1.5862 -0.0396 -0.7829
17022SOL     OW53072   3.675   5.204   2.024 -0.0282  0.3823 -0.2195
17022SOL    HW153073   3.613   5.249   2.082  0.9388  1.6884 -0.1693
17022SOL    HW253074   3.665   5.249   1.940  0.1419 -0.0617 -0.4757
17023SOL     OW53075   1.090   4.906   1.769  0.1564  0.0409 -0.1136
17023SOL    HW153076   1.119   4.823   1.807  0.4687  0.2618  0.1310
17023SOL    HW253077   1.116   4.973   1.833 -0.1444  0.3242 -0.2798
17024SOL     OW53078   0.849   2.627   8.785  0.1558 -0.3595  0.0140
17024SOL    HW153079   0.923   2.589   8.834  0.8705 -0.7841 -1.3509
17024SOL    HW253080   0.855   2.588   8.698  0.5678  2.3915 -1.2900
17025SOL     OW53081   3.934   5.435   4.140 -0.0028 -0.5965  0.0441
17025SOL    HW153082   4.016   5.485   4.142 -0.1028 -0.4512  0.5563
17025SOL    HW253083   3.961   5.346   4.120  0.3942 -0.7600  1.2300
17026SOL     OW53084   5.517   8.279   2.068 -0.2217  0.0891  0.0543
17026SOL    HW153085   5.537   8.367   2.102  1.3736  0.1449 -0.9195
17026SOL    HW253086   5.518   8.223   2.145  0.8662  0.5977  0.4299
17027SOL     OW53087   2.187   1.299   6.398 -0.3659 -0.4760 -0.5151
17027SOL    HW153088   2.206   1.349   6.319 -0.4111  1.2697  0.5226
17027SOL    HW253089   2.273   1.269   6.428 -0.2618 -0.4399 -0.7777
17028SOL     OW53090   3.341   2.794  10.689  0.7310 -0.2088 -0.6041
17028SOL    HW153091   3.259   2.830  10.657  0.1012 -0.4659  0.6450
17028SOL    HW253092   3.405   2.816  10.622 -0.0664  1.2904 -0.9153
17029SOL     OW53093   7.124   6.020   8.267 -0.0970  0.0747 -0.5169
17029SOL    HW153094   7.108   6.013   8.173  1.8496  0.6903 -0.9314
17029SOL    HW253095   7.120   6.114   8.286  1.3555  0.1309 -0.3750
17030SOL     OW53096   1.039   3.055  10.049  0.0124  0.4470 -0.2691
17030SOL    HW153097   1.052   3.024   9.959  2.6824 -1.6071  0.7150
17030SOL    HW253098   1.097   3.130  10.057 -0.0901  0.5206 -0.2209
17031SOL     OW53099   1.881   1.357   8.278  0.3618  0.4938 -0.7900
17031SOL    HW153100   1.964   1.372   8.233  1.1566 -0.9094  0.1402
17031SOL    HW253101   1.903   1.360   8.371 -0.9070  1.5166 -0.5043
17032SOL     OW53102   0.172   9.721   7.036  0.1143  0.3677  0.0295
17032SOL    HW153103   0.226   9.799   7.048  1.5319 -0.8552  2.2814
17032SOL    HW253104   0.108   9.746   6.970  3.5092  1.8704 -3.0203
17033SOL     OW53105   4.074   3.973   1.937 -0.1357  0.3966  0.4141
17033SOL    HW153106   4.061   3.929   2.022 -0.2378 -0.6479 -0.1194
17033SOL    HW253107   4.052   4.064   1.954 -0.6128  0.1222  1.4048
17034SOL     OW53108  10.790   6.926   8.850 -0.0994 -0.2632 -0.2281
17034SOL    HW153109  10.779   7.016   8.880  0.7637  0.0655 -0.8612
17034SOL    HW253110  10.885   6.914   8.844 -0.0931 -1.8936  1.8325
17035SOL     OW53111   3.177   2.515   0.024  0.1079  0.2173  0.4559
17035SOL    HW153112   3.263   2.475   0.029  0.5997  1.2158  0.2333
17035SOL    HW253113   3.193   2.609   0.031 -0.9321  0.4392  0.1172
17036SOL     OW53114   8.214   0.618   5.537  0.0050 -0.1284  0.1184
17036SOL    HW153115   8.153   0.692   5.532 -0.3468 -0.3497  1.0205
17036SOL    HW253116   8.170   0.554   5.592  0.7644 -0.5685  0.2279
17037SOL     OW53117   1.809   4.810   2.263  0.5295 -0.1668  0.1386
17037SOL    HW153118   1.813   4.905   2.260  0.0970 -0.1549 -0.2118
17037SOL    HW253119   1.743   4.792   2.331 -0.5183 -0.1805 -0.8486
17038SOL     OW53120   6.269   0.309   1.265 -0.2563  0.0303 -0.2818
17038SOL    HW153121   6.324   0.263   1.328 -1.4192 -1.0332 -0.0125
17038SOL    HW253122   6.207   0.358   1.318 -0.1433  0.5381 -0.6004
17039SOL     OW53123   9.632   3.682   8.919  0.4780  0.3979  0.1373
17039SOL    HW153124   9.559   3.649   8.971  0.1302  1.1807  0.1458
17039SOL    HW253125   9.710   3.661   8.972  0.3791 -1.4321 -0.3770
17040SOL     OW53126   0.448   9.533  10.007  0.9108  0.8664 -0.1327
17040SOL    HW153127   0.492   9.522  10.092  0.6608  2.2670  0.1970
17040SOL    HW253128   0.516   9.566   9.948  0.7788  1.1374 -0.1354
17041SOL     OW53129  10.981   8.641   7.600  0.1260  0.1777  0.1424
17041SOL    HW153130  10.970   8.722   7.650 -3.4619  0.8440 -1.3964
17041SOL    HW253131  10.943   8.573   7.657  1.2109 -0.0784  0.5747
17042SOL     OW53132   7.707   3.805   1.174 -0.3476  0.5108  0.0758
17042SOL    HW153133   7.647   3.813   1.100 -1.2352  1.7257  0.8874
17042SOL    HW253134   7.660   3.844   1.247  1.1458  0.8124  0.9193
17043SOL     OW53135   8.061   5.884   9.517  0.2418 -0.1333 -0.7129
17043SOL    HW153136   8.067   5.939   9.439  0.8121  0.0617 -0.5379
17043SOL    HW253137   8.083   5.943   9.589  1.5979 -0.7552 -0.5946
17044SOL     OW53138   4.875   3.498   9.514 -0.3115  0.3925 -0.3479
17044SOL    HW153139   4.850   3.411   9.484 -0.1713  0.7755 -1.6174
17044SOL    HW253140   4.793   3.548   9.514 -0.2786  0.4467 -0.2657
17045SOL     OW53141   0.585   2.080   3.056  0.4984 -0.5787  0.1223
17045SOL    HW153142   0.535   2.102   3.134 -1.4893 -2.9110 -0.3971
17045SOL    HW253143   0.574   1.986   3.045 -0.3150 -0.2151 -3.5940
17046SOL     OW53144   7.977   0.691   0.861 -0.2644 -0.1274 -0.2806
17046SOL    HW153145   7.979   0.771   0.914 -0.3998 -0.6154  0.4650
17046SOL    HW253146   8.063   0.650   0.876  0.4187  0.6171 -1.8421
17047SOL     OW53147   0.434   0.437   9.952 -0.2318 -0.1242  0.3665
17047SOL    HW153148   0.501   0.501   9.974  0.1548 -0.1940 -0.5711
17047SOL    HW253149   0.468   0.354   9.987 -0.4066  0.0467  0.9592
17048SOL     OW53150   5.405   4.931   1.120 -0.3582 -0.0932  0.3375
17048SOL    HW153151   5.399   4.899   1.030 -0.7438 -0.0818  0.3568
17048SOL    HW253152   5.411   5.026   1.111  0.8684 -0.1507  0.2766
17049SOL     OW53153   2.478   9.650  10.596 -0.2416 -0.5386 -0.2443
17049SOL    HW153154   2.515   9.721  10.648 -1.8921  0.2681 -0.0875
17049SOL    HW253155   2.388   9.679  10.577 -0.0199 -1.2681 -2.7026
17050SOL     OW53156   4.496   4.412  10.022  0.2458 -0.2868  0.1524
17050SOL    HW153157   4.529   4.378  10.105  0.9498 -1.0472 -0.4383
17050SOL    HW253158   4.428   4.350   9.996  0.3621 -0.3125 -0.0882
17051SOL     OW53159   1.674   8.021   4.159 -0.5928  0.9294 -0.3866
17051SOL    HW153160   1.746   8.045   4.101  1.1733 -1.0467  0.8427
17051SOL    HW253161   1.599   8.012   4.101  0.0617  3.0913 -1.7138
17052SOL     OW53162   3.752   9.143   6.868  0.7631  0.1445 -0.1490
17052SOL    HW153163   3.775   9.195   6.791 -2.5464  1.5113 -0.3597
17052SOL    HW253164   3.809   9.177   6.937  0.3148  2.5068 -0.8458
17053SOL     OW53165   4.755   4.718   4.140 -0.2163  0.7415  0.5123
17053SOL    HW153166   4.661   4.736   4.142 -0.2453  0.7367 -0.3983
17053SOL    HW253167   4.762   4.624   4.128 -0.1118  0.8719 -0.5139
17054SOL     OW53168   3.136   2.841   2.091  0.4321  0.1942 -0.3014
17054SOL    HW153169   3.089   2.899   2.151 -1.5638 -1.0546 -0.5723
17054SOL    HW253170   3.096   2.755   2.103  0.5954 -0.2928 -2.7366
17055SOL     OW53171   2.419   7.692   8.469  0.5592 -0.4057 -0.0003
17055SOL    HW153172   2.442   7.773   8.423 -0.5920 -0.9452 -1.6015
17055SOL    HW253173   2.384   7.721   8.553  1.5928  0.6679  0.0886
17056SOL     OW53174   2.021   5.273   9.438  0.2270 -0.2501  0.4826
17056SOL    HW153175   2.105   5.227   9.442  0.8579  0.8700  0.6480
17056SOL    HW253176   1.985   5.250   9.353  1.1285 -0.0411  0.0301
17057SOL     OW53177   5.542   0.603   6.535  0.3684  0.1624 -0.9138
17057SOL    HW153178   5.474   0.536   6.531  0.0078  0.4314  0.2918
17057SOL    HW253179   5.596   0.578   6.609  0.5954  0.8736 -0.8322
17058SOL     OW53180   9.269   9.374   1.634 -0.3931 -0.4722  0.4183
17058SOL    HW153181   9.233   9.302   1.583 -0.5316 -0.2215  0.1561
17058SOL    HW253182   9.339   9.335   1.685  0.1955 -0.5953 -0.4664
17059SOL     OW53183   5.057   7.542   0.010 -0.0389  0.2318 -0.1427
17059SOL    HW153184   5.083   7.583   0.093 -1.1884 -0.1389  0.4193
17059SOL    HW253185   5.017   7.613  -0.040  0.4568  0.4043 -0.3097
17060SOL     OW53186   4.230  10.835   7.021 -0.4078  0.3548 -0.1033
17060SOL    HW153187   4.166  10.905   7.030  0.0467  0.8981 -1.0017
17060SOL    HW253188   4.259  10.840   6.930  0.4505 -0.2867  0.1190
17061SOL     OW53189   1.314   6.600   4.688 -0.0689  0.0118  0.5956
17061SOL    HW153190   1.301   6.680   4.740  1.3450 -0.5279  1.8477
17061SOL    HW253191   1.409   6.593   4.678 -0.2081 -1.1612 -0.0645
17062SOL     OW53192   7.145   1.694   5.776 -0.1980  0.1679 -0.3592
17062SOL    HW153193   7.077   1.680   5.841  0.7191  1.5819  0.9634
17062SOL    HW253194   7.152   1.789   5.767  2.8707  0.1922  1.0104
17063SOL     OW53195   7.539   9.006   4.733  0.3005  0.3649 -0.0594
17063SOL    HW153196   7.524   9.061   4.809  1.3220  1.4680 -0.6283
17063SOL    HW253197   7.623   8.964   4.749  0.1417 -0.0351 -0.2283
17064SOL     OW53198  10.797   8.265   4.871  0.0388  0.2704  0.2572
17064SOL    HW153199  10.803   8.354   4.906 -0.1760 -0.0295  1.0556
17064SOL    HW253200  10.857   8.265   4.796  0.3569  0.9659  0.5087
17065SOL     OW53201   9.174   5.107   7.505 -0.2513  0.3038  0.3899
17065SOL    HW153202   9.109   5.064   7.561 -0.3998  0.5917  0.4376
17065SOL    HW253203   9.217   5.170   7.563 -0.1785  0.3688  0.2645
17066SOL     OW53204   0.852   2.601   7.865 -0.0040 -0.7772 -0.0518
17066SOL    HW153205   0.891   2.563   7.786  0.8424 -1.3736  0.6394
17066SOL    HW253206   0.866   2.536   7.933  0.3689  0.2461  0.8746
17067SOL     OW53207   4.147   8.868   7.832  0.4022  0.1704  0.2577
17067SOL    HW153208   4.121   8.933   7.767 -2.9990 -0.7707  0.4740
17067SOL    HW253209   4.175   8.792   7.782 -0.9802 -0.0931 -0.1714
17068SOL     OW53210   7.138   4.108   5.356  0.1442  0.7176  0.0418
17068SOL    HW153211   7.118   4.043   5.424 -3.9974  1.4469 -0.2341
17068SOL    HW253212   7.134   4.192   5.403 -0.2953  1.0858 -0.6524
17069SOL     OW53213  10.990   3.106   5.837  0.3783  0.2095  0.2104
17069SOL    HW153214  11.004   3.145   5.924 -0.1170 -0.5803  0.6566
17069SOL    HW253215  10.896   3.118   5.821  0.2060 -0.8427  0.3885
17070SOL     OW53216   8.039   9.454   8.658 -0.0613 -0.4770 -0.3947
17070SOL    HW153217   7.990   9.536   8.653  0.4102 -0.2604 -2.3997
17070SOL    HW253218   8.029   9.414   8.572  3.2218 -0.4135 -0.9555
17071SOL     OW53219   0.384   7.444   8.717 -0.2320  0.3656 -0.3365
17071SOL    HW153220   0.311   7.386   8.698 -1.6897  2.0947 -0.2466
17071SOL    HW253221   0.379   7.458   8.812 -0.8373  1.7910 -0.5586
17072SOL     OW53222   2.179   1.924   7.083 -0.6741 -0.2479 -0.0599
17072SOL    HW153223   2.240   1.851   7.090 -1.2052 -0.5631  1.8281
17072SOL    HW253224   2.213   1.990   7.143 -1.3741  0.1757 -0.1109
17073SOL     OW53225   5.747   2.924   7.265 -0.5950  0.2082  0.1973
17073SOL    HW153226   5.828   2.960   7.230 -1.4978  2.1268 -0.0676
17073SOL    HW253227   5.699   3.000   7.297 -1.9984 -0.9511  1.0026
17074SOL     OW53228   2.384   4.147   0.568 -0.3181  0.4246  0.2369
17074SOL    HW153229   2.467   4.192   0.554 -1.0713  1.4893 -1.1015
17074SOL    HW253230   2.326   4.214   0.604 -0.1326 -0.7816  3.0548
17075SOL     OW53231   4.490  10.814   1.058 -0.1187 -0.2246  0.0600
17075SOL    HW153232   4.454  10.885   1.111 -0.2726 -0.1954 -0.0832
17075SOL    HW253233   4.515  10.856   0.975  0.7295 -0.1368  0.3425
17076SOL     OW53234   8.956   8.984   1.542 -0.2855  0.0170  0.3757
17076SOL    HW153235   8.871   8.994   1.585 -0.1433 -1.8496  1.1552
17076SOL    HW253236   9.017   9.031   1.600 -0.7771  1.6258 -0.3431
17077SOL     OW53237   6.340   4.889   7.906  0.1258 -0.6006  0.3009
17077SOL    HW153238   6.324   4.946   7.981  1.7057  0.5289 -0.1843
17077SOL    HW253239   6.424   4.847   7.925 -0.6910 -2.2986  0.3322
17078SOL     OW53240   9.756   1.990   8.656 -0.0469  0.0967 -0.4219
17078SOL    HW153241   9.720   1.973   8.744 -1.3980 -1.4529 -1.2170
17078SOL    HW253242   9.707   2.067   8.625  0.8867  1.0542  0.3843
17079SOL     OW53243   4.835   6.233   8.627  0.0599  0.0550  0.2963
17079SOL    HW153244   4.862   6.144   8.650 -1.2186 -0.4238  0.0707
17079SOL    HW253245   4.840   6.236   8.531 -0.6306 -0.0450  0.2480
17080SOL     OW53246   4.175   7.744   8.967 -0.3062  0.3104  0.2087
17080SOL    HW153247   4.209   7.739   9.056 -0.0671 -0.4592  0.0847
17080SOL    HW253248   4.253   7.761   8.913  0.2215 -2.8595 -0.2369
17081SOL     OW53249   5.575   6.841   6.305  0.7392  0.0402 -0.1914
17081SOL    HW153250   5.550   6.916   6.251  0.8131 -0.1816 -0.5318
17081SOL    HW253251   5.611   6.777   6.244  1.7155  0.1670  0.2240
17082SOL     OW53252   8.592   1.783   3.119 -0.4254  0.3993  0.7158
17082SOL    HW153253   8.517   1.724   3.106 -0.8822  1.2201 -0.5406
17082SOL    HW253254   8.643   1.741   3.188 -1.0577 -1.1403  0.2960
17083SOL     OW53255   5.682   9.438   3.940 -0.6630  0.1507  0.3993
17083SOL    HW153256   5.655   9.485   4.018  1.1239  0.1519  1.0677
17083SOL    HW253257   5.735   9.502   3.891 -2.0594  0.2694 -1.0150
17084SOL     OW53258   3.423   7.000   8.090  0.1022  0.0751  0.4703
17084SOL    HW153259   3.370   7.078   8.103 -0.0260  0.2672 -1.0398
17084SOL    HW253260   3.513   7.033   8.086  0.0939  0.0830  0.3483
17085SOL     OW53261   2.784   0.520   8.581 -0.0341  0.2800  0.4655
17085SOL    HW153262   2.703   0.520   8.530  0.8229 -0.3303 -0.9542
17085SOL    HW253263   2.854   0.524   8.515  1.0960  1.8492  1.6871
17086SOL     OW53264   1.537   4.902   6.817 -0.0743  0.0834  0.0161
17086SOL    HW153265   1.481   4.979   6.811 -0.0600  0.0211 -1.0990
17086SOL    HW253266   1.518   4.865   6.904 -1.5933  0.1748 -0.2526
17087SOL     OW53267   4.807   7.320  10.570 -0.1153  0.1317 -0.2792
17087SOL    HW153268   4.745   7.253  10.544  0.7247 -1.1136  0.8364
17087SOL    HW253269   4.890   7.273  10.582  0.2943  1.2053  1.3561
17088SOL     OW53270   6.488   3.665   4.034 -0.2777  0.2520  0.6001
17088SOL    HW153271   6.570   3.695   3.995 -0.9697  1.0667 -0.2826
17088SOL    HW253272   6.489   3.699   4.123  0.8434 -0.7178  0.9774
17089SOL     OW53273   7.013   6.150   0.161 -0.0755  0.8271  0.1658
17089SOL    HW153274   7.084   6.211   0.180  0.6308  0.2227 -0.5004
17089SOL    HW253275   6.979   6.178   0.076  0.1202  0.4241 -0.0488
17090SOL     OW53276   1.978   8.718   0.053 -1.0319  0.0811  0.0472
17090SOL    HW153277   1.963   8.812   0.044 -0.3086  0.5935  3.0717
17090SOL    HW253278   1.894   8.682   0.080 -0.9830  0.0860  0.2068
17091SOL     OW53279   3.655   9.522   5.096  0.3347 -0.2247 -0.2171
17091SOL    HW153280   3.565   9.497   5.076  0.4282  0.0012 -0.9322
17091SOL    HW253281   3.655   9.618   5.091  0.5124 -0.1942  0.2472
17092SOL     OW53282   0.489   8.273   9.753  0.7153  0.0048 -0.1743
17092SOL    HW153283   0.561   8.313   9.703 -0.1295  1.5278 -0.2230
17092SOL    HW253284   0.486   8.322   9.835  0.9849 -1.3609  0.6968
17093SOL     OW53285   2.711   3.564   4.252 -0.4798  0.0643 -0.1961
17093SOL    HW153286   2.631   3.610   4.276  0.0358  0.1564  1.4510
17093SOL    HW253287   2.706   3.555   4.157 -2.3798  0.1479 -0.1282
17094SOL     OW53288   4.289   5.432   2.319 -0.0069 -0.4878  0.2760
17094SOL    HW153289   4.373   5.466   2.350 -0.9321 -0.1051  2.5427
17094SOL    HW253290   4.294   5.338   2.333  0.6761 -0.7021 -1.2675
17095SOL     OW53291   8.160   3.063   5.803  0.0668 -0.8317  0.4669
17095SOL    HW153292   8.248   3.098   5.816 -0.0628 -0.0619 -0.5994
17095SOL    HW253293   8.103   3.118   5.857 -0.1205  0.5847 -1.1010
17096SOL     OW53294   1.177   4.952  10.591 -0.2757 -0.3139  0.1547
17096SOL    HW153295   1.271   4.961  10.605 -0.1675 -0.0895 -0.6513
17096SOL    HW253296   1.153   4.874  10.641  0.5029 -0.8785 -0.3229
17097SOL     OW53297   9.913   7.610   9.681 -0.3447  0.3358 -0.2320
17097SOL    HW153298   9.819   7.608   9.662 -0.5324  1.6191  0.4856
17097SOL    HW253299   9.926   7.542   9.747 -0.5159 -0.7684 -1.2852
17098SOL     OW53300   1.254   8.647   1.957 -0.2247 -0.0255 -0.0167
17098SOL    HW153301   1.332   8.664   1.904  0.2357  1.1039  0.9699
17098SOL    HW253302   1.271   8.562   1.997  1.3587  0.9733  1.5752
17099SOL     OW53303  10.755   7.909   9.394  0.0832  0.5747  0.0599
17099SOL    HW153304  10.738   7.957   9.475  0.3470  1.8109 -0.5957
17099SOL    HW253305  10.773   7.977   9.330 -0.3188 -0.3809 -1.0904
17100SOL     OW53306  10.545   1.742   9.754  0.0366 -0.3669  0.2208
17100SOL    HW153307  10.471   1.736   9.694  0.5387  1.2870 -0.6370
17100SOL    HW253308  10.619   1.765   9.698  0.9093 -0.6208  1.2380
17101SOL     OW53309   4.079   8.260   2.872 -0.3206 -0.0403 -0.4256
17101SOL    HW153310   4.173   8.278   2.878 -0.2233 -0.4776 -0.6182
17101SOL    HW253311   4.052   8.304   2.791 -0.5194  1.0736  0.2215
17102SOL     OW53312   5.282   2.561   2.255  0.1778 -0.0650 -0.1855
17102SOL    HW153313   5.354   2.560   2.193  0.3618 -0.4483  0.0274
17102SOL    HW253314   5.204   2.578   2.202  0.1836 -1.4776 -0.6966
17103SOL     OW53315   3.450   2.387   3.225 -0.4474  0.8491  0.2732
17103SOL    HW153316   3.397   2.439   3.286 -0.0936  0.9366  0.5041
17103SOL    HW253317   3.405   2.397   3.141 -2.2046 -1.0288  0.9053
17104SOL     OW53318   6.806   6.563   2.585 -0.0357 -0.0661 -0.0509
17104SOL    HW153319   6.829   6.516   2.665 -0.2935 -0.3075 -0.1139
17104SOL    HW253320   6.836   6.652   2.600 -0.2275 -0.0698  0.3814
17105SOL     OW53321   3.646   9.510  10.029 -0.2030  0.2526 -0.1913
17105SOL    HW153322   3.596   9.590  10.048  2.7196  1.7820  1.8445
17105SOL    HW253323   3.704   9.534   9.957  0.4907 -0.1056  0.2333
17106SOL     OW53324   0.622   2.307   5.243  0.6014  0.1952 -0.1560
17106SOL    HW153325   0.689   2.240   5.234  1.0124  0.8279 -2.4821
17106SOL    HW253326   0.665   2.388   5.215 -0.7659  0.8413 -0.4790
17107SOL     OW53327   5.221   6.486   2.128  0.0331 -0.0432 -0.1495
17107SOL    HW153328   5.245   6.554   2.065  1.4993 -0.6985 -0.3676
17107SOL    HW253329   5.236   6.525   2.214 -0.4907  0.3606 -0.2428
17108SOL     OW53330   2.829  10.565   6.900 -0.1530 -0.3687 -0.7147
17108SOL    HW153331   2.791  10.523   6.823  0.4595 -1.0909 -0.6325
17108SOL    HW253332   2.767  10.545   6.971  0.1020 -1.0793 -0.6908
17109SOL     OW53333   2.697   7.760   6.295  0.3776  0.0890  0.3800
17109SOL    HW153334   2.652   7.791   6.373  0.2335  1.3188 -0.1607
17109SOL    HW253335   2.673   7.823   6.227  0.7516 -0.7710 -0.5818
17110SOL     OW53336  10.807   7.784   2.418  0.0943 -0.6460  0.4180
17110SOL    HW153337  10.751   7.741   2.483  0.0887 -1.3309 -0.0306
17110SOL    HW253338  10.862   7.714   2.384  0.0938 -0.2953 -0.3220
17111SOL     OW53339   6.906   0.876   7.044  0.0278 -0.3432 -0.6098
17111SOL    HW153340   7.000   0.893   7.036  0.0926 -1.0804 -1.5879
17111SOL    HW253341   6.877   0.859   6.955 -1.2386  0.8368 -0.4482
17112SOL     OW53342   2.238   5.498   3.332 -0.3693  0.7632 -0.8466
17112SOL    HW153343   2.273   5.527   3.248 -2.3506  0.5961 -1.7709
17112SOL    HW253344   2.315   5.494   3.389  0.9446  1.3945 -2.4797
17113SOL     OW53345   5.724   7.505  10.311 -0.0947 -0.6341  0.2290
17113SOL    HW153346   5.777   7.561  10.368 -2.0169  0.9733  0.5434
17113SOL    HW253347   5.757   7.416  10.327  0.9314  0.0445  2.1438
17114SOL     OW53348   6.797   3.252  10.166 -0.4768 -0.1662 -0.1827
17114SOL    HW153349   6.891   3.269  10.177 -0.9272  2.8501 -0.1889
17114SOL    HW253350   6.773   3.202  10.244  1.0942 -0.8882 -0.1222
17115SOL     OW53351   7.777   4.156   7.335 -0.3196 -0.2522 -0.3107
17115SOL    HW153352   7.758   4.102   7.257 -1.1811 -0.4809  0.0383
17115SOL    HW253353   7.705   4.219   7.338  0.2143  0.3549 -0.2177
17116SOL     OW53354   8.703   9.540   7.137 -0.4932 -0.0396  0.4771
17116SOL    HW153355   8.636   9.486   7.095 -1.0212  0.7760  0.2413
17116SOL    HW253356   8.766   9.559   7.067 -0.6052  0.1133  0.4179
17117SOL     OW53357   8.090   8.745   5.955  0.0201  0.0864 -0.2335
17117SOL    HW153358   8.164   8.736   5.895  0.4982 -0.2362  0.4001
17117SOL    HW253359   8.096   8.669   6.013 -1.2465 -0.3477 -0.6404
17118SOL     OW53360   3.605   3.211   8.629  0.0318 -0.5575 -0.6874
17118SOL    HW153361   3.630   3.145   8.693 -0.5488  0.5509  0.7414
17118SOL    HW253362   3.545   3.166   8.570  0.5038 -1.5820 -0.4030
17119SOL     OW53363   4.536   1.817   1.854 -0.1076 -0.2500  0.0360
17119SOL    HW153364   4.621   1.783   1.825  0.8498  1.3836  0.7486
17119SOL    HW253365   4.492   1.843   1.773  0.7444  0.3266 -0.2596
17120SOL     OW53366   2.222   4.120   7.800  0.2390 -0.3821 -0.0376
17120SOL    HW153367   2.201   4.065   7.724  1.4848  0.4297 -1.0043
17120SOL    HW253368   2.295   4.075   7.842  0.1292 -0.3632  0.1758
17121SOL     OW53369   3.585   2.372   1.857 -0.0190  0.2088  0.6328
17121SOL    HW153370   3.532   2.437   1.903  0.8081  1.1527  0.2977
17121SOL    HW253371   3.640   2.333   1.925  1.7223  2.1119  0.4087
17122SOL     OW53372   3.052   6.104   9.888  0.2477  0.4605  0.4108
17122SOL    HW153373   3.064   6.011   9.909  1.4102  0.8123  1.3784
17122SOL    HW253374   3.132   6.146   9.917  1.0284  1.3844 -2.6919
17123SOL     OW53375   0.464   6.099  10.285 -0.2430  0.2483  0.5107
17123SOL    HW153376   0.433   6.174  10.235  2.0446 -0.1592 -1.7496
17123SOL    HW253377   0.385   6.053  10.313 -1.6382  1.6881 -0.9068
17124SOL     OW53378   6.199   7.328  10.645  0.2070  0.7679  0.2618
17124SOL    HW153379   6.125   7.387  10.661 -1.4148 -0.5337 -1.9327
17124SOL    HW253380   6.237   7.360  10.563  1.9612  1.2426  1.2192
17125SOL     OW53381   8.312   8.160   8.118 -0.4175 -0.2833  0.0985
17125SOL    HW153382   8.394   8.191   8.079 -0.4904  0.0755  0.2359
17125SOL    HW253383   8.297   8.217   8.193 -1.2356  0.1842 -0.4155
17126SOL     OW53384   0.187   7.739   8.700  0.3857 -0.1094  0.3147
17126SOL    HW153385   0.169   7.668   8.761 -0.6952  0.8324  1.1358
17126SOL    HW253386   0.106   7.790   8.697  0.2683 -0.3096 -2.2191
17127SOL     OW53387   3.315   2.775   2.804  0.1359 -0.4161 -0.7979
17127SOL    HW153388   3.393   2.822   2.774  1.1640  0.0953  2.2348
17127SOL    HW253389   3.339   2.682   2.799  0.7182 -0.2870 -0.4691
17128SOL     OW53390   0.814   1.171   3.238 -0.1677 -0.1186 -0.1330
17128SOL    HW153391   0.884   1.221   3.195 -0.7918  1.6126  0.7663
17128SOL    HW253392   0.740   1.177   3.178 -0.1036 -0.3755 -0.2388
17129SOL     OW53393   3.402   7.322   3.050  0.2300 -0.0534 -0.4273
17129SOL    HW153394   3.367   7.376   2.979 -0.4181  0.4881  0.2807
17129SOL    HW253395   3.405   7.234   3.014 -0.8731  0.0706 -0.8776
17130SOL     OW53396   3.312   7.879  10.119 -0.1093  0.2660  0.9104
17130SOL    HW153397   3.316   7.897  10.025  0.3497  0.5232  0.9725
17130SOL    HW253398   3.382   7.815  10.134 -1.1746 -0.9568  0.8337
17131SOL     OW53399   7.278  10.987   7.144  0.4562  0.5922  0.1670
17131SOL    HW153400   7.349  10.928   7.120  0.3279  0.4996  0.0110
17131SOL    HW253401   7.266  10.973   7.238 -0.4856 -0.6442 -0.1025
17132SOL     OW53402   8.694   4.011   5.777 -0.3655  0.0864  0.8679
17132SOL    HW153403   8.639   4.063   5.836  0.5624  0.8845  1.0546
17132SOL    HW253404   8.649   4.015   5.693 -1.2143 -0.2811  1.2934
17133SOL     OW53405   1.640  10.172  10.966 -0.3501  0.1889  0.0115
17133SOL    HW153406   1.587  10.130  11.034  0.5298 -1.0951 -0.0570
17133SOL    HW253407   1.595  10.255  10.948 -2.3004 -0.8072 -0.0020
17134SOL     OW53408   4.075   2.444   8.964  0.1375  0.1678 -0.2206
17134SOL    HW153409   4.135   2.507   8.924  1.1536 -0.6503 -0.0284
17134SOL    HW253410   4.112   2.359   8.943 -0.3397 -0.3297  0.8839
17135SOL     OW53411   7.939   4.524   5.174  0.0256  0.7602  0.0465
17135SOL    HW153412   7.970   4.501   5.261 -1.7178 -1.4344  0.1749
17135SOL    HW253413   7.844   4.532   5.183 -0.2805 -0.2502 -1.7547
17136SOL     OW53414   5.597   4.131   7.223  0.5067 -0.1652 -0.2909
17136SOL    HW153415   5.660   4.112   7.292  0.1820  0.8654  0.3131
17136SOL    HW253416   5.650   4.137   7.143  0.6926 -3.0515 -0.5064
17137SOL     OW53417   4.626   8.163   3.552  0.2039 -0.2609 -0.6808
17137SOL    HW153418   4.640   8.242   3.605 -1.1585 -0.5515  0.1398
17137SOL    HW253419   4.689   8.100   3.587 -2.0982 -1.1715  2.1715
17138SOL     OW53420   2.730   3.224   3.103  0.1346  0.5046  0.1598
17138SOL    HW153421   2.699   3.175   3.179 -0.2807 -0.8670 -0.8371
17138SOL    HW253422   2.736   3.315   3.133 -2.0862  0.3737  1.2506
17139SOL     OW53423   0.778   4.014   8.329  0.4931  0.2502 -0.0266
17139SOL    HW153424   0.805   4.105   8.327  0.6714  0.1897 -0.6402
17139SOL    HW253425   0.695   4.012   8.281  0.5833  0.0649 -0.1802
17140SOL     OW53426   1.693   9.275   8.601 -0.1961 -0.6326  0.0004
17140SOL    HW153427   1.605   9.292   8.635 -0.3595 -1.0945 -0.1947
17140SOL    HW253428   1.745   9.350   8.631 -0.8684  0.1298 -0.7002
17141SOL     OW53429   8.182  10.333   1.611 -0.2491  0.3771  0.0144
17141SOL    HW153430   8.103  10.280   1.616 -1.2840  1.8121 -0.3013
17141SOL    HW253431   8.208  10.329   1.519 -1.0488  1.3686 -0.2750
17142SOL     OW53432  10.466   8.462  10.497 -0.4181 -0.4278 -0.6808
17142SOL    HW153433  10.533   8.395  10.494 -0.1304 -0.4472  2.4931
17142SOL    HW253434  10.512   8.545  10.482 -0.4160 -0.6927 -2.3697
17143SOL     OW53435   2.382   9.847   5.194  0.2064 -0.1936  0.3743
17143SOL    HW153436   2.361   9.760   5.160 -0.1945 -0.0908  0.3662
17143SOL    HW253437   2.473   9.861   5.167  0.4337 -0.8085  0.7842
17144SOL     OW53438   4.651   3.802   1.194 -0.3838  0.2458 -0.2111
17144SOL    HW153439   4.569   3.754   1.191 -1.7813  2.3718  1.0385
17144SOL    HW253440   4.657   3.834   1.284  1.9699 -0.0237 -0.1904
17145SOL     OW53441   9.880   7.661   7.862  0.2217  0.3294  0.0380
17145SOL    HW153442   9.926   7.587   7.823 -0.3959 -0.2222  0.3414
17145SOL    HW253443   9.789   7.651   7.833  0.0677  0.7794  0.3511
17146SOL     OW53444  10.470   0.230   6.901 -0.2401 -0.0079  0.2317
17146SOL    HW153445  10.389   0.224   6.850 -0.7896 -0.1776  1.1145
17146SOL    HW253446  10.443   0.218   6.992  0.5817  1.2925  0.6854
17147SOL     OW53447  10.568  10.208   5.355  0.3467 -0.6488  0.4917
17147SOL    HW153448  10.616  10.168   5.428 -0.6840  0.8303  2.0652
17147SOL    HW253449  10.637  10.238   5.295  1.4332  0.8165  2.3529
17148SOL     OW53450   4.344   3.764   1.971 -0.4833 -0.0677  0.0582
17148SOL    HW153451   4.316   3.793   1.885 -1.4750  0.4449  0.5419
17148SOL    HW253452   4.385   3.679   1.956  0.6349  0.6508 -1.1037
17149SOL     OW53453   6.300   5.864   1.294 -0.3933  0.1746 -0.2546
17149SOL    HW153454   6.307   5.949   1.251 -0.9342  0.4189  0.1333
17149SOL    HW253455   6.369   5.811   1.254  0.8665  1.2081  0.4964
17150SOL     OW53456   0.756   7.693   0.805 -0.2863 -0.0812 -0.0823
17150SOL    HW153457   0.736   7.711   0.713  0.2050  2.8362  0.2956
17150SOL    HW253458   0.683   7.639   0.835 -1.5723  0.6969 -1.6515
17151SOL     OW53459  10.847   2.227   3.117 -0.0105 -0.6815  0.9659
17151SOL    HW153460  10.901   2.212   3.040 -1.1498  0.6774 -0.1509
17151SOL    HW253461  10.894   2.292   3.168 -0.6929  0.7754 -0.1862
17152SOL     OW53462   5.752   1.945   0.081  0.2051  0.7281 -0.1632
17152SOL    HW153463   5.828   1.947   0.023  0.2193  1.6428 -0.1211
17152SOL    HW253464   5.753   2.029   0.126  0.3773 -0.0888  1.4225
17153SOL     OW53465   4.731   0.820   7.923  0.3973  0.0246  0.2231
17153SOL    HW153466   4.729   0.848   8.014  1.1900 -0.3459  0.3602
17153SOL    HW253467   4.735   0.902   7.873 -0.7801  0.2533  0.4795
17154SOL     OW53468   0.607   1.373   0.689 -0.2824  0.0493 -0.0145
17154SOL    HW153469   0.684   1.320   0.669  1.5534  1.7356  2.1921
17154SOL    HW253470   0.533   1.314   0.671  1.5652 -2.7428  0.8394
17155SOL     OW53471   4.116   9.908   1.341  0.1012 -0.5688  0.2852
17155SOL    HW153472   4.066   9.870   1.414  0.2377  2.3420  2.0464
17155SOL    HW253473   4.144   9.993   1.374  0.0823  0.9466 -3.2559
17156SOL     OW53474   8.413   7.227   0.602 -0.6768 -0.2271  0.6699
17156SOL    HW153475   8.422   7.316   0.569  1.7887  0.1215  2.0779
17156SOL    HW253476   8.458   7.173   0.537 -0.8121 -0.2718  0.6109
17157SOL     OW53477   5.317   2.191   1.066 -0.2193  0.4790 -0.0968
17157SOL    HW153478   5.266   2.126   1.019 -0.2720  0.9525 -0.6961
17157SOL    HW253479   5.394   2.206   1.012  1.5623 -1.6229  1.6806
17158SOL     OW53480   8.816   9.803   5.079 -0.4079 -0.2024  0.7921
17158SOL    HW153481   8.833   9.857   5.156  0.2175  1.9478 -0.7576
17158SOL    HW253482   8.745   9.848   5.033  0.5485 -0.3292 -0.8800
17159SOL     OW53483   9.613   4.626   3.845  0.7532  0.0435  0.2109
17159SOL    HW153484   9.661   4.557   3.799 -0.0896  0.2652 -1.0522
17159SOL    HW253485   9.628   4.609   3.938 -0.8152 -2.8733  0.0272
17160SOL     OW53486   7.146  10.514   9.506  0.1788 -0.0892 -0.0614
17160SOL    HW153487   7.111  10.555   9.427 -1.1245  0.9890  1.0339
17160SOL    HW253488   7.187  10.585   9.554 -1.0008 -0.2492  1.2688
17161SOL     OW53489   3.134   1.015   6.358  0.0961  0.0624 -0.0920
17161SOL    HW153490   3.045   1.027   6.324  0.2644  1.9277  0.0410
17161SOL    HW253491   3.129   1.045   6.449  0.4275 -1.7401  0.5613
17162SOL     OW53492   4.620   1.455   2.440 -0.3072 -0.1695  0.0274
17162SOL    HW153493   4.682   1.526   2.427 -0.1922 -0.4043 -0.7421
17162SOL    HW253494   4.549   1.472   2.378 -1.2238  0.3176  1.1727
17163SOL     OW53495  10.234   9.668   9.786  0.4172  0.4236 -0.0143
17163SOL    HW153496  10.230   9.581   9.748  1.3312 -0.7370  2.3768
17163SOL    HW253497  10.152   9.677   9.835  0.7622  0.4746  0.5684
17164SOL     OW53498   3.406   7.115   4.033  0.2541  0.7052 -0.2180
17164SOL    HW153499   3.423   7.052   4.103  2.0612  0.2407 -1.0104
17164SOL    HW253500   3.316   7.143   4.047 -0.2191 -1.1851  0.8432
17165SOL     OW53501   8.823   8.592   6.485 -0.1985  0.2088 -0.0252
17165SOL    HW153502   8.802   8.654   6.416 -0.2162 -1.7041 -1.8630
17165SOL    HW253503   8.851   8.646   6.559 -1.1358  2.3871 -1.1685
17166SOL     OW53504   6.112   3.801   2.342 -0.0852 -0.6945  0.4197
17166SOL    HW153505   6.072   3.725   2.299 -0.5643  0.2680 -0.9031
17166SOL    HW253506   6.204   3.779   2.350 -0.3978 -1.8710  1.1191
17167SOL     OW53507   0.276   4.764   7.551  0.1970  0.0978  0.0887
17167SOL    HW153508   0.251   4.675   7.575 -0.7170  0.2366 -0.3052
17167SOL    HW253509   0.312   4.801   7.632  0.2449 -0.5084  0.3512
17168SOL     OW53510   4.875   2.552  10.055  0.7541 -0.0683 -0.3888
17168SOL    HW153511   4.889   2.550  10.150  0.9125 -1.2190 -0.4273
17168SOL    HW253512   4.780   2.543  10.045  0.6526  0.8299 -0.3303
17169SOL     OW53513   4.241   3.477   8.776 -0.0059  0.2595 -0.0899
17169SOL    HW153514   4.293   3.396   8.771 -0.1964  0.1178  0.1731
17169SOL    HW253515   4.202   3.485   8.689 -0.2352 -0.1048 -0.0267
17170SOL     OW53516   5.426   1.555   8.541 -0.3922  0.3682 -0.3512
17170SOL    HW153517   5.471   1.479   8.504 -1.1784 -0.3721  0.1785
17170SOL    HW253518   5.419   1.534   8.634  0.4537  1.6388  0.0193
17171SOL     OW53519   1.066   2.773   0.048  0.0932  0.6105 -0.0973
17171SOL    HW153520   1.015   2.713   0.103  0.4101  1.2852  0.9559
17171SOL    HW253521   1.157   2.759   0.075  0.2783  0.8337 -0.5801
17172SOL     OW53522   0.528   1.602   4.735 -0.0772  0.4257  0.3676
17172SOL    HW153523   0.464   1.669   4.713 -0.2178  0.0370 -0.4462
17172SOL    HW253524   0.613   1.646   4.728 -0.0415  0.1435 -1.8674
17173SOL     OW53525   1.430   3.560   3.421 -0.4582  0.0678 -0.7619
17173SOL    HW153526   1.449   3.468   3.438 -1.5975  0.3354  2.8710
17173SOL    HW253527   1.513   3.605   3.435 -0.2868 -0.2289 -0.8050
17174SOL     OW53528   1.265   5.088   8.318 -1.0297 -0.0484 -0.1097
17174SOL    HW153529   1.253   5.024   8.388 -0.9683 -0.2210 -0.2566
17174SOL    HW253530   1.188   5.144   8.323 -0.6559  0.4069  0.5820
17175SOL     OW53531   4.860  10.950   8.262 -0.2583 -0.1349 -0.1322
17175SOL    HW153532   4.904  10.878   8.216 -0.6135 -0.3269 -0.1774
17175SOL    HW253533   4.922  10.977   8.329 -0.2435 -0.7008  0.0929
17176SOL     OW53534   4.627   1.940   7.693 -0.1123 -0.7018  0.1244
17176SOL    HW153535   4.585   2.015   7.653 -0.9953 -0.4307  1.5212
17176SOL    HW253536   4.611   1.868   7.631 -0.2038 -0.0065 -0.6812
17177SOL     OW53537  10.074   3.805  10.300  0.2395 -0.2510  0.4558
17177SOL    HW153538   9.994   3.856  10.287  0.0973 -0.5227  0.2430
17177SOL    HW253539  10.131   3.862  10.352  0.4852  0.5306 -0.6472
17178SOL     OW53540  10.195   3.619   7.163  0.1596  0.4341 -0.0975
17178SOL    HW153541  10.277   3.666   7.148 -0.5250  1.2668 -1.4720
17178SOL    HW253542  10.127   3.684   7.145 -0.8037 -0.7521 -0.9265
17179SOL     OW53543   9.884   2.874   0.895 -0.3281 -0.5485  0.3188
17179SOL    HW153544   9.848   2.820   0.824  0.3750  0.7863 -1.1231
17179SOL    HW253545   9.807   2.917   0.933 -0.5828 -0.0794 -0.6916
17180SOL     OW53546   3.027   2.970   2.331 -0.1694  0.1613 -0.6165
17180SOL    HW153547   2.984   3.047   2.367  0.5098  0.3958 -0.2781
17180SOL    HW253548   3.085   2.940   2.402 -3.7888 -3.5198  1.2267
17181SOL     OW53549   7.315   0.464   2.902 -0.2598  0.0475 -0.0602
17181SOL    HW153550   7.363   0.545   2.880  0.2484 -0.5500 -1.2348
17181SOL    HW253551   7.383   0.404   2.933 -0.8252  0.5303  2.3909
17182SOL     OW53552   3.605   3.906   7.884  0.0518 -0.0252  0.1019
17182SOL    HW153553   3.675   3.955   7.927  0.9128  0.6692 -1.9921
17182SOL    HW253554   3.610   3.818   7.923  1.7869  0.1408  0.3208
17183SOL     OW53555   9.902   0.280   8.568  0.1031 -0.2899 -0.6237
17183SOL    HW153556   9.843   0.210   8.597 -0.1646 -0.6842 -2.0311
17183SOL    HW253557   9.854   0.361   8.586 -0.8166 -0.5972 -1.5413
17184SOL     OW53558   6.036   7.123  10.468  0.4696 -0.0120 -0.2736
17184SOL    HW153559   6.101   7.188  10.495 -0.1225  1.5057 -2.2928
17184SOL    HW253560   6.084   7.065  10.409  0.0835  0.9789 -1.5918
17185SOL     OW53561   0.344   1.799   7.151  0.0275 -0.0177 -0.2212
17185SOL    HW153562   0.316   1.884   7.186 -2.2740 -1.2123  1.0379
17185SOL    HW253563   0.271   1.740   7.170  1.1238 -2.0709 -1.9938
17186SOL     OW53564   4.175   1.264   5.535  0.0605 -0.0185  0.0648
17186SOL    HW153565   4.127   1.208   5.474  0.6159 -1.8703  1.2284
17186SOL    HW253566   4.254   1.290   5.487  1.2599 -2.7233  0.4003
17187SOL     OW53567   8.535   0.924   0.812 -0.5686  0.9099 -0.3623
17187SOL    HW153568   8.590   0.908   0.888 -1.5558 -0.5723  0.0725
17187SOL    HW253569   8.473   0.992   0.840  0.9396  2.5640 -0.8446
17188SOL     OW53570   2.794  10.674   1.012 -0.4211 -0.4943  0.4253
17188SOL    HW153571   2.836  10.695   1.096  0.9446 -1.5742  0.0443
17188SOL    HW253572   2.815  10.748   0.955 -2.9910  1.2210  1.5031
17189SOL     OW53573   8.474   3.835   3.498 -0.0873 -0.0705  1.3007
17189SOL    HW153574   8.478   3.761   3.438 -0.4147 -1.0559  2.4509
17189SOL    HW253575   8.396   3.884   3.472 -0.9339 -1.1812  1.6816
17190SOL     OW53576   7.931   3.488   9.283  0.3116  0.2755  0.4212
17190SOL    HW153577   7.987   3.534   9.345  0.0771 -0.7389  1.4227
17190SOL    HW253578   7.948   3.531   9.199  2.0796  0.4396  0.8154
17191SOL     OW53579   1.545   2.277   6.436  0.0651  0.1788 -0.4813
17191SOL    HW153580   1.594   2.268   6.518 -2.4878  1.6853  1.3935
17191SOL    HW253581   1.602   2.329   6.380  1.6034 -0.2474  0.6183
17192SOL     OW53582   6.946   5.743   7.135 -0.4854 -0.3267 -0.4140
17192SOL    HW153583   6.854   5.715   7.125 -0.6113 -0.1109  0.0897
17192SOL    HW253584   6.969   5.782   7.051 -0.3516 -1.8142 -1.0965
17193SOL     OW53585   9.017   1.910   8.712 -0.2108  0.3152  0.1888
17193SOL    HW153586   9.015   1.899   8.807 -2.2845  2.7262  0.5233
17193SOL    HW253587   9.030   2.004   8.699 -0.7216  0.1376 -1.9186
17194SOL     OW53588   4.174   7.059   2.626 -0.1747 -0.1694  0.5436
17194SOL    HW153589   4.121   6.987   2.590 -0.4077 -0.8272  2.1256
17194SOL    HW253590   4.172   7.045   2.720  2.4220  0.0673  0.7029
17195SOL     OW53591   0.490   6.902   3.859 -0.7651  0.4312 -0.0479
17195SOL    HW153592   0.405   6.912   3.815 -1.2787  4.5161  1.3843
17195SOL    HW253593   0.555   6.922   3.792 -0.8432 -2.1174 -0.9953
17196SOL     OW53594   6.568   3.483   1.559 -0.0627 -0.0096 -0.2088
17196SOL    HW153595   6.477   3.477   1.588  0.3851 -0.4406  1.1871
17196SOL    HW253596   6.619   3.445   1.630  1.2610  0.6943 -0.7323
17197SOL     OW53597   0.782   2.731   6.088  0.6634  0.5770 -0.2728
17197SOL    HW153598   0.741   2.815   6.108 -0.5920 -0.2357  0.8421
17197SOL    HW253599   0.848   2.719   6.156  0.3937  0.3854 -0.0411
17198SOL     OW53600  10.298   5.183   0.142 -0.0110  0.0088 -0.2592
17198SOL    HW153601  10.324   5.135   0.064 -1.4832  0.0331 -0.7902
17198SOL    HW253602  10.245   5.256   0.110 -1.0461 -0.2518  0.7583
17199SOL     OW53603  10.719   9.398   9.277  0.1569 -0.5256 -0.1463
17199SOL    HW153604  10.737   9.486   9.309  0.2997 -0.6201  0.0286
17199SOL    HW253605  10.703   9.346   9.355  2.1838 -1.1470 -0.0950
17200SOL     OW53606   9.685   9.917   6.666 -0.9508 -0.2844 -0.5080
17200SOL    HW153607   9.608   9.953   6.621 -1.0443 -0.0322 -0.1416
17200SOL    HW253608   9.758   9.971   6.636 -1.0007 -0.1694 -0.4236
17201SOL     OW53609   2.447   6.973   7.280  0.2872 -0.7348  0.2065
17201SOL    HW153610   2.395   7.039   7.326 -1.6035 -1.2268 -1.1302
17201SOL    HW253611   2.423   6.890   7.322  0.9501 -0.8383  0.3954
17202SOL     OW53612   9.428   9.229   9.413 -0.0992  0.1557  0.3575
17202SOL    HW153613   9.437   9.312   9.460 -1.2703  0.6326 -0.2003
17202SOL    HW253614   9.472   9.244   9.329  1.1369 -0.3628  0.8986
17203SOL     OW53615   6.131   9.017  10.159  0.0574  0.2882  0.3572
17203SOL    HW153616   6.224   9.027  10.180 -0.2160 -1.3495  2.9557
17203SOL    HW253617   6.086   9.072  10.223 -0.7799 -1.7632  1.6540
17204SOL     OW53618   4.659  10.009   4.027 -0.2856  0.4294 -0.3224
17204SOL    HW153619   4.590  10.070   4.002 -1.7413 -0.9916  0.0209
17204SOL    HW253620   4.651   9.937   3.963 -0.6039 -0.7828  1.0190
17205SOL     OW53621  10.383   9.939   1.403 -0.4016 -0.2740 -0.0937
17205SOL    HW153622  10.386  10.013   1.342  0.2717 -0.5210 -0.3607
17205SOL    HW253623  10.416   9.974   1.486 -1.3856  0.0817  0.1688
17206SOL     OW53624   6.796   3.515   7.576  0.2159 -0.0666  0.5027
17206SOL    HW153625   6.803   3.609   7.596 -1.2126  0.4153 -1.0489
17206SOL    HW253626   6.872   3.497   7.520 -0.4424  0.6172 -0.6548
17207SOL     OW53627   7.350   2.242   0.587 -0.1183 -0.0784 -0.1648
17207SOL    HW153628   7.314   2.251   0.675 -0.5620  0.5288 -0.4054
17207SOL    HW253629   7.277   2.211   0.534  0.0667 -0.1453 -0.3843
17208SOL     OW53630   3.670   8.549   9.820  0.1048 -0.4641 -0.5170
17208SOL    HW153631   3.718   8.631   9.836  0.4732 -0.8831  0.6083
17208SOL    HW253632   3.692   8.526   9.730  1.8639 -0.5111 -0.1145
17209SOL     OW53633   5.879   2.876   1.598 -0.1556  0.3701 -0.0567
17209SOL    HW153634   5.915   2.931   1.529  0.5036 -0.5209 -0.4442
17209SOL    HW253635   5.828   2.936   1.653  0.8331  1.4263 -0.2595
17210SOL     OW53636   5.217   8.461   9.593 -0.3053 -0.5126 -0.3041
17210SOL    HW153637   5.243   8.494   9.507  2.4377  2.5832  1.4628
17210SOL    HW253638   5.293   8.411   9.623 -0.0641  0.7643  1.3411
17211SOL     OW53639   5.384   2.749   7.404  0.0868  0.5175  0.5413
17211SOL    HW153640   5.394   2.838   7.369  1.6784 -0.1651 -0.8969
17211SOL    HW253641   5.355   2.697   7.329  0.5366 -0.4223  0.9946
17212SOL     OW53642   1.186   9.676   5.851  0.2460  0.0295 -0.0697
17212SOL    HW153643   1.164   9.736   5.780 -0.8250 -0.3953 -0.1166
17212SOL    HW253644   1.130   9.600   5.837  1.4522 -0.9189  0.0924
17213SOL     OW53645   6.278   6.191   7.216 -0.4127  0.2408  0.3780
17213SOL    HW153646   6.288   6.284   7.239 -0.3521  0.1278  0.8132
17213SOL    HW253647   6.186   6.172   7.233 -0.6471  0.4563 -0.5933
17214SOL     OW53648   8.486   5.358   7.826  0.1175 -0.2739 -0.0849
17214SOL    HW153649   8.561   5.370   7.884 -0.8082  0.1533  1.0573
17214SOL    HW253650   8.417   5.322   7.882 -0.3766 -1.1715 -1.2328
17215SOL     OW53651   9.505   3.329   2.161  0.6139  0.5385 -0.4627
17215SOL    HW153652   9.425   3.379   2.179  0.2816  0.5391 -1.8052
17215SOL    HW253653   9.473   3.246   2.125  1.2012  0.1565 -0.1033
17216SOL     OW53654   9.897   8.224   7.378  0.0558 -0.0430  0.1698
17216SOL    HW153655   9.869   8.247   7.290 -1.2160 -0.1473  0.5323
17216SOL    HW253656   9.859   8.138   7.393 -1.6323  0.8977  1.6254
17217SOL     OW53657   8.241   6.433   6.018  0.0242  0.9201  0.2742
17217SOL    HW153658   8.205   6.515   5.983 -3.1197 -0.2979  0.3995
17217SOL    HW253659   8.238   6.372   5.945 -0.5003  0.0974  0.9732
17218SOL     OW53660   8.440   3.397   5.878 -0.6342 -0.3960  0.1579
17218SOL    HW153661   8.442   3.458   5.952  1.8777 -0.8941  0.6186
17218SOL    HW253662   8.433   3.454   5.801  2.0011  0.6211  0.5531
17219SOL     OW53663   5.563   1.601   3.336  0.7219 -0.0626  0.0385
17219SOL    HW153664   5.592   1.612   3.245  0.1108  0.1594 -0.1339
17219SOL    HW253665   5.470   1.621   3.333 -0.0791 -3.3610  0.0858
17220SOL     OW53666   8.547   0.933   3.328 -0.0458 -0.2680  0.3595
17220SOL    HW153667   8.624   0.878   3.315 -0.5594 -1.2680  1.3170
17220SOL    HW253668   8.581   1.022   3.332  1.0328 -0.6712  0.5058
17221SOL     OW53669   2.666   9.447   2.120 -0.4728  0.0428 -0.1483
17221SOL    HW153670   2.649   9.522   2.177 -0.1582 -0.4772  0.6426
17221SOL    HW253671   2.600   9.383   2.145  1.0019 -1.0350  1.2013
17222SOL     OW53672   3.569   1.937   5.012  0.0465  0.2837 -0.2677
17222SOL    HW153673   3.482   1.956   4.978 -1.7341 -1.1545  2.9851
17222SOL    HW253674   3.601   2.021   5.045 -0.0811  0.8161 -1.4558
17223SOL     OW53675   3.366  10.381   9.615  0.3016  0.6707 -0.4343
17223SOL    HW153676   3.346  10.457   9.560 -0.4101  0.7276 -0.1111
17223SOL    HW253677   3.419  10.324   9.559 -2.2877 -0.3561 -2.0469
17224SOL     OW53678   9.511   5.559  10.606  0.2635 -0.8601 -0.0754
17224SOL    HW153679   9.468   5.642  10.585  1.7443 -0.3476 -1.2878
17224SOL    HW253680   9.501   5.506  10.527 -0.9216 -2.0045  0.7824
17225SOL     OW53681   3.071   5.857   9.950 -0.0620 -0.0232  0.1381
17225SOL    HW153682   2.997   5.801   9.930  0.6702 -1.5953  1.5820
17225SOL    HW253683   3.142   5.796   9.973  0.8886  1.4618  1.3631
17226SOL     OW53684   7.857   9.493   4.449  0.4160 -0.3648 -0.9568
17226SOL    HW153685   7.924   9.437   4.488  1.7962  0.5133 -1.9441
17226SOL    HW253686   7.901   9.534   4.374 -0.7647  1.4066 -0.7547
17227SOL     OW53687   5.948   8.714   4.709 -0.1888 -0.2545  0.3657
17227SOL    HW153688   6.027   8.664   4.731 -0.4167 -0.2047  1.3245
17227SOL    HW253689   5.972   8.805   4.722 -0.1783 -0.1917 -0.0831
17228SOL     OW53690  10.345  10.326   5.473  0.0491 -0.2735 -0.1985
17228SOL    HW153691  10.385  10.345   5.558 -1.3387 -0.7599  0.5947
17228SOL    HW253692  10.412  10.277   5.425  1.5987  1.6901 -0.1737
17229SOL     OW53693  10.571   4.812   5.698 -0.6203  0.6725 -0.0626
17229SOL    HW153694  10.583   4.763   5.617  1.2345  0.5164  0.2506
17229SOL    HW253695  10.654   4.801   5.745 -1.8314  0.2702  2.1342
17230SOL     OW53696   4.948   1.504   4.119  0.7156  0.0641  0.1240
17230SOL    HW153697   4.864   1.542   4.144  0.4260  0.2747 -1.0819
17230SOL    HW253698   5.001   1.508   4.198 -0.7515 -1.0736  1.2176
17231SOL     OW53699   9.650  10.713   0.440  0.3881 -0.0362 -0.2656
17231SOL    HW153700   9.653  10.620   0.417  0.2076 -0.4796  1.3354
17231SOL    HW253701   9.557  10.732   0.452  0.2826  0.7826 -2.0485
17232SOL     OW53702   2.676   2.829   3.086 -0.1976 -0.2420 -0.2937
17232SOL    HW153703   2.758   2.839   3.038  0.5969  0.8807  1.2054
17232SOL    HW253704   2.644   2.918   3.098 -2.3713 -0.7045 -1.9663
17233SOL     OW53705   1.895   7.260   2.944 -0.0224  0.3145  0.8504
17233SOL    HW153706   1.811   7.272   2.989 -1.0490 -2.1232 -0.2661
17233SOL    HW253707   1.946   7.205   3.003 -0.6793 -1.3362 -0.0503
17234SOL     OW53708   7.422   7.531   2.446 -0.3064 -0.2322  0.7532
17234SOL    HW153709   7.390   7.617   2.421 -2.0858 -1.0061  0.2589
17234SOL    HW253710   7.419   7.479   2.366  0.2851 -0.8967  1.1438
17235SOL     OW53711   0.415   6.737  10.516  0.1896  0.1806  0.3127
17235SOL    HW153712   0.405   6.831  10.498  1.5529  0.2023 -0.4633
17235SOL    HW253713   0.344   6.717  10.576  0.1355  1.8180  0.8544
17236SOL     OW53714   8.485   2.696   9.728 -0.0132 -0.1598  0.7461
17236SOL    HW153715   8.514   2.610   9.699 -0.0196 -0.5539  1.8591
17236SOL    HW253716   8.451   2.738   9.649 -1.0104 -1.5881  0.3791
17237SOL     OW53717   3.537   5.123   3.334  0.2206 -0.2070 -0.0808
17237SOL    HW153718   3.577   5.165   3.410 -0.0763 -1.1679  0.6215
17237SOL    HW253719   3.481   5.190   3.296  1.7578  0.8730 -0.5482
17238SOL     OW53720  10.927   9.899   9.633 -0.5002  0.2362 -0.0913
17238SOL    HW153721  10.865   9.967   9.662 -0.2731 -0.0879  1.2170
17238SOL    HW253722  10.922   9.902   9.537 -2.8877 -0.0894 -0.0356
17239SOL     OW53723   6.751   5.083   7.178  0.4183  0.0496 -0.1771
17239SOL    HW153724   6.696   5.005   7.169  0.1821  0.1238  0.5543
17239SOL    HW253725   6.826   5.053   7.229  0.5892  0.1801 -0.3498
17240SOL     OW53726  10.591   6.993   0.474  0.0624  0.0327 -0.5090
17240SOL    HW153727  10.671   7.042   0.494 -0.2275  0.8914 -1.3905
17240SOL    HW253728  10.620   6.903   0.464  0.8945  0.3048 -0.6033
17241SOL     OW53729   5.901   1.898  10.547 -0.4862  0.0214  0.1400
17241SOL    HW153730   5.925   1.810  10.576  0.7821  0.4499  0.4606
17241SOL    HW253731   5.842   1.883  10.473 -1.6562 -1.0778  1.2447
17242SOL     OW53732   7.381   3.991   5.052  0.5482  1.2530  0.7632
17242SOL    HW153733   7.447   3.992   4.983  1.3776  1.7562  1.5438
17242SOL    HW253734   7.410   3.922   5.112 -2.0195 -1.6872 -1.0834
17243SOL     OW53735   0.842   8.469   0.191 -0.3991 -0.0304 -0.1622
17243SOL    HW153736   0.754   8.505   0.188 -1.7426 -2.8978  0.6980
17243SOL    HW253737   0.858   8.451   0.284  1.5237  1.2974 -0.1838
17244SOL     OW53738   1.918   3.519  10.498  0.0615  0.3149 -0.0310
17244SOL    HW153739   1.962   3.456  10.441  0.0038  0.1060  0.1540
17244SOL    HW253740   1.963   3.509  10.582 -0.9195 -0.5370  0.4139
17245SOL     OW53741   2.037   9.256   3.006 -0.8962 -0.1367 -0.5274
17245SOL    HW153742   2.105   9.189   3.000  1.6821  2.0322  1.8037
17245SOL    HW253743   1.996   9.242   3.091  0.7489  2.0381  0.7180
17246SOL     OW53744   4.512   8.649   6.479  0.0975 -0.1647 -0.2110
17246SOL    HW153745   4.523   8.708   6.404  2.0094 -1.8356 -1.3642
17246SOL    HW253746   4.452   8.582   6.448  2.4626 -2.0027 -1.1076
17247SOL     OW53747   5.843   6.296  10.149 -0.9447 -0.0372 -0.2154
17247SOL    HW153748   5.918   6.273  10.094 -0.6505  0.6470 -0.1078
17247SOL    HW253749   5.788   6.218  10.148  0.1787 -0.8740  0.4018
17248SOL     OW53750  10.068  10.351   8.478  0.2125 -0.0372 -0.1073
17248SOL    HW153751  10.037  10.419   8.538 -0.3216 -1.1363  0.9163
17248SOL    HW253752  10.070  10.394   8.393 -0.4072  1.1715  0.4520
17249SOL     OW53753   8.565   1.155   2.670 -0.1424  0.5562  0.0019
17249SOL    HW153754   8.538   1.229   2.615  0.3976  1.5836  1.0637
17249SOL    HW253755   8.660   1.149   2.658  0.2215  1.7251  1.8415
17250SOL     OW53756   8.702   0.364   1.084 -0.8019 -0.1096  0.0960
17250SOL    HW153757   8.726   0.294   1.023 -1.4363  0.1515 -0.4615
17250SOL    HW253758   8.786   0.398   1.115 -0.4337  0.2034 -1.1636
17251SOL     OW53759   5.956   9.007   4.769 -0.0306 -0.3948 -0.2739
17251SOL    HW153760   5.970   9.102   4.770  0.3550 -0.4509  0.4293
17251SOL    HW253761   5.976   8.981   4.679  3.6227 -0.3178  0.3399
17252SOL     OW53762   0.208   9.080   3.957 -0.0670  0.4038  0.0778
17252SOL    HW153763   0.171   9.168   3.964 -0.8340 -0.0106  1.8449
17252SOL    HW253764   0.132   9.024   3.936  0.0486 -0.0711  0.8756
17253SOL     OW53765   2.467   6.296   6.889  0.1896 -0.0788  0.4365
17253SOL    HW153766   2.560   6.298   6.868 -0.2776  0.0036 -1.8198
17253SOL    HW253767   2.453   6.370   6.948  1.5969 -0.3793  1.1870
17254SOL     OW53768   7.221   4.231   3.135  0.1201  0.0855 -0.4836
17254SOL    HW153769   7.144   4.271   3.095  0.7326  1.3157 -0.4726
17254SOL    HW253770   7.238   4.284   3.212  1.2175  0.0843 -0.7099
17255SOL     OW53771   6.947   9.202   5.987 -0.0375  0.4630  0.5826
17255SOL    HW153772   6.912   9.114   6.001 -0.3358  0.2763 -1.1224
17255SOL    HW253773   6.968   9.234   6.075  0.8621 -1.6182  1.1988
17256SOL     OW53774   6.652   5.756  11.008  0.1905 -0.3238 -0.3195
17256SOL    HW153775   6.656   5.686  11.073  0.4596  0.0639  0.0928
17256SOL    HW253776   6.564   5.793  11.018  0.5373  0.3220  0.4647
17257SOL     OW53777   8.484   1.562   7.454 -0.1354  0.0221 -0.3922
17257SOL    HW153778   8.413   1.513   7.497 -0.0501 -0.2337 -0.5382
17257SOL    HW253779   8.527   1.497   7.400 -0.7409  0.5198 -1.4986
17258SOL     OW53780  10.495   7.785   7.089 -0.5393  0.0410 -0.3005
17258SOL    HW153781  10.427   7.725   7.119 -0.6414 -0.6125 -1.7387
17258SOL    HW253782  10.459   7.872   7.102  0.1700 -0.0484  3.1934
17259SOL     OW53783   7.422   7.054   7.817 -0.2608 -0.0640 -0.4593
17259SOL    HW153784   7.467   7.075   7.735  0.6430  0.8080  0.2367
17259SOL    HW253785   7.489   7.064   7.885 -1.2834  0.3919  0.5183
17260SOL     OW53786  10.109   7.264   3.469 -0.2225 -0.4838 -0.1041
17260SOL    HW153787  10.194   7.222   3.478  0.0421 -0.0516 -0.5103
17260SOL    HW253788  10.075   7.233   3.385  0.3348  0.7004 -0.8030
17261SOL     OW53789   2.049  10.239  11.019  0.0844  0.5092  0.4619
17261SOL    HW153790   2.098  10.258  10.938  0.5501  0.5326  0.7466
17261SOL    HW253791   2.115  10.243  11.088 -0.4969  1.5050  0.9787
17262SOL     OW53792   3.312  10.510   4.692  0.3598  0.6134 -0.5767
17262SOL    HW153793   3.240  10.572   4.693  0.0642  0.2864 -1.0593
17262SOL    HW253794   3.295  10.452   4.767 -1.0173 -0.7105 -1.8358
17263SOL     OW53795   8.747   8.673   2.563 -0.7858 -0.5736 -0.2007
17263SOL    HW153796   8.699   8.682   2.646  0.6939 -1.4316  0.8039
17263SOL    HW253797   8.687   8.706   2.497 -1.6373  1.1420  1.3210
17264SOL     OW53798  10.650   1.727   4.096  0.0190  0.0594  0.2502
17264SOL    HW153799  10.657   1.821   4.080 -0.0318 -0.2251 -1.6511
17264SOL    HW253800  10.572   1.700   4.047 -0.1131 -0.9445  0.9781
17265SOL     OW53801   0.785   0.205   2.480 -0.0585  0.6621 -0.0199
17265SOL    HW153802   0.711   0.163   2.437  0.5242 -0.0165 -0.3833
17265SOL    HW253803   0.772   0.186   2.573  0.2343 -0.4090 -0.1837
17266SOL     OW53804   6.072   4.598   7.855  0.0017  0.1188 -0.5040
17266SOL    HW153805   6.068   4.536   7.927  1.1115  1.0283  0.3743
17266SOL    HW253806   6.012   4.562   7.789 -0.5018 -1.0889  0.5714
17267SOL     OW53807   5.965   6.025   6.617 -0.2120 -0.4890 -0.3019
17267SOL    HW153808   5.932   6.071   6.539 -1.2839 -0.5160  0.1268
17267SOL    HW253809   5.963   6.090   6.686  3.0395  0.2883 -0.7434
17268SOL     OW53810   2.369   9.791   9.280  0.3153  0.0709 -0.3630
17268SOL    HW153811   2.342   9.789   9.372 -2.2342 -3.4023 -0.9581
17268SOL    HW253812   2.366   9.883   9.256 -1.6571  0.8491  2.3538
17269SOL     OW53813   9.444   7.936   1.276  0.3277 -0.5295  0.5014
17269SOL    HW153814   9.481   7.907   1.360 -0.8364  0.3218  1.3287
17269SOL    HW253815   9.398   7.859   1.242 -0.7167 -0.3846  1.5345
17270SOL     OW53816   9.575   6.153   5.386 -0.1082 -0.0146 -0.2173
17270SOL    HW153817   9.655   6.198   5.360  0.1664 -1.3430 -1.8836
17270SOL    HW253818   9.532   6.132   5.303 -1.5831 -0.3840  0.6126
17271SOL     OW53819  10.058   9.336  10.079 -0.0784 -0.3559 -0.0701
17271SOL    HW153820  10.072   9.428  10.057 -0.4933 -0.0477  0.8822
17271SOL    HW253821  10.133   9.290  10.041 -0.3245  0.2385 -1.3423
17272SOL     OW53822   1.393   9.499   3.730  0.3683 -0.8730  0.3564
17272SOL    HW153823   1.311   9.546   3.742  0.4187 -0.9826  1.1749
17272SOL    HW253824   1.366   9.410   3.707  0.2563 -0.1716 -2.7095
17273SOL     OW53825   7.460   2.483   1.514 -0.2536 -0.3788  0.1081
17273SOL    HW153826   7.389   2.534   1.552  1.2307  0.8999  1.2445
17273SOL    HW253827   7.455   2.503   1.420  0.0013  1.5248  0.4572
17274SOL     OW53828   0.852   3.291   8.941  0.0288  0.3116  0.2932
17274SOL    HW153829   0.874   3.243   9.021  1.1613 -0.0723 -0.2223
17274SOL    HW253830   0.830   3.223   8.878  0.8012  0.5144 -0.2017
17275SOL     OW53831   1.129   7.926   3.092  0.1088 -0.0013  0.0871
17275SOL    HW153832   1.052   7.924   3.035  0.9995  0.7954 -1.1823
17275SOL    HW253833   1.146   7.834   3.111 -1.4365 -0.1797  0.8188
17276SOL     OW53834   2.901   3.971   9.446  0.0630  0.0772  0.4316
17276SOL    HW153835   2.820   4.017   9.467 -0.3412 -0.2653 -0.3667
17276SOL    HW253836   2.915   3.986   9.353  0.1972 -0.9806  0.2668
17277SOL     OW53837   3.116   0.744   9.521  0.2370 -0.2962 -0.1948
17277SOL    HW153838   3.195   0.791   9.547  0.4627 -1.8235  2.1627
17277SOL    HW253839   3.062   0.810   9.478  0.9019  1.9718  2.1842
17278SOL     OW53840   9.654   5.879   8.320  0.1617 -0.5669  0.3323
17278SOL    HW153841   9.738   5.922   8.332 -0.8684  0.7815  3.7008
17278SOL    HW253842   9.638   5.832   8.401 -2.1983 -1.0629 -0.3301
17279SOL     OW53843   0.438   2.651   1.968  0.3289  0.3782 -0.4235
17279SOL    HW153844   0.386   2.571   1.968  0.2815  0.4073 -0.8188
17279SOL    HW253845   0.377   2.720   1.943  0.0984  0.7287  1.0457
17280SOL     OW53846   3.246   7.741   5.435 -0.3324  0.2899  0.0534
17280SOL    HW153847   3.228   7.758   5.343 -0.1608 -2.1685 -0.5104
17280SOL    HW253848   3.317   7.802   5.457  2.4572 -1.6507 -2.6396
17281SOL     OW53849   4.723   3.238   8.203  0.4251  0.3704  0.1330
17281SOL    HW153850   4.643   3.185   8.195  0.8306 -0.3962  0.9724
17281SOL    HW253851   4.769   3.200   8.278  1.4324  1.0045 -0.1516
17282SOL     OW53852   5.796   4.398   7.177 -0.2258  0.2535 -0.0206
17282SOL    HW153853   5.703   4.383   7.192 -0.2875  0.5111 -0.1407
17282SOL    HW253854   5.823   4.327   7.119 -0.1780 -0.2507  0.6014
17283SOL     OW53855   2.706  10.389   5.887  0.2258 -0.0232  0.3937
17283SOL    HW153856   2.708  10.372   5.981  0.3710  0.6735  0.5189
17283SOL    HW253857   2.781  10.340   5.853  0.6481  0.3674  0.7526
17284SOL     OW53858   3.407   4.294   4.839 -0.1307  0.1345  0.1739
17284SOL    HW153859   3.375   4.210   4.873 -1.4736 -0.2659 -1.9277
17284SOL    HW253860   3.332   4.353   4.846 -0.0235  0.4020 -0.7846
17285SOL     OW53861   7.702   1.520   1.062  0.4788 -0.5360  0.0964
17285SOL    HW153862   7.656   1.604   1.067  0.9505 -0.3175  1.2308
17285SOL    HW253863   7.639   1.457   1.096  0.2039 -0.6132 -0.5442
17286SOL     OW53864  10.805   7.344  10.364 -0.0994  0.2102 -0.2907
17286SOL    HW153865  10.746   7.304  10.428  0.6619  0.6753  0.7266
17286SOL    HW253866  10.882   7.369  10.415  1.0012 -0.4057 -1.5947
17287SOL     OW53867   7.280   5.518   2.623 -0.0364  0.2860  0.2892
17287SOL    HW153868   7.322   5.591   2.576 -1.1640 -0.4848 -2.1038
17287SOL    HW253869   7.192   5.513   2.584  0.1249 -2.5413  0.1145
17288SOL     OW53870   4.381   5.175   2.425  0.4038 -0.5093  0.4019
17288SOL    HW153871   4.397   5.191   2.518  3.0311  1.4740 -0.2731
17288SOL    HW253872   4.385   5.079   2.417  1.8944 -0.6591  2.1085
17289SOL     OW53873   3.986   4.414   8.660  0.3734  0.6896  0.2502
17289SOL    HW153874   4.009   4.460   8.741  0.6011 -1.7047  1.6744
17289SOL    HW253875   4.062   4.359   8.643 -0.6802 -0.7089 -0.1197
17290SOL     OW53876   5.988   2.150   2.716  0.1521 -0.3497 -0.0544
17290SOL    HW153877   5.923   2.080   2.705 -1.0406  0.6502  0.3287
17290SOL    HW253878   5.987   2.169   2.810 -0.6120  1.1322 -0.3256
17291SOL     OW53879   9.098   0.699   5.177  0.4481  0.3989  0.0531
17291SOL    HW153880   9.068   0.706   5.087  1.7275 -0.5029 -0.4747
17291SOL    HW253881   9.053   0.622   5.212 -0.6750  1.2103  0.4841
17292SOL     OW53882   5.443   7.801   6.396 -0.1819  0.2329 -0.1375
17292SOL    HW153883   5.445   7.868   6.464  1.2389 -0.7702  0.8670
17292SOL    HW253884   5.429   7.850   6.314  0.0770  1.6680  0.6439
17293SOL     OW53885  10.956   5.152   9.711  0.0244  0.1191 -0.3452
17293SOL    HW153886  11.032   5.139   9.767 -1.1282 -0.4272  1.1468
17293SOL    HW253887  10.919   5.236   9.738  0.2877  0.5814 -1.3425
17294SOL     OW53888   5.751   4.431   5.218  0.2551 -0.4455  0.2681
17294SOL    HW153889   5.713   4.395   5.298 -0.6024  0.0570  0.0903
17294SOL    HW253890   5.691   4.500   5.191  1.5047  0.6885  0.2259
17295SOL     OW53891   7.918   5.821   1.560 -0.2722  0.2540  0.1636
17295SOL    HW153892   7.940   5.728   1.549  0.4237  0.4019  0.2698
17295SOL    HW253893   7.999   5.861   1.590 -0.3629  1.0381 -0.6180
17296SOL     OW53894  10.310   0.290   2.221  0.1879 -0.2284 -0.5397
17296SOL    HW153895  10.347   0.263   2.138  0.8158 -2.4310  0.3904
17296SOL    HW253896  10.372   0.355   2.255  0.5630 -0.2161 -1.2355
17297SOL     OW53897   4.954  10.262   4.136  0.4199 -0.2284 -0.5944
17297SOL    HW153898   4.868  10.220   4.143  0.9078 -1.2207 -0.3194
17297SOL    HW253899   4.943  10.329   4.069 -0.3209 -1.0176 -1.2872
17298SOL     OW53900   6.986   5.752   9.628 -0.0481 -0.0166 -0.4498
17298SOL    HW153901   7.020   5.826   9.578  0.5403 -1.0524 -1.6308
17298SOL    HW253902   6.895   5.743   9.600  0.6935 -1.5714 -2.6466
17299SOL     OW53903   4.458   4.596   8.268 -0.0119  0.1344 -0.4025
17299SOL    HW153904   4.502   4.656   8.328  0.6020 -0.1827 -0.5269
17299SOL    HW253905   4.391   4.553   8.322  1.1950 -0.8831  0.3336
17300SOL     OW53906   4.336   1.225  10.104  0.5961 -0.1734 -0.2486
17300SOL    HW153907   4.242   1.206  10.109  0.4654  0.7351  1.4153
17300SOL    HW253908   4.366   1.175  10.028 -0.6615 -2.8578  0.8889
17301SOL     OW53909   4.368   6.162   2.932  0.0177  0.0118 -0.5376
17301SOL    HW153910   4.418   6.216   2.992  0.5464 -0.8478 -0.1801
17301SOL    HW253911   4.425   6.151   2.856  0.2624 -0.7144 -0.2589
17302SOL     OW53912   2.782   9.327   5.806  0.0458  0.1922 -0.2724
17302SOL    HW153913   2.785   9.399   5.870  1.3420  1.6146 -1.8515
17302SOL    HW253914   2.872   9.318   5.776 -0.6520  0.1135 -2.4859
17303SOL     OW53915   6.794   1.845   2.740  0.0063 -0.4872  0.2401
17303SOL    HW153916   6.748   1.783   2.796 -1.0547 -0.8651 -0.9930
17303SOL    HW253917   6.808   1.797   2.658  0.3032  0.4901 -0.2979
17304SOL     OW53918   5.091   0.947   5.811 -0.0611 -0.0935  0.0305
17304SOL    HW153919   5.120   0.891   5.739  0.2203 -0.1494  0.1851
17304SOL    HW253920   4.997   0.955   5.799  0.1532  1.0005 -1.1295
17305SOL     OW53921  10.867   6.489   2.107 -0.4038  0.0843 -0.2459
17305SOL    HW153922  10.957   6.488   2.140 -1.1821 -1.3346  2.1198
17305SOL    HW253923  10.820   6.545   2.169 -1.4616 -0.4990 -0.5072
17306SOL     OW53924   6.069   7.279   5.491  0.0950  0.3296  0.0123
17306SOL    HW153925   6.034   7.345   5.431  3.5525  0.8076 -1.7353
17306SOL    HW253926   6.045   7.195   5.452 -0.6774  0.5846 -0.0804
17307SOL     OW53927   4.599   1.222   7.407 -0.2497  0.4056  0.0618
17307SOL    HW153928   4.695   1.217   7.399 -0.2086  1.1207  0.0241
17307SOL    HW253929   4.567   1.165   7.337  0.1535  1.6597 -1.1962
17308SOL     OW53930   3.545   5.937   3.500 -0.7744 -0.2030  0.3196
17308SOL    HW153931   3.548   5.986   3.582  0.7110 -0.0359  0.1962
17308SOL    HW253932   3.475   5.873   3.513 -1.3779  0.6210  1.2443
17309SOL     OW53933   7.414   8.512   9.266  0.1827 -0.0260  0.2907
17309SOL    HW153934   7.354   8.538   9.335 -0.9251 -0.1103 -0.6212
17309SOL    HW253935   7.382   8.427   9.237  0.1309  0.3833 -0.8908
17310SOL     OW53936   9.787   7.020   9.524 -0.1901  0.0852  0.5287
17310SOL    HW153937   9.704   6.987   9.489 -0.8625  0.7908  1.4138
17310SOL    HW253938   9.848   6.947   9.513 -0.4134  0.1902 -1.8702
17311SOL     OW53939   8.851   7.885   9.017 -0.2055  0.2784 -0.2262
17311SOL    HW153940   8.802   7.965   9.000  0.9058  0.8643 -0.8078
17311SOL    HW253941   8.814   7.850   9.098 -3.2780 -0.6671 -1.8969
17312SOL     OW53942   3.213   5.313   0.644 -0.3058 -0.6575 -0.5500
17312SOL    HW153943   3.278   5.242   0.640  0.1141 -0.4558  1.5832
17312SOL    HW253944   3.242   5.367   0.717 -1.5018  0.8664 -1.1618
17313SOL     OW53945   6.880   4.332   2.840  0.1177 -0.0982 -0.3215
17313SOL    HW153946   6.946   4.351   2.907 -0.7576  0.6379  0.3461
17313SOL    HW253947   6.869   4.415   2.794  1.5075 -0.8491 -2.1477
17314SOL     OW53948   7.053  10.525   6.665  0.5586 -0.0626  0.0367
17314SOL    HW153949   7.103  10.585   6.720 -0.3861  0.7013  0.0747
17314SOL    HW253950   6.963  10.558   6.668  0.3420 -0.4753 -1.3289
17315SOL     OW53951   1.311   6.496   5.726 -0.0963  0.5739 -0.0181
17315SOL    HW153952   1.314   6.551   5.805  0.4373  0.2404  0.2064
17315SOL    HW253953   1.403   6.471   5.711 -0.1793  0.7230 -0.8131
17316SOL     OW53954   1.248   9.799   0.668  1.2142  0.0640 -0.1360
17316SOL    HW153955   1.270   9.744   0.593  0.9922  0.1516 -0.2673
17316SOL    HW253956   1.308   9.874   0.660  0.5854  0.5163 -0.7397
17317SOL     OW53957   7.670   9.047   3.176  0.0343  0.1154 -0.0325
17317SOL    HW153958   7.765   9.048   3.176  0.0524  0.6861 -1.4770
17317SOL    HW253959   7.645   9.130   3.137 -1.0329 -0.5021 -0.7166
17318SOL     OW53960   9.007  10.144   6.064 -0.0764 -0.0248  0.4065
17318SOL    HW153961   8.948  10.106   5.999  0.2649 -2.1290  1.2264
17318SOL    HW253962   8.954  10.209   6.110 -0.6554  0.6691 -1.1695
17319SOL     OW53963   9.611   9.181  10.827  0.0939 -0.2758  0.1091
17319SOL    HW153964   9.687   9.208  10.878 -0.6815  1.7172  0.2891
17319SOL    HW253965   9.543   9.165  10.891 -0.7641  1.8493 -0.1679
17320SOL     OW53966   4.909   7.097   0.914  0.2272 -0.1202 -0.7299
17320SOL    HW153967   4.902   7.033   0.984 -0.0423  0.5217 -0.1585
17320SOL    HW253968   4.848   7.066   0.847  1.7768 -1.7008 -1.4812
17321SOL     OW53969   0.721  10.422   1.042  0.2253  0.4683 -0.2626
17321SOL    HW153970   0.811  10.430   1.075  0.3392  2.6055 -0.9316
17321SOL    HW253971   0.732  10.394   0.951  0.0909 -1.3188  0.2438
17322SOL     OW53972   3.196   9.541   0.523  0.3472 -0.5141  0.1345
17322SOL    HW153973   3.265   9.497   0.571 -0.4366 -2.2598 -0.2519
17322SOL    HW253974   3.216   9.523   0.431  0.4637  0.6714 -0.0855
17323SOL     OW53975   2.068   7.416   9.828 -0.2126 -0.3456  0.2792
17323SOL    HW153976   2.108   7.487   9.777 -0.1200 -0.2908  0.4264
17323SOL    HW253977   2.098   7.336   9.786 -1.3654 -0.2983 -0.7025
17324SOL     OW53978   4.005   9.881   8.824  0.1524 -0.1557 -0.1272
17324SOL    HW153979   3.945   9.869   8.751  1.2863  0.9205 -1.3004
17324SOL    HW253980   4.039   9.970   8.812  0.0094  0.2208  2.0002
17325SOL     OW53981   4.094   1.211   3.684 -0.2297 -0.1120  0.2619
17325SOL    HW153982   4.038   1.134   3.693  0.3392 -0.6382 -0.5804
17325SOL    HW253983   4.161   1.200   3.752 -0.3526 -0.1845  0.3710
17326SOL     OW53984   1.904  10.450   6.531 -0.0637 -0.3886  0.5171
17326SOL    HW153985   1.949  10.435   6.614 -1.4104 -1.3929  1.1007
17326SOL    HW253986   1.974  10.461   6.467  0.9960 -1.1390  1.5189
17327SOL     OW53987   1.189   2.305  10.243 -0.4317  0.3358 -0.0274
17327SOL    HW153988   1.116   2.246  10.262  0.1287 -0.7683 -1.1799
17327SOL    HW253989   1.161   2.389  10.279 -2.5712  0.1083 -1.0074
17328SOL     OW53990   8.010   6.849   5.315  0.8211  0.2121  0.3188
17328SOL    HW153991   7.966   6.897   5.384  0.8340  0.3586  0.2255
17328SOL    HW253992   7.992   6.899   5.235 -2.0868 -1.7309 -0.3798
17329SOL     OW53993   6.988  10.099   4.126 -0.2245  0.7431  0.1328
17329SOL    HW153994   7.052  10.131   4.190  0.8303  0.2454 -0.6600
17329SOL    HW253995   6.992  10.003   4.134  1.1379  0.5970 -1.8214
17330SOL     OW53996   4.229   0.675   6.716  0.4084  0.2059  0.5452
17330SOL    HW153997   4.309   0.624   6.728  0.4234  0.3630  1.1470
17330SOL    HW253998   4.217   0.680   6.621  1.0768  0.1338  0.4572
17331SOL     OW53999   0.784   5.823   4.330  0.1027  0.0630  0.7949
17331SOL    HW154000   0.845   5.766   4.283 -0.2025 -1.6480  2.3683
17331SOL    HW254001   0.698   5.798   4.297 -0.1252 -1.2345  2.2482
17332SOL     OW54002   6.674   1.534   8.347 -0.4735 -0.1842 -0.1406
17332SOL    HW154003   6.688   1.484   8.266 -0.6423  2.2178 -1.7722
17332SOL    HW254004   6.677   1.469   8.417  1.1605 -2.1886 -1.9389
17333SOL     OW54005   2.014   9.033   8.943 -0.1498  0.3181 -0.5962
17333SOL    HW154006   2.104   9.055   8.920 -0.0965  0.1493 -0.5512
17333SOL    HW254007   2.018   9.005   9.034 -0.3063  0.6550 -0.4851
17334SOL     OW54008   5.425  10.343   2.656 -0.3056 -0.4397  0.0601
17334SOL    HW154009   5.370  10.415   2.626 -0.0370  0.7382  2.2304
17334SOL    HW254010   5.389  10.319   2.741  0.2686 -2.1795 -0.1572
17335SOL     OW54011   7.774   7.303   6.309 -0.0848 -0.4570 -0.0649
17335SOL    HW154012   7.774   7.246   6.232 -2.1113 -0.2466 -0.2584
17335SOL    HW254013   7.867   7.313   6.331  0.4113 -2.7310 -0.8313
17336SOL     OW54014   1.518   2.394   5.690 -0.3652  0.6508 -0.0545
17336SOL    HW154015   1.588   2.450   5.657 -0.6862  1.2482  0.2562
17336SOL    HW254016   1.446   2.454   5.709 -0.8886  0.0724 -0.1645
17337SOL     OW54017   2.510   4.616   8.687  0.4716  0.1490 -0.1059
17337SOL    HW154018   2.466   4.683   8.739 -1.7393 -1.6440  0.5244
17337SOL    HW254019   2.440   4.578   8.634  1.3849 -2.2688  0.2955
17338SOL     OW54020   5.154   1.470   3.610 -0.4452  0.3280 -0.3216
17338SOL    HW154021   5.223   1.531   3.636 -0.5912 -0.3862  1.9276
17338SOL    HW254022   5.127   1.427   3.691 -2.2187 -0.8031 -1.4233
17339SOL     OW54023   5.042   2.613  11.032 -0.0712  0.9579 -0.1404
17339SOL    HW154024   5.088   2.589  11.113  1.0402  2.1412 -0.4025
17339SOL    HW254025   5.101   2.588  10.962 -0.7645  0.5226 -0.5826
17340SOL     OW54026   8.828   2.944   7.470  0.0742  0.6553  0.2502
17340SOL    HW154027   8.808   3.002   7.544 -2.1573  0.6191 -0.2716
17340SOL    HW254028   8.841   3.004   7.397 -0.5504  0.5812  0.0744
17341SOL     OW54029  10.570   0.423   3.416  0.3455  0.1307  0.3116
17341SOL    HW154030  10.525   0.486   3.472 -0.9861 -0.7179  0.2285
17341SOL    HW254031  10.507   0.403   3.347  0.9956 -0.7819 -0.0353
17342SOL     OW54032   8.471   4.027   8.502 -0.5555 -0.0550 -0.2086
17342SOL    HW154033   8.502   4.035   8.592  0.6567  0.7732 -0.6789
17342SOL    HW254034   8.457   4.117   8.472  0.4274 -0.2285 -1.2884
17343SOL     OW54035   0.179   7.682  10.496 -0.0254 -0.9950  0.2187
17343SOL    HW154036   0.250   7.746  10.510  0.3597 -0.5069 -3.1101
17343SOL    HW254037   0.186   7.622  10.570  1.1878  1.3975  2.1964
17344SOL     OW54038   0.848  10.468   7.750  0.1413  0.2708  0.1219
17344SOL    HW154039   0.759  10.440   7.771  0.6771 -0.8755  0.9779
17344SOL    HW254040   0.900  10.442   7.827  1.4994 -0.5734 -1.0260
17345SOL     OW54041   5.640  11.023   4.704 -0.3011  0.0024  0.2491
17345SOL    HW154042   5.626  11.118   4.702 -0.5734 -0.0271 -1.8899
17345SOL    HW254043   5.659  11.000   4.613 -0.1510 -1.9933  0.7413
17346SOL     OW54044   3.983   3.498   0.741 -0.1559 -0.5154  0.1832
17346SOL    HW154045   3.951   3.581   0.707 -0.8199 -0.4690  0.8774
17346SOL    HW254046   4.074   3.492   0.710 -0.5174 -0.1774 -1.0010
17347SOL     OW54047   6.962   0.275   2.301 -0.7373  0.4171  0.0957
17347SOL    HW154048   7.041   0.294   2.352 -0.4931  0.2738 -0.2274
17347SOL    HW254049   6.907   0.352   2.313 -0.5721  0.4948  0.3661
17348SOL     OW54050   3.367   6.816   0.393  0.4404 -0.3373  0.0033
17348SOL    HW154051   3.304   6.831   0.464  1.5722 -3.9138  2.0337
17348SOL    HW254052   3.332   6.740   0.347  2.7692 -1.9920  0.7600
17349SOL     OW54053   9.234   0.438   4.876 -0.1100  0.3571 -0.8190
17349SOL    HW154054   9.289   0.515   4.861  0.0083  0.7440  1.3206
17349SOL    HW254055   9.231   0.429   4.971 -0.6900 -1.8904 -1.0071
17350SOL     OW54056   2.187   4.452   1.549  0.3403  0.4497 -0.7283
17350SOL    HW154057   2.170   4.465   1.455 -0.7890  1.3856 -0.4231
17350SOL    HW254058   2.112   4.399   1.579  1.2993 -0.8615 -0.5608
17351SOL     OW54059   2.837   3.270   8.707  0.0168  0.8340 -0.3041
17351SOL    HW154060   2.746   3.279   8.736  0.9496  0.1512  3.2653
17351SOL    HW254061   2.871   3.360   8.705 -0.3562  0.9758 -0.2498
17352SOL     OW54062   8.565   0.749   8.109 -0.4479 -0.3289  0.1046
17352SOL    HW154063   8.572   0.829   8.056 -1.4327  1.0028  1.8684
17352SOL    HW254064   8.518   0.687   8.053 -1.3865  0.9972 -0.6261
17353SOL     OW54065   3.269   4.789   9.713  0.5270  0.3633 -0.0205
17353SOL    HW154066   3.194   4.740   9.679  0.7919 -0.7499  0.9497
17353SOL    HW254067   3.308   4.829   9.636  0.2579 -0.8984 -0.8432
17354SOL     OW54068   1.178   7.587   4.593  0.3919 -0.1909 -0.0439
17354SOL    HW154069   1.193   7.682   4.592 -0.9452  0.0417  0.7354
17354SOL    HW254070   1.088   7.577   4.624  0.6256 -1.7347  0.1896
17355SOL     OW54071   7.901   8.863   8.854  0.4184  0.0541 -0.0396
17355SOL    HW154072   7.863   8.910   8.780  1.9013 -0.2506 -1.0684
17355SOL    HW254073   7.837   8.871   8.924 -1.4122 -0.2714 -1.5728
17356SOL     OW54074   5.363  10.659   7.427 -0.0889 -0.0090  0.8221
17356SOL    HW154075   5.305  10.591   7.460 -1.2613  0.2673 -0.5452
17356SOL    HW254076   5.339  10.738   7.477 -0.5525 -0.0200  0.6272
17357SOL     OW54077   0.314   1.441   0.195 -0.1523  0.2279 -0.0269
17357SOL    HW154078   0.284   1.498   0.124  0.4271  0.5689 -0.0074
17357SOL    HW254079   0.234   1.413   0.239 -0.4914  0.3610 -0.5499
17358SOL     OW54080   2.884   4.586   0.669  0.2536 -0.5632 -0.4593
17358SOL    HW154081   2.790   4.593   0.687  0.0448 -2.3497 -0.6301
17358SOL    HW254082   2.901   4.492   0.675  1.8175 -0.3664 -1.5517
17359SOL     OW54083   2.585   0.880   9.431 -0.5863  0.0564  0.5320
17359SOL    HW154084   2.499   0.913   9.405 -1.2319 -0.3332  2.1035
17359SOL    HW254085   2.581   0.786   9.414 -0.5257  0.0126  0.7616
17360SOL     OW54086   6.964   9.652   0.741 -0.5756 -0.0169 -0.1161
17360SOL    HW154087   7.003   9.564   0.746 -1.8032 -0.5147  1.8750
17360SOL    HW254088   6.900   9.646   0.671  1.1585  0.1188 -1.8073
17361SOL     OW54089   2.372   6.788   8.692  0.1274  0.2541 -0.0706
17361SOL    HW154090   2.336   6.839   8.764  0.4099  0.4919 -0.0983
17361SOL    HW254091   2.466   6.792   8.704  0.1403 -1.4463  0.7437
17362SOL     OW54092   0.156   7.534   4.341 -0.2779 -0.9761  0.5828
17362SOL    HW154093   0.242   7.533   4.382  0.8622 -0.4381 -1.6037
17362SOL    HW254094   0.167   7.480   4.262 -1.3094  0.7274 -0.8180
17363SOL     OW54095   7.671   3.748   8.403  0.1658  0.5425  0.2928
17363SOL    HW154096   7.680   3.653   8.413  3.6664  0.7824  0.6334
17363SOL    HW254097   7.682   3.763   8.310  1.6246  0.7320  0.4847
17364SOL     OW54098   6.694   8.530   6.898  0.1375  0.2575  0.0289
17364SOL    HW154099   6.761   8.556   6.962  0.0149  0.6786 -0.0115
17364SOL    HW254100   6.612   8.566   6.933  0.0526  0.3935 -0.3096
17365SOL     OW54101   6.163   0.395   7.943  0.3050 -0.1664  0.5999
17365SOL    HW154102   6.185   0.445   7.865  1.2299  1.9040  2.1085
17365SOL    HW254103   6.084   0.437   7.977  0.3530 -0.5458  1.1937
17366SOL     OW54104   7.187   2.594   2.508 -0.1141 -0.4974 -0.1691
17366SOL    HW154105   7.274   2.583   2.546  1.6137  2.5714 -2.7910
17366SOL    HW254106   7.188   2.540   2.429 -0.8969 -0.9211  0.0889
17367SOL     OW54107   8.558   7.056   7.838 -0.2606 -0.1982 -0.6318
17367SOL    HW154108   8.488   7.120   7.825 -1.6387 -1.4283  0.3397
17367SOL    HW254109   8.553   6.999   7.762 -0.3444 -0.3045 -0.5472
17368SOL     OW54110   3.740   2.682  10.625  0.1271  0.2116  0.1862
17368SOL    HW154111   3.792   2.688  10.704 -2.1348  2.6232  1.6612
17368SOL    HW254112   3.744   2.770  10.586 -2.5163  0.4465  0.2566
17369SOL     OW54113   2.714   4.972   5.289 -0.3028 -0.3184  0.1259
17369SOL    HW154114   2.798   4.946   5.328 -0.3787  1.3482  1.5777
17369SOL    HW254115   2.728   5.064   5.264 -2.0567  0.4433  1.6894
17370SOL     OW54116   0.930   4.970   1.540 -0.3309 -0.3112  0.1644
17370SOL    HW154117   0.886   4.927   1.613  0.6739 -1.6123  0.0541
17370SOL    HW254118   1.023   4.952   1.555  0.1007  1.4683 -0.1518
17371SOL     OW54119   3.211   3.491   4.169  0.2306  0.3512  0.0249
17371SOL    HW154120   3.215   3.459   4.260 -0.5590  1.0081  0.2996
17371SOL    HW254121   3.302   3.490   4.140  0.4220 -0.5055  0.5960
17372SOL     OW54122   2.723   4.123   1.556  0.6655  0.1262 -0.5906
17372SOL    HW154123   2.800   4.158   1.599  1.0824  0.8776 -1.9030
17372SOL    HW254124   2.682   4.067   1.622  1.5283  0.8620  0.5980
17373SOL     OW54125  10.574   2.759   6.673 -0.0909 -0.1939 -0.2062
17373SOL    HW154126  10.629   2.764   6.595  0.4405 -1.9894  0.0052
17373SOL    HW254127  10.628   2.799   6.742 -0.0004  0.1455 -0.4686
17374SOL     OW54128   3.455  10.741  10.742  0.1424  0.0965  0.8240
17374SOL    HW154129   3.530  10.800  10.742 -0.2253  0.5698  0.4525
17374SOL    HW254130   3.462  10.694  10.659 -0.8403  1.2777  0.0371
17375SOL     OW54131   4.728   7.332   7.294 -0.2204 -0.2527 -0.7158
17375SOL    HW154132   4.735   7.424   7.319  1.0971 -0.1879 -1.2139
17375SOL    HW254133   4.754   7.330   7.202  0.8451 -1.2478 -0.4258
17376SOL     OW54134   4.318   8.048   2.390 -0.3607  0.2277  0.6396
17376SOL    HW154135   4.331   8.004   2.474 -0.0578 -1.2954 -0.1683
17376SOL    HW254136   4.233   8.017   2.360  1.3978 -2.9383 -1.6632
17377SOL     OW54137   9.415   4.032   7.711  0.2411  0.0555 -0.3954
17377SOL    HW154138   9.431   4.118   7.750 -0.4792 -0.2038  0.5214
17377SOL    HW254139   9.425   3.971   7.784 -2.2748 -0.3423 -0.2927
17378SOL     OW54140   5.667   5.076   1.928  0.0025  0.2457 -0.7633
17378SOL    HW154141   5.745   5.125   1.954  1.3547 -1.2310 -1.8294
17378SOL    HW254142   5.630   5.128   1.856  0.4043  0.5982 -0.7209
17379SOL     OW54143   1.619   2.046  10.625 -0.2044 -0.3628  0.2139
17379SOL    HW154144   1.550   2.025  10.688 -0.3704  0.5909  0.3642
17379SOL    HW254145   1.681   1.973  10.631 -0.6513 -0.6937  0.8581
17380SOL     OW54146   1.006  10.934   1.299  0.3758 -0.5454  0.1199
17380SOL    HW154147   0.978  10.991   1.371 -1.7971  0.0071 -1.0635
17380SOL    HW254148   0.924  10.905   1.258  1.5113 -0.6161 -2.2947
17381SOL     OW54149   0.388   0.716   1.951 -0.2727  0.0522 -0.0009
17381SOL    HW154150   0.375   0.809   1.968 -0.8128 -0.3348  2.0269
17381SOL    HW254151   0.459   0.691   2.009 -1.0846 -1.0737  0.5490
17382SOL     OW54152   1.726   2.233   3.427  0.0607 -0.6266 -0.6363
17382SOL    HW154153   1.754   2.260   3.515  1.7264 -2.3504 -0.5676
17382SOL    HW254154   1.799   2.257   3.371  0.7645 -3.0626 -0.8682
17383SOL     OW54155   9.984   6.358   4.457 -1.0508  0.2960  0.3458
17383SOL    HW154156  10.068   6.400   4.439 -1.0471 -0.5762 -2.0120
17383SOL    HW254157   9.974   6.364   4.552  2.0007 -0.2214  0.7946
17384SOL     OW54158   0.213   8.230   9.728 -0.5550  0.0321  0.2100
17384SOL    HW154159   0.308   8.241   9.728 -0.1444 -2.5225 -1.0987
17384SOL    HW254160   0.192   8.193   9.814 -0.1033 -0.8305 -0.0396
17385SOL     OW54161   4.027   4.318   4.715 -0.1326  0.2956 -0.2537
17385SOL    HW154162   4.113   4.348   4.688 -0.5221  1.2884 -0.4222
17385SOL    HW254163   4.018   4.232   4.674  2.1293 -1.4163  2.4846
17386SOL     OW54164   8.133   9.099   4.483 -0.4837  0.5426 -0.0046
17386SOL    HW154165   8.099   9.024   4.532 -2.9425  1.4190 -0.2471
17386SOL    HW254166   8.163   9.062   4.400 -2.1335 -0.1421 -0.3351
17387SOL     OW54167   2.958   2.966   8.348 -0.2151  0.1809  0.2686
17387SOL    HW154168   2.980   3.008   8.432 -1.8850  1.3890  0.1449
17387SOL    HW254169   3.013   3.010   8.284 -0.9833  1.2680  0.3397
17388SOL     OW54170   3.357   3.686   3.828  0.2324 -0.7077 -0.3406
17388SOL    HW154171   3.278   3.655   3.785  0.5280 -0.2781 -1.2107
17388SOL    HW254172   3.428   3.664   3.767  0.8482 -1.4908  0.6234
17389SOL     OW54173   2.031   5.739   0.075 -0.4758 -0.1587  0.1271
17389SOL    HW154174   1.939   5.734   0.103 -0.2732 -1.7093  0.6321
17389SOL    HW254175   2.075   5.673   0.129  1.0000  0.7807  0.1004
17390SOL     OW54176   2.928   0.032   5.578 -0.0721 -0.4723 -0.0385
17390SOL    HW154177   2.940   0.097   5.509  1.0029  1.5734  1.9624
17390SOL    HW254178   3.016   0.021   5.615 -0.2469 -3.0247 -0.2017
17391SOL     OW54179   3.742   1.828   9.221 -0.0494  0.0300 -0.2925
17391SOL    HW154180   3.705   1.916   9.212  1.3408  0.6941  0.0386
17391SOL    HW254181   3.834   1.844   9.243 -0.0267 -1.5176  0.8857
17392SOL     OW54182  10.533   9.227   9.765 -0.0395  0.1173 -0.1412
17392SOL    HW154183  10.472   9.206   9.694  1.1412 -1.0718 -0.8535
17392SOL    HW254184  10.560   9.141   9.799  1.2396  0.6135  0.1418
17393SOL     OW54185   7.902   7.135   7.827 -0.2513  0.1906 -0.4258
17393SOL    HW154186   7.964   7.071   7.862  0.7561  0.4352 -1.6720
17393SOL    HW254187   7.886   7.195   7.900  3.5328  2.0038 -0.8219
17394SOL     OW54188   5.332   5.889   1.665 -0.6239  0.1201 -0.1300
17394SOL    HW154189   5.394   5.824   1.631  1.1420  2.9667 -2.8210
17394SOL    HW254190   5.386   5.954   1.709 -2.0780  1.0223  0.3861
17395SOL     OW54191   8.603   6.110   2.471  0.5360 -0.2102  0.3187
17395SOL    HW154192   8.538   6.156   2.524  0.4045 -0.4897  0.4068
17395SOL    HW254193   8.593   6.146   2.383  0.4023 -0.1061  0.3763
17396SOL     OW54194  10.726   6.764   1.282 -0.3146  0.2529 -0.2531
17396SOL    HW154195  10.676   6.802   1.210 -0.5295  0.2963 -0.0798
17396SOL    HW254196  10.800   6.824   1.295 -0.0456  0.0270 -0.7111
17397SOL     OW54197   6.035   1.661   7.802 -0.1626  0.1419 -0.1644
17397SOL    HW154198   6.106   1.652   7.737  0.4417 -0.2585  0.5383
17397SOL    HW254199   6.014   1.754   7.801  1.2085  0.4813  0.4704
17398SOL     OW54200   5.785   5.783   1.139  0.1383  0.0765  0.0768
17398SOL    HW154201   5.712   5.777   1.200  0.1973  1.5944  0.3274
17398SOL    HW254202   5.834   5.860   1.166  1.1421 -0.2001 -0.8483
17399SOL     OW54203   2.355   7.936   2.189  0.6607 -0.3803  0.2747
17399SOL    HW154204   2.389   8.017   2.150  1.0907  0.0273  1.4338
17399SOL    HW254205   2.265   7.957   2.213  0.7276 -0.2822  0.4459
17400SOL     OW54206  10.193   1.799   1.604  0.3101 -0.0876  0.5479
17400SOL    HW154207  10.247   1.827   1.677 -0.0636  0.2844  0.6898
17400SOL    HW254208  10.254   1.761   1.541  0.6351 -0.3607  1.0319
17401SOL     OW54209   4.967   3.852   5.229  0.0153  0.7154  0.3792
17401SOL    HW154210   4.899   3.902   5.274 -0.4917  0.5794 -0.2250
17401SOL    HW254211   4.927   3.766   5.214  0.7687  0.2198  1.1342
17402SOL     OW54212   9.393   2.805  10.243 -0.2696  0.1268  0.0452
17402SOL    HW154213   9.334   2.834  10.314 -1.1627 -1.3665 -0.0506
17402SOL    HW254214   9.455   2.748  10.287  1.7440  2.3507  0.3038
17403SOL     OW54215   1.855   8.609   4.847  0.2829 -0.3359  0.1256
17403SOL    HW154216   1.916   8.637   4.780  1.5332 -1.8240  0.5874
17403SOL    HW254217   1.892   8.644   4.929 -0.8213  0.8155  0.1751
17404SOL     OW54218  10.873   2.106   7.224 -0.0853 -0.3688  0.0380
17404SOL    HW154219  10.810   2.109   7.152  0.7431 -1.9759 -0.7982
17404SOL    HW254220  10.926   2.185   7.211 -1.7610  0.9069  0.6519
17405SOL     OW54221   6.709   3.946   9.607  0.0814 -0.4227 -0.2301
17405SOL    HW154222   6.707   4.003   9.683  0.3136 -0.5591 -0.1216
17405SOL    HW254223   6.686   4.004   9.533 -1.4214 -0.5579  0.0988
17406SOL     OW54224  10.348   0.504   0.930  0.1986  0.8744  0.8462
17406SOL    HW154225  10.283   0.528   0.996 -0.1121  2.8230 -0.0858
17406SOL    HW254226  10.397   0.585   0.915  1.0959  0.1356 -0.3957
17407SOL     OW54227   7.833   7.878   4.926  0.3183  0.0747 -0.2083
17407SOL    HW154228   7.889   7.804   4.948 -0.8014 -1.7638 -2.9538
17407SOL    HW254229   7.754   7.838   4.891 -0.9687  2.6177 -0.4458
17408SOL     OW54230   7.957   4.892   7.391 -0.3649  0.1371 -0.6129
17408SOL    HW154231   7.960   4.832   7.317 -0.4314  0.3649 -0.8017
17408SOL    HW254232   8.013   4.965   7.364  1.3853 -0.7498  0.4185
17409SOL     OW54233   8.526   1.076   6.773 -0.5306 -0.3507  0.2913
17409SOL    HW154234   8.572   1.088   6.856  1.3805  0.1066 -0.7847
17409SOL    HW254235   8.480   1.159   6.758  0.7865  0.3379 -0.0636
17410SOL     OW54236  10.710   7.573  10.257  0.0424  0.5514 -0.1783
17410SOL    HW154237  10.631   7.553  10.208  0.2853 -1.4897  0.1592
17410SOL    HW254238  10.755   7.488  10.265  1.7694  1.4838  0.4672
17411SOL     OW54239   0.811   2.656   2.156 -0.8840  0.4750  0.5328
17411SOL    HW154240   0.787   2.673   2.247  0.1210 -1.5071  1.2363
17411SOL    HW254241   0.790   2.564   2.143  0.4205  0.3323 -0.7566
17412SOL     OW54242   2.611   8.262   6.725  0.2493  0.4911  0.0296
17412SOL    HW154243   2.697   8.283   6.687  1.0339  0.0286  1.4502
17412SOL    HW254244   2.573   8.199   6.665 -1.1949  4.0132 -3.1587
17413SOL     OW54245  10.793   2.497   9.327 -0.1084 -0.5395 -0.6819
17413SOL    HW154246  10.836   2.412   9.336  1.5505 -0.0720 -3.2460
17413SOL    HW254247  10.865   2.559   9.318 -1.2947  0.7040 -2.0274
17414SOL     OW54248   0.211   1.553   6.682  0.5975 -0.1989 -0.2124
17414SOL    HW154249   0.129   1.533   6.728  0.9112 -0.0287  0.4407
17414SOL    HW254250   0.204   1.507   6.599 -0.3178  0.1042 -0.3186
17415SOL     OW54251   2.839   4.497   2.269  0.1587  0.3999  0.2122
17415SOL    HW154252   2.851   4.573   2.325 -0.4312  0.1695  0.6588
17415SOL    HW254253   2.769   4.447   2.310  1.7371 -1.3290  0.9715
17416SOL     OW54254   6.536   4.860   0.306  0.3688  0.9161  0.0336
17416SOL    HW154255   6.504   4.772   0.326 -1.2731  1.2474 -0.9943
17416SOL    HW254256   6.522   4.909   0.387  0.1739  0.5309  0.2362
17417SOL     OW54257   6.864  10.949   1.247 -0.1171  0.5095  0.1241
17417SOL    HW154258   6.879  11.042   1.230 -0.4138  0.5785  0.2287
17417SOL    HW254259   6.905  10.934   1.333 -0.0812  0.5474  0.1134
17418SOL     OW54260   6.905   3.784   6.112  0.0446 -0.0091 -0.3943
17418SOL    HW154261   6.991   3.820   6.088  0.0623  0.7165  0.6685
17418SOL    HW254262   6.900   3.796   6.206 -0.6746 -1.3083 -0.2439
17419SOL     OW54263   0.121   5.961   5.350  0.4833  0.6965 -0.1107
17419SOL    HW154264   0.189   5.894   5.361  1.6258  1.8319  0.0212
17419SOL    HW254265   0.150   6.034   5.405  1.7995  3.1730 -3.7014
17420SOL     OW54266   1.963   7.333  10.324  0.1394  0.3701  0.1072
17420SOL    HW154267   1.995   7.322  10.234  1.1754  2.1362  0.2165
17420SOL    HW254268   1.873   7.299  10.321 -0.1630  1.1832 -1.8229
17421SOL     OW54269   1.541   7.342   7.707 -0.3196  0.2490  0.0428
17421SOL    HW154270   1.581   7.376   7.787 -1.4963 -1.5336  1.4769
17421SOL    HW254271   1.459   7.303   7.736  0.0063 -1.9877 -1.7524
17422SOL     OW54272   5.320   5.401  10.350 -0.5134 -0.1935 -0.2027
17422SOL    HW154273   5.270   5.476  10.383 -0.9017 -0.3536 -0.4155
17422SOL    HW254274   5.259   5.327  10.356 -0.6527 -0.1948 -1.4263
17423SOL     OW54275  10.533   7.944   2.456 -0.1291  0.4037  0.1778
17423SOL    HW154276  10.499   7.913   2.539  0.5053 -1.3460 -0.1793
17423SOL    HW254277  10.625   7.915   2.455 -0.0763  0.5582 -1.0364
17424SOL     OW54278   8.971   5.860   2.150  0.6876 -0.2964 -0.3336
17424SOL    HW154279   9.033   5.890   2.084  0.6981 -0.6408 -0.4812
17424SOL    HW254280   8.935   5.779   2.114  1.0729 -0.7637  0.3099
17425SOL     OW54281   7.747  10.273   1.685 -0.4092 -0.0368  0.2290
17425SOL    HW154282   7.810  10.209   1.651 -0.5124 -1.0692  1.8947
17425SOL    HW254283   7.663  10.229   1.679 -0.9658  1.1436 -1.4882
17426SOL     OW54284  10.911   1.969   8.182 -0.1985  0.0069 -0.0774
17426SOL    HW154285  10.868   1.973   8.267  1.5141  1.5212  0.7932
17426SOL    HW254286  10.918   1.875   8.163  0.9271 -0.4792  2.3206
17427SOL     OW54287   0.141   1.313   9.410 -0.0772  0.4598 -0.2215
17427SOL    HW154288   0.144   1.306   9.506 -1.3422  0.6781 -0.1453
17427SOL    HW254289   0.053   1.281   9.387  0.1354  0.6131 -1.2906
17428SOL     OW54290   3.331   5.253   0.198 -0.1651 -0.0023 -0.1988
17428SOL    HW154291   3.400   5.189   0.185  0.9986  0.9329  1.1141
17428SOL    HW254292   3.269   5.210   0.258  0.5162  0.0097  0.5324
17429SOL     OW54293   2.508   7.039   1.850  0.1036  0.2098  0.5942
17429SOL    HW154294   2.544   6.951   1.853  0.3340  0.2762 -0.1674
17429SOL    HW254295   2.417   7.027   1.823  0.6871  0.3358 -1.5986
17430SOL     OW54296   7.055   7.591   5.118 -0.0694 -0.5934 -0.4881
17430SOL    HW154297   7.012   7.654   5.177  3.4753  3.0663 -1.3448
17430SOL    HW254298   7.008   7.600   5.035  0.4955  1.2430 -0.6549
17431SOL     OW54299   6.214  10.496   1.759 -0.2449  0.2187 -0.3170
17431SOL    HW154300   6.190  10.428   1.696 -0.1558 -1.2263  1.1387
17431SOL    HW254301   6.301  10.524   1.731 -0.0137 -0.7310 -0.5821
17432SOL     OW54302   4.865   1.563   1.090 -0.3047 -0.2882  0.1992
17432SOL    HW154303   4.776   1.599   1.085 -0.1313  0.0407 -0.5485
17432SOL    HW254304   4.861   1.481   1.041 -0.0804 -0.0477 -0.2184
17433SOL     OW54305   1.563  10.469   7.176 -0.2849 -0.1696  0.0887
17433SOL    HW154306   1.497  10.528   7.213  0.2073  0.6933 -0.4015
17433SOL    HW254307   1.619  10.447   7.250 -1.0198 -0.7850  0.4764
17434SOL     OW54308   2.207   6.607   7.774  0.6949 -0.0329  0.6637
17434SOL    HW154309   2.140   6.634   7.711  0.8506  0.2031  0.5936
17434SOL    HW254310   2.279   6.669   7.759  0.4280  0.5215  1.6170
17435SOL     OW54311   1.489   3.834   7.072  0.8740  0.1740  0.2595
17435SOL    HW154312   1.580   3.803   7.068  0.4961 -0.9542  0.0267
17435SOL    HW254313   1.439   3.767   7.027 -0.2810 -0.0214  1.7648
17436SOL     OW54314   9.592   8.881   0.799 -0.4483 -0.2231  0.4256
17436SOL    HW154315   9.523   8.853   0.739  0.0207  0.1830 -0.3211
17436SOL    HW254316   9.546   8.922   0.872 -0.9605  1.8317 -0.9640
17437SOL     OW54317   7.008   3.718   2.275 -0.2032 -0.1589  0.4557
17437SOL    HW154318   6.983   3.738   2.184 -0.3890  0.1861  0.5803
17437SOL    HW254319   7.103   3.711   2.273  0.0800  2.5211  0.7312
17438SOL     OW54320   0.593   1.639   1.777 -0.0738 -0.2199 -0.2731
17438SOL    HW154321   0.619   1.550   1.801  1.1525  0.0001 -0.6740
17438SOL    HW254322   0.643   1.695   1.837 -1.4431  0.1885  0.5084
17439SOL     OW54323  10.364   5.345   0.450 -0.0937  0.4200 -0.1320
17439SOL    HW154324  10.289   5.337   0.391  1.0447 -0.1550 -1.5719
17439SOL    HW254325  10.331   5.318   0.536 -2.2380  2.8749 -0.0689
17440SOL     OW54326   7.443   6.285   8.269 -0.6227  0.2027  1.0328
17440SOL    HW154327   7.465   6.370   8.230 -0.6825 -0.5921 -0.8173
17440SOL    HW254328   7.418   6.230   8.195 -0.7300 -1.4006  2.2078
17441SOL     OW54329   7.944   2.509  10.975  0.2903  0.2877 -0.2190
17441SOL    HW154330   7.888   2.497  10.898  1.4926 -1.3571 -0.8877
17441SOL    HW254331   8.028   2.537  10.940  0.7606 -0.1570  0.5184
17442SOL     OW54332   1.493   6.418   9.040 -0.6802 -0.2172  0.2326
17442SOL    HW154333   1.500   6.358   9.114  0.3915 -1.7166 -1.0281
17442SOL    HW254334   1.399   6.433   9.030 -0.9900 -1.8071  0.5254
17443SOL     OW54335   8.385   7.336  10.486  0.1812  0.8659  0.2868
17443SOL    HW154336   8.323   7.395  10.529 -1.7682  0.2962 -1.5442
17443SOL    HW254337   8.441   7.394  10.435  0.8748  1.3578  1.5594
17444SOL     OW54338   2.723   4.215   0.896 -0.6481 -0.0043 -0.0038
17444SOL    HW154339   2.796   4.278   0.893 -0.1046 -0.6235  0.0205
17444SOL    HW254340   2.765   4.129   0.889 -1.4522 -0.3371 -0.8698
17445SOL     OW54341   7.213  10.152   8.225  0.0247 -0.2612 -0.4975
17445SOL    HW154342   7.259  10.208   8.287 -1.1475  0.8652 -0.6101
17445SOL    HW254343   7.195  10.208   8.150 -4.3659  0.4233  0.8049
17446SOL     OW54344   3.151  10.809   5.630 -0.1072  0.3523 -0.4772
17446SOL    HW154345   3.095  10.735   5.654 -1.3124  0.6816 -2.1311
17446SOL    HW254346   3.163  10.800   5.536  2.4909  0.4310 -0.2402
17447SOL     OW54347   6.759   4.753   6.528  0.3712 -0.2330  0.2658
17447SOL    HW154348   6.829   4.767   6.591  0.3278  0.6862  0.1154
17447SOL    HW254349   6.785   4.801   6.450 -0.8612  0.9458  0.5364
17448SOL     OW54350   4.232  10.586   7.731  0.2550  0.2646  0.1074
17448SOL    HW154351   4.167  10.646   7.693  1.0960  0.3914 -1.1955
17448SOL    HW254352   4.220  10.505   7.683 -0.0172 -0.2347  0.9947
17449SOL     OW54353   7.445  10.581  10.609 -0.1101  0.3245  0.2339
17449SOL    HW154354   7.355  10.566  10.637  0.3325 -0.7248  1.1523
17449SOL    HW254355   7.497  10.580  10.689  0.7792  0.4402 -0.3172
17450SOL     OW54356   0.623   0.048   6.977  0.3247  0.5225 -0.0352
17450SOL    HW154357   0.613  -0.014   7.049  1.3704 -1.1417 -1.2457
17450SOL    HW254358   0.675   0.119   7.014  1.8952 -0.8756  0.6005
17451SOL     OW54359   7.970   9.847  10.788 -0.3274 -0.4793  0.3806
17451SOL    HW154360   7.919   9.791  10.729 -1.9219 -0.9577  2.1131
17451SOL    HW254361   8.044   9.792  10.815 -0.0356 -0.5401 -0.5217
17452SOL     OW54362   8.729   8.022  10.597  0.8620  0.0346 -0.4383
17452SOL    HW154363   8.690   7.947  10.551 -0.2827  0.5296 -0.3249
17452SOL    HW254364   8.687   8.098  10.557 -0.2458  0.4847  1.4582
17453SOL     OW54365   8.960   2.313   8.212 -0.5319  1.0538 -0.5919
17453SOL    HW154366   8.869   2.282   8.204 -0.0598 -0.2761 -1.0825
17453SOL    HW254367   8.952   2.397   8.257 -1.8267 -0.4499  2.2871
17454SOL     OW54368   2.537   1.930   8.933 -0.7635 -0.8670 -0.0516
17454SOL    HW154369   2.521   2.018   8.898  1.3420 -0.6188 -0.5383
17454SOL    HW254370   2.609   1.942   8.995 -1.3597 -2.0620  0.9210
17455SOL     OW54371  11.002  10.701   7.347  0.4792 -1.0709  0.4398
17455SOL    HW154372  11.068  10.673   7.410  2.2018  1.1474 -0.2580
17455SOL    HW254373  10.941  10.754   7.398  1.9734  0.8802  0.2828
17456SOL     OW54374   8.811   1.513   8.762 -0.1341 -0.3536  0.2093
17456SOL    HW154375   8.806   1.468   8.846  0.0567 -0.9801 -0.1074
17456SOL    HW254376   8.893   1.562   8.765 -0.9575  1.0506  1.0688
17457SOL     OW54377   1.016   5.343   5.482  0.4194  0.4007 -0.5016
17457SOL    HW154378   1.009   5.295   5.400  0.4387 -0.8122  0.1778
17457SOL    HW254379   0.927   5.348   5.516  0.6391 -0.7968  0.3126
17458SOL     OW54380   6.639   4.898   0.839  0.7815  0.0181 -0.2867
17458SOL    HW154381   6.659   4.964   0.906 -1.0305 -0.6897  1.0430
17458SOL    HW254382   6.543   4.898   0.833  0.7998 -1.5923 -1.1869
17459SOL     OW54383   8.481   3.462   7.004 -0.2424 -0.0566 -0.3515
17459SOL    HW154384   8.480   3.525   6.932  0.3222  3.0371  2.1082
17459SOL    HW254385   8.563   3.415   6.994  1.5631  2.7784  0.1027
17460SOL     OW54386  11.039   8.962   0.505  0.4084 -0.0122  0.0727
17460SOL    HW154387  10.958   8.915   0.523 -0.2520  0.6227 -1.1056
17460SOL    HW254388  11.020   9.053   0.530  0.9682  0.0259  0.3783
17461SOL     OW54389   3.569   3.594   9.024  0.0051 -0.1983 -0.2283
17461SOL    HW154390   3.621   3.577   8.945  0.4389  1.0048 -0.2145
17461SOL    HW254391   3.495   3.533   9.017  0.6704 -0.9433 -0.9537
17462SOL     OW54392   5.863   3.941   2.426 -0.0326  0.3434 -0.5089
17462SOL    HW154393   5.897   3.955   2.515 -3.6198  1.8489  0.8013
17462SOL    HW254394   5.822   3.855   2.430 -1.2846  0.9379 -0.2817
17463SOL     OW54395   8.995   6.750   0.103 -0.1577 -0.2140 -0.2992
17463SOL    HW154396   8.956   6.812   0.164 -0.4737  1.2658 -1.9158
17463SOL    HW254397   8.969   6.664   0.135 -2.8606  0.6213 -0.0319
17464SOL     OW54398   5.014   8.640   2.740  0.6139 -0.2182  0.4015
17464SOL    HW154399   5.086   8.689   2.700 -0.3114  0.2650 -0.7095
17464SOL    HW254400   5.057   8.585   2.806  2.0269 -0.1136 -0.3869
17465SOL     OW54401   8.293   3.608  10.754 -0.6267  0.5069  0.7868
17465SOL    HW154402   8.265   3.671  10.687 -1.0242  0.3216  0.7793
17465SOL    HW254403   8.225   3.611  10.821 -1.3880 -0.9109  0.1408
17466SOL     OW54404   6.585  10.397   3.429 -0.1787 -0.0635 -0.1071
17466SOL    HW154405   6.583  10.490   3.404  0.3945  0.1170  0.4929
17466SOL    HW254406   6.532  10.354   3.362 -0.6878  0.7314 -0.2366
17467SOL     OW54407   8.714   6.407   6.500 -0.0447  0.0167  0.0596
17467SOL    HW154408   8.626   6.441   6.512 -0.7838 -0.5496 -2.9266
17467SOL    HW254409   8.703   6.312   6.495  0.4343  0.0110 -1.8154
17468SOL     OW54410   5.605   3.622   4.702  1.0162 -0.4827  0.0936
17468SOL    HW154411   5.639   3.632   4.612 -2.4613  0.7521 -1.2463
17468SOL    HW254412   5.603   3.712   4.736 -4.6435  0.4739 -1.6509
17469SOL     OW54413   3.315   8.120   4.226 -0.2698 -0.1859 -0.1737
17469SOL    HW154414   3.295   8.113   4.319 -0.1833  0.7523 -0.0805
17469SOL    HW254415   3.364   8.041   4.206  1.9594  0.7779  1.1483
17470SOL     OW54416   1.377   0.018   2.516 -0.4538 -0.1459  0.0413
17470SOL    HW154417   1.371  -0.066   2.561 -1.5697 -1.8792 -3.0184
17470SOL    HW254418   1.299   0.066   2.543 -2.0372 -1.8677 -1.2191
17471SOL     OW54419   1.180   6.603   8.027 -0.0344 -0.4429  0.2097
17471SOL    HW154420   1.139   6.540   8.085  1.9112 -0.7497  1.3197
17471SOL    HW254421   1.147   6.688   8.057  0.1415 -0.6796  1.1033
17472SOL     OW54422   1.031   5.271   0.532  0.2505 -0.2938 -0.1063
17472SOL    HW154423   1.077   5.297   0.612  0.3084 -0.6753 -0.0130
17472SOL    HW254424   1.082   5.197   0.498  0.8860  0.5717 -1.1153
17473SOL     OW54425   8.669   8.415   3.652  0.7888 -0.0102 -0.1651
17473SOL    HW154426   8.700   8.324   3.652 -1.6092 -0.9167 -0.6400
17473SOL    HW254427   8.645   8.431   3.560 -1.7232 -0.0606  0.4038
17474SOL     OW54428   0.033   6.890   4.312 -0.7030 -0.0561 -0.7064
17474SOL    HW154429   0.043   6.949   4.238  3.8075 -0.2662 -0.5185
17474SOL    HW254430   0.029   6.803   4.272 -1.2976 -0.0144 -0.7538
17475SOL     OW54431   9.557   8.053   8.794 -0.3021  0.5952  0.3629
17475SOL    HW154432   9.546   7.959   8.780  0.7066  0.5825 -0.5534
17475SOL    HW254433   9.617   8.059   8.868  0.2840  0.4838 -0.0915
17476SOL     OW54434   1.452   2.600  10.365 -0.4419  0.2077 -0.1677
17476SOL    HW154435   1.472   2.522  10.418 -1.6365  1.0046  1.5779
17476SOL    HW254436   1.391   2.568  10.299  0.2740 -0.6228 -0.4457
17477SOL     OW54437   3.167   9.396   9.368 -0.4893  0.5119  0.5455
17477SOL    HW154438   3.131   9.473   9.411 -1.4562 -0.4046  1.4250
17477SOL    HW254439   3.146   9.409   9.275  2.5351  3.0055  0.0328
17478SOL     OW54440   0.340  10.880   8.545  0.2240  0.7313  0.5429
17478SOL    HW154441   0.319  10.954   8.487  1.3592 -0.6976 -1.8246
17478SOL    HW254442   0.272  10.884   8.613 -1.0874  2.6196 -0.7558
17479SOL     OW54443   0.021   8.508  10.474 -0.3511 -0.1377  0.1773
17479SOL    HW154444  -0.060   8.536  10.432 -0.7021 -0.6587  0.5070
17479SOL    HW254445   0.075   8.476  10.402  0.3811  2.0574 -0.3466
17480SOL     OW54446   3.796   5.912   2.002 -0.2776 -0.1523  0.2766
17480SOL    HW154447   3.758   5.902   1.915 -1.1141 -0.4893  0.6647
17480SOL    HW254448   3.779   5.828   2.045  2.1268 -0.8508  0.0358
17481SOL     OW54449   5.631   7.369   7.012  0.1694  0.2247 -0.4346
17481SOL    HW154450   5.668   7.295   7.060 -0.5657 -0.3432 -0.7364
17481SOL    HW254451   5.591   7.424   7.080  0.6314  0.3116 -0.2236
17482SOL     OW54452  10.769   0.610   2.273  0.0140  1.1175 -0.3126
17482SOL    HW154453  10.814   0.552   2.334 -1.2310  0.4786  0.0209
17482SOL    HW254454  10.829   0.617   2.198  0.0671 -0.8514 -0.4913
17483SOL     OW54455   9.351   7.956   7.687 -0.2671 -0.3138  0.9114
17483SOL    HW154456   9.337   7.865   7.712 -0.9382  0.0873  2.1347
17483SOL    HW254457   9.388   7.953   7.599 -0.0562 -1.7653  1.0362
17484SOL     OW54458   3.677   6.271  10.096  0.0566 -0.0400  0.1761
17484SOL    HW154459   3.598   6.218  10.086  0.1921 -0.1686 -0.2438
17484SOL    HW254460   3.690   6.310  10.010  1.0718 -0.8950 -0.0739
17485SOL     OW54461   9.800   0.703   2.298  0.1392 -0.0759 -0.1684
17485SOL    HW154462   9.768   0.633   2.355 -0.5031 -1.4603 -2.1509
17485SOL    HW254463   9.893   0.686   2.289  0.0933 -0.3248 -0.1713
17486SOL     OW54464   5.891   8.173   0.133 -0.2812  0.2903  0.0337
17486SOL    HW154465   5.796   8.180   0.144 -0.3831  0.8168 -1.1189
17486SOL    HW254466   5.918   8.116   0.205 -1.2152  1.6565  1.5483
17487SOL     OW54467  10.107   9.757   8.504  0.8511  0.1100  0.2263
17487SOL    HW154468  10.158   9.677   8.519  0.7909  0.3557  1.8131
17487SOL    HW254469  10.154   9.825   8.550 -0.3342  0.5545  0.8200
17488SOL     OW54470   8.987   8.540   4.880 -0.1071 -0.2228  0.0923
17488SOL    HW154471   9.005   8.499   4.796 -0.4123 -1.5045  0.6301
17488SOL    HW254472   8.974   8.632   4.859 -0.0390 -0.4937 -1.2371
17489SOL     OW54473   8.795   1.384   8.147  0.2164  0.4946  0.2656
17489SOL    HW154474   8.832   1.466   8.181 -0.3032  1.3130 -1.0453
17489SOL    HW254475   8.769   1.335   8.225  2.4137  0.6530  1.1606
17490SOL     OW54476   0.220  11.009   3.727 -0.2787 -0.2137  0.3528
17490SOL    HW154477   0.174  11.092   3.741  0.5827  0.4025 -0.4014
17490SOL    HW254478   0.250  11.013   3.636  2.0389 -0.1891  1.0662
17491SOL     OW54479   5.369   3.697  10.174 -0.0799  0.4150 -0.3541
17491SOL    HW154480   5.421   3.741  10.106  0.0758  0.8627  0.0562
17491SOL    HW254481   5.291   3.751  10.184  0.3729  0.9104  0.5492
17492SOL     OW54482  10.859   7.097   3.834 -0.2192  0.4449  0.3510
17492SOL    HW154483  10.854   7.016   3.885 -1.6849  0.3418  0.0948
17492SOL    HW254484  10.812   7.161   3.886  0.3888  0.9810  0.2523
17493SOL     OW54485   9.755   3.379   2.173 -0.0148  0.3905 -0.8714
17493SOL    HW154486   9.661   3.359   2.174  0.2790 -1.2286  1.0131
17493SOL    HW254487   9.764   3.448   2.108 -2.1973 -0.9510 -2.7737
17494SOL     OW54488   0.656  10.619   4.087 -0.3353 -0.0757  0.0257
17494SOL    HW154489   0.588  10.569   4.042  0.1194  0.4814 -1.3016
17494SOL    HW254490   0.627  10.621   4.178 -2.2002  0.3357 -0.5441
17495SOL     OW54491   3.023   0.393   6.156 -0.6359  0.2985  0.4633
17495SOL    HW154492   3.046   0.413   6.247 -0.3813  0.6036  0.3315
17495SOL    HW254493   2.936   0.353   6.162 -0.9006  0.9080  0.7791
17496SOL     OW54494   5.252   3.785   8.154 -0.2865  0.1561  0.4364
17496SOL    HW154495   5.269   3.825   8.069 -0.9057 -1.1960 -0.3484
17496SOL    HW254496   5.291   3.698   8.148 -3.0345 -1.1624  0.3605
17497SOL     OW54497   4.118   2.830   5.955  0.2040  0.1816  0.4525
17497SOL    HW154498   4.164   2.882   6.021  0.0218  0.7491  0.1455
17497SOL    HW254499   4.174   2.836   5.877 -1.3077  2.6089 -0.5764
17498SOL     OW54500   7.052   5.747   2.024 -0.4865  0.0399  0.2117
17498SOL    HW154501   7.020   5.684   1.959  0.8075 -0.3373 -0.0949
17498SOL    HW254502   7.108   5.695   2.082 -1.6442  0.3600  1.6821
17499SOL     OW54503   9.298  10.198   0.078  0.1855  0.3256 -0.0171
17499SOL    HW154504   9.371  10.224   0.134 -0.3383  2.6147 -0.2705
17499SOL    HW254505   9.336  10.193  -0.010  0.5873 -1.2518  0.2313
17500SOL     OW54506   0.005   9.448   5.273 -0.3548 -0.0910  0.0593
17500SOL    HW154507   0.018   9.353   5.274 -0.2489 -0.0739  1.4732
17500SOL    HW254508   0.069   9.480   5.210 -1.9768 -1.1393 -2.2866
17501SOL     OW54509   9.549  10.649  10.897  0.1423 -0.0724  0.3316
17501SOL    HW154510   9.558  10.730  10.846 -1.0324 -1.3828 -2.1264
17501SOL    HW254511   9.479  10.668  10.960 -0.2495  0.7796 -0.3392
17502SOL     OW54512   4.978   0.269   5.062 -0.4703 -0.1692  0.2265
17502SOL    HW154513   5.056   0.218   5.039 -0.5333 -0.7690  1.3015
17502SOL    HW254514   5.002   0.359   5.040 -0.3425 -0.6164 -1.6678
17503SOL     OW54515   2.962   3.553   8.443  0.2237 -0.2747 -0.6220
17503SOL    HW154516   2.990   3.466   8.412 -0.1716 -0.4337 -0.5337
17503SOL    HW254517   2.938   3.539   8.535 -0.4588 -0.2058 -0.7887
17504SOL     OW54518   8.973   0.276   3.986  0.2238  0.3554  0.0495
17504SOL    HW154519   9.057   0.268   3.941  0.2186 -0.5659  0.1912
17504SOL    HW254520   8.923   0.338   3.933  0.6389  0.1618 -0.5738
17505SOL     OW54521   2.007   7.149   3.809  0.3147  0.1573 -0.3232
17505SOL    HW154522   2.016   7.100   3.728 -1.0197  1.4319 -1.2958
17505SOL    HW254523   2.096   7.181   3.827  1.1627 -2.2850  0.2049
17506SOL     OW54524   3.616   3.109   8.065  0.1428 -0.4933 -0.3761
17506SOL    HW154525   3.596   3.137   8.154 -1.3667  0.0628 -0.8627
17506SOL    HW254526   3.622   3.014   8.070 -1.5449 -0.6144  0.0623
17507SOL     OW54527   2.427  10.449   1.130 -0.3204 -0.1697 -0.5303
17507SOL    HW154528   2.426  10.510   1.056 -1.1559  0.5615  0.0667
17507SOL    HW254529   2.336  10.423   1.141 -0.0193 -1.3490 -0.6086
17508SOL     OW54530   0.479   6.792   0.271 -0.4610  0.2985  0.0802
17508SOL    HW154531   0.429   6.864   0.233 -0.2244  0.6916  0.4984
17508SOL    HW254532   0.479   6.809   0.365  0.8334  0.5620  0.0558
17509SOL     OW54533   9.976   8.229   5.391 -0.0350  0.6075 -0.0237
17509SOL    HW154534  10.046   8.234   5.326 -0.1164  2.4025 -0.0123
17509SOL    HW254535  10.018   8.253   5.473 -0.7255  2.1656 -0.0955
17510SOL     OW54536   4.195   4.542   4.058 -0.0154  0.0164  0.6729
17510SOL    HW154537   4.275   4.520   4.011 -0.2591  0.0978  0.2105
17510SOL    HW254538   4.125   4.502   4.006 -0.2965  0.2021  0.9070
17511SOL     OW54539   6.129   0.764   2.861  0.0162  0.6854  0.0289
17511SOL    HW154540   6.062   0.757   2.794 -0.6366 -0.0095  0.7382
17511SOL    HW254541   6.109   0.845   2.907 -0.2024  0.5918  0.0974
17512SOL     OW54542   8.369   9.189   3.453  0.8357  0.1555 -0.0732
17512SOL    HW154543   8.356   9.284   3.456  1.7205  0.2770  0.1509
17512SOL    HW254544   8.445   9.177   3.397  1.4009 -0.3510  0.7904
17513SOL     OW54545   7.552   0.965   7.907 -0.3759  0.2707  0.5285
17513SOL    HW154546   7.496   1.043   7.902 -0.9086  0.1387  3.0439
17513SOL    HW254547   7.623   0.990   7.966  0.7612 -0.4485 -0.4847
17514SOL     OW54548   0.850   0.898   6.790  0.0384  0.0160  0.0225
17514SOL    HW154549   0.822   0.853   6.710 -0.5248 -0.6216  0.5651
17514SOL    HW254550   0.774   0.893   6.848  0.1280  1.2681  0.2753
17515SOL     OW54551   3.398   8.492   9.467 -0.0280  0.3528 -0.4643
17515SOL    HW154552   3.374   8.451   9.550  0.7657  1.0602  0.1258
17515SOL    HW254553   3.314   8.520   9.429 -0.2442  2.5214  1.4247
17516SOL     OW54554   2.684  10.551   2.544  0.7010 -0.1161 -0.2857
17516SOL    HW154555   2.754  10.616   2.544  1.6918 -1.1463  0.4021
17516SOL    HW254556   2.729  10.467   2.547 -0.5608 -0.8320 -0.7455
17517SOL     OW54557   9.918   5.670  11.023  0.7190  0.2008 -0.1084
17517SOL    HW154558   9.862   5.595  11.003  1.6563 -0.3868 -0.5881
17517SOL    HW254559   9.930   5.666  11.118  1.4991 -0.8116 -0.2279
17518SOL     OW54560   5.974   9.368  10.462  0.1304 -0.0273 -0.9366
17518SOL    HW154561   5.894   9.421  10.453  0.0392 -0.0788 -0.4482
17518SOL    HW254562   6.029   9.419  10.522 -0.3988 -0.9932  0.4128
17519SOL     OW54563   1.863   6.399  10.925  0.1436 -0.2371  0.4443
17519SOL    HW154564   1.832   6.373  11.012 -1.9127  0.2094 -0.1066
17519SOL    HW254565   1.796   6.458  10.892  1.1537  0.0342 -1.2447
17520SOL     OW54566   1.142   4.941   8.763  0.3596  0.2339 -0.4525
17520SOL    HW154567   1.236   4.960   8.767  0.4262 -0.3562  1.4818
17520SOL    HW254568   1.120   4.909   8.850 -1.8553  1.3028 -0.5588
17521SOL     OW54569  10.088   0.175   1.091 -0.5589 -0.2437 -0.0935
17521SOL    HW154570   9.993   0.165   1.101 -0.5762 -0.1272 -0.1391
17521SOL    HW254571  10.103   0.269   1.097 -0.3505 -0.3249  0.7511
17522SOL     OW54572   8.049   9.404   2.537  0.1406 -0.3016  0.0251
17522SOL    HW154573   7.970   9.457   2.547  1.1559  1.0731  1.2211
17522SOL    HW254574   8.017   9.316   2.518 -1.6310  0.5317 -1.1206
17523SOL     OW54575   7.873   4.341   3.977 -0.0736  0.2319  0.4816
17523SOL    HW154576   7.889   4.393   4.056  0.0008  0.1144  0.5436
17523SOL    HW254577   7.957   4.342   3.930 -0.2099  0.5811  0.2375
17524SOL     OW54578   1.795  10.923   4.108 -0.0513 -0.1058  0.5020
17524SOL    HW154579   1.824  10.863   4.040  0.2835 -0.1750  0.7017
17524SOL    HW254580   1.867  10.924   4.171 -0.0772  0.4631  0.5303
17525SOL     OW54581   9.699   2.261   1.929 -0.4920 -0.6649 -0.1552
17525SOL    HW154582   9.709   2.353   1.905 -2.7514 -0.8055 -1.8883
17525SOL    HW254583   9.717   2.259   2.023  0.1185  1.4250 -0.1701
17526SOL     OW54584   4.619   8.943   6.807  0.0736 -0.3922  0.3755
17526SOL    HW154585   4.599   8.952   6.900 -0.9467 -0.4141  0.1750
17526SOL    HW254586   4.565   8.869   6.779  2.3206 -2.1068  0.3033
17527SOL     OW54587  10.903   3.897   2.153 -0.1849 -1.1161 -0.4365
17527SOL    HW154588  10.872   3.978   2.195 -0.6052 -2.2262  1.4862
17527SOL    HW254589  10.992   3.918   2.124 -0.2365 -0.0079  0.1491
17528SOL     OW54590   1.338   3.953   2.069  0.4080  0.0650 -0.1576
17528SOL    HW154591   1.343   3.948   2.165  0.5193  0.5276 -0.1351
17528SOL    HW254592   1.339   3.862   2.040  2.3618 -0.0815  0.1956
17529SOL     OW54593   5.935   7.867   4.059  0.6266 -0.0305  0.0027
17529SOL    HW154594   6.029   7.861   4.076  0.1710  0.0919  3.0499
17529SOL    HW254595   5.895   7.811   4.125 -1.5433  1.3006 -0.0963
17530SOL     OW54596   3.389   5.599   0.657  0.6813  0.1954 -0.2629
17530SOL    HW154597   3.382   5.546   0.736  0.1537  1.4342  0.5438
17530SOL    HW254598   3.302   5.594   0.617  0.7024  0.2413 -0.3148
17531SOL     OW54599   3.099  10.545   3.468  0.1165  0.1469 -0.5674
17531SOL    HW154600   3.089  10.557   3.562 -0.5140  1.8532 -0.8033
17531SOL    HW254601   3.124  10.454   3.457  1.7855  0.3128  1.3572
17532SOL     OW54602   2.203  10.310   1.376  0.2274  0.2787 -0.2241
17532SOL    HW154603   2.218  10.216   1.364 -1.3196 -0.0758  0.2894
17532SOL    HW254604   2.159  10.338   1.296  0.8608  0.6289 -0.4609
17533SOL     OW54605   9.285   6.335   9.986  0.6840  0.2479  0.1424
17533SOL    HW154606   9.195   6.335   9.954  0.3384  2.1679  0.9846
17533SOL    HW254607   9.278   6.316  10.079  0.9154  2.3357  0.6311
17534SOL     OW54608  10.600   2.649   7.403 -0.1277 -0.2967 -0.2790
17534SOL    HW154609  10.612   2.583   7.471 -2.6345 -0.9942 -0.4109
17534SOL    HW254610  10.520   2.696   7.428  0.9027  1.9185 -0.8500
17535SOL     OW54611   1.864   9.437   0.006  0.2274 -0.1057  0.3529
17535SOL    HW154612   1.771   9.460   0.009  0.1608 -0.0096 -1.2814
17535SOL    HW254613   1.910   9.521   0.008  0.2946 -0.1522  1.1379
17536SOL     OW54614   4.774  10.638   0.786  0.3509  0.2364  0.4661
17536SOL    HW154615   4.768  10.712   0.726  0.2203  0.3606  0.6317
17536SOL    HW254616   4.769  10.677   0.874 -3.7629 -0.2316  0.6335
17537SOL     OW54617   5.464   2.982   4.982 -0.1717  0.6664  0.4975
17537SOL    HW154618   5.480   3.076   4.978  2.1277  0.4872  2.5456
17537SOL    HW254619   5.494   2.948   4.898 -0.5532  1.6826 -0.0628
17538SOL     OW54620   2.313   7.939   7.639  0.0731  0.1900  0.1266
17538SOL    HW154621   2.219   7.925   7.654 -0.1876  1.6772  0.0666
17538SOL    HW254622   2.355   7.862   7.676 -1.2366 -1.0672 -0.9152
17539SOL     OW54623   0.440   8.816   4.398 -0.3450 -0.0009 -0.2675
17539SOL    HW154624   0.389   8.885   4.355 -0.0055 -0.5735 -1.6236
17539SOL    HW254625   0.378   8.775   4.459 -1.7386 -1.0844 -2.3076
17540SOL     OW54626  10.258   7.784   6.873  0.1038 -0.2639  0.7740
17540SOL    HW154627  10.247   7.807   6.780  1.5899  1.0415  0.8632
17540SOL    HW254628  10.309   7.857   6.909 -0.8475 -0.5172  2.7503
17541SOL     OW54629   9.602   6.178   1.744  0.1059  0.1602  0.5569
17541SOL    HW154630   9.628   6.163   1.835 -0.5339 -0.5660  0.6349
17541SOL    HW254631   9.607   6.092   1.703  0.9155  0.5712 -0.2506
17542SOL     OW54632   6.958   5.251  10.935  0.2176 -0.0519  0.5573
17542SOL    HW154633   6.931   5.267  10.844  0.9949  0.0759  0.3338
17542SOL    HW254634   7.025   5.182  10.927  1.3594  0.9966  0.8700
17543SOL     OW54635   7.706   6.583   4.377 -0.4866  0.1004 -0.4126
17543SOL    HW154636   7.789   6.535   4.379 -0.5554  0.0056  0.0688
17543SOL    HW254637   7.703   6.631   4.459 -1.3463 -0.6305 -0.0051
17544SOL     OW54638   4.949   4.756  10.858  0.3008 -0.0090 -0.5845
17544SOL    HW154639   4.983   4.720  10.776  0.3647  0.0657 -0.5913
17544SOL    HW254640   4.859   4.723  10.863  0.6653 -0.9459 -0.1212
17545SOL     OW54641   4.079   8.992   6.140 -0.3647  0.1265  0.0542
17545SOL    HW154642   4.136   9.062   6.172 -1.8627  1.0817  0.7190
17545SOL    HW254643   4.072   8.932   6.213 -1.1477  0.6207  0.3923
17546SOL     OW54644   0.106  10.008   3.790 -0.1077  0.3233 -0.4789
17546SOL    HW154645   0.092  10.092   3.747  0.9582  1.5079  1.3517
17546SOL    HW254646   0.082  10.023   3.881  0.5755 -1.2245  0.0026
17547SOL     OW54647   1.215   1.095   3.622 -0.3702  0.5417 -0.2514
17547SOL    HW154648   1.218   1.190   3.633 -0.6481  0.5057  0.1481
17547SOL    HW254649   1.245   1.060   3.706 -0.4083  0.2738 -0.3489
17548SOL     OW54650  10.606  10.058   2.727 -0.0837 -0.0135 -0.3051
17548SOL    HW154651  10.613  10.151   2.748 -1.9748 -0.0470  0.6126
17548SOL    HW254652  10.563  10.056   2.642 -0.2444 -0.0567 -0.2225
17549SOL     OW54653   8.997   2.485  10.105 -0.0822 -0.1021 -0.3423
17549SOL    HW154654   8.970   2.500  10.015 -0.0904  0.8921 -0.1776
17549SOL    HW254655   8.917   2.461  10.151 -0.1623 -0.1221 -0.4936
17550SOL     OW54656   0.226   8.209   1.520  0.0383 -0.1337  0.2972
17550SOL    HW154657   0.151   8.234   1.573 -0.6402 -1.2018 -0.1276
17550SOL    HW254658   0.301   8.216   1.579 -0.2106  2.0126  0.4269
17551SOL     OW54659   9.409   6.634   3.409  0.0320 -0.3884  0.2111
17551SOL    HW154660   9.332   6.679   3.444 -0.1551 -0.3807 -0.1967
17551SOL    HW254661   9.373   6.558   3.363  0.2942 -0.5655  0.2945
17552SOL     OW54662   0.991   2.969   6.974  0.9536 -0.1807 -0.1171
17552SOL    HW154663   0.936   2.944   6.900  1.2899 -0.7866 -0.1725
17552SOL    HW254664   0.929   2.993   7.043  0.6377  0.3083 -0.5597
17553SOL     OW54665   5.037  10.147   3.061  0.9409 -0.2344 -0.2784
17553SOL    HW154666   5.104  10.209   3.089 -1.2289  2.0787  0.1137
17553SOL    HW254667   4.973  10.200   3.013 -1.5506 -1.9348  0.9239
17554SOL     OW54668   4.860   5.052   6.893 -0.3696 -0.0189  0.2563
17554SOL    HW154669   4.878   4.962   6.921 -1.6733 -0.9504 -1.6623
17554SOL    HW254670   4.812   5.090   6.966  0.5090 -0.7494  1.2472
17555SOL     OW54671   8.829   8.822   3.284  0.1627  0.2845  0.0680
17555SOL    HW154672   8.894   8.825   3.354 -0.2771  2.0955  0.4730
17555SOL    HW254673   8.764   8.758   3.313  0.3605  0.4901  0.9820
17556SOL     OW54674   8.493  10.522   5.486 -0.2451 -0.3524 -0.5207
17556SOL    HW154675   8.583  10.548   5.506 -0.3894  0.3166 -0.7392
17556SOL    HW254676   8.502  10.462   5.412  0.0272 -0.3464 -0.4944
17557SOL     OW54677   0.551   7.317   0.520 -0.1811  0.1027 -0.7633
17557SOL    HW154678   0.560   7.252   0.450  0.2825 -0.0716 -0.5487
17557SOL    HW254679   0.537   7.400   0.474 -1.4683 -0.2428 -1.0260
17558SOL     OW54680   0.006   4.702   2.873  0.7838  0.1055  0.4781
17558SOL    HW154681   0.084   4.717   2.821  0.8734  0.6307  0.7647
17558SOL    HW254682   0.038   4.681   2.961  0.6036  0.2796  0.5871
17559SOL     OW54683   6.304  10.244   3.905 -0.2746 -0.1607  0.1562
17559SOL    HW154684   6.392  10.268   3.876 -1.5123  1.8622 -2.2577
17559SOL    HW254685   6.287  10.160   3.864  0.3781 -0.3978  0.3574
17560SOL     OW54686  10.299   8.812   1.798 -0.4216  1.1595 -0.3110
17560SOL    HW154687  10.242   8.793   1.872  0.4878 -1.4283 -0.1988
17560SOL    HW254688  10.242   8.808   1.722 -0.6610 -0.0405 -0.0801
17561SOL     OW54689   8.080   3.246  10.436  0.1862  0.2707 -0.3107
17561SOL    HW154690   7.990   3.253  10.466  0.3632 -0.7279  0.4849
17561SOL    HW254691   8.074   3.252  10.340 -0.8417 -0.8691 -0.3348
17562SOL     OW54692  10.691   3.461   7.680  0.7264  0.2171  0.7255
17562SOL    HW154693  10.699   3.451   7.585  1.1320 -1.1953  0.8827
17562SOL    HW254694  10.602   3.492   7.694  0.3083 -0.5691 -0.0740
17563SOL     OW54695   1.575   2.118   8.141  0.0132 -0.3835  0.1160
17563SOL    HW154696   1.611   2.107   8.229  0.7761 -1.1447 -0.2734
17563SOL    HW254697   1.629   2.061   8.086  1.0582  1.7788 -1.2566
17564SOL     OW54698   3.846   7.797   7.636 -0.2462  0.0086 -0.2091
17564SOL    HW154699   3.845   7.772   7.544  1.3744  0.7333 -0.4519
17564SOL    HW254700   3.774   7.859   7.644 -0.7965 -0.5266 -0.8277
17565SOL     OW54701  10.951   4.654   0.745 -0.4214 -0.2663 -0.0034
17565SOL    HW154702  11.022   4.713   0.771 -0.3681  0.4322 -1.5858
17565SOL    HW254703  10.974   4.570   0.785 -0.1985  0.6165  1.8256
17566SOL     OW54704   9.574   3.059   1.726  0.1878  0.2741  0.3860
17566SOL    HW154705   9.644   2.994   1.733  1.1481  1.0701 -1.2037
17566SOL    HW254706   9.538   3.066   1.814  2.8705  0.6326  1.5473
17567SOL     OW54707   6.610   5.223   7.768  0.9288 -0.3313  0.6213
17567SOL    HW154708   6.599   5.317   7.761 -2.1479 -0.5580  0.9399
17567SOL    HW254709   6.664   5.211   7.847  2.1275  1.1281  0.0735
17568SOL     OW54710   9.524   0.513   8.087  0.3400 -0.0012  0.4587
17568SOL    HW154711   9.594   0.449   8.071 -0.2459 -0.1665 -1.7807
17568SOL    HW254712   9.567   0.598   8.082  0.7245 -0.1409  1.2032
17569SOL     OW54713   9.308   4.643   9.112 -0.2125 -0.8045 -0.0516
17569SOL    HW154714   9.250   4.588   9.163 -1.3334 -0.1763 -0.6167
17569SOL    HW254715   9.290   4.618   9.021 -1.3660  1.0579 -0.3697
17570SOL     OW54716   0.177   4.499   7.614  0.2281  0.2835  0.4416
17570SOL    HW154717   0.145   4.424   7.564 -0.1420  0.4490  0.4294
17570SOL    HW254718   0.127   4.498   7.695  0.6487  0.1645  0.7041
17571SOL     OW54719   4.089   4.800   4.996  0.3143  0.1848 -0.3321
17571SOL    HW154720   4.115   4.718   5.039  2.2053  0.6298 -0.5230
17571SOL    HW254721   4.142   4.867   5.038 -0.0351  1.0710 -1.2688
17572SOL     OW54722   3.969  10.847   8.559  0.0522 -0.2361  0.1316
17572SOL    HW154723   3.906  10.918   8.570  1.3927  0.9211  0.5326
17572SOL    HW254724   4.045  10.888   8.519  0.1770 -1.8250 -1.3725
17573SOL     OW54725   2.501   0.891   6.615  0.8174 -0.5688  0.2688
17573SOL    HW154726   2.412   0.924   6.602  0.8142 -0.4855  0.4943
17573SOL    HW254727   2.557   0.958   6.577  0.7703 -0.7870 -0.1876
17574SOL     OW54728   3.115   4.093   6.350 -0.2687  0.1718 -0.1776
17574SOL    HW154729   3.146   4.037   6.421  0.5845 -0.1321 -0.7681
17574SOL    HW254730   3.192   4.145   6.325 -1.1804  2.0842  0.7698
17575SOL     OW54731  10.607   6.530   3.066 -0.0352  0.6010 -0.5197
17575SOL    HW154732  10.612   6.625   3.051 -0.5918  0.4508 -1.8534
17575SOL    HW254733  10.513   6.511   3.062 -0.0288  0.1593  1.0160
17576SOL     OW54734   6.115   3.673   4.772  0.2034 -0.2650  0.3267
17576SOL    HW154735   6.188   3.644   4.717  0.7678  2.4627 -0.5443
17576SOL    HW254736   6.050   3.704   4.709 -0.2931  0.4062  1.1588
17577SOL     OW54737   8.709   0.982   7.942  0.5486  0.0921  0.1301
17577SOL    HW154738   8.704   1.007   8.034  0.2598 -0.7739  0.3535
17577SOL    HW254739   8.786   0.925   7.936  0.6931  0.3166 -0.2076
17578SOL     OW54740   3.594   5.139   8.392 -0.1604 -0.6503 -0.0586
17578SOL    HW154741   3.638   5.054   8.399 -1.0301 -1.0562  0.7439
17578SOL    HW254742   3.515   5.129   8.446 -0.2036  0.7180  0.1538
17579SOL     OW54743   9.950  10.503   3.233  0.2038 -0.5419  0.5754
17579SOL    HW154744   9.912  10.495   3.146  0.1445 -0.3602  0.5832
17579SOL    HW254745   9.877  10.486   3.293 -0.4154  1.8765  0.6186
17580SOL     OW54746   1.943   9.690   2.678  0.5953  0.2508  0.0790
17580SOL    HW154747   1.860   9.670   2.635  1.0988  0.1144 -0.8507
17580SOL    HW254748   2.000   9.616   2.657  1.0943  0.5543  0.3324
17581SOL     OW54749   7.093   5.714   8.065  0.2469 -0.0482  0.3288
17581SOL    HW154750   7.178   5.690   8.027  0.5193 -0.2639  1.0526
17581SOL    HW254751   7.086   5.808   8.050 -0.0845 -0.2731 -1.0807
17582SOL     OW54752   2.742   6.797   5.670  0.2664 -0.2721 -0.1058
17582SOL    HW154753   2.836   6.794   5.690  0.1120  1.8338  1.2804
17582SOL    HW254754   2.719   6.706   5.651  2.7310 -0.7399 -1.3174
17583SOL     OW54755   0.050   2.679   7.647 -0.1019  0.9342  0.6698
17583SOL    HW154756   0.040   2.675   7.552 -0.5877 -0.4138  0.7465
17583SOL    HW254757   0.134   2.723   7.660  1.3765 -1.2745 -0.5079
17584SOL     OW54758   7.062   6.782   4.467 -0.4675 -0.1644  0.5998
17584SOL    HW154759   7.043   6.874   4.452  0.3988  0.1232  1.2443
17584SOL    HW254760   7.131   6.761   4.405 -0.6344 -0.3789  0.4827
17585SOL     OW54761   8.869   7.069   3.477  0.1522  0.3145  0.6349
17585SOL    HW154762   8.954   7.076   3.434 -1.1906  1.0908 -2.1049
17585SOL    HW254763   8.844   7.160   3.495 -1.2412  0.3156 -1.1067
17586SOL     OW54764   8.449   2.920   1.052  0.0399 -0.3418 -0.3955
17586SOL    HW154765   8.414   2.918   1.141 -0.2450  1.3592 -0.4369
17586SOL    HW254766   8.420   3.004   1.016  1.4605 -0.3005 -1.5494
17587SOL     OW54767   8.495   2.508   3.681  0.2566 -0.0262  0.5593
17587SOL    HW154768   8.509   2.418   3.708 -0.3086 -0.3845 -0.2682
17587SOL    HW254769   8.420   2.538   3.732 -1.8833 -1.2435 -1.6246
17588SOL     OW54770   2.216   1.520   6.200  0.6787  0.5293 -0.2420
17588SOL    HW154771   2.206   1.608   6.163 -0.3376 -0.4418 -2.5329
17588SOL    HW254772   2.299   1.489   6.165  0.5251  0.2056 -0.3220
17589SOL     OW54773   5.914   7.036   8.481  0.6982  0.2728 -0.7874
17589SOL    HW154774   5.883   7.004   8.396 -2.6986 -2.5324  1.2605
17589SOL    HW254775   5.860   7.113   8.498  1.4847  0.9248 -1.1855
17590SOL     OW54776   4.322   3.627   2.562  0.5350 -0.7475  0.0947
17590SOL    HW154777   4.383   3.590   2.625 -1.1558 -1.3331  1.4466
17590SOL    HW254778   4.299   3.554   2.505 -0.9330 -1.2612  1.2703
17591SOL     OW54779   1.597   7.850   6.967  0.4443  0.0112  0.0432
17591SOL    HW154780   1.621   7.837   6.875  0.1890  0.6331 -0.1161
17591SOL    HW254781   1.565   7.764   6.995 -0.0626 -0.0270 -0.6238
17592SOL     OW54782   7.701  10.387   8.390 -0.3889  0.1332 -0.2917
17592SOL    HW154783   7.730  10.435   8.313  0.3619  0.8828  0.4491
17592SOL    HW254784   7.612  10.359   8.368  0.0140 -0.1862 -1.6575
17593SOL     OW54785   9.005   0.434   6.330 -0.3089  0.1035  0.1718
17593SOL    HW154786   8.910   0.424   6.336 -0.2519  0.1953  1.5495
17593SOL    HW254787   9.019   0.529   6.325 -0.2147  0.2366  2.2977
17594SOL     OW54788  10.261   8.658   1.150 -0.1917 -0.7464 -0.0436
17594SOL    HW154789  10.332   8.632   1.209 -0.8779 -1.9224  0.2765
17594SOL    HW254790  10.182   8.652   1.203 -0.5069  1.1963 -0.2022
17595SOL     OW54791   5.441   2.730   1.442 -0.4265  0.5597 -0.5508
17595SOL    HW154792   5.471   2.734   1.532 -1.5343 -0.2259 -0.1285
17595SOL    HW254793   5.393   2.647   1.436 -0.0578  0.4190 -1.9585
17596SOL     OW54794   3.000   6.416  10.316  0.3376 -0.4147  0.2015
17596SOL    HW154795   2.969   6.330  10.343  1.0664 -0.5081  0.7625
17596SOL    HW254796   3.061   6.443  10.385  1.5150 -0.2462 -0.8545
17597SOL     OW54797   4.299   8.874   4.706 -0.0466  0.3041 -0.1259
17597SOL    HW154798   4.360   8.947   4.714  0.1563  0.1136  0.0481
17597SOL    HW254799   4.298   8.833   4.793 -1.1322  0.8735  0.1593
17598SOL     OW54800   5.772   3.699   5.934  0.2124  0.1158  0.3329
17598SOL    HW154801   5.703   3.667   5.992  1.4475 -2.3574  0.5255
17598SOL    HW254802   5.773   3.794   5.950 -3.5265  0.4050 -0.1689
17599SOL     OW54803   2.315   1.819   9.149  0.7403  0.2705  0.3265
17599SOL    HW154804   2.308   1.906   9.108 -0.5807  1.1437  2.2524
17599SOL    HW254805   2.373   1.770   9.091  0.6576  2.0895 -1.4061
17600SOL     OW54806   8.900   5.784  10.453  0.1770 -0.4411  0.0691
17600SOL    HW154807   8.965   5.788  10.523 -0.7719  0.7018  0.9285
17600SOL    HW254808   8.870   5.693  10.454  1.5816 -0.9338 -0.2107
17601SOL     OW54809   6.585   8.101   9.060 -0.4583 -0.0489  0.4959
17601SOL    HW154810   6.533   8.156   9.120 -2.6380 -1.1820 -0.2327
17601SOL    HW254811   6.555   8.126   8.973  1.2756  0.2098 -0.0667
17602SOL     OW54812  10.252   4.698   9.954 -0.4517 -0.6319 -0.3248
17602SOL    HW154813  10.299   4.703   9.871 -2.0526  0.4423 -1.2264
17602SOL    HW254814  10.250   4.788   9.986 -0.9644 -0.8296  0.2195
17603SOL     OW54815   5.662   8.113   6.460 -0.1992 -0.4648  0.7742
17603SOL    HW154816   5.692   8.025   6.485  0.0469 -0.9435 -1.0694
17603SOL    HW254817   5.742   8.160   6.438 -0.3314  0.2516  1.7765
17604SOL     OW54818   8.141   7.206   2.143  0.4304  0.0521  0.3776
17604SOL    HW154819   8.144   7.113   2.167 -0.0045 -0.1353 -0.2767
17604SOL    HW254820   8.183   7.251   2.216  0.7198 -0.6691  0.6614
17605SOL     OW54821   0.370   7.060   0.266  0.3860  0.4210  0.1389
17605SOL    HW154822   0.283   7.043   0.232  0.7715 -1.1583 -0.1265
17605SOL    HW254823   0.404   7.130   0.211 -0.5237  0.7031 -0.0761
17606SOL     OW54824   4.776   6.973   0.695  0.0897 -0.3760 -0.3398
17606SOL    HW154825   4.747   6.973   0.604  0.6116  1.3917 -0.5385
17606SOL    HW254826   4.845   6.907   0.699 -1.4487 -2.0848 -0.6718
17607SOL     OW54827   3.171   1.893   4.724 -0.1408 -0.0302  0.1932
17607SOL    HW154828   3.076   1.901   4.721 -0.0608  0.9028 -0.2778
17607SOL    HW254829   3.189   1.849   4.807 -0.9398  0.4792  0.6553
17608SOL     OW54830   3.099   9.266   1.718 -0.5477  0.2021 -0.4202
17608SOL    HW154831   3.022   9.323   1.723  1.0521  2.4396  0.5298
17608SOL    HW254832   3.146   9.297   1.640 -0.0009 -0.2754 -0.2870
17609SOL     OW54833   4.547   9.315   1.543 -0.0631 -0.3634  0.5875
17609SOL    HW154834   4.528   9.390   1.600 -0.7842  1.3873 -1.8055
17609SOL    HW254835   4.619   9.345   1.487 -0.2815 -1.5027 -0.3381
17610SOL     OW54836   6.994   9.362   9.364  1.1890 -0.0751  0.8103
17610SOL    HW154837   6.919   9.420   9.380  2.0102  1.5861 -1.0134
17610SOL    HW254838   7.005   9.314   9.446 -2.1811 -0.7933  1.0007
17611SOL     OW54839   9.159  10.552   7.208  0.2797  0.2739 -0.1471
17611SOL    HW154840   9.068  10.554   7.238 -0.2990  0.4859 -1.8021
17611SOL    HW254841   9.188  10.462   7.221 -1.1769 -0.5801 -2.3336
17612SOL     OW54842   1.145   3.610   1.480 -0.1350 -0.4828  0.7773
17612SOL    HW154843   1.109   3.684   1.529  1.0777 -0.0047  0.9837
17612SOL    HW254844   1.227   3.642   1.445 -0.2986 -1.2808 -0.3954
17613SOL     OW54845   1.118   4.171   1.274  0.1467 -0.1462 -0.3454
17613SOL    HW154846   1.082   4.245   1.226  0.1252  0.7510  0.9890
17613SOL    HW254847   1.106   4.194   1.366 -1.3290 -2.5337  0.1352
17614SOL     OW54848   6.124   3.481   6.839  0.2478  0.2668 -0.2824
17614SOL    HW154849   6.092   3.570   6.827  0.3751  0.2329 -0.9088
17614SOL    HW254850   6.073   3.446   6.912  0.7031  1.0960  0.4538
17615SOL     OW54851   2.312   9.922   4.762  0.0198  0.2568 -1.1802
17615SOL    HW154852   2.298  10.011   4.795 -0.3095  0.5408 -2.0632
17615SOL    HW254853   2.246   9.869   4.806  0.7898  0.2647  0.0368
17616SOL     OW54854   7.018   7.420   3.623 -0.1188  0.3793 -0.7869
17616SOL    HW154855   7.016   7.515   3.630  1.1676  0.3307  1.2089
17616SOL    HW254856   7.089   7.401   3.562  0.0784  0.7134 -0.6658
17617SOL     OW54857   3.529   1.754   8.052  0.0725  0.4454  0.2485
17617SOL    HW154858   3.607   1.753   8.107  0.1524 -0.3976  0.1265
17617SOL    HW254859   3.553   1.810   7.978  0.8595 -0.4605 -0.2010
17618SOL     OW54860   3.211   5.550   9.094 -0.1343  0.2827  0.4311
17618SOL    HW154861   3.218   5.503   9.177  0.8655 -0.0145  0.1999
17618SOL    HW254862   3.117   5.559   9.078 -0.3465 -1.4512  0.5756
17619SOL     OW54863   0.316   2.613   5.383 -0.0865  0.2535  0.6224
17619SOL    HW154864   0.248   2.569   5.332  0.7575 -0.3068 -0.0596
17619SOL    HW254865   0.325   2.699   5.343  0.8615 -0.3306 -0.4911
17620SOL     OW54866   9.409   5.457   0.718 -0.4647 -0.1567  0.3925
17620SOL    HW154867   9.376   5.380   0.672 -0.4780  0.3871 -0.5450
17620SOL    HW254868   9.435   5.517   0.648  1.4531 -0.1037  1.0764
17621SOL     OW54869   4.473   8.879   5.429 -0.1873 -0.1005  0.2672
17621SOL    HW154870   4.447   8.912   5.515 -0.1281  0.0631  0.2225
17621SOL    HW254871   4.569   8.886   5.428 -0.1109 -1.0041  0.5527
17622SOL     OW54872   8.967   5.522   5.764 -0.0931 -0.0870 -0.1930
17622SOL    HW154873   8.970   5.442   5.816  0.0099 -0.1883 -0.3560
17622SOL    HW254874   8.903   5.578   5.810 -0.5270 -0.4477 -0.3501
17623SOL     OW54875   7.031   2.641   6.724 -0.2270 -0.3468 -0.5130
17623SOL    HW154876   7.023   2.618   6.631  0.2150 -1.0266 -0.3951
17623SOL    HW254877   7.026   2.736   6.726  1.8034 -0.1585 -1.4701
17624SOL     OW54878   2.126   8.851   4.905  0.5143 -0.1319  0.6414
17624SOL    HW154879   2.080   8.869   4.824 -0.5257 -0.3652  1.1631
17624SOL    HW254880   2.057   8.831   4.968  1.3986 -2.2165  1.0176
17625SOL     OW54881   4.807   1.113   4.380 -0.0413  0.4155 -0.6282
17625SOL    HW154882   4.770   1.078   4.299 -1.4860 -0.4700  0.3588
17625SOL    HW254883   4.741   1.093   4.447  0.1035  2.9896  0.4312
17626SOL     OW54884   7.985   1.385  10.489 -0.3694  0.3759 -0.2191
17626SOL    HW154885   8.003   1.308  10.543 -1.4930  0.5084  0.3760
17626SOL    HW254886   8.046   1.377  10.415  0.4065 -0.4059  0.4843
17627SOL     OW54887   5.264   0.685   8.425  0.0854 -0.1454 -0.1770
17627SOL    HW154888   5.219   0.646   8.500  2.4768  0.6014  1.7838
17627SOL    HW254889   5.331   0.621   8.401  1.4733  1.0001  0.5139
17628SOL     OW54890   2.750   8.496   1.582  0.0539 -0.2861  0.3111
17628SOL    HW154891   2.742   8.571   1.640  1.3295  0.1227 -0.0072
17628SOL    HW254892   2.661   8.461   1.575 -0.5061  0.9932  0.7265
17629SOL     OW54893   0.533  10.824   0.877  0.3152  0.1973 -0.4286
17629SOL    HW154894   0.622  10.851   0.900 -0.5874  0.9600  2.7428
17629SOL    HW254895   0.514  10.868   0.795  2.2294  1.5610 -0.2051
17630SOL     OW54896   9.337   5.029   0.798 -0.7944  0.4155  0.2284
17630SOL    HW154897   9.267   5.095   0.799  0.5383  1.9081 -0.0524
17630SOL    HW254898   9.346   5.003   0.890 -0.7701  1.3000  0.4944
17631SOL     OW54899   7.023   7.325   8.774  0.1131  0.0694  0.4189
17631SOL    HW154900   6.949   7.336   8.714  1.7000 -1.8484 -2.0756
17631SOL    HW254901   6.987   7.277   8.848 -1.4825  0.6379  0.0571
17632SOL     OW54902   8.445   6.397   2.820  0.4119  0.0391 -0.2747
17632SOL    HW154903   8.448   6.354   2.905  1.8875  0.1819 -0.2422
17632SOL    HW254904   8.526   6.447   2.815 -0.9271  2.3055 -0.5902
17633SOL     OW54905   6.614   4.111   4.491  0.1689  0.2741  0.6027
17633SOL    HW154906   6.537   4.114   4.547 -0.7295 -0.7944 -0.5381
17633SOL    HW254907   6.661   4.032   4.518  0.0632  0.0963  0.2657
17634SOL     OW54908   5.165   7.411   8.509 -0.4110  0.1719  0.0810
17634SOL    HW154909   5.255   7.443   8.496 -0.4660  1.5496  2.4955
17634SOL    HW254910   5.114   7.490   8.527 -2.4151 -0.4506 -2.2952
17635SOL     OW54911   4.712   0.624   4.625 -0.5170  0.5150  0.4165
17635SOL    HW154912   4.638   0.585   4.578 -0.5201  0.8960  0.0982
17635SOL    HW254913   4.781   0.557   4.620 -0.1911  0.9253 -0.9833
17636SOL     OW54914   9.752   7.736   2.470  0.3758 -0.5384  0.3123
17636SOL    HW154915   9.779   7.781   2.390 -0.7188 -2.5530 -1.2984
17636SOL    HW254916   9.823   7.673   2.487 -0.4324 -1.6963 -0.4563
17637SOL     OW54917   5.064   3.538   3.209 -0.0948 -0.4095 -0.1836
17637SOL    HW154918   5.083   3.505   3.297 -1.0065  2.4232  1.1864
17637SOL    HW254919   5.126   3.610   3.197 -2.2717  1.5644 -0.3115
17638SOL     OW54920  10.748   9.738   9.097  0.0169 -0.1652 -0.0067
17638SOL    HW154921  10.769   9.709   9.186 -0.3615 -0.9690 -0.1760
17638SOL    HW254922  10.696   9.817   9.109  0.9662  0.4139  0.4600
17639SOL     OW54923   4.064   0.418   0.680 -0.1368 -0.0899  0.3871
17639SOL    HW154924   4.013   0.370   0.614 -1.1751 -1.8402  2.3241
17639SOL    HW254925   4.142   0.363   0.693 -0.3991 -0.2541  1.2734
17640SOL     OW54926   0.906   6.874   2.927 -0.0010 -0.1729 -0.0647
17640SOL    HW154927   0.889   6.872   2.833  0.4728  1.3518 -0.2105
17640SOL    HW254928   0.819   6.871   2.967 -0.2431  0.0012 -0.5730
17641SOL     OW54929   3.004  10.954   3.947 -0.0119 -0.3972  0.0114
17641SOL    HW154930   3.079  10.964   4.004 -0.8259 -3.8989  1.9812
17641SOL    HW254931   2.928  10.951   4.006 -1.4666  0.4623 -1.6880
17642SOL     OW54932   2.153   5.174   3.357 -0.0937  0.6115  0.9421
17642SOL    HW154933   2.238   5.132   3.366 -1.3784 -2.1297  1.3866
17642SOL    HW254934   2.144   5.226   3.437  1.5315  1.7998  0.4073
17643SOL     OW54935  10.860   8.023   3.909 -0.0140  0.4418  0.1514
17643SOL    HW154936  10.774   8.013   3.867 -0.4946 -1.2982  1.4358
17643SOL    HW254937  10.920   7.980   3.848 -0.1846  0.8721 -0.3287
17644SOL     OW54938   1.865   0.609   3.041  0.0030  0.1107 -0.5692
17644SOL    HW154939   1.896   0.700   3.042  1.0734 -0.2243 -1.3654
17644SOL    HW254940   1.925   0.563   3.100 -0.7876 -0.0105  0.1482
17645SOL     OW54941   7.843   9.943   2.582  0.1543  0.1888 -0.4148
17645SOL    HW154942   7.803   9.858   2.601 -0.9562  0.9565  0.8535
17645SOL    HW254943   7.797   9.974   2.504 -0.6502  0.3661  0.1201
17646SOL     OW54944   3.924   2.418   5.445 -0.4629  0.3661  0.0073
17646SOL    HW154945   3.965   2.418   5.359  0.9794 -1.2686  0.6246
17646SOL    HW254946   3.968   2.489   5.493 -0.0044  0.1353 -0.0676
17647SOL     OW54947   6.287   0.155  10.653  0.6479  0.1406  0.0720
17647SOL    HW154948   6.374   0.166  10.692  1.0701 -1.0423 -0.5079
17647SOL    HW254949   6.233   0.122  10.725  0.1711  2.5996  0.9463
17648SOL     OW54950   0.444   6.272   5.212 -0.4677  0.0857 -0.3808
17648SOL    HW154951   0.454   6.177   5.214 -1.5199 -0.0855 -1.6725
17648SOL    HW254952   0.409   6.291   5.124 -0.6893  1.6244  0.0005
17649SOL     OW54953   7.360   2.159  10.143  0.1401  0.4324 -0.2764
17649SOL    HW154954   7.448   2.125  10.159 -0.6480 -1.0345  1.3869
17649SOL    HW254955   7.311   2.084  10.109 -0.9125  0.7090  0.5728
17650SOL     OW54956   8.259   4.461   1.639  0.2469  0.2513 -0.4720
17650SOL    HW154957   8.303   4.517   1.575  2.7277 -1.6837 -0.5878
17650SOL    HW254958   8.319   4.456   1.713 -0.7112 -0.8507  0.2642
17651SOL     OW54959   4.404   4.684   0.871  0.1600 -0.0039 -0.0161
17651SOL    HW154960   4.353   4.709   0.794  0.4447 -2.8155 -1.2590
17651SOL    HW254961   4.462   4.614   0.839  1.0767 -0.5013  2.5189
17652SOL     OW54962   1.801   8.905   7.440  0.5001  0.5589 -0.1240
17652SOL    HW154963   1.794   8.969   7.510 -0.1692 -0.1992  0.5166
17652SOL    HW254964   1.874   8.849   7.466 -0.0105  0.0271  0.1813
17653SOL     OW54965   9.253  10.185   5.385  0.4406 -0.5150  0.4354
17653SOL    HW154966   9.177  10.169   5.442  0.4187 -2.4196 -0.0748
17653SOL    HW254967   9.214  10.207   5.300  0.4446 -0.9781  0.3095
17654SOL     OW54968   0.424   0.358   7.707 -0.1156  0.7265  0.5471
17654SOL    HW154969   0.352   0.299   7.687  1.5857 -0.7927 -1.5668
17654SOL    HW254970   0.395   0.443   7.673 -0.8358  0.0997 -0.4690
17655SOL     OW54971   0.629   5.336   1.725  0.0790 -0.7377 -0.2425
17655SOL    HW154972   0.538   5.313   1.744 -0.4529  2.4452  1.9044
17655SOL    HW254973   0.622   5.411   1.664  1.1703  0.1411  0.6643
17656SOL     OW54974   1.628   2.833  10.733  0.1289 -0.4517  0.6546
17656SOL    HW154975   1.623   2.741  10.756  1.8847 -0.0065  3.3175
17656SOL    HW254976   1.635   2.878  10.817 -0.0771  2.0809 -0.5797
17657SOL     OW54977  10.513  10.707  10.392 -0.5206 -0.4199  0.3853
17657SOL    HW154978  10.566  10.642  10.347 -1.3085 -0.7710 -0.0682
17657SOL    HW254979  10.462  10.749  10.322 -0.1820  0.5367  0.6982
17658SOL     OW54980   7.381  10.975  10.696  0.0343 -0.3138  0.7195
17658SOL    HW154981   7.319  10.914  10.735  0.9709 -2.1519 -0.4963
17658SOL    HW254982   7.381  10.952  10.603  1.1336  0.9246  0.3842
17659SOL     OW54983   1.575  10.436   2.408  0.2823 -0.0344  0.2898
17659SOL    HW154984   1.498  10.451   2.354  0.5317  2.4069  0.4957
17659SOL    HW254985   1.559  10.488   2.487  1.4518 -0.7489  1.0247
17660SOL     OW54986   6.660   5.292   5.657 -0.2257  0.1243  0.1792
17660SOL    HW154987   6.738   5.347   5.651  0.1678 -0.2512  1.5541
17660SOL    HW254988   6.614   5.307   5.574  0.5549  1.4668 -0.0471
17661SOL     OW54989   5.908   9.799   2.446  0.0411  0.0098 -0.0542
17661SOL    HW154990   5.983   9.818   2.502 -0.6005  1.5278  0.3475
17661SOL    HW254991   5.841   9.766   2.505 -0.3776  0.8835 -0.0218
17662SOL     OW54992   2.553   2.693   3.284 -0.0053 -0.5598 -0.2351
17662SOL    HW154993   2.577   2.748   3.210 -0.4921  1.7304  1.2138
17662SOL    HW254994   2.630   2.693   3.341  0.0949 -1.6599 -0.3394
17663SOL     OW54995   8.340   5.461  11.007 -0.5882 -0.3120  0.5633
17663SOL    HW154996   8.385   5.378  10.990 -0.3706 -0.5609  2.2341
17663SOL    HW254997   8.251   5.448  10.974 -0.5882 -1.2506  0.9210
17664SOL     OW54998   3.656   9.147   0.373  0.5338 -0.5372 -0.6513
17664SOL    HW154999   3.584   9.192   0.418  1.5764  1.1129 -0.5600
17664SOL    HW255000   3.629   9.055   0.371 -0.6774 -0.2757  1.1485
17665SOL     OW55001  10.716   2.903   2.889  0.4392 -0.3411  0.0288
17665SOL    HW155002  10.790   2.959   2.865  0.0326  1.4479  2.5121
17665SOL    HW255003  10.754   2.816   2.901  2.0194  0.3620  0.4246
17666SOL     OW55004   7.842   6.429   0.978  0.1138 -0.0502 -0.2331
17666SOL    HW155005   7.773   6.449   1.041  0.7841 -0.1318  0.5531
17666SOL    HW255006   7.873   6.515   0.949  1.7361  0.1286  1.7451
17667SOL     OW55007   3.222   0.650   7.101 -0.1586 -0.6366 -0.0812
17667SOL    HW155008   3.303   0.701   7.109 -0.3114 -0.3839 -0.1243
17667SOL    HW255009   3.251   0.563   7.074  0.0417 -0.3322 -0.8729
17668SOL     OW55010   4.555   1.134   4.530  0.4954 -0.1500  0.2623
17668SOL    HW155011   4.531   1.198   4.597 -0.3146 -1.1534  0.9622
17668SOL    HW255012   4.578   1.055   4.579 -1.4441 -1.3465 -0.6113
17669SOL     OW55013   7.116   8.101   5.911  0.0979 -0.5405 -0.2949
17669SOL    HW155014   7.070   8.122   5.831 -0.0591  0.2447 -0.0020
17669SOL    HW255015   7.106   8.006   5.920 -2.2910 -0.3157  0.2477
17670SOL     OW55016   0.211   7.860   6.702 -0.2260  0.6267 -0.4311
17670SOL    HW155017   0.184   7.929   6.763 -0.3747  0.1500  0.0496
17670SOL    HW255018   0.179   7.890   6.617 -1.9199  0.2980  0.0498
17671SOL     OW55019   7.828   6.047   4.245  0.0606 -0.3271 -0.3870
17671SOL    HW155020   7.795   6.042   4.155 -0.7166 -0.6579 -0.0972
17671SOL    HW255021   7.791   5.970   4.288  1.1268 -0.6371 -0.0009
17672SOL     OW55022   2.359   6.485   3.566  0.0697  0.0692 -0.5219
17672SOL    HW155023   2.342   6.547   3.637 -2.1053  2.0339 -2.6109
17672SOL    HW255024   2.434   6.521   3.520  0.2507 -0.1440 -0.3990
17673SOL     OW55025   3.672  10.910   0.893 -0.0844 -0.3102  0.3132
17673SOL    HW155026   3.753  10.858   0.897  0.9687  1.3523  2.3836
17673SOL    HW255027   3.681  10.975   0.962 -1.9946  1.7242 -1.1878
17674SOL     OW55028   7.881   5.025   8.883  0.0151  0.6246  0.2109
17674SOL    HW155029   7.796   5.034   8.840 -0.5015  0.4445  1.1704
17674SOL    HW255030   7.918   5.113   8.884  0.8260  0.3778 -2.1296
17675SOL     OW55031  10.518   5.067   5.767 -0.1579  0.0701  0.4155
17675SOL    HW155032  10.437   5.091   5.722  1.5235  0.0487 -2.9210
17675SOL    HW255033  10.535   4.976   5.741  1.1208  0.1876  0.7462
17676SOL     OW55034   8.689  10.154  10.423  0.5026  0.1333  0.4894
17676SOL    HW155035   8.752  10.090  10.390 -1.4665 -1.5463 -0.2535
17676SOL    HW255036   8.633  10.174  10.347 -2.4590 -1.7310  1.9885
17677SOL     OW55037  10.249  10.004   6.321 -0.1302  0.3117 -0.2873
17677SOL    HW155038  10.301   9.973   6.396  2.1034 -2.5244 -2.7680
17677SOL    HW255039  10.293  10.084   6.293 -1.0082  1.4229  1.3563
17678SOL     OW55040   8.721   9.554   0.145  0.2232  0.1632  0.2864
17678SOL    HW155041   8.647   9.512   0.101 -1.2820  1.7585  1.1682
17678SOL    HW255042   8.742   9.495   0.217  0.4444 -0.7707 -0.5307
17679SOL     OW55043   4.259   4.586  10.590  0.9428 -0.3572  0.1142
17679SOL    HW155044   4.225   4.516  10.646  1.6171 -0.4121  0.4644
17679SOL    HW255045   4.289   4.653  10.652  0.4460  0.1820 -0.2144
17680SOL     OW55046   3.233   1.744   9.317  0.2574 -0.4984 -0.4595
17680SOL    HW155047   3.234   1.768   9.224 -0.7151  0.4217 -0.2630
17680SOL    HW255048   3.294   1.805   9.358  0.7334 -0.9457 -0.4981
17681SOL     OW55049   9.596   5.303   4.913 -0.5679  0.0630 -0.2552
17681SOL    HW155050   9.596   5.215   4.951 -0.3346  0.2713  0.2381
17681SOL    HW255051   9.554   5.358   4.980  1.6933  0.8133  0.6509
17682SOL     OW55052   6.210  10.590  10.091  0.5579  0.1393  0.0724
17682SOL    HW155053   6.192  10.673  10.135 -0.4316 -0.0224  0.0031
17682SOL    HW255054   6.284  10.609  10.033  1.1344  0.6455  0.9538
17683SOL     OW55055   6.935   4.139   1.792  0.1980 -0.1877  0.0426
17683SOL    HW155056   6.870   4.071   1.777 -0.2738  0.3441 -0.4086
17683SOL    HW255057   6.992   4.134   1.715 -1.2433  1.4537 -1.2378
17684SOL     OW55058   7.816   3.978   7.546 -0.0134  0.1495  0.1880
17684SOL    HW155059   7.795   4.057   7.496 -0.4030 -0.0296  0.0684
17684SOL    HW255060   7.902   3.952   7.514  0.9872  1.5773  1.5367
17685SOL     OW55061   7.046   8.779   3.151  0.2040  0.0142 -0.2200
17685SOL    HW155062   7.119   8.761   3.092  0.1413 -0.0281 -0.2858
17685SOL    HW255063   7.011   8.863   3.121  1.5990  1.1353  1.2028
17686SOL     OW55064   0.529   8.940   4.989  0.1738 -0.8205  0.1720
17686SOL    HW155065   0.602   8.888   4.953 -0.3843 -1.4748 -0.0354
17686SOL    HW255066   0.543   8.938   5.083  0.1843 -1.3204  0.1661
17687SOL     OW55067   4.473   1.097   8.087 -0.2145  0.3142  0.0036
17687SOL    HW155068   4.500   1.179   8.046 -3.2469  1.2773 -0.3736
17687SOL    HW255069   4.451   1.040   8.013  0.6303 -0.3940  0.2821
17688SOL     OW55070   9.740   4.016   7.865 -0.1188 -0.0676 -0.0958
17688SOL    HW155071   9.674   3.950   7.843  1.6997 -1.5033 -1.5131
17688SOL    HW255072   9.736   4.079   7.793 -0.4421  0.2867  0.2225
17689SOL     OW55073   2.557   9.862   3.375  0.1519  0.1696 -0.3804
17689SOL    HW155074   2.536   9.838   3.465 -1.3024 -0.2257 -0.8069
17689SOL    HW255075   2.507   9.941   3.359 -1.9901 -1.3388 -1.7332
17690SOL     OW55076  10.463   8.573   3.406  0.0043  0.1987  0.2920
17690SOL    HW155077  10.526   8.502   3.390 -1.7060 -1.0636 -1.4012
17690SOL    HW255078  10.466   8.626   3.327 -2.9810 -1.5540 -1.1724
17691SOL     OW55079  10.233   6.473   4.491 -0.0381  0.2403 -0.6638
17691SOL    HW155080  10.288   6.448   4.416  1.4209  1.6160 -0.1100
17691SOL    HW255081  10.276   6.433   4.567 -0.7472 -0.0292 -0.3986
17692SOL     OW55082  10.671   6.640   5.268  0.1887 -0.1377  0.1670
17692SOL    HW155083  10.760   6.674   5.259  0.2108  0.2275  1.6525
17692SOL    HW255084  10.671   6.594   5.351 -1.4319  1.1715  0.9454
17693SOL     OW55085   1.202   6.409   8.927  0.3123 -0.4586  0.6248
17693SOL    HW155086   1.132   6.425   8.991  0.6114 -1.0393  1.0989
17693SOL    HW255087   1.230   6.497   8.902  0.0702 -0.2189  1.1567
17694SOL     OW55088   4.535   4.138   9.274  0.3948 -0.8883  0.2942
17694SOL    HW155089   4.548   4.077   9.202  0.7479 -0.7770  0.2603
17694SOL    HW255090   4.536   4.084   9.352  2.4817 -0.7502  0.4122
17695SOL     OW55091   2.215   0.139   5.861  0.2907  0.4323 -0.0190
17695SOL    HW155092   2.273   0.213   5.840  1.1434  0.5414  2.4425
17695SOL    HW255093   2.231   0.077   5.790  0.2424  2.1895 -1.6604
17696SOL     OW55094   0.503   7.773   7.073  1.1376 -0.2009 -0.1581
17696SOL    HW155095   0.501   7.837   7.143  0.1297  0.9872 -1.2248
17696SOL    HW255096   0.415   7.736   7.071  1.1151 -0.1262 -0.8767
17697SOL     OW55097   7.081   8.268   3.298  0.0577 -0.8374 -0.1134
17697SOL    HW155098   6.995   8.291   3.334  0.1976 -0.5980  0.0659
17697SOL    HW255099   7.121   8.351   3.274  0.7820 -0.8311  1.0420
17698SOL     OW55100   2.316   0.695   0.409  0.0073 -0.2176  0.8738
17698SOL    HW155101   2.350   0.661   0.326 -0.4161  1.4055 -0.0271
17698SOL    HW255102   2.391   0.739   0.450 -0.5540  2.2675 -0.5171
17699SOL     OW55103   5.858   8.137   0.486 -0.0604  0.6720  0.1907
17699SOL    HW155104   5.867   8.232   0.474  0.2354  0.5617 -0.5086
17699SOL    HW255105   5.926   8.115   0.550 -2.2374  1.3988  2.9429
17700SOL     OW55106   3.290   6.127   7.511  0.4086 -0.1567  0.3243
17700SOL    HW155107   3.241   6.189   7.456  3.6099  2.3772 -0.0211
17700SOL    HW255108   3.305   6.051   7.454 -2.9298 -1.0463  0.4696
17701SOL     OW55109   7.572   4.903   1.778 -0.2994  0.1175 -0.2665
17701SOL    HW155110   7.538   4.928   1.692  1.2290  0.5011 -0.7858
17701SOL    HW255111   7.626   4.977   1.806  0.7205 -0.7584  0.1756
17702SOL     OW55112  10.437   7.649   1.648 -0.1102  0.2999 -0.4285
17702SOL    HW155113  10.402   7.729   1.687  2.2644  1.1642  0.0925
17702SOL    HW255114  10.530   7.648   1.673 -0.0499 -2.6442 -0.3944
17703SOL     OW55115   9.428   5.035  10.036 -0.3347  0.3875  0.3221
17703SOL    HW155116   9.389   5.121  10.023 -1.4478  0.3849  2.9027
17703SOL    HW255117   9.483   5.021   9.960 -1.5228  2.5968 -1.0362
17704SOL     OW55118   8.755   7.533   1.544  0.0899 -0.6485 -0.3289
17704SOL    HW155119   8.794   7.561   1.627  0.0006 -1.5683  0.0331
17704SOL    HW255120   8.718   7.613   1.506  0.8414 -0.0769  0.1290
17705SOL     OW55121   1.348   1.321   4.209  0.3190 -0.0922  0.2870
17705SOL    HW155122   1.321   1.405   4.170 -0.4744 -0.0163  0.9601
17705SOL    HW255123   1.303   1.255   4.156  0.7291 -0.0874 -0.0753
17706SOL     OW55124   1.585  10.898   6.293 -0.4351  0.2367 -0.1874
17706SOL    HW155125   1.514  10.876   6.353 -0.7074 -0.3502 -0.7040
17706SOL    HW255126   1.611  10.814   6.256  0.1463  0.5182 -0.4289
17707SOL     OW55127   8.503   3.065   5.160 -0.1068  0.8577 -0.1746
17707SOL    HW155128   8.456   2.992   5.120  1.5839  0.0479 -0.7971
17707SOL    HW255129   8.442   3.139   5.154 -0.5373  0.4131 -2.9103
17708SOL     OW55130   0.135   0.369   1.872  0.3604  0.4069  0.2890
17708SOL    HW155131   0.197   0.411   1.932  0.0956 -0.6110  1.3103
17708SOL    HW255132   0.050   0.407   1.894  0.2050 -0.2357  0.8461
17709SOL     OW55133  10.321  10.567   6.414  0.5307  0.7905  0.0822
17709SOL    HW155134  10.381  10.639   6.398  0.4637  0.7066 -0.5798
17709SOL    HW255135  10.237  10.598   6.380  0.3631  0.6367  0.3531
17710SOL     OW55136   5.076   4.713   8.231 -0.1817 -0.4423 -0.1510
17710SOL    HW155137   4.981   4.697   8.230 -0.4527  1.0428 -0.1293
17710SOL    HW255138   5.115   4.625   8.230 -1.5501 -1.0755 -0.3350
17711SOL     OW55139  10.286   0.657   8.469 -0.3179 -0.3195 -0.3348
17711SOL    HW155140  10.354   0.712   8.507  0.0041 -0.2514 -0.9984
17711SOL    HW255141  10.204   0.691   8.504 -0.0054 -0.4852  0.5713
17712SOL     OW55142   6.290   7.024  10.372  0.2077  0.1654  0.2551
17712SOL    HW155143   6.321   7.114  10.364 -0.2426  0.4755  1.7793
17712SOL    HW255144   6.287   7.007  10.466  1.4808 -1.8701  0.0018
17713SOL     OW55145   6.158   2.110   8.250  0.1637 -0.3389 -0.2503
17713SOL    HW155146   6.087   2.081   8.308 -0.4005 -2.2448 -1.8064
17713SOL    HW255147   6.169   2.203   8.271 -2.2641 -0.1710  0.5876
17714SOL     OW55148   7.767   3.786   7.758 -0.1692  0.2999  0.2460
17714SOL    HW155149   7.802   3.850   7.696 -0.1513 -0.1467 -0.2147
17714SOL    HW255150   7.826   3.790   7.833  0.4562  0.0649 -0.2239
17715SOL     OW55151   6.688   1.609   1.635 -0.1265  0.2205  0.3816
17715SOL    HW155152   6.661   1.630   1.724  0.3050 -1.7233  1.0212
17715SOL    HW255153   6.770   1.657   1.623  0.4350 -0.4349  1.4853
17716SOL     OW55154   7.045   9.126   2.323  0.5831  0.0290  0.2503
17716SOL    HW155155   7.129   9.080   2.324  0.4016 -0.3617 -0.8377
17716SOL    HW255156   7.007   9.108   2.409  1.9947  0.9705  1.1024
17717SOL     OW55157   4.351  10.472   8.456 -1.1377  0.3546  0.0028
17717SOL    HW155158   4.319  10.485   8.367 -0.2694 -0.9269 -0.5251
17717SOL    HW255159   4.434  10.426   8.445 -0.5212  1.0645  1.4458
17718SOL     OW55160   8.145  10.750   7.433  0.6600  0.8365 -0.3305
17718SOL    HW155161   8.111  10.664   7.456  2.0270  0.2108 -0.6216
17718SOL    HW255162   8.168  10.744   7.341  0.7935  1.5120 -0.3508
17719SOL     OW55163   8.197   3.826   2.864  0.1676  0.7410 -0.4912
17719SOL    HW155164   8.148   3.806   2.784 -0.6128 -1.4218  0.4610
17719SOL    HW255165   8.269   3.882   2.834 -0.4691  0.5409 -2.5940
17720SOL     OW55166   3.013   1.251   9.425 -0.1948 -0.1538 -0.1376
17720SOL    HW155167   3.031   1.184   9.492 -1.1126 -0.7843 -0.5098
17720SOL    HW255168   2.971   1.203   9.354 -0.3725  0.7391 -0.6440
17721SOL     OW55169   0.008   1.412   7.465 -1.0425  0.1402  0.4332
17721SOL    HW155170   0.086   1.453   7.426 -0.2422 -0.5046  1.2895
17721SOL    HW255171   0.011   1.322   7.434 -1.2969  0.0469  0.6807
17722SOL     OW55172   3.757   5.308   7.783 -0.0029 -0.0502  0.0188
17722SOL    HW155173   3.719   5.221   7.772  1.5121 -0.8033  0.5368
17722SOL    HW255174   3.695   5.355   7.838 -1.2940 -0.4768 -1.0255
17723SOL     OW55175   0.722   8.435   7.635  0.6468 -0.0415 -0.4796
17723SOL    HW155176   0.686   8.521   7.615 -0.8524 -0.2566  1.1057
17723SOL    HW255177   0.805   8.454   7.679  0.1488  0.6193  0.2000
17724SOL     OW55178   9.015   3.126   9.832  0.4460  0.5194  0.1985
17724SOL    HW155179   9.004   3.081   9.916 -0.2007 -0.1309 -0.2151
17724SOL    HW255180   9.021   3.219   9.854  0.5092  0.3320  0.9780
17725SOL     OW55181   9.311   5.361   2.256 -0.0930 -0.8772  0.4891
17725SOL    HW155182   9.298   5.455   2.262 -1.1751 -1.0062  0.3288
17725SOL    HW255183   9.240   5.330   2.200  2.4031 -1.3097 -2.7395
17726SOL     OW55184   2.728   5.450   6.244 -0.1642  0.0940 -0.2458
17726SOL    HW155185   2.805   5.418   6.290 -0.5130 -1.6975 -0.8440
17726SOL    HW255186   2.734   5.411   6.156 -1.0761  0.9796 -0.7204
17727SOL     OW55187   5.049   0.877   9.389  0.2623 -0.2804 -0.1459
17727SOL    HW155188   5.105   0.869   9.312  0.7601  1.8048 -0.0729
17727SOL    HW255189   4.962   0.895   9.354  0.5746  1.1287 -0.2694
17728SOL     OW55190   2.639   4.231  10.382 -0.0084  0.0415 -0.1011
17728SOL    HW155191   2.719   4.236  10.434  1.0726  0.5257 -1.7260
17728SOL    HW255192   2.667   4.194  10.299 -2.2579 -3.8720  0.6338
17729SOL     OW55193   5.725  10.387   3.466  0.5914 -0.7165  0.3209
17729SOL    HW155194   5.657  10.415   3.406  1.0655 -0.2853 -0.0261
17729SOL    HW255195   5.756  10.304   3.431  0.1694 -0.9686  0.5429
17730SOL     OW55196   3.985   8.322   4.158  1.1358  0.0605  0.0328
17730SOL    HW155197   4.031   8.281   4.231  1.1302  1.6900  1.0061
17730SOL    HW255198   3.987   8.256   4.088  2.1514 -1.1022  1.1022
17731SOL     OW55199   1.013   2.281   6.261  0.2824 -0.6084 -0.6893
17731SOL    HW155200   1.036   2.305   6.171  0.1990 -0.0505 -0.5616
17731SOL    HW255201   1.097   2.261   6.303  0.3835 -0.2294 -0.7070
17732SOL     OW55202   8.037   5.228   8.307 -0.2641 -0.3004  0.1561
17732SOL    HW155203   8.104   5.161   8.322 -0.1246  0.0910  1.4528
17732SOL    HW255204   8.085   5.310   8.311 -0.8300  0.0005  1.4194
17733SOL     OW55205   2.951   5.609   8.924 -0.1938  0.1273 -0.3121
17733SOL    HW155206   2.877   5.631   8.868  0.9070 -0.2102 -1.9629
17733SOL    HW255207   2.940   5.515   8.941 -0.8319  0.3438  0.5359
17734SOL     OW55208   4.579   9.656   9.880  0.3080 -0.6585 -0.4314
17734SOL    HW155209   4.588   9.749   9.860  1.5093 -1.1089 -2.2882
17734SOL    HW255210   4.494   9.631   9.844  0.0102 -0.2876  0.0190
17735SOL     OW55211   7.801   2.024   2.520  0.3177  0.3911 -0.3227
17735SOL    HW155212   7.888   1.999   2.488  0.1589  0.2532 -0.6427
17735SOL    HW255213   7.813   2.031   2.615  0.0684 -2.2162 -0.0181
17736SOL     OW55214   2.233   3.956   0.389  0.4854  0.3390  0.5287
17736SOL    HW155215   2.252   4.049   0.381 -1.2081  0.7331  0.7709
17736SOL    HW255216   2.267   3.931   0.475  1.5310  0.5473  0.1975
17737SOL     OW55217   3.296   6.032   0.561 -0.1837  0.8471  0.2170
17737SOL    HW155218   3.270   5.955   0.511 -3.6090  1.4142  0.9179
17737SOL    HW255219   3.260   6.018   0.648  1.9977  1.8082  1.3589
17738SOL     OW55220   8.203   1.343   5.154 -0.1520 -0.2919  0.3741
17738SOL    HW155221   8.263   1.326   5.081  1.0916 -0.8270  1.4869
17738SOL    HW255222   8.196   1.258   5.199  0.8713  0.5199  2.1602
17739SOL     OW55223   4.220   1.197   9.640 -0.1028  0.0255  0.0987
17739SOL    HW155224   4.183   1.286   9.644 -1.3506 -0.3955 -1.2088
17739SOL    HW255225   4.312   1.210   9.618  0.2758  1.0613  2.0992
17740SOL     OW55226   6.686   6.382   1.945 -0.2476 -0.6055  0.6229
17740SOL    HW155227   6.621   6.320   1.980 -1.4679  0.7021  0.7784
17740SOL    HW255228   6.683   6.455   2.006  1.3265 -0.4598  0.5564
17741SOL     OW55229   9.908   9.061   6.745  0.1539  0.1550  0.2653
17741SOL    HW155230   9.883   8.970   6.733  1.2516 -0.0460 -0.6369
17741SOL    HW255231   9.849   9.111   6.688 -0.5435  0.0481  0.8692
17742SOL     OW55232   5.584   1.499   5.261  0.1901 -0.2498  0.1404
17742SOL    HW155233   5.568   1.413   5.299  0.4954 -0.4035 -0.0666
17742SOL    HW255234   5.634   1.480   5.181  0.1060  0.1068  0.0015
17743SOL     OW55235   1.613   0.386  10.269 -0.2288 -0.0024 -0.4787
17743SOL    HW155236   1.620   0.479  10.249 -0.3360 -0.1787 -1.3684
17743SOL    HW255237   1.555   0.382  10.345 -0.0964  0.6607 -0.3357
17744SOL     OW55238   7.091   9.727   9.669  0.4980 -0.5106 -0.6336
17744SOL    HW155239   7.120   9.818   9.666 -2.3571  0.4671 -1.1631
17744SOL    HW255240   7.060   9.714   9.759 -3.3354  0.6115 -1.6177
17745SOL     OW55241   5.060   4.851   0.362 -0.4501  0.2294  0.2306
17745SOL    HW155242   5.106   4.909   0.301 -0.7758 -3.5576 -4.1981
17745SOL    HW255243   5.127   4.822   0.424  0.6173  2.1343  0.0457
17746SOL     OW55244   4.878  10.641   0.351  0.8044 -0.1535 -0.5585
17746SOL    HW155245   4.881  10.708   0.282  2.8295  0.1149 -0.2763
17746SOL    HW255246   4.930  10.678   0.422  2.5439 -2.2384 -0.6265
17747SOL     OW55247   3.774  10.312   5.025  0.2837  0.3608 -0.0526
17747SOL    HW155248   3.723  10.320   5.106 -1.0115  2.1867 -0.9600
17747SOL    HW255249   3.803  10.221   5.024 -1.4757 -0.2923  1.4126
17748SOL     OW55250   0.366   3.193   7.567 -0.0418  0.0278  0.1667
17748SOL    HW155251   0.302   3.249   7.523 -4.9540 -2.6862  2.9788
17748SOL    HW255252   0.358   3.108   7.524  2.2175 -0.3151  0.2968
17749SOL     OW55253  10.245   6.787   9.095 -0.1271  0.0298  0.5347
17749SOL    HW155254  10.327   6.806   9.140 -0.8271 -0.3483  2.0584
17749SOL    HW255255  10.256   6.697   9.063 -0.7539 -0.9222  2.8007
17750SOL     OW55256   8.060   4.854  10.293 -0.3491  0.4280  0.1390
17750SOL    HW155257   7.977   4.850  10.341 -0.5780  2.8109  0.0504
17750SOL    HW255258   8.124   4.879  10.359  0.2359 -0.8973  0.1006
17751SOL     OW55259   3.116   8.505   6.931 -0.2071 -0.4457  0.0522
17751SOL    HW155260   3.207   8.483   6.951 -0.0390 -1.3901 -1.4951
17751SOL    HW255261   3.102   8.591   6.970  1.2021 -0.4933  0.7171
17752SOL     OW55262   2.993  10.603   8.897 -0.4389 -0.1117 -0.8162
17752SOL    HW155263   3.087  10.612   8.882 -0.2473 -1.1846 -0.3194
17752SOL    HW255264   2.975  10.510   8.886 -1.6413  0.2149 -1.9496
17753SOL     OW55265   9.864   2.056   0.032 -0.6551  0.9763  0.0053
17753SOL    HW155266   9.941   2.110   0.020 -0.1685 -0.1238 -2.5035
17753SOL    HW255267   9.812   2.071  -0.048 -1.6466 -0.4111  0.3586
17754SOL     OW55268  10.772   4.133   9.776  0.1679 -0.5299 -0.5132
17754SOL    HW155269  10.704   4.143   9.843  1.3242 -1.5057  0.8682
17754SOL    HW255270  10.854   4.154   9.821  1.0169 -1.4924 -1.5367
17755SOL     OW55271   1.174   5.324   1.858  0.1374 -0.0415 -0.7727
17755SOL    HW155272   1.143   5.414   1.864  0.9484  0.1375  1.3512
17755SOL    HW255273   1.098   5.271   1.883  0.4245  0.2127  0.7043
17756SOL     OW55274   6.226   5.848   3.570 -0.0081  0.0632  0.4060
17756SOL    HW155275   6.303   5.904   3.579 -0.3815  0.5837  0.4119
17756SOL    HW255276   6.251   5.766   3.612  0.3282  0.4344  0.9361
17757SOL     OW55277   3.358   5.099   6.998 -0.7862 -0.0197 -0.0575
17757SOL    HW155278   3.331   5.019   7.043 -0.3214  0.4351  1.0685
17757SOL    HW255279   3.277   5.149   6.989 -0.5320  1.1232  2.8632
17758SOL     OW55280   3.757   2.173  10.917 -0.3054 -0.8855  0.0844
17758SOL    HW155281   3.848   2.149  10.902 -0.1867 -2.0607  2.2739
17758SOL    HW255282   3.760   2.264  10.946  0.0530 -0.6124 -0.7874
17759SOL     OW55283   2.195   8.468   5.979  0.7500 -0.1664 -0.1249
17759SOL    HW155284   2.163   8.551   6.015  2.0829 -0.7122  2.5773
17759SOL    HW255285   2.240   8.492   5.898  0.9762  1.7629  0.5318
17760SOL     OW55286   7.148   5.517   8.729  0.0078  0.2630 -0.3992
17760SOL    HW155287   7.098   5.593   8.699 -1.1634 -0.0810  0.6102
17760SOL    HW255288   7.237   5.535   8.700 -0.2813  1.9128 -0.3842
17761SOL     OW55289  10.663   7.349   9.294 -0.3651 -0.5227  0.1744
17761SOL    HW155290  10.710   7.406   9.355 -0.4291 -1.2528  0.9190
17761SOL    HW255291  10.646   7.269   9.343 -0.1079 -1.2732 -0.9109
17762SOL     OW55292   0.037   7.148   5.446  0.2674 -0.4522 -0.1514
17762SOL    HW155293   0.025   7.100   5.529 -1.0526 -1.3356 -0.8076
17762SOL    HW255294  -0.002   7.233   5.462  2.9878  0.6642  1.1610
17763SOL     OW55295   8.703   8.331   5.322  0.4833 -0.3575  0.2492
17763SOL    HW155296   8.626   8.275   5.309 -0.5376  0.9524  0.3744
17763SOL    HW255297   8.717   8.372   5.237 -0.4953  1.2310  0.7964
17764SOL     OW55298   7.777   4.254   0.380 -0.8839 -0.5593 -0.2777
17764SOL    HW155299   7.735   4.259   0.465  0.6151 -0.2404  0.4744
17764SOL    HW255300   7.751   4.169   0.345 -0.4148 -1.2793  1.0945
17765SOL     OW55301   0.479   5.982   1.796  0.0054  0.1090  0.7619
17765SOL    HW155302   0.459   5.889   1.807 -1.2948  0.5033  2.0607
17765SOL    HW255303   0.535   6.003   1.872 -0.4401  0.5756  0.9660
17766SOL     OW55304  10.736   9.058   6.716  0.1369  0.2833 -0.1435
17766SOL    HW155305  10.755   9.021   6.630  0.5102  1.4861 -0.5861
17766SOL    HW255306  10.713   9.149   6.699 -1.1585  0.1716  0.8932
17767SOL     OW55307  10.394   2.283  10.843 -0.0802 -0.2546  0.2620
17767SOL    HW155308  10.435   2.205  10.806  1.6531  0.9333 -0.4665
17767SOL    HW255309  10.462   2.322  10.897 -1.2389  0.2619  1.3918
17768SOL     OW55310   6.709   0.284   6.097 -0.5751  0.6926 -0.4126
17768SOL    HW155311   6.702   0.215   6.031 -1.4955  0.0473  0.3332
17768SOL    HW255312   6.803   0.292   6.113 -0.3654  0.6143 -1.5299
17769SOL     OW55313  10.767   7.831   0.326 -0.3899 -0.0081 -0.0069
17769SOL    HW155314  10.673   7.846   0.323 -0.4083 -0.0282  0.4140
17769SOL    HW255315  10.805   7.916   0.349 -0.3986 -0.2771  1.0426
17770SOL     OW55316   8.327   6.843  10.206 -0.6871  0.4647  0.1635
17770SOL    HW155317   8.234   6.823  10.205 -0.4417 -0.8177 -1.7643
17770SOL    HW255318   8.336   6.921  10.151 -0.5745  0.3625  0.0373
17771SOL     OW55319   2.216   7.695   1.599  0.1608 -0.0426  0.1471
17771SOL    HW155320   2.213   7.609   1.558  1.6879 -0.4376  0.7792
17771SOL    HW255321   2.249   7.679   1.687  3.5927  1.4051 -0.6740
17772SOL     OW55322   0.212  10.071   9.480 -0.2458 -0.4692 -0.2089
17772SOL    HW155323   0.220  10.009   9.408  0.7327  0.1796 -0.6827
17772SOL    HW255324   0.237  10.155   9.442  0.2462 -0.1063  0.8759
17773SOL     OW55325   6.404   2.622   3.057 -0.6877  0.3159 -0.0966
17773SOL    HW155326   6.340   2.591   2.993  0.2656 -0.8937 -0.5075
17773SOL    HW255327   6.363   2.698   3.097 -2.0523  0.0306 -0.8889
17774SOL     OW55328   7.074   5.823   6.489  0.1541 -0.2355  0.4636
17774SOL    HW155329   7.108   5.887   6.552  0.8875 -0.8006  0.6438
17774SOL    HW255330   6.996   5.866   6.452 -0.2322  0.1397  1.6757
17775SOL     OW55331   9.871   6.007   4.280  0.5382  0.0261  0.6899
17775SOL    HW155332   9.851   6.090   4.237 -1.7289 -0.9871 -0.4025
17775SOL    HW255333   9.792   5.985   4.328  0.4296 -2.2408 -0.3706
17776SOL     OW55334   9.273  10.771   0.483 -0.0950  0.4760  0.3887
17776SOL    HW155335   9.280  10.866   0.491  0.5423  0.2971  2.3005
17776SOL    HW255336   9.216  10.745   0.554 -1.2599 -0.4914 -0.8487
17777SOL     OW55337   8.241   7.932   4.561  0.2870  0.4352 -0.1637
17777SOL    HW155338   8.286   7.919   4.645  0.4495  0.0079 -0.3122
17777SOL    HW255339   8.148   7.937   4.585  0.4764  2.5262  0.2706
17778SOL     OW55340   1.527   3.784  10.434  0.4139  0.0193 -0.6467
17778SOL    HW155341   1.584   3.770  10.510  1.0001 -0.5801 -1.1787
17778SOL    HW255342   1.527   3.878  10.420  1.7017 -0.0099 -0.9410
17779SOL     OW55343   0.007   6.461   1.724  0.0156 -0.1868 -0.3901
17779SOL    HW155344   0.066   6.526   1.686  0.5812 -0.0670  0.6647
17779SOL    HW255345  -0.063   6.512   1.765 -0.3740 -0.3031 -0.8983
17780SOL     OW55346  10.732   5.550   8.977  0.3877 -0.0780 -0.0077
17780SOL    HW155347  10.709   5.475   9.032 -2.3933  1.4334  1.0649
17780SOL    HW255348  10.813   5.583   9.015 -0.0042 -0.7161  1.4544
17781SOL     OW55349   7.913  11.012   7.007 -0.7180  0.0065  0.3151
17781SOL    HW155350   7.995  11.049   6.977 -0.1975 -1.4732 -0.1788
17781SOL    HW255351   7.881  10.960   6.933 -1.6590 -0.1331  0.8004
17782SOL     OW55352   8.861   6.915   3.157  0.2541 -0.0762  0.0738
17782SOL    HW155353   8.865   6.849   3.088  0.0271  0.6984 -0.6936
17782SOL    HW255354   8.781   6.894   3.206  0.4060 -0.6147  0.0948
17783SOL     OW55355   8.493   5.605   1.335 -0.7343 -0.0388 -0.1282
17783SOL    HW155356   8.466   5.615   1.244 -2.1877 -1.4032  0.1179
17783SOL    HW255357   8.504   5.511   1.347  1.6866  0.2455  0.5369
17784SOL     OW55358   2.766  10.790   7.617  0.3554  0.3110  0.1979
17784SOL    HW155359   2.718  10.839   7.683  0.0112  0.2952 -0.0435
17784SOL    HW255360   2.778  10.703   7.656 -0.8876 -0.0720 -0.2379
17785SOL     OW55361   3.535   1.085  10.015 -0.1473 -0.5213  0.2870
17785SOL    HW155362   3.514   1.173  10.046 -0.6589  0.0697 -1.5918
17785SOL    HW255363   3.630   1.087  10.000  0.0007 -0.6160  1.1631
17786SOL     OW55364   9.895   8.365   0.629  0.1022 -0.1522 -0.1543
17786SOL    HW155365   9.892   8.296   0.696  1.8842  0.0366  0.1806
17786SOL    HW255366   9.872   8.445   0.676  1.4577 -0.0009  0.3226
17787SOL     OW55367   0.518   0.160   8.523  0.1588  0.0162  0.3476
17787SOL    HW155368   0.426   0.177   8.504  0.1393 -0.6432 -0.1825
17787SOL    HW255369   0.518   0.076   8.568  0.5493 -0.2722 -0.1849
17788SOL     OW55370   2.371   7.896   0.451 -0.2162  0.3109 -0.0902
17788SOL    HW155371   2.296   7.899   0.511  0.5135 -1.9414  1.0335
17788SOL    HW255372   2.348   7.829   0.387  0.1368  0.8321 -0.7788
17789SOL     OW55373   2.447   1.658   0.650 -0.0980  0.6434 -0.2053
17789SOL    HW155374   2.502   1.595   0.604  2.2215 -0.4828  3.6118
17789SOL    HW255375   2.485   1.743   0.629  0.4534  0.2398 -0.8820
17790SOL     OW55376   4.699   8.892   6.121  0.1849  0.2696  0.0362
17790SOL    HW155377   4.767   8.848   6.172  2.4147  2.4991 -0.8070
17790SOL    HW255378   4.674   8.828   6.055  2.0351 -0.3940 -0.0891
17791SOL     OW55379   3.390   9.269  10.460 -0.4587 -0.1468 -0.5725
17791SOL    HW155380   3.476   9.272  10.504 -0.0851 -2.0107 -1.1070
17791SOL    HW255381   3.376   9.176  10.440 -3.5540 -0.2320  1.3347
17792SOL     OW55382   5.348   9.837   5.235  0.3669  0.5387  0.7531
17792SOL    HW155383   5.344   9.933   5.235  2.1311  0.6581  2.0781
17792SOL    HW255384   5.401   9.815   5.312  1.0750 -1.4408 -0.2271
17793SOL     OW55385   6.748   0.947   6.289  0.0903  0.4142  0.4491
17793SOL    HW155386   6.802   0.909   6.220  0.4556  2.4543 -0.4628
17793SOL    HW255387   6.787   1.034   6.305 -2.4696  1.6692  0.2620
17794SOL     OW55388   9.754   0.977   8.996  0.4845  0.3535  0.3874
17794SOL    HW155389   9.826   0.963   9.057 -0.4352 -0.7949  1.2463
17794SOL    HW255390   9.705   0.895   8.996 -1.4509  1.4301  0.6916
17795SOL     OW55391  10.682   6.840   9.447  0.1981  0.1579  0.3521
17795SOL    HW155392  10.726   6.787   9.513  0.4631  0.4198  0.3873
17795SOL    HW255393  10.747   6.905   9.421 -0.2529  0.7168  0.6004
17796SOL     OW55394   2.318  10.890   2.359 -0.8382 -0.1478  0.3285
17796SOL    HW155395   2.282  10.951   2.425 -0.1198 -1.9734  2.5522
17796SOL    HW255396   2.241  10.856   2.313 -1.3671  1.1676  0.1940
17797SOL     OW55397   9.774   1.647   2.780  0.6303 -0.5634  0.8153
17797SOL    HW155398   9.837   1.708   2.817  0.6058 -0.6348  0.9723
17797SOL    HW255399   9.718   1.622   2.853  0.6454 -0.7808  0.7554
17798SOL     OW55400   1.161   2.475   2.937 -0.2427 -0.2962  0.1549
17798SOL    HW155401   1.205   2.559   2.923 -0.5607  0.5508  3.3465
17798SOL    HW255402   1.139   2.444   2.849  4.6105  0.2953 -1.5565
17799SOL     OW55403  10.447   0.379   7.302  0.4133  0.6914  0.3770
17799SOL    HW155404  10.374   0.441   7.299 -0.2842 -0.1192  0.0538
17799SOL    HW255405  10.417   0.305   7.248  0.9955 -0.1621  1.2021
17800SOL     OW55406   7.731   9.361   1.036 -0.1568  0.0502  0.2320
17800SOL    HW155407   7.687   9.433   0.991 -3.1772 -1.1817  0.9710
17800SOL    HW255408   7.751   9.298   0.967  0.1634  0.4518 -0.0524
17801SOL     OW55409   6.986   9.880   2.018  0.1457  0.3888  0.5298
17801SOL    HW155410   7.037   9.807   2.053 -0.3208 -0.4115 -0.4003
17801SOL    HW255411   6.956   9.927   2.096 -0.7909 -1.2841  1.2398
17802SOL     OW55412   8.982   1.560   9.471  0.5813 -0.0494  0.0666
17802SOL    HW155413   8.937   1.602   9.545  0.6968 -0.3229  0.2918
17802SOL    HW255414   9.074   1.563   9.495  0.5549 -0.7909  0.2617
17803SOL     OW55415   5.993   3.388   4.061 -0.1411  0.0898  0.3978
17803SOL    HW155416   6.088   3.387   4.070 -0.1642  0.2705  0.6550
17803SOL    HW255417   5.976   3.447   3.988 -0.0228 -0.4380 -0.0692
17804SOL     OW55418   2.632   2.553   3.704  0.1686  0.8178  0.4078
17804SOL    HW155419   2.678   2.486   3.753  0.0593  0.3316 -0.1485
17804SOL    HW255420   2.539   2.534   3.718  0.1154  1.5449  1.1830
17805SOL     OW55421   0.202   2.051   9.552  0.7495  0.0539 -0.1474
17805SOL    HW155422   0.247   2.116   9.607 -1.4139  1.2451  0.3446
17805SOL    HW255423   0.167   1.987   9.614 -0.7400  0.7922 -0.1716
17806SOL     OW55424   6.545   7.813   6.659  0.7449  0.2261  0.2201
17806SOL    HW155425   6.521   7.738   6.713  1.2108 -0.0395  0.0594
17806SOL    HW255426   6.468   7.870   6.663  1.1662  0.7221  2.0371
17807SOL     OW55427   9.723   7.857  10.572  0.4489  0.1392 -0.3024
17807SOL    HW155428   9.685   7.788  10.625 -1.4966  0.9859 -0.4882
17807SOL    HW255429   9.771   7.811  10.503 -2.8405 -1.1961 -1.9105
17808SOL     OW55430   5.314   3.124   5.625  0.3695 -0.6741 -0.8292
17808SOL    HW155431   5.393   3.085   5.588 -0.4764 -1.3119 -2.0218
17808SOL    HW255432   5.265   3.156   5.550 -0.5441 -0.3638 -0.1162
17809SOL     OW55433   5.048   0.223   0.552 -0.2589  0.5282 -0.8824
17809SOL    HW155434   5.012   0.299   0.598 -0.2371  0.7524 -1.2317
17809SOL    HW255435   5.143   0.236   0.557 -0.0108 -1.5727  2.6522
17810SOL     OW55436   0.480  10.135   7.243 -0.4267 -0.3930 -0.3663
17810SOL    HW155437   0.431  10.110   7.165  2.0412  1.6259 -2.7898
17810SOL    HW255438   0.473  10.231   7.246  2.4726 -0.0921 -0.3364
17811SOL     OW55439   6.038   7.657   1.799  0.0418 -0.4294  0.0372
17811SOL    HW155440   6.018   7.572   1.837 -0.4848 -0.6039 -0.6094
17811SOL    HW255441   5.985   7.719   1.848 -1.0233 -0.7129 -0.7123
17812SOL     OW55442   7.939   0.527   3.065 -0.0615 -0.1504 -0.5391
17812SOL    HW155443   7.910   0.533   2.974  0.5943 -0.5302 -0.7839
17812SOL    HW255444   8.021   0.577   3.068 -0.0327 -0.2117 -0.1778
17813SOL     OW55445   6.123   7.375   8.684  0.5278  0.7763 -0.2941
17813SOL    HW155446   6.137   7.284   8.658 -2.8010  0.0845 -0.1489
17813SOL    HW255447   6.085   7.417   8.607 -0.6519  1.2442  0.5119
17814SOL     OW55448   7.582   2.255   2.752 -0.5120  0.2072  0.0650
17814SOL    HW155449   7.676   2.233   2.752 -0.7641 -0.9672 -0.8183
17814SOL    HW255450   7.577   2.335   2.699 -0.0197  0.2562  0.0802
17815SOL     OW55451   2.042  10.385   5.794  0.7730 -0.0824 -0.6565
17815SOL    HW155452   2.042  10.298   5.753  1.1046 -0.3372 -0.1286
17815SOL    HW255453   1.952  10.416   5.783 -0.3146 -1.8788  1.9932
17816SOL     OW55454   5.812   4.115   9.442  0.5315 -0.7023 -0.2681
17816SOL    HW155455   5.791   4.024   9.461  1.3256 -0.9326 -0.4521
17816SOL    HW255456   5.905   4.114   9.421  0.7047  0.2512  0.3818
17817SOL     OW55457  10.662   4.872   1.986 -0.3992  0.4137  0.0830
17817SOL    HW155458  10.634   4.791   2.028  0.7113 -0.4886 -0.8497
17817SOL    HW255459  10.581   4.914   1.957 -1.0437  0.1092  1.3868
17818SOL     OW55460   3.364   4.559   5.138 -0.3890 -0.0009 -0.0907
17818SOL    HW155461   3.457   4.583   5.145  0.0135 -1.6101  0.6968
17818SOL    HW255462   3.348   4.552   5.044  0.8662 -1.5972 -0.2520
17819SOL     OW55463   9.759   1.795   7.574  0.0419 -0.1645  0.0469
17819SOL    HW155464   9.677   1.832   7.542  0.7069  2.0152  0.6788
17819SOL    HW255465   9.781   1.726   7.510 -1.1405  0.7256 -1.3910
17820SOL     OW55466   8.095   6.569   2.978  0.0010  0.0818  0.2201
17820SOL    HW155467   8.172   6.607   2.935  0.1326 -1.4026 -0.9410
17820SOL    HW255468   8.030   6.639   2.978  0.3351  0.4481 -1.5854
17821SOL     OW55469   1.844  10.351   1.053 -0.0941  0.4248  0.0431
17821SOL    HW155470   1.876  10.326   0.966 -1.4834 -0.6067 -0.1954
17821SOL    HW255471   1.807  10.439   1.040 -0.8579  0.0189 -0.5552
17822SOL     OW55472  10.339   8.399   4.799  0.3452  0.1294 -0.0016
17822SOL    HW155473  10.324   8.409   4.893  3.8063  1.7046  0.5449
17822SOL    HW255474  10.418   8.345   4.793  0.6123  0.6480 -1.9256
17823SOL     OW55475   1.328   7.648   9.185  0.1668 -0.6896 -0.0117
17823SOL    HW155476   1.284   7.625   9.103  0.8737 -0.0266 -0.5911
17823SOL    HW255477   1.418   7.667   9.160 -0.0420  1.4061  0.5816
17824SOL     OW55478   4.812   7.092   8.869  0.2144 -0.5254 -0.4265
17824SOL    HW155479   4.895   7.052   8.895 -0.0064 -0.1216  0.9755
17824SOL    HW255480   4.783   7.140   8.946  0.1322  1.7894 -1.7967
17825SOL     OW55481   7.793   9.645  10.682 -0.0172  0.2470 -0.2750
17825SOL    HW155482   7.750   9.671  10.764  0.8638  1.5843 -0.1935
17825SOL    HW255483   7.721   9.628  10.621 -0.6907 -1.0905  0.8464
17826SOL     OW55484  10.498   3.736   9.068 -0.0815 -0.3981 -0.0781
17826SOL    HW155485  10.563   3.679   9.108 -0.0425 -0.0941  0.3006
17826SOL    HW255486  10.493   3.811   9.127  0.9691  0.7147 -1.3327
17827SOL     OW55487  10.409   6.941   1.407 -0.6661  0.6305 -0.5911
17827SOL    HW155488  10.434   6.988   1.486  0.0379  1.9364 -1.5501
17827SOL    HW255489  10.343   6.878   1.436 -0.7707  1.4028  0.9446
17828SOL     OW55490   3.122   1.796  10.046  0.1606  0.1784  0.2243
17828SOL    HW155491   3.056   1.786  10.114 -0.8368  1.7348 -0.4470
17828SOL    HW255492   3.094   1.874   9.998  1.8263  0.1537 -0.8446
17829SOL     OW55493   3.598   7.097   0.156  1.0916 -0.5761 -0.4653
17829SOL    HW155494   3.598   7.011   0.199 -0.9651  0.9704  3.0702
17829SOL    HW255495   3.682   7.135   0.178  1.2982 -0.9715 -0.5478
17830SOL     OW55496   8.679   2.517   1.528 -0.1305 -0.4557 -0.7853
17830SOL    HW155497   8.675   2.611   1.540 -0.0852 -0.5816  0.2506
17830SOL    HW255498   8.591   2.493   1.496 -1.4617 -0.5298  2.5656
17831SOL     OW55499   2.872   9.120   4.244 -0.2702 -0.0374 -0.1784
17831SOL    HW155500   2.839   9.044   4.292  1.4461 -0.4089  0.4562
17831SOL    HW255501   2.888   9.087   4.155  0.8969 -0.5497  0.2118
17832SOL     OW55502   7.474  10.960   5.190  0.2457 -0.0575  0.0338
17832SOL    HW155503   7.545  10.895   5.194 -0.0750 -0.4545 -0.5385
17832SOL    HW255504   7.412  10.932   5.256  0.1177 -0.3279 -0.1984
17833SOL     OW55505   4.809  10.274   7.738 -0.1873 -0.2071  0.3782
17833SOL    HW155506   4.900  10.266   7.766  0.1343  2.5726  0.4475
17833SOL    HW255507   4.762  10.306   7.815 -1.3270 -1.9273  0.4395
17834SOL     OW55508   9.384   8.964   6.709 -0.6108  0.0357 -0.5857
17834SOL    HW155509   9.375   8.924   6.622  2.1884  0.0637 -0.9825
17834SOL    HW255510   9.405   8.891   6.767  0.6039  0.3920 -0.5567
17835SOL     OW55511   4.482  10.124   2.117  0.4658 -0.0113 -0.7932
17835SOL    HW155512   4.443  10.100   2.033 -0.3251 -2.4812  0.1547
17835SOL    HW255513   4.547  10.055   2.133  1.6179  1.2247 -0.0142
17836SOL     OW55514   2.577   3.317   7.227  0.5208  0.5117 -0.3729
17836SOL    HW155515   2.487   3.341   7.248  0.5469 -0.5796  1.0903
17836SOL    HW255516   2.568   3.256   7.154 -0.0884 -1.1126  1.0180
17837SOL     OW55517   8.112   4.589  10.523 -0.5400 -0.0967  0.0930
17837SOL    HW155518   8.164   4.572  10.601 -0.2403  0.8875  0.1213
17837SOL    HW255519   8.147   4.530  10.457  3.4628  3.1490 -1.1253
17838SOL     OW55520   2.729   3.606   1.917 -0.5846 -0.5104 -0.5629
17838SOL    HW155521   2.734   3.520   1.957  2.0932  0.1130  0.6703
17838SOL    HW255522   2.755   3.593   1.826  0.6686 -0.9099 -0.1586
17839SOL     OW55523   5.286   9.236   0.711  0.0963 -0.0292  0.3444
17839SOL    HW155524   5.203   9.277   0.688 -1.2073 -2.3070  0.7235
17839SOL    HW255525   5.303   9.173   0.641  0.9831 -0.3065  0.7866
17840SOL     OW55526   9.159   0.170  10.727  0.2031  0.0880 -0.1844
17840SOL    HW155527   9.105   0.117  10.669  0.1412 -0.4796  0.3861
17840SOL    HW255528   9.098   0.203  10.793  0.5646 -0.6307  0.5147
17841SOL     OW55529   2.380   5.032   4.733 -0.6558 -0.6578 -0.3314
17841SOL    HW155530   2.344   4.968   4.671 -0.5146 -2.1810  1.0732
17841SOL    HW255531   2.380   5.115   4.685 -1.3379 -1.5988 -2.0570
17842SOL     OW55532   8.797   2.758   6.725 -0.2330  0.0632  0.5660
17842SOL    HW155533   8.737   2.829   6.750 -1.2575 -0.6823  0.3078
17842SOL    HW255534   8.877   2.776   6.774 -0.8897  0.7265  1.4405
17843SOL     OW55535   2.866   7.637   5.836  0.0867 -0.4277  0.3380
17843SOL    HW155536   2.840   7.722   5.872 -0.9587 -0.4293 -0.3823
17843SOL    HW255537   2.880   7.582   5.913  1.4318  0.5517  0.8463
17844SOL     OW55538   7.413   5.693   0.320  0.5402 -0.6985 -0.0618
17844SOL    HW155539   7.354   5.737   0.381  0.1980 -0.4746 -0.5433
17844SOL    HW255540   7.497   5.735   0.334  0.2288  0.0867 -0.4799
17845SOL     OW55541   0.577   1.565   2.802  0.3462 -0.3487 -0.2158
17845SOL    HW155542   0.668   1.590   2.819 -0.3550  1.8752  0.6103
17845SOL    HW255543   0.536   1.565   2.888 -0.4531 -1.3364 -0.5823
17846SOL     OW55544   4.674   0.915   4.643  0.4215 -0.2834 -0.1486
17846SOL    HW155545   4.754   0.960   4.669  1.0649 -1.6178  0.2593
17846SOL    HW255546   4.699   0.823   4.638 -0.9233 -0.6406 -0.7003
17847SOL     OW55547   4.483   1.784   2.510 -0.2095 -0.0887  0.1512
17847SOL    HW155548   4.514   1.773   2.599 -0.9175 -0.3713  0.3708
17847SOL    HW255549   4.561   1.804   2.459  0.0161  1.4833  1.0652
17848SOL     OW55550   9.241   3.684   6.095 -0.2637  1.1268 -0.2600
17848SOL    HW155551   9.309   3.680   6.027 -1.0456 -2.0742 -1.0458
17848SOL    HW255552   9.212   3.593   6.104 -1.8317  1.8129  2.7598
17849SOL     OW55553   7.829   2.686   6.369  0.1630 -0.2320 -0.0593
17849SOL    HW155554   7.890   2.614   6.358 -0.5048 -0.9097  0.5670
17849SOL    HW255555   7.882   2.765   6.356  0.9240 -0.8189 -0.6222
17850SOL     OW55556   9.946  10.741   9.568  0.2219 -0.1427  0.3297
17850SOL    HW155557   9.955  10.751   9.474 -0.5783  0.8294  0.3460
17850SOL    HW255558   9.852  10.731   9.583  0.3603 -0.5580  1.0076
17851SOL     OW55559   1.185   2.856   9.076 -0.3307 -0.7208 -0.0135
17851SOL    HW155560   1.106   2.806   9.055  0.1554 -1.5534  0.0689
17851SOL    HW255561   1.229   2.867   8.992 -0.5699 -0.1934 -0.0702
17852SOL     OW55562   9.376  10.954   8.422  0.0044 -0.4677  0.5478
17852SOL    HW155563   9.316  11.026   8.405  0.7742  0.7742  2.6081
17852SOL    HW255564   9.322  10.876   8.419 -1.5485  0.5200  1.3767
17853SOL     OW55565  10.661  10.864   6.937 -0.4770 -0.0364  0.2319
17853SOL    HW155566  10.629  10.820   7.016  0.8424 -1.3967  0.0554
17853SOL    HW255567  10.746  10.823   6.919  0.5195  2.1021 -0.3729
17854SOL     OW55568   6.614   1.403   6.055  0.0317 -0.8353 -0.0224
17854SOL    HW155569   6.644   1.327   6.004  0.9416 -1.0609  0.8201
17854SOL    HW255570   6.618   1.373   6.146  2.0815  0.7343  0.4801
17855SOL     OW55571   9.678   1.624   7.028 -0.2733  0.1569  0.3213
17855SOL    HW155572   9.700   1.573   6.951  1.2810  0.6911  0.3799
17855SOL    HW255573   9.582   1.624   7.031 -0.3234 -1.5670 -0.4437
17856SOL     OW55574   2.157   7.983   6.582 -0.1416 -0.6436  0.2369
17856SOL    HW155575   2.164   7.903   6.530 -1.1941 -0.7691  0.2781
17856SOL    HW255576   2.065   8.007   6.578  0.5249  2.1574 -2.1145
17857SOL     OW55577  10.706   7.654   1.691  0.5585  0.3231  0.0902
17857SOL    HW155578  10.720   7.635   1.598 -2.5781 -1.5382 -0.1490
17857SOL    HW255579  10.761   7.591   1.737  0.0921 -0.5926 -0.5758
17858SOL     OW55580   0.009   7.368   7.371 -0.4207  0.0933  0.1174
17858SOL    HW155581  -0.031   7.312   7.303  0.7686 -1.8759  0.9394
17858SOL    HW255582   0.080   7.414   7.326  0.4184 -1.2686 -0.0260
17859SOL     OW55583  10.712   1.809   9.311 -0.4307 -0.3881 -0.3025
17859SOL    HW155584  10.630   1.837   9.270 -1.0695  1.2923  1.9104
17859SOL    HW255585  10.710   1.849   9.398  1.1694 -3.1163  1.1192
17860SOL     OW55586   3.517   6.873   9.095 -0.2645 -0.4589  0.3680
17860SOL    HW155587   3.447   6.938   9.092 -0.0628 -0.2726 -2.1137
17860SOL    HW255588   3.576   6.904   9.164 -1.6704  0.3572  1.2370
17861SOL     OW55589   4.648  10.949   9.811  0.1199  0.0643  0.2706
17861SOL    HW155590   4.707  10.992   9.872  0.2547 -0.9437  0.8771
17861SOL    HW255591   4.706  10.907   9.748 -0.0227  2.3257 -1.4957
17862SOL     OW55592   0.168   7.715   2.164  0.0484  0.0914 -0.4694
17862SOL    HW155593   0.168   7.669   2.080  0.8942 -0.4465 -0.1834
17862SOL    HW255594   0.077   7.745   2.174 -0.7701 -2.2169 -0.2956
17863SOL     OW55595   6.924   3.501   3.644 -0.0567  0.0103 -0.3510
17863SOL    HW155596   6.918   3.465   3.732 -3.1740  1.5165  0.2034
17863SOL    HW255597   6.906   3.427   3.586  1.7012 -0.9199  0.2373
17864SOL     OW55598   2.659   0.116   3.308 -0.3324 -0.0173 -0.0619
17864SOL    HW155599   2.679   0.117   3.214 -0.2733  0.5112 -0.0476
17864SOL    HW255600   2.742   0.136   3.350 -0.1747 -1.0594  0.1447
17865SOL     OW55601   2.740   1.020   8.025 -0.0650  0.2046 -0.1294
17865SOL    HW155602   2.714   1.112   8.025 -1.5661 -0.1240  2.7520
17865SOL    HW255603   2.816   1.017   7.966 -0.6402  3.0394 -1.1712
17866SOL     OW55604   3.597  10.011   0.041 -0.3908 -0.1711 -0.5787
17866SOL    HW155605   3.571  10.059  -0.038 -3.4663 -0.5034  0.0941
17866SOL    HW255606   3.514   9.989   0.084  1.1390  0.4297  3.0438
17867SOL     OW55607   4.620  10.343   6.823 -0.4166 -0.0532 -0.5066
17867SOL    HW155608   4.557  10.313   6.888 -0.4995  2.1480  0.4926
17867SOL    HW255609   4.696  10.370   6.874 -0.4072  1.5399 -1.3112
17868SOL     OW55610   7.658   9.778   6.791  0.4725  0.0871 -0.3009
17868SOL    HW155611   7.649   9.693   6.832  1.6002  0.4947  0.8567
17868SOL    HW255612   7.624   9.840   6.855 -2.8096  0.3851 -2.1516
17869SOL     OW55613   6.307   1.705   9.128 -0.2626  0.0724 -0.2659
17869SOL    HW155614   6.344   1.719   9.041 -2.5380  0.1514 -1.2706
17869SOL    HW255615   6.353   1.627   9.161 -1.0275 -1.4519 -2.5504
17870SOL     OW55616  10.639   2.754   2.585  1.3624  0.4692  0.6964
17870SOL    HW155617  10.632   2.667   2.623 -0.8587  1.2307  2.2543
17870SOL    HW255618  10.730   2.778   2.596  1.3606 -0.3926  3.2984
17871SOL     OW55619   1.073   4.671   5.026 -0.2506  0.6758 -0.2013
17871SOL    HW155620   1.018   4.608   4.979 -1.5058  0.2295  1.7439
17871SOL    HW255621   1.019   4.749   5.033 -0.0199  0.7851  0.3570
17872SOL     OW55622   6.883   6.676   7.958  0.9929 -0.4223 -0.3038
17872SOL    HW155623   6.942   6.610   7.924  2.8496  1.0296 -0.0913
17872SOL    HW255624   6.921   6.759   7.929  0.0650  0.6407  1.3710
17873SOL     OW55625   4.471  10.751   5.876 -0.2099  0.1099 -0.1426
17873SOL    HW155626   4.420  10.823   5.839 -0.3871  0.4014  0.6470
17873SOL    HW255627   4.406  10.682   5.893 -0.1306 -0.0178 -0.3488
17874SOL     OW55628   1.843   6.436   8.362 -0.0784  0.0708  0.4223
17874SOL    HW155629   1.936   6.459   8.353  0.6791 -2.5174  0.4972
17874SOL    HW255630   1.813   6.484   8.439  1.1413  1.1315  0.2639
17875SOL     OW55631   3.364   4.275  10.692 -0.3566 -0.0562  0.5826
17875SOL    HW155632   3.335   4.183  10.694  1.3325 -0.6205  0.9712
17875SOL    HW255633   3.439   4.277  10.752 -0.6021  1.6808  0.8783
17876SOL     OW55634   3.868   8.604  10.499  0.2289 -0.2562 -0.6195
17876SOL    HW155635   3.867   8.552  10.418  1.6802  0.5853 -1.2193
17876SOL    HW255636   3.827   8.687  10.474  0.1381 -0.2156 -0.3326
17877SOL     OW55637  10.693   3.014   8.045  0.2507  0.3772  0.1753
17877SOL    HW155638  10.775   2.965   8.045 -0.2204 -0.4680 -0.8711
17877SOL    HW255639  10.716   3.099   8.006  0.9487  0.7782  1.4320
17878SOL     OW55640   6.283   7.383   5.326 -0.0578 -0.7647 -0.4916
17878SOL    HW155641   6.338   7.448   5.282 -1.3447  1.2948  0.7705
17878SOL    HW255642   6.195   7.421   5.323 -0.5460 -1.5508  1.9422
17879SOL     OW55643   6.327   9.910   5.341 -0.0160  0.4999  0.4038
17879SOL    HW155644   6.397   9.901   5.276 -0.5948 -1.3974 -0.0360
17879SOL    HW255645   6.372   9.904   5.425  0.6437  2.0790  0.1873
17880SOL     OW55646   2.020   6.595   3.670  0.5736 -0.0957  0.0666
17880SOL    HW155647   1.957   6.530   3.702  0.8401 -0.7758 -0.7749
17880SOL    HW255648   2.051   6.638   3.750  0.1296 -0.7563  0.6108
17881SOL     OW55649   3.593   1.677   4.093 -0.3378  0.1015  0.1721
17881SOL    HW155650   3.520   1.617   4.107 -0.1399  0.0472  1.0239
17881SOL    HW255651   3.621   1.659   4.003 -2.3280  1.2175 -0.7280
17882SOL     OW55652  10.898   0.678   1.212 -0.2985  0.2321 -0.1005
17882SOL    HW155653  10.819   0.663   1.265 -0.6726  0.0551 -0.7042
17882SOL    HW255654  10.927   0.766   1.238 -0.2501 -0.0020  0.6842
17883SOL     OW55655   0.271   9.467   4.519 -0.3517  0.5526 -0.5924
17883SOL    HW155656   0.303   9.552   4.548 -0.1965  0.1992  0.3152
17883SOL    HW255657   0.328   9.444   4.446  2.0963 -0.4056  1.4481
17884SOL     OW55658   7.556   8.192   9.659  0.6339 -0.4972  0.1371
17884SOL    HW155659   7.636   8.232   9.623  1.3941  0.4862  2.6874
17884SOL    HW255660   7.580   8.101   9.676  0.6857 -0.6179 -0.5440
17885SOL     OW55661   3.138  10.980   7.423 -0.1017  0.1357 -0.8566
17885SOL    HW155662   3.161  10.940   7.507 -1.9868  0.4683 -0.1298
17885SOL    HW255663   3.214  10.965   7.367  1.0350 -0.4343  0.7894
17886SOL     OW55664   6.612   2.194   3.644 -0.0128  0.4176  0.1199
17886SOL    HW155665   6.648   2.254   3.709  0.4864  0.7592 -0.4633
17886SOL    HW255666   6.566   2.250   3.582  2.6495  0.5918 -1.9245
17887SOL     OW55667   1.782  10.171   5.120 -0.3226 -0.0829  0.3084
17887SOL    HW155668   1.686  10.179   5.113 -0.1539  2.3270  0.0143
17887SOL    HW255669   1.813  10.261   5.122  2.1931 -0.7096 -2.8885
17888SOL     OW55670   7.421   2.144   7.441 -0.1476  0.5361  0.1628
17888SOL    HW155671   7.450   2.119   7.529  2.4397  1.9887 -0.1601
17888SOL    HW255672   7.373   2.226   7.453 -0.3790  0.3845  0.2778
17889SOL     OW55673   7.698   4.219   5.492 -0.2184 -0.2563  0.0988
17889SOL    HW155674   7.756   4.169   5.435 -0.3562  0.2148 -0.4644
17889SOL    HW255675   7.611   4.210   5.453 -0.0754  1.3077 -0.6516
17890SOL     OW55676   7.614   2.420   6.589  0.6710  0.4269 -0.4676
17890SOL    HW155677   7.614   2.515   6.582 -3.2728  0.5384 -1.1068
17890SOL    HW255678   7.594   2.389   6.501  2.4196 -1.1117 -0.3997
17891SOL     OW55679   4.291   2.411   2.650 -0.2647 -0.2410 -0.1771
17891SOL    HW155680   4.365   2.452   2.606 -0.7730  0.3723 -0.4704
17891SOL    HW255681   4.300   2.437   2.742 -1.4281  1.8386 -0.6023
17892SOL     OW55682   1.896   9.345   8.049  0.3329  0.6962 -0.4678
17892SOL    HW155683   1.822   9.292   8.020  1.2617 -0.8436 -0.1500
17892SOL    HW255684   1.856   9.420   8.092 -1.0555 -0.2527 -0.0297
17893SOL     OW55685   6.078   1.063   4.679 -0.0332 -0.1360 -0.1521
17893SOL    HW155686   5.998   1.017   4.653 -1.1946  1.6041  0.1998
17893SOL    HW255687   6.096   1.030   4.767 -1.8150  1.2276  0.7805
17894SOL     OW55688   0.267   5.268  10.233  0.0799 -0.0957 -0.2066
17894SOL    HW155689   0.232   5.318  10.306  0.1950 -0.8165  0.3532
17894SOL    HW255690   0.194   5.213  10.204  0.4220 -0.8092  0.2602
17895SOL     OW55691   0.777   0.901   5.601 -0.1421 -0.2395  0.0063
17895SOL    HW155692   0.829   0.828   5.634  1.7914  0.0703 -2.1661
17895SOL    HW255693   0.834   0.978   5.609 -0.7735  0.3771 -1.1301
17896SOL     OW55694   2.230   2.753   4.208 -0.1202  0.1102  0.0829
17896SOL    HW155695   2.246   2.845   4.190 -3.1090  0.6044 -0.5063
17896SOL    HW255696   2.208   2.714   4.123 -1.0654 -0.6222  0.6374
17897SOL     OW55697   7.616   3.403  10.766 -0.4818  0.4096  0.1580
17897SOL    HW155698   7.643   3.477  10.821  0.6309 -0.9302  1.5029
17897SOL    HW255699   7.581   3.339  10.828 -3.0224  0.4335 -1.1466
17898SOL     OW55700   4.330   2.372   9.247 -0.1318  0.3728 -0.2445
17898SOL    HW155701   4.321   2.414   9.333 -0.0564  0.5341 -0.3141
17898SOL    HW255702   4.371   2.439   9.193 -0.6366  0.4409 -0.5405
17899SOL     OW55703   3.603  10.815   7.016 -0.0349  0.2221 -0.2089
17899SOL    HW155704   3.625  10.885   6.954 -0.2004  1.2240  0.8273
17899SOL    HW255705   3.508  10.818   7.023 -0.0594 -0.2388 -0.2891
17900SOL     OW55706   3.967   3.235   1.529 -0.0091  0.5828 -0.2246
17900SOL    HW155707   3.950   3.292   1.604  0.9219  0.0209  0.4445
17900SOL    HW255708   3.883   3.227   1.485 -0.9699 -0.3209  1.6659
17901SOL     OW55709   5.881   4.418   8.207 -0.3786  0.1745 -0.0317
17901SOL    HW155710   5.789   4.390   8.211 -0.3831  0.3451  1.9682
17901SOL    HW255711   5.889   4.482   8.278  1.8914 -1.7909  1.6566
17902SOL     OW55712   3.409   5.545   5.036  0.3651  0.3189 -0.0594
17902SOL    HW155713   3.459   5.469   5.066  0.7763 -0.5412 -2.6899
17902SOL    HW255714   3.455   5.574   4.957 -1.1372  1.8768 -0.4189
17903SOL     OW55715   3.437   9.892   5.333 -0.3395 -0.5448 -0.0121
17903SOL    HW155716   3.407   9.826   5.271  0.3039 -0.8074 -0.0544
17903SOL    HW255717   3.497   9.947   5.282 -2.0830  1.0786 -0.4199
17904SOL     OW55718   9.651   7.851   2.066 -0.5467 -0.2720 -0.3298
17904SOL    HW155719   9.649   7.816   1.976 -1.0002 -1.7170  0.2136
17904SOL    HW255720   9.595   7.929   2.062 -0.1702 -0.0310 -1.4026
17905SOL     OW55721   9.472   2.577   1.325 -0.4680  0.1090  0.2813
17905SOL    HW155722   9.545   2.617   1.277 -0.1523  0.2442  0.8629
17905SOL    HW255723   9.405   2.562   1.258  0.5051 -1.0624 -0.4809
17906SOL     OW55724   4.854   5.362   4.824 -0.5863 -0.1849 -0.3095
17906SOL    HW155725   4.794   5.435   4.816 -0.0948  0.1461 -1.1541
17906SOL    HW255726   4.849   5.317   4.739  1.0388  0.4076 -0.7608
17907SOL     OW55727   0.591   7.084   2.217  0.1984  0.3423  0.2112
17907SOL    HW155728   0.602   6.991   2.238 -1.1611  0.4139  1.4098
17907SOL    HW255729   0.539   7.086   2.137 -1.2161  0.0499  1.0992
17908SOL     OW55730   4.481   6.118   6.715 -0.0750 -0.0860  0.5170
17908SOL    HW155731   4.526   6.202   6.699 -0.3971 -0.1219 -0.6659
17908SOL    HW255732   4.395   6.143   6.749 -1.2163  0.2199 -2.3525
17909SOL     OW55733   6.665   8.621   4.399  0.4270 -0.5203  0.3090
17909SOL    HW155734   6.697   8.696   4.449 -0.2364  1.5352 -2.0876
17909SOL    HW255735   6.570   8.635   4.394  0.2055 -1.9243  0.3947
17910SOL     OW55736   8.624   0.757   0.603 -0.0361  0.4797  0.3653
17910SOL    HW155737   8.598   0.780   0.514 -0.0069  0.0388  0.2422
17910SOL    HW255738   8.612   0.838   0.653 -1.3120  0.3834  0.2459
17911SOL     OW55739   4.494   3.925   9.916  0.3352  0.1686 -1.0036
17911SOL    HW155740   4.417   3.872   9.937  1.1004 -0.9050 -0.7829
17911SOL    HW255741   4.513   3.905   9.825  2.6520 -2.7719 -0.0576
17912SOL     OW55742   6.351   3.226   6.979 -0.4077 -0.3358  0.0531
17912SOL    HW155743   6.364   3.136   7.007 -2.0231 -0.8631 -0.7122
17912SOL    HW255744   6.310   3.218   6.893 -2.1860  1.0638  0.7030
17913SOL     OW55745   6.609   7.711   0.866 -0.3457 -0.3633  0.4098
17913SOL    HW155746   6.605   7.651   0.791  1.3531  1.6130 -1.4050
17913SOL    HW255747   6.693   7.692   0.907  0.0974  0.5724 -0.0383
17914SOL     OW55748   5.692  10.375  10.441  0.4423 -0.5630  0.8963
17914SOL    HW155749   5.772  10.326  10.421  1.4549  0.8360  1.3397
17914SOL    HW255750   5.654  10.330  10.516  0.1795 -1.9177 -0.0228
17915SOL     OW55751   7.458   0.174  10.549 -0.1599  0.7258  0.3530
17915SOL    HW155752   7.422   0.111  10.611 -0.9703  1.5210  0.7076
17915SOL    HW255753   7.550   0.181  10.573 -0.0185 -0.4180  0.2169
17916SOL     OW55754   1.251   3.248  10.055 -0.1050  0.5715  0.4194
17916SOL    HW155755   1.300   3.289  10.127  0.1651 -1.6245  1.5726
17916SOL    HW255756   1.231   3.320   9.996  2.8413  1.9006  0.8564
17917SOL     OW55757   4.653   4.563   7.550 -0.1273 -0.1854  0.5020
17917SOL    HW155758   4.665   4.491   7.612 -0.6975 -1.7218 -1.0954
17917SOL    HW255759   4.681   4.528   7.466  1.1096  2.0120 -0.0717
17918SOL     OW55760   5.154   2.275   7.941  0.3749  0.1012  0.1870
17918SOL    HW155761   5.233   2.329   7.932  0.2622  0.1095 -1.0020
17918SOL    HW255762   5.151   2.251   8.033  0.3049  2.3093  0.8131
17919SOL     OW55763   2.374   5.807   1.443 -0.0450  0.0626 -0.2494
17919SOL    HW155764   2.441   5.739   1.435  0.2909  0.3934 -0.2495
17919SOL    HW255765   2.302   5.775   1.389  1.2069  1.0527 -2.5982
17920SOL     OW55766   6.172   0.965   8.078  0.5264 -0.0947  0.3341
17920SOL    HW155767   6.201   1.037   8.020  1.8077 -0.7137  0.1551
17920SOL    HW255768   6.095   0.930   8.035  1.9707 -1.1437 -1.5893
17921SOL     OW55769   8.431   2.266   9.255 -0.0712 -0.1138 -0.6235
17921SOL    HW155770   8.338   2.245   9.252 -0.3453  1.1108 -1.0372
17921SOL    HW255771   8.469   2.212   9.185 -0.1705 -1.8788  0.6147
17922SOL     OW55772   0.825   5.309   2.244  0.2653 -0.4306 -0.0511
17922SOL    HW155773   0.817   5.329   2.150 -1.1893  0.1236  0.1627
17922SOL    HW255774   0.799   5.217   2.251  0.8600 -0.6163 -0.2510
17923SOL     OW55775   2.184   9.972  10.214  0.2180  0.1270 -0.2079
17923SOL    HW155776   2.145   9.885  10.210  0.3388 -0.0510  1.5736
17923SOL    HW255777   2.265   9.960  10.264  0.3171  1.2277 -0.0770
17924SOL     OW55778   8.451   7.385   2.884  1.0924 -0.2935 -0.4601
17924SOL    HW155779   8.522   7.325   2.905  1.1769 -0.5080 -1.3241
17924SOL    HW255780   8.376   7.329   2.864  0.7781 -0.0775  0.0880
17925SOL     OW55781   5.577   0.046   8.911  0.3345  0.5632 -0.1302
17925SOL    HW155782   5.630  -0.012   8.856  1.4803  0.2028  1.3118
17925SOL    HW255783   5.522  -0.013   8.963 -0.8479  0.9108 -0.9214
17926SOL     OW55784   7.096   2.627   9.752 -0.1611  0.1920 -0.1405
17926SOL    HW155785   7.136   2.713   9.760  0.6138 -0.0883 -0.7887
17926SOL    HW255786   7.004   2.641   9.770 -0.0339  1.1525 -0.2010
17927SOL     OW55787   6.308   1.377   9.759  0.0887 -0.7530  0.6558
17927SOL    HW155788   6.353   1.327   9.827  0.7112 -1.0863  0.0128
17927SOL    HW255789   6.329   1.331   9.678 -0.3957 -0.1868  0.2001
17928SOL     OW55790   0.297   4.940   6.421  0.1912  0.4902  0.4140
17928SOL    HW155791   0.337   5.010   6.370 -0.9445  0.8012 -0.0822
17928SOL    HW255792   0.283   4.978   6.508  0.6760  0.4811  0.4972
17929SOL     OW55793   5.447   9.168   1.776 -0.3486 -0.2225  0.4065
17929SOL    HW155794   5.415   9.141   1.690 -1.1375  0.4543  0.4715
17929SOL    HW255795   5.371   9.210   1.818  0.3776  0.5964  0.9362
17930SOL     OW55796   3.346   6.329   2.505 -0.4860 -0.3425 -0.6759
17930SOL    HW155797   3.336   6.256   2.444 -1.3502 -0.2404 -0.6665
17930SOL    HW255798   3.440   6.347   2.505 -0.1474 -1.9188 -0.1323
17931SOL     OW55799   7.998   1.879   3.810 -0.6745 -0.2341  0.1804
17931SOL    HW155800   8.023   1.817   3.879  0.2426 -1.4158 -1.1634
17931SOL    HW255801   8.061   1.863   3.740 -3.5656 -1.4481 -2.3344
17932SOL     OW55802   8.711   1.315   0.155  0.0953 -0.0887 -0.3265
17932SOL    HW155803   8.648   1.310   0.227 -0.0535 -0.7466 -0.4965
17932SOL    HW255804   8.797   1.310   0.197  0.0011 -1.0805 -0.2353
17933SOL     OW55805   3.750   9.631   4.811 -0.3494  0.1139 -0.2077
17933SOL    HW155806   3.684   9.682   4.857 -0.0329  1.3054 -1.0213
17933SOL    HW255807   3.716   9.542   4.810 -1.1659  0.4004  0.7937
17934SOL     OW55808   2.208   2.001   7.468 -0.2158 -0.0966 -0.3785
17934SOL    HW155809   2.228   2.044   7.385 -2.0647 -1.0052 -1.3534
17934SOL    HW255810   2.142   1.935   7.445 -0.8249 -0.3176  1.8323
17935SOL     OW55811   2.981   3.945   3.073  0.0763 -0.0651  0.0376
17935SOL    HW155812   3.014   4.028   3.040 -0.5631 -0.0516 -0.5935
17935SOL    HW255813   3.049   3.914   3.133  1.5017 -0.3022 -1.6300
17936SOL     OW55814   7.843   1.318   3.452 -0.1214 -0.2660  0.1554
17936SOL    HW155815   7.928   1.275   3.442 -0.1287 -0.5765  1.2426
17936SOL    HW255816   7.782   1.263   3.403  0.1011 -0.7457  0.4068
17937SOL     OW55817   0.412   3.694   8.364 -0.3617  0.4232 -0.3445
17937SOL    HW155818   0.327   3.651   8.356 -0.8128  1.0209  1.0552
17937SOL    HW255819   0.416   3.753   8.288 -1.4394  0.8015 -0.1167
17938SOL     OW55820   7.282   6.185   3.577 -0.1321  0.2180  0.5250
17938SOL    HW155821   7.266   6.111   3.517  0.1173 -0.7664  1.6472
17938SOL    HW255822   7.341   6.150   3.643 -0.4227  1.2868  1.3728
17939SOL     OW55823   0.691  10.492   8.579 -0.2455 -0.5350 -0.1792
17939SOL    HW155824   0.608  10.537   8.595 -0.2588 -0.6788  0.1740
17939SOL    HW255825   0.724  10.529   8.498 -0.7043 -0.5404 -0.3709
17940SOL     OW55826   0.309   5.357   6.760  0.9814 -0.4748 -0.2050
17940SOL    HW155827   0.232   5.307   6.783 -0.1835  1.4372  0.2899
17940SOL    HW255828   0.336   5.399   6.841  1.2688  0.5237 -0.7931
17941SOL     OW55829   9.960  10.875   2.590  0.2589 -0.4318  0.5366
17941SOL    HW155830  10.002  10.789   2.598 -1.4267 -1.2872  0.4943
17941SOL    HW255831   9.867  10.856   2.586 -0.2532  1.4959  2.0029
17942SOL     OW55832   0.684  10.896   4.255  0.0669  0.2953 -0.6754
17942SOL    HW155833   0.605  10.910   4.202 -1.3356 -1.1259  0.9054
17942SOL    HW255834   0.718  10.812   4.225  1.9975  1.6052 -2.4490
17943SOL     OW55835   7.241   7.490   7.779 -0.2157 -0.0118 -0.1656
17943SOL    HW155836   7.167   7.528   7.732 -0.3860 -1.5369 -1.2117
17943SOL    HW255837   7.201   7.435   7.847  0.0221  1.3291  1.1069
17944SOL     OW55838   3.615   1.795   0.475  0.8343 -0.1168  0.0312
17944SOL    HW155839   3.521   1.793   0.458  0.8440 -0.3861  0.0142
17944SOL    HW255840   3.655   1.797   0.388  0.8205  1.2201  0.0286
17945SOL     OW55841   3.723   6.700   0.594 -0.2021  0.4674  0.7378
17945SOL    HW155842   3.681   6.641   0.656 -2.3070 -0.5645 -1.4934
17945SOL    HW255843   3.805   6.656   0.571 -0.5013 -0.2889  1.0737
17946SOL     OW55844   4.229  10.003   3.077  0.6480 -0.4440 -0.6338
17946SOL    HW155845   4.178   9.953   3.012  0.3559  1.6153 -2.0918
17946SOL    HW255846   4.292   9.940   3.111 -0.4854 -2.1212 -1.4678
17947SOL     OW55847   5.123  10.779   0.438 -0.3411 -0.6189 -0.8979
17947SOL    HW155848   5.201  10.770   0.383  0.7574 -3.1474  0.8860
17947SOL    HW255849   5.151  10.751   0.525 -2.5652  1.1733  0.5162
17948SOL     OW55850   6.700  10.388   0.458 -0.2156  0.3002  0.1583
17948SOL    HW155851   6.609  10.378   0.485 -0.0479 -1.0280  0.2866
17948SOL    HW255852   6.722  10.306   0.414 -0.2938  2.1001 -3.6356
17949SOL     OW55853   4.461  10.987  10.313 -0.2919 -0.4632  0.1988
17949SOL    HW155854   4.478  10.901  10.274  1.2190  0.2983 -0.9204
17949SOL    HW255855   4.401  11.030  10.252 -0.0655 -0.2646  0.1156
17950SOL     OW55856   9.733   8.654  10.759  0.3348 -0.3410  0.0819
17950SOL    HW155857   9.727   8.606  10.677  1.3635 -0.0621 -0.1680
17950SOL    HW255858   9.730   8.746  10.734 -0.9799 -0.2378  0.5078
17951SOL     OW55859  10.571   9.765  10.143 -0.5033  0.2943 -0.1811
17951SOL    HW155860  10.506   9.770  10.073 -1.6219 -0.0669  0.8073
17951SOL    HW255861  10.523   9.731  10.218  1.2782 -2.0247  0.0254
17952SOL     OW55862   4.867   8.015   0.582 -0.0060  0.3461 -0.3819
17952SOL    HW155863   4.907   8.038   0.666  0.0768  0.4131 -0.4397
17952SOL    HW255864   4.802   7.948   0.604 -0.9236  1.3070 -0.0576
17953SOL     OW55865   1.276   9.471   0.073 -0.6075 -0.1124  0.7711
17953SOL    HW155866   1.266   9.440   0.163  0.8435  1.4051  1.5046
17953SOL    HW255867   1.254   9.564   0.077  2.6428  0.7828  0.3090
17954SOL     OW55868   2.206   3.481   9.400 -0.4480 -0.1341 -0.2657
17954SOL    HW155869   2.118   3.515   9.386 -0.7113 -0.8683 -0.4706
17954SOL    HW255870   2.193   3.399   9.447  0.2212  0.4318  0.9493
17955SOL     OW55871   4.050   0.139   1.708 -0.2054 -0.1433 -0.4011
17955SOL    HW155872   4.037   0.195   1.631  0.0748  0.9762  0.3336
17955SOL    HW255873   4.145   0.127   1.713 -0.0516  1.2666  0.7431
17956SOL     OW55874   9.584   3.285   8.555 -0.0432 -0.0445  0.4854
17956SOL    HW155875   9.619   3.259   8.469 -1.0689 -1.6228  0.5150
17956SOL    HW255876   9.662   3.296   8.610  0.5977  0.5421 -0.4993
17957SOL     OW55877   6.473   8.225   2.500 -0.0077 -0.2439 -0.0082
17957SOL    HW155878   6.524   8.206   2.578 -0.6029  1.1302  0.7498
17957SOL    HW255879   6.486   8.318   2.484  0.4940 -0.5896 -1.8558
17958SOL     OW55880   1.450   1.687   5.410 -0.4052 -0.2053 -0.3765
17958SOL    HW155881   1.395   1.691   5.488 -1.0429  0.0259 -0.8289
17958SOL    HW255882   1.400   1.634   5.348  0.2652 -0.6970 -0.4971
17959SOL     OW55883   4.778   4.850   2.319  0.0268 -0.0194 -0.0917
17959SOL    HW155884   4.716   4.780   2.298 -0.6653 -0.1262  2.1424
17959SOL    HW255885   4.756   4.877   2.408  1.4650  1.8084 -0.2246
17960SOL     OW55886   3.081   1.245   7.879 -0.2070  0.2199 -0.0949
17960SOL    HW155887   2.999   1.292   7.896  0.2582  1.3360 -0.8358
17960SOL    HW255888   3.118   1.287   7.801  1.1855 -0.1028  0.3538
17961SOL     OW55889   6.323   6.094   8.234  0.0013  0.9855  0.6154
17961SOL    HW155890   6.335   6.029   8.303 -1.4566  1.0163  0.9253
17961SOL    HW255891   6.272   6.163   8.275  0.5636  1.8060 -0.0336
17962SOL     OW55892   7.739   6.062   8.673  0.0013 -0.1131  0.2107
17962SOL    HW155893   7.660   6.064   8.619 -0.8640 -1.7208  1.3445
17962SOL    HW255894   7.724   6.130   8.739  1.0203  1.7912 -1.3977
17963SOL     OW55895   2.975   6.559   0.819  0.2318 -0.9935  0.7248
17963SOL    HW155896   2.980   6.501   0.743 -0.3068 -0.8029  0.5425
17963SOL    HW255897   2.969   6.647   0.781  2.0211 -0.7026  0.9904
17964SOL     OW55898   2.005   7.775   8.813  0.0752 -0.3001 -1.3473
17964SOL    HW155899   2.100   7.781   8.799  0.3307 -0.9117 -0.0512
17964SOL    HW255900   1.981   7.689   8.779  0.6745 -1.7343  1.5658
17965SOL     OW55901   4.365   3.650   1.380  0.0370  0.5924  0.5802
17965SOL    HW155902   4.289   3.593   1.397  0.6465 -1.2901 -2.2677
17965SOL    HW255903   4.337   3.705   1.307  1.1324  0.4612  0.0514
17966SOL     OW55904   0.732   3.072   0.446  0.2716 -0.0908 -0.1443
17966SOL    HW155905   0.680   2.992   0.437  0.4308 -0.3832  1.3589
17966SOL    HW255906   0.788   3.056   0.521  0.1651  1.5230  0.3095
17967SOL     OW55907   1.038  10.869  10.376  0.3075 -0.2613  0.4224
17967SOL    HW155908   1.022  10.960  10.349  2.4478  1.5925  4.6474
17967SOL    HW255909   0.957  10.844  10.421 -0.3709 -0.6258 -0.9334
17968SOL     OW55910   1.692   4.181   1.862 -0.4729 -0.3155 -0.2089
17968SOL    HW155911   1.688   4.260   1.916  3.7807 -1.4182  2.1546
17968SOL    HW255912   1.723   4.212   1.777  0.6291  0.6632  0.5211
17969SOL     OW55913   6.063  10.351  10.070 -0.0231 -0.3048  0.0709
17969SOL    HW155914   5.997  10.356  10.001 -1.0166 -0.4324  0.9750
17969SOL    HW255915   6.107  10.436  10.067  0.1779 -0.4294 -0.9192
17970SOL     OW55916   4.047   0.182   5.250 -0.1549 -0.1319 -0.6447
17970SOL    HW155917   4.031   0.276   5.259 -1.3155 -0.2682 -1.1490
17970SOL    HW255918   4.122   0.176   5.190  1.1248  0.4956  0.8243
17971SOL     OW55919   1.438   7.474   8.921  0.0347 -0.4167  0.1699
17971SOL    HW155920   1.432   7.385   8.955 -0.4688  0.1065  1.5126
17971SOL    HW255921   1.382   7.474   8.843  0.7577 -1.4918 -0.3819
17972SOL     OW55922   2.902   9.264   2.725  0.1610  0.3253 -0.1959
17972SOL    HW155923   2.944   9.193   2.677  0.0920  0.5193 -0.5485
17972SOL    HW255924   2.885   9.228   2.811  0.3360 -0.0110 -0.2990
17973SOL     OW55925   8.881   2.984   1.183 -0.9275 -0.1227 -0.2329
17973SOL    HW155926   8.924   2.950   1.105  0.5817  0.2839  0.3729
17973SOL    HW255927   8.933   2.949   1.256 -1.1489  1.0395  0.5107
17974SOL     OW55928   5.702   8.377   4.628 -0.7505  0.1405 -0.2591
17974SOL    HW155929   5.709   8.358   4.722  0.0369 -0.3502 -0.4148
17974SOL    HW255930   5.646   8.307   4.594  1.3229 -1.4185 -0.6503
17975SOL     OW55931   7.818   0.408   0.288  0.1444  0.2456 -0.0517
17975SOL    HW155932   7.850   0.322   0.263 -0.3985  0.5769 -2.0619
17975SOL    HW255933   7.798   0.401   0.382  3.2724 -0.7971  0.6626
17976SOL     OW55934   5.413   2.182   3.836  0.4939  0.6657 -0.1667
17976SOL    HW155935   5.339   2.160   3.893  0.8833 -0.4117 -0.0606
17976SOL    HW255936   5.411   2.278   3.830 -0.1485  0.7285  0.8480
17977SOL     OW55937   3.301  10.982   6.196 -0.2600 -0.2585  0.2118
17977SOL    HW155938   3.243  10.911   6.226 -1.0873  0.4689  0.3709
17977SOL    HW255939   3.281  10.991   6.103 -1.8424  1.2653  0.6428
17978SOL     OW55940   1.313   6.701   5.949  0.2083  0.2771  0.2381
17978SOL    HW155941   1.350   6.751   5.877  0.4118 -1.0599 -0.6157
17978SOL    HW255942   1.299   6.766   6.019  1.1437  1.3691 -0.5595
17979SOL     OW55943  11.005   1.573   0.949 -0.4821  0.2796 -0.1504
17979SOL    HW155944  10.965   1.587   0.863  0.4158  0.9157 -0.4710
17979SOL    HW255945  11.097   1.595   0.937  0.1468 -1.7765  0.4048
17980SOL     OW55946   3.697   5.245  10.445  0.2932  0.0998 -0.3494
17980SOL    HW155947   3.711   5.222  10.353 -0.5515 -1.4020 -0.1413
17980SOL    HW255948   3.618   5.300  10.444  0.6161  0.5608 -0.5736
17981SOL     OW55949   3.061   9.596   8.089 -0.2478  0.3254  0.0798
17981SOL    HW155950   3.065   9.690   8.070 -2.1743  0.7993  1.6482
17981SOL    HW255951   2.991   9.564   8.033 -1.5521  0.4557  1.5604
17982SOL     OW55952   6.089  10.595   2.176  0.4274  0.0449 -0.3719
17982SOL    HW155953   6.017  10.537   2.198  0.4966 -0.4023 -1.2755
17982SOL    HW255954   6.150  10.540   2.127  1.1639  0.5350 -0.0292
17983SOL     OW55955   3.694   8.431   3.617 -0.0671 -0.2221  0.4987
17983SOL    HW155956   3.687   8.423   3.712 -0.8126  0.1207  0.4771
17983SOL    HW255957   3.761   8.498   3.604 -0.1609 -0.0694  0.7859
17984SOL     OW55958   0.627   7.642   3.727 -0.6189  0.1380 -0.5591
17984SOL    HW155959   0.542   7.599   3.742 -0.5006  0.2777  0.6042
17984SOL    HW255960   0.679   7.619   3.804 -1.1257  3.7445  1.0297
17985SOL     OW55961   4.422   9.692   2.876  0.5050  0.2748  0.3096
17985SOL    HW155962   4.419   9.609   2.829  1.1901 -0.5907  1.7113
17985SOL    HW255963   4.371   9.752   2.822  2.2602 -0.2808 -2.1740
17986SOL     OW55964   1.571   3.080   4.605  0.2489 -0.4242 -0.2591
17986SOL    HW155965   1.660   3.096   4.637 -0.0527  1.0744 -0.0784
17986SOL    HW255966   1.516   3.094   4.682 -0.1694 -0.9587 -0.4611
17987SOL     OW55967   0.584   5.813   4.022  0.4445 -0.1529  0.4620
17987SOL    HW155968   0.659   5.754   4.011 -0.6457 -1.4513 -0.2769
17987SOL    HW255969   0.544   5.786   4.104 -0.6500 -1.1933 -0.3707
17988SOL     OW55970   4.757   8.637   0.762 -0.8974 -0.1008 -0.6493
17988SOL    HW155971   4.759   8.692   0.684 -1.1359  0.1419 -0.4849
17988SOL    HW255972   4.820   8.676   0.822  0.4787 -1.1996 -1.3201
17989SOL     OW55973   2.319   6.371   9.877 -0.4311  0.2600  0.2495
17989SOL    HW155974   2.325   6.278   9.899  0.2600  0.2193 -0.0806
17989SOL    HW255975   2.384   6.383   9.809 -0.4325  1.0163  0.3766
17990SOL     OW55976   5.474   8.797   8.242  0.5497 -0.0024  0.2036
17990SOL    HW155977   5.557   8.844   8.226  0.0216  1.3323  1.1721
17990SOL    HW255978   5.493   8.739   8.315  0.1192  1.9206  1.9456
17991SOL     OW55979   0.205   3.090   9.437 -0.0721  0.0027 -0.2407
17991SOL    HW155980   0.243   3.016   9.389  0.6510 -0.0155  0.3579
17991SOL    HW255981   0.179   3.151   9.368  1.4878  0.2327 -0.6547
17992SOL     OW55982   8.214   6.496   9.768  0.0067  0.2368 -0.1461
17992SOL    HW155983   8.119   6.490   9.756 -0.0712  1.8054 -0.3949
17992SOL    HW255984   8.227   6.576   9.818  1.3400  1.0377 -1.7152
17993SOL     OW55985   9.679   6.981   8.855  0.4205 -0.5540 -0.0054
17993SOL    HW155986   9.664   6.901   8.905 -0.0572  0.1503  1.0272
17993SOL    HW255987   9.740   7.032   8.910 -0.0858  0.2263 -0.1505
17994SOL     OW55988   9.110   8.254   9.527 -0.0549  0.4713 -0.2235
17994SOL    HW155989   9.167   8.294   9.460 -0.1411 -0.3541 -0.7977
17994SOL    HW255990   9.023   8.290   9.509 -0.0524  0.3535 -0.4672
17995SOL     OW55991   4.349   7.054   0.482  0.9176 -0.2594 -0.0566
17995SOL    HW155992   4.439   7.086   0.486  0.2373  1.6661  1.1199
17995SOL    HW255993   4.307   7.106   0.413  0.6634 -1.1396 -0.5972
17996SOL     OW55994   4.742   0.269   0.595 -0.3102  0.5995 -0.0658
17996SOL    HW155995   4.729   0.349   0.543  1.5554  0.0162 -1.5784
17996SOL    HW255996   4.830   0.280   0.633 -0.1939 -0.5582  0.0254
17997SOL     OW55997   0.367   6.234   8.237  0.3171  0.3311  0.5069
17997SOL    HW155998   0.294   6.257   8.295  0.7114 -0.8286  1.4918
17997SOL    HW255999   0.328   6.235   8.149 -1.2120 -1.3603  1.0904
17998SOL     OW56000   7.404   1.432   9.994 -0.2385 -0.3096  0.0570
17998SOL    HW156001   7.347   1.368   9.952 -0.4270 -1.3985  1.8556
17998SOL    HW256002   7.441   1.386  10.069  0.7846  1.2517  0.5647
17999SOL     OW56003   6.881   7.596   9.721 -0.2632  0.0589  0.2998
17999SOL    HW156004   6.842   7.636   9.643 -2.2819  2.4325  2.3216
17999SOL    HW256005   6.806   7.562   9.770  0.6658  0.5355  2.1422
18000SOL     OW56006   2.520   9.586   5.544  0.0244  0.0434  0.1540
18000SOL    HW156007   2.512   9.534   5.463  2.9178 -0.5365  0.1473
18000SOL    HW256008   2.613   9.607   5.550 -0.0792  0.0287  3.3849
18001SOL     OW56009   2.487   2.233   7.356  0.4021 -0.0146  0.4175
18001SOL    HW156010   2.475   2.296   7.426  1.0610 -0.0642  0.5855
18001SOL    HW256011   2.582   2.222   7.350  0.2741 -2.6234  1.8747
18002SOL     OW56012   3.267   0.345   3.802 -0.5007  0.2005 -0.1646
18002SOL    HW156013   3.353   0.382   3.786 -0.7739  0.4943 -0.9739
18002SOL    HW256014   3.219   0.413   3.849  0.1289 -0.4657  1.5204
18003SOL     OW56015   7.457  10.590  10.160 -0.4620 -0.3662 -0.0009
18003SOL    HW156016   7.452  10.498  10.187 -2.1873  0.3943  2.7195
18003SOL    HW256017   7.515  10.590  10.084  0.6567 -3.5177  0.7058
18004SOL     OW56018   5.400   8.170   9.114  0.3294  0.1641 -0.6995
18004SOL    HW156019   5.492   8.147   9.100 -0.2629 -1.4861 -2.2104
18004SOL    HW256020   5.379   8.230   9.043 -0.2602 -1.0195 -1.5520
18005SOL     OW56021   5.289   3.711   1.089  0.1660  0.7898  0.6190
18005SOL    HW156022   5.219   3.775   1.074 -0.7816 -0.3300  0.0273
18005SOL    HW256023   5.250   3.646   1.147 -0.2010 -1.1566 -1.6273
18006SOL     OW56024   6.551   5.818  10.272 -0.1529  0.5286 -0.9573
18006SOL    HW156025   6.466   5.775  10.271 -0.4991  1.1601 -0.3456
18006SOL    HW256026   6.612   5.750  10.301 -0.6208  0.3365 -0.3980
18007SOL     OW56027   7.720   4.757   5.064 -0.0412 -0.1633 -0.7750
18007SOL    HW156028   7.801   4.721   5.100  0.0738  1.6854  1.0203
18007SOL    HW256029   7.665   4.773   5.140 -2.1089 -1.2712 -1.9582
18008SOL     OW56030   8.209   1.394   0.317  0.0668 -0.1481 -0.3001
18008SOL    HW156031   8.232   1.359   0.404  0.4966  0.1686 -0.2850
18008SOL    HW256032   8.186   1.486   0.334  0.5868  0.0395 -0.5799
18009SOL     OW56033   9.537   2.700   9.345  0.2980  0.0346 -0.2898
18009SOL    HW156034   9.493   2.636   9.401  1.4455 -0.6351 -0.1076
18009SOL    HW256035   9.505   2.785   9.376  0.5663 -0.3376  1.1040
18010SOL     OW56036   4.950   2.042   0.771 -0.1442  0.4988  0.1126
18010SOL    HW156037   4.997   2.073   0.849  1.4755  0.7998 -0.9310
18010SOL    HW256038   4.916   2.122   0.730 -1.1871  0.3217  0.6179
18011SOL     OW56039   4.613   1.728   5.134 -0.2723 -0.0415 -0.4865
18011SOL    HW156040   4.525   1.695   5.154  0.4105 -0.8672  1.4228
18011SOL    HW256041   4.610   1.820   5.160 -0.5797 -0.0645 -0.4299
18012SOL     OW56042   7.771   7.365   5.521  0.3589 -0.4240  0.1091
18012SOL    HW156043   7.774   7.340   5.428 -0.8347 -1.1184  0.2416
18012SOL    HW256044   7.683   7.401   5.533  0.3350 -0.7881  1.0856
18013SOL     OW56045   2.580   6.826  10.493  0.3984  0.2718 -0.2279
18013SOL    HW156046   2.575   6.835  10.588  1.3297 -2.3209  0.1616
18013SOL    HW256047   2.501   6.779  10.468 -0.9930  2.8989 -1.1476
18014SOL     OW56048   3.541   4.600   0.147 -0.5316  0.1055 -0.1198
18014SOL    HW156049   3.575   4.663   0.210 -1.6345  3.0781 -2.2712
18014SOL    HW256050   3.448   4.594   0.166 -0.6722  0.1735 -0.7512
18015SOL     OW56051   4.231   2.505   4.778  0.7992  0.1376  0.1409
18015SOL    HW156052   4.272   2.485   4.862 -0.0429  2.5085  1.1924
18015SOL    HW256053   4.289   2.570   4.738 -1.1185  2.5867  1.0896
18016SOL     OW56054   7.088   1.633   5.512  0.0017 -0.8777  0.4847
18016SOL    HW156055   7.114   1.663   5.599  0.4717  1.4479 -0.3847
18016SOL    HW256056   6.997   1.660   5.503  0.3341  0.0541 -0.2007
18017SOL     OW56057   2.165   0.142   3.491 -0.3593  0.1381 -0.0542
18017SOL    HW156058   2.231   0.100   3.436  1.5039 -1.0389  2.8707
18017SOL    HW256059   2.213   0.210   3.539 -2.0437  1.5152 -0.2209
18018SOL     OW56060   5.475   1.123   6.991  0.1341  0.4362  0.1370
18018SOL    HW156061   5.540   1.139   7.060  1.6159 -0.1860 -1.0665
18018SOL    HW256062   5.482   1.030   6.973  0.0945  0.6655 -1.1475
18019SOL     OW56063   6.672   8.993   2.461  0.2511  0.0427 -0.0248
18019SOL    HW156064   6.727   8.938   2.517 -0.1608 -1.1779 -0.7952
18019SOL    HW256065   6.583   8.964   2.478  0.0271  0.4563 -0.4673
18020SOL     OW56066   2.963   7.194   6.648 -0.1919  0.5132 -0.2986
18020SOL    HW156067   2.948   7.237   6.564  2.1879 -0.0374 -1.0924
18020SOL    HW256068   2.971   7.101   6.627  0.8579  0.4128  0.4373
18021SOL     OW56069   6.701   1.478   0.924  0.4850 -0.3227 -0.1609
18021SOL    HW156070   6.781   1.531   0.916 -0.7421  1.5461 -0.5132
18021SOL    HW256071   6.640   1.518   0.863 -0.2077 -2.8108 -1.2215
18022SOL     OW56072   9.493   2.420  10.838 -0.3327  0.2208 -0.3061
18022SOL    HW156073   9.516   2.353  10.903 -0.6713  0.4533  0.0607
18022SOL    HW256074   9.461   2.371  10.763 -0.8452 -0.0185  0.0644
18023SOL     OW56075   9.518   2.508   1.941 -0.1252  0.5095 -0.0906
18023SOL    HW156076   9.537   2.554   1.859  1.0090  0.2209 -0.0125
18023SOL    HW256077   9.426   2.484   1.935 -0.9469  3.2405  0.0896
18024SOL     OW56078   7.590   2.121   0.507  0.4304  0.5981 -0.3439
18024SOL    HW156079   7.507   2.158   0.539  0.3550  0.4381 -0.3533
18024SOL    HW256080   7.618   2.182   0.440  0.5342  0.8769 -0.0481
18025SOL     OW56081   3.480   8.550   5.495 -0.8371 -0.2694 -0.0748
18025SOL    HW156082   3.487   8.612   5.569 -0.3034 -0.8637  0.3789
18025SOL    HW256083   3.502   8.465   5.533  3.5057 -0.0930 -1.6998
18026SOL     OW56084   3.440   7.677   3.130 -0.2414  0.8731 -0.6418
18026SOL    HW156085   3.424   7.669   3.036 -1.1187 -1.4208 -0.3515
18026SOL    HW256086   3.474   7.592   3.156 -1.3214  0.9930  1.3461
18027SOL     OW56087   3.456  10.876   5.223 -0.1469 -0.3694 -0.2920
18027SOL    HW156088   3.493  10.962   5.240 -0.4421 -0.1749 -0.6362
18027SOL    HW256089   3.532  10.818   5.215  0.1071  0.1181 -1.5064
18028SOL     OW56090   6.666   0.457   7.257  0.4504  0.5469  0.7388
18028SOL    HW156091   6.692   0.463   7.348  2.6404 -2.7081  0.4963
18028SOL    HW256092   6.748   0.457   7.208 -0.5702  0.4103 -1.0774
18029SOL     OW56093   3.736  10.598   3.864 -0.4082  0.3885  0.1809
18029SOL    HW156094   3.775  10.630   3.783 -0.7937  0.1473 -0.1006
18029SOL    HW256095   3.642  10.600   3.848 -0.4482 -0.7844  0.1973
18030SOL     OW56096   8.237   7.730  10.497  0.3173  0.2882 -0.5362
18030SOL    HW156097   8.217   7.806  10.551  0.8698  0.4763 -0.5868
18030SOL    HW256098   8.232   7.762  10.407  0.4082  0.2322 -0.5621
18031SOL     OW56099   8.021   0.343   9.862  0.2956  0.5052 -0.0447
18031SOL    HW156100   8.107   0.327   9.824 -0.4436 -1.5109 -0.9793
18031SOL    HW256101   7.982   0.410   9.806  0.8256  0.6366 -0.2640
18032SOL     OW56102   1.121   1.935   2.117 -0.5660 -0.1341 -0.4365
18032SOL    HW156103   1.153   2.024   2.102  0.1055 -0.1880  0.5758
18032SOL    HW256104   1.161   1.883   2.047  0.9165 -0.0397  0.3006
18033SOL     OW56105   8.267   4.480   7.646 -0.3340  0.0300  0.3626
18033SOL    HW156106   8.221   4.560   7.621 -0.0071 -0.1174 -0.7655
18033SOL    HW256107   8.325   4.462   7.572  1.3311  0.0561  1.6114
18034SOL     OW56108   7.082   1.630   0.393  0.4758  0.3632 -0.1313
18034SOL    HW156109   7.077   1.633   0.297 -2.1267 -0.5342 -0.0936
18034SOL    HW256110   7.109   1.718   0.418 -0.4693  1.1114 -1.6274
18035SOL     OW56111   0.303  10.696   0.697  0.1024  0.0317 -0.2169
18035SOL    HW156112   0.350  10.613   0.696 -0.4270 -0.2774  0.1368
18035SOL    HW256113   0.372  10.763   0.699  0.5382 -0.3693 -1.4482
18036SOL     OW56114   9.936   9.204   9.727 -0.4578  0.3235  0.1151
18036SOL    HW156115   9.844   9.225   9.713 -0.1309  2.2155  0.4881
18036SOL    HW256116   9.984   9.264   9.671  0.5795  0.4478  1.0807
18037SOL     OW56117   4.528   8.222   9.298  0.0619  0.3025  0.6895
18037SOL    HW156118   4.617   8.249   9.274  0.3728  0.4091  1.8683
18037SOL    HW256119   4.477   8.231   9.218  1.3098 -0.6667 -0.2472
18038SOL     OW56120   6.918   5.367  10.684  0.1242 -0.4354 -0.2562
18038SOL    HW156121   6.983   5.346  10.616  1.0132 -0.6779  0.6524
18038SOL    HW256122   6.925   5.462  10.695 -0.0124 -0.3968 -0.4926
18039SOL     OW56123   0.972   7.061   6.149  0.3067 -0.1160 -0.0435
18039SOL    HW156124   1.047   7.032   6.201  0.4646  1.3582  0.6156
18039SOL    HW256125   0.951   6.987   6.092  1.2315 -1.1409  0.9094
18040SOL     OW56126   5.928   8.310   0.815  0.5305 -0.0438  0.3298
18040SOL    HW156127   5.833   8.299   0.808  0.2896  0.6750  1.9594
18040SOL    HW256128   5.943   8.403   0.795  0.8305 -0.0477  0.5277
18041SOL     OW56129   2.854   0.410   0.998 -0.0220 -0.0941 -0.1647
18041SOL    HW156130   2.851   0.443   1.088  1.2032 -0.8531  0.1632
18041SOL    HW256131   2.774   0.445   0.958  0.4799  2.0487  0.5814
18042SOL     OW56132  10.902   9.265   4.044 -0.5994  0.0433  0.0096
18042SOL    HW156133  10.992   9.290   4.026 -0.1364 -0.6173  1.2997
18042SOL    HW256134  10.860   9.261   3.958  0.8109 -0.4489 -0.6721
18043SOL     OW56135   6.571   3.351  10.755  0.3790  0.0775 -0.4054
18043SOL    HW156136   6.497   3.294  10.733  0.2459  0.0141  0.1781
18043SOL    HW256137   6.635   3.335  10.686  1.4813 -2.8247  1.0973
18044SOL     OW56138   3.765   4.992   8.654  0.1332 -0.5112  0.0182
18044SOL    HW156139   3.719   5.059   8.704  1.5701  0.6004 -0.0902
18044SOL    HW256140   3.816   4.944   8.720  1.4097  0.4459 -0.2306
18045SOL     OW56141   3.457   8.435   6.136  0.4109 -0.1033  0.4987
18045SOL    HW156142   3.394   8.456   6.067 -0.3572 -0.9929  0.8964
18045SOL    HW256143   3.420   8.358   6.179  0.8650  0.4420  1.9124
18046SOL     OW56144   6.336   5.253   5.472  0.0536 -0.5512 -0.0287
18046SOL    HW156145   6.349   5.334   5.521 -0.2002 -1.1593  1.0668
18046SOL    HW256146   6.269   5.206   5.521 -2.2685 -0.0144 -2.3872
18047SOL     OW56147  10.111   6.021   9.843 -0.5726 -0.1375  0.4262
18047SOL    HW156148  10.195   6.057   9.872 -1.3004  0.9316  1.2770
18047SOL    HW256149  10.080   5.970   9.918 -1.4938  0.9252  0.7903
18048SOL     OW56150   4.112   4.860   7.957 -0.0592  0.5043 -0.5936
18048SOL    HW156151   4.142   4.943   7.993 -2.2662  0.9495  0.3604
18048SOL    HW256152   4.170   4.794   7.996 -1.1476  1.1622  2.3816
18049SOL     OW56153   0.624   6.289   0.905 -0.4301 -0.0912 -0.0947
18049SOL    HW156154   0.622   6.193   0.900 -1.0939 -0.0688 -0.3816
18049SOL    HW256155   0.667   6.308   0.988 -0.4551 -0.6429  0.0465
18050SOL     OW56156   4.334   1.606   0.861 -0.2362  0.2060  0.0809
18050SOL    HW156157   4.299   1.603   0.950 -1.9013  0.4464 -0.5294
18050SOL    HW256158   4.261   1.578   0.805 -0.2875  2.9517 -1.4617
18051SOL     OW56159   6.895   4.701   5.921  0.6859 -0.7701  0.9288
18051SOL    HW156160   6.826   4.722   5.984  1.1690 -1.1316  1.5877
18051SOL    HW256161   6.955   4.776   5.924 -1.1650  1.0275 -1.8546
18052SOL     OW56162   1.401   6.050   5.265 -0.1317 -0.2310  0.0497
18052SOL    HW156163   1.414   5.956   5.281 -3.7554 -0.8438  0.2157
18052SOL    HW256164   1.382   6.086   5.352 -2.5806 -0.1739 -0.4466
18053SOL     OW56165   8.163   7.526   6.078  0.2817  0.3918 -0.2752
18053SOL    HW156166   8.257   7.543   6.089  0.6668 -0.4640 -1.9310
18053SOL    HW256167   8.158   7.433   6.058 -1.0323  0.2391  0.6177
18054SOL     OW56168   3.767   7.302   3.223  0.4208 -0.2144  0.5446
18054SOL    HW156169   3.767   7.310   3.128  4.7052 -1.7595  0.1919
18054SOL    HW256170   3.759   7.208   3.239 -0.3081  0.0323  1.7702
18055SOL     OW56171   0.046   1.523   2.144 -0.5819 -0.2865  0.0972
18055SOL    HW156172   0.129   1.479   2.124 -1.2775 -2.0025  0.7817
18055SOL    HW256173   0.071   1.612   2.168  1.0140 -0.6367 -0.1388
18056SOL     OW56174   1.362   6.350   7.402 -0.4947  0.5343 -0.2682
18056SOL    HW156175   1.398   6.294   7.334 -0.7283  0.4422 -0.3170
18056SOL    HW256176   1.290   6.299   7.440  1.3100 -0.5611  1.8906
18057SOL     OW56177   8.416   6.658   4.145 -0.2919  0.2265 -0.1225
18057SOL    HW156178   8.443   6.625   4.231 -0.4595  0.4354  0.0112
18057SOL    HW256179   8.337   6.608   4.125 -0.5263  0.5176  0.0648
18058SOL     OW56180  10.942   3.947   7.654 -0.1048  0.2546  0.2992
18058SOL    HW156181  10.964   3.973   7.565 -4.3550  0.9543 -0.7996
18058SOL    HW256182  10.895   3.864   7.643  1.6697 -1.1029  2.2928
18059SOL     OW56183   8.389   5.740   4.622 -0.1563 -0.3408 -0.1864
18059SOL    HW156184   8.342   5.817   4.656  1.5406  0.2229  1.0516
18059SOL    HW256185   8.415   5.765   4.534 -0.3213  0.1923 -0.0908
18060SOL     OW56186   7.422   6.298   8.010 -0.0691 -0.8096  0.0468
18060SOL    HW156187   7.373   6.376   7.984 -0.4684 -0.9591  0.3227
18060SOL    HW256188   7.509   6.309   7.973 -0.6576 -1.0982 -1.4759
18061SOL     OW56189   4.248   6.086   9.159  0.0688  0.3055  0.0162
18061SOL    HW156190   4.281   5.997   9.168 -2.5352 -0.5327  3.6171
18061SOL    HW256191   4.282   6.132   9.235  0.2124  2.0594 -1.0440
18062SOL     OW56192  10.658   2.091   6.210  0.0218  0.4024  0.0621
18062SOL    HW156193  10.648   1.997   6.229 -0.9120 -0.1566 -2.7571
18062SOL    HW256194  10.586   2.110   6.149  0.0254  3.0536  0.8017
18063SOL     OW56195  10.510   7.538   2.261 -0.4626  0.8379 -0.2214
18063SOL    HW156196  10.592   7.523   2.215  0.2597 -0.1103  1.2762
18063SOL    HW256197  10.479   7.450   2.283 -2.5545  1.0903 -1.8166
18064SOL     OW56198   3.244   3.867   2.249 -0.0612  0.4239 -0.4789
18064SOL    HW156199   3.218   3.812   2.323  2.1338  1.6057  1.3132
18064SOL    HW256200   3.291   3.808   2.190  1.3247  0.0926  0.8897
18065SOL     OW56201   5.074   5.365  10.622 -0.2783  0.1782 -0.1876
18065SOL    HW156202   5.050   5.441  10.675 -3.8023 -1.0337  0.2106
18065SOL    HW256203   5.058   5.393  10.532  0.1141  0.4540 -0.1714
18066SOL     OW56204   4.713   3.137   3.530  0.3194 -0.6514 -0.1988
18066SOL    HW156205   4.715   3.176   3.617 -0.2989 -2.4614  0.6648
18066SOL    HW256206   4.735   3.210   3.471  0.3163  0.7098  1.4049
18067SOL     OW56207   2.242  10.243   4.814 -0.1267  0.3700  0.1444
18067SOL    HW156208   2.249  10.288   4.730  1.5310 -2.3101 -1.3070
18067SOL    HW256209   2.317  10.274   4.864  0.3750  0.0796 -0.4099
18068SOL     OW56210   2.433   3.938   3.596 -0.1457  0.0016 -0.2567
18068SOL    HW156211   2.381   3.862   3.570 -2.2071  1.9030 -2.0189
18068SOL    HW256212   2.522   3.904   3.605 -1.0513 -2.6757 -0.5666
18069SOL     OW56213   0.302  10.413   3.553 -0.3900  0.7870  0.4842
18069SOL    HW156214   0.378  10.398   3.497 -0.6709 -1.8641  0.6672
18069SOL    HW256215   0.336  10.466   3.625  1.7342 -1.5074  1.3255
18070SOL     OW56216   3.333   5.016   6.274 -0.1305 -0.1424 -0.7265
18070SOL    HW156217   3.283   4.984   6.198 -0.4734  0.6906 -0.8723
18070SOL    HW256218   3.272   5.010   6.347 -0.4293  0.7592 -0.8807
18071SOL     OW56219   1.815   8.919   8.149  0.7834  0.0523  0.2084
18071SOL    HW156220   1.845   8.828   8.154 -0.1547 -0.2882 -0.0375
18071SOL    HW256221   1.869   8.959   8.082  1.6095 -0.1571  0.7344
18072SOL     OW56222   2.418  10.896   1.062 -0.0014 -0.1427 -0.1482
18072SOL    HW156223   2.458  10.827   1.009  0.4689 -0.2004  0.2747
18072SOL    HW256224   2.491  10.955   1.083 -0.2203 -0.0257  0.2906
18073SOL     OW56225   2.318   5.271   5.170 -0.2704 -0.2611 -0.3213
18073SOL    HW156226   2.240   5.302   5.123 -1.3598 -0.2695  1.3875
18073SOL    HW256227   2.349   5.196   5.119 -0.6002  0.5076 -1.7213
18074SOL     OW56228   8.861  10.859   0.674 -0.0942  0.0699  0.0380
18074SOL    HW156229   8.778  10.887   0.713 -0.2786 -0.0186 -0.2840
18074SOL    HW256230   8.836  10.821   0.590  0.2440 -0.2614  0.0859
18075SOL     OW56231   1.052   3.237  10.819  0.1416  0.5746 -0.0551
18075SOL    HW156232   1.089   3.311  10.867 -2.0114  1.8034 -0.1521
18075SOL    HW256233   1.047   3.166  10.883  0.7766  0.9920  0.4710
18076SOL     OW56234   2.877   2.426   6.169 -0.0691 -0.2194  0.6090
18076SOL    HW156235   2.970   2.418   6.149  0.1072  0.3624  1.1651
18076SOL    HW256236   2.840   2.341   6.144 -0.1724  0.8690 -3.6353
18077SOL     OW56237   4.488   0.185  10.018  0.1100 -0.2128 -0.0908
18077SOL    HW156238   4.432   0.236   9.959 -0.2427  0.0197  0.4318
18077SOL    HW256239   4.508   0.246  10.089  0.8100 -0.3811 -0.1381
18078SOL     OW56240   4.331   5.047   1.342 -0.1758  0.3517 -0.0848
18078SOL    HW156241   4.238   5.028   1.330 -0.0674  0.7745 -1.7765
18078SOL    HW256242   4.351   5.112   1.275  1.0776  1.1894  1.0365
18079SOL     OW56243   5.523   2.961   1.932 -0.2796  0.0040 -0.4377
18079SOL    HW156244   5.538   2.992   2.021 -1.2288 -1.4413  0.2576
18079SOL    HW256245   5.492   3.039   1.885 -0.0901  0.7156  0.5754
18080SOL     OW56246   7.844   6.150   2.950  0.3135 -0.6433  0.0732
18080SOL    HW156247   7.807   6.094   2.881  2.2914  1.0819 -2.6093
18080SOL    HW256248   7.877   6.227   2.903 -0.6643  2.0030  3.3337
18081SOL     OW56249   6.954   6.237   4.385  0.5484 -0.3450 -0.1162
18081SOL    HW156250   6.914   6.188   4.314  1.2597 -0.5412 -0.3917
18081SOL    HW256251   7.048   6.219   4.377  0.7431  0.4631  0.2300
18082SOL     OW56252   3.771   2.460   7.947 -0.0606  0.3606 -0.5223
18082SOL    HW156253   3.752   2.490   7.858  1.5437 -1.6104 -1.6139
18082SOL    HW256254   3.767   2.540   8.000  0.8666  1.9753 -2.6973
18083SOL     OW56255   7.287   8.732   5.475  0.4328  1.4791 -0.4370
18083SOL    HW156256   7.236   8.779   5.541 -1.3505  0.4791 -1.0478
18083SOL    HW256257   7.356   8.688   5.525 -0.5457  1.1826  0.7042
18084SOL     OW56258   6.783   2.950   7.971  0.0061  0.3172  0.0054
18084SOL    HW156259   6.816   2.861   7.965  2.3987  1.2085 -1.0116
18084SOL    HW256260   6.850   2.997   8.021  0.6444  2.3155 -2.5598
18085SOL     OW56261   6.801  10.912   9.536  0.4684 -0.5621 -0.2741
18085SOL    HW156262   6.783  11.006   9.536  0.5647 -0.5188  0.9976
18085SOL    HW256263   6.758  10.879   9.457 -0.2227  0.4354 -0.3340
18086SOL     OW56264   3.030   9.026   7.289  0.5992 -0.1074 -0.0924
18086SOL    HW156265   3.044   8.937   7.257  1.2076 -0.8330  2.0490
18086SOL    HW256266   2.936   9.031   7.306  0.4761 -0.1246 -0.7135
18087SOL     OW56267   0.690  10.048   6.570  0.1905 -0.1031 -0.3911
18087SOL    HW156268   0.738  10.121   6.531  0.1453 -0.5251 -1.2473
18087SOL    HW256269   0.605  10.048   6.527 -0.7548  0.8343  1.3345
18088SOL     OW56270   4.736   8.517  10.150  0.2542  0.0919  0.0743
18088SOL    HW156271   4.748   8.425  10.174  0.9041  0.0115 -0.5332
18088SOL    HW256272   4.673   8.514  10.077  1.2242  0.0030 -0.7942
18089SOL     OW56273   6.957   9.037   2.579 -0.2508  0.5524 -0.2270
18089SOL    HW156274   7.047   9.068   2.586 -0.3742  0.9459 -0.3453
18089SOL    HW256275   6.915   9.064   2.660  0.6573 -2.8369  1.5559
18090SOL     OW56276   9.931   5.451   6.245 -0.4248  0.0044 -0.5983
18090SOL    HW156277   9.874   5.390   6.293 -2.2665  1.4457 -0.8333
18090SOL    HW256278   9.965   5.510   6.312 -3.4779  2.3989 -0.9201
18091SOL     OW56279   1.532   9.217   4.478  0.2457 -0.4399 -0.5930
18091SOL    HW156280   1.615   9.201   4.433 -0.1082 -1.2410 -0.9770
18091SOL    HW256281   1.477   9.143   4.454 -1.0800  0.7897 -1.4972
18092SOL     OW56282   6.838   7.554   0.101  0.3861 -0.2737  0.3038
18092SOL    HW156283   6.812   7.622   0.163  0.2852  0.0936 -0.1326
18092SOL    HW256284   6.766   7.491   0.104 -0.3905  0.5375 -0.5948
18093SOL     OW56285   6.893   0.490   3.976 -0.0088  0.3889  0.4359
18093SOL    HW156286   6.849   0.478   3.892 -1.6538 -0.3072  1.3342
18093SOL    HW256287   6.973   0.437   3.969 -1.4903 -1.9975  0.2424
18094SOL     OW56288  10.241   3.425   5.032 -0.3194 -0.5887 -0.5402
18094SOL    HW156289  10.222   3.332   5.045 -0.3800 -0.5848 -0.5974
18094SOL    HW256290  10.166   3.458   4.981  0.2157 -0.7432 -1.4503
18095SOL     OW56291   2.617   3.414   3.639 -0.1421 -0.5715  0.3832
18095SOL    HW156292   2.589   3.322   3.644 -0.6515 -0.4323  0.1831
18095SOL    HW256293   2.709   3.410   3.614  0.2243 -1.0626  1.6865
18096SOL     OW56294   3.761   0.648   0.896 -0.2089  0.7607 -0.1701
18096SOL    HW156295   3.694   0.668   0.831 -1.4754 -0.9668  0.5086
18096SOL    HW256296   3.742   0.706   0.969  0.4175  1.8045 -0.8196
18097SOL     OW56297   4.353   8.472   4.828 -0.2862  0.3490  0.3014
18097SOL    HW156298   4.414   8.512   4.890 -2.2168  0.5461  2.1633
18097SOL    HW256299   4.275   8.453   4.879 -0.3657 -3.7480 -1.0007
18098SOL     OW56300  10.771  10.573   4.667 -0.5001  0.5016 -0.3231
18098SOL    HW156301  10.848  10.610   4.712 -0.8771  0.7180  0.1489
18098SOL    HW256302  10.778  10.479   4.680 -1.0319  0.6097  0.9014
18099SOL     OW56303   9.926  10.022   8.247 -0.1022  0.6489 -0.6794
18099SOL    HW156304   9.930   9.926   8.252  1.8739  0.6134 -1.7880
18099SOL    HW256305   9.963  10.052   8.330  0.7528  0.3983 -0.9528
18100SOL     OW56306   3.937   1.440   1.415  0.2498 -0.2355 -0.4312
18100SOL    HW156307   3.948   1.431   1.510 -0.2417 -1.5812 -0.4729
18100SOL    HW256308   3.983   1.521   1.393  0.9603 -0.2575  0.8499
18101SOL     OW56309   1.240   6.266   6.038 -0.5127 -0.1980 -0.8527
18101SOL    HW156310   1.304   6.196   6.050 -1.4745 -1.0609 -0.6479
18101SOL    HW256311   1.290   6.347   6.050  0.0288 -0.8628  2.0501
18102SOL     OW56312   1.845   5.458   8.561  0.1022 -0.0064  0.3875
18102SOL    HW156313   1.911   5.516   8.599 -0.8859  0.7377  1.0043
18102SOL    HW256314   1.780   5.516   8.524  0.2896 -0.7343 -1.1697
18103SOL     OW56315   0.902   6.561   0.725 -0.3487  0.0510  0.3891
18103SOL    HW156316   0.808   6.560   0.746 -0.6484  0.0044 -0.8505
18103SOL    HW256317   0.918   6.649   0.690 -0.5263 -0.7045 -1.7630
18104SOL     OW56318  10.688   3.853   7.085 -0.2531  0.5532  0.4393
18104SOL    HW156319  10.748   3.804   7.029  0.4353  1.7694  0.0962
18104SOL    HW256320  10.663   3.929   7.034 -2.2201  0.0129  0.5290
18105SOL     OW56321   6.141   8.550   7.929 -0.1907  0.8973  0.3900
18105SOL    HW156322   6.161   8.465   7.890  1.2016  0.8382  1.1645
18105SOL    HW256323   6.086   8.594   7.864 -1.4351 -0.8052  0.2545
18106SOL     OW56324  10.780   8.427  10.760 -0.5187  0.4344  0.1268
18106SOL    HW156325  10.706   8.400  10.813  0.6143 -0.8494  1.1260
18106SOL    HW256326  10.758   8.399  10.671  0.0537 -2.8756  0.8982
18107SOL     OW56327   1.314   2.618   9.772 -0.5956  0.7217  0.3748
18107SOL    HW156328   1.279   2.699   9.810 -0.6167  1.2361 -0.7122
18107SOL    HW256329   1.243   2.586   9.716 -0.2071  0.4965  0.0108
18108SOL     OW56330  10.626   5.888   8.903 -0.2183 -0.2437 -0.2457
18108SOL    HW156331  10.565   5.882   8.829 -0.0115  0.2599 -0.4559
18108SOL    HW256332  10.681   5.963   8.883  1.1487 -1.2885 -0.5637
18109SOL     OW56333   4.884  10.226   2.570 -0.0544  0.0013 -0.1548
18109SOL    HW156334   4.824  10.266   2.507  0.6775  0.8041 -0.3560
18109SOL    HW256335   4.933  10.299   2.607  0.7533 -0.6328  0.0557
18110SOL     OW56336   9.053   1.895   5.933 -0.0349  0.7141 -0.1845
18110SOL    HW156337   9.047   1.889   6.029  0.5634 -0.3280 -0.1917
18110SOL    HW256338   9.146   1.907   5.916 -0.0569  0.2625 -0.6489
18111SOL     OW56339   9.279   6.562   2.807 -0.3150  0.1783  0.1066
18111SOL    HW156340   9.366   6.593   2.783 -0.5441  0.3080 -0.5975
18111SOL    HW256341   9.264   6.595   2.895  0.9320 -1.0691  0.8329
18112SOL     OW56342   4.409   2.459   8.980 -0.6182  0.1409 -0.1099
18112SOL    HW156343   4.420   2.468   8.885 -0.3635  0.1975 -0.0761
18112SOL    HW256344   4.358   2.378   8.991  0.4930 -0.5939 -0.2354
18113SOL     OW56345   1.977   5.879   1.511  0.0551 -0.9139  0.5745
18113SOL    HW156346   1.979   5.957   1.566 -0.6001 -0.7569  0.3836
18113SOL    HW256347   1.956   5.807   1.571 -0.0092 -0.8425  0.6361
18114SOL     OW56348   3.890   7.926   3.464 -0.2243  0.1992 -0.1669
18114SOL    HW156349   3.946   7.860   3.425 -0.6525  0.6636 -1.6111
18114SOL    HW256350   3.938   8.008   3.455 -0.6054  0.4104 -0.3153
18115SOL     OW56351   9.570   8.088   3.345 -0.3462  0.0596 -0.3767
18115SOL    HW156352   9.497   8.147   3.329 -0.7733 -0.8009 -1.7533
18115SOL    HW256353   9.530   8.004   3.366  0.2427 -0.2545 -0.4724
18116SOL     OW56354   7.961   5.958   7.308  0.7182 -0.2749 -0.2426
18116SOL    HW156355   7.988   5.952   7.216 -0.2428  0.3203 -0.5721
18116SOL    HW256356   8.038   5.994   7.352  1.7461 -1.9821 -0.5205
18117SOL     OW56357   0.952   6.626   3.751 -0.2897  0.0249 -0.3196
18117SOL    HW156358   0.920   6.537   3.732  1.7208 -0.9460  0.5529
18117SOL    HW256359   0.898   6.655   3.825 -1.1986 -0.3122 -0.8343
18118SOL     OW56360   1.775   9.475   6.858  0.2666 -0.5799  0.0037
18118SOL    HW156361   1.752   9.402   6.916  3.1874 -0.1153  1.9408
18118SOL    HW256362   1.816   9.540   6.916  1.1604  0.9876 -2.2483
18119SOL     OW56363   8.134   6.570   1.328  0.4075 -0.0976 -0.3119
18119SOL    HW156364   8.086   6.652   1.337 -1.0664 -0.8608 -0.8609
18119SOL    HW256365   8.141   6.556   1.234  1.5305 -0.1326 -0.2426
18120SOL     OW56366   5.303   6.416   4.891 -0.2437 -0.0701 -0.0074
18120SOL    HW156367   5.291   6.379   4.979  1.7705 -0.4174  0.1580
18120SOL    HW256368   5.272   6.347   4.832 -0.5393 -0.2947  0.4074
18121SOL     OW56369   6.198   0.469   5.458 -0.3139  0.0920  0.3467
18121SOL    HW156370   6.187   0.563   5.469 -3.1483 -0.0452 -0.4642
18121SOL    HW256371   6.212   0.436   5.547 -2.9511  0.9609  1.1819
18122SOL     OW56372   2.486   6.882   0.783 -0.2505  0.5318  0.1718
18122SOL    HW156373   2.455   6.911   0.869 -1.5700 -2.9544  1.0321
18122SOL    HW256374   2.414   6.905   0.723 -1.3017 -0.8681  0.8377
18123SOL     OW56375   1.654   0.050   8.745 -0.3506  0.0535  0.0294
18123SOL    HW156376   1.653   0.122   8.808 -1.0867  1.5797 -1.6153
18123SOL    HW256377   1.699   0.087   8.668 -0.0977 -1.4970 -0.6021
18124SOL     OW56378   1.800   8.225   6.811  0.1297 -0.9277  0.2438
18124SOL    HW156379   1.712   8.251   6.837  0.1436 -1.4899  0.8644
18124SOL    HW256380   1.847   8.212   6.893  0.9689 -0.0823 -0.0794
18125SOL     OW56381   2.497   8.911   0.830 -0.4011 -0.2440  0.0513
18125SOL    HW156382   2.573   8.872   0.787 -0.5451 -2.3872  1.5717
18125SOL    HW256383   2.432   8.841   0.831 -1.2918  0.5638  1.4668
18126SOL     OW56384   1.935   4.432   8.459  0.4321  0.0744  0.2749
18126SOL    HW156385   1.922   4.512   8.410 -0.9131 -0.1073  0.2960
18126SOL    HW256386   2.000   4.383   8.409 -0.2602  0.2779 -0.8640
18127SOL     OW56387   5.042   3.757   3.977  0.8119  0.4770 -0.1253
18127SOL    HW156388   5.079   3.843   3.956 -1.6860  1.0541 -2.8188
18127SOL    HW256389   4.968   3.776   4.035  0.0445  0.2609 -0.9955
18128SOL     OW56390   4.368   2.514   5.329  0.0088  0.2194 -0.4739
18128SOL    HW156391   4.424   2.439   5.309  1.8424  1.1748  0.7962
18128SOL    HW256392   4.352   2.507   5.424 -0.5473  0.9420 -0.5076
18129SOL     OW56393  10.535   9.905   8.291  0.1126 -0.1554  0.0192
18129SOL    HW156394  10.460   9.951   8.330 -1.0601 -2.1190  0.2599
18129SOL    HW256395  10.605   9.970   8.289 -1.5602  1.7570 -0.1330
18130SOL     OW56396   3.699   2.480   2.950  0.2112 -0.2660 -0.3852
18130SOL    HW156397   3.693   2.515   3.039  0.2300 -1.2836  0.0290
18130SOL    HW256398   3.609   2.456   2.928  0.6227 -3.2877  0.7530
18131SOL     OW56399   0.514   7.657   0.920 -0.0592 -1.0465  0.1100
18131SOL    HW156400   0.464   7.662   1.001 -1.9603 -0.2018 -1.0382
18131SOL    HW256401   0.456   7.610   0.859 -1.3058  3.1477 -2.3893
18132SOL     OW56402   5.352  10.763   8.598 -0.3655 -0.1548 -0.1747
18132SOL    HW156403   5.370  10.683   8.548  1.0540  1.4807 -2.4752
18132SOL    HW256404   5.388  10.746   8.684  0.5541 -1.7333 -0.8275
18133SOL     OW56405   0.154   0.310   7.463 -0.0214 -0.2101  0.2065
18133SOL    HW156406   0.210   0.264   7.400  0.4840  0.7501 -0.0765
18133SOL    HW256407   0.157   0.401   7.434 -0.4340  0.1141  1.1618
18134SOL     OW56408   5.618   8.371   1.044  0.4502  0.1398  0.3296
18134SOL    HW156409   5.639   8.374   0.951  2.7497 -1.4345  0.6886
18134SOL    HW256410   5.695   8.410   1.086  0.1967 -0.6983  1.6148
18135SOL     OW56411   2.694   6.655   6.277  0.2815 -0.0692  0.1341
18135SOL    HW156412   2.652   6.571   6.256 -1.1621  0.7733 -0.4871
18135SOL    HW256413   2.786   6.633   6.291 -0.3360 -2.0143  1.5824
18136SOL     OW56414   4.610   0.095   2.577  0.8613  0.1721  0.0875
18136SOL    HW156415   4.690   0.146   2.590  0.1348  1.6985 -1.0814
18136SOL    HW256416   4.621   0.054   2.491  1.2037 -1.2088  0.7809
18137SOL     OW56417   5.652   3.332   0.143 -0.2586 -0.2540 -0.5333
18137SOL    HW156418   5.673   3.308   0.053 -0.8563 -1.6832 -0.3182
18137SOL    HW256419   5.662   3.428   0.145  1.4661 -0.3536 -1.6512
18138SOL     OW56420   9.050   0.297   2.557  0.0914  0.4171 -0.0029
18138SOL    HW156421   9.127   0.311   2.613  0.7604 -0.1369 -0.7622
18138SOL    HW256422   8.977   0.333   2.608  0.6535 -0.1986  1.2985
18139SOL     OW56423   2.910   6.948   2.451  0.1200  0.2306  0.4606
18139SOL    HW156424   2.978   6.893   2.411 -0.5517  0.2969 -0.8358
18139SOL    HW256425   2.938   7.038   2.433 -0.2364  0.2587  0.0090
18140SOL     OW56426   6.464   4.629   0.403  0.4214 -0.0727 -0.0559
18140SOL    HW156427   6.417   4.551   0.434  0.8516  0.0025  0.8146
18140SOL    HW256428   6.520   4.654   0.477 -0.0969  1.3799 -0.1413
18141SOL     OW56429   2.222  10.555   2.453  0.4494  0.0679 -0.4930
18141SOL    HW156430   2.128  10.570   2.462  0.3577 -0.3696 -0.7005
18141SOL    HW256431   2.261  10.640   2.473  0.0061  0.2845 -0.5158
18142SOL     OW56432   0.208  10.517   6.866  0.1711 -0.3807 -0.4066
18142SOL    HW156433   0.122  10.489   6.834  0.4528  1.6244 -3.2915
18142SOL    HW256434   0.191  10.549   6.954 -1.6971 -1.5225 -0.2775
18143SOL     OW56435   6.642   3.565   3.498 -0.1746  0.3598  0.2552
18143SOL    HW156436   6.635   3.519   3.582 -0.9702 -1.7730 -0.9091
18143SOL    HW256437   6.618   3.655   3.518 -0.7983 -0.1882  2.2304
18144SOL     OW56438   0.451   7.191   8.069 -0.3355 -0.3381 -0.4357
18144SOL    HW156439   0.511   7.263   8.089  3.4688 -2.6709 -2.2127
18144SOL    HW256440   0.490   7.115   8.112 -1.4551 -2.1738 -2.4624
18145SOL     OW56441   3.683   3.143   2.761  0.3183  0.1004  0.1769
18145SOL    HW156442   3.705   3.055   2.731 -0.0607  0.3119 -0.7518
18145SOL    HW256443   3.679   3.196   2.681  0.4186  0.9337  0.7117
18146SOL     OW56444   1.617   8.761   9.358  0.2386 -0.0538  0.1417
18146SOL    HW156445   1.637   8.815   9.434 -1.9663  0.7283  0.2482
18146SOL    HW256446   1.622   8.671   9.390 -1.2677  0.2756  1.4362
18147SOL     OW56447   3.310   8.342   1.008 -0.5512  0.0626  0.4734
18147SOL    HW156448   3.344   8.287   1.078  0.5156  0.7261  0.4974
18147SOL    HW256449   3.268   8.280   0.948  0.6871 -0.8146  0.4523
18148SOL     OW56450   4.641   3.701   9.311 -0.2483 -0.2396  0.0401
18148SOL    HW156451   4.682   3.755   9.378  1.6607 -1.0088 -0.4337
18148SOL    HW256452   4.562   3.749   9.286  0.6899  1.6766  0.5437
18149SOL     OW56453   6.011  10.019   9.834  0.6002  0.2119  0.0090
18149SOL    HW156454   5.923  10.013   9.797  0.1539 -1.6556  1.2436
18149SOL    HW256455   6.069  10.001   9.759 -0.1731 -0.8384 -0.3646
18150SOL     OW56456   9.637   9.359   4.485 -0.0074 -0.3097 -0.1020
18150SOL    HW156457   9.660   9.273   4.518 -2.1998 -1.5548 -1.5653
18150SOL    HW256458   9.651   9.418   4.559  0.9208 -2.0091  1.1296
18151SOL     OW56459   1.703  10.789   5.053 -0.0929 -0.4055  0.2349
18151SOL    HW156460   1.754  10.856   5.008 -0.7227  0.5587  0.9044
18151SOL    HW256461   1.689  10.721   4.987  1.6442 -0.4986 -0.0864
18152SOL     OW56462   9.731   9.217   6.572 -0.2009 -0.3685  0.1935
18152SOL    HW156463   9.785   9.293   6.593 -0.2005 -0.5437  0.8405
18152SOL    HW256464   9.684   9.198   6.652 -1.9736  0.3638 -0.6314
18153SOL     OW56465   4.745  10.403   0.312 -0.4312  0.2128 -0.2388
18153SOL    HW156466   4.755  10.370   0.401  0.2470  1.0816  0.0290
18153SOL    HW256467   4.763  10.497   0.319  0.1671  0.2025 -1.3761
18154SOL     OW56468   4.083   1.267   2.653 -0.2961  0.4239 -0.0868
18154SOL    HW156469   4.041   1.313   2.725  1.0823 -0.6584  1.5003
18154SOL    HW256470   4.168   1.311   2.643  0.1794 -0.4431  0.0538
18155SOL     OW56471   8.432   4.103   4.562 -0.4533  0.1279  0.2515
18155SOL    HW156472   8.430   4.039   4.492 -1.1007 -0.4048  0.7437
18155SOL    HW256473   8.340   4.126   4.576 -0.3849 -0.1669  1.2661
18156SOL     OW56474   1.666   8.630   8.891  0.0281  0.7821  0.1264
18156SOL    HW156475   1.753   8.642   8.855 -0.0866  0.1885 -0.3735
18156SOL    HW256476   1.674   8.656   8.983  0.6273  1.1127 -0.0151
18157SOL     OW56477   8.296   6.883   5.473 -0.0469  0.8321  0.0158
18157SOL    HW156478   8.228   6.866   5.538  0.2326  0.4426  0.2104
18157SOL    HW256479   8.277   6.822   5.402  0.0472  0.7830  0.0330
18158SOL     OW56480   8.478   9.846   2.190 -0.0020  0.3581 -0.4928
18158SOL    HW156481   8.474   9.810   2.278 -0.4548  2.1191  0.2426
18158SOL    HW256482   8.567   9.828   2.160  0.7096  1.2618  1.0083
18159SOL     OW56483  10.066   5.692   7.253 -0.5403 -0.1616  0.2164
18159SOL    HW156484  10.001   5.747   7.209 -0.3674 -0.6484 -0.6715
18159SOL    HW256485  10.029   5.676   7.340 -0.9688  0.6828  0.1986
18160SOL     OW56486  10.607   6.935  10.557  0.0648  0.4968 -0.3154
18160SOL    HW156487  10.589   6.920  10.464  1.7849  1.5753 -0.8591
18160SOL    HW256488  10.696   6.904  10.570 -0.3479 -0.2062  1.1510
18161SOL     OW56489   2.618   9.206   6.583 -0.7170 -0.0853  0.0355
18161SOL    HW156490   2.631   9.172   6.672  1.4349  0.1530 -0.1345
18161SOL    HW256491   2.693   9.174   6.534 -0.3001  2.1980 -0.9424
18162SOL     OW56492   4.826   0.929   2.867 -0.2800  0.6604 -0.7556
18162SOL    HW156493   4.814   1.023   2.856 -0.9233  0.5351 -1.1706
18162SOL    HW256494   4.915   0.920   2.901 -0.7622  1.5133  0.7850
18163SOL     OW56495   1.499   0.183   1.963 -0.4687  0.4906  0.1425
18163SOL    HW156496   1.510   0.112   2.026 -4.2802 -0.2751  0.2257
18163SOL    HW256497   1.440   0.244   2.006  0.0898  2.0572 -1.1961
18164SOL     OW56498   5.013  10.552   0.653  0.0131 -0.0534 -0.2636
18164SOL    HW156499   5.003  10.457   0.645 -1.0085  0.1639 -2.5551
18164SOL    HW256500   4.929  10.583   0.687  0.7021 -0.0197  1.4901
18165SOL     OW56501   6.179   8.519   5.008  0.3979 -0.1847  0.0851
18165SOL    HW156502   6.270   8.505   5.037  0.0006  0.7060  1.9027
18165SOL    HW256503   6.147   8.590   5.064 -1.2252 -0.0361 -0.9797
18166SOL     OW56504   4.581   3.028   2.822  0.2481  0.3115  0.4621
18166SOL    HW156505   4.518   2.956   2.825  0.3003  0.2891  1.9629
18166SOL    HW256506   4.600   3.040   2.729 -0.9297 -0.5837  0.0792
18167SOL     OW56507   9.149   7.006   0.781 -0.5314  0.4924  0.5550
18167SOL    HW156508   9.183   6.970   0.699 -1.9351  1.3901 -0.4641
18167SOL    HW256509   9.218   7.066   0.812  0.4792 -0.6702  0.6519
18168SOL     OW56510   8.337   9.658   5.783 -0.0404  0.1061  0.0872
18168SOL    HW156511   8.262   9.607   5.813  0.5111 -0.1531  1.0474
18168SOL    HW256512   8.369   9.610   5.707 -2.4054  1.6117 -2.0474
18169SOL     OW56513  10.288   4.462   0.084  0.0582 -0.1606 -0.0161
18169SOL    HW156514  10.196   4.486   0.092  0.2613  1.4195 -1.7607
18169SOL    HW256515  10.321   4.462   0.174 -1.2470  0.9992  0.4924
18170SOL     OW56516   0.156   3.091   7.741 -0.4343  0.3492  0.1593
18170SOL    HW156517   0.088   3.115   7.678  1.6399  0.6584 -2.1352
18170SOL    HW256518   0.228   3.151   7.721  0.6154 -0.1081  2.3211
18171SOL     OW56519   9.006   8.747   5.093 -0.7641  0.2035  0.0812
18171SOL    HW156520   9.056   8.671   5.123 -0.9146  0.2894  0.5558
18171SOL    HW256521   8.939   8.710   5.035  0.2620  0.1543 -1.1169
18172SOL     OW56522  10.778   5.530   6.251 -0.6414 -0.4495  1.0087
18172SOL    HW156523  10.721   5.585   6.198  1.4116 -0.8340 -1.8284
18172SOL    HW256524  10.718   5.471   6.298 -2.6593  1.3701  0.8736
18173SOL     OW56525   5.462   1.870   6.638  0.4764 -0.1715 -0.2291
18173SOL    HW156526   5.557   1.878   6.634  0.4494 -0.1377 -1.1317
18173SOL    HW256527   5.430   1.958   6.657  0.6217 -0.1641 -0.0224
18174SOL     OW56528   5.131   2.751   2.074 -0.3836 -0.2112  0.3437
18174SOL    HW156529   5.222   2.770   2.055  0.3983 -0.5869  3.1877
18174SOL    HW256530   5.097   2.833   2.112 -0.4433 -0.8020  1.6307
18175SOL     OW56531   5.220   2.478   1.647 -0.1094  0.4263 -0.1711
18175SOL    HW156532   5.239   2.473   1.554  0.7303 -0.3685  0.0252
18175SOL    HW256533   5.150   2.542   1.654  1.1167  1.9351 -1.1553
18176SOL     OW56534   2.810   7.558  10.365 -0.3341 -0.3674 -0.0489
18176SOL    HW156535   2.904   7.570  10.377 -0.4848  0.0916  0.6961
18176SOL    HW256536   2.796   7.573  10.271  0.2572  0.0643 -0.0724
18177SOL     OW56537   0.425   5.749   6.190  0.1677 -0.1718 -0.0494
18177SOL    HW156538   0.411   5.844   6.192  0.2499 -0.1711  1.6726
18177SOL    HW256539   0.351   5.713   6.239  1.2622 -0.8268  1.1774
18178SOL     OW56540   4.911   1.371   5.883 -0.1479 -0.0534 -0.0267
18178SOL    HW156541   4.930   1.334   5.969  1.3920  0.7897  0.0387
18178SOL    HW256542   4.921   1.298   5.822 -2.5640 -0.9789  0.5830
18179SOL     OW56543   5.668   9.018   1.544  0.0100 -0.5561  0.1290
18179SOL    HW156544   5.753   9.052   1.516 -0.2600 -1.0010 -1.2515
18179SOL    HW256545   5.672   9.022   1.640  1.3576 -0.0256  0.0735
18180SOL     OW56546   7.222   7.197   5.008 -0.2632  0.3511 -0.1984
18180SOL    HW156547   7.298   7.251   5.031 -0.5003  0.6310 -0.0675
18180SOL    HW256548   7.253   7.107   5.017  0.6095  0.4342 -1.9032
18181SOL     OW56549   7.278   8.907   4.958  0.2754  0.4507 -0.3414
18181SOL    HW156550   7.266   8.845   4.885 -2.1605  1.0468 -0.5380
18181SOL    HW256551   7.201   8.894   5.012  0.4579  2.2770  0.4184
18182SOL     OW56552  10.548   8.565   2.235  0.0763 -0.2982  0.2200
18182SOL    HW156553  10.526   8.634   2.172  0.3156 -2.2632 -2.1843
18182SOL    HW256554  10.464   8.524   2.256  0.1712 -0.6696 -0.1127
18183SOL     OW56555   3.936   8.933   5.554  0.3778  0.2839 -0.2352
18183SOL    HW156556   3.908   9.011   5.505  2.2678 -0.2243 -2.2627
18183SOL    HW256557   3.890   8.860   5.512  1.2790 -0.0552 -0.6473
18184SOL     OW56558  10.106   6.501   5.531  0.3923 -0.5190  0.1588
18184SOL    HW156559  10.133   6.580   5.578  0.0533 -0.0210 -0.4523
18184SOL    HW256560  10.012   6.495   5.547  0.5565 -1.2507  0.8503
18185SOL     OW56561   5.259   3.931  10.786 -1.0874  0.2917 -0.4767
18185SOL    HW156562   5.182   3.874  10.793 -0.6412 -0.2179  0.5054
18185SOL    HW256563   5.264   3.975  10.871  0.0077 -0.1035 -0.3105
18186SOL     OW56564   4.733   8.001   5.838 -0.7698 -0.2357 -0.0568
18186SOL    HW156565   4.678   8.079   5.837 -3.1345 -1.7686  1.2257
18186SOL    HW256566   4.727   7.968   5.928 -0.0310 -2.0319 -0.6199
18187SOL     OW56567  10.530  10.559   2.662 -0.2833 -0.1354  0.0263
18187SOL    HW156568  10.453  10.585   2.713 -1.7950 -0.6804 -1.8648
18187SOL    HW256569  10.504  10.573   2.571  1.3523 -1.7100 -0.7294
18188SOL     OW56570   9.724  10.666   7.116  0.0184  0.3107 -0.1645
18188SOL    HW156571   9.708  10.723   7.191 -1.8447 -0.2419 -0.0928
18188SOL    HW256572   9.812  10.630   7.131 -0.3528  0.1217  1.8236
18189SOL     OW56573   1.657   3.314   0.198 -0.3105 -0.4732  0.3832
18189SOL    HW156574   1.719   3.254   0.155 -0.2819 -0.0185 -0.2229
18189SOL    HW256575   1.571   3.275   0.183 -0.5256  0.7396 -1.9608
18190SOL     OW56576   9.041   0.861   2.108 -0.1189 -0.0173 -0.2537
18190SOL    HW156577   9.135   0.869   2.126 -0.3799  0.5780  0.9735
18190SOL    HW256578   8.999   0.881   2.192 -1.4746  3.0184 -1.5230
18191SOL     OW56579   9.368   1.216   6.293  0.0458  0.6242 -0.1532
18191SOL    HW156580   9.358   1.153   6.221  2.0631  0.4194 -0.3096
18191SOL    HW256581   9.460   1.240   6.291 -0.7861  4.2425 -0.5713
18192SOL     OW56582   5.132   1.011  10.361 -0.3151 -0.1591 -0.1820
18192SOL    HW156583   5.048   1.054  10.379  0.1974  0.0297  2.1568
18192SOL    HW256584   5.197   1.074  10.392  0.7361 -0.3305 -1.8995
18193SOL     OW56585   4.567   3.951  10.857 -0.2151 -0.7540  0.2171
18193SOL    HW156586   4.527   3.997  10.931 -0.3582 -0.0680 -0.2737
18193SOL    HW256587   4.495   3.939  10.794  0.3266  0.5167 -0.6872
18194SOL     OW56588  10.413   1.810   5.536 -0.1199 -0.2731  0.0384
18194SOL    HW156589  10.418   1.720   5.569 -1.1983 -0.0444  0.8960
18194SOL    HW256590  10.366   1.858   5.605  2.0863  1.3901  0.4897
18195SOL     OW56591   0.163   6.965   9.308  0.1102 -0.5820  1.2189
18195SOL    HW156592   0.212   6.984   9.388 -0.1655  0.4503  1.1559
18195SOL    HW256593   0.221   6.908   9.257  0.8000 -0.2546  1.6178
18196SOL     OW56594  10.536   4.934  10.409 -0.2407  0.3644  0.0203
18196SOL    HW156595  10.556   5.002  10.345 -0.1289  0.1513 -0.1701
18196SOL    HW256596  10.582   4.962  10.489  0.2398  0.2354 -0.2122
18197SOL     OW56597   3.041   8.825   7.538  0.3946 -0.0459  0.0330
18197SOL    HW156598   3.076   8.817   7.449 -0.7165  0.5266 -0.4846
18197SOL    HW256599   2.983   8.750   7.547 -0.1217  0.3406 -0.0380
18198SOL     OW56600   3.536  10.811   5.826 -0.4260 -0.0585 -0.2572
18198SOL    HW156601   3.485  10.841   5.751 -0.2105  0.8484 -0.0579
18198SOL    HW256602   3.586  10.889   5.853 -0.4700 -0.3885  0.7967
18199SOL     OW56603   1.192   9.879   3.323 -0.9652  0.4897 -0.0633
18199SOL    HW156604   1.200   9.970   3.351 -1.0533  0.0711  1.3717
18199SOL    HW256605   1.282   9.853   3.302 -0.8694  0.7567  0.0079
18200SOL     OW56606  10.695   1.778   3.661 -0.5776 -0.6480  0.3334
18200SOL    HW156607  10.707   1.861   3.708 -2.7976  0.9737 -1.7473
18200SOL    HW256608  10.780   1.735   3.668  0.4468  1.4383  2.1353
18201SOL     OW56609   6.385   4.142   1.035  0.5860  0.1081  0.4027
18201SOL    HW156610   6.418   4.173   0.950  0.6555 -0.5563  0.1840
18201SOL    HW256611   6.448   4.175   1.099  0.4571  0.7377  0.2145
18202SOL     OW56612   1.921   4.039   8.427  0.1314  0.6732  0.3258
18202SOL    HW156613   1.968   3.967   8.469  3.4558  1.4518 -1.6731
18202SOL    HW256614   1.895   4.004   8.342  1.2554  1.5947 -0.4229
18203SOL     OW56615  10.795   7.633   0.095 -0.5489  0.2804  0.4376
18203SOL    HW156616  10.803   7.553   0.145 -1.7099  1.0883  2.0186
18203SOL    HW256617  10.790   7.702   0.161  0.9322  1.7336 -0.8791
18204SOL     OW56618   6.106   9.363   5.462 -0.1044 -0.1581 -0.4782
18204SOL    HW156619   6.075   9.364   5.552 -0.1185 -0.6868 -0.4778
18204SOL    HW256620   6.194   9.402   5.466 -0.1274 -0.1310 -0.2476
18205SOL     OW56621   1.672  10.909   8.463 -0.0576 -0.1638  0.2048
18205SOL    HW156622   1.661  10.998   8.498  2.4640  0.2577  0.0881
18205SOL    HW256623   1.650  10.852   8.537 -1.2173  0.5317  0.4359
18206SOL     OW56624   9.756   6.808   8.607 -0.0381  0.0861  0.3322
18206SOL    HW156625   9.701   6.885   8.619  1.3922  1.0071  1.3177
18206SOL    HW256626   9.845   6.843   8.605  0.5738 -1.4338 -0.4169
18207SOL     OW56627   2.019   7.117   9.031 -0.5891  0.1960  0.3023
18207SOL    HW156628   2.025   7.030   9.071  1.4322  0.2635  0.2855
18207SOL    HW256629   1.984   7.101   8.943 -1.3244 -0.4514  0.7079
18208SOL     OW56630   7.919   9.976   8.296 -0.0833  0.0642  0.3907
18208SOL    HW156631   7.849  10.010   8.241  0.0091  0.5576  0.5763
18208SOL    HW256632   7.951  10.052   8.345 -2.5116 -0.8687  3.8247
18209SOL     OW56633   5.342   7.183   7.071  0.1559 -0.1496  0.1696
18209SOL    HW156634   5.264   7.168   7.017  0.3348 -0.3927 -0.0216
18209SOL    HW256635   5.316   7.254   7.130 -1.0650 -1.8964  1.8456
18210SOL     OW56636   8.862   3.916   8.794 -0.0023 -0.1796 -0.2288
18210SOL    HW156637   8.841   4.004   8.763 -0.8247 -0.9859 -2.1327
18210SOL    HW256638   8.958   3.912   8.788  0.0231  0.4861 -0.4231
18211SOL     OW56639   3.221   6.763  10.103 -0.4037  0.3122  0.6852
18211SOL    HW156640   3.144   6.795  10.057 -0.9011 -2.2748 -0.4867
18211SOL    HW256641   3.227   6.816  10.182 -2.2981  1.7704 -0.0918
18212SOL     OW56642   1.708   6.474   6.285  0.1582 -0.2230  0.2776
18212SOL    HW156643   1.759   6.551   6.260 -1.3518  1.1655  1.2511
18212SOL    HW256644   1.657   6.452   6.207 -0.0829  0.3506  0.2682
18213SOL     OW56645   6.991   4.268   4.752 -0.2635  0.1483  0.1925
18213SOL    HW156646   7.028   4.179   4.751  0.1292  0.3005 -1.0777
18213SOL    HW256647   7.016   4.305   4.667 -0.3916  1.4946  0.7185
18214SOL     OW56648   3.026   7.845   3.507 -0.0795  0.6976 -0.3449
18214SOL    HW156649   3.111   7.846   3.550  0.5270  1.0802 -1.4832
18214SOL    HW256650   2.965   7.875   3.573  0.7452  0.8375  0.3708
18215SOL     OW56651   1.102   6.758   3.102 -0.6975 -0.7290 -0.7067
18215SOL    HW156652   1.038   6.785   3.035  1.8000  1.3935 -2.4496
18215SOL    HW256653   1.152   6.688   3.060  0.0888 -0.2271 -0.6315
18216SOL     OW56654   1.458   2.138   9.303  0.2169 -0.0648 -0.3443
18216SOL    HW156655   1.369   2.124   9.337  0.0787  0.6756 -0.3909
18216SOL    HW256656   1.455   2.107   9.213  0.0497 -0.1912 -0.2961
18217SOL     OW56657   3.523   0.185   6.106 -0.0030 -0.4935  0.1371
18217SOL    HW156658   3.451   0.172   6.168 -0.5462 -2.1158 -0.7808
18217SOL    HW256659   3.543   0.098   6.074  2.1676 -0.0425  0.0944
18218SOL     OW56660   7.143   0.118   5.998 -0.4124  0.3575  0.2144
18218SOL    HW156661   7.061   0.153   5.963  0.3827  3.2094  0.8946
18218SOL    HW256662   7.210   0.176   5.961  1.1540 -0.9934  0.8354
18219SOL     OW56663   1.039   3.782  11.026 -0.0695  0.7462  0.3034
18219SOL    HW156664   1.066   3.785  10.934  0.6041  0.2695  0.4768
18219SOL    HW256665   0.948   3.753  11.024  0.4206 -0.8503 -0.1467
18220SOL     OW56666   4.308   2.303   3.398 -0.7686  0.0953  0.4661
18220SOL    HW156667   4.283   2.394   3.381 -1.0235  0.2554  1.6045
18220SOL    HW256668   4.226   2.259   3.418 -0.8249 -0.7148 -1.3214
18221SOL     OW56669   5.696   2.620   3.980  0.3356  0.5383  0.1524
18221SOL    HW156670   5.619   2.670   3.952  0.9515  0.0672 -2.7043
18221SOL    HW256671   5.719   2.657   4.065 -0.9708  3.1029 -0.5019
18222SOL     OW56672   2.885   8.610   7.645  0.0341  0.0425  0.0126
18222SOL    HW156673   2.802   8.601   7.691  0.1073 -1.7683 -0.1490
18222SOL    HW256674   2.880   8.549   7.572  0.0886  2.5575 -2.2420
18223SOL     OW56675   0.131   2.864   6.772 -0.0468  0.1236  0.5625
18223SOL    HW156676   0.129   2.782   6.820 -2.3936 -0.6837 -0.7576
18223SOL    HW256677   0.148   2.839   6.681 -0.1065  1.1672  0.2412
18224SOL     OW56678   5.698   3.513  10.603  0.2477 -0.0305  0.1967
18224SOL    HW156679   5.652   3.542  10.524  1.0586  2.4403  0.5299
18224SOL    HW256680   5.661   3.427  10.621 -1.6169  0.2870 -1.5769
18225SOL     OW56681   1.176   2.381   3.383  0.2868  0.1464 -0.0089
18225SOL    HW156682   1.262   2.338   3.380 -1.2706 -3.2539 -2.1577
18225SOL    HW256683   1.114   2.311   3.361 -2.7127  3.2471 -2.2983
18226SOL     OW56684  10.975   5.159   5.873 -0.3848 -0.4415 -0.5975
18226SOL    HW156685  10.923   5.155   5.953  0.7998 -1.6786  0.1498
18226SOL    HW256686  10.911   5.149   5.802 -1.4958  1.0872  0.1403
18227SOL     OW56687   3.679   6.911   8.692 -0.3782  0.0575  0.0049
18227SOL    HW156688   3.610   6.877   8.749 -0.3700 -1.7603 -0.9803
18227SOL    HW256689   3.633   6.943   8.615 -0.1871 -0.7364 -0.4536
18228SOL     OW56690   5.914   3.670   5.454  0.2134 -0.5708  0.1854
18228SOL    HW156691   5.823   3.664   5.426 -0.9460 -0.8900  3.5449
18228SOL    HW256692   5.911   3.658   5.549  3.8281 -0.9984  0.3972
18229SOL     OW56693   3.096   5.172   5.530  0.1009 -0.0395 -0.3853
18229SOL    HW156694   3.097   5.078   5.509  0.9547 -0.1011 -0.1265
18229SOL    HW256695   3.006   5.189   5.556  0.4819 -1.4216  2.1917
18230SOL     OW56696   7.705   9.606   4.859  0.5533  0.5537  0.7461
18230SOL    HW156697   7.668   9.559   4.784 -0.5190 -0.7872  2.0444
18230SOL    HW256698   7.681   9.698   4.845 -1.1043  0.0744  0.2780
18231SOL     OW56699   8.439   6.437   7.766 -0.2731 -0.4448  0.4858
18231SOL    HW156700   8.383   6.478   7.831 -2.1079 -0.1213 -1.1934
18231SOL    HW256701   8.527   6.441   7.803 -0.9316  1.6386  1.9886
18232SOL     OW56702   2.475   0.460   1.651  0.4536 -0.4397 -0.1679
18232SOL    HW156703   2.501   0.396   1.718  0.4839 -0.2088  0.0404
18232SOL    HW256704   2.390   0.428   1.620  0.3169 -0.4037  0.1643
18233SOL     OW56705   6.726   9.471   0.101 -0.8098 -0.1149  0.0561
18233SOL    HW156706   6.690   9.396   0.052 -3.2012  1.5524 -0.9125
18233SOL    HW256707   6.657   9.494   0.163  0.5380  0.3782  1.4280
18234SOL     OW56708   8.166   0.675   4.854  0.0294  0.4837 -0.2205
18234SOL    HW156709   8.174   0.656   4.947 -0.1822  1.5726  0.0363
18234SOL    HW256710   8.182   0.592   4.810 -0.2372 -0.1140  0.8055
18235SOL     OW56711  10.483   0.561   3.637 -1.0553  0.1337  0.2075
18235SOL    HW156712  10.426   0.638   3.636  0.3854  1.2512 -0.1908
18235SOL    HW256713  10.565   0.593   3.675 -0.1650 -1.0056 -0.6875
18236SOL     OW56714   9.633   0.718   6.099  0.1520 -0.1720  0.6697
18236SOL    HW156715   9.647   0.785   6.033 -0.1242  0.3531  1.1399
18236SOL    HW256716   9.542   0.729   6.127  0.0383 -0.8717  0.6093
18237SOL     OW56717   6.164   3.134   0.860 -0.1875 -0.4690 -0.5447
18237SOL    HW156718   6.217   3.212   0.843 -1.3373  0.5221  0.2048
18237SOL    HW256719   6.074   3.166   0.860 -0.6572 -1.7050  0.2590
18238SOL     OW56720   6.340   6.519   2.206  0.5378  0.2018  0.2542
18238SOL    HW156721   6.432   6.511   2.183 -0.2484 -2.6266 -2.5476
18238SOL    HW256722   6.323   6.445   2.264 -0.2071 -0.0716 -0.2915
18239SOL     OW56723   9.793   9.731  10.356  0.1363 -0.9533 -0.0187
18239SOL    HW156724   9.757   9.666  10.295  0.6532 -1.4862  0.2401
18239SOL    HW256725   9.825   9.801  10.299  0.3182 -1.2972 -0.3511
18240SOL     OW56726   7.790   5.741   7.314 -0.2082  0.3216 -0.1072
18240SOL    HW156727   7.755   5.741   7.403  0.5208 -0.6255  0.1993
18240SOL    HW256728   7.866   5.799   7.319 -0.2464  0.3728 -0.1323
18241SOL     OW56729   1.813   5.855   5.634  0.0003  0.1393  0.2915
18241SOL    HW156730   1.858   5.932   5.599  1.6757  0.4797  2.9287
18241SOL    HW256731   1.853   5.782   5.588  1.2467  0.6374  0.5421
18242SOL     OW56732   4.998   5.411  10.376 -0.1820 -0.1171 -0.3892
18242SOL    HW156733   4.954   5.338  10.332 -0.5419 -0.2066  0.1021
18242SOL    HW256734   5.047   5.455  10.307 -0.8981 -0.1257 -0.9128
18243SOL     OW56735   3.011   1.599   8.680  0.1219  0.5151  0.1314
18243SOL    HW156736   2.985   1.661   8.612 -1.9041  0.6448  0.9471
18243SOL    HW256737   3.106   1.606   8.684  0.0112  3.0777 -0.2644
18244SOL     OW56738   1.758   3.280   7.846 -0.1327  0.2912 -0.4813
18244SOL    HW156739   1.682   3.309   7.797  0.2189  1.1802 -0.5193
18244SOL    HW256740   1.723   3.219   7.911 -0.8284  0.4294 -0.7207
18245SOL     OW56741   6.824   2.950   2.681  0.8795  0.8052  0.1471
18245SOL    HW156742   6.827   2.962   2.776 -0.5231 -2.2303  0.6719
18245SOL    HW256743   6.902   2.899   2.660 -0.0026 -0.5329  0.0541
18246SOL     OW56744   9.723   0.057   1.674  0.5719 -0.1490  0.0009
18246SOL    HW156745   9.700  -0.009   1.609 -1.0217  0.4279 -0.0712
18246SOL    HW256746   9.763   0.007   1.746  2.7321 -0.7503 -1.5103
18247SOL     OW56747   8.441   1.172   2.000  0.3535  0.2923 -0.1240
18247SOL    HW156748   8.405   1.172   1.911 -1.4806 -0.7272  0.5515
18247SOL    HW256749   8.384   1.112   2.049  2.1595 -0.2736  1.4195
18248SOL     OW56750   9.526   4.714   3.187 -0.4223  0.6262 -0.1472
18248SOL    HW156751   9.558   4.793   3.144 -2.9065  0.4295 -2.6662
18248SOL    HW256752   9.433   4.732   3.203 -0.3300 -0.6170  2.2666
18249SOL     OW56753   1.384   3.266   0.390  0.2097  0.9269 -0.2847
18249SOL    HW156754   1.352   3.355   0.373 -0.4448  0.7350 -0.0817
18249SOL    HW256755   1.395   3.228   0.303  0.3043  1.1395 -0.3675
18250SOL     OW56756   2.467   5.835   6.467 -0.2080  0.3792  0.2550
18250SOL    HW156757   2.375   5.814   6.448 -0.0494 -0.3721  0.2977
18250SOL    HW256758   2.517   5.773   6.414  0.3281  2.0753 -1.3582
18251SOL     OW56759   5.100   7.676  10.760 -0.2491 -0.0647 -0.0071
18251SOL    HW156760   5.027   7.616  10.776  0.0635 -0.9043 -1.5657
18251SOL    HW256761   5.138   7.647  10.677  1.8447  0.3604  0.7297
18252SOL     OW56762   3.361   2.599   5.218 -0.0533  0.3038 -0.5454
18252SOL    HW156763   3.431   2.550   5.261 -0.5142  1.2137  1.3438
18252SOL    HW256764   3.389   2.604   5.126  1.1615 -1.3784 -0.3264
18253SOL     OW56765   7.007   9.706   3.304  0.0252 -0.2022  0.2949
18253SOL    HW156766   6.955   9.730   3.380  0.1445  2.7943 -0.4376
18253SOL    HW256767   6.944   9.673   3.240 -0.5262  0.3225  0.5630
18254SOL     OW56768   3.624   1.660   6.882 -0.1261  0.2641 -0.1884
18254SOL    HW156769   3.598   1.569   6.899 -0.2033 -0.1409 -2.2262
18254SOL    HW256770   3.717   1.663   6.902  0.0820 -0.5186 -1.0238
18255SOL     OW56771   5.037   9.509  10.158  0.3476 -0.5026 -0.2108
18255SOL    HW156772   4.956   9.545  10.193  1.4856  0.4227  1.6405
18255SOL    HW256773   5.040   9.419  10.191 -0.3413 -0.8613 -1.0786
18256SOL     OW56774   0.584   1.751   5.004  0.2801  0.4309 -0.6768
18256SOL    HW156775   0.661   1.696   5.018 -0.1237  0.1531  0.5631
18256SOL    HW256776   0.618   1.840   4.998  0.6047  0.4808  1.2925
18257SOL     OW56777   3.634   0.833   6.349 -0.2361  0.0092 -0.4119
18257SOL    HW156778   3.622   0.751   6.300 -1.4105  1.1312 -2.0935
18257SOL    HW256779   3.570   0.828   6.419  1.1501 -1.4157  0.8322
18258SOL     OW56780   5.221   6.329  10.541  0.1177  0.5651  0.1357
18258SOL    HW156781   5.301   6.352  10.494 -0.4046  1.0886 -0.5254
18258SOL    HW256782   5.248   6.320  10.632  1.0609  0.0237 -0.1872
18259SOL     OW56783   9.459   1.193   3.629  0.0934 -0.0209  0.0046
18259SOL    HW156784   9.398   1.120   3.615 -0.2834  0.2336  0.2891
18259SOL    HW256785   9.528   1.156   3.684  0.3331 -0.3821 -0.5330
18260SOL     OW56786   8.026   6.410   7.880 -0.1443 -0.1056  0.1961
18260SOL    HW156787   8.017   6.395   7.786 -0.1657 -0.2609  0.2227
18260SOL    HW256788   8.101   6.468   7.888 -1.6197  1.9279 -0.0942
18261SOL     OW56789   5.890   0.043   5.972  0.1429 -0.2576  0.8311
18261SOL    HW156790   5.899   0.080   6.060 -1.0267  0.1144  0.8185
18261SOL    HW256791   5.809   0.082   5.938 -0.4830 -1.8954  0.3414
18262SOL     OW56792  10.196   5.405   2.638  0.4428  0.1398  0.2033
18262SOL    HW156793  10.143   5.417   2.717 -0.3397  0.9117 -0.4216
18262SOL    HW256794  10.132   5.400   2.567  1.1886  0.6275 -0.5211
18263SOL     OW56795   0.540   4.070   6.511 -0.2419  0.0075  0.3063
18263SOL    HW156796   0.500   3.989   6.542 -0.6374  0.3862  0.7991
18263SOL    HW256797   0.616   4.083   6.569  0.9644 -1.0087 -0.9812
18264SOL     OW56798   0.244   7.748   0.748  0.4092 -0.4660 -0.5132
18264SOL    HW156799   0.285   7.834   0.746  1.6168 -0.9087  1.5500
18264SOL    HW256800   0.169   7.755   0.690 -0.3542  2.4051  0.6587
18265SOL     OW56801   6.672   0.857   0.469  0.1494 -0.8181 -0.0775
18265SOL    HW156802   6.623   0.779   0.445  0.9332 -1.5979  0.7511
18265SOL    HW256803   6.705   0.838   0.557 -1.7455  1.4659  1.2372
18266SOL     OW56804   5.621   5.291   3.565 -0.2645  0.0225 -0.2246
18266SOL    HW156805   5.705   5.333   3.586 -0.4735  1.2713 -1.7043
18266SOL    HW256806   5.555   5.345   3.609 -0.3444 -0.8847  0.8304
18267SOL     OW56807   4.562   0.228   6.594  0.4699  0.2968  0.2663
18267SOL    HW156808   4.515   0.229   6.511 -1.6152 -0.6329  1.3505
18267SOL    HW256809   4.646   0.269   6.575  1.0667 -2.0135 -2.8540
18268SOL     OW56810   1.347   8.415   1.810 -0.8790  0.7157  0.1420
18268SOL    HW156811   1.368   8.326   1.837 -1.4990  1.0434  1.7777
18268SOL    HW256812   1.424   8.467   1.833 -0.6629  0.6807 -0.4768
18269SOL     OW56813   7.247  10.248   3.478 -0.3712 -0.1917 -0.0336
18269SOL    HW156814   7.275  10.156   3.477 -2.0846 -0.7394 -0.7572
18269SOL    HW256815   7.177  10.251   3.543 -1.3345  0.2649 -1.0645
18270SOL     OW56816  10.297   4.681  10.653  0.3683 -0.3395 -0.3580
18270SOL    HW156817  10.310   4.761  10.603 -0.9088 -0.4393 -0.8889
18270SOL    HW256818  10.245   4.708  10.729  0.2412 -0.6029 -0.3496
18271SOL     OW56819   3.646   3.405   5.110 -0.3029 -0.1711  0.3984
18271SOL    HW156820   3.610   3.325   5.072  0.0440 -0.6842  1.1202
18271SOL    HW256821   3.623   3.474   5.048  2.4453 -1.3014 -2.0414
18272SOL     OW56822  10.346   1.926   7.406  0.2289  0.2560  0.2610
18272SOL    HW156823  10.420   1.914   7.465  0.2846  0.0568  0.1493
18272SOL    HW256824  10.356   2.015   7.373  0.0978  0.4336  0.6916
18273SOL     OW56825   1.864   8.083   5.229  0.5922  0.1562 -0.1097
18273SOL    HW156826   1.823   7.996   5.224 -1.6458  1.1056  0.3718
18273SOL    HW256827   1.816   8.135   5.164  0.9169  1.3837  0.6054
18274SOL     OW56828   8.990   0.408   0.671 -0.4688 -0.4517  0.4858
18274SOL    HW156829   8.917   0.461   0.640 -1.0199 -0.5676  1.5294
18274SOL    HW256830   8.952   0.322   0.688 -0.5907 -0.0134  2.8718
18275SOL     OW56831  10.866   8.650   9.822 -0.6443 -0.5931 -0.1382
18275SOL    HW156832  10.816   8.594   9.882 -2.4201 -0.5314 -1.4895
18275SOL    HW256833  10.907   8.590   9.761 -0.7703 -0.5335 -0.2810
18276SOL     OW56834  10.828   7.782   7.196 -0.8318  0.7170  0.3985
18276SOL    HW156835  10.831   7.712   7.130 -1.2367  1.4768 -0.4538
18276SOL    HW256836  10.799   7.859   7.147  1.7355  2.0547  0.8298
18277SOL     OW56837   7.660   1.467   8.647 -0.2694 -0.2975 -0.2360
18277SOL    HW156838   7.753   1.477   8.669 -0.2500 -0.4965 -0.2169
18277SOL    HW256839   7.651   1.507   8.561 -0.3133  0.3552  0.0725
18278SOL     OW56840   2.095   7.711   7.004 -0.3255 -0.1634  0.2853
18278SOL    HW156841   2.166   7.726   6.941 -1.9740 -0.5380 -1.7923
18278SOL    HW256842   2.019   7.691   6.949 -1.6018 -1.6822  2.4712
18279SOL     OW56843   6.299   7.953   7.801  0.0280 -0.2919  0.4660
18279SOL    HW156844   6.258   7.877   7.843 -1.3350 -0.1340 -0.5122
18279SOL    HW256845   6.382   7.964   7.848 -0.1998 -1.7626  1.2893
18280SOL     OW56846   8.330   6.796   9.807  1.0441 -0.6036 -0.2133
18280SOL    HW156847   8.353   6.888   9.820 -0.6957 -0.1213 -0.3217
18280SOL    HW256848   8.353   6.753   9.890  0.0796  0.3137  0.5428
18281SOL     OW56849  10.282   6.333   2.804 -0.2286 -0.0398 -0.2613
18281SOL    HW156850  10.216   6.285   2.754 -0.6835  0.6347 -0.3276
18281SOL    HW256851  10.363   6.321   2.754 -0.1320 -1.5001  0.2295
18282SOL     OW56852   7.794   1.284  11.000 -0.2574  0.2854 -0.3007
18282SOL    HW156853   7.838   1.233  11.068  1.3418 -1.4410 -2.4674
18282SOL    HW256854   7.848   1.363  10.991 -0.6816  0.6948  0.6211
18283SOL     OW56855   6.770   0.434  10.385  0.4956  0.2145 -0.4444
18283SOL    HW156856   6.785   0.520  10.425  2.1016  0.3017 -1.1386
18283SOL    HW256857   6.820   0.437  10.304 -1.7866 -0.3561 -1.9522
18284SOL     OW56858   7.407   5.237  10.624  0.3131 -0.4533  0.1871
18284SOL    HW156859   7.331   5.288  10.598 -0.4894 -0.7675  1.7610
18284SOL    HW256860   7.402   5.157  10.572 -0.3435 -0.3929  0.1536
18285SOL     OW56861   1.201   1.385   7.081 -0.1837 -0.7714 -0.0845
18285SOL    HW156862   1.152   1.461   7.049  2.0673  1.6998  1.8660
18285SOL    HW256863   1.217   1.404   7.173  1.8798 -2.8714  0.0855
18286SOL     OW56864   3.016   5.740   6.940  0.0842 -0.0128  0.0625
18286SOL    HW156865   2.963   5.819   6.928  1.1046  1.0642  2.0692
18286SOL    HW256866   3.089   5.751   6.879  0.8956  1.3030  1.1867
18287SOL     OW56867   7.987   5.991   5.788  0.3639  0.1774  0.3523
18287SOL    HW156868   8.033   5.974   5.706 -0.4328  0.0657 -0.0860
18287SOL    HW256869   8.008   5.917   5.844  0.4920 -0.0113  0.0559
18288SOL     OW56870   5.927  10.989   2.065  0.4036 -0.1020 -0.1891
18288SOL    HW156871   5.924  10.960   2.156 -0.9165 -0.0937 -0.2085
18288SOL    HW256872   5.987  10.929   2.022  0.8414 -0.2623  0.6277
18289SOL     OW56873   1.460  10.919   4.775 -0.2620  0.1304 -0.1965
18289SOL    HW156874   1.420  10.989   4.827 -1.8839  1.6812 -3.2873
18289SOL    HW256875   1.405  10.842   4.791 -1.0685  0.7312 -0.0449
18290SOL     OW56876  11.013   5.302   3.713  0.2858  0.0361  0.4965
18290SOL    HW156877  11.108   5.301   3.728  1.0776 -1.5419 -3.3825
18290SOL    HW256878  10.979   5.230   3.765  1.5584 -0.7056  0.3342
18291SOL     OW56879   9.825   3.212   9.490  0.0885  0.3755  0.6361
18291SOL    HW156880   9.753   3.244   9.546 -1.2022 -0.3945 -0.5211
18291SOL    HW256881   9.783   3.149   9.432  1.3235  1.3260 -1.3930
18292SOL     OW56882   2.924   3.998   5.083  0.6135  0.0387  0.4849
18292SOL    HW156883   2.956   4.069   5.028 -0.6209  0.3825  0.1761
18292SOL    HW256884   2.933   4.030   5.172 -2.1232  1.6071  0.2887
18293SOL     OW56885   6.349   2.756   4.636 -0.2390 -0.2499  0.1633
18293SOL    HW156886   6.314   2.794   4.717 -1.2429  1.3271 -0.9453
18293SOL    HW256887   6.297   2.677   4.622  0.7790 -1.2452  1.6612
18294SOL     OW56888   3.004   0.759   4.263  0.2724 -0.1192 -0.6369
18294SOL    HW156889   3.010   0.710   4.345  1.6500 -0.7450 -1.0803
18294SOL    HW256890   2.915   0.745   4.233  0.0179 -0.6094  0.3085
18295SOL     OW56891   6.520   4.386  10.420 -0.7922  0.0438  0.1375
18295SOL    HW156892   6.531   4.455  10.485  0.4280  0.9575 -0.9984
18295SOL    HW256893   6.569   4.311  10.455 -0.0398  0.5716  0.2311
18296SOL     OW56894   1.462   2.504   7.019  0.0100 -0.5253 -0.2198
18296SOL    HW156895   1.420   2.424   7.050  0.1738 -1.3044 -1.9060
18296SOL    HW256896   1.537   2.474   6.968  2.5937  0.8022  2.4629
18297SOL     OW56897   6.709   1.199   1.854 -0.4998  0.2911  0.0287
18297SOL    HW156898   6.781   1.139   1.836 -0.6358 -0.2899  1.2946
18297SOL    HW256899   6.735   1.244   1.935 -1.3804  0.3599  0.2816
18298SOL     OW56900   6.188   5.927   0.229  0.2206 -0.2709  1.1048
18298SOL    HW156901   6.155   5.845   0.265 -0.8063  0.1758  1.2187
18298SOL    HW256902   6.195   5.986   0.304 -0.5410  0.2202  0.7981
18299SOL     OW56903   3.494   9.604   9.352 -0.1635  0.5638  0.2092
18299SOL    HW156904   3.436   9.529   9.341  0.6004  0.2273 -1.9563
18299SOL    HW256905   3.512   9.634   9.263  1.5475  1.7678  0.9056
18300SOL     OW56906   6.256  10.585   1.207 -0.4298 -0.1595 -0.3167
18300SOL    HW156907   6.293  10.673   1.199  0.1476 -0.2299  1.2340
18300SOL    HW256908   6.302  10.547   1.282 -2.2137 -0.9908  0.3962
18301SOL     OW56909  10.443   6.187   3.187 -0.2318 -0.2242 -0.1475
18301SOL    HW156910  10.458   6.120   3.253 -0.2429 -0.1898 -0.1096
18301SOL    HW256911  10.359   6.164   3.148 -0.0726 -0.4259 -0.3723
18302SOL     OW56912   2.761   1.325   7.292 -0.0032  0.2245 -0.2725
18302SOL    HW156913   2.785   1.408   7.251 -0.8722  0.9856  0.7072
18302SOL    HW256914   2.762   1.261   7.220  2.6942  0.6298 -0.6780
18303SOL     OW56915   6.669   8.962  10.520 -0.0414  0.7463 -0.4216
18303SOL    HW156916   6.731   8.930  10.585  0.4578  0.6431 -0.9426
18303SOL    HW256917   6.597   8.900  10.523 -0.6611  1.4719  0.9738
18304SOL     OW56918   2.619   4.652   8.060 -0.1663  0.6436  0.4109
18304SOL    HW156919   2.573   4.735   8.063 -1.1257  0.1257  0.3867
18304SOL    HW256920   2.586   4.603   8.135 -2.4829 -1.1531 -1.5982
18305SOL     OW56921   1.618   3.599  10.818 -0.2997  0.0311  0.2689
18305SOL    HW156922   1.674   3.525  10.845  0.6765  0.0802 -1.5104
18305SOL    HW256923   1.669   3.645  10.752 -1.6048  1.3394  0.1291
18306SOL     OW56924  10.475   3.196   1.521 -0.2592  0.3242 -0.3999
18306SOL    HW156925  10.474   3.144   1.601 -0.8584  0.9099 -0.0243
18306SOL    HW256926  10.481   3.131   1.451 -2.2753 -0.3512 -0.0109
18307SOL     OW56927   2.252   9.263   3.251  0.0677  0.0554  0.2549
18307SOL    HW156928   2.291   9.303   3.173 -0.6271 -0.0113 -0.1368
18307SOL    HW256929   2.171   9.224   3.219 -0.0193 -0.3267  0.9394
18308SOL     OW56930   2.533   8.739   6.473  0.2148  0.3757  0.0281
18308SOL    HW156931   2.533   8.785   6.557 -0.9758 -1.2130  0.9461
18308SOL    HW256932   2.463   8.780   6.423  0.6551  1.0467 -0.0650
18309SOL     OW56933   4.641  10.069   5.792  0.0107 -0.0149 -0.0695
18309SOL    HW156934   4.722  10.025   5.816 -1.0737 -1.8102  0.5576
18309SOL    HW256935   4.645  10.077   5.697  0.3923 -1.2334 -0.1718
18310SOL     OW56936   7.623   8.312   2.656 -0.2242 -0.1588  0.0255
18310SOL    HW156937   7.648   8.291   2.746  1.1351 -0.2746 -0.3624
18310SOL    HW256938   7.589   8.230   2.620  0.9477 -0.6087 -0.1134
18311SOL     OW56939   6.204   6.213   6.251  0.3161  0.1815 -0.7225
18311SOL    HW156940   6.119   6.177   6.279  0.6116 -0.4044 -0.5668
18311SOL    HW256941   6.236   6.261   6.327  0.2900  0.1068 -0.6642
18312SOL     OW56942   6.932   4.422   3.958 -0.3913 -0.1889  0.9186
18312SOL    HW156943   7.004   4.463   4.005  1.4168 -2.5857  0.4208
18312SOL    HW256944   6.895   4.492   3.905  1.1098  1.2670  1.7150
18313SOL     OW56945   4.603   9.446   4.165  0.3534  0.0707  0.4376
18313SOL    HW156946   4.682   9.450   4.112  0.6315 -1.0008  0.7248
18313SOL    HW256947   4.558   9.529   4.150  0.1657 -0.3819 -1.8411
18314SOL     OW56948   2.031  10.756   3.952  0.3127 -0.2214 -0.2613
18314SOL    HW156949   2.104  10.707   3.990  0.0683 -0.2422  0.1818
18314SOL    HW256950   2.073  10.826   3.901  0.6429  0.8618  1.4257
18315SOL     OW56951   8.687   2.266   8.647  0.1588  0.4739 -0.7352
18315SOL    HW156952   8.685   2.357   8.618  0.1513  0.2610 -1.4029
18315SOL    HW256953   8.774   2.255   8.685  0.9654  0.1796 -2.5706
18316SOL     OW56954   0.178   1.753   5.591  0.5044  0.4869  0.7668
18316SOL    HW156955   0.091   1.752   5.550  1.0858  0.9142 -0.5092
18316SOL    HW256956   0.163   1.796   5.675  0.0022  3.4807 -0.7326
18317SOL     OW56957   8.320   3.893   5.487  0.8066 -0.1087 -0.3104
18317SOL    HW156958   8.254   3.831   5.517  1.9294 -1.1331  0.1334
18317SOL    HW256959   8.270   3.969   5.456 -0.5058 -0.0103  1.8610
18318SOL     OW56960   6.978   6.762   5.193  0.3123 -0.3698  0.2737
18318SOL    HW156961   6.897   6.717   5.216 -0.2204  0.2712 -0.3383
18318SOL    HW256962   7.015   6.710   5.121  0.2707 -0.4639  0.3203
18319SOL     OW56963   7.420   5.181   3.760 -0.0360  0.4621  0.2182
18319SOL    HW156964   7.375   5.097   3.749 -2.7863  1.9393 -0.8528
18319SOL    HW256965   7.460   5.176   3.847  1.4122 -2.5274 -0.4781
18320SOL     OW56966   1.721   6.067   1.988 -0.3927 -0.4584 -0.5059
18320SOL    HW156967   1.701   6.031   1.901 -3.1121 -1.6212  0.4955
18320SOL    HW256968   1.666   6.017   2.048  0.6818  0.9760  1.8049
18321SOL     OW56969   7.730   0.806   9.524 -0.3574 -0.2687  0.1625
18321SOL    HW156970   7.657   0.750   9.550 -1.5059  2.1956  2.7876
18321SOL    HW256971   7.690   0.876   9.474  0.6862 -0.4416 -0.9574
18322SOL     OW56972   7.300   0.288   5.874  0.2551 -0.2238  0.5014
18322SOL    HW156973   7.359   0.261   5.803 -0.6544  0.2911 -0.4710
18322SOL    HW256974   7.291   0.383   5.863 -0.7591 -0.3022  0.6394
18323SOL     OW56975   7.952   3.817   7.961 -0.4224  0.0189  0.1988
18323SOL    HW156976   7.999   3.745   8.003 -0.9388 -0.8902 -0.7342
18323SOL    HW256977   8.020   3.882   7.941  0.0492 -0.2067  1.0400
18324SOL     OW56978  10.565   0.670   0.078 -0.1919 -0.3226  0.0740
18324SOL    HW156979  10.510   0.698   0.004 -0.7709 -1.4061  0.0767
18324SOL    HW256980  10.516   0.599   0.118  1.4216 -1.6309 -0.1817
18325SOL     OW56981   3.549   0.957   0.424  0.5913 -0.7057  0.7905
18325SOL    HW156982   3.568   1.043   0.387 -1.1212 -0.4543  0.4338
18325SOL    HW256983   3.514   0.975   0.511 -1.0319 -0.9327  0.2118
18326SOL     OW56984  10.522   8.469   6.031 -0.2929  0.3229  0.9720
18326SOL    HW156985  10.541   8.376   6.022  1.6068  0.8663 -1.8564
18326SOL    HW256986  10.545   8.489   6.122  1.2854 -1.5746  1.0666
18327SOL     OW56987   4.679   9.891   2.159  0.1269 -0.1566  0.0184
18327SOL    HW156988   4.769   9.866   2.139  0.0415 -0.3401 -0.1315
18327SOL    HW256989   4.668   9.868   2.252  0.3334  0.1519  0.1200
18328SOL     OW56990   0.685   1.135   9.413  0.3756  0.5018  0.4569
18328SOL    HW156991   0.731   1.142   9.330  0.2305 -2.6659 -0.0171
18328SOL    HW256992   0.604   1.088   9.392  0.5614 -0.8178  2.4069
18329SOL     OW56993   6.300   4.120   5.583 -0.7534  0.8644  0.4150
18329SOL    HW156994   6.306   4.210   5.552 -1.5791  1.8199  2.8236
18329SOL    HW256995   6.207   4.100   5.582 -0.6911  0.5159  1.1334
18330SOL     OW56996   4.152   1.125   9.882  0.0887 -0.4086  0.0037
18330SOL    HW156997   4.201   1.043   9.884 -0.7590 -1.1019 -2.9241
18330SOL    HW256998   4.155   1.153   9.791 -5.3362 -0.8450 -0.6476
18331SOL     OW56999   9.347  10.062   7.997 -0.0300 -0.2308 -0.0156
18331SOL    HW157000   9.270  10.114   8.020  0.2408 -0.0572  0.4905
18331SOL    HW257001   9.320   9.972   8.013 -0.3931 -0.2356 -0.5969
18332SOL     OW57002  10.456   3.083   2.884  0.1286  0.2408  0.3575
18332SOL    HW157003  10.512   3.153   2.917  0.5784  0.4995 -0.9131
18332SOL    HW257004  10.412   3.121   2.808  1.0971 -1.1131 -0.9322
18333SOL     OW57005   6.617  10.200   2.547 -0.1459 -0.3245  0.4849
18333SOL    HW157006   6.694  10.254   2.532 -0.6099 -0.0500 -1.0510
18333SOL    HW257007   6.613  10.190   2.642 -0.3413  2.8125  0.9215
18334SOL     OW57008   5.857   6.389   0.570  0.5333  0.0895  0.4309
18334SOL    HW157009   5.771   6.423   0.591  0.1836 -0.2766 -0.3702
18334SOL    HW257010   5.916   6.465   0.578  0.1891  0.2737  1.2460
18335SOL     OW57011   1.245  10.736   5.986 -0.4353 -0.4148  0.5652
18335SOL    HW157012   1.234  10.773   5.898 -0.3052  1.3817  1.2488
18335SOL    HW257013   1.262  10.643   5.971  0.5639  0.0170 -1.3489
18336SOL     OW57014   2.303   2.676   5.566  0.0534  0.6262 -0.3030
18336SOL    HW157015   2.384   2.635   5.596  2.0387  3.6348 -1.1595
18336SOL    HW257016   2.276   2.623   5.490  2.0438  0.3982 -0.9028
18337SOL     OW57017   3.047   9.227   0.023 -0.0578 -0.4984 -0.0436
18337SOL    HW157018   3.131   9.182   0.035 -0.5936 -2.1040 -1.7803
18337SOL    HW257019   2.986   9.178   0.078 -0.0679  0.0768  0.4715
18338SOL     OW57020   1.974   8.942   9.298 -0.1287 -0.4270 -0.4024
18338SOL    HW157021   2.056   8.983   9.271 -0.0876 -0.3205 -0.1238
18338SOL    HW257022   1.918   9.016   9.325 -0.8307 -0.3630 -1.9019
18339SOL     OW57023   8.233   1.307   7.392  0.4000 -0.2811  0.0298
18339SOL    HW157024   8.240   1.387   7.340  0.6741  0.1304  0.6934
18339SOL    HW257025   8.191   1.244   7.333 -1.2918  0.7930  0.0235
18340SOL     OW57026   1.264   7.382   9.937  0.0852  0.2175  0.0413
18340SOL    HW157027   1.176   7.417   9.927  0.4293  0.7632 -1.3644
18340SOL    HW257028   1.273   7.317   9.868 -0.2109 -2.0908  2.0504
18341SOL     OW57029   3.485   3.742   3.195 -0.1038 -0.3287 -0.1035
18341SOL    HW157030   3.448   3.654   3.184 -0.6536 -0.0830 -0.2387
18341SOL    HW257031   3.575   3.734   3.162 -0.2368 -0.7687 -0.3745
18342SOL     OW57032   6.118   8.126   0.660 -0.0021 -0.1039  0.3382
18342SOL    HW157033   6.194   8.107   0.715  1.3922  1.0823 -1.0828
18342SOL    HW257034   6.075   8.200   0.704  0.7958  0.4844  0.1567
18343SOL     OW57035   5.576   6.327  10.932  0.2428 -0.0161  0.2129
18343SOL    HW157036   5.565   6.373  11.015  1.2570  0.1422  0.2726
18343SOL    HW257037   5.624   6.247  10.955  1.0152  0.2939 -0.2903
18344SOL     OW57038   0.567   8.156   7.250  0.0923  0.1911 -0.3655
18344SOL    HW157039   0.661   8.144   7.234 -0.1647 -1.0320 -1.1609
18344SOL    HW257040   0.548   8.098   7.324 -0.1853 -0.2418 -0.7702
18345SOL     OW57041   0.205   6.882   4.899 -0.3422  0.7195 -0.0317
18345SOL    HW157042   0.212   6.974   4.921 -1.3697  0.5330  1.1191
18345SOL    HW257043   0.279   6.841   4.944  0.5886  1.0651 -1.1892
18346SOL     OW57044   9.302   0.780   3.809 -0.1773 -0.3670  0.6157
18346SOL    HW157045   9.331   0.813   3.894  1.3922 -0.4773  0.1629
18346SOL    HW257046   9.382   0.773   3.757 -1.2163  0.7938 -1.2789
18347SOL     OW57047   6.397   1.865  10.513 -0.1070 -0.5190 -0.1854
18347SOL    HW157048   6.346   1.886  10.591  0.3671 -0.6886  0.1786
18347SOL    HW257049   6.481   1.835  10.547  0.0270 -0.8059 -0.7599
18348SOL     OW57050   9.211   4.393   9.612  0.6396 -0.0092  0.1222
18348SOL    HW157051   9.207   4.302   9.641 -0.8772 -0.0085 -0.0052
18348SOL    HW257052   9.301   4.420   9.630  1.3729 -1.7823 -0.6133
18349SOL     OW57053  10.576   9.874   3.424  0.2065 -0.0451 -0.3677
18349SOL    HW157054  10.647   9.810   3.432  0.8012  0.6550  0.0831
18349SOL    HW257055  10.613   9.943   3.369 -0.6477 -0.3666 -1.3815
18350SOL     OW57056   9.944   8.757   8.513  0.8888  0.5580 -0.0546
18350SOL    HW157057   9.853   8.770   8.485  0.2969  1.6455  2.1568
18350SOL    HW257058   9.987   8.717   8.438 -1.5583 -0.5389 -0.9550
18351SOL     OW57059   1.798  10.514   5.718  0.1301 -0.5148  0.0056
18351SOL    HW157060   1.833  10.529   5.629 -0.7542  0.8755 -0.1275
18351SOL    HW257061   1.717  10.565   5.721  1.4546  1.6753  2.4813
18352SOL     OW57062   8.137   0.631   5.897  0.0599 -0.4719 -0.1240
18352SOL    HW157063   8.113   0.563   5.834  0.1871 -0.2587 -0.4035
18352SOL    HW257064   8.058   0.643   5.950 -0.6525  0.5851 -1.3677
18353SOL     OW57065   1.213   4.959   6.781  0.6736 -0.2566  0.0219
18353SOL    HW157066   1.282   5.016   6.748  2.0179 -0.7283  1.8453
18353SOL    HW257067   1.220   4.965   6.876 -1.6525 -0.5485  0.2841
18354SOL     OW57068   0.478   3.975   1.050 -0.5110 -0.6534 -0.0539
18354SOL    HW157069   0.532   4.005   0.977  1.1524 -1.0203  0.9911
18354SOL    HW257070   0.413   4.045   1.062  0.5517  0.4375 -0.5020
18355SOL     OW57071   8.230   9.534   1.609 -0.6747  0.3212 -0.6323
18355SOL    HW157072   8.197   9.462   1.556 -2.7483 -0.8175  1.9837
18355SOL    HW257073   8.268   9.595   1.545 -0.5562 -2.1428 -3.1142
18356SOL     OW57074   6.059   9.758   5.294  0.2360 -0.0463 -0.1757
18356SOL    HW157075   5.991   9.793   5.351 -0.8859  1.4917 -2.3144
18356SOL    HW257076   6.133   9.818   5.307 -0.1006  0.4458 -0.4655
18357SOL     OW57077   0.702  10.440  10.104  0.3048  0.5364 -0.0628
18357SOL    HW157078   0.771  10.504  10.087 -1.0368  2.2056  0.4026
18357SOL    HW257079   0.621  10.490  10.095 -0.7582 -0.2728  3.4653
18358SOL     OW57080   1.194  10.664   9.447 -0.6904  0.2793  0.1029
18358SOL    HW157081   1.144  10.591   9.409  1.2121 -1.4255  0.6548
18358SOL    HW257082   1.191  10.733   9.381  0.8138 -1.8218 -2.3794
18359SOL     OW57083   5.199   0.518   8.624 -0.2105 -0.1986 -0.3681
18359SOL    HW157084   5.194   0.430   8.587  1.5616 -0.9764  1.0893
18359SOL    HW257085   5.186   0.505   8.718 -1.1955  1.2896 -0.2597
18360SOL     OW57086   1.455   6.562   8.341 -0.5659 -0.2288 -0.0245
18360SOL    HW157087   1.447   6.571   8.436 -0.8554 -2.6208  0.2643
18360SOL    HW257088   1.497   6.642   8.312 -0.3990  0.5272  2.1341
18361SOL     OW57089   6.819   5.767   2.598  0.1382  1.0416 -0.1665
18361SOL    HW157090   6.794   5.812   2.678 -1.8013  2.5702 -1.5319
18361SOL    HW257091   6.827   5.837   2.532  0.4472 -0.2694 -1.5918
18362SOL     OW57092   3.536   8.278   3.270  0.0966  0.4651 -0.1576
18362SOL    HW157093   3.608   8.273   3.333  0.1446 -0.7744 -0.2825
18362SOL    HW257094   3.461   8.308   3.322  0.4731  0.8597  0.1716
18363SOL     OW57095   3.835   8.583   7.431 -0.4970 -0.0900  0.4585
18363SOL    HW157096   3.797   8.574   7.518 -2.1909 -0.2090 -0.2610
18363SOL    HW257097   3.803   8.507   7.383  0.2904  0.0561 -0.3202
18364SOL     OW57098   7.841   8.186   6.473  0.3856 -0.3789  0.7967
18364SOL    HW157099   7.769   8.173   6.535  1.0048 -0.5334  1.5005
18364SOL    HW257100   7.820   8.269   6.429 -0.0157 -0.2120  1.2924
18365SOL     OW57101   2.954   8.259   6.325 -0.0122  0.1706  0.1560
18365SOL    HW157102   3.008   8.322   6.278 -0.8463  1.4487  0.8652
18365SOL    HW257103   2.995   8.174   6.307  0.8712  0.8537 -1.1743
18366SOL     OW57104   2.929   7.122   3.623 -0.3422  0.0848  1.0803
18366SOL    HW157105   2.970   7.057   3.680  0.5224  0.2263  0.6369
18366SOL    HW257106   2.941   7.205   3.669 -1.8919 -0.1009  1.8902
18367SOL     OW57107   2.877   9.641   1.618 -0.1552 -0.2291 -0.3395
18367SOL    HW157108   2.845   9.698   1.688  0.8067  0.5798 -0.5453
18367SOL    HW257109   2.971   9.659   1.613  0.3216 -2.4048  0.0971
18368SOL     OW57110   6.860   2.259   7.382  0.0622  0.3980 -0.4916
18368SOL    HW157111   6.908   2.327   7.334  3.0260 -0.4923  0.9504
18368SOL    HW257112   6.923   2.187   7.390 -1.7953 -1.1632  1.0128
18369SOL     OW57113  10.218   7.357   6.547 -0.3470 -0.1575  0.6739
18369SOL    HW157114  10.279   7.370   6.620 -1.7341 -1.4009  2.1385
18369SOL    HW257115  10.135   7.336   6.589 -0.8860 -2.2851 -1.2346
18370SOL     OW57116   2.471   2.411   6.541 -0.0730  0.5082 -0.0799
18370SOL    HW157117   2.455   2.341   6.478  1.3600 -0.2786  0.3808
18370SOL    HW257118   2.511   2.481   6.490 -0.5144  0.5681 -0.3479
18371SOL     OW57119   3.739   2.276   3.725  0.3603  0.4062  0.0144
18371SOL    HW157120   3.709   2.200   3.776  3.6006 -2.8925 -2.5212
18371SOL    HW257121   3.666   2.295   3.666 -0.2221 -1.3025  0.1282
18372SOL     OW57122   5.061   6.708   4.368  0.4049 -0.5331  0.0535
18372SOL    HW157123   5.051   6.700   4.463  0.6191 -0.5688  0.0733
18372SOL    HW257124   5.120   6.637   4.344 -0.2265 -0.9784 -0.2119
18373SOL     OW57125   8.733   9.821   2.099 -0.0344  0.2840  0.2236
18373SOL    HW157126   8.799   9.764   2.059  1.4253  1.0163  1.4871
18373SOL    HW257127   8.692   9.866   2.025  0.5189 -0.5611 -0.6205
18374SOL     OW57128   9.199   5.559   7.246 -0.0445 -0.3680 -0.4438
18374SOL    HW157129   9.172   5.519   7.329  1.1061  1.5089  0.8974
18374SOL    HW257130   9.288   5.527   7.231 -0.1601 -0.5120 -0.8370
18375SOL     OW57131   4.666   2.554   8.260 -0.1165 -0.2739 -0.5432
18375SOL    HW157132   4.680   2.516   8.346 -0.4284 -0.6706 -0.6651
18375SOL    HW257133   4.576   2.587   8.262 -0.3243 -0.8146 -0.9138
18376SOL     OW57134  10.234   9.147   2.705 -0.7760  0.0691  0.1712
18376SOL    HW157135  10.148   9.129   2.669 -0.8092 -0.7831  0.6530
18376SOL    HW257136  10.292   9.152   2.628 -0.9050 -1.3863 -0.0457
18377SOL     OW57137   8.722   2.363  10.490 -0.2629  0.1062 -0.1223
18377SOL    HW157138   8.751   2.386  10.401  1.2024 -0.6967  0.1175
18377SOL    HW257139   8.718   2.268  10.490 -1.4192  0.1444  0.3448
18378SOL     OW57140   1.198   8.234   0.815  0.5180  0.2103 -0.1786
18378SOL    HW157141   1.290   8.247   0.791  0.7510 -0.0519  0.5171
18378SOL    HW257142   1.151   8.234   0.732  1.1037  0.7037 -0.5179
18379SOL     OW57143   1.996   0.906   3.798 -0.0083 -0.6157 -0.6263
18379SOL    HW157144   1.988   0.994   3.761  2.5863 -0.6395 -1.4212
18379SOL    HW257145   1.947   0.850   3.738 -0.1292  0.0371 -1.1458
18380SOL     OW57146  10.842   0.026   3.921  0.0771  0.0397 -0.0727
18380SOL    HW157147  10.755   0.066   3.918 -0.1732 -0.5065 -0.1654
18380SOL    HW257148  10.855  -0.010   3.834 -0.7268 -2.2180  0.6674
18381SOL     OW57149   8.034   8.581  10.292 -0.2676 -0.1039 -0.4963
18381SOL    HW157150   7.989   8.497  10.277  1.0545 -1.4209  2.0939
18381SOL    HW257151   7.976   8.646  10.253 -1.8491 -2.1213 -1.7794
18382SOL     OW57152   6.221   0.256  10.406 -0.4330  0.7293 -0.3101
18382SOL    HW157153   6.283   0.324  10.379  0.6250  0.7445  1.9899
18382SOL    HW257154   6.250   0.230  10.493  0.0018 -3.6657 -1.5435
18383SOL     OW57155   2.293   7.997   6.085  0.4581 -0.1736 -0.0614
18383SOL    HW157156   2.239   8.076   6.078 -0.3961 -0.6678  0.7208
18383SOL    HW257157   2.245   7.940   6.145  1.1458 -1.2286 -0.4824
18384SOL     OW57158   1.656   5.393   8.725  0.7019 -0.1593 -0.3409
18384SOL    HW157159   1.735   5.394   8.670 -0.0336  1.4281 -1.4734
18384SOL    HW257160   1.645   5.485   8.751 -1.5035 -0.0674 -1.3717
18385SOL     OW57161   1.389   7.936   5.958 -0.1663 -0.1464  0.0872
18385SOL    HW157162   1.363   7.912   5.869  0.9765 -0.0159 -0.2970
18385SOL    HW257163   1.365   7.861   6.011  0.9710 -1.0836 -0.6759
18386SOL     OW57164   9.171   9.785   8.594 -0.1433  0.0061  0.1759
18386SOL    HW157165   9.086   9.750   8.620 -0.4176  0.6847  0.2034
18386SOL    HW257166   9.224   9.780   8.674 -0.3627  0.1941  0.3347
18387SOL     OW57167   8.318   9.135   5.006  0.5225 -0.0810 -0.0078
18387SOL    HW157168   8.399   9.110   5.051  0.9207  0.9302 -0.1446
18387SOL    HW257169   8.266   9.055   5.005  0.4980 -0.1452  2.2269
18388SOL     OW57170   1.193   0.746   6.165 -0.2865 -0.0476  0.3342
18388SOL    HW157171   1.174   0.773   6.255  1.8427 -3.1786  1.9133
18388SOL    HW257172   1.122   0.686   6.142 -1.0059  1.0006 -0.2652
18389SOL     OW57173   6.467   6.837   7.339  0.1626 -0.0837  0.1247
18389SOL    HW157174   6.410   6.774   7.296 -0.8092  1.9139 -1.7055
18389SOL    HW257175   6.544   6.844   7.282  0.4076  0.1597  0.4738
18390SOL     OW57176   5.829   9.362   8.134  0.1537  0.3303 -0.1639
18390SOL    HW157177   5.783   9.310   8.068  0.4641  0.3745 -0.4148
18390SOL    HW257178   5.760   9.411   8.179 -0.4330 -1.8187  1.4683
18391SOL     OW57179   1.651   2.781   1.038 -0.1784 -0.6460 -0.3505
18391SOL    HW157180   1.571   2.825   1.010  0.3485 -0.0220 -0.8987
18391SOL    HW257181   1.696   2.759   0.956  0.8026  0.1231 -0.0406
18392SOL     OW57182   8.886   2.214   8.879 -0.4195  0.1443  0.1604
18392SOL    HW157183   8.918   2.164   8.954  0.3147 -0.9141 -0.8185
18392SOL    HW257184   8.947   2.287   8.871  0.3697 -0.5324 -0.2332
18393SOL     OW57185   7.492   4.226   3.003  0.1431  0.0053 -0.8497
18393SOL    HW157186   7.514   4.152   2.947  1.0168  1.1228 -2.0669
18393SOL    HW257187   7.402   4.209   3.032 -0.2127 -0.7831 -2.3263
18394SOL     OW57188   9.397   7.490   8.787 -0.5136 -0.4109 -0.1622
18394SOL    HW157189   9.418   7.541   8.866 -1.6746  0.9937 -0.7062
18394SOL    HW257190   9.344   7.550   8.734  2.8732 -0.0039 -3.5607
18395SOL     OW57191   1.831   0.251   6.163 -0.3257  0.2697 -0.2373
18395SOL    HW157192   1.767   0.198   6.117 -0.4426 -1.3373  1.6317
18395SOL    HW257193   1.891   0.187   6.203  2.2891  1.6951 -1.6340
18396SOL     OW57194   3.196   1.957   3.092 -0.2197  0.0642 -0.2808
18396SOL    HW157195   3.289   1.979   3.096 -0.0915 -0.6155  0.9298
18396SOL    HW257196   3.157   2.028   3.041  0.7770  0.9761  0.1875
18397SOL     OW57197   9.816   1.125   1.910  0.3557  0.3831  0.1223
18397SOL    HW157198   9.773   1.170   1.983 -1.7527 -1.4299  0.1080
18397SOL    HW257199   9.757   1.140   1.835  0.9725 -0.1973 -0.4879
18398SOL     OW57200   0.828   4.357   1.422  0.5595 -0.1650  0.3555
18398SOL    HW157201   0.805   4.271   1.455  1.4974 -0.9698 -0.9884
18398SOL    HW257202   0.745   4.405   1.417  0.2056 -0.5005  2.3761
18399SOL     OW57203   1.628   9.957   1.955 -0.1524 -0.5337 -0.4294
18399SOL    HW157204   1.701   9.894   1.964  0.9267  0.8353  0.9649
18399SOL    HW257205   1.550   9.906   1.976  0.6337 -1.5751  0.0712
18400SOL     OW57206   3.113   0.577   3.849  0.4309 -0.4648  0.5816
18400SOL    HW157207   3.098   0.641   3.919  2.7446  0.6913  0.1118
18400SOL    HW257208   3.037   0.586   3.792  0.0953  0.9458  1.2075
18401SOL     OW57209   7.192   8.502   0.319 -0.5460 -0.0145 -0.0523
18401SOL    HW157210   7.180   8.470   0.230 -1.0714 -2.8358  0.9254
18401SOL    HW257211   7.266   8.452   0.353 -0.8156  0.4540  1.3223
18402SOL     OW57212  10.929   7.170   2.878 -0.1601 -0.3085 -0.3891
18402SOL    HW157213  10.958   7.099   2.936 -0.3128  0.1260  0.2214
18402SOL    HW257214  10.908   7.242   2.937  1.3817  0.7563 -1.0876
18403SOL     OW57215   9.187   4.536  10.111  0.3264 -0.1375  0.7873
18403SOL    HW157216   9.111   4.503  10.064 -0.0486  2.3536 -0.5772
18403SOL    HW257217   9.243   4.460  10.124 -0.1834 -1.2574 -2.5800
18404SOL     OW57218  10.923   2.738   9.261 -0.3588  0.2889 -0.0360
18404SOL    HW157219  10.999   2.774   9.216  0.5403 -2.3804 -0.8107
18404SOL    HW257220  10.857   2.807   9.255  1.3858  1.9627 -0.9553
18405SOL     OW57221   3.144   5.792   8.824  0.3737 -0.2478  0.2137
18405SOL    HW157222   3.210   5.750   8.769  0.3215 -0.6975  0.4905
18405SOL    HW257223   3.091   5.720   8.858  1.6565 -0.2150  2.5166
18406SOL     OW57224   8.929   4.656   3.803 -0.1102  0.1601  0.5054
18406SOL    HW157225   8.964   4.570   3.782  0.3656  0.9265 -2.3681
18406SOL    HW257226   8.953   4.671   3.894  1.8900 -1.7895  0.3780
18407SOL     OW57227  10.552   6.387   0.636  0.1524  0.1098  0.6169
18407SOL    HW157228  10.483   6.405   0.572 -1.3022  0.6142  2.2574
18407SOL    HW257229  10.575   6.296   0.621 -1.0340 -0.1389  0.1809
18408SOL     OW57230   3.401   1.664   7.086 -0.1794 -1.2291  0.2282
18408SOL    HW157231   3.484   1.710   7.101  0.1938 -2.4056  2.2144
18408SOL    HW257232   3.344   1.730   7.047  1.2623  0.0212  0.1321
18409SOL     OW57233   5.799   1.952   2.792  0.1391  0.3747 -0.6644
18409SOL    HW157234   5.720   1.902   2.767  0.0127 -0.1636  0.7245
18409SOL    HW257235   5.777   1.991   2.876  0.9531  1.1991 -0.8187
18410SOL     OW57236   5.444   1.857   2.384 -0.2687 -0.0356 -0.0199
18410SOL    HW157237   5.534   1.844   2.354 -0.9695 -0.9958 -1.9237
18410SOL    HW257238   5.393   1.864   2.303 -1.9921 -0.1811  1.0015
18411SOL     OW57239   9.820   9.390   0.738 -0.3879  0.6093 -0.1320
18411SOL    HW157240   9.782   9.328   0.800 -0.5523  0.1318 -0.7060
18411SOL    HW257241   9.859   9.336   0.670 -0.4444  1.1299 -0.5906
18412SOL     OW57242   6.148   6.022   9.429  0.7342 -0.6629  0.3629
18412SOL    HW157243   6.243   6.033   9.425  0.6241  0.8843  1.3084
18412SOL    HW257244   6.129   6.009   9.522 -0.0961  0.6977  0.4201
18413SOL     OW57245   6.009   0.118   9.572  0.1288 -0.2206 -0.3334
18413SOL    HW157246   6.042   0.073   9.495  0.9593  0.8199 -0.6132
18413SOL    HW257247   5.917   0.134   9.553  0.3619  0.1586 -1.1844
18414SOL     OW57248   1.994   9.082   8.015  0.7107 -0.2945 -0.0049
18414SOL    HW157249   2.065   9.096   7.953 -1.1556 -0.6329 -2.3467
18414SOL    HW257250   1.956   9.169   8.030 -0.2191 -0.4774 -1.1452
18415SOL     OW57251   2.707   3.080  10.469  0.6147 -0.2404 -0.0370
18415SOL    HW157252   2.764   3.093  10.544  0.2152 -0.7315  0.3536
18415SOL    HW257253   2.681   3.169  10.443 -0.9347 -0.1242  1.7172
18416SOL     OW57254   4.835   7.880   9.138  0.6985 -0.3151 -0.2734
18416SOL    HW157255   4.812   7.799   9.183  0.6109 -0.0426  0.1728
18416SOL    HW257256   4.753   7.911   9.100  0.2744  0.6647  1.3299
18417SOL     OW57257   5.075   9.659   5.706 -0.3133  0.0558  0.4440
18417SOL    HW157258   5.073   9.580   5.759 -0.0819 -0.5369 -0.3991
18417SOL    HW257259   5.168   9.680   5.698 -0.4431  1.7325  2.5146
18418SOL     OW57260   2.777  10.246   0.491  0.1015  0.0370 -0.3765
18418SOL    HW157261   2.831  10.197   0.430  1.3103 -0.2082  0.8393
18418SOL    HW257262   2.745  10.180   0.553  1.7049  0.6917  1.2453
18419SOL     OW57263   9.238   2.159   5.483 -0.0961  0.3071  0.2844
18419SOL    HW157264   9.290   2.208   5.419 -1.4804  0.6281 -0.6288
18419SOL    HW257265   9.162   2.215   5.501 -0.4968 -0.4602  1.0567
18420SOL     OW57266   4.311   4.808   7.555  0.0062 -0.1873  0.1503
18420SOL    HW157267   4.391   4.821   7.504  0.9131 -0.0420  1.5529
18420SOL    HW257268   4.336   4.748   7.625 -0.6208  1.1804  1.6322
18421SOL     OW57269   6.389   8.041   6.501  0.4507  0.1382 -0.4090
18421SOL    HW157270   6.459   8.104   6.519  0.6076 -0.4100  1.0242
18421SOL    HW257271   6.430   7.973   6.448  0.4456  0.8850 -1.4016
18422SOL     OW57272   6.463   6.949   0.996  0.8615 -0.1150  0.2790
18422SOL    HW157273   6.446   7.011   1.067  0.9807  0.5402 -0.2518
18422SOL    HW257274   6.534   6.988   0.947  0.8621 -0.6255 -0.1379
18423SOL     OW57275   3.762   5.198   6.569  0.1320 -0.4911 -0.1390
18423SOL    HW157276   3.711   5.213   6.649  1.0534 -0.0727  0.3867
18423SOL    HW257277   3.845   5.161   6.600  1.2249  1.3262 -0.7089
18424SOL     OW57278   2.897   5.994   2.002  0.1851 -0.1651 -0.3422
18424SOL    HW157279   2.936   5.918   1.959 -1.4978 -0.7019 -1.0232
18424SOL    HW257280   2.841   5.957   2.070  0.1825  0.5222  0.0367
18425SOL     OW57281  10.898   9.869   3.574  0.1008  0.5797  0.4427
18425SOL    HW157282  10.856   9.793   3.534 -0.2910  0.5389  0.9160
18425SOL    HW257283  10.957   9.902   3.507 -0.6060  0.5684 -0.2056
18426SOL     OW57284   9.547   4.410   8.487 -0.2698  0.1493 -0.2962
18426SOL    HW157285   9.553   4.477   8.419  0.2336 -0.2271 -0.6249
18426SOL    HW257286   9.460   4.371   8.476 -1.7822  2.5926  1.6380
18427SOL     OW57287  10.236   1.987   5.356  0.0551 -0.4312 -0.6025
18427SOL    HW157288  10.324   1.960   5.333  0.5827 -0.9513  1.7276
18427SOL    HW257289  10.193   1.906   5.384  0.2502  0.3494  2.2878
18428SOL     OW57290   4.991   6.397   9.081  0.1835 -0.0095 -0.0482
18428SOL    HW157291   4.949   6.369   8.999 -0.4162  0.8376 -0.0438
18428SOL    HW257292   4.954   6.340   9.148  0.7462 -0.7704 -0.3771
18429SOL     OW57293   8.072   1.562   8.499  0.5079  0.1779 -0.0648
18429SOL    HW157294   8.159   1.524   8.508  0.7462  0.1322 -2.2075
18429SOL    HW257295   8.081   1.630   8.433 -1.2326 -0.3772 -0.9594
18430SOL     OW57296   2.753   1.712   4.451  0.4436 -0.4022  0.3677
18430SOL    HW157297   2.699   1.639   4.482  0.8287  0.0677  2.2501
18430SOL    HW257298   2.710   1.790   4.486 -0.3420  0.3952 -2.1740
18431SOL     OW57299   7.595  10.986   4.371  0.1797  0.2796 -0.4390
18431SOL    HW157300   7.531  10.934   4.418  0.3980 -1.8884 -2.3385
18431SOL    HW257301   7.654  11.019   4.438 -1.3129  0.0281  1.0617
18432SOL     OW57302   1.871   0.962   6.255 -0.3437 -0.4570  0.2707
18432SOL    HW157303   1.866   0.881   6.203 -1.2432  0.5601 -1.2912
18432SOL    HW257304   1.805   0.950   6.323 -0.5069 -1.0218  0.0276
18433SOL     OW57305  10.936   2.778  10.167 -0.0686 -0.5045  0.7893
18433SOL    HW157306  10.864   2.808  10.221 -2.1918 -3.2791 -0.2752
18433SOL    HW257307  11.011   2.774  10.226 -1.5367 -0.4455  2.7294
18434SOL     OW57308   2.466   8.995  10.030  0.2987 -0.0314 -0.0339
18434SOL    HW157309   2.504   8.966  10.114  0.3772 -0.2728 -0.1507
18434SOL    HW257310   2.418   8.919   9.999  1.9745 -0.6776 -1.2156
18435SOL     OW57311   9.988   0.602   9.000 -0.6836  0.7374  0.4073
18435SOL    HW157312  10.033   0.521   9.026 -0.7657  0.7134  0.4744
18435SOL    HW257313   9.996   0.603   8.904 -2.1855 -0.2583  0.2237
18436SOL     OW57314   1.346   5.993   7.712  0.5136  0.3486  0.1341
18436SOL    HW157315   1.320   6.075   7.670  2.0438  0.3935 -0.7834
18436SOL    HW257316   1.268   5.965   7.759 -0.1988  2.0812  0.0794
18437SOL     OW57317  10.786   5.708  10.258  0.3144 -0.7211 -0.7955
18437SOL    HW157318  10.828   5.721  10.343 -0.2211  1.7999 -0.8337
18437SOL    HW257319  10.857   5.716  10.194  0.4461 -0.8085 -0.6588
18438SOL     OW57320   6.539   8.324   5.840  0.0274  0.2433  0.1230
18438SOL    HW157321   6.491   8.260   5.893  0.0762  1.3205  1.5417
18438SOL    HW257322   6.472   8.377   5.798 -0.0381 -1.5201 -2.1519
18439SOL     OW57323   1.502   5.358   1.542 -0.1394  0.1574  0.3222
18439SOL    HW157324   1.455   5.366   1.459 -0.2243 -1.6678  0.1526
18439SOL    HW257325   1.577   5.302   1.522 -0.2076 -0.3687  1.4817
18440SOL     OW57326   9.479   9.638   9.255 -0.3191 -0.3835  0.0785
18440SOL    HW157327   9.541   9.711   9.261  0.7344 -1.2180 -0.2717
18440SOL    HW257328   9.402   9.675   9.212  0.4442  0.3836 -0.6801
18441SOL     OW57329   4.704   6.308   5.854 -0.1974  0.0109  0.9551
18441SOL    HW157330   4.622   6.299   5.901 -0.4550 -0.3086  0.4503
18441SOL    HW257331   4.688   6.377   5.790 -0.8298 -1.6079 -0.7116
18442SOL     OW57332   6.076   9.470   7.305  0.0661  0.3161  0.1333
18442SOL    HW157333   6.076   9.431   7.218  0.9964 -0.7678  0.6022
18442SOL    HW257334   6.164   9.454   7.339  0.0662  1.6875  0.8624
18443SOL     OW57335   3.330  10.645   7.677  0.2558  0.2069  0.2480
18443SOL    HW157336   3.335  10.627   7.583 -0.5713  1.6436 -0.1083
18443SOL    HW257337   3.272  10.721   7.683  2.2162  1.6778  1.7239
18444SOL     OW57338   5.724   0.214   5.239 -0.5209  0.5298 -0.0802
18444SOL    HW157339   5.689   0.301   5.224 -0.5150  0.8662  1.6907
18444SOL    HW257340   5.800   0.228   5.296  0.8921 -0.4373 -1.6355
18445SOL     OW57341   5.531   8.805   0.899  0.0418 -0.0071  0.0781
18445SOL    HW157342   5.552   8.745   0.827 -0.5436  1.0676 -1.0299
18445SOL    HW257343   5.464   8.760   0.950 -0.3895 -0.2993 -0.7357
18446SOL     OW57344   4.826   7.597   8.275 -0.2005  0.6283  0.2168
18446SOL    HW157345   4.877   7.677   8.267  0.5221  0.4570  2.4354
18446SOL    HW257346   4.770   7.611   8.352 -1.9594 -0.0326 -0.8704
18447SOL     OW57347   8.057   6.642   4.850 -0.0878  0.3698  0.2401
18447SOL    HW157348   8.027   6.579   4.915  0.5784  0.0614  0.2555
18447SOL    HW257349   8.047   6.597   4.766  0.5692  0.1581  0.2664
18448SOL     OW57350   4.064   6.263   5.912 -0.7883  0.4798 -0.4772
18448SOL    HW157351   4.058   6.182   5.862 -2.1386  0.2512 -0.0100
18448SOL    HW257352   4.100   6.236   5.997  0.1756  0.6317 -0.8305
18449SOL     OW57353   5.592   3.028   4.457  0.2241  0.1720 -0.3467
18449SOL    HW157354   5.595   3.112   4.412 -1.4299 -0.5672 -1.9705
18449SOL    HW257355   5.503   3.023   4.494  0.7034 -0.3608  0.8008
18450SOL     OW57356   8.137   7.089   9.416  0.8675 -0.0840  0.1314
18450SOL    HW157357   8.070   7.043   9.366  1.9918 -1.6113 -0.0250
18450SOL    HW257358   8.219   7.066   9.373  1.5123  1.8117  0.2738
18451SOL     OW57359   7.134   8.109   1.399  0.0848 -0.1202 -0.1353
18451SOL    HW157360   7.220   8.149   1.383  0.1251 -0.9589 -2.4070
18451SOL    HW257361   7.082   8.134   1.323 -1.2692 -0.7399  0.5627
18452SOL     OW57362   0.062   6.083   2.463  0.3509 -0.6036 -0.0297
18452SOL    HW157363  -0.026   6.091   2.426  0.4409  0.4204 -0.0393
18452SOL    HW257364   0.051   6.101   2.556  0.3561 -1.7894  0.2250
18453SOL     OW57365   9.732   0.480   2.670  0.3204  0.2625 -0.4985
18453SOL    HW157366   9.731   0.411   2.604 -0.6581  0.3905 -0.6339
18453SOL    HW257367   9.788   0.548   2.632 -0.0182  0.2225 -1.0822
18454SOL     OW57368   3.898   9.672   7.129  0.1660  0.0153  0.2220
18454SOL    HW157369   3.880   9.578   7.131 -1.5812  0.3222  0.5217
18454SOL    HW257370   3.815   9.712   7.154  0.6917  1.6695 -0.5924
18455SOL     OW57371   5.812   6.703   0.333 -0.3802  0.3685  0.4043
18455SOL    HW157372   5.849   6.759   0.265 -2.0849 -0.1696 -1.0436
18455SOL    HW257373   5.854   6.618   0.319 -0.7183  0.2617  0.0048
18456SOL     OW57374   5.711   9.682   2.145 -0.6765  0.3904  0.3383
18456SOL    HW157375   5.642   9.635   2.191 -0.8540  0.5797  0.2669
18456SOL    HW257376   5.665   9.747   2.092 -0.5273 -0.1969 -0.5529
18457SOL     OW57377   0.677   1.231   7.019  0.0477  0.2308  0.5308
18457SOL    HW157378   0.727   1.308   7.048  4.3762 -2.4677  1.1254
18457SOL    HW257379   0.661   1.181   7.098 -0.4113 -0.6679 -0.1153
18458SOL     OW57380   4.466   5.031   9.194  0.2063  0.5064  0.1619
18458SOL    HW157381   4.432   4.944   9.171  1.8428 -0.3616  0.8111
18458SOL    HW257382   4.553   5.034   9.154 -0.2192  2.2922 -0.7255
18459SOL     OW57383   9.478   9.610   5.531  0.8371  0.3005  0.0860
18459SOL    HW157384   9.549   9.624   5.594 -1.2044  3.3355  2.0274
18459SOL    HW257385   9.440   9.525   5.555  1.7549  0.1927  1.2438
18460SOL     OW57386   1.088   4.065   7.000 -0.3368 -0.5141 -0.0020
18460SOL    HW157387   1.124   4.071   7.088 -0.2181 -1.7230  0.0531
18460SOL    HW257388   0.993   4.069   7.013 -0.3678 -1.8271  0.3182
18461SOL     OW57389   5.403   8.343   3.821 -0.0901 -0.2826  0.5026
18461SOL    HW157390   5.342   8.289   3.872 -2.4421  1.8646  0.1687
18461SOL    HW257391   5.473   8.365   3.882 -0.9117 -0.8042  1.6710
18462SOL     OW57392   0.978   7.987   4.570 -0.2687  0.2524  0.7210
18462SOL    HW157393   0.939   8.044   4.504 -0.1582 -0.0587  0.3832
18462SOL    HW257394   0.908   7.973   4.634 -1.1023 -1.2099 -0.4485
18463SOL     OW57395   5.714   8.595   1.674 -0.7181 -0.4128 -0.2836
18463SOL    HW157396   5.701   8.513   1.626 -1.8191 -2.6058  3.3992
18463SOL    HW257397   5.628   8.616   1.709 -0.5597  2.7138 -1.4811
18464SOL     OW57398   2.413   7.368   0.655 -0.1452 -0.3189  0.0371
18464SOL    HW157399   2.430   7.410   0.571 -1.2913 -0.5174 -0.3081
18464SOL    HW257400   2.367   7.434   0.707  1.6909  0.2609  1.0134
18465SOL     OW57401   7.749   3.354   5.291 -0.0646 -0.2147  0.1556
18465SOL    HW157402   7.820   3.402   5.250 -1.0473  1.4738  0.3580
18465SOL    HW257403   7.698   3.320   5.217 -0.4081  0.6681 -0.0263
18466SOL     OW57404   8.978   2.060   7.717 -0.6182  0.1064 -0.6261
18466SOL    HW157405   9.035   2.034   7.789  0.3412 -1.0686 -1.7658
18466SOL    HW257406   8.891   2.066   7.756  0.1433  1.2831  1.0044
18467SOL     OW57407   4.524   8.224   1.835  0.4161 -0.3529  0.0612
18467SOL    HW157408   4.605   8.215   1.885  1.0134  2.6623 -0.1996
18467SOL    HW257409   4.478   8.297   1.877 -1.9600 -1.6330 -0.1440
18468SOL     OW57410   3.609   4.309   8.059  0.5144 -0.4345  0.1511
18468SOL    HW157411   3.684   4.341   8.008  0.6937  0.4156  0.9165
18468SOL    HW257412   3.537   4.309   7.997  1.4435 -2.8384 -1.0587
18469SOL     OW57413   6.742   9.444   3.240  0.4340 -0.7382 -0.2262
18469SOL    HW157414   6.722   9.425   3.148 -0.7944 -1.6757  0.2118
18469SOL    HW257415   6.687   9.519   3.261 -0.1074 -1.2059  0.0413
18470SOL     OW57416   8.757   6.494   2.454  0.1532 -0.1857 -0.2633
18470SOL    HW157417   8.703   6.530   2.524  2.1661  0.0837  1.2709
18470SOL    HW257418   8.844   6.485   2.494  1.1622 -0.9312 -2.4708
18471SOL     OW57419   2.574   4.395   3.756 -0.5645  0.0595 -0.0881
18471SOL    HW157420   2.543   4.415   3.667 -0.2874 -0.8097 -0.3919
18471SOL    HW257421   2.504   4.341   3.794  0.2661 -1.4396 -0.5806
18472SOL     OW57422   5.190   5.907   3.295 -0.0960 -0.2836 -0.4887
18472SOL    HW157423   5.276   5.880   3.264  0.2779  0.3581 -0.0353
18472SOL    HW257424   5.201   5.920   3.390 -0.8179 -0.6785 -0.3365
18473SOL     OW57425   5.988   5.739   8.074 -0.0229  0.1537  0.0647
18473SOL    HW157426   6.015   5.806   8.137  3.2537  0.2403 -1.2073
18473SOL    HW257427   5.945   5.787   8.003  0.5416  0.6856  0.0746
18474SOL     OW57428   4.560   1.346   0.641 -0.3006 -0.0478 -0.0758
18474SOL    HW157429   4.573   1.252   0.636 -1.8800 -0.3583  0.7587
18474SOL    HW257430   4.493   1.365   0.575  1.0437  0.7492 -1.2599
18475SOL     OW57431   9.600  10.880  10.718  0.1782 -0.0148  0.1722
18475SOL    HW157432   9.569  10.837  10.638 -0.4110  0.5418  0.0909
18475SOL    HW257433   9.627  10.967  10.689  2.1119 -0.5444  0.1880
18476SOL     OW57434   4.441   6.415  11.019 -0.1476  0.0669 -0.7619
18476SOL    HW157435   4.512   6.418  11.082  0.1586  0.7610 -1.1265
18476SOL    HW257436   4.419   6.322  11.012 -0.4034  0.0050  0.5844
18477SOL     OW57437   5.708   3.321   1.210 -0.1314  0.0790  0.0333
18477SOL    HW157438   5.718   3.232   1.177 -0.4547  0.0263  0.0715
18477SOL    HW257439   5.732   3.378   1.137 -0.6112 -0.0382 -0.2197
18478SOL     OW57440   4.633   7.223   2.629  0.7075 -0.1691 -0.0743
18478SOL    HW157441   4.718   7.197   2.592  1.4735  1.1031  0.7298
18478SOL    HW257442   4.605   7.146   2.679  1.0279 -0.8625 -0.9310
18479SOL     OW57443   1.127   6.763   2.698 -0.2862 -0.4644  0.6325
18479SOL    HW157444   1.188   6.836   2.707  0.3714 -1.0502  1.0350
18479SOL    HW257445   1.145   6.707   2.774 -0.1100 -1.5246 -0.1635
18480SOL     OW57446   1.685   5.558   7.498 -0.3509 -0.5658 -0.1367
18480SOL    HW157447   1.634   5.537   7.576 -1.9369  0.0959 -0.9713
18480SOL    HW257448   1.716   5.648   7.513 -1.3529 -0.1310 -0.6141
18481SOL     OW57449   5.273   8.912   9.385 -0.2892 -0.1317 -0.2115
18481SOL    HW157450   5.320   8.948   9.309 -0.5278  0.0246 -0.2882
18481SOL    HW257451   5.276   8.817   9.373  1.2113 -0.1923  0.5104
18482SOL     OW57452   4.161   5.215   9.613 -0.6977  0.0137 -0.2064
18482SOL    HW157453   4.094   5.170   9.563  0.2256 -0.4902 -1.0203
18482SOL    HW257454   4.208   5.268   9.549  0.8157 -1.0134  0.0051
18483SOL     OW57455   7.124   3.131   1.377  0.1369  0.3123 -0.1221
18483SOL    HW157456   7.188   3.075   1.332 -0.8831 -0.3385 -0.8099
18483SOL    HW257457   7.043   3.080   1.376 -0.7154  1.6326 -0.3703
18484SOL     OW57458   8.223   5.910   0.271  0.1244  0.3323 -0.0097
18484SOL    HW157459   8.237   6.003   0.289 -0.4299  0.5574 -0.7097
18484SOL    HW257460   8.252   5.898   0.181 -3.9610  0.8466 -1.5944
18485SOL     OW57461   2.728  10.067   0.693  0.2140 -0.3963  0.2147
18485SOL    HW157462   2.741   9.984   0.738 -0.9293 -0.0782  1.1791
18485SOL    HW257463   2.688  10.124   0.759 -1.4412  0.1210 -1.1687
18486SOL     OW57464   5.372   6.923   1.584  0.2535 -0.5854 -0.4482
18486SOL    HW157465   5.353   6.997   1.641  1.1154 -1.8046  1.5279
18486SOL    HW257466   5.460   6.940   1.550  0.1336 -0.3358 -0.6354
18487SOL     OW57467   5.686  10.254   5.512 -0.3878 -0.3901 -0.2045
18487SOL    HW157468   5.602  10.284   5.478 -1.4581 -1.5232  1.3201
18487SOL    HW257469   5.723  10.332   5.554 -0.5862  0.1515 -1.0025
18488SOL     OW57470   6.810   8.714   1.318  0.4642  0.2803 -0.8919
18488SOL    HW157471   6.731   8.742   1.364  0.2196 -0.3484 -0.9165
18488SOL    HW257472   6.778   8.660   1.246  0.9674 -1.6620  0.2540
18489SOL     OW57473   4.867   9.159   0.420 -0.4197 -0.8700  0.5307
18489SOL    HW157474   4.898   9.145   0.331 -3.9939 -1.9443 -0.6967
18489SOL    HW257475   4.904   9.086   0.470  2.5052  0.3306  0.3319
18490SOL     OW57476   1.147   4.312   0.384  0.3400  0.2577 -0.6005
18490SOL    HW157477   1.114   4.280   0.468  0.4805 -1.2034 -1.0896
18490SOL    HW257478   1.156   4.407   0.397  0.0216  0.1037  0.9087
18491SOL     OW57479   7.928   8.740   9.352 -0.2708  0.3368 -0.0779
18491SOL    HW157480   7.844   8.783   9.341 -0.5080 -0.1991 -0.4149
18491SOL    HW257481   7.919   8.657   9.304 -0.3095 -0.7203  1.6796
18492SOL     OW57482   2.022   2.752   0.435  0.2911 -0.6772 -0.0167
18492SOL    HW157483   2.083   2.679   0.421  0.1839 -0.6276 -0.7526
18492SOL    HW257484   2.027   2.769   0.530  1.4338 -0.6657 -0.0597
18493SOL     OW57485   4.262   2.107   7.049 -0.4512  0.2270 -0.4597
18493SOL    HW157486   4.179   2.127   7.006  0.2317  2.5239 -0.8568
18493SOL    HW257487   4.239   2.098   7.141 -1.4989 -1.8849 -0.8665
18494SOL     OW57488   6.948   9.594   7.542 -0.1616  0.0081 -0.4922
18494SOL    HW157489   6.936   9.542   7.463  1.3712  0.6656 -1.2104
18494SOL    HW257490   6.910   9.541   7.612 -0.3550 -1.1900 -1.4705
18495SOL     OW57491   4.474   9.776   0.586 -0.0615 -0.0285  0.1104
18495SOL    HW157492   4.435   9.860   0.560  1.6441  0.4613 -1.1074
18495SOL    HW257493   4.412   9.738   0.647  0.1401  3.2067  2.6328
18496SOL     OW57494   7.575   4.128   5.855  0.2508  0.0418 -0.2736
18496SOL    HW157495   7.532   4.051   5.817 -0.1596 -0.5210  1.2565
18496SOL    HW257496   7.534   4.138   5.941  3.2058 -0.6109  1.3461
18497SOL     OW57497   4.728  10.737  10.080 -0.3043  0.3386 -0.0687
18497SOL    HW157498   4.800  10.788  10.117  1.6727 -2.8799  0.8619
18497SOL    HW257499   4.749  10.729   9.987 -2.3233  3.6275 -1.0174
18498SOL     OW57500   7.624   3.465   2.222  0.0486 -0.8406 -0.0760
18498SOL    HW157501   7.711   3.425   2.218  0.2004 -0.4279 -1.1015
18498SOL    HW257502   7.577   3.427   2.148 -0.7186 -1.2034  0.5839
18499SOL     OW57503   4.932   0.662   7.811 -0.1143 -0.4117 -0.4644
18499SOL    HW157504   5.010   0.652   7.865  0.0288 -0.7401 -0.7246
18499SOL    HW257505   4.871   0.711   7.865 -0.3294 -1.5283  0.3537
18500SOL     OW57506  10.709   0.159   8.266 -0.0374 -0.2821  0.2349
18500SOL    HW157507  10.720   0.072   8.303  2.0099  0.6341  1.9603
18500SOL    HW257508  10.792   0.178   8.223 -1.0566  0.1918 -1.6217
18501SOL     OW57509   5.984   9.972   6.456  0.3713  0.1746  0.3330
18501SOL    HW157510   6.039  10.031   6.508 -1.0675  1.4855  0.4219
18501SOL    HW257511   5.895  10.001   6.473 -0.2323 -0.4544 -1.5790
18502SOL     OW57512   3.710   4.116   9.517  0.0019 -0.0556 -0.9671
18502SOL    HW157513   3.775   4.172   9.559 -0.1218 -0.1443 -0.6611
18502SOL    HW257514   3.678   4.169   9.444  0.7278 -0.1748 -1.3846
18503SOL     OW57515   5.226   0.624   9.016  0.1768 -0.1638 -0.1077
18503SOL    HW157516   5.276   0.603   9.095  1.2417  0.2732 -0.6543
18503SOL    HW257517   5.224   0.542   8.967 -0.6136 -0.4778  0.4186
18504SOL     OW57518  10.642   1.101   0.450  0.3068  0.1272  0.2569
18504SOL    HW157519  10.652   1.185   0.495 -0.2050 -1.1698  2.9775
18504SOL    HW257520  10.550   1.100   0.423  0.8774  1.3721 -1.9385
18505SOL     OW57521   4.518  10.221   7.958  0.2012 -0.2726 -0.1537
18505SOL    HW157522   4.478  10.307   7.950 -0.2275 -0.4827 -0.3460
18505SOL    HW257523   4.608  10.238   7.986 -0.0917  0.2021  0.5244
18506SOL     OW57524   9.562   6.462   7.883  0.1427  0.4805  0.6462
18506SOL    HW157525   9.602   6.483   7.799  0.1554 -1.6707  0.0472
18506SOL    HW257526   9.621   6.501   7.948  0.4369  1.6947 -0.3000
18507SOL     OW57527   4.552  10.123   9.120 -0.1586 -0.3805 -0.1125
18507SOL    HW157528   4.464  10.144   9.152 -0.4007 -0.9556 -0.3831
18507SOL    HW257529   4.611  10.163   9.184 -0.6170 -0.0292  0.0978
18508SOL     OW57530   6.357   6.581  10.178 -0.5230  0.3643 -0.3835
18508SOL    HW157531   6.269   6.615  10.162 -1.7547 -0.9415  2.7359
18508SOL    HW257532   6.402   6.652  10.225 -0.7991  0.1532  0.2136
18509SOL     OW57533   7.488   5.264   9.567  0.0837 -0.2221  0.2576
18509SOL    HW157534   7.520   5.195   9.509  0.6763  0.4164 -0.1865
18509SOL    HW257535   7.397   5.239   9.585 -0.2572 -0.2279 -1.2845
18510SOL     OW57536   9.504   2.129   7.306  0.1903  0.4105  0.2659
18510SOL    HW157537   9.423   2.180   7.314  0.6326  0.9581  1.6705
18510SOL    HW257538   9.493   2.057   7.369  0.6948  0.3665  0.3098
18511SOL     OW57539   2.288   9.311   0.586  0.7226 -0.1331 -0.2249
18511SOL    HW157540   2.322   9.252   0.653  1.7015  1.4682  0.7551
18511SOL    HW257541   2.256   9.387   0.635 -0.5704  0.1549 -1.4408
18512SOL     OW57542   9.818   8.356   1.941 -0.0382  0.4087 -0.1790
18512SOL    HW157543   9.826   8.263   1.922  0.9228  0.7451 -1.6537
18512SOL    HW257544   9.900   8.378   1.986  0.7499  0.9221 -1.7716
18513SOL     OW57545   7.414   9.648   1.561  0.4783  0.3949 -0.4743
18513SOL    HW157546   7.331   9.678   1.525  1.4204  0.2627 -2.9178
18513SOL    HW257547   7.476   9.718   1.540  1.6817 -1.0138 -1.8192
18514SOL     OW57548  10.316  10.633   5.573 -0.1074  0.2670  0.3532
18514SOL    HW157549  10.226  10.663   5.565  0.4937  1.7449 -1.8153
18514SOL    HW257550  10.317  10.547   5.533 -0.6680 -0.0656  1.0347
18515SOL     OW57551   3.824   1.392   0.055  0.0293  0.4081 -0.7116
18515SOL    HW157552   3.887   1.411   0.125 -0.2532 -0.7450 -0.1186
18515SOL    HW257553   3.742   1.375   0.100  0.1326 -1.6241 -1.1792
18516SOL     OW57554   6.139   6.342   7.867 -0.3243 -0.1707 -0.2126
18516SOL    HW157555   6.143   6.425   7.914  0.4879 -0.6738  0.6415
18516SOL    HW257556   6.048   6.313   7.876 -0.8321  1.0090 -1.2358
18517SOL     OW57557   3.254   4.535   1.943  0.3895  0.3926  0.1550
18517SOL    HW157558   3.164   4.518   1.971  0.7743  0.0072  1.2317
18517SOL    HW257559   3.245   4.594   1.868 -0.7723 -0.0428 -0.0770
18518SOL     OW57560   7.233   8.229  10.443  0.4259  0.2603 -0.5203
18518SOL    HW157561   7.310   8.286  10.442  0.7565 -0.1493 -2.6582
18518SOL    HW257562   7.265   8.144  10.414 -0.0990 -1.0721  2.4267
18519SOL     OW57563   0.318   4.526   8.411  0.0417  0.3010  0.5568
18519SOL    HW157564   0.252   4.532   8.480  0.0905 -1.7050  0.8335
18519SOL    HW257565   0.350   4.436   8.417  1.5577  0.7218 -0.7175
18520SOL     OW57566   5.480   8.792   0.203 -0.4771 -0.1986 -0.1455
18520SOL    HW157567   5.545   8.783   0.133 -0.2953  1.0796 -0.1578
18520SOL    HW257568   5.402   8.825   0.159 -0.4788  0.2506  0.1866
18521SOL     OW57569   3.463   0.836   4.723 -0.7100 -0.4698  0.2722
18521SOL    HW157570   3.545   0.853   4.770 -0.4639 -0.4609 -0.1598
18521SOL    HW257571   3.484   0.852   4.631 -1.3255  0.0165  0.2096
18522SOL     OW57572   4.592  10.984   6.319  0.1647  0.1912  0.0904
18522SOL    HW157573   4.591  11.059   6.260 -1.9762 -0.6633 -1.0662
18522SOL    HW257574   4.586  10.908   6.261  1.2595 -0.8570  1.2895
18523SOL     OW57575   6.159   2.281   4.516 -0.0462 -0.1622 -0.3914
18523SOL    HW157576   6.065   2.294   4.506 -0.2205 -2.0090 -1.7412
18523SOL    HW257577   6.183   2.226   4.441  2.3505  1.2956 -0.7917
18524SOL     OW57578   1.151  10.818   4.436  0.3367  0.0382 -0.5095
18524SOL    HW157579   1.198  10.851   4.360  0.6059 -0.6906 -0.6678
18524SOL    HW257580   1.136  10.725   4.416 -1.3474  0.3030 -0.5471
18525SOL     OW57581   0.684   1.766   6.752 -0.2075 -0.3453  0.2014
18525SOL    HW157582   0.650   1.687   6.710 -1.2795  0.3466 -0.2958
18525SOL    HW257583   0.620   1.834   6.729  2.0614  1.3163 -1.6880
18526SOL     OW57584  10.042   0.711   8.729 -0.1145  0.0903  0.6075
18526SOL    HW157585  10.127   0.752   8.745 -0.3375  0.3977  1.0063
18526SOL    HW257586  10.023   0.732   8.638 -0.5653  1.5189  1.0075
18527SOL     OW57587   3.861   0.962   1.533  0.0837  0.1285  0.7566
18527SOL    HW157588   3.854   1.026   1.462  0.0832 -1.6926 -0.9739
18527SOL    HW257589   3.943   0.984   1.577  1.0943  0.1648 -1.0332
18528SOL     OW57590  10.704   9.514   6.484  0.5397  0.2664  0.4517
18528SOL    HW157591  10.772   9.541   6.546  0.4766 -2.0185  1.6446
18528SOL    HW257592  10.753   9.487   6.406  0.8808  0.1331  0.7063
18529SOL     OW57593   1.971  10.788   3.050 -0.2540 -0.5620 -0.2388
18529SOL    HW157594   1.997  10.874   3.018 -0.8915  0.2118  1.2041
18529SOL    HW257595   2.045  10.757   3.102  0.2671 -1.2317 -1.3598
18530SOL     OW57596   2.931  10.709   6.128  0.1180  0.2695 -0.0336
18530SOL    HW157597   2.885  10.626   6.142 -0.5078  0.2869 -1.7961
18530SOL    HW257598   2.984  10.695   6.049  1.3032  1.0289  0.5912
18531SOL     OW57599  10.036   3.682   4.946 -0.5557  0.0019  0.3253
18531SOL    HW157600  10.032   3.612   4.881 -0.3947 -2.0308  2.4156
18531SOL    HW257601  10.111   3.735   4.919  0.1198 -1.3761 -0.5798
18532SOL     OW57602   0.838   0.841  10.249 -0.3672 -0.1238  0.0722
18532SOL    HW157603   0.850   0.921  10.299 -0.9659  0.9154 -1.3540
18532SOL    HW257604   0.743   0.824  10.254  0.0112 -2.1487  2.3351
18533SOL     OW57605   9.530   6.917   9.660  0.2949  0.0369  0.7614
18533SOL    HW157606   9.453   6.880   9.704  0.6162  1.3271  2.5149
18533SOL    HW257607   9.551   6.995   9.711  1.1905  1.1769 -1.2701
18534SOL     OW57608   2.922   4.074   8.671 -0.3327 -0.6406 -0.0590
18534SOL    HW157609   2.987   4.004   8.679  0.8632  0.4723  0.3060
18534SOL    HW257610   2.883   4.081   8.759 -0.6032 -0.9766 -0.1501
18535SOL     OW57611   7.548   3.114   6.412 -0.4159  0.3679 -0.2838
18535SOL    HW157612   7.620   3.055   6.433  0.5245  1.2573 -0.9339
18535SOL    HW257613   7.484   3.099   6.482  0.3297 -0.5187  0.2373
18536SOL     OW57614   9.819   0.727  11.029  0.1222 -0.0420 -0.0800
18536SOL    HW157615   9.762   0.688  10.963  0.5265  0.6927 -0.8887
18536SOL    HW257616   9.794   0.684  11.111 -1.4732  0.1589 -0.4335
18537SOL     OW57617   6.869   0.512   7.048 -0.1451 -0.4438 -1.0511
18537SOL    HW157618   6.838   0.463   6.972 -0.7730 -0.9129 -0.5028
18537SOL    HW257619   6.947   0.558   7.017  0.2966 -1.5593 -1.6599
18538SOL     OW57620   4.276   0.616   1.677  0.0853  0.5384 -0.3158
18538SOL    HW157621   4.215   0.686   1.655 -1.6483 -0.7884  0.0592
18538SOL    HW257622   4.247   0.583   1.762  2.0773  0.6282  0.4538
18539SOL     OW57623   2.530   7.052  10.305  0.4233 -0.4982  0.0739
18539SOL    HW157624   2.444   7.019  10.280 -0.8444  1.1348  1.9266
18539SOL    HW257625   2.538   7.135  10.259  0.9095 -0.5244  0.1053
18540SOL     OW57626   3.682   9.329   2.867 -0.0531 -0.6759 -0.0578
18540SOL    HW157627   3.655   9.278   2.944 -0.1337 -1.3361 -0.5105
18540SOL    HW257628   3.606   9.326   2.809 -0.8570  1.7518  0.7544
18541SOL     OW57629  10.392   6.309   6.711  0.1074 -0.6597  0.3493
18541SOL    HW157630  10.324   6.375   6.701  1.6120  0.9719  0.5884
18541SOL    HW257631  10.462   6.337   6.652  1.5909 -0.9336  1.9157
18542SOL     OW57632   4.266   7.369   1.592 -0.4445 -0.0293 -0.2893
18542SOL    HW157633   4.311   7.452   1.607 -1.2097  0.6097 -1.3355
18542SOL    HW257634   4.177   7.394   1.567 -0.7608 -1.1793 -0.3806
18543SOL     OW57635   3.817   4.808   8.861 -0.4405 -0.7530 -0.2481
18543SOL    HW157636   3.770   4.745   8.807 -1.6379 -1.1525  1.1684
18543SOL    HW257637   3.899   4.764   8.884 -0.7827 -1.3617 -0.1776
18544SOL     OW57638  10.635   6.688   7.706  0.0450 -0.0185 -0.4884
18544SOL    HW157639  10.602   6.718   7.621  0.3027 -0.3624 -0.7096
18544SOL    HW257640  10.691   6.760   7.736 -0.3804  0.2877 -0.4089
18545SOL     OW57641   4.052   2.867   2.866 -0.1548  0.1407  0.5824
18545SOL    HW157642   4.070   2.920   2.789  0.5033 -0.9179 -0.0180
18545SOL    HW257643   4.006   2.790   2.832  2.6876 -1.8066  0.7362
18546SOL     OW57644   2.844  10.549   5.229 -0.1599  0.5031  0.7598
18546SOL    HW157645   2.912  10.616   5.220  1.2143 -0.8769  0.4054
18546SOL    HW257646   2.878  10.474   5.180 -3.2184  0.6570 -1.9730
18547SOL     OW57647   0.344   7.005   4.260  0.7561 -0.2190 -0.7088
18547SOL    HW157648   0.259   7.022   4.220  0.2929 -1.7258 -0.4520
18547SOL    HW257649   0.373   6.922   4.220  1.8015 -0.0601 -0.3245
18548SOL     OW57650   9.887   0.195   3.423  0.4054  0.1607  0.1593
18548SOL    HW157651   9.931   0.267   3.380 -0.7387  0.2931 -0.8282
18548SOL    HW257652   9.802   0.188   3.380  0.3047 -1.4885  0.5280
18549SOL     OW57653   5.627   0.421   5.948 -0.6184  0.5718  0.0196
18549SOL    HW157654   5.656   0.341   5.904 -1.8673 -0.2687  0.6685
18549SOL    HW257655   5.559   0.457   5.891 -1.3277  0.1779  0.5932
18550SOL     OW57656   5.424   3.817   2.612 -0.1538 -0.3426  0.3416
18550SOL    HW157657   5.476   3.812   2.531  0.5711  1.3127  0.6687
18550SOL    HW257658   5.489   3.819   2.682 -0.7753 -1.7386  0.9987
18551SOL     OW57659  10.200   8.371   0.195  0.2926 -0.4203  0.3701
18551SOL    HW157660  10.171   8.358   0.286 -3.3124  0.7717 -0.4276
18551SOL    HW257661  10.270   8.436   0.201  1.2171 -1.4943  2.3501
18552SOL     OW57662  10.516   7.499   7.287  0.2578  0.2156 -0.6896
18552SOL    HW157663  10.578   7.514   7.358 -0.1001 -1.6421  0.0643
18552SOL    HW257664  10.432   7.530   7.320  0.0269 -0.9460 -0.1404
18553SOL     OW57665   2.712   9.670   1.018  0.4253 -0.0868  0.1250
18553SOL    HW157666   2.752   9.583   1.009 -0.8919 -0.7011 -0.0281
18553SOL    HW257667   2.753   9.707   1.096  1.0272 -0.8421  0.1818
18554SOL     OW57668   4.829   8.409   0.412  0.2468 -0.3513  0.0131
18554SOL    HW157669   4.868   8.351   0.346  0.3256  1.5935 -1.7445
18554SOL    HW257670   4.904   8.439   0.464  0.7646  0.9777 -1.4139
18555SOL     OW57671   6.325   8.150   8.108 -0.4478 -0.2391 -0.2932
18555SOL    HW157672   6.312   8.225   8.050 -0.1602 -0.3873 -0.5545
18555SOL    HW257673   6.237   8.115   8.121 -0.8825  1.3499  1.4979
18556SOL     OW57674   2.768   6.641   5.248  0.0431  0.0072 -0.1810
18556SOL    HW157675   2.696   6.657   5.309  0.3699  0.3042  0.1427
18556SOL    HW257676   2.842   6.617   5.305  0.6604  1.3781 -0.3475
18557SOL     OW57677   4.687   8.278   9.755  0.4593 -0.1979 -0.2088
18557SOL    HW157678   4.739   8.323   9.688  2.1300 -0.2129  1.0207
18557SOL    HW257679   4.740   8.203   9.780 -1.8802 -2.4659 -1.5758
18558SOL     OW57680   4.673   8.700   1.034 -0.2526 -0.3507 -0.1591
18558SOL    HW157681   4.660   8.671   0.944  0.3011 -0.7550 -0.1190
18558SOL    HW257682   4.759   8.744   1.032  0.0964 -0.9966  0.3126
18559SOL     OW57683   1.072  10.794   3.592 -0.1677  0.3782  0.1765
18559SOL    HW157684   1.037  10.710   3.562  0.0197 -0.1164  1.2803
18559SOL    HW257685   1.037  10.804   3.681 -0.0137  1.3670  0.1367
18560SOL     OW57686   9.675   0.540   6.773 -0.1871 -0.5206 -0.0111
18560SOL    HW157687   9.728   0.600   6.826 -0.5463  0.6893 -0.9810
18560SOL    HW257688   9.738   0.498   6.715 -0.0622 -0.3590  0.0064
18561SOL     OW57689   0.837   5.660   3.737 -0.0396  0.0440  0.1449
18561SOL    HW157690   0.798   5.656   3.824  0.9237  1.1616  0.6474
18561SOL    HW257691   0.872   5.749   3.730 -1.5023  0.5244 -2.0082
18562SOL     OW57692   9.922   3.336   7.493  0.0016 -0.5748 -0.1528
18562SOL    HW157693   9.893   3.332   7.584  0.5619  0.8809  0.1231
18562SOL    HW257694   9.923   3.245   7.464 -1.5458 -0.9454  0.8425
18563SOL     OW57695   9.267   6.844   5.464  0.2878  0.3614 -0.3843
18563SOL    HW157696   9.360   6.860   5.473  0.1730  0.9219 -0.1480
18563SOL    HW257697   9.244   6.789   5.539  0.5076 -0.1443 -0.6832
18564SOL     OW57698   1.855   3.972   1.057 -0.1991 -0.3087 -0.1677
18564SOL    HW157699   1.888   3.971   1.147  0.5207  0.4522 -0.4135
18564SOL    HW257700   1.862   4.064   1.030  0.6345 -0.7045 -1.3708
18565SOL     OW57701   3.442   8.401   6.673  0.1104  0.5307  0.6705
18565SOL    HW157702   3.466   8.416   6.764  2.1056 -0.8048  0.4452
18565SOL    HW257703   3.454   8.486   6.630  1.5771  0.6391  1.2153
18566SOL     OW57704   0.457   7.460   0.732  0.4673  0.4246  0.2570
18566SOL    HW157705   0.494   7.405   0.663  0.6111 -0.3090  0.8964
18566SOL    HW257706   0.364   7.467   0.711 -0.0905 -2.1450  1.4570
18567SOL     OW57707   6.892   9.681   9.924  0.1763 -0.1563  0.4531
18567SOL    HW157708   6.936   9.685  10.009  1.1004 -0.1189 -0.0093
18567SOL    HW257709   6.830   9.609   9.933  0.7899 -0.6443  0.9249
18568SOL     OW57710   1.920   8.868   5.453  0.4871  0.0687  0.2773
18568SOL    HW157711   1.990   8.903   5.509  0.6110 -2.2389  1.6856
18568SOL    HW257712   1.857   8.829   5.514 -1.1560  0.5114 -1.0656
18569SOL     OW57713   3.511   7.027   8.504  0.1204 -0.2301  0.2839
18569SOL    HW157714   3.523   7.120   8.526 -0.5712 -0.4596  1.6896
18569SOL    HW257715   3.418   7.020   8.480  0.4576 -0.3320 -1.0559
18570SOL     OW57716   6.028   4.315   0.762 -0.0837 -0.0484 -0.0378
18570SOL    HW157717   5.996   4.234   0.802 -0.1769  0.6847  1.4512
18570SOL    HW257718   5.968   4.333   0.691  0.8839 -2.1437 -1.4835
18571SOL     OW57719   9.409   0.714   6.239 -0.0794  0.7023  0.0282
18571SOL    HW157720   9.410   0.740   6.331  0.6558  0.8961 -0.0247
18571SOL    HW257721   9.407   0.618   6.242  2.5178  0.5606  0.3243
18572SOL     OW57722   8.895  10.306   6.273  0.2811 -0.3545  0.2796
18572SOL    HW157723   8.958  10.320   6.343  1.7379  0.0550 -1.0583
18572SOL    HW257724   8.883  10.393   6.234 -1.2217 -0.4033  0.5854
18573SOL     OW57725   5.816   5.201   9.370  0.6902 -0.0394 -0.5581
18573SOL    HW157726   5.721   5.212   9.369  0.7106  0.1063 -1.0184
18573SOL    HW257727   5.830   5.129   9.431  0.4499  1.3225  1.1824
18574SOL     OW57728   7.403   7.855   0.221 -0.6536  0.0967  0.0526
18574SOL    HW157729   7.469   7.848   0.290 -0.0955 -2.6806 -0.6399
18574SOL    HW257730   7.396   7.949   0.204  1.6479  0.6147  1.5341
18575SOL     OW57731   2.770  10.214   6.366  0.2661 -0.3109  0.5643
18575SOL    HW157732   2.743  10.128   6.398 -0.8824  0.5523  2.0381
18575SOL    HW257733   2.866  10.208   6.361  0.2095 -1.6522  0.6613
18576SOL     OW57734   6.929   8.790   7.311  0.0107  0.0941 -0.5392
18576SOL    HW157735   7.004   8.766   7.366 -0.9717  0.8427  1.1983
18576SOL    HW257736   6.879   8.852   7.364 -1.3418  0.3475 -2.0401
18577SOL     OW57737   5.465   6.502   6.728 -0.3930 -0.6220 -0.3699
18577SOL    HW157738   5.371   6.520   6.728 -0.5332 -1.3033 -0.8655
18577SOL    HW257739   5.489   6.496   6.636 -0.1122 -1.6692 -0.2437
18578SOL     OW57740  10.637   4.714   6.722 -0.5927  0.1766 -0.2553
18578SOL    HW157741  10.600   4.753   6.801 -0.2322  1.0805 -0.5147
18578SOL    HW257742  10.707   4.774   6.696 -1.4082  0.5088 -1.8716
18579SOL     OW57743   8.496   6.148   0.042  0.1599  0.3544 -0.5836
18579SOL    HW157744   8.577   6.198   0.050 -0.5182  1.5569 -1.0818
18579SOL    HW257745   8.440   6.181   0.111  0.1250 -0.5683 -0.1575
18580SOL     OW57746  11.014   4.436   0.912 -0.2122  0.0791 -0.5840
18580SOL    HW157747  11.075   4.372   0.875  0.2482  0.8762 -1.2394
18580SOL    HW257748  10.931   4.388   0.918 -0.5615  0.1322 -3.5322
18581SOL     OW57749   4.802   7.138   1.360  0.4789  0.2899 -0.9494
18581SOL    HW157750   4.832   7.089   1.437  0.0088  0.8482 -0.4001
18581SOL    HW257751   4.846   7.223   1.366  0.3177  0.3938 -1.2094
18582SOL     OW57752   3.034   4.663   4.565 -0.0654 -0.1211 -0.3548
18582SOL    HW157753   2.953   4.697   4.526 -0.6811 -1.0846  0.0440
18582SOL    HW257754   3.037   4.571   4.537 -0.4673 -0.8204  1.7213
18583SOL     OW57755   5.922   1.558   9.036  0.6518  0.1977  0.3635
18583SOL    HW157756   5.846   1.558   9.095 -0.2152  0.1685 -0.7101
18583SOL    HW257757   5.884   1.572   8.949  1.8833  0.1007 -0.2077
18584SOL     OW57758  10.416   8.297   3.760  0.3326  0.1440  1.0204
18584SOL    HW157759  10.416   8.217   3.708  1.8288  0.4377  0.5126
18584SOL    HW257760  10.345   8.349   3.724 -0.9330 -1.1017  1.6353
18585SOL     OW57761   0.122   3.505   1.889  0.1370  0.7079  0.4514
18585SOL    HW157762   0.114   3.574   1.955 -0.3549  2.4493 -1.3372
18585SOL    HW257763   0.204   3.525   1.843 -1.1514  1.5823 -1.6069
18586SOL     OW57764   8.684   6.646   6.121  0.2516 -0.2931  0.1509
18586SOL    HW157765   8.751   6.609   6.180 -0.0067 -0.5794  0.2667
18586SOL    HW257766   8.728   6.654   6.037  0.1242 -1.4717 -0.0379
18587SOL     OW57767  10.455   5.714   6.220  0.0854 -0.0198 -0.0830
18587SOL    HW157768  10.368   5.746   6.197  0.4548  1.4549  0.4044
18587SOL    HW257769  10.469   5.638   6.163 -1.1657  0.2400 -0.7778
18588SOL     OW57770   1.380   6.422   5.377 -0.6801  0.1258  0.0298
18588SOL    HW157771   1.467   6.389   5.357 -0.2813  1.1052  0.0919
18588SOL    HW257772   1.333   6.348   5.415 -0.6833 -1.1575 -2.2571
18589SOL     OW57773   4.265   8.064   0.741 -0.2326 -0.3282 -0.0284
18589SOL    HW157774   4.332   8.043   0.675  0.2958  0.7467  0.1418
18589SOL    HW257775   4.239   7.979   0.776  0.9929 -0.7824 -0.1622
18590SOL     OW57776   7.962   5.150   6.983 -0.1844 -0.0232  0.0549
18590SOL    HW157777   7.892   5.149   7.049  0.2404  1.5565  0.5669
18590SOL    HW257778   8.002   5.236   6.992  1.8707 -0.8929 -0.1980
18591SOL     OW57779   8.986   7.937   8.293  0.3872 -0.3217  0.3682
18591SOL    HW157780   8.906   7.947   8.344  0.3012  0.5615  0.0686
18591SOL    HW257781   9.030   7.861   8.332  0.2373  0.2199  1.6421
18592SOL     OW57782   1.900   4.446  10.668  0.1052  0.9757 -0.4028
18592SOL    HW157783   1.912   4.513  10.600 -3.3236  1.3468 -0.8150
18592SOL    HW257784   1.938   4.485  10.747  1.0773  1.9930 -1.3225
18593SOL     OW57785   5.821  10.282   5.076  0.0763  0.9817  0.1358
18593SOL    HW157786   5.804  10.356   5.135 -0.6877 -0.6535  2.0699
18593SOL    HW257787   5.780  10.308   4.993 -1.4870  2.1333  1.2069
18594SOL     OW57788   8.596   7.088   6.718  0.0541  0.1565  0.5881
18594SOL    HW157789   8.516   7.064   6.765 -0.3176  1.0353  0.4401
18594SOL    HW257790   8.572   7.081   6.626  0.0309  0.7726  0.5447
18595SOL     OW57791   7.095   2.635   9.234  0.2826 -0.0882  0.1964
18595SOL    HW157792   7.021   2.638   9.294  0.4768  0.0843  0.4286
18595SOL    HW257793   7.105   2.542   9.213 -0.1747 -0.0819 -0.0591
18596SOL     OW57794   2.293   1.448   8.928 -0.2172 -0.0446 -0.6221
18596SOL    HW157795   2.291   1.420   8.837 -2.2970  1.7420 -1.2174
18596SOL    HW257796   2.212   1.412   8.966 -0.0165  0.2972  0.1629
18597SOL     OW57797   6.068   4.197   4.252 -0.6729  0.1648 -0.1338
18597SOL    HW157798   6.042   4.106   4.269  0.5139  0.0112  1.0253
18597SOL    HW257799   6.133   4.190   4.181 -1.1587  0.1982 -0.5879
18598SOL     OW57800  10.297   4.523   7.671  0.4470 -0.4794 -0.0839
18598SOL    HW157801  10.330   4.460   7.735  1.1820 -0.1447 -0.1229
18598SOL    HW257802  10.370   4.538   7.611 -0.1763 -0.6672 -0.9238
18599SOL     OW57803   6.911   2.788   4.083  0.3934  0.6057  0.3678
18599SOL    HW157804   6.886   2.738   4.006  0.5223  1.3773 -0.1895
18599SOL    HW257805   6.902   2.727   4.156  0.5089 -0.2053 -0.2901
18600SOL     OW57806   3.662   5.828   8.922 -0.1725 -0.2773  0.1668
18600SOL    HW157807   3.645   5.860   9.010 -1.1728 -1.2671  0.3600
18600SOL    HW257808   3.753   5.798   8.924 -0.1561 -0.1956  0.8407
18601SOL     OW57809   4.052   0.719   3.933 -0.2368 -0.2210 -0.0082
18601SOL    HW157810   4.069   0.708   3.839 -1.4155  0.5499 -0.3413
18601SOL    HW257811   4.016   0.635   3.960  0.4995 -0.5885 -0.1411
18602SOL     OW57812   0.983   1.995   0.114  0.0035  0.0067 -0.3752
18602SOL    HW157813   0.954   1.960   0.199 -2.7325  0.2264 -1.1218
18602SOL    HW257814   1.053   2.056   0.136  0.4189 -1.0796  1.5643
18603SOL     OW57815   3.304  10.802   2.389  0.8386  0.2554  0.5887
18603SOL    HW157816   3.271  10.779   2.476 -0.6032  1.6565  0.4553
18603SOL    HW257817   3.371  10.735   2.370 -0.8405 -1.8144  1.5356
18604SOL     OW57818   2.773   6.946   3.316 -0.4393 -0.8085  0.2676
18604SOL    HW157819   2.729   6.970   3.234  0.5286 -0.4930 -0.1784
18604SOL    HW257820   2.858   6.911   3.288  0.6953  1.0473  1.1799
18605SOL     OW57821   4.703  10.909   0.859 -0.3581 -0.0384  0.2073
18605SOL    HW157822   4.772  10.974   0.872  1.1322 -1.3629 -0.6952
18605SOL    HW257823   4.686  10.911   0.765  0.3278 -1.5022  0.0198
18606SOL     OW57824  10.956   5.905   6.355  0.2894  0.3141  0.0593
18606SOL    HW157825  11.027   5.845   6.329 -0.7953 -0.6141 -0.8806
18606SOL    HW257826  10.909   5.858   6.424  0.3518  0.7554  0.4038
18607SOL     OW57827   6.611  10.755   3.946 -0.0639 -0.3732 -0.6133
18607SOL    HW157828   6.525  10.772   3.906  0.0857 -2.5489 -1.9717
18607SOL    HW257829   6.590  10.716   4.031 -0.4434 -1.3134 -1.1288
18608SOL     OW57830   2.820   0.875   2.611  0.4437  0.5608  0.3842
18608SOL    HW157831   2.756   0.832   2.553  0.7983  0.0255  0.3868
18608SOL    HW257832   2.862   0.803   2.658  0.3556  0.9761  1.1077
18609SOL     OW57833   4.911   6.643  10.014  0.0917  0.2091  0.0799
18609SOL    HW157834   4.995   6.672   9.979  0.0847 -0.5376 -0.5984
18609SOL    HW257835   4.853   6.638   9.938 -0.0389 -1.0565  0.2289
18610SOL     OW57836   9.560  10.655   3.142 -0.0838 -0.5090  0.0322
18610SOL    HW157837   9.560  10.573   3.191 -2.5015 -0.5958 -0.0247
18610SOL    HW257838   9.641  10.653   3.091  1.7575 -1.1439  2.7610
18611SOL     OW57839   7.082   4.418   2.480 -0.0024  0.2633 -0.3151
18611SOL    HW157840   6.998   4.375   2.496 -0.6247  1.1178 -1.1266
18611SOL    HW257841   7.138   4.389   2.551 -1.0475 -0.1843  0.3517
18612SOL     OW57842   4.089   9.311   0.709 -0.2081 -0.6058  0.2451
18612SOL    HW157843   4.124   9.227   0.680  1.9815  0.6729 -1.2138
18612SOL    HW257844   4.035   9.290   0.785  1.2420 -3.1892  0.7049
18613SOL     OW57845   9.921   3.668   9.020 -0.0274  0.6837 -0.2082
18613SOL    HW157846  10.015   3.656   9.029  0.3536  1.9767 -1.9473
18613SOL    HW257847   9.908   3.763   9.022 -1.4437  0.5077  1.0917
18614SOL     OW57848   3.429   7.478   8.796 -0.4330 -0.1001  1.0302
18614SOL    HW157849   3.455   7.528   8.719 -0.7101 -1.2258  0.1804
18614SOL    HW257850   3.511   7.448   8.835 -0.3121 -0.0406  0.8170
18615SOL     OW57851   3.139   5.574   5.910 -0.1093  0.4223  0.2288
18615SOL    HW157852   3.106   5.646   5.964 -1.7416  0.1824 -0.3973
18615SOL    HW257853   3.111   5.595   5.821 -0.1805 -0.7350 -0.0390
18616SOL     OW57854   4.902   3.210   3.018 -0.3632 -0.3657 -0.3692
18616SOL    HW157855   4.956   3.159   3.077  0.5730 -0.3053 -1.1351
18616SOL    HW257856   4.814   3.208   3.056  0.1466 -0.5814  0.8344
18617SOL     OW57857   8.188  10.382   1.878 -0.3951  0.1117 -0.0346
18617SOL    HW157858   8.277  10.373   1.914 -0.4586  0.1964  0.1494
18617SOL    HW257859   8.194  10.346   1.790  0.4199  2.2780 -0.9328
18618SOL     OW57860   5.363   4.774   0.593  0.4069  0.1938 -0.5285
18618SOL    HW157861   5.375   4.777   0.498 -2.6285 -0.3754 -1.0069
18618SOL    HW257862   5.356   4.866   0.619  0.3636  0.3257 -0.9929
18619SOL     OW57863   4.396   5.728   1.159 -0.0394 -0.1704  0.4041
18619SOL    HW157864   4.401   5.815   1.119  0.2021 -0.7411 -0.8651
18619SOL    HW257865   4.485   5.693   1.150 -0.6434 -1.4262 -1.2282
18620SOL     OW57866  10.791  10.072   5.158 -0.4490 -0.8242 -0.4458
18620SOL    HW157867  10.835  10.060   5.242  0.8713  2.4084 -0.5506
18620SOL    HW257868  10.802   9.989   5.113  3.1031 -1.1396  0.6997
18621SOL     OW57869   7.156   0.615   3.473 -0.6751 -0.0359 -0.0921
18621SOL    HW157870   7.131   0.606   3.381 -2.8996  1.9471  0.2104
18621SOL    HW257871   7.073   0.621   3.520  0.4008  0.6724  1.8524
18622SOL     OW57872   5.366  10.176   8.303  0.2076 -0.3329  0.4001
18622SOL    HW157873   5.325  10.262   8.313 -0.3742 -0.5314 -0.1622
18622SOL    HW257874   5.330  10.124   8.375 -1.1673 -0.7272 -0.5335
18623SOL     OW57875  10.673   2.619   3.681  0.2338  0.2319  0.0677
18623SOL    HW157876  10.673   2.575   3.596  0.7198 -1.3851  0.8714
18623SOL    HW257877  10.583   2.610   3.712  0.6379 -1.4894  0.8393
18624SOL     OW57878   6.439   5.451   9.005 -0.4240  0.0499  0.2942
18624SOL    HW157879   6.478   5.472   9.090 -1.2854  1.7488  0.3085
18624SOL    HW257880   6.389   5.529   8.981  1.0483  0.2917 -2.5159
18625SOL     OW57881   6.441   7.567   5.180 -0.2010  0.3080 -0.4250
18625SOL    HW157882   6.501   7.596   5.249 -0.4750  1.4299 -0.6418
18625SOL    HW257883   6.441   7.639   5.117  0.8397 -1.1104 -2.1329
18626SOL     OW57884   7.360  10.183   3.885  0.1630  0.0252 -0.2398
18626SOL    HW157885   7.400  10.104   3.847  1.9039  0.9313 -0.4096
18626SOL    HW257886   7.287  10.204   3.826  0.7582 -0.4798 -1.1831
18627SOL     OW57887   0.269   4.164   2.807  0.0200 -0.1079 -0.0330
18627SOL    HW157888   0.246   4.256   2.794 -0.5969 -0.3910 -0.9785
18627SOL    HW257889   0.190   4.124   2.843  0.0772 -0.4028 -0.2318
18628SOL     OW57890   4.691   1.606   5.849 -0.3272 -0.3290  0.0241
18628SOL    HW157891   4.750   1.583   5.921 -1.0282 -0.3033  0.6208
18628SOL    HW257892   4.735   1.573   5.771  1.7447  1.9591  0.0886
18629SOL     OW57893   0.354  10.982   9.308 -0.2268  0.0827 -0.1933
18629SOL    HW157894   0.337  10.892   9.335  0.7348  0.3226  1.3028
18629SOL    HW257895   0.376  11.028   9.389 -1.0619  1.7695 -0.8610
18630SOL     OW57896   1.653   4.330   4.308  0.2266 -0.1089 -0.1377
18630SOL    HW157897   1.676   4.240   4.287 -2.0334 -0.5411 -1.0641
18630SOL    HW257898   1.642   4.330   4.403 -1.3512 -1.2807 -0.2761
18631SOL     OW57899   3.184   1.769   0.120 -0.3310  0.3193  0.5199
18631SOL    HW157900   3.089   1.782   0.121 -0.4074 -0.1375 -0.3050
18631SOL    HW257901   3.219   1.851   0.153 -0.9922  0.7273  0.2350
18632SOL     OW57902   0.845   0.504   1.491 -0.4133 -0.6322 -0.4953
18632SOL    HW157903   0.883   0.495   1.403  0.9411  0.6326 -0.0976
18632SOL    HW257904   0.768   0.559   1.478 -0.1026 -0.2757 -0.8699
18633SOL     OW57905   3.491   2.936   1.014  0.0988 -0.2395  0.8591
18633SOL    HW157906   3.501   2.850   0.973 -1.7232  0.2318 -0.7324
18633SOL    HW257907   3.397   2.951   1.015  0.3844  1.7975  1.0099
18634SOL     OW57908   9.262   0.166   4.849  0.0311  0.6600  0.1812
18634SOL    HW157909   9.259   0.256   4.817 -0.0600  0.4655 -0.3546
18634SOL    HW257910   9.176   0.152   4.889  0.4752  1.2132  1.3738
18635SOL     OW57911   1.911   0.521  10.921  0.7634 -0.4510  0.0591
18635SOL    HW157912   1.942   0.441  10.878  0.3779 -0.1229 -0.8574
18635SOL    HW257913   1.901   0.584  10.850 -0.0804  0.0554  0.6092
18636SOL     OW57914   7.012   0.026   4.030  0.5219  0.0921 -0.0656
18636SOL    HW157915   6.985  -0.059   3.992  2.6419 -1.8437  2.4341
18636SOL    HW257916   6.956   0.036   4.107  1.9459 -0.3787  1.0786
18637SOL     OW57917   3.513   0.848   6.044  0.4155  0.6148 -0.1899
18637SOL    HW157918   3.564   0.777   6.083 -1.9863 -1.4215 -0.5198
18637SOL    HW257919   3.432   0.852   6.096 -0.8098  1.0543 -2.0091
18638SOL     OW57920   5.264   0.312   2.863 -0.1234  0.3301 -0.0119
18638SOL    HW157921   5.298   0.225   2.841  0.5227  0.0317  1.9587
18638SOL    HW257922   5.184   0.295   2.913  0.4073  0.8076  1.0346
18639SOL     OW57923   0.633  10.391   6.661  0.0476 -0.4732  0.0240
18639SOL    HW157924   0.659  10.352   6.745 -1.9412 -3.1821 -0.4994
18639SOL    HW257925   0.598  10.476   6.684  2.3938  0.1904  1.5261
18640SOL     OW57926   6.955   2.123   3.369  0.0214  0.1216 -0.2527
18640SOL    HW157927   6.866   2.154   3.354  0.0972  0.4396 -0.0637
18640SOL    HW257928   7.010   2.201   3.356  0.2204  0.0522  0.1613
18641SOL     OW57929  10.078   1.116   4.683  0.0262 -0.0194  0.0459
18641SOL    HW157930  10.073   1.024   4.708 -2.5419 -0.3063 -1.1431
18641SOL    HW257931  10.129   1.157   4.752 -1.5582 -1.7858  2.4562
18642SOL     OW57932   1.517   4.160   2.539  0.6113 -0.1064  0.2025
18642SOL    HW157933   1.587   4.213   2.503  1.7378 -1.3990  0.4003
18642SOL    HW257934   1.482   4.112   2.464 -1.1477  1.6511 -0.1783
18643SOL     OW57935   6.467   6.194   9.457 -0.4392  0.2425  0.3605
18643SOL    HW157936   6.547   6.229   9.494 -1.0230  1.0342  0.9038
18643SOL    HW257937   6.482   6.192   9.362  0.4712 -0.3030  0.5071
18644SOL     OW57938   7.100  10.676  11.020 -0.0817 -0.4978 -0.2889
18644SOL    HW157939   7.009  10.656  11.041 -0.2073  1.6857  1.7145
18644SOL    HW257940   7.151  10.622  11.081 -0.1482 -0.0591  0.1636
18645SOL     OW57941   4.663   3.971   7.422 -0.2628 -0.1218  0.1571
18645SOL    HW157942   4.601   4.044   7.427  1.5999  1.4773  1.0262
18645SOL    HW257943   4.702   3.978   7.335 -0.1358 -0.1389  0.2119
18646SOL     OW57944   3.989   8.501   6.632 -0.2914  0.1682  0.3413
18646SOL    HW157945   3.950   8.557   6.565  0.7870  0.2883 -0.2174
18646SOL    HW257946   3.943   8.524   6.712 -1.9871 -0.3732 -0.4293
18647SOL     OW57947   5.591   1.935   5.831  0.2559 -0.1225  0.0032
18647SOL    HW157948   5.584   1.841   5.814  0.7999 -0.1975  0.1654
18647SOL    HW257949   5.621   1.940   5.922  2.3045  0.1452 -0.6347
18648SOL     OW57950   1.116   5.460   7.789 -0.3311  0.3522  0.6037
18648SOL    HW157951   1.129   5.393   7.857  3.2080 -1.9803 -2.0578
18648SOL    HW257952   1.167   5.535   7.819 -0.3829  0.0940  1.3715
18649SOL     OW57953   0.829  10.592   9.744 -0.4850  0.0755  0.2232
18649SOL    HW157954   0.745  10.558   9.775 -0.3191 -0.1850  0.3940
18649SOL    HW257955   0.885  10.590   9.822  0.1393 -1.2211 -0.2281
18650SOL     OW57956   2.389   7.703   0.996  0.4741 -0.2156  0.1755
18650SOL    HW157957   2.295   7.724   0.997  0.1046 -1.7183  0.0464
18650SOL    HW257958   2.427   7.758   1.065 -0.4768  0.4800  0.1710
18651SOL     OW57959   5.003   8.250   0.286  0.0869 -0.2208  0.1701
18651SOL    HW157960   4.945   8.186   0.244  0.8427 -1.1375  0.4739
18651SOL    HW257961   5.072   8.196   0.326  0.0636  0.7070  1.5181
18652SOL     OW57962   9.689   9.437   6.356  0.0042 -0.7419  0.0136
18652SOL    HW157963   9.760   9.378   6.382  0.9945  1.5081  2.9919
18652SOL    HW257964   9.733   9.517   6.327 -1.3000 -0.1816 -0.5130
18653SOL     OW57965   2.464   0.612   6.488 -0.1737  0.0026 -0.6930
18653SOL    HW157966   2.459   0.703   6.515  0.7836 -0.5564  1.5930
18653SOL    HW257967   2.384   0.572   6.521  0.2113 -0.3409 -0.1709
18654SOL     OW57968   1.243   4.407  10.071  0.5198 -0.1567 -0.2731
18654SOL    HW157969   1.151   4.432  10.079  0.4795  0.2690 -1.7947
18654SOL    HW257970   1.256   4.339  10.137 -0.6835  0.2938  0.4579
18655SOL     OW57971   1.311   8.298   8.277  0.3600  0.0686  0.2124
18655SOL    HW157972   1.232   8.249   8.297  0.3576  0.1507  0.4058
18655SOL    HW257973   1.310   8.371   8.338  0.6959 -0.0515  0.3671
18656SOL     OW57974   0.918   8.898   9.918  0.0881  0.2922  0.5275
18656SOL    HW157975   0.953   8.882  10.005  0.5552  0.6247  0.4070
18656SOL    HW257976   0.846   8.836   9.909  1.2714 -1.1296  0.4085
18657SOL     OW57977   1.747   7.422   3.639  0.0228  0.0994  0.3438
18657SOL    HW157978   1.817   7.435   3.703 -0.4936  0.3040  0.8831
18657SOL    HW257979   1.677   7.480   3.669  0.3249  1.3843 -1.2865
18658SOL     OW57980  10.988   0.683   0.298 -0.1012  0.0155 -0.0287
18658SOL    HW157981  10.993   0.588   0.286 -2.1206 -0.0430 -0.6561
18658SOL    HW257982  10.988   0.718   0.209 -0.9185  0.4999  0.1588
18659SOL     OW57983  10.696   5.280  10.990  0.3023 -0.8872 -0.1673
18659SOL    HW157984  10.622   5.257  10.933  0.7512  0.9160 -1.5894
18659SOL    HW257985  10.656   5.305  11.073 -0.6413 -0.5973 -0.6939
18660SOL     OW57986   5.548   0.453  10.920 -0.1465  0.0304 -0.5556
18660SOL    HW157987   5.491   0.483  10.849 -3.5803 -2.4454  0.8522
18660SOL    HW257988   5.514   0.496  10.998  1.5004  0.2886  0.0510
18661SOL     OW57989   6.330   1.783   1.673 -0.0589  0.1939 -0.4183
18661SOL    HW157990   6.332   1.728   1.752 -0.9340 -0.1337 -0.6086
18661SOL    HW257991   6.245   1.764   1.633  0.0137  1.0126 -0.9804
18662SOL     OW57992   0.246   8.600   2.783 -0.3229 -0.2618 -0.1010
18662SOL    HW157993   0.160   8.582   2.747 -0.3624  1.5667 -1.0703
18662SOL    HW257994   0.235   8.591   2.878 -1.9704  1.2141 -0.0943
18663SOL     OW57995   1.672   3.121   2.097  0.3009 -0.3493 -0.4120
18663SOL    HW157996   1.722   3.197   2.067  0.5779 -0.2980  0.1633
18663SOL    HW257997   1.633   3.084   2.017  0.7919 -0.0563 -0.7895
18664SOL     OW57998   6.350   4.847   1.025  0.6639 -0.2539 -0.7376
18664SOL    HW157999   6.343   4.885   0.937  0.7441 -1.2328 -1.1733
18664SOL    HW258000   6.259   4.831   1.051  0.3338  3.0575  0.7607
18665SOL     OW58001   2.149   2.794   5.327 -0.1638  0.6775  0.0707
18665SOL    HW158002   2.109   2.711   5.354 -1.4275  0.6137 -1.8080
18665SOL    HW258003   2.122   2.856   5.395 -1.6762  0.1497  0.0008
18666SOL     OW58004   2.450  10.037   7.130  0.6667  0.4381 -0.1080
18666SOL    HW158005   2.463   9.997   7.045  1.6356  0.0539  0.2072
18666SOL    HW258006   2.359  10.017   7.153  0.6206 -0.0733 -0.7237
18667SOL     OW58007   7.086   2.458   7.493 -0.2255 -0.0803  0.1442
18667SOL    HW158008   7.168   2.505   7.505 -0.1068 -0.2172 -0.1208
18667SOL    HW258009   7.073   2.411   7.575  1.0846 -1.8024 -0.5666
18668SOL     OW58010   2.078   6.608  10.472 -0.0897  0.1806 -0.4148
18668SOL    HW158011   2.006   6.665  10.502 -1.3023 -1.2724 -0.4461
18668SOL    HW258012   2.039   6.521  10.468  1.8965 -0.7874  0.2719
18669SOL     OW58013   6.711   5.037   0.552  0.0918 -0.1979  0.2104
18669SOL    HW158014   6.705   4.974   0.623 -0.3165 -0.7551 -0.3123
18669SOL    HW258015   6.790   5.014   0.505  0.1324 -0.0962  0.2280
18670SOL     OW58016   3.480   1.915   3.106 -0.3216 -0.3318 -0.0278
18670SOL    HW158017   3.496   1.905   3.012 -0.1098  0.1999 -0.0502
18670SOL    HW258018   3.559   1.882   3.148 -0.3239 -0.3586 -0.0448
18671SOL     OW58019   2.418   0.387   0.507 -0.9672  0.0686 -0.2955
18671SOL    HW158020   2.355   0.359   0.441  0.2607  0.5485 -1.6980
18671SOL    HW258021   2.471   0.454   0.464  0.6434 -0.4643  0.7724
18672SOL     OW58022   3.014   0.142  10.724 -0.0605  0.5416  0.1698
18672SOL    HW158023   3.106   0.128  10.702  0.3025  1.7037  0.8679
18672SOL    HW258024   3.014   0.166  10.816 -0.8251  2.5476 -0.2927
18673SOL     OW58025   1.048   5.644   9.285  0.0929  0.2147  0.1010
18673SOL    HW158026   1.122   5.645   9.224 -0.4190  0.3137 -0.5172
18673SOL    HW258027   1.004   5.728   9.270 -1.2287 -0.6244 -0.8617
18674SOL     OW58028   2.252   6.649   6.435  0.3112 -0.1185  0.2665
18674SOL    HW158029   2.325   6.678   6.489 -0.1675 -0.2007  0.9630
18674SOL    HW258030   2.174   6.684   6.478 -0.1133 -0.6298 -0.0734
18675SOL     OW58031   8.665   5.159   6.760  0.7360 -0.0732 -0.1050
18675SOL    HW158032   8.625   5.102   6.694  1.7753 -0.8850 -0.0598
18675SOL    HW258033   8.748   5.185   6.722  1.2847 -0.4307  0.8162
18676SOL     OW58034   9.670   5.293   2.532  0.8431  0.2862  0.0825
18676SOL    HW158035   9.663   5.310   2.626 -0.8114 -2.3066  0.5372
18676SOL    HW258036   9.620   5.213   2.518  2.0921 -0.1299 -2.8442
18677SOL     OW58037   9.084   6.132   6.514  0.0634  0.1376 -0.2685
18677SOL    HW158038   9.167   6.155   6.555 -0.2792  1.2346 -0.1549
18677SOL    HW258039   9.100   6.137   6.420 -0.1535  1.4557 -0.2484
18678SOL     OW58040  10.222   0.939   1.918  0.0628 -0.7183  0.1948
18678SOL    HW158041  10.172   0.904   1.992 -1.3418 -0.4289 -0.5831
18678SOL    HW258042  10.180   1.022   1.898 -0.5671 -1.4551 -1.8466
18679SOL     OW58043   4.320   5.086   6.840  0.2195 -0.0028  0.1375
18679SOL    HW158044   4.286   5.147   6.905 -0.7674 -0.0970 -0.2822
18679SOL    HW258045   4.319   5.135   6.758 -1.9181 -0.9797 -0.4836
18680SOL     OW58046   9.620   8.499   5.381  0.0770 -0.5133 -0.9172
18680SOL    HW158047   9.651   8.570   5.436  1.3249  0.1285 -2.3610
18680SOL    HW258048   9.561   8.541   5.318  0.0570 -0.9139 -1.1746
18681SOL     OW58049   3.569  10.061   7.941  0.7893  0.4146  0.1861
18681SOL    HW158050   3.641  10.033   7.997 -0.4835 -1.0986  1.1796
18681SOL    HW258051   3.514   9.983   7.932  0.0153  1.1284 -1.7229
18682SOL     OW58052   6.691  10.518   3.798 -0.1981 -0.4094 -0.3226
18682SOL    HW158053   6.772  10.551   3.759 -1.6490  0.8946 -2.4283
18682SOL    HW258054   6.675  10.578   3.872  0.1150  0.1002 -0.6592
18683SOL     OW58055   1.434   2.066   2.175  0.2179 -0.0861  0.1193
18683SOL    HW158056   1.508   2.091   2.231 -0.0445  1.9670 -0.3819
18683SOL    HW258057   1.361   2.058   2.236  0.1733  1.0537  0.2333
18684SOL     OW58058  10.112   8.648  10.781 -0.3192  0.1076 -0.1612
18684SOL    HW158059  10.063   8.593  10.720  1.1670 -1.9726  0.4396
18684SOL    HW258060  10.099   8.737  10.748 -2.3478 -0.6073 -1.4880
18685SOL     OW58061   1.796   0.676   3.368  0.5987  0.1050  0.0577
18685SOL    HW158062   1.732   0.723   3.315  1.0885 -1.0617 -1.6748
18685SOL    HW258063   1.876   0.727   3.360  0.4324  0.4332  0.4659
18686SOL     OW58064   6.911   8.800   8.970  0.0280 -0.1635  0.1309
18686SOL    HW158065   6.901   8.819   9.063  1.7806 -0.1726  0.3570
18686SOL    HW258066   6.921   8.705   8.966  1.5971 -0.0326  0.1544
18687SOL     OW58067   8.499  10.715   9.977  0.2421 -0.2755 -0.1040
18687SOL    HW158068   8.407  10.688   9.985  0.6032 -1.3522  0.6850
18687SOL    HW258069   8.527  10.682   9.892  0.6049 -2.3084  0.7384
18688SOL     OW58070  10.320   2.495   2.969 -0.0001  0.3344 -0.0773
18688SOL    HW158071  10.329   2.431   3.039 -0.9016  2.0947  1.7503
18688SOL    HW258072  10.231   2.529   2.978 -0.5962 -0.1937 -2.8961
18689SOL     OW58073   4.329   6.492   2.142  0.1326 -0.3290  0.1770
18689SOL    HW158074   4.399   6.433   2.114  0.7436  0.1224  0.7189
18689SOL    HW258075   4.248   6.445   2.122  0.4821  0.2315 -2.9760
18690SOL     OW58076   6.177   6.467  10.437  0.6025  0.3274 -0.5617
18690SOL    HW158077   6.206   6.424  10.357 -0.6795 -2.0822  0.1823
18690SOL    HW258078   6.242   6.442  10.503  1.3286  1.8154 -0.6705
18691SOL     OW58079   1.908   5.663  10.277 -0.3872 -0.3345  0.8081
18691SOL    HW158080   1.975   5.601  10.248  0.1454  0.8220 -0.5453
18691SOL    HW258081   1.940   5.695  10.361 -0.0226 -0.9345  0.9058
18692SOL     OW58082   2.888   9.756   2.118  0.7432 -0.1732 -0.5780
18692SOL    HW158083   2.848   9.842   2.109 -0.2060 -0.7938 -2.9886
18692SOL    HW258084   2.904   9.746   2.212  0.3884  2.3862 -0.1963
18693SOL     OW58085   4.244  10.207  10.386  0.3140 -0.0085  0.5235
18693SOL    HW158086   4.201  10.291  10.400  0.6893  0.0123  1.6324
18693SOL    HW258087   4.178  10.154  10.340  0.6977  1.4231 -1.8347
18694SOL     OW58088   4.669   7.720   8.487  0.4866 -0.3574 -0.4628
18694SOL    HW158089   4.601   7.698   8.551  1.9391  2.3205  2.2401
18694SOL    HW258090   4.630   7.789   8.433  0.1759 -0.7643 -0.7737
18695SOL     OW58091   1.156   3.992   1.731  0.3027 -0.2013  0.2638
18695SOL    HW158092   1.243   3.988   1.691  0.4179  1.1516  0.3145
18695SOL    HW258093   1.172   4.026   1.819 -0.2141 -0.6458  0.5384
18696SOL     OW58094   1.084  10.164   9.457  0.4300  0.1481 -0.0475
18696SOL    HW158095   1.178  10.179   9.471  0.2049  0.6469  1.0107
18696SOL    HW258096   1.058  10.106   9.528 -0.3193  1.0704  0.4616
18697SOL     OW58097   5.858   6.674   3.932  0.0273 -0.2645 -0.4791
18697SOL    HW158098   5.884   6.737   4.000  0.0660 -0.1185 -0.6287
18697SOL    HW258099   5.762   6.679   3.930 -0.1790 -2.0929  1.3188
18698SOL     OW58100   5.788   4.124   3.504  0.0920  0.3562 -0.7043
18698SOL    HW158101   5.865   4.125   3.560 -0.7176 -0.4456  0.4792
18698SOL    HW258102   5.750   4.211   3.515  0.3680  0.4679 -0.6212
18699SOL     OW58103   5.709   9.304   5.866  0.4076  0.3304  0.2670
18699SOL    HW158104   5.623   9.278   5.832  0.3796  1.0360 -0.2082
18699SOL    HW258105   5.724   9.391   5.830  0.9655  0.5493  1.0036
18700SOL     OW58106   7.175   9.758  10.453 -0.2637  0.7765 -0.5283
18700SOL    HW158107   7.122   9.699  10.507 -0.1797  0.8737 -0.3389
18700SOL    HW258108   7.238   9.796  10.514  1.2293 -0.7071 -1.0551
18701SOL     OW58109   1.736   6.572   5.717 -0.4047 -0.2159 -0.5990
18701SOL    HW158110   1.799   6.596   5.785 -2.4484 -0.0841  1.3347
18701SOL    HW258111   1.741   6.643   5.653  0.0275  0.7745  0.5054
18702SOL     OW58112   0.180   8.904   8.118 -0.1835  0.5453  0.5437
18702SOL    HW158113   0.238   8.860   8.180 -1.3408  0.9202  1.9631
18702SOL    HW258114   0.141   8.833   8.066  1.9753  0.3319 -0.9101
18703SOL     OW58115   3.100   3.525   9.008  0.2632 -0.2910  0.7792
18703SOL    HW158116   3.134   3.608   9.042  0.6495  1.6126 -3.5280
18703SOL    HW258117   3.179   3.474   8.988  0.3437  0.5325 -1.2427
18704SOL     OW58118   3.038   6.377   5.307  0.4205 -0.3179  0.1530
18704SOL    HW158119   3.115   6.431   5.291  0.6265 -0.2570  1.2270
18704SOL    HW258120   3.062   6.290   5.275  0.3995  0.0229 -0.8139
18705SOL     OW58121   0.243   6.255   9.111  0.3923  0.4888 -0.1461
18705SOL    HW158122   0.150   6.247   9.090  0.0226  3.9048 -0.3586
18705SOL    HW258123   0.244   6.286   9.202  1.2341  1.6323 -0.5211
18706SOL     OW58124   1.071   4.221   8.619  0.6289 -0.1778 -0.5423
18706SOL    HW158125   1.017   4.255   8.548  0.8418  1.8925  0.2274
18706SOL    HW258126   1.137   4.167   8.575  1.0869  1.4879 -2.0166
18707SOL     OW58127   9.039   2.855   5.300  0.5170 -0.6432  0.0027
18707SOL    HW158128   9.074   2.858   5.211 -1.3466  1.4653 -0.7506
18707SOL    HW258129   8.951   2.891   5.293 -0.6743 -2.7377  2.3217
18708SOL     OW58130   3.768   0.062  10.381 -0.0488  0.2344  0.0964
18708SOL    HW158131   3.745   0.150  10.409 -0.3247  0.3876 -0.5976
18708SOL    HW258132   3.797   0.018  10.462 -0.7181  0.6936  0.5964
18709SOL     OW58133   0.918   2.617   8.507 -0.0708  0.6043 -0.4645
18709SOL    HW158134   0.965   2.541   8.473  0.1726  0.5559 -0.0287
18709SOL    HW258135   0.896   2.669   8.429  2.6543  1.7848 -0.5606
18710SOL     OW58136   6.003   1.821   9.692 -0.1373 -0.1537  0.0162
18710SOL    HW158137   5.978   1.829   9.600  0.1408 -1.8085 -0.2378
18710SOL    HW258138   6.035   1.731   9.700 -0.7011 -0.2223  1.8663
18711SOL     OW58139   8.294   6.902   7.303  0.1247 -0.2031 -0.1486
18711SOL    HW158140   8.363   6.850   7.343 -0.7889 -0.1788  1.5450
18711SOL    HW258141   8.334   6.988   7.288 -0.0714  0.5640  2.9387
18712SOL     OW58142   8.519   1.981   6.912  0.0170 -0.1065 -0.3616
18712SOL    HW158143   8.533   1.956   7.003 -1.2141 -0.3203 -0.2088
18712SOL    HW258144   8.442   2.037   6.914 -1.1615 -1.5817 -1.4469
18713SOL     OW58145   2.625  10.055   8.199  0.2017  0.1932  0.1230
18713SOL    HW158146   2.543  10.017   8.167 -1.3562  1.8604  1.9443
18713SOL    HW258147   2.638  10.015   8.285  1.3299 -0.0399 -0.1372
18714SOL     OW58148   8.089   5.482  10.865 -0.7717  0.4806 -0.2176
18714SOL    HW158149   8.121   5.553  10.810  3.0053 -0.9355 -0.1445
18714SOL    HW258150   8.065   5.413  10.802  1.5603 -0.3740 -0.2500
18715SOL     OW58151  10.149   9.882   3.557  0.0742 -0.0055 -0.0197
18715SOL    HW158152  10.121   9.921   3.640 -0.5280  1.6378 -0.9552
18715SOL    HW258153  10.088   9.810   3.543  0.3629 -0.4978  1.0799
18716SOL     OW58154   3.969   4.802   6.126 -0.0843  0.6689  0.4323
18716SOL    HW158155   3.918   4.882   6.124  1.6402  1.8290  0.6815
18716SOL    HW258156   3.905   4.732   6.115 -1.4745  2.1176 -1.2158
18717SOL     OW58157   6.397   5.403  10.582  0.0216 -0.1191  0.1741
18717SOL    HW158158   6.472   5.397  10.522  0.6045 -0.7153  0.9498
18717SOL    HW258159   6.377   5.312  10.604 -1.0708  0.0255 -0.1801
18718SOL     OW58160  10.077   3.706   1.357  0.0286  0.3076 -0.0173
18718SOL    HW158161  10.140   3.771   1.327 -2.4802  2.1572 -1.7147
18718SOL    HW258162  10.075   3.640   1.286  0.9465 -0.4689  0.6543
18719SOL     OW58163   5.833   4.095   0.195 -0.2147 -0.2147 -0.1589
18719SOL    HW158164   5.923   4.125   0.205  0.1237 -0.4017 -2.3597
18719SOL    HW258165   5.841   4.004   0.169 -1.0149 -0.0783 -0.9086
18720SOL     OW58166   8.045   7.731   5.005 -0.2678  0.3612  0.1537
18720SOL    HW158167   8.097   7.805   5.033 -0.0012  0.2146  0.0516
18720SOL    HW258168   8.032   7.679   5.084 -1.5593  1.1702  0.5084
18721SOL     OW58169   4.609   3.281   0.827 -0.2179  0.1165 -0.1768
18721SOL    HW158170   4.536   3.271   0.888 -0.3851 -1.4419 -0.6036
18721SOL    HW258171   4.680   3.231   0.866  0.3687  0.9097 -0.1978
18722SOL     OW58172   7.384   1.626   0.959 -0.4058  0.1377 -0.0833
18722SOL    HW158173   7.441   1.667   1.025 -0.7820  0.9289 -0.2395
18722SOL    HW258174   7.333   1.561   1.007  0.4236 -0.3815  0.1115
18723SOL     OW58175   8.999   9.337   1.239 -0.1145  0.6503 -0.1022
18723SOL    HW158176   9.065   9.405   1.224  0.7872  0.0171  0.8591
18723SOL    HW258177   9.035   9.285   1.310 -1.3429 -0.1387 -0.0432
18724SOL     OW58178   6.238   5.474   2.931  0.8410  0.1567  0.7615
18724SOL    HW158179   6.248   5.564   2.900  1.4533  0.5341  1.9497
18724SOL    HW258180   6.289   5.421   2.870  2.3451  0.9214  1.2946
18725SOL     OW58181  10.774   3.458   8.612  0.0480  0.0958 -0.1195
18725SOL    HW158182  10.785   3.363   8.615 -0.5284  0.0080 -0.5066
18725SOL    HW258183  10.679   3.470   8.604  0.2315  0.6560 -1.8437
18726SOL     OW58184   5.636   9.871   1.523  0.5514 -0.0114 -0.4308
18726SOL    HW158185   5.610   9.963   1.519 -0.9237 -0.4153 -1.0325
18726SOL    HW258186   5.647   9.845   1.431 -1.6976 -1.0845 -0.4666
18727SOL     OW58187   2.743   1.102   1.527 -0.6286 -0.1704 -0.1729
18727SOL    HW158188   2.719   1.083   1.437 -0.5051 -0.0575 -0.2308
18727SOL    HW258189   2.724   1.022   1.575 -0.1669 -0.4215 -0.4003
18728SOL     OW58190   5.033   8.451   0.983  0.1101 -0.1618  0.0377
18728SOL    HW158191   4.952   8.405   0.963  1.1201 -1.8306 -0.5418
18728SOL    HW258192   5.006   8.532   1.026 -1.8152 -0.9820  0.4757
18729SOL     OW58193   5.397   9.247   3.431  0.3444 -0.2891  0.5228
18729SOL    HW158194   5.484   9.285   3.423  0.1109  0.2304  0.3773
18729SOL    HW258195   5.361   9.250   3.343 -0.1251  0.2588  0.7221
18730SOL     OW58196   7.133  10.443   5.992  0.0091 -0.4334  0.1913
18730SOL    HW158197   7.102  10.533   5.992  0.5766 -0.2342 -0.2111
18730SOL    HW258198   7.059  10.392   5.958  0.2304  0.0882 -1.1202
18731SOL     OW58199   8.062   6.331   1.912 -0.4320 -0.3481 -0.0014
18731SOL    HW158200   8.098   6.341   1.824  0.8156 -2.9149  0.1345
18731SOL    HW258201   8.139   6.330   1.969 -0.9329 -2.1491  0.7037
18732SOL     OW58202   3.841   2.176   3.091  0.4564 -0.2568 -0.1233
18732SOL    HW158203   3.756   2.191   3.049  0.0264 -0.7476  0.5513
18732SOL    HW258204   3.829   2.207   3.181  1.4438  1.0195 -0.4004
18733SOL     OW58205   4.331   5.766   6.785 -0.4377  0.1371 -0.3836
18733SOL    HW158206   4.271   5.697   6.813 -2.5606  1.1698 -2.1446
18733SOL    HW258207   4.393   5.722   6.727  0.6498 -0.9552  1.5078
18734SOL     OW58208   0.472   9.467   6.848  0.7806  0.0389 -0.1195
18734SOL    HW158209   0.467   9.416   6.767 -0.9883  0.2394 -0.1738
18734SOL    HW258210   0.551   9.520   6.838  0.9403 -0.4104 -1.4278
18735SOL     OW58211   6.704   2.804   0.359  0.2161 -0.1092  0.1054
18735SOL    HW158212   6.753   2.779   0.438 -1.0583  0.9321  1.2815
18735SOL    HW258213   6.721   2.898   0.349 -2.5348  0.6313  1.3925
18736SOL     OW58214   6.950   9.474   0.279  0.4202  0.7276  0.1205
18736SOL    HW158215   6.968   9.381   0.292  3.3913  1.1800 -0.2057
18736SOL    HW258216   6.870   9.476   0.227 -0.0102 -1.6014  0.6003
18737SOL     OW58217   4.253   7.748   6.858  0.1723  0.9346 -0.2855
18737SOL    HW158218   4.190   7.682   6.886 -1.8669  2.1202 -1.8044
18737SOL    HW258219   4.319   7.749   6.927 -0.7961 -1.2417  0.7652
18738SOL     OW58220   7.671   3.818   4.203  0.0146  0.3557  0.0069
18738SOL    HW158221   7.582   3.813   4.167  0.8863 -1.4262 -2.1786
18738SOL    HW258222   7.727   3.788   4.131  2.3005  0.3681  1.6778
18739SOL     OW58223  10.874   3.457   6.768  0.0825 -0.6019  0.2851
18739SOL    HW158224  10.783   3.480   6.752  0.2177 -0.1669  0.0872
18739SOL    HW258225  10.878   3.362   6.757 -0.4614 -0.7012  0.9065
18740SOL     OW58226   6.944   9.583  10.878 -0.0677 -0.7615  0.0950
18740SOL    HW158227   7.034   9.583  10.846 -0.2018  1.6896 -0.4945
18740SOL    HW258228   6.953   9.602  10.972  0.0141  0.2790 -0.1159
18741SOL     OW58229   7.297   6.944   1.798 -0.1965  0.1693 -0.2877
18741SOL    HW158230   7.369   6.976   1.852 -1.8141  0.8062  1.6489
18741SOL    HW258231   7.253   7.023   1.767 -0.5246 -0.1942 -0.7617
18742SOL     OW58232   8.115  10.869   6.411  0.4682 -0.3735 -0.1793
18742SOL    HW158233   8.022  10.862   6.391 -0.4859 -0.3949  3.5969
18742SOL    HW258234   8.126  10.957   6.446  1.4877 -0.9402  1.0061
18743SOL     OW58235   9.603   9.608   7.355 -0.9886 -0.5862  0.0646
18743SOL    HW158236   9.679   9.583   7.408 -1.5938 -0.5622  0.9607
18743SOL    HW258237   9.641   9.651   7.278 -0.1196  1.3149  1.4700
18744SOL     OW58238   6.126   3.044   1.503  0.1270  0.0787 -0.1769
18744SOL    HW158239   6.059   3.110   1.486 -0.6389 -0.3360  1.0182
18744SOL    HW258240   6.196   3.062   1.440 -0.8191  0.9397 -1.0137
18745SOL     OW58241   2.365   3.601  10.931 -0.0838  0.2810  0.4131
18745SOL    HW158242   2.409   3.632  11.010  1.5217  1.0822 -0.7313
18745SOL    HW258243   2.369   3.506  10.938 -0.9969  0.3177  1.8204
18746SOL     OW58244   0.256   1.630   1.835 -0.0389 -0.1008  0.0241
18746SOL    HW158245   0.177   1.637   1.783  0.3452  0.7188 -0.4579
18746SOL    HW258246   0.265   1.536   1.852 -2.5887 -0.0323  2.4370
18747SOL     OW58247   3.427  10.381   6.528  0.1342  0.5674  0.5794
18747SOL    HW158248   3.377  10.461   6.544 -1.0238  0.1790 -0.8294
18747SOL    HW258249   3.380  10.337   6.457  1.4514 -0.7510  0.4635
18748SOL     OW58250   0.573   3.063   5.491  0.1735  0.5400 -0.1448
18748SOL    HW158251   0.597   2.975   5.519  0.3863  0.8244  0.5793
18748SOL    HW258252   0.490   3.052   5.445 -0.7506  0.1963  1.5199
18749SOL     OW58253   5.855   3.985   9.977  0.0160 -0.3266  0.1700
18749SOL    HW158254   5.854   3.969   9.883  3.3443 -0.0019 -0.0459
18749SOL    HW258255   5.872   3.899  10.016 -0.3825 -0.3042  0.3933
18750SOL     OW58256   7.557   8.721   6.185 -0.1556 -0.0452  0.1639
18750SOL    HW158257   7.515   8.682   6.262 -0.6148  0.3392  0.1097
18750SOL    HW258258   7.588   8.646   6.134  0.4211 -0.3002  0.8616
18751SOL     OW58259  10.013   4.813   2.375 -0.3554 -0.2556  0.1487
18751SOL    HW158260  10.073   4.748   2.413 -3.1075 -1.9919  1.8044
18751SOL    HW258261   9.926   4.778   2.391 -1.9048  2.0006 -2.4271
18752SOL     OW58262   4.618   4.858   9.406  0.2748  1.0652  0.0459
18752SOL    HW158263   4.609   4.843   9.500 -0.1311  1.4082  0.0654
18752SOL    HW258264   4.566   4.937   9.389  0.2663  0.9498 -0.4810
18753SOL     OW58265   8.034   3.892  10.069  0.1248  0.1869 -0.5081
18753SOL    HW158266   8.095   3.964  10.078 -1.0258  0.8840  2.9507
18753SOL    HW258267   8.071   3.822  10.122  0.2900 -1.2113 -2.3419
18754SOL     OW58268   3.849   1.949   1.236  0.0168 -0.0529 -0.1493
18754SOL    HW158269   3.788   1.923   1.166  1.2601  0.0370 -1.2904
18754SOL    HW258270   3.913   1.878   1.240 -0.8845 -0.8407  2.0009
18755SOL     OW58271   9.817  10.580   2.969 -0.6701  0.1127  0.0642
18755SOL    HW158272   9.802  10.488   2.945  2.6051 -0.7431  0.8168
18755SOL    HW258273   9.903  10.601   2.931  1.2889  1.0378  4.4492
18756SOL     OW58274   2.360   2.381   4.930  0.5028 -0.0261 -0.4549
18756SOL    HW158275   2.284   2.424   4.890  0.8170  1.6469  0.6423
18756SOL    HW258276   2.346   2.392   5.024 -0.3643 -4.0777  0.0715
18757SOL     OW58277   2.667   9.956   8.441  0.5086  0.5003  0.1785
18757SOL    HW158278   2.644  10.002   8.522 -0.6340 -1.4603  1.0280
18757SOL    HW258279   2.747   9.909   8.462 -0.3531 -0.8532  0.5590
18758SOL     OW58280   9.819   7.781   2.885  0.5939 -0.1109 -0.1232
18758SOL    HW158281   9.795   7.786   2.978 -0.6244 -0.4751 -0.4019
18758SOL    HW258282   9.877   7.855   2.871 -1.6222  1.8252  0.2566
18759SOL     OW58283  10.727   8.746   3.573 -0.0162  0.1463  0.0009
18759SOL    HW158284  10.778   8.702   3.642 -1.4669 -1.4626  0.1141
18759SOL    HW258285  10.778   8.730   3.493  1.4113  1.5851  0.5576
18760SOL     OW58286   9.360   7.788   7.263 -0.2467  0.5050 -0.2133
18760SOL    HW158287   9.392   7.738   7.189  0.8833 -1.7134  1.6566
18760SOL    HW258288   9.284   7.739   7.295 -1.4248  2.0396 -0.4980
18761SOL     OW58289   8.672   1.338   5.383  0.2518  0.2047  0.5011
18761SOL    HW158290   8.736   1.393   5.428 -0.0075  0.9037  0.0253
18761SOL    HW258291   8.724   1.270   5.342  0.5656  0.0224  1.1841
18762SOL     OW58292  10.397   1.380   2.050 -0.2081 -0.3538  0.4883
18762SOL    HW158293  10.302   1.380   2.043 -0.1395 -2.1011 -1.6984
18762SOL    HW258294  10.419   1.290   2.076  0.8679 -0.0697  0.6056
18763SOL     OW58295   3.298   9.707   5.179  0.0418  0.4148 -0.3226
18763SOL    HW158296   3.353   9.633   5.153  0.5183  0.5294  0.3205
18763SOL    HW258297   3.248   9.728   5.101 -1.3894 -1.6838 -0.0639
18764SOL     OW58298   2.155   3.195   3.157  0.1595  0.5271  0.1888
18764SOL    HW158299   2.180   3.170   3.246  0.4346 -1.5627 -0.4191
18764SOL    HW258300   2.060   3.182   3.155  0.3432 -1.0485 -0.2305
18765SOL     OW58301   4.765   6.854   6.863 -0.0058 -0.4550  0.2834
18765SOL    HW158302   4.715   6.773   6.865  2.0220 -1.7869  0.7041
18765SOL    HW258303   4.809   6.853   6.778  3.0571 -1.8648  1.7365
18766SOL     OW58304   2.587   7.883   6.535  0.3402  0.5852  0.0795
18766SOL    HW158305   2.642   7.825   6.586  0.6019 -1.7104 -2.5640
18766SOL    HW258306   2.648   7.944   6.493  0.7822 -0.8872 -1.5250
18767SOL     OW58307   6.062  10.670   8.942 -0.3010 -0.4514 -0.0157
18767SOL    HW158308   5.999  10.700   8.876 -1.4945  0.9580  1.6730
18767SOL    HW258309   6.101  10.750   8.975  1.8754 -1.2690 -0.4680
18768SOL     OW58310   1.425   2.001   2.840 -0.1776  0.3916 -0.5501
18768SOL    HW158311   1.384   1.959   2.916 -0.6749  1.5026 -0.1907
18768SOL    HW258312   1.354   2.049   2.798  0.0714 -0.2897 -1.7936
18769SOL     OW58313   0.192   2.603   0.497 -0.2982  0.0874 -0.3997
18769SOL    HW158314   0.124   2.536   0.513  0.8848 -1.2277 -0.6553
18769SOL    HW258315   0.237   2.573   0.419 -0.0176  1.4664 -0.7887
18770SOL     OW58316  11.037   6.687   6.527 -0.6523  0.1038  0.1408
18770SOL    HW158317  11.080   6.605   6.500 -0.4165  0.3639 -0.2901
18770SOL    HW258318  10.947   6.677   6.498 -0.4650  0.2673 -0.5094
18771SOL     OW58319   3.970   2.549   4.051 -0.9177  0.1768 -0.3128
18771SOL    HW158320   3.984   2.454   4.043 -0.1128  0.1912  0.6734
18771SOL    HW258321   4.048   2.588   4.011  0.2732  0.3316  1.9569
18772SOL     OW58322  10.193   1.160   5.792  0.4659  0.1646 -0.4422
18772SOL    HW158323  10.105   1.198   5.799  0.0719 -0.2704 -2.4768
18772SOL    HW258324  10.244   1.207   5.858 -1.0254  1.1836  0.0513
18773SOL     OW58325   5.154   5.480   8.885  0.4283 -0.6092 -0.4314
18773SOL    HW158326   5.214   5.517   8.821  0.8564  1.9577  1.3458
18773SOL    HW258327   5.080   5.449   8.832  1.1141  0.6684 -2.2354
18774SOL     OW58328   9.366   8.615   6.082  0.4213 -0.4688 -0.1396
18774SOL    HW158329   9.343   8.523   6.071 -0.6319 -0.0998 -1.4017
18774SOL    HW258330   9.286   8.656   6.114  0.1795  0.3437 -1.6684
18775SOL     OW58331   5.408   6.079   7.646  0.5410 -0.3974 -0.3213
18775SOL    HW158332   5.410   6.167   7.611  0.7342 -0.2356  0.0873
18775SOL    HW258333   5.497   6.046   7.634  0.5314 -0.4477 -0.2536
18776SOL     OW58334   7.117   7.461   7.090 -0.6934 -0.0262 -0.0880
18776SOL    HW158335   7.123   7.470   6.994 -0.1717 -1.5241 -0.2182
18776SOL    HW258336   7.109   7.367   7.105 -3.9277  0.3169  1.2212
18777SOL     OW58337   4.494   6.395   6.052 -0.5161  0.2495  0.1075
18777SOL    HW158338   4.399   6.406   6.057 -0.7118 -0.5266 -1.3376
18777SOL    HW258339   4.522   6.458   5.985 -0.3017 -0.8541 -0.8753
18778SOL     OW58340   0.126   5.331   5.758 -0.0371 -0.6086 -0.1241
18778SOL    HW158341   0.084   5.265   5.813 -0.0282 -0.2472  0.3298
18778SOL    HW258342   0.198   5.365   5.812 -1.2850  1.2193  0.4824
18779SOL     OW58343   4.297   1.337   7.709  0.5611  0.4842 -0.1516
18779SOL    HW158344   4.391   1.337   7.691  0.3275  0.4659 -1.4177
18779SOL    HW258345   4.266   1.252   7.680 -0.1627  1.1976 -1.5780
18780SOL     OW58346   0.605   2.212   4.557 -0.1398  0.3113  0.2476
18780SOL    HW158347   0.594   2.246   4.469  0.3322 -1.2707 -0.4508
18780SOL    HW258348   0.517   2.216   4.596 -0.5845 -0.0671 -0.6995
18781SOL     OW58349   4.828   3.514   6.930  0.0233 -0.0516  0.1122
18781SOL    HW158350   4.912   3.489   6.892 -0.8645 -0.6181 -1.6166
18781SOL    HW258351   4.786   3.431   6.952 -0.1261  0.2231  0.8915
18782SOL     OW58352   4.842   0.116   6.928 -0.3448  0.1457  0.5003
18782SOL    HW158353   4.823   0.047   6.865  0.7885  0.7372 -0.5213
18782SOL    HW258354   4.915   0.082   6.980  1.7981  1.3878 -1.5006
18783SOL     OW58355   6.629   7.667   5.488 -0.3521 -0.3502 -0.5348
18783SOL    HW158356   6.593   7.705   5.568  1.6592 -0.3992  0.4655
18783SOL    HW258357   6.641   7.574   5.509 -0.4340 -0.4985 -1.1321
18784SOL     OW58358   0.465   9.096   1.534 -0.2112  0.5868  0.4303
18784SOL    HW158359   0.505   9.110   1.448 -2.3909 -2.1136 -1.1757
18784SOL    HW258360   0.532   9.048   1.583  0.6646  1.2481 -0.0649
18785SOL     OW58361  10.798   7.873   8.456 -0.0393 -0.4623  0.6292
18785SOL    HW158362  10.861   7.836   8.395  0.6861 -0.3506  1.2861
18785SOL    HW258363  10.752   7.797   8.493 -0.7700 -0.5095 -0.3281
18786SOL     OW58364   7.498   8.863   7.673 -0.0737  0.0201  0.1892
18786SOL    HW158365   7.521   8.797   7.608  0.7523  0.8326 -0.3545
18786SOL    HW258366   7.561   8.851   7.744  1.1005  1.2199 -0.6060
18787SOL     OW58367   4.975   3.630   0.755 -0.3206  0.0804  0.0798
18787SOL    HW158368   5.064   3.625   0.791 -0.2159 -0.1089 -0.1963
18787SOL    HW258369   4.918   3.613   0.830 -0.1940  1.8407  0.6077
18788SOL     OW58370   4.602   0.518   8.241 -0.1187 -0.4867 -0.0896
18788SOL    HW158371   4.533   0.509   8.306 -1.8309  0.8352 -1.5923
18788SOL    HW258372   4.556   0.544   8.161  2.1709  1.0252 -1.0355
18789SOL     OW58373   3.924   3.141   4.174  0.0105  0.4666  0.4732
18789SOL    HW158374   3.969   3.087   4.110  1.4426  1.2629  0.7716
18789SOL    HW258375   3.892   3.078   4.240 -0.3004 -0.2133 -0.3118
18790SOL     OW58376   6.924   2.993   0.295  0.2405 -0.6965 -0.5341
18790SOL    HW158377   6.971   3.071   0.326  0.2707 -1.3334  1.1077
18790SOL    HW258378   6.960   2.921   0.346 -2.0434 -1.3105  0.3575
18791SOL     OW58379   7.147   5.266   8.468  0.1320  0.5099 -0.5499
18791SOL    HW158380   7.108   5.344   8.429 -0.3293  0.8040  0.4629
18791SOL    HW258381   7.204   5.231   8.400 -2.0255 -0.0678 -2.1507
18792SOL     OW58382   5.993   0.808   9.061  0.8953 -0.1932 -0.0621
18792SOL    HW158383   5.965   0.841   8.975 -1.4284 -0.7373  0.3961
18792SOL    HW258384   5.935   0.852   9.123  0.6524 -1.8573  0.9518
18793SOL     OW58385   7.169   7.464  10.663  0.1405 -0.0992  0.0600
18793SOL    HW158386   7.164   7.422  10.749 -1.0398  0.8451  0.4942
18793SOL    HW258387   7.260   7.494  10.656 -0.5311  3.3362  2.8184
18794SOL     OW58388   7.281   0.239   1.758 -0.3667  0.1235 -0.4639
18794SOL    HW158389   7.191   0.273   1.758 -0.4256 -0.0275  0.1099
18794SOL    HW258390   7.332   0.306   1.803 -0.4454 -0.4427  0.4806
18795SOL     OW58391   7.462   8.611   2.731 -0.2843 -0.0787 -0.3588
18795SOL    HW158392   7.423   8.550   2.669 -1.1179  1.0792 -1.0090
18795SOL    HW258393   7.448   8.697   2.693 -0.5041  0.6497  1.2733
18796SOL     OW58394   5.158   6.541  10.385 -0.1549  0.2894  0.2993
18796SOL    HW158395   5.126   6.464  10.432  1.0466  0.2075  1.0362
18796SOL    HW258396   5.107   6.543  10.304  0.0475 -1.4912  0.0901
18797SOL     OW58397   8.416   4.996   2.278 -0.5016 -0.0334 -0.0807
18797SOL    HW158398   8.365   4.917   2.294 -1.4680  0.1687 -1.8888
18797SOL    HW258399   8.434   5.031   2.365  1.0517 -2.8623  0.8487
18798SOL     OW58400  10.739   0.765   4.010 -0.7885 -0.5251  0.0290
18798SOL    HW158401  10.735   0.806   4.095 -0.2780 -0.1239 -0.1334
18798SOL    HW258402  10.808   0.813   3.963 -0.1567 -1.5634 -0.1514
18799SOL     OW58403   3.458   1.978   0.162  0.6781  0.4978 -0.6507
18799SOL    HW158404   3.542   2.023   0.172  0.2706  1.1407  0.0304
18799SOL    HW258405   3.418   2.018   0.086  1.0869  0.0174 -1.1271
18800SOL     OW58406   8.713   7.981   7.713 -0.2225 -0.2417  0.4705
18800SOL    HW158407   8.719   7.890   7.740  0.3454  0.0578  1.4307
18800SOL    HW258408   8.721   8.031   7.795 -0.4600  0.6649 -0.0425
18801SOL     OW58409   4.021   1.721  10.365 -0.0348 -0.2291 -0.0198
18801SOL    HW158410   3.964   1.765  10.429  0.6107  0.1821  0.2775
18801SOL    HW258411   4.023   1.630  10.394 -0.3086 -0.1863  0.1397
18802SOL     OW58412   9.782   4.202   6.066 -0.2177  0.0918 -0.2172
18802SOL    HW158413   9.731   4.201   6.148  1.2253  0.1987  0.7153
18802SOL    HW258414   9.835   4.282   6.072  0.8705 -0.5838 -0.6289
18803SOL     OW58415   4.850   9.022   1.117 -0.0540  0.4392 -0.0700
18803SOL    HW158416   4.798   9.034   1.038  1.4829  0.5304 -1.1189
18803SOL    HW258417   4.814   8.943   1.157 -1.0153  0.5245 -0.7307
18804SOL     OW58418   9.946   5.403   9.434  0.3511 -1.1087 -0.2201
18804SOL    HW158419   9.887   5.374   9.504 -0.0812 -3.4669 -1.4412
18804SOL    HW258420   9.900   5.379   9.354  0.7845  1.6190 -1.3741
18805SOL     OW58421   3.666   1.993  10.392  0.2349 -0.2311  0.1033
18805SOL    HW158422   3.725   2.035  10.328 -0.3960 -1.8907 -1.6751
18805SOL    HW258423   3.712   2.000  10.475  2.3291 -0.2592 -0.9853
18806SOL     OW58424   0.219   6.164  11.022 -0.9900 -0.1588 -0.4276
18806SOL    HW158425   0.197   6.193  11.110 -1.5097  1.3934 -1.0310
18806SOL    HW258426   0.315   6.157  11.023 -0.7998  1.8609 -0.2757
18807SOL     OW58427   3.220   8.302   0.247 -0.0269 -0.1546  0.5023
18807SOL    HW158428   3.244   8.212   0.227  1.0263  0.4295 -1.2352
18807SOL    HW258429   3.240   8.350   0.166 -0.4191  1.6513  1.4105
18808SOL     OW58430   5.190   2.784   5.452 -0.4526 -0.7942 -0.2641
18808SOL    HW158431   5.102   2.801   5.486  0.0809  0.6537  0.4806
18808SOL    HW258432   5.244   2.771   5.531  0.0327 -1.5694 -0.7088
18809SOL     OW58433   7.140   2.409   6.181 -0.5406 -0.1277  0.3054
18809SOL    HW158434   7.113   2.440   6.267 -0.1474  1.2439 -0.0411
18809SOL    HW258435   7.076   2.447   6.121 -0.1994 -0.2108 -0.1144
18810SOL     OW58436   1.718   3.050   4.056  0.3567  0.0932  0.1977
18810SOL    HW158437   1.672   3.076   4.136  0.5866  0.6958  0.1410
18810SOL    HW258438   1.685   2.962   4.037 -1.3236  0.7766 -0.2476
18811SOL     OW58439   9.150   2.231  10.466 -0.3317  0.4923  0.2354
18811SOL    HW158440   9.187   2.212  10.380 -1.4475  1.0126 -0.3768
18811SOL    HW258441   9.056   2.237  10.451 -0.3804  2.7702  1.0713
18812SOL     OW58442   7.356   4.782   9.926  0.1080 -0.0178  0.6939
18812SOL    HW158443   7.439   4.775   9.973  0.9910 -1.6468 -0.9639
18812SOL    HW258444   7.379   4.818   9.841 -0.6375 -1.6080 -0.2402
18813SOL     OW58445   9.415   4.601   2.280  0.0931  0.2780  0.3954
18813SOL    HW158446   9.480   4.565   2.220  0.8251  1.9241  0.1350
18813SOL    HW258447   9.403   4.692   2.251 -1.8196  0.2206  0.8729
18814SOL     OW58448   7.847   6.607   7.708  0.0919 -0.7352  0.5039
18814SOL    HW158449   7.818   6.586   7.797  1.3177 -1.1019  0.8312
18814SOL    HW258450   7.942   6.611   7.714  0.1240  2.1923 -0.1287
18815SOL     OW58451   9.460  10.536   5.092 -0.0125  0.1681  0.1227
18815SOL    HW158452   9.444  10.555   5.184  0.7177 -0.8464  0.4755
18815SOL    HW258453   9.411  10.603   5.045 -2.1588 -0.5548  1.2043
18816SOL     OW58454   1.389  10.037  10.286 -0.0808  0.5470  0.3926
18816SOL    HW158455   1.413  10.000  10.200  1.7478  0.3495  0.9420
18816SOL    HW258456   1.469  10.079  10.317 -0.4754 -0.0172  2.3303
18817SOL     OW58457   3.334   3.509   3.143 -0.5057  0.0169  0.2599
18817SOL    HW158458   3.302   3.582   3.090  0.9652 -0.2414 -1.0956
18817SOL    HW258459   3.319   3.432   3.088 -1.5384 -0.6538  1.4459
18818SOL     OW58460   1.887   6.058   7.115 -0.8708 -0.0347  0.1360
18818SOL    HW158461   1.912   5.982   7.167 -0.5081 -0.0111 -0.0022
18818SOL    HW258462   1.868   6.022   7.028 -0.0893  0.1120 -0.1004
18819SOL     OW58463   8.024   7.597   9.200  0.0493  0.3995  0.1228
18819SOL    HW158464   7.941   7.615   9.244 -0.3177 -0.8529 -0.0122
18819SOL    HW258465   8.032   7.501   9.203  0.4030  0.3363 -1.8330
18820SOL     OW58466  10.140   1.884  10.983  0.4581 -0.3760  0.3206
18820SOL    HW158467  10.212   1.847  10.932  1.3008  2.1016 -0.4280
18820SOL    HW258468  10.173   1.883  11.073  2.4795  2.6303 -0.2272
18821SOL     OW58469   7.600   7.446   8.259  0.0365  0.0441 -0.2178
18821SOL    HW158470   7.547   7.383   8.308  0.2521  0.3601  0.4367
18821SOL    HW258471   7.690   7.422   8.279  0.1205  0.7036  0.2360
18822SOL     OW58472   7.312   5.886  10.335 -0.1057 -0.3730 -0.1310
18822SOL    HW158473   7.275   5.828  10.268 -1.8971 -0.8744  1.2105
18822SOL    HW258474   7.385   5.929  10.292 -0.1816 -1.8956 -1.8974
18823SOL     OW58475   9.207   4.240   4.761  0.0093  0.2704  0.0532
18823SOL    HW158476   9.183   4.212   4.849  0.0265 -0.4968 -0.1800
18823SOL    HW258477   9.165   4.177   4.703 -1.4995  1.7973 -0.5917
18824SOL     OW58478  10.943   2.259   8.315 -0.1973 -0.0173  0.0118
18824SOL    HW158479  10.902   2.178   8.345  0.7192 -0.2655  0.6590
18824SOL    HW258480  10.975   2.239   8.227 -1.3157  0.1368 -0.4411
18825SOL     OW58481   1.575  10.451   1.397  0.1937  0.2530 -0.6081
18825SOL    HW158482   1.574  10.437   1.303  0.0550  1.1242 -0.7446
18825SOL    HW258483   1.658  10.496   1.414  0.1725  0.1876 -0.3274
18826SOL     OW58484  10.897   6.664   1.800  0.0845 -0.0972 -0.2394
18826SOL    HW158485  10.803   6.681   1.806  0.4071  1.6912  0.3432
18826SOL    HW258486  10.929   6.725   1.733  0.8318 -0.7359 -0.4922
18827SOL     OW58487   9.218   2.504   5.037  0.2205  0.1142 -0.5704
18827SOL    HW158488   9.261   2.540   5.115  0.6710 -1.3532 -0.1119
18827SOL    HW258489   9.152   2.570   5.014  0.1181  0.6078  1.0104
18828SOL     OW58490   7.021   6.617   3.285 -0.0348 -0.1845  0.1791
18828SOL    HW158491   6.972   6.695   3.310  0.1525  0.2743 -0.8334
18828SOL    HW258492   6.954   6.557   3.251 -0.0551 -0.0804  0.0364
18829SOL     OW58493   0.960   8.261   1.270  0.2721 -0.2309  0.2236
18829SOL    HW158494   0.920   8.279   1.355  0.8467 -0.4566  0.5474
18829SOL    HW258495   1.046   8.304   1.274 -0.1081  0.6538 -0.6398
18830SOL     OW58496   6.609   1.127   9.649 -0.2985  0.4325  0.1962
18830SOL    HW158497   6.567   1.048   9.616  0.1674 -0.4502  1.6279
18830SOL    HW258498   6.577   1.136   9.739  1.6894  0.3289  0.9760
18831SOL     OW58499   4.087   5.494   2.619  0.4722 -0.4744 -0.0758
18831SOL    HW158500   4.133   5.542   2.687 -0.6630 -0.4628  0.7036
18831SOL    HW258501   4.114   5.403   2.631 -0.8927 -0.7255  1.4194
18832SOL     OW58502   2.194   6.300   3.685  0.0818 -0.2484  0.1592
18832SOL    HW158503   2.244   6.250   3.749  0.2679 -0.3089 -0.0316
18832SOL    HW258504   2.254   6.369   3.656 -0.0497 -0.1359  0.1531
18833SOL     OW58505   0.147   9.382   9.664 -0.1384  0.3690 -0.4652
18833SOL    HW158506   0.192   9.457   9.625  0.9825  0.7258  1.3614
18833SOL    HW258507   0.215   9.338   9.715 -1.4111 -0.2858  0.7182
18834SOL     OW58508   3.618   0.348   2.149  0.4197 -0.1076 -0.1289
18834SOL    HW158509   3.662   0.410   2.092  1.0006 -0.0749  0.3454
18834SOL    HW258510   3.617   0.266   2.100 -0.4043  0.2805 -0.7798
18835SOL     OW58511   7.035   2.766  10.220  0.6243  0.2842  0.3672
18835SOL    HW158512   7.101   2.699  10.200  0.8197  0.7750 -0.6845
18835SOL    HW258513   7.044   2.830  10.150 -1.4709  0.0012 -0.2198
18836SOL     OW58514   4.556   7.960   9.425 -0.4131  0.8847  0.9479
18836SOL    HW158515   4.535   8.036   9.371  3.0759  2.0806  0.9940
18836SOL    HW258516   4.559   7.994   9.515 -2.0235 -0.1222  1.4237
18837SOL     OW58517   2.021   7.381   4.095 -0.5053  0.5450 -0.2852
18837SOL    HW158518   1.993   7.400   4.185  0.6742  2.5410 -0.2586
18837SOL    HW258519   2.112   7.410   4.093  0.1278 -1.3877 -1.6080
18838SOL     OW58520   8.855  10.401   4.530  0.0158 -0.2906  0.1981
18838SOL    HW158521   8.806  10.350   4.465 -1.8660 -0.6314  1.8048
18838SOL    HW258522   8.788  10.444   4.583  1.5104  2.5604 -0.0092
18839SOL     OW58523   5.433   2.349   6.351 -0.0664  0.4819 -0.2838
18839SOL    HW158524   5.364   2.344   6.418  0.4701  0.8099  0.3070
18839SOL    HW258525   5.477   2.432   6.369  1.3780 -0.3683  0.2560
18840SOL     OW58526   1.636   3.696   4.258 -0.1283 -0.1074  0.5633
18840SOL    HW158527   1.717   3.679   4.209 -0.6544 -0.9453 -0.0267
18840SOL    HW258528   1.641   3.639   4.335  0.7495  1.2880  1.6024
18841SOL     OW58529   5.967   9.837   8.032 -0.4539  0.1187  0.0367
18841SOL    HW158530   5.922   9.802   7.956  1.6658 -2.2958 -0.2432
18841SOL    HW258531   6.038   9.891   7.996  0.3727 -0.7898  0.2608
18842SOL     OW58532   4.964   8.268   7.611  0.2936 -0.1293  0.1185
18842SOL    HW158533   5.054   8.263   7.642  0.1412  0.6904  0.7397
18842SOL    HW258534   4.945   8.362   7.607 -1.4061 -0.2637  2.6687
18843SOL     OW58535   3.867   0.213   4.690 -0.1970  0.8026  0.0467
18843SOL    HW158536   3.830   0.242   4.773  1.6161 -0.5659  1.4210
18843SOL    HW258537   3.951   0.259   4.683  0.8153 -0.9073  0.2567
18844SOL     OW58538   5.869   5.675   5.987 -0.2244  0.4448 -0.0988
18844SOL    HW158539   5.800   5.616   5.957  0.3351 -1.2522  1.8064
18844SOL    HW258540   5.831   5.720   6.063 -0.6605  2.6834 -1.5322
18845SOL     OW58541   3.452   6.760   8.782  0.2262  0.7031  0.1174
18845SOL    HW158542   3.446   6.706   8.704  0.2841 -0.5191  0.9357
18845SOL    HW258543   3.492   6.704   8.848  1.4079  2.1161  0.6715
18846SOL     OW58544   8.896   6.900  10.585  0.0552  0.4436  0.6201
18846SOL    HW158545   8.899   6.848  10.665  0.3972  0.8714  0.8859
18846SOL    HW258546   8.820   6.957  10.596  1.5778  2.3638  1.8138
18847SOL     OW58547   9.143   2.692   4.313  0.2080  0.3143 -0.7317
18847SOL    HW158548   9.237   2.683   4.329  0.1880 -1.4849 -1.4523
18847SOL    HW258549   9.133   2.674   4.219 -0.9579 -0.5402 -0.4616
18848SOL     OW58550   1.747   8.233   5.040 -0.0835  0.2068  0.1053
18848SOL    HW158551   1.745   8.170   4.968 -1.4671  0.7777 -0.3865
18848SOL    HW258552   1.675   8.293   5.021  0.4757  1.2545  1.1785
18849SOL     OW58553   7.465   8.411   2.282  0.0395  0.0999 -0.2395
18849SOL    HW158554   7.371   8.395   2.289  0.2448 -0.7512  0.8875
18849SOL    HW258555   7.490   8.375   2.197 -0.6226  0.2005 -0.4827
18850SOL     OW58556   6.934   7.486   7.961 -0.4971 -0.1659  0.2421
18850SOL    HW158557   7.002   7.550   7.983  0.4184 -1.3870  1.1513
18850SOL    HW258558   6.861   7.538   7.927  1.0206  1.1637 -1.1383
18851SOL     OW58559   7.565   9.079   7.252  0.7003  0.5569 -0.0767
18851SOL    HW158560   7.596   9.166   7.227  0.1410  0.5291 -0.9134
18851SOL    HW258561   7.623   9.018   7.207  1.7032  0.4730  1.2806
18852SOL     OW58562   9.025   5.475   2.274 -0.3475  0.1640 -0.1252
18852SOL    HW158563   9.029   5.389   2.316 -0.2932  0.1805 -0.0965
18852SOL    HW258564   9.051   5.536   2.343  2.9694 -0.0598 -0.9653
18853SOL     OW58565   9.626   5.116   5.711 -0.2611  0.3760 -0.2150
18853SOL    HW158566   9.707   5.136   5.663 -0.8021  0.8077 -0.9756
18853SOL    HW258567   9.561   5.176   5.674 -0.2720  2.2018  2.4488
18854SOL     OW58568  11.015   0.402   7.126 -0.3901  1.2753  0.2781
18854SOL    HW158569  10.951   0.429   7.059  1.4476  2.0750 -1.2452
18854SOL    HW258570  11.083   0.355   7.078  0.6529  1.2531  1.6967
18855SOL     OW58571   5.987   2.875   5.552  0.9796 -0.1425 -0.3972
18855SOL    HW158572   6.055   2.807   5.544 -0.6969 -2.2055  1.6530
18855SOL    HW258573   5.916   2.845   5.495  0.1691 -0.2219  0.6179
18856SOL     OW58574   0.124   0.471   4.272 -0.4222 -0.4545  0.4684
18856SOL    HW158575   0.110   0.518   4.354  0.4775  1.9459 -0.6632
18856SOL    HW258576   0.084   0.527   4.205  0.1305 -1.6320 -0.8939
18857SOL     OW58577   2.069   9.822   3.034 -0.2687  0.5654  0.1653
18857SOL    HW158578   2.116   9.743   3.062  0.0060  0.9283  0.7404
18857SOL    HW258579   2.104   9.841   2.947 -1.8919 -1.1905 -0.9662
18858SOL     OW58580   2.763   9.178   5.361 -0.7742 -0.1903 -0.5682
18858SOL    HW158581   2.710   9.138   5.292  0.2372 -0.8814 -0.9778
18858SOL    HW258582   2.725   9.264   5.374 -0.9813 -0.0389 -2.0110
18859SOL     OW58583   9.061   8.797   5.965  0.1201  0.0131  0.0640
18859SOL    HW158584   9.055   8.747   5.884 -1.5061  0.1933  0.0489
18859SOL    HW258585   8.971   8.825   5.984  0.2684 -0.8966  2.4717
18860SOL     OW58586   9.674   0.362   3.270 -0.2564  0.2833 -0.5527
18860SOL    HW158587   9.609   0.292   3.277 -0.8306  0.8613  0.1160
18860SOL    HW258588   9.706   0.356   3.180  1.1341 -2.0510  0.0030
18861SOL     OW58589   7.845   3.555   7.521  0.5984 -0.1440  0.1921
18861SOL    HW158590   7.750   3.563   7.511  0.5536  0.3313  0.9380
18861SOL    HW258591   7.860   3.549   7.615  1.3901  1.0654  0.1760
18862SOL     OW58592   3.712  10.875   1.330 -0.2031  0.1394  0.1460
18862SOL    HW158593   3.654  10.895   1.256 -1.6968  0.8894  1.4423
18862SOL    HW258594   3.766  10.953   1.340 -0.0165  0.0467 -0.1490
18863SOL     OW58595   4.192   6.573   2.502 -0.2084 -0.4101  0.3511
18863SOL    HW158596   4.241   6.522   2.567 -0.8106 -2.6988 -0.8538
18863SOL    HW258597   4.260   6.615   2.449  0.4177 -1.3925  0.3299
18864SOL     OW58598   8.341   9.334   5.195  0.3327 -0.0528  0.3685
18864SOL    HW158599   8.269   9.397   5.196 -0.4532 -0.9538  1.3330
18864SOL    HW258600   8.323   9.278   5.120  0.3948  0.1245  0.2185
18865SOL     OW58601   7.854   6.006   6.821 -0.1447  0.4840  0.1111
18865SOL    HW158602   7.793   6.010   6.747 -0.6923  1.5096  0.5967
18865SOL    HW258603   7.813   6.060   6.889  0.3046 -0.5101  1.2035
18866SOL     OW58604   6.289   5.362   9.677  0.3470  0.0584  0.0464
18866SOL    HW158605   6.337   5.283   9.702  1.8687  0.8687 -0.1991
18866SOL    HW258606   6.198   5.333   9.671  0.6755 -1.3650  1.2471
18867SOL     OW58607   0.745  10.842   1.206 -0.0669  0.0931 -0.5429
18867SOL    HW158608   0.765  10.837   1.112  1.6902  2.6678 -0.4116
18867SOL    HW258609   0.670  10.901   1.210 -0.1653 -0.0491 -0.3112
18868SOL     OW58610   6.739   7.526   8.823  0.1015  0.6338  0.1932
18868SOL    HW158611   6.756   7.498   8.733  0.6093 -1.3698  0.8525
18868SOL    HW258612   6.646   7.512   8.835  0.0899  0.6010  0.0661
18869SOL     OW58613   5.250   9.415   7.060 -0.0021  0.3306 -0.2302
18869SOL    HW158614   5.246   9.427   6.965  1.3055  0.8960 -0.2216
18869SOL    HW258615   5.298   9.333   7.072 -0.3576  0.1438 -0.0474
18870SOL     OW58616   3.291   2.549   6.667 -0.6112  0.4216  0.0855
18870SOL    HW158617   3.379   2.578   6.643  0.0239 -1.4404 -0.0145
18870SOL    HW258618   3.254   2.622   6.716 -0.3474  2.6472 -2.7545
18871SOL     OW58619   4.083   7.339  10.312 -0.1997  0.5944  0.4855
18871SOL    HW158620   4.114   7.348  10.402  1.5790  0.4031 -0.0548
18871SOL    HW258621   4.014   7.273  10.316  1.7256 -1.5119  1.3829
18872SOL     OW58622   8.089  11.009   0.906 -0.5034  0.0312 -0.2663
18872SOL    HW158623   8.133  11.093   0.917 -2.5007  1.0599  0.2888
18872SOL    HW258624   8.027  11.023   0.835  0.5970 -1.6548 -1.6484
18873SOL     OW58625   0.035   8.408   2.072  0.0833 -0.1581  0.2189
18873SOL    HW158626   0.100   8.401   2.002 -0.0724 -0.4976  0.1056
18873SOL    HW258627  -0.009   8.323   2.072 -0.8708  0.3244 -0.2052
18874SOL     OW58628   6.223   8.960   8.942 -0.0222  0.4815 -0.0337
18874SOL    HW158629   6.152   8.895   8.948  0.3395  0.1446  0.7847
18874SOL    HW258630   6.245   8.962   8.849 -1.3111  0.8251 -0.3536
18875SOL     OW58631   7.064   6.859   2.196 -0.0851  0.3555  0.7446
18875SOL    HW158632   7.138   6.805   2.222  0.8844  1.4513  0.3397
18875SOL    HW258633   7.041   6.828   2.108 -0.3421 -0.2219  1.0150
18876SOL     OW58634   7.060   2.225  10.272  0.0523 -0.5747  0.1284
18876SOL    HW158635   7.009   2.239  10.193  0.6543 -0.0558 -0.1856
18876SOL    HW258636   7.110   2.306  10.283  0.5204 -0.9171  0.6313
18877SOL     OW58637   0.181   1.015   9.193  0.1889  0.0910 -0.1571
18877SOL    HW158638   0.134   0.965   9.127  0.0066  0.2532 -0.1527
18877SOL    HW258639   0.178   1.106   9.162  0.7895  0.0601 -0.3230
18878SOL     OW58640   8.834   6.982   1.140 -0.2419 -0.5317 -0.3882
18878SOL    HW158641   8.870   7.059   1.095 -3.2601  2.1430  1.3018
18878SOL    HW258642   8.905   6.950   1.195  0.6168  2.4443  0.4451
18879SOL     OW58643   4.966   7.536   5.834 -0.2854  0.3327  0.9115
18879SOL    HW158644   4.898   7.576   5.780 -0.6078 -0.6347  0.5803
18879SOL    HW258645   4.974   7.594   5.910 -0.3455  1.3132  0.1848
18880SOL     OW58646   6.846   6.226   2.623  0.1079  0.5402  0.3105
18880SOL    HW158647   6.809   6.151   2.577 -2.7074  1.8824  0.1801
18880SOL    HW258648   6.895   6.273   2.555 -1.2268  0.7385 -0.5546
18881SOL     OW58649   1.012   5.171   4.572  0.2130  0.1430 -0.8411
18881SOL    HW158650   0.972   5.121   4.642  2.4376 -1.6134 -0.6970
18881SOL    HW258651   1.004   5.115   4.495 -1.3942  1.6545 -1.8304
18882SOL     OW58652   0.139   8.698  10.904  0.0630 -0.4434  0.3043
18882SOL    HW158653   0.115   8.715  10.813  0.6411  2.7262  0.6302
18882SOL    HW258654   0.071   8.740  10.955  1.5598  0.9341  1.2701
18883SOL     OW58655   8.587   7.865  10.441  0.7138  0.1809  0.0985
18883SOL    HW158656   8.544   7.946  10.413 -0.4710 -0.2442  0.5997
18883SOL    HW258657   8.630   7.832  10.362 -0.0626  0.5305 -0.4813
18884SOL     OW58658   7.497  10.234   6.590  0.0039 -0.1711  0.0557
18884SOL    HW158659   7.446  10.308   6.556 -0.1532 -0.6670 -0.8141
18884SOL    HW258660   7.446  10.157   6.566  0.9777 -0.6531 -0.5215
18885SOL     OW58661   4.852   8.032   3.645  0.1601  1.3097  0.1960
18885SOL    HW158662   4.868   8.022   3.739 -0.0023  0.0699  0.1133
18885SOL    HW258663   4.903   7.961   3.605 -2.7363 -0.6359 -0.3316
18886SOL     OW58664   3.638   6.199   8.922 -0.3120 -0.1104  0.5398
18886SOL    HW158665   3.604   6.111   8.908 -0.9442  0.2510 -0.2557
18886SOL    HW258666   3.695   6.191   8.999  1.2971 -1.6420 -0.7311
18887SOL     OW58667   2.908  10.984  10.295  0.5534  0.5395 -0.4983
18887SOL    HW158668   2.921  10.914  10.232 -0.4943 -0.1724  0.0447
18887SOL    HW258669   2.983  10.978  10.354  0.2710 -0.3954 -0.2159
18888SOL     OW58670   1.305   4.686  10.633  0.6332 -0.0526  0.3146
18888SOL    HW158671   1.261   4.689  10.718  1.2272  1.6676  0.6010
18888SOL    HW258672   1.373   4.753  10.638  2.8366 -2.0847 -0.3989
18889SOL     OW58673   2.607   7.883   8.384  0.1038  0.1799  0.0389
18889SOL    HW158674   2.587   7.976   8.399 -0.7614 -0.0776  0.5882
18889SOL    HW258675   2.703   7.879   8.381  0.1753  0.9788  0.8100
18890SOL     OW58676   1.177  10.446   7.052 -0.2385  0.1914 -0.3242
18890SOL    HW158677   1.107  10.389   7.019  0.5809 -0.5515 -0.8201
18890SOL    HW258678   1.190  10.418   7.143 -0.4359  0.1849 -0.2969
18891SOL     OW58679   8.566   2.600   5.853 -0.6376 -0.0391 -0.4281
18891SOL    HW158680   8.532   2.677   5.807 -1.0646 -0.1990 -0.3818
18891SOL    HW258681   8.646   2.577   5.805 -0.6245  0.3058 -0.5712
18892SOL     OW58682   1.785   4.517   0.433  0.3913  0.2854  0.2286
18892SOL    HW158683   1.697   4.538   0.402  0.5519 -0.4754 -0.8168
18892SOL    HW258684   1.785   4.421   0.438  0.5084  0.3518  2.2626
18893SOL     OW58685   4.615   8.385   3.717 -0.2403  0.1544 -0.5131
18893SOL    HW158686   4.655   8.375   3.803 -0.8506 -1.3667 -0.3803
18893SOL    HW258687   4.521   8.385   3.734 -0.3475  1.1497 -1.0622
18894SOL     OW58688   9.977   3.158   6.717 -0.0256  0.5480 -0.0137
18894SOL    HW158689   9.941   3.166   6.805  0.6879  2.3552  0.1690
18894SOL    HW258690   9.904   3.180   6.659 -0.1750  0.5939  0.1894
18895SOL     OW58691   1.075   3.481   8.582  0.0222  0.3320 -0.1094
18895SOL    HW158692   0.982   3.469   8.601 -0.0561  2.2477  0.9313
18895SOL    HW258693   1.115   3.399   8.610 -1.1218  0.1923  1.2569
18896SOL     OW58694   5.718   3.453   9.662  0.3315  0.1610 -0.0979
18896SOL    HW158695   5.679   3.366   9.655  0.4009  0.2307 -1.6845
18896SOL    HW258696   5.711   3.490   9.574  0.5499  1.6620  0.4788
18897SOL     OW58697   8.433  10.916   5.212  0.0931 -0.2023  0.7152
18897SOL    HW158698   8.399  10.828   5.228  0.6536 -0.5407  0.0809
18897SOL    HW258699   8.508  10.903   5.154 -0.9225  0.8445 -0.9225
18898SOL     OW58700  11.018   7.928  10.437  0.3058  0.1376  0.1756
18898SOL    HW158701  11.034   7.980  10.516  0.0175 -1.0474  1.0268
18898SOL    HW258702  11.088   7.864  10.435 -0.2247 -0.4473 -0.0149
18899SOL     OW58703   7.918   0.379  10.530  0.8372 -0.1844 -0.2772
18899SOL    HW158704   7.915   0.386  10.435  1.4345 -0.0115 -0.2861
18899SOL    HW258705   7.869   0.299  10.550  2.7317 -1.5872 -0.9221
18900SOL     OW58706   3.664   0.845   5.209  0.6346  0.0522  0.1395
18900SOL    HW158707   3.621   0.895   5.278  0.4811  0.3960 -0.2044
18900SOL    HW258708   3.756   0.871   5.214  0.9734 -1.2675  1.3916
18901SOL     OW58709   2.213   6.071   4.473  0.0460  0.1456  0.1335
18901SOL    HW158710   2.274   6.006   4.438 -1.7625 -1.2766 -0.4681
18901SOL    HW258711   2.185   6.035   4.557  0.6130  1.1934  0.7949
18902SOL     OW58712   3.068   1.721   1.638 -0.8216 -0.3271 -0.0496
18902SOL    HW158713   3.125   1.645   1.635 -1.5814 -0.8931 -1.8458
18902SOL    HW258714   3.114   1.788   1.587 -0.7267  0.0064  0.4617
18903SOL     OW58715   7.019   8.043   6.505  0.2438 -0.2018  0.0472
18903SOL    HW158716   6.974   7.977   6.557 -3.3802 -0.3355 -2.8923
18903SOL    HW258717   6.956   8.115   6.498  1.3155  0.5910 -2.4707
18904SOL     OW58718   5.939   7.970   9.331  0.3125  0.2900 -0.2094
18904SOL    HW158719   6.025   7.995   9.366 -0.5141  0.3383  1.9208
18904SOL    HW258720   5.932   7.877   9.351 -0.3665  0.4187  0.1825
18905SOL     OW58721   3.315   6.207   3.101  0.2220  0.1414 -0.0824
18905SOL    HW158722   3.237   6.186   3.051  0.5390 -0.3141 -0.3992
18905SOL    HW258723   3.384   6.153   3.062  0.8555  1.0664 -0.2909
18906SOL     OW58724   9.794   6.942   3.029  0.0401 -0.0041 -0.2970
18906SOL    HW158725   9.852   6.896   3.090  2.3158  2.6035 -0.2510
18906SOL    HW258726   9.734   6.990   3.085  0.8189  0.7988 -0.1181
18907SOL     OW58727   4.170   3.372   2.050 -0.2525  0.7569  0.2633
18907SOL    HW158728   4.130   3.446   2.004  1.5496  1.1664 -0.7431
18907SOL    HW258729   4.118   3.297   2.024 -2.6228  1.6760  1.9159
18908SOL     OW58730   0.165   7.338   0.947 -0.2063 -0.2437 -0.1160
18908SOL    HW158731   0.134   7.406   1.006  0.7310 -1.0817  1.4061
18908SOL    HW258732   0.140   7.369   0.859 -2.0590  0.8072  0.7227
18909SOL     OW58733   4.359   1.820   2.052  0.3578 -0.4676  0.5191
18909SOL    HW158734   4.427   1.837   1.987 -2.1928 -0.7876 -2.4815
18909SOL    HW258735   4.368   1.891   2.115  1.2653  1.5639 -1.7349
18910SOL     OW58736   0.113   8.417   0.084  0.1415 -0.3047 -0.4303
18910SOL    HW158737   0.161   8.421   0.001  0.2760 -0.2289 -0.3501
18910SOL    HW258738   0.173   8.456   0.148 -0.0023 -0.2682 -0.3165
18911SOL     OW58739   8.662   0.657   6.540  0.4232 -0.2209 -0.2761
18911SOL    HW158740   8.725   0.677   6.471  1.0534  1.1310  0.6435
18911SOL    HW258741   8.584   0.707   6.515 -0.5481 -2.3041 -1.6930
18912SOL     OW58742  10.623   1.248   9.006  0.2531  0.0769 -0.4216
18912SOL    HW158743  10.632   1.246   8.911 -1.0035  1.5271 -0.6115
18912SOL    HW258744  10.631   1.341   9.029  2.1220 -0.4077  1.0877
18913SOL     OW58745   4.964   3.748   0.368  0.3846  0.3131 -0.5049
18913SOL    HW158746   4.874   3.719   0.355  0.7845 -1.0310 -0.4094
18913SOL    HW258747   4.961   3.802   0.446 -0.0576 -1.2292  0.6004
18914SOL     OW58748   7.162  10.545   0.211 -0.1664  0.0157 -0.0754
18914SOL    HW158749   7.186  10.606   0.281  3.5261 -0.4205 -0.7315
18914SOL    HW258750   7.132  10.466   0.256 -2.8690  1.4382  0.8066
18915SOL     OW58751   7.208   3.240  10.665  0.2150  0.7480 -0.7629
18915SOL    HW158752   7.212   3.213  10.757  3.4362  0.6410 -0.7929
18915SOL    HW258753   7.172   3.164  10.619 -0.7220  0.5196  0.3210
18916SOL     OW58754   4.028   3.716   4.486  0.0692  0.6113 -1.3049
18916SOL    HW158755   4.109   3.674   4.456 -0.2825  0.0931 -1.5436
18916SOL    HW258756   4.041   3.809   4.467  1.4188  0.8433  0.4938
18917SOL     OW58757   5.701   3.613   0.455  0.0697 -0.1771 -0.0879
18917SOL    HW158758   5.681   3.580   0.367  1.2701 -0.0810 -0.4022
18917SOL    HW258759   5.796   3.614   0.459  0.0434  1.3988  0.6191
18918SOL     OW58760   9.783   1.216   2.995  0.4270  0.4886  0.6142
18918SOL    HW158761   9.859   1.186   3.045 -0.3117 -5.0003 -0.9038
18918SOL    HW258762   9.820   1.256   2.917  1.8873 -1.4899  0.2086
18919SOL     OW58763   3.104   4.186   3.014 -0.2222  0.0398 -0.6675
18919SOL    HW158764   3.079   4.279   3.012  2.5835  0.9343  0.3185
18919SOL    HW258765   3.172   4.178   2.948  2.7694 -0.1109  2.1681
18920SOL     OW58766   2.370   0.927   5.750  0.2368  0.3273  0.1617
18920SOL    HW158767   2.433   0.857   5.769 -0.2725  0.0601  0.8837
18920SOL    HW258768   2.390   0.953   5.660  2.0107  0.9109  0.6940
18921SOL     OW58769   8.543  10.883   5.608 -0.0511 -0.9439  0.4496
18921SOL    HW158770   8.451  10.911   5.613 -0.1865 -1.2682 -0.1064
18921SOL    HW258771   8.555  10.826   5.684 -0.3523 -1.0038  0.4550
18922SOL     OW58772   4.833   5.804   5.050 -0.3414 -0.7512  0.8371
18922SOL    HW158773   4.887   5.732   5.082  1.1183  0.4364  1.1655
18922SOL    HW258774   4.882   5.883   5.073 -1.1037  0.3090 -0.9237
18923SOL     OW58775   7.242   1.477   3.140 -0.6668  0.0362  0.0335
18923SOL    HW158776   7.212   1.556   3.185 -0.6294 -0.4663  0.9536
18923SOL    HW258777   7.312   1.442   3.195  0.4391  0.2319 -1.2008
18924SOL     OW58778  10.062   1.186   1.841 -0.5794 -0.3308  0.0622
18924SOL    HW158779  10.079   1.279   1.825 -0.7098 -0.3175  0.0000
18924SOL    HW258780   9.972   1.184   1.874 -0.7653 -0.4868 -0.4407
18925SOL     OW58781  10.524   8.206   5.488 -0.5124 -0.1260  0.1770
18925SOL    HW158782  10.450   8.197   5.548 -0.9176  1.1363 -0.1002
18925SOL    HW258783  10.569   8.285   5.517  0.1882 -0.3659 -0.2367
18926SOL     OW58784   9.443   8.951   2.589  0.3479 -0.2502  0.2820
18926SOL    HW158785   9.519   8.965   2.533  0.9848  0.3051  1.2701
18926SOL    HW258786   9.479   8.920   2.672 -0.5125 -0.2077  0.6812
18927SOL     OW58787   0.848   8.170   4.990 -0.1681  0.4573  0.5350
18927SOL    HW158788   0.761   8.131   5.002  1.2430 -2.4702  2.4781
18927SOL    HW258789   0.848   8.204   4.901 -2.2851 -2.3567 -0.6865
18928SOL     OW58790   0.665  10.905   9.566  0.1000 -0.2120  0.2929
18928SOL    HW158791   0.749  10.916   9.610  0.7975 -2.4613 -0.3081
18928SOL    HW258792   0.674  10.952   9.483  0.5523  0.0235  0.4739
18929SOL     OW58793   3.687   9.039   3.964  0.1184  0.0541  0.1274
18929SOL    HW158794   3.667   9.019   3.873  1.5241  1.6212 -0.5611
18929SOL    HW258795   3.674   9.133   3.972 -0.6224 -0.1546  1.7324
18930SOL     OW58796   9.524   1.959   3.931  0.4336  0.2052 -0.0312
18930SOL    HW158797   9.551   2.026   3.869  1.4893 -0.5504 -0.4252
18930SOL    HW258798   9.441   1.926   3.896  1.2023 -0.4714 -1.2895
18931SOL     OW58799   4.270   5.689   0.131 -0.0623 -0.0482  0.2215
18931SOL    HW158800   4.235   5.722   0.214  0.0495  0.7806 -0.0600
18931SOL    HW258801   4.354   5.734   0.121 -0.7559  1.0295 -1.0941
18932SOL     OW58802   5.038   0.651   3.371  0.2178 -0.1305  0.1513
18932SOL    HW158803   5.052   0.745   3.357  0.7187 -0.3263 -0.7627
18932SOL    HW258804   5.045   0.640   3.466  0.6030  0.6895  0.2332
18933SOL     OW58805   2.906   2.169  10.580  0.4804  0.0216  0.0301
18933SOL    HW158806   2.929   2.106  10.648  0.3208 -1.1450 -0.9679
18933SOL    HW258807   2.811   2.177  10.584  0.4451 -0.2546 -0.2274
18934SOL     OW58808   8.992   1.634   4.207 -0.8166  0.1918  0.5693
18934SOL    HW158809   8.958   1.719   4.237 -1.1883  0.4828 -0.6207
18934SOL    HW258810   9.085   1.637   4.227 -0.5845  1.4066 -0.5587
18935SOL     OW58811   9.064   9.620   1.097  0.1947 -0.2663 -0.0057
18935SOL    HW158812   9.148   9.587   1.129 -0.2530 -0.7083  0.7347
18935SOL    HW258813   9.058   9.589   1.007  1.1167  0.3278 -0.2871
18936SOL     OW58814   0.262   8.842   5.586 -0.7063  0.3753  0.0169
18936SOL    HW158815   0.313   8.923   5.594 -3.4512  2.1734  0.7210
18936SOL    HW258816   0.243   8.834   5.493 -0.0507  0.2799 -0.1100
18937SOL     OW58817   3.838   4.646   9.787  0.2808  0.0980  0.1309
18937SOL    HW158818   3.845   4.670   9.880 -2.7826  0.8596  0.2736
18937SOL    HW258819   3.773   4.576   9.785 -2.9120  2.8150 -1.6494
18938SOL     OW58820   0.131  10.720   4.939  0.0474 -0.6784  0.0236
18938SOL    HW158821   0.178  10.695   5.019  0.6622  0.2592 -0.0299
18938SOL    HW258822   0.101  10.809   4.956  1.9056  0.3179 -1.5169
18939SOL     OW58823   7.701   7.138   3.333 -0.1667 -0.4198  0.0533
18939SOL    HW158824   7.765   7.185   3.280  0.4406 -2.7065 -1.4002
18939SOL    HW258825   7.747   7.119   3.415 -0.0483  0.5258  0.2136
18940SOL     OW58826   8.356   5.805   2.533 -0.3209  0.4529  0.6336
18940SOL    HW158827   8.319   5.716   2.541  0.3091  0.0235 -1.0057
18940SOL    HW258828   8.306   5.856   2.597 -1.1268 -0.9338  1.1789
18941SOL     OW58829   4.448   4.718   4.960 -0.5361 -0.3571  0.4387
18941SOL    HW158830   4.475   4.803   4.994 -0.5531 -0.1887  0.0302
18941SOL    HW258831   4.501   4.655   5.010 -0.6080 -0.1186  0.8229
18942SOL     OW58832   6.002   8.937   0.910  0.3176  0.0488 -0.4097
18942SOL    HW158833   5.951   8.897   0.981 -0.3296  0.2704 -0.7496
18942SOL    HW258834   5.993   9.031   0.923 -1.3944  0.1338 -1.8840
18943SOL     OW58835   6.410   2.805   3.777 -0.0648 -0.3726 -0.2881
18943SOL    HW158836   6.336   2.866   3.768  0.2556  0.3892  1.6265
18943SOL    HW258837   6.396   2.764   3.863  0.4441 -2.0461 -0.9656
18944SOL     OW58838   3.063   8.849  10.352 -0.0075  0.0283 -0.0369
18944SOL    HW158839   2.989   8.858  10.412 -0.3261  0.1408 -0.4438
18944SOL    HW258840   3.090   8.758  10.361 -1.3330 -0.5180 -1.1881
18945SOL     OW58841   2.863   3.807   6.442 -0.3087 -0.2085 -0.0722
18945SOL    HW158842   2.791   3.781   6.499 -0.6491  2.4701  0.8696
18945SOL    HW258843   2.825   3.874   6.385  1.1182  0.3097 -0.4572
18946SOL     OW58844   1.014   1.031   2.829 -0.6840 -0.2542 -0.0044
18946SOL    HW158845   0.971   0.947   2.817 -1.5653  0.0694  0.7102
18946SOL    HW258846   1.034   1.034   2.923  0.0781 -0.0078 -0.1696
18947SOL     OW58847   9.470   1.984   0.426 -1.0456  0.4557 -0.7711
18947SOL    HW158848   9.484   1.897   0.463 -0.8203  0.4109 -0.9597
18947SOL    HW258849   9.523   1.985   0.347 -0.6967  0.9184 -0.5379
18948SOL     OW58850   7.353   1.444   4.106 -0.1071  0.8850 -0.1661
18948SOL    HW158851   7.370   1.532   4.072 -1.8577  1.5489  0.5743
18948SOL    HW258852   7.364   1.453   4.201 -0.1457  0.2679 -0.1027
18949SOL     OW58853   1.121   0.108   8.531  0.4899  0.9563 -0.3636
18949SOL    HW158854   1.134   0.047   8.459  0.9437  0.0896  0.4410
18949SOL    HW258855   1.026   0.112   8.543  0.4700  0.1519 -0.2132
18950SOL     OW58856   0.137   6.500   6.406 -0.4061  0.0895 -0.0884
18950SOL    HW158857   0.212   6.442   6.394 -0.1605  0.3602  0.1343
18950SOL    HW258858   0.133   6.550   6.324 -0.1494  0.3010  0.0296
18951SOL     OW58859   2.447   8.107   9.612  0.1536 -0.1150 -0.0246
18951SOL    HW158860   2.518   8.137   9.555  1.3340 -0.7462  1.0541
18951SOL    HW258861   2.491   8.079   9.693 -1.3186 -0.6295  0.6424
18952SOL     OW58862  10.045   5.276   3.765  0.0359  0.0819  0.6188
18952SOL    HW158863  10.079   5.263   3.853  1.0182 -1.0930  0.0875
18952SOL    HW258864   9.992   5.198   3.747 -0.0543  0.2489  0.1249
18953SOL     OW58865   0.413   7.347   2.133  0.2835  0.1659 -0.3747
18953SOL    HW158866   0.420   7.288   2.208 -2.4377  0.9148  0.5791
18953SOL    HW258867   0.484   7.410   2.145  0.9947 -0.7781  0.5545
18954SOL     OW58868   0.072   3.766  10.693  0.1984  0.6754 -0.2026
18954SOL    HW158869   0.167   3.750  10.690  0.2141  0.8443 -0.7118
18954SOL    HW258870   0.040   3.736  10.608 -0.0142  1.8175 -0.5433
18955SOL     OW58871   3.061   6.123  10.980 -0.4307  0.3264 -0.2484
18955SOL    HW158872   3.033   6.144  11.069  0.0440  0.3881 -0.1087
18955SOL    HW258873   3.073   6.207  10.937 -0.6677  0.2965 -0.3741
18956SOL     OW58874   0.157   6.281   7.181  0.7981 -0.1844  0.2564
18956SOL    HW158875   0.144   6.357   7.237 -2.1686 -0.1193 -0.3512
18956SOL    HW258876   0.200   6.217   7.238 -0.0752  0.6511  1.9331
18957SOL     OW58877   5.687   5.532   7.805 -0.3985  0.1985 -0.0499
18957SOL    HW158878   5.756   5.560   7.746 -0.0659 -0.3433  0.0805
18957SOL    HW258879   5.668   5.610   7.858 -0.6552  0.6639 -0.8150
18958SOL     OW58880   0.714   3.251   5.611 -0.2131  0.1235  0.0271
18958SOL    HW158881   0.665   3.324   5.574 -0.6826 -0.4257 -0.4609
18958SOL    HW258882   0.671   3.173   5.576  1.1843 -0.3807 -0.6828
18959SOL     OW58883   8.529   3.270  10.974  0.2496  0.2539  0.2545
18959SOL    HW158884   8.609   3.305  11.014 -0.6725  0.8042  1.6982
18959SOL    HW258885   8.491   3.214  11.042  0.0984 -1.1317 -0.9201
18960SOL     OW58886   5.973   0.622   8.668 -0.6423 -0.4939  0.4912
18960SOL    HW158887   5.998   0.669   8.588  1.2956 -0.3366  1.1306
18960SOL    HW258888   5.976   0.689   8.737 -1.1098 -0.8749  0.8906
18961SOL     OW58889  10.793  10.145   2.295  0.0628  0.1806  0.6842
18961SOL    HW158890  10.790  10.240   2.305  0.0648  0.9096 -3.8213
18961SOL    HW258891  10.704  10.121   2.266  0.3455 -0.9856  0.7258
18962SOL     OW58892   4.915   3.283   7.678  0.1715 -0.1895  0.0988
18962SOL    HW158893   4.922   3.228   7.756  1.2950  1.4568  1.2185
18962SOL    HW258894   4.859   3.355   7.704 -0.4579 -0.2460 -1.0379
18963SOL     OW58895   0.035   3.861   8.366 -0.4100 -0.5963  0.1824
18963SOL    HW158896  -0.012   3.910   8.433 -1.7453 -0.1947 -0.9710
18963SOL    HW258897  -0.019   3.783   8.351 -0.5664 -0.3000 -0.9303
18964SOL     OW58898   0.899   1.573   3.523 -0.6519  0.1483 -0.1578
18964SOL    HW158899   0.983   1.618   3.516 -0.6327  0.1237 -0.0893
18964SOL    HW258900   0.839   1.639   3.556 -1.3140  0.9568 -2.8176
18965SOL     OW58901   2.242   5.999   6.705 -0.1229 -0.6081  0.1407
18965SOL    HW158902   2.263   5.939   6.634 -1.1082 -0.2027 -0.5113
18965SOL    HW258903   2.254   5.947   6.785 -0.2808 -1.4623 -0.3836
18966SOL     OW58904   8.101  10.575   7.213 -0.0946 -0.3192  0.3740
18966SOL    HW158905   8.124  10.520   7.288 -3.9331  0.4229  2.3838
18966SOL    HW258906   8.006  10.567   7.206 -0.0491  0.6972 -3.6999
18967SOL     OW58907   2.581   3.915   5.984  0.6974 -0.4204 -0.3106
18967SOL    HW158908   2.618   3.848   5.927 -0.8767 -0.8206 -0.9110
18967SOL    HW258909   2.504   3.947   5.937 -0.8871 -1.0460  1.7207
18968SOL     OW58910   2.726   8.232   0.598 -0.6670 -0.1953  0.3902
18968SOL    HW158911   2.756   8.318   0.629  0.5237  0.0237 -1.2315
18968SOL    HW258912   2.703   8.247   0.506 -2.8274 -1.0960  0.7428
18969SOL     OW58913   7.711   8.049   7.781  0.0970 -0.2732  0.5537
18969SOL    HW158914   7.673   8.026   7.866  0.7635 -0.2168  0.8676
18969SOL    HW258915   7.701   7.969   7.729 -2.2669  0.3306 -0.0462
18970SOL     OW58916   1.607   7.905   2.319  0.3097 -0.1857  0.3678
18970SOL    HW158917   1.565   7.984   2.284  0.4179 -0.3025 -0.0375
18970SOL    HW258918   1.538   7.861   2.369  0.8783  1.3673  2.6698
18971SOL     OW58919   7.181   4.305  10.946 -0.0996 -0.6931  0.2104
18971SOL    HW158920   7.086   4.316  10.935 -0.2836 -1.5686  0.8141
18971SOL    HW258921   7.204   4.232  10.889 -0.1619 -1.8219  1.5746
18972SOL     OW58922   0.738   7.757   4.616 -0.5829 -0.2876 -0.1173
18972SOL    HW158923   0.659   7.703   4.616 -0.1857 -0.8765  0.0080
18972SOL    HW258924   0.802   7.706   4.666  0.0868 -0.1301 -0.7923
18973SOL     OW58925   8.784   7.347   3.487 -0.0479 -0.0265 -0.3832
18973SOL    HW158926   8.737   7.379   3.410  0.4316  0.7263 -0.3764
18973SOL    HW258927   8.728   7.371   3.561 -0.5538 -0.8326 -0.4912
18974SOL     OW58928   1.014   8.478  10.560 -0.2569  0.0661 -0.0217
18974SOL    HW158929   0.960   8.401  10.541  1.2367 -0.6938 -1.4141
18974SOL    HW258930   1.098   8.443  10.588  0.1504  1.2109  0.2469
18975SOL     OW58931   0.563  10.743   6.465  0.1349 -0.0236  0.0849
18975SOL    HW158932   0.506  10.666   6.463 -0.4449  0.3885  0.4187
18975SOL    HW258933   0.562  10.771   6.557  1.7701 -0.6510  0.3308
18976SOL     OW58934   8.024   6.333   6.999  0.6587 -0.0481  0.2160
18976SOL    HW158935   8.091   6.400   7.006  0.2064  0.4831 -0.3128
18976SOL    HW258936   7.943   6.383   6.985  0.7589 -0.6716 -3.8157
18977SOL     OW58937   7.423   5.523  10.746  0.6932 -0.0706  0.1854
18977SOL    HW158938   7.502   5.509  10.693  0.1524 -1.0022 -0.3989
18977SOL    HW258939   7.351   5.500  10.688 -0.0383  1.0186  0.6391
18978SOL     OW58940   4.465   7.669   0.732 -0.1015 -0.1713 -0.6599
18978SOL    HW158941   4.391   7.718   0.767 -1.1206 -0.5370 -2.1950
18978SOL    HW258942   4.534   7.734   0.720 -0.1876  0.1920  0.6753
18979SOL     OW58943   2.620   9.129   8.070 -0.6546 -0.3881  0.7450
18979SOL    HW158944   2.608   9.217   8.104 -0.7351  0.9142 -2.3292
18979SOL    HW258945   2.698   9.096   8.116  1.5533  2.7029 -0.4428
18980SOL     OW58946   4.044   8.916   6.695 -0.2570  0.1582 -0.2416
18980SOL    HW158947   4.089   8.962   6.766  1.0089 -0.2044 -0.7741
18980SOL    HW258948   4.099   8.840   6.677 -0.6585  0.1383 -1.4777
18981SOL     OW58949   3.212   5.013   8.387 -0.4633 -0.0888  0.1597
18981SOL    HW158950   3.259   4.955   8.327  1.5514 -1.5161  2.8750
18981SOL    HW258951   3.132   4.964   8.409 -0.5551 -0.1616 -0.3258
18982SOL     OW58952   9.835   6.367   3.772 -0.1962 -0.2953  0.0442
18982SOL    HW158953   9.924   6.341   3.795 -0.0265 -1.3355 -1.6282
18982SOL    HW258954   9.844   6.457   3.741  1.1164 -1.6324 -4.1121
18983SOL     OW58955  10.876   8.955   6.497  0.6038 -0.0497  0.6418
18983SOL    HW158956  10.913   9.023   6.441 -1.4976  0.1985 -0.5812
18983SOL    HW258957  10.941   8.885   6.498  0.6957 -0.1196 -2.2728
18984SOL     OW58958   6.559   9.396   0.584  0.1373  0.0343  0.1177
18984SOL    HW158959   6.567   9.317   0.531  0.8816  0.4496 -0.3959
18984SOL    HW258960   6.483   9.379   0.640 -1.4349  0.0515 -1.9047
18985SOL     OW58961   9.781   6.502   9.988  0.9987  0.4071 -0.5544
18985SOL    HW158962   9.719   6.493  10.061  1.2782  0.5401 -0.2971
18985SOL    HW258963   9.786   6.596   9.972  0.8011  0.3666 -0.8695
18986SOL     OW58964   6.100   6.407   1.733  0.4639  0.1746  0.1128
18986SOL    HW158965   6.167   6.455   1.684 -0.2469  0.4667 -0.5946
18986SOL    HW258966   6.034   6.473   1.752 -0.7889 -0.6104 -1.3289
18987SOL     OW58967   9.712   7.634   1.335  0.5716 -0.1021 -0.7399
18987SOL    HW158968   9.658   7.681   1.272 -1.6415  0.5127  1.4433
18987SOL    HW258969   9.798   7.626   1.293 -0.5434  1.0112 -3.4037
18988SOL     OW58970   8.315   4.593  10.715  0.7111  0.1746 -0.0203
18988SOL    HW158971   8.312   4.516  10.771 -2.0946 -0.0707 -0.3677
18988SOL    HW258972   8.361   4.659  10.767  1.0797 -1.0216  1.2178
18989SOL     OW58973   9.463   7.860   5.288 -0.4574  0.1295  0.6709
18989SOL    HW158974   9.545   7.836   5.331  0.6215  0.2439 -1.2045
18989SOL    HW258975   9.488   7.930   5.227 -1.8813 -0.0556 -0.1571
18990SOL     OW58976   8.653  10.922   1.150 -0.5253 -0.1172  0.2619
18990SOL    HW158977   8.688  10.853   1.093 -2.0201  0.6297 -1.6680
18990SOL    HW258978   8.691  11.003   1.115  0.7228  0.1463  2.1179
18991SOL     OW58979   0.966   1.077   5.609 -0.1038  0.3956 -0.0122
18991SOL    HW158980   1.058   1.051   5.614 -0.0887  0.6155  1.4458
18991SOL    HW258981   0.966   1.153   5.551  0.2613 -0.9996 -1.9379
18992SOL     OW58982   1.966   8.108   2.013 -0.4116  0.5612 -0.8436
18992SOL    HW158983   1.872   8.091   2.019 -0.5471  1.4758 -0.1685
18992SOL    HW258984   1.987   8.155   2.094  1.5510 -3.6027  1.3696
18993SOL     OW58985   7.711   6.778   5.925  0.1678  0.0537 -0.3054
18993SOL    HW158986   7.783   6.840   5.917 -0.4019  0.7108 -0.4383
18993SOL    HW258987   7.660   6.810   6.000 -0.0775 -0.3116 -0.3117
18994SOL     OW58988  10.798  11.037   4.506  0.1417  0.0724 -0.1500
18994SOL    HW158989  10.881  11.079   4.482  1.0615 -1.0088  0.9742
18994SOL    HW258990  10.818  10.990   4.587 -1.1431 -1.5002 -0.6922
18995SOL     OW58991   4.497   1.686   6.696 -0.4257 -0.1166 -0.0962
18995SOL    HW158992   4.492   1.594   6.720 -0.9273 -0.1199 -0.2009
18995SOL    HW258993   4.407   1.710   6.672 -1.0019  1.2012  2.9083
18996SOL     OW58994   6.644   8.132   2.693  0.5681  0.0730 -0.7601
18996SOL    HW158995   6.617   8.041   2.707  2.7304 -0.7093 -1.3629
18996SOL    HW258996   6.696   8.155   2.771 -1.3290  1.4220  0.2004
18997SOL     OW58997   0.678   9.944   0.428 -0.2148  1.0270  0.2115
18997SOL    HW158998   0.589   9.969   0.404 -0.7182  0.0668  1.0033
18997SOL    HW258999   0.685   9.851   0.406 -0.1748  0.5178  2.1714
18998SOL     OW59000   9.032   2.926   4.077 -0.4991  0.4466  0.1412
18998SOL    HW159001   9.089   2.961   4.145  0.6607  0.2881 -0.7243
18998SOL    HW259002   9.061   2.836   4.064 -1.0976  0.2873 -0.1568
18999SOL     OW59003  10.858   1.090   7.847 -0.0494 -0.3101  0.5507
18999SOL    HW159004  10.776   1.051   7.876  0.2072 -0.9083  0.4838
18999SOL    HW259005  10.848   1.184   7.863 -2.0837  0.1499 -2.4814
19000SOL     OW59006   2.698  10.435   5.411 -0.2113 -0.3641  0.0744
19000SOL    HW159007   2.747  10.482   5.343  0.5420  1.8083  1.9960
19000SOL    HW259008   2.763  10.382   5.455 -0.0805  0.4569  0.9045
19001SOL     OW59009   4.295   1.074   7.339 -0.0950  0.5903  0.1536
19001SOL    HW159010   4.321   1.006   7.277  2.6591  1.4512  0.2352
19001SOL    HW259011   4.251   1.140   7.286 -0.2024  0.0713 -0.4092
19002SOL     OW59012   4.356   2.725   3.118  0.2362  0.4688  0.0463
19002SOL    HW159013   4.316   2.677   3.190 -0.0560 -0.7093 -0.8700
19002SOL    HW259014   4.310   2.809   3.116 -0.6460 -0.0015  0.4196
19003SOL     OW59015   9.104   8.912   5.299  0.2008  0.1997  0.5073
19003SOL    HW159016   9.052   8.897   5.220 -1.3966 -0.8029  1.6921
19003SOL    HW259017   9.193   8.887   5.274 -0.5804 -1.7776 -0.5070
19004SOL     OW59018   1.334   0.627   1.399 -0.5788  0.6287  0.1695
19004SOL    HW159019   1.243   0.655   1.404 -0.8544 -0.4585  1.7895
19004SOL    HW259020   1.384   0.709   1.393 -1.6079  1.2468 -0.3689
19005SOL     OW59021   9.275   9.304   2.921  0.1768 -0.2719  0.8227
19005SOL    HW159022   9.356   9.253   2.916 -0.1992 -0.7461 -1.1661
19005SOL    HW259023   9.302   9.394   2.903  0.2546 -0.4696 -0.1123
19006SOL     OW59024   6.638   9.291   7.797 -0.2790  0.5933 -0.3012
19006SOL    HW159025   6.710   9.273   7.857  0.8734 -0.1549 -1.8277
19006SOL    HW259026   6.605   9.377   7.823  0.8706  0.7440  0.7208
19007SOL     OW59027   2.344   1.280   9.961 -0.1534  0.0959  0.4611
19007SOL    HW159028   2.381   1.227   9.890  0.3330  1.7099 -0.5667
19007SOL    HW259029   2.417   1.292  10.022  0.0661  0.4685  0.1358
19008SOL     OW59030  10.279   1.156   4.859  0.3044  0.1022  0.2976
19008SOL    HW159031  10.327   1.237   4.843  0.2290  0.2234  0.6621
19008SOL    HW259032  10.243   1.167   4.948  1.8851 -1.1033  1.1382
19009SOL     OW59033  10.903   9.168  10.910  0.5058 -0.2923  0.0493
19009SOL    HW159034  10.979   9.220  10.885 -1.2247  2.1445 -0.4900
19009SOL    HW259035  10.867   9.214  10.986 -0.6023 -1.1936  0.0924
19010SOL     OW59036   4.015   8.809   4.383 -0.4310  0.1190  0.4004
19010SOL    HW159037   3.928   8.820   4.344  0.2218 -0.9756 -1.5041
19010SOL    HW259038   4.062   8.889   4.362 -0.2082 -0.3077 -0.7945
19011SOL     OW59039   4.048   3.360   4.354 -0.2268  0.0845  0.1698
19011SOL    HW159040   3.996   3.281   4.340 -0.9476  0.7255 -0.8707
19011SOL    HW259041   4.007   3.427   4.299  1.6757  0.6422 -0.6782
19012SOL     OW59042   9.976   4.768   7.074  0.6130 -0.7381  0.4781
19012SOL    HW159043  10.067   4.752   7.099  0.5147 -0.4568  1.0507
19012SOL    HW259044   9.943   4.683   7.047  0.5910 -1.1804  1.8141
19013SOL     OW59045   8.581   2.074   8.501 -0.1471  0.4495 -0.1259
19013SOL    HW159046   8.653   2.011   8.499 -0.4286  0.1184 -2.0086
19013SOL    HW259047   8.616   2.149   8.549  1.3902  0.2213 -0.8334
19014SOL     OW59048   2.372   8.328   4.617  0.3673  0.6279 -0.0505
19014SOL    HW159049   2.448   8.387   4.618  0.8159  0.1660 -1.9784
19014SOL    HW259050   2.411   8.240   4.619 -0.1214  0.3934 -0.6765
19015SOL     OW59051   0.374   6.766   8.400  0.2702  0.8072  0.2087
19015SOL    HW159052   0.344   6.839   8.453  0.4114  0.4973  0.7214
19015SOL    HW259053   0.389   6.695   8.463  0.0119  0.2977 -0.2932
19016SOL     OW59054   8.379   8.017   2.632 -0.1507 -0.1152 -0.1183
19016SOL    HW159055   8.341   8.036   2.718  0.8172  0.0196  0.2882
19016SOL    HW259056   8.305   7.985   2.580 -0.2846 -2.8028  1.5325
19017SOL     OW59057   0.167   6.057   4.753 -0.0150 -0.2241  0.1695
19017SOL    HW159058   0.174   6.151   4.769 -2.2389  0.3107 -1.4444
19017SOL    HW259059   0.216   6.043   4.671  0.1982 -0.4475  0.3353
19018SOL     OW59060   5.913   6.669   1.746  0.2925 -0.6246 -0.8720
19018SOL    HW159061   5.937   6.762   1.748  0.2876 -0.6313  0.0057
19018SOL    HW259062   5.860   6.659   1.667  0.2107  0.1432 -0.9188
19019SOL     OW59063   4.125   4.324   4.420 -0.4577 -0.9336  0.4039
19019SOL    HW159064   4.171   4.260   4.367  1.8906  0.2479  0.8896
19019SOL    HW259065   4.186   4.346   4.490 -1.5725  1.0726  0.8344
19020SOL     OW59066   2.719   6.798   3.699  0.1911 -0.2183 -0.4086
19020SOL    HW159067   2.740   6.758   3.783 -0.6471  2.2595  1.0885
19020SOL    HW259068   2.803   6.810   3.656  0.8487  0.2158  0.9376
19021SOL     OW59069  10.860   3.501   8.873 -0.4441  0.1361  0.4783
19021SOL    HW159070  10.832   3.502   8.781  1.5665  0.2142 -0.1766
19021SOL    HW259071  10.874   3.408   8.893  0.5621  0.2175  0.2108
19022SOL     OW59072   3.138   3.428   3.733 -0.8134 -0.1210 -0.2213
19022SOL    HW159073   3.222   3.384   3.722  0.1458  1.2178  1.1944
19022SOL    HW259074   3.135   3.493   3.662 -1.2025 -0.9254 -0.9573
19023SOL     OW59075   7.119   0.191  10.805 -0.2446  0.5919  0.2655
19023SOL    HW159076   7.057   0.134  10.851 -0.3337  1.3545  1.1197
19023SOL    HW259077   7.066   0.240  10.743 -0.0648 -0.7341 -0.9737
19024SOL     OW59078   0.103   2.012   2.690  0.3528 -0.4943  0.2514
19024SOL    HW159079   0.026   2.066   2.705 -0.5020 -1.4975 -0.3832
19024SOL    HW259080   0.150   2.055   2.619 -0.7678 -1.0244 -0.8260
19025SOL     OW59081   8.142   2.301   6.990 -0.1747  0.2577 -0.0410
19025SOL    HW159082   8.102   2.355   6.922 -0.3548  1.4154  0.9507
19025SOL    HW259083   8.185   2.364   7.048  0.0200 -0.7031  0.8824
19026SOL     OW59084   4.840   2.665   3.155 -0.0909  0.2579  0.4898
19026SOL    HW159085   4.823   2.581   3.113  3.7034 -0.8445  0.8606
19026SOL    HW259086   4.845   2.727   3.082 -3.9291  0.5606  0.2759
19027SOL     OW59087   5.801   8.370   9.272  0.0450  0.0578  0.6191
19027SOL    HW159088   5.734   8.428   9.235  0.2856  0.1307  0.2989
19027SOL    HW259089   5.751   8.310   9.328 -0.2823  0.1551  0.4379
19028SOL     OW59090  10.829  10.876   4.751  0.3194  0.5266 -0.3215
19028SOL    HW159091  10.782  10.821   4.813 -0.8732  1.0922 -0.7110
19028SOL    HW259092  10.905  10.907   4.800  0.0045  0.0518  0.4913
19029SOL     OW59093   6.637   3.095   2.023  0.5322  0.7917 -0.5805
19029SOL    HW159094   6.689   3.084   1.943  1.3603  1.7876 -0.2131
19029SOL    HW259095   6.652   3.187   2.048 -0.5695  0.7948  0.1280
19030SOL     OW59096   9.757   1.617   9.906 -0.0278  0.1919 -0.3908
19030SOL    HW159097   9.805   1.694   9.936  1.0738 -0.7395  0.3244
19030SOL    HW259098   9.766   1.554   9.978 -1.0373 -0.5494 -0.8963
19031SOL     OW59099   3.203   1.203   2.348  0.1382 -0.2924  0.3679
19031SOL    HW159100   3.124   1.173   2.393  0.2282 -0.8758  0.1516
19031SOL    HW259101   3.214   1.140   2.276  1.2827 -0.7317  0.9136
19032SOL     OW59102   7.499   7.357   4.757  0.8509  0.0654 -0.0167
19032SOL    HW159103   7.444   7.435   4.760  1.3027  0.3484  1.4486
19032SOL    HW259104   7.476   7.315   4.674 -1.1137  0.4968  0.2744
19033SOL     OW59105   3.158   2.077   2.790 -0.7351  0.3249  0.0029
19033SOL    HW159106   3.157   1.989   2.751 -1.8881  0.3802 -0.1386
19033SOL    HW259107   3.238   2.117   2.757 -0.7587 -0.2897 -0.8387
19034SOL     OW59108   4.202   3.979   9.370 -0.1665  0.3377  0.2922
19034SOL    HW159109   4.127   3.997   9.313  0.3531 -0.1860 -0.5773
19034SOL    HW259110   4.190   4.037   9.445  0.0743  2.3750 -1.1646
19035SOL     OW59111   9.080   0.681   0.648 -0.3651 -0.1530 -0.0228
19035SOL    HW159112   9.092   0.586   0.649  0.7433 -0.0206  0.3369
19035SOL    HW259113   9.010   0.697   0.711  0.0816 -0.6523  0.6082
19036SOL     OW59114   9.681   4.070   5.630  0.1580  0.0805  0.1173
19036SOL    HW159115   9.625   4.078   5.707  1.9975 -0.3934  1.5577
19036SOL    HW259116   9.767   4.101   5.658  1.3436 -1.7890 -1.1747
19037SOL     OW59117   3.054   8.020   6.269 -0.3378  0.2257 -0.0197
19037SOL    HW159118   3.056   7.957   6.342  0.1126  1.6847  1.2651
19037SOL    HW259119   3.079   7.968   6.193  0.9651 -0.9604  1.1551
19038SOL     OW59120   5.357   8.529   5.560 -0.4774  0.8435  0.2517
19038SOL    HW159121   5.432   8.564   5.511  1.8429  0.3921  3.1671
19038SOL    HW259122   5.308   8.607   5.587  0.5740  1.3910  0.6534
19039SOL     OW59123   3.515   1.232   1.578 -0.5104  0.0736  0.4930
19039SOL    HW159124   3.555   1.319   1.578 -1.3015  0.4411  0.3113
19039SOL    HW259125   3.560   1.185   1.649  0.7739  0.2206 -0.1912
19040SOL     OW59126   3.255  10.840   9.287 -0.4713  0.3414 -0.4961
19040SOL    HW159127   3.174  10.889   9.300 -0.9452  0.3267 -2.8879
19040SOL    HW259128   3.320  10.906   9.264  0.6497  0.5186  2.6532
19041SOL     OW59129   9.108   5.473   6.517 -0.0504 -0.0816  0.7869
19041SOL    HW159130   9.059   5.546   6.556  0.4225  0.0716  1.1026
19041SOL    HW259131   9.198   5.506   6.510 -0.5992  1.0553 -3.2856
19042SOL     OW59132   3.249   4.022   2.835  0.2740  0.5415  0.2477
19042SOL    HW159133   3.180   3.969   2.796  0.1669  0.0420  1.0853
19042SOL    HW259134   3.328   3.999   2.787 -0.3416  2.1354 -1.6629
19043SOL     OW59135   8.230  10.253   5.151  0.4246 -0.4067 -0.2382
19043SOL    HW159136   8.193  10.274   5.237  0.1814  0.2141 -0.4907
19043SOL    HW259137   8.155  10.255   5.092  0.5784 -0.9179 -0.4620
19044SOL     OW59138   5.403   0.397   1.709 -0.3747 -0.1721  0.0857
19044SOL    HW159139   5.406   0.492   1.706  1.1685 -0.1212  1.5520
19044SOL    HW259140   5.310   0.375   1.708 -0.7491  1.2428 -1.6717
19045SOL     OW59141   1.751   2.745   3.611 -1.1632  0.6006  1.1062
19045SOL    HW159142   1.814   2.777   3.546 -2.1133  2.9004  1.2390
19045SOL    HW259143   1.712   2.668   3.570  0.1275  0.4512  0.0784
19046SOL     OW59144   5.667   1.073   7.983  0.2760  0.4862  0.8599
19046SOL    HW159145   5.583   1.087   7.939  2.1997  1.1082 -3.0516
19046SOL    HW259146   5.678   1.150   8.039 -0.9892  1.3205  0.0194
19047SOL     OW59147   5.778   1.333   3.548  0.2467 -0.0650 -0.0851
19047SOL    HW159148   5.833   1.293   3.480 -0.9853 -1.4392 -0.3353
19047SOL    HW259149   5.717   1.389   3.500  0.7137  0.5973  0.0883
19048SOL     OW59150   8.561   4.068   8.754 -0.0124  0.0855 -0.2775
19048SOL    HW159151   8.557   4.138   8.819 -0.0424 -0.4908  0.3499
19048SOL    HW259152   8.647   4.077   8.714  1.2354 -1.3248  1.8753
19049SOL     OW59153   7.089   9.988   3.239  0.4959  0.6652 -0.2368
19049SOL    HW159154   7.051   9.901   3.255  2.4041 -0.0088  0.9716
19049SOL    HW259155   7.141   9.977   3.159 -0.4059  1.1128 -0.9000
19050SOL     OW59156   8.688   2.887   8.149 -0.3553  0.2401  0.2962
19050SOL    HW159157   8.604   2.931   8.140 -0.5717  0.1689  1.7568
19050SOL    HW259158   8.699   2.839   8.067 -0.6886  1.9997 -0.8331
19051SOL     OW59159   0.683   9.624   3.841 -0.5533  0.1918 -0.0128
19051SOL    HW159160   0.666   9.706   3.795  0.1885 -0.4832 -1.5273
19051SOL    HW259161   0.599   9.603   3.883 -0.7698  1.6756  0.3769
19052SOL     OW59162   1.694   1.885  10.159 -0.3696 -0.7098 -0.2619
19052SOL    HW159163   1.672   1.898  10.251  0.2168 -0.1792 -0.1853
19052SOL    HW259164   1.787   1.866  10.159  0.4683  2.7073 -0.9491
19053SOL     OW59165  10.623   9.097   7.112  0.5651 -0.0166  0.0515
19053SOL    HW159166  10.633   9.009   7.076  0.8116  0.5675 -1.3927
19053SOL    HW259167  10.531   9.118   7.098  0.4255 -0.1657  0.7134
19054SOL     OW59168   6.232   5.125   6.078 -0.3612  0.1699 -0.5805
19054SOL    HW159169   6.189   5.209   6.058 -0.7568  0.0515 -0.2467
19054SOL    HW259170   6.161   5.069   6.108  0.3990  0.9271  3.1260
19055SOL     OW59171   1.177   9.548   2.857  0.3340  0.3732  0.4843
19055SOL    HW159172   1.225   9.479   2.904  1.4576  1.0901  0.4400
19055SOL    HW259173   1.107   9.502   2.811  0.7333 -0.6667  0.8884
19056SOL     OW59174   5.582   0.065   6.933  0.3243 -0.7421 -0.4755
19056SOL    HW159175   5.636   0.019   6.868  1.4661 -1.1466  0.7167
19056SOL    HW259176   5.631   0.057   7.015 -0.6259  0.5665  0.2570
19057SOL     OW59177   2.114   5.435   6.639  0.2182 -0.1966  0.2349
19057SOL    HW159178   2.034   5.420   6.689 -0.3916  1.3737 -0.1772
19057SOL    HW259179   2.104   5.380   6.561 -0.2638 -0.3540  0.4025
19058SOL     OW59180   9.338   1.518   6.296 -0.7228 -0.1332  0.4637
19058SOL    HW159181   9.292   1.456   6.352  0.6222 -0.3587  1.3836
19058SOL    HW259182   9.425   1.526   6.337 -0.0768  0.5331 -0.9842
19059SOL     OW59183  11.030   6.279   4.223  0.3864 -0.5728  0.5155
19059SOL    HW159184  10.944   6.265   4.182 -0.4526  0.3726  1.8578
19059SOL    HW259185  11.053   6.194   4.261 -0.8401 -0.4213  1.6837
19060SOL     OW59186  11.000   9.537   1.241  0.1604 -0.3517  1.0293
19060SOL    HW159187  11.078   9.569   1.286  0.0604  1.0808  0.2489
19060SOL    HW259188  11.033   9.478   1.173  0.9334  2.6335 -1.3957
19061SOL     OW59189   7.354   3.556   3.444  0.1695  0.0703 -0.2261
19061SOL    HW159190   7.304   3.486   3.404 -0.1446  0.3942 -0.4096
19061SOL    HW259191   7.299   3.587   3.516  0.4457 -0.0779  0.0527
19062SOL     OW59192   4.390   1.908  10.691  0.4477 -0.6100  0.1214
19062SOL    HW159193   4.368   1.923  10.783 -0.5913  0.5311 -0.2837
19062SOL    HW259194   4.311   1.866  10.655 -0.7028  2.3364 -1.0670
19063SOL     OW59195   0.855   7.567   2.630 -0.7381 -0.4955  0.1831
19063SOL    HW159196   0.811   7.609   2.556  0.5345  1.4263  0.4330
19063SOL    HW259197   0.872   7.478   2.601  2.2366  0.8935 -3.0563
19064SOL     OW59198   8.017   6.307   3.141 -0.6888 -0.1850  0.2235
19064SOL    HW159199   7.973   6.266   3.067 -1.6713  0.3139  0.5112
19064SOL    HW259200   8.036   6.396   3.111 -2.5016  0.5339  1.0697
19065SOL     OW59201   3.335   7.298   8.008  0.4014 -0.0557  0.0026
19065SOL    HW159202   3.400   7.347   8.058  1.5025 -0.4328 -1.0185
19065SOL    HW259203   3.252   7.341   8.027  0.6457 -0.6313  2.7280
19066SOL     OW59204   1.861   5.372   5.506  0.1291  0.2911 -0.7694
19066SOL    HW159205   1.775   5.353   5.543  1.2720 -1.1871  1.3339
19066SOL    HW259206   1.856   5.341   5.416 -0.6247 -2.8414  0.2226
19067SOL     OW59207   1.485  10.648   2.904  0.0785 -0.1282  0.0959
19067SOL    HW159208   1.576  10.616   2.896 -0.9387 -3.2938 -0.3651
19067SOL    HW259209   1.458  10.618   2.991 -0.3717  1.3428  0.4768
19068SOL     OW59210   5.456   2.206   8.870  0.3236 -0.1837 -0.0669
19068SOL    HW159211   5.418   2.294   8.871 -0.6410 -0.5797 -0.0437
19068SOL    HW259212   5.417   2.162   8.946 -0.6396 -1.1927 -1.1023
19069SOL     OW59213   2.990   0.585   7.363 -0.0311  0.5134  0.1599
19069SOL    HW159214   3.065   0.637   7.333 -0.1146  1.3366  1.3506
19069SOL    HW259215   2.933   0.647   7.406 -0.1395 -0.5512  1.6109
19070SOL     OW59216   4.367  10.935   2.433  0.1052  0.0904  0.1457
19070SOL    HW159217   4.323  11.018   2.414 -2.9440 -1.1114  1.3016
19070SOL    HW259218   4.381  10.936   2.528  1.0016 -0.3075  0.0259
19071SOL     OW59219   7.550   8.719   3.894  0.3201  0.1647  0.5988
19071SOL    HW159220   7.549   8.792   3.956  1.9940  0.2461  0.5899
19071SOL    HW259221   7.516   8.756   3.813 -3.0980 -0.2581  1.7045
19072SOL     OW59222   6.239  10.440   7.905  0.0907  1.1068  0.5301
19072SOL    HW159223   6.309  10.382   7.935 -0.0298  0.9992  0.6032
19072SOL    HW259224   6.239  10.431   7.810  1.4624  2.5646  0.3412
19073SOL     OW59225   0.922   3.808   6.627 -0.4094  0.3155 -0.1152
19073SOL    HW159226   0.996   3.817   6.686  0.1140  1.3943 -0.8932
19073SOL    HW259227   0.849   3.849   6.673 -1.3657 -3.1996  1.8945
19074SOL     OW59228  10.823   1.305   2.437  0.1657  0.5419 -0.2096
19074SOL    HW159229  10.764   1.242   2.479 -0.0187 -0.4788 -1.8900
19074SOL    HW259230  10.878   1.338   2.508 -1.1153  0.0521  1.0707
19075SOL     OW59231   3.142   2.792   5.474 -0.3978  0.5300 -0.4488
19075SOL    HW159232   3.113   2.871   5.430 -1.6342 -0.6174 -1.7835
19075SOL    HW259233   3.082   2.781   5.548 -0.1162  0.9035 -0.1581
19076SOL     OW59234   1.574   0.963   2.525  0.7118  0.1004  0.0507
19076SOL    HW159235   1.572   0.962   2.620  1.8663 -1.0967  0.0973
19076SOL    HW259236   1.531   0.881   2.499  0.2863  0.4765 -0.4704
19077SOL     OW59237   4.456   4.802   8.475  0.2285  0.7203 -0.0007
19077SOL    HW159238   4.374   4.810   8.523  0.0177  0.2975 -0.2870
19077SOL    HW259239   4.521   4.842   8.533  0.1592 -0.6394  1.0912
19078SOL     OW59240   2.983   2.708   9.189  0.3270 -0.4335  0.2535
19078SOL    HW159241   2.926   2.720   9.113 -1.1631  0.5372  1.4777
19078SOL    HW259242   2.982   2.614   9.205  0.1111 -0.5664 -0.5081
19079SOL     OW59243   6.569   6.670   2.874 -0.5064 -0.0140  0.7109
19079SOL    HW159244   6.563   6.589   2.925  1.2833 -0.2730  0.5797
19079SOL    HW259245   6.538   6.645   2.787  0.3380 -0.6509  0.5817
19080SOL     OW59246   1.147   1.225  10.605  0.1375  0.1321  0.0422
19080SOL    HW159247   1.229   1.262  10.639  0.6006 -1.4380  0.7572
19080SOL    HW259248   1.142   1.257  10.515  0.1122  2.4728  0.8105
19081SOL     OW59249   6.371   5.130  10.643 -0.3814 -0.1422 -0.0788
19081SOL    HW159250   6.394   5.043  10.611  0.9807 -0.0384  0.5615
19081SOL    HW259251   6.357   5.119  10.738 -2.1570 -0.0144 -0.2757
19082SOL     OW59252   7.202   3.372   1.399  0.3840  0.4787  0.3758
19082SOL    HW159253   7.132   3.430   1.429 -0.0101  1.3463 -1.9807
19082SOL    HW259254   7.165   3.284   1.404 -0.4259  0.8104  0.3159
19083SOL     OW59255   7.620   7.788  10.752 -0.0710  0.8090  0.3068
19083SOL    HW159256   7.551   7.832  10.701 -0.6777  0.3137  0.6886
19083SOL    HW259257   7.577   7.710  10.788 -0.0935  1.8741  2.7748
19084SOL     OW59258   4.955   6.541   1.611 -0.1369 -0.3626  0.0588
19084SOL    HW159259   5.037   6.581   1.583  0.5496 -1.5867  0.2433
19084SOL    HW259260   4.925   6.491   1.535 -1.5385  1.2980 -0.5283
19085SOL     OW59261  10.472  10.633   7.918  0.0155  0.7295  0.1756
19085SOL    HW159262  10.456  10.543   7.946 -1.7772  1.3443  1.2843
19085SOL    HW259263  10.547  10.626   7.859  1.7080 -1.1379  2.3233
19086SOL     OW59264   4.604   3.629   2.463 -0.4019 -0.1544 -0.5280
19086SOL    HW159265   4.696   3.655   2.473 -0.5209  0.2107 -0.3667
19086SOL    HW259266   4.561   3.661   2.542 -0.4155 -1.5281  0.0578
19087SOL     OW59267   6.930   5.941   9.212  0.0729 -0.0622 -0.2998
19087SOL    HW159268   6.938   5.848   9.190  0.6251 -0.2623  0.6871
19087SOL    HW259269   6.860   5.945   9.277  0.9036  0.0254  0.6203
19088SOL     OW59270  10.820   3.412  10.508 -0.0396 -0.4932 -1.0525
19088SOL    HW159271  10.899   3.446  10.467 -0.6742 -0.2620 -2.1446
19088SOL    HW259272  10.813   3.460  10.591  1.3687 -1.0883 -0.5646
19089SOL     OW59273   7.502   6.809   9.357  0.6492  0.0709 -0.0775
19089SOL    HW159274   7.428   6.852   9.399  1.7635  0.5149  1.5061
19089SOL    HW259275   7.467   6.725   9.327 -0.9339  1.0143 -1.0391
19090SOL     OW59276   6.822   4.898   5.021  0.1746  0.6189  0.0994
19090SOL    HW159277   6.793   4.933   5.106 -1.9351 -0.4664 -0.1038
19090SOL    HW259278   6.879   4.966   4.985  0.3357  1.5269  1.9502
19091SOL     OW59279   7.386   1.835  10.714 -0.3380  0.4683  0.0027
19091SOL    HW159280   7.322   1.852  10.782  1.0613  0.3993  1.3946
19091SOL    HW259281   7.447   1.772  10.753  0.5836  0.5317 -1.2585
19092SOL     OW59282   1.801   4.245   2.749  0.3745 -0.0360  0.4590
19092SOL    HW159283   1.812   4.244   2.654  1.5089  0.3297  0.5704
19092SOL    HW259284   1.817   4.336   2.774 -0.1594 -0.0807  0.9730
19093SOL     OW59285   9.260   2.180   4.616  0.2510  0.4954  0.2849
19093SOL    HW159286   9.345   2.193   4.659  0.5445  2.3704 -0.7677
19093SOL    HW259287   9.251   2.085   4.610  1.8949  0.2411  1.1343
19094SOL     OW59288   8.007   6.375   0.370  0.9886  0.3640  0.5314
19094SOL    HW159289   8.080   6.432   0.345  0.4120  1.5872  1.5325
19094SOL    HW259290   7.929   6.427   0.354  0.2417 -1.1201 -1.0306
19095SOL     OW59291   2.382   5.719   8.583 -0.6408 -0.4504  0.4315
19095SOL    HW159292   2.342   5.740   8.499 -0.1407  1.0198  0.5344
19095SOL    HW259293   2.326   5.651   8.620 -1.7988  0.0389 -0.3760
19096SOL     OW59294   5.920   6.279   9.053  0.5827  0.3213  0.2565
19096SOL    HW159295   5.828   6.273   9.028  0.6978  1.0645 -0.3871
19096SOL    HW259296   5.929   6.216   9.124  0.2777 -2.0469 -1.6537
19097SOL     OW59297   5.378   2.421   7.569  0.4202 -0.4453  0.1777
19097SOL    HW159298   5.439   2.406   7.496  1.5557 -1.6136  1.2964
19097SOL    HW259299   5.331   2.338   7.578 -0.0630 -0.1445  0.4641
19098SOL     OW59300   3.594   1.179   5.179  0.5915 -0.3964 -0.1893
19098SOL    HW159301   3.546   1.110   5.224  0.3580  0.7007  1.3324
19098SOL    HW259302   3.670   1.196   5.234  1.4832 -0.4843 -1.3498
19099SOL     OW59303   5.755   3.776  10.368 -0.2838 -0.1382 -0.5556
19099SOL    HW159304   5.755   3.759  10.274 -0.5686 -1.4857 -0.3417
19099SOL    HW259305   5.670   3.743  10.398  0.5755 -1.5378  0.4598
19100SOL     OW59306  10.831   2.978  10.388  0.0531 -0.3412 -0.2702
19100SOL    HW159307  10.745   2.937  10.382  0.0530 -0.2430 -0.9575
19100SOL    HW259308  10.878   2.924  10.451 -0.9932  0.4800  1.2816
19101SOL     OW59309   1.615   8.912   4.152 -0.4962 -0.2851  0.4298
19101SOL    HW159310   1.561   8.958   4.216 -1.3818 -0.9496  0.1706
19101SOL    HW259311   1.641   8.980   4.090 -1.9878 -0.1479 -0.0791
19102SOL     OW59312   2.733   3.944  10.342 -0.5584  0.5824 -0.0260
19102SOL    HW159313   2.724   3.855  10.308  0.1153  0.1492  0.8920
19102SOL    HW259314   2.788   3.989  10.278  0.3747 -0.1099  0.2649
19103SOL     OW59315   0.831   1.293   3.538 -0.3486  0.3407  0.1395
19103SOL    HW159316   0.859   1.380   3.510  0.6741 -0.1239 -0.3491
19103SOL    HW259317   0.752   1.276   3.486  0.2773  0.4015 -0.8777
19104SOL     OW59318   0.312   5.928   2.043  0.4311  0.3698  0.4297
19104SOL    HW159319   0.309   5.901   2.134 -2.5964 -1.0659  0.0484
19104SOL    HW259320   0.361   5.858   1.999 -0.8218 -0.6345  0.5633
19105SOL     OW59321   2.222   7.026   9.510  0.7520 -0.4209 -0.4608
19105SOL    HW159322   2.218   7.097   9.446  1.6368  0.3934  0.3492
19105SOL    HW259323   2.262   6.953   9.464  2.3971  0.4990 -0.5698
19106SOL     OW59324   3.480   9.726  10.038 -0.5097  0.4916  0.0954
19106SOL    HW159325   3.389   9.700  10.045 -0.5861  0.5529 -0.6014
19106SOL    HW259326   3.478   9.808   9.988  0.0124 -0.1647 -1.0464
19107SOL     OW59327   5.648   3.497   4.234 -0.1222  0.1209  0.1623
19107SOL    HW159328   5.727   3.541   4.203  0.1411 -1.3258 -1.3217
19107SOL    HW259329   5.587   3.502   4.161 -0.3265 -1.3500  0.2053
19108SOL     OW59330   1.678   4.861  10.692 -0.5191  0.0900  0.0433
19108SOL    HW159331   1.715   4.855  10.780 -1.9006  1.0825  0.7229
19108SOL    HW259332   1.709   4.945  10.659  0.7051 -0.6587 -0.7856
19109SOL     OW59333   0.257   2.257   6.911 -0.2722 -0.2360  0.1014
19109SOL    HW159334   0.244   2.182   6.970  0.8494  0.4327  1.2571
19109SOL    HW259335   0.332   2.303   6.948 -0.5466  1.1080 -0.9612
19110SOL     OW59336   5.435   9.023   2.585 -0.3574  0.4330  0.0997
19110SOL    HW159337   5.487   9.021   2.504 -2.0847  0.0045 -1.0577
19110SOL    HW259338   5.348   8.993   2.558 -1.0601  0.5628  2.0809
19111SOL     OW59339   0.742   4.209   2.404 -0.5391  0.0728  0.2511
19111SOL    HW159340   0.655   4.191   2.440 -0.3985 -1.5082 -0.0996
19111SOL    HW259341   0.744   4.159   2.322  0.9198 -0.4774  0.5956
19112SOL     OW59342   6.685   7.746   5.154  0.3567 -0.7543  0.2133
19112SOL    HW159343   6.719   7.766   5.067  0.1040 -0.6487  0.1384
19112SOL    HW259344   6.761   7.750   5.211  0.5330 -0.8802 -0.0118
19113SOL     OW59345   3.561   0.244   9.203 -0.0173 -0.3381 -0.0789
19113SOL    HW159346   3.595   0.324   9.162 -0.6701 -0.1567 -0.2848
19113SOL    HW259347   3.629   0.219   9.265  0.3266  0.2164 -0.2143
19114SOL     OW59348   9.024   1.394   2.196 -0.2189 -0.0986  0.3008
19114SOL    HW159349   9.060   1.315   2.238 -1.0541 -1.2143 -0.9897
19114SOL    HW259350   9.101   1.439   2.161  0.3942  0.3589  2.1159
19115SOL     OW59351   0.856   6.046   3.962 -0.0400  0.1094 -0.2035
19115SOL    HW159352   0.789   5.986   3.929  1.2416 -0.5308 -1.8044
19115SOL    HW259353   0.821   6.079   4.044 -0.6551 -3.1513  1.0039
19116SOL     OW59354   6.508   1.746   1.477  0.3033 -0.6557 -0.2673
19116SOL    HW159355   6.582   1.695   1.509  2.4672  2.8082  0.8007
19116SOL    HW259356   6.450   1.754   1.554  0.4340 -0.7411 -0.1600
19117SOL     OW59357   1.653   8.853   0.230  0.5552 -0.2032 -0.0610
19117SOL    HW159358   1.695   8.885   0.150 -0.7927 -1.1856 -1.2099
19117SOL    HW259359   1.574   8.907   0.238 -0.1438 -1.1696 -0.3074
19118SOL     OW59360   4.917   1.499   8.151 -0.4033 -0.0785 -0.0990
19118SOL    HW159361   4.856   1.477   8.081  0.9693  1.7346 -1.9806
19118SOL    HW259362   4.988   1.435   8.144 -0.8444 -0.6410  0.4572
19119SOL     OW59363   5.811  11.031   2.516 -0.0508  0.0618  0.5957
19119SOL    HW159364   5.887  10.991   2.475  0.4039 -0.3803  1.8305
19119SOL    HW259365   5.803  10.988   2.601 -1.2916  0.5599  0.7632
19120SOL     OW59366   2.654   2.838   3.683 -0.1708  0.8127  0.0249
19120SOL    HW159367   2.576   2.868   3.636 -0.6230  2.4104  1.6653
19120SOL    HW259368   2.632   2.749   3.712 -1.0298  0.9035 -0.3154
19121SOL     OW59369   7.240   2.310   8.519 -0.7328 -0.1792 -0.3777
19121SOL    HW159370   7.260   2.317   8.612  2.0095 -0.8991 -0.8094
19121SOL    HW259371   7.198   2.224   8.510 -0.0885 -0.5543  0.0896
19122SOL     OW59372   8.632   4.676   9.376 -0.1225  0.4469  0.0552
19122SOL    HW159373   8.580   4.756   9.384  0.7060  1.1798 -1.5750
19122SOL    HW259374   8.605   4.623   9.451 -0.5472  2.3139  1.2814
19123SOL     OW59375   4.429   0.817   8.772  0.1751 -0.1908  0.3097
19123SOL    HW159376   4.355   0.781   8.724  0.6607 -0.7029 -0.0536
19123SOL    HW259377   4.469   0.880   8.712 -0.6648  0.9704  0.9379
19124SOL     OW59378   2.485   2.299   2.675 -0.1782 -0.3407 -0.5351
19124SOL    HW159379   2.490   2.233   2.605 -0.3043  1.2150 -2.0738
19124SOL    HW259380   2.557   2.276   2.734 -0.4483 -2.0683 -0.8060
19125SOL     OW59381   4.072   6.858   6.769  0.3267 -0.1433  0.0052
19125SOL    HW159382   4.116   6.921   6.711 -2.1721  1.5767 -0.1561
19125SOL    HW259383   3.980   6.882   6.766 -0.4767 -2.6482  1.4990
19126SOL     OW59384   9.717   8.921  10.972  0.2275  0.2834  0.0484
19126SOL    HW159385   9.681   8.964  11.050  1.4756  0.9087  0.3101
19126SOL    HW259386   9.678   8.834  10.971  2.2813 -0.7981  2.9739
19127SOL     OW59387   3.595   0.399   4.142 -0.0186 -0.1848  0.9030
19127SOL    HW159388   3.630   0.484   4.167 -1.4817  0.6034  0.4227
19127SOL    HW259389   3.672   0.346   4.120  0.8749  2.0704 -2.1157
19128SOL     OW59390   5.743   8.231   8.185  0.7500 -0.8681 -0.1325
19128SOL    HW159391   5.773   8.207   8.098  1.8058 -0.9568  0.2401
19128SOL    HW259392   5.757   8.325   8.191  0.7944 -0.8810 -0.0209
19129SOL     OW59393   1.055   4.334   1.756 -0.0510  0.1609 -0.6994
19129SOL    HW159394   1.033   4.265   1.818 -0.2609  0.9615  0.1410
19129SOL    HW259395   0.973   4.381   1.742 -0.4350 -1.0382 -2.9659
19130SOL     OW59396  10.696   8.558   5.850 -0.7851  0.1184 -0.1578
19130SOL    HW159397  10.632   8.523   5.912 -1.3648  1.0940 -0.1863
19130SOL    HW259398  10.760   8.604   5.905 -0.6006 -0.0747 -0.2047
19131SOL     OW59399   6.067   6.014   7.285  0.5385 -0.0048 -0.1123
19131SOL    HW159400   6.084   5.923   7.307 -0.6835 -0.3707 -0.5657
19131SOL    HW259401   6.024   6.050   7.362  1.9521  0.4991  0.4662
19132SOL     OW59402   8.368   4.904   4.909  0.1033 -0.6323 -0.0827
19132SOL    HW159403   8.354   4.873   4.819 -0.6991  0.2170 -0.2694
19132SOL    HW259404   8.459   4.934   4.909 -0.0062 -0.2748 -0.7360
19133SOL     OW59405  10.936   9.871   4.356  0.4642 -0.2141  0.5413
19133SOL    HW159406  10.945   9.828   4.441 -1.9056  0.3896  1.1785
19133SOL    HW259407  10.843   9.893   4.351  0.9982  1.9072 -1.1687
19134SOL     OW59408   4.678   9.208   2.627 -0.2393 -0.2328 -0.9737
19134SOL    HW159409   4.748   9.183   2.566  2.4025  1.2447  1.2400
19134SOL    HW259410   4.665   9.130   2.682  0.7738 -0.0671 -0.4746
19135SOL     OW59411   2.657   7.090   3.517  0.5659  0.7446 -0.4924
19135SOL    HW159412   2.652   7.009   3.466 -1.4679  0.3699  0.2291
19135SOL    HW259413   2.750   7.098   3.538  0.5938 -2.8531  1.6457
19136SOL     OW59414   5.552   1.559  10.387  0.3500 -0.1577 -0.1340
19136SOL    HW159415   5.528   1.630  10.447 -0.3409  1.8944 -2.6648
19136SOL    HW259416   5.475   1.548  10.331  1.2135 -1.5072 -1.1245
19137SOL     OW59417   5.259   7.480   6.226 -0.4615  0.1789 -0.1195
19137SOL    HW159418   5.165   7.500   6.224 -0.3694  0.6660  0.2718
19137SOL    HW259419   5.293   7.534   6.297 -0.0211 -0.6249  0.2827
19138SOL     OW59420   0.414   7.530  11.017  0.2059  0.5154 -0.0381
19138SOL    HW159421   0.485   7.547  11.079 -0.1520  0.1336  0.4821
19138SOL    HW259422   0.367   7.613  11.010  1.9721  1.4254 -2.0575
19139SOL     OW59423  10.424  11.011   7.628  0.9400 -0.1967 -0.4032
19139SOL    HW159424  10.441  11.094   7.583  0.3957 -0.5389 -1.2675
19139SOL    HW259425  10.471  11.019   7.711 -0.0261  1.4397  0.0435
19140SOL     OW59426  10.620   1.701   7.803 -0.1894 -0.2520  0.1492
19140SOL    HW159427  10.537   1.747   7.818  0.2178  0.4328  0.3741
19140SOL    HW259428  10.687   1.760   7.839  0.2568 -1.6558  1.7864
19141SOL     OW59429   9.392   0.031   4.658 -0.5097  0.0821 -0.1098
19141SOL    HW159430   9.320   0.076   4.703 -0.4622 -1.0564  1.1482
19141SOL    HW259431   9.443  -0.010   4.728  0.5621 -0.3141 -1.0861
19142SOL     OW59432   5.889   7.528   8.153 -0.2170 -0.6047  0.5075
19142SOL    HW159433   5.816   7.517   8.092 -0.2118 -1.1983  0.5939
19142SOL    HW259434   5.895   7.622   8.168  1.7254 -0.0546 -2.7641
19143SOL     OW59435   7.222   8.866   2.249  0.1736 -0.1885  0.2887
19143SOL    HW159436   7.185   8.789   2.207  1.3042 -0.4021 -0.3331
19143SOL    HW259437   7.312   8.842   2.269  0.8488  1.2779 -0.7994
19144SOL     OW59438   0.586   4.083   5.865 -0.0613 -0.6826 -0.1702
19144SOL    HW159439   0.492   4.086   5.884  0.2323  0.1671  1.3515
19144SOL    HW259440   0.600   4.152   5.800 -0.7513 -2.1032 -1.8963
19145SOL     OW59441   4.806   3.623   3.219  0.1906 -0.0552  0.1669
19145SOL    HW159442   4.878   3.567   3.248  0.0622  0.0463  0.7081
19145SOL    HW259443   4.737   3.608   3.284  0.2339  0.8906  0.4448
19146SOL     OW59444   9.794   2.978   7.755  0.4495  0.2335 -0.2349
19146SOL    HW159445   9.731   2.959   7.825 -1.1605 -0.7903 -1.8644
19146SOL    HW259446   9.759   3.056   7.713 -0.0346 -0.6198 -1.4578
19147SOL     OW59447  10.995   5.661   1.710 -0.4655  0.1402 -0.1209
19147SOL    HW159448  11.027   5.713   1.636  0.6831 -1.8327 -1.1046
19147SOL    HW259449  11.064   5.668   1.776  0.6262 -1.5935 -1.0110
19148SOL     OW59450   6.546   7.573   6.905  0.7281 -0.1986  0.1791
19148SOL    HW159451   6.578   7.653   6.946 -0.0279 -0.1345  0.6664
19148SOL    HW259452   6.528   7.514   6.978  0.7660 -0.6166 -0.1441
19149SOL     OW59453   7.705   5.981   8.124 -0.1057  0.7301  0.2643
19149SOL    HW159454   7.725   6.044   8.055 -1.4695 -1.2496 -2.0865
19149SOL    HW259455   7.620   6.010   8.158  0.3408  1.4291  0.8204
19150SOL     OW59456   0.847   1.475  10.157 -0.7919  0.5809  0.5255
19150SOL    HW159457   0.858   1.491  10.251  0.0328  0.4382  0.4630
19150SOL    HW259458   0.757   1.503  10.138 -1.3671 -0.4630  1.5763
19151SOL     OW59459   4.521   9.720   1.922  1.0169  0.5627 -0.2958
19151SOL    HW159460   4.592   9.755   1.867  3.0654 -0.9922  1.2092
19151SOL    HW259461   4.540   9.755   2.009  0.7668 -1.0090  0.4052
19152SOL     OW59462   4.546  10.174   1.806  0.3479 -0.1385 -0.1822
19152SOL    HW159463   4.468  10.194   1.858 -0.4190 -1.9057 -0.5668
19152SOL    HW259464   4.608  10.244   1.827 -2.0379  2.4997 -1.4002
19153SOL     OW59465   5.944   2.262   2.075  0.1137  0.7249  0.2340
19153SOL    HW159466   6.008   2.309   2.127 -0.0591 -0.3996  1.5019
19153SOL    HW259467   5.963   2.288   1.985  1.3445  1.5918  0.7170
19154SOL     OW59468   8.695   8.656   6.875 -0.3232 -0.5485 -0.1271
19154SOL    HW159469   8.650   8.740   6.876 -1.8157 -1.3137  0.5520
19154SOL    HW259470   8.779   8.673   6.831 -0.0839  1.5256  1.0467
19155SOL     OW59471   6.222   1.972   9.219 -0.0468  0.1688 -0.1725
19155SOL    HW159472   6.192   1.910   9.286 -0.0361  0.3986  0.0450
19155SOL    HW259473   6.173   2.052   9.237  0.6331  0.5184  0.1287
19156SOL     OW59474   7.573   0.139   5.067  0.1368  0.1886 -0.1752
19156SOL    HW159475   7.521   0.062   5.091  1.5191 -1.1053 -1.1351
19156SOL    HW259476   7.630   0.154   5.142  0.2481 -0.0807 -0.2034
19157SOL     OW59477   5.058   9.320   3.201 -0.0329  0.1002  0.1233
19157SOL    HW159478   4.999   9.329   3.127  1.2192  0.1512 -0.9031
19157SOL    HW259479   5.024   9.246   3.251  1.1105 -2.3673 -2.5057
19158SOL     OW59480   6.071   9.048   2.886  0.4825 -0.1271 -0.1935
19158SOL    HW159481   6.056   9.083   2.798  1.2146 -1.0279 -0.6999
19158SOL    HW259482   5.985   9.051   2.928  0.2658  0.9759 -0.6851
19159SOL     OW59483   6.081  10.191   6.006  0.4771 -0.1696  0.1711
19159SOL    HW159484   6.055  10.184   6.098  1.8680  1.8892  0.7824
19159SOL    HW259485   6.025  10.260   5.970 -0.0527 -0.9540 -0.5504
19160SOL     OW59486   7.794   9.328  10.385 -0.1543  0.0689 -0.3110
19160SOL    HW159487   7.714   9.325  10.333  0.4549  0.2592 -1.2778
19160SOL    HW259488   7.863   9.350  10.322  0.7313 -0.5537  0.4202
19161SOL     OW59489   0.054   1.768  10.538  0.1843  0.8609 -0.1793
19161SOL    HW159490   0.074   1.856  10.569 -1.7568  0.5732  2.1950
19161SOL    HW259491   0.093   1.710  10.603 -0.1927  0.0311 -0.6793
19162SOL     OW59492  10.948   2.109   4.014  0.2683  0.1837  0.0387
19162SOL    HW159493  11.001   2.047   3.962  1.7794  1.3171  0.1669
19162SOL    HW259494  10.993   2.193   4.004 -0.3740  0.7730  1.8296
19163SOL     OW59495   3.109  10.842   6.759 -0.0340  0.2076  0.7976
19163SOL    HW159496   3.092  10.907   6.826  1.0895 -0.6463  1.9497
19163SOL    HW259497   3.094  10.758   6.803 -0.9993 -0.3611 -0.5188
19164SOL     OW59498   6.412   2.288   8.746  0.0814 -1.1939  0.2394
19164SOL    HW159499   6.345   2.305   8.680 -1.0178 -2.4573  0.9866
19164SOL    HW259500   6.481   2.242   8.699 -0.0337 -0.8099 -0.3159
19165SOL     OW59501   6.250   8.017   4.861 -0.5251  0.0501 -0.4430
19165SOL    HW159502   6.284   8.052   4.779 -0.4878 -0.1442 -0.5113
19165SOL    HW259503   6.158   8.000   4.844 -0.7200  0.8074 -0.1829
19166SOL     OW59504   3.497   1.043   0.684  0.4938  0.4960  0.1276
19166SOL    HW159505   3.422   1.076   0.734 -0.1327 -1.2553  0.4350
19166SOL    HW259506   3.571   1.096   0.713 -0.1014  0.3673  1.9842
19167SOL     OW59507   5.772   3.258   4.084 -0.2540 -0.5228  0.4478
19167SOL    HW159508   5.695   3.307   4.055  0.7533  0.8883  0.0743
19167SOL    HW259509   5.844   3.320   4.077  1.0605 -2.0359  0.0976
19168SOL     OW59510   5.952   6.876   2.553  0.1018  0.2325  0.6180
19168SOL    HW159511   5.881   6.887   2.490  1.0578 -0.9413 -0.7463
19168SOL    HW259512   5.963   6.781   2.560  2.7967  0.3381 -0.7981
19169SOL     OW59513   3.130  10.629   9.918 -0.3748 -0.1416 -0.2962
19169SOL    HW159514   3.097  10.591   9.836 -0.1227  0.7862 -0.8441
19169SOL    HW259515   3.221  10.651   9.899 -0.3883  0.3071  0.1509
19170SOL     OW59516   0.226   2.502   3.779 -0.0499 -0.2097  0.2224
19170SOL    HW159517   0.251   2.531   3.691 -1.7334  1.0998  0.1191
19170SOL    HW259518   0.270   2.564   3.837 -0.6783  0.2898  0.1778
19171SOL     OW59519  10.141   2.082   0.438  0.3939  0.0333 -0.1822
19171SOL    HW159520  10.086   2.156   0.410 -0.2778 -0.6324 -0.6564
19171SOL    HW259521  10.118   2.011   0.378 -0.5546 -1.2116  1.5905
19172SOL     OW59522   6.679   8.962   6.907  0.3075  0.6901  0.3011
19172SOL    HW159523   6.704   8.960   6.999 -1.1596  0.2590  0.7071
19172SOL    HW259524   6.591   8.999   6.906  0.6132  1.4576 -1.0158
19173SOL     OW59525   8.625   0.732   1.686  0.2675  0.6998 -0.3553
19173SOL    HW159526   8.572   0.804   1.720  1.0964  0.2948  2.0512
19173SOL    HW259527   8.618   0.738   1.591 -4.1061  0.6256 -0.2243
19174SOL     OW59528   9.720   7.100   9.211 -0.9778 -0.2011 -0.1053
19174SOL    HW159529   9.669   7.022   9.231 -1.8727  0.6817  1.2606
19174SOL    HW259530   9.655   7.165   9.183 -0.2656  0.1135 -1.0936
19175SOL     OW59531  10.177   4.420   5.379  0.1704  0.5736  0.3876
19175SOL    HW159532  10.203   4.363   5.451 -1.3596  0.0681  0.5832
19175SOL    HW259533  10.256   4.430   5.326  0.6115 -1.3054  0.6162
19176SOL     OW59534   8.494   7.076   7.249  0.3460  0.0748  0.0511
19176SOL    HW159535   8.554   7.014   7.289 -0.1801  0.2020  1.0608
19176SOL    HW259536   8.544   7.157   7.242  0.4525  0.0405  0.4091
19177SOL     OW59537   5.806   4.927   3.673 -0.4006  0.0270  0.0604
19177SOL    HW159538   5.810   4.835   3.646 -1.4432 -0.2570  0.8139
19177SOL    HW259539   5.774   4.974   3.597  0.2113 -0.2195 -0.3552
19178SOL     OW59540   6.356   1.688   3.123  0.2658 -0.1736 -0.5051
19178SOL    HW159541   6.391   1.654   3.205  0.2855  0.0791 -0.4097
19178SOL    HW259542   6.409   1.645   3.056  0.1120 -0.5371 -0.3949
19179SOL     OW59543   6.474   3.394   2.314 -0.7512 -0.0671 -0.0839
19179SOL    HW159544   6.447   3.302   2.312  0.7190 -0.5299  0.2699
19179SOL    HW259545   6.514   3.408   2.227  0.6664 -0.3213  0.4896
19180SOL     OW59546   0.607   1.900   0.467 -0.1893 -0.1907 -0.1265
19180SOL    HW159547   0.641   1.881   0.555  1.9785  0.7734 -0.6924
19180SOL    HW259548   0.548   1.973   0.480  0.2221  0.0364  0.5352
19181SOL     OW59549   5.786   6.833   7.427 -0.0269 -0.6468 -1.2771
19181SOL    HW159550   5.769   6.904   7.366 -1.1168  0.5138  0.3247
19181SOL    HW259551   5.846   6.870   7.492 -0.3421 -1.2949 -0.6003
19182SOL     OW59552   2.114   0.218   5.076  0.6291 -0.0917  0.6119
19182SOL    HW159553   2.049   0.151   5.057  0.6128  0.2801 -0.7091
19182SOL    HW259554   2.189   0.196   5.022  0.6511  0.9047  0.2124
19183SOL     OW59555   4.254   0.293   5.595 -0.7081 -0.1787 -0.4109
19183SOL    HW159556   4.214   0.245   5.523  2.2773 -1.6726 -1.2440
19183SOL    HW259557   4.293   0.370   5.554 -1.9176  0.8283  0.2519
19184SOL     OW59558   8.142   4.301   4.814  0.1999 -0.1590 -0.2820
19184SOL    HW159559   8.121   4.383   4.859  1.2850  0.0181 -0.0802
19184SOL    HW259560   8.095   4.307   4.731 -0.3633  0.3106  0.0598
19185SOL     OW59561   4.280   3.127  10.104 -0.0068 -0.6162  0.2358
19185SOL    HW159562   4.257   3.217  10.082 -0.6515 -0.3436  1.8618
19185SOL    HW259563   4.199   3.077  10.092 -0.1511 -0.6109  1.1013
19186SOL     OW59564   5.568   9.114   1.136 -0.8116 -0.2923 -0.2870
19186SOL    HW159565   5.588   9.128   1.044  0.1398  0.3839  0.0020
19186SOL    HW259566   5.621   9.180   1.182 -0.8344 -0.9909  0.7715
19187SOL     OW59567  10.363   9.112   1.765  0.0036 -1.1166  0.1240
19187SOL    HW159568  10.366   9.020   1.793  0.2935 -1.3058 -0.5206
19187SOL    HW259569  10.271   9.136   1.774 -0.6740 -2.3971 -2.5954
19188SOL     OW59570   3.360   6.194   6.497  0.1362  0.1005 -0.0994
19188SOL    HW159571   3.400   6.274   6.464  0.0445 -0.1436 -0.8228
19188SOL    HW259572   3.266   6.211   6.494  0.0585 -0.4356 -1.3618
19189SOL     OW59573   4.407   9.752   0.137 -0.0169  0.1626 -0.7101
19189SOL    HW159574   4.400   9.817   0.207  0.8645 -0.3349 -0.1403
19189SOL    HW259575   4.350   9.785   0.068 -1.0082  0.5980  0.2896
19190SOL     OW59576   2.777   6.259   7.910 -0.5923 -0.1405 -0.2274
19190SOL    HW159577   2.700   6.316   7.917 -1.0426 -0.5139 -1.7292
19190SOL    HW259578   2.829   6.298   7.840  0.7456  0.2382  0.9190
19191SOL     OW59579   0.096   2.018   8.465  0.0696 -0.1226  0.3677
19191SOL    HW159580   0.167   1.971   8.508  0.8841  1.2333  0.5432
19191SOL    HW259581   0.096   2.105   8.506 -1.5091  0.0057  0.1770
19192SOL     OW59582   0.294   5.930   9.098 -0.1948  0.3371  0.4983
19192SOL    HW159583   0.314   5.953   9.008 -0.6560  1.0923  0.5764
19192SOL    HW259584   0.200   5.944   9.107 -0.2490 -0.2503  0.9518
19193SOL     OW59585   2.007   3.748   1.584 -0.2217 -0.7019  0.7024
19193SOL    HW159586   1.980   3.825   1.635 -2.5552 -0.3998 -0.8158
19193SOL    HW259587   2.093   3.771   1.550 -0.8758  1.3016  0.2601
19194SOL     OW59588   7.564   9.368   1.292  0.1735 -0.0712  0.5896
19194SOL    HW159589   7.597   9.282   1.319  0.9664  0.2841  0.7931
19194SOL    HW259590   7.542   9.357   1.199  1.9701 -0.0481  0.1105
19195SOL     OW59591   9.527   6.760   1.763  0.2039 -0.5662  0.1712
19195SOL    HW159592   9.549   6.668   1.774  0.9608 -0.4607 -0.4149
19195SOL    HW259593   9.431   6.760   1.753  0.1941 -1.2784  0.2173
19196SOL     OW59594   0.021  10.396   7.481 -0.3162  0.5162  0.5365
19196SOL    HW159595   0.091  10.386   7.417  0.2621 -0.4257  1.2986
19196SOL    HW259596   0.054  10.462   7.542  0.1057 -0.2298  1.1328
19197SOL     OW59597   1.471   4.961   6.377 -0.0493  0.0847 -0.2424
19197SOL    HW159598   1.383   4.960   6.416 -0.1120 -1.8578 -0.3253
19197SOL    HW259599   1.495   4.869   6.370  1.8311  0.5619 -0.6480
19198SOL     OW59600   5.719   3.825   4.941  0.3576 -0.3620 -0.1642
19198SOL    HW159601   5.672   3.880   4.878 -1.3369 -1.6086 -0.0548
19198SOL    HW259602   5.650   3.781   4.991  1.6643 -0.5458  1.5673
19199SOL     OW59603   9.106   8.509   3.689  0.0169  0.3452 -0.3953
19199SOL    HW159604   9.079   8.418   3.695 -0.6538  0.4970 -0.9679
19199SOL    HW259605   9.028   8.560   3.710  0.3572  0.7939 -0.1803
19200SOL     OW59606   9.290   9.204   5.829 -0.2924  0.0505  0.1040
19200SOL    HW159607   9.322   9.122   5.791 -1.5300  0.9124 -3.1604
19200SOL    HW259608   9.220   9.178   5.888  0.6068 -1.2898  0.6347
19201SOL     OW59609   7.675   7.791   5.832  0.1036 -0.2488  0.1260
19201SOL    HW159610   7.724   7.844   5.770  1.3479 -2.9766 -1.4053
19201SOL    HW259611   7.588   7.831   5.835  1.0295  1.9376 -0.7398
19202SOL     OW59612   5.468   6.897   0.986  1.2144  0.7702 -0.4596
19202SOL    HW159613   5.474   6.869   0.895 -0.0256 -0.8811 -0.0894
19202SOL    HW259614   5.389   6.952   0.989 -0.1555 -1.1052 -0.0078
19203SOL     OW59615   1.221   6.100   3.767 -0.5595  0.0057 -0.3878
19203SOL    HW159616   1.281   6.043   3.815 -0.3124  0.7706  0.2326
19203SOL    HW259617   1.151   6.119   3.829  0.8612  2.8169  0.5857
19204SOL     OW59618   3.765  10.496   6.775 -0.5066  0.0818 -0.0923
19204SOL    HW159619   3.832  10.563   6.789 -1.9156  1.2367  1.4457
19204SOL    HW259620   3.744  10.464   6.862 -2.4357  0.2386 -0.4598
19205SOL     OW59621   5.936   7.249   9.213  0.3475 -0.4907 -0.1749
19205SOL    HW159622   5.873   7.210   9.153  0.9922 -2.5371  0.3941
19205SOL    HW259623   5.936   7.191   9.289  2.4030 -0.1954  0.1109
19206SOL     OW59624   4.518   1.168   0.996 -0.5805  0.8685 -0.6265
19206SOL    HW159625   4.587   1.143   0.935 -2.0481 -3.9376 -0.7373
19206SOL    HW259626   4.442   1.186   0.941 -0.8659  0.4662 -0.3732
19207SOL     OW59627   6.932   4.402  10.812 -0.2889 -0.1714 -0.0281
19207SOL    HW159628   6.917   4.317  10.771  1.1885 -0.3285 -0.3155
19207SOL    HW259629   6.853   4.452  10.795 -0.3143 -0.7460 -1.7882
19208SOL     OW59630   2.886   1.683   6.943  0.0123 -0.0045  0.0038
19208SOL    HW159631   2.905   1.632   6.864  0.3972  2.6004 -1.7133
19208SOL    HW259632   2.820   1.632   6.989  0.9431 -2.3996 -1.1419
19209SOL     OW59633   4.498   9.586   9.359 -0.0809 -0.4495 -0.4958
19209SOL    HW159634   4.452   9.518   9.409 -0.8552  0.1296 -0.3968
19209SOL    HW259635   4.428   9.637   9.319  0.4856 -2.2004 -4.0787
19210SOL     OW59636   8.483   9.419   0.676 -0.2180 -0.2598  0.9450
19210SOL    HW159637   8.544   9.483   0.638  0.0315 -1.0832 -0.0705
19210SOL    HW259638   8.402   9.468   0.689 -0.1495  0.1805 -0.1902
19211SOL     OW59639   9.237   9.847   2.978  0.2064 -0.7426  0.1123
19211SOL    HW159640   9.225   9.827   2.885  0.3842 -1.0237  0.1487
19211SOL    HW259641   9.156   9.818   3.020  0.2662 -0.9381  0.0942
19212SOL     OW59642   1.120   5.938   0.684  0.1910  0.2665 -0.0196
19212SOL    HW159643   1.033   5.900   0.697  0.7301 -0.7452  0.7092
19212SOL    HW259644   1.177   5.889   0.743  1.2215  1.0767 -0.3169
19213SOL     OW59645   9.939   5.812   8.917 -0.0726 -0.3363  0.5564
19213SOL    HW159646   9.993   5.773   8.848 -1.9404  1.1655 -1.9577
19213SOL    HW259647  10.002   5.854   8.976  1.6102 -0.2120 -1.2124
19214SOL     OW59648   2.797   9.516   9.850  0.0670  0.2153 -0.0151
19214SOL    HW159649   2.884   9.524   9.889  0.5277 -2.0639 -0.4442
19214SOL    HW259650   2.754   9.447   9.901  0.0606 -1.6268 -2.3588
19215SOL     OW59651   0.497   8.917   1.143  0.2268  0.1501  0.2025
19215SOL    HW159652   0.527   8.867   1.218 -1.1821 -0.9707  0.0781
19215SOL    HW259653   0.574   8.927   1.087  0.6905 -1.3391  0.5480
19216SOL     OW59654   9.524   9.392   9.188  0.1280  0.3312  0.2767
19216SOL    HW159655   9.571   9.374   9.106 -1.2562  0.1623 -0.5155
19216SOL    HW259656   9.520   9.487   9.193  0.5497  0.3464  0.3434
19217SOL     OW59657   5.791   7.200   4.573  0.0999 -0.3794 -0.3125
19217SOL    HW159658   5.711   7.195   4.520 -0.6830 -0.4910  0.8650
19217SOL    HW259659   5.855   7.241   4.514 -0.3981 -1.5945 -1.7534
19218SOL     OW59660   1.974   5.844   8.559 -0.0742  0.1146  0.2127
19218SOL    HW159661   1.937   5.907   8.620  0.2129  2.5922 -2.0106
19218SOL    HW259662   2.001   5.770   8.614 -1.2593  1.4967  2.8185
19219SOL     OW59663   9.048   9.621   7.468 -0.0177  0.0639 -0.6424
19219SOL    HW159664   9.140   9.644   7.476 -0.0081 -0.2733  0.4241
19219SOL    HW259665   9.028   9.631   7.375  1.2560 -0.4788 -0.9868
19220SOL     OW59666   4.803   4.815   4.400  0.0681  0.5656  0.4937
19220SOL    HW159667   4.874   4.879   4.397 -0.0320  0.6573  0.0736
19220SOL    HW259668   4.782   4.798   4.308 -0.3895  0.4703  0.6138
19221SOL     OW59669   6.406   0.744   3.825  0.1621  0.0497 -0.0825
19221SOL    HW159670   6.358   0.826   3.835 -0.3807 -0.4155  1.5440
19221SOL    HW259671   6.367   0.686   3.892  0.1870 -1.6885 -1.5084
19222SOL     OW59672   7.751   3.866   8.160 -0.0033  0.3787 -0.4834
19222SOL    HW159673   7.810   3.826   8.096  0.3028 -1.0944  0.6439
19222SOL    HW259674   7.779   3.957   8.165  0.8073  0.2093 -1.4926
19223SOL     OW59675  10.276   5.631   0.671 -0.7218  0.1031  0.5137
19223SOL    HW159676  10.319   5.603   0.590  0.7354  0.6488  1.0738
19223SOL    HW259677  10.260   5.549   0.719  1.5440 -0.0212  1.1736
19224SOL     OW59678   8.348   6.173   9.232  0.1448 -0.0020  0.1679
19224SOL    HW159679   8.381   6.201   9.318  1.8470  0.2589 -0.5379
19224SOL    HW259680   8.353   6.252   9.178  0.5725 -0.5451 -0.5907
19225SOL     OW59681  10.720   1.059   0.047  0.5345  0.4477  0.0513
19225SOL    HW159682  10.772   1.136   0.023  0.5908  0.1363 -0.8593
19225SOL    HW259683  10.753   0.989  -0.010 -0.0663 -0.0522  0.3065
19226SOL     OW59684  10.196   5.289   9.507  0.0227 -0.0119  0.0909
19226SOL    HW159685  10.115   5.333   9.484  0.4254  1.3440  1.1212
19226SOL    HW259686  10.250   5.358   9.547  1.6932 -0.8608 -0.5998
19227SOL     OW59687   4.831   4.170   5.508  0.1286 -0.5149  0.4088
19227SOL    HW159688   4.763   4.198   5.570 -0.1654 -0.2083 -0.0475
19227SOL    HW259689   4.874   4.096   5.551 -0.7423 -0.9521  0.5500
19228SOL     OW59690   9.919  10.182   1.220  0.4870 -0.6424 -0.2666
19228SOL    HW159691   9.924  10.109   1.283 -0.9979 -0.4965  0.0645
19228SOL    HW259692   9.927  10.140   1.134  0.5850 -1.0799 -0.0461
19229SOL     OW59693   3.647   0.402  10.202 -0.4831  0.0532 -0.6871
19229SOL    HW159694   3.612   0.402  10.113  0.2431  3.4000 -1.1085
19229SOL    HW259695   3.585   0.454  10.252  0.8645  1.1476 -0.0955
19230SOL     OW59696   3.235  10.704   4.220  0.3114  0.4619 -0.1223
19230SOL    HW159697   3.323  10.681   4.248 -0.6559 -0.7234  2.2534
19230SOL    HW259698   3.211  10.778   4.276 -0.1736  0.8742 -0.8538
19231SOL     OW59699   6.662   6.891   8.766 -0.1058 -0.5031  0.0077
19231SOL    HW159700   6.699   6.805   8.783  4.3042  1.1555  0.2232
19231SOL    HW259701   6.637   6.925   8.852  1.8312 -0.2202  0.5145
19232SOL     OW59702   3.967   6.146   5.029 -0.4696 -0.0566 -0.2111
19232SOL    HW159703   3.942   6.143   4.937  1.3863 -0.0568 -0.7645
19232SOL    HW259704   3.978   6.239   5.048 -1.1513 -0.0396  0.0999
19233SOL     OW59705   1.470   4.749   7.778 -0.1400 -0.3368  0.1968
19233SOL    HW159706   1.499   4.745   7.686  2.0185  0.7266  0.7632
19233SOL    HW259707   1.448   4.840   7.793 -0.3847 -0.4860  0.7729
19234SOL     OW59708   2.834   7.863   1.200  0.3533  0.3846  0.7411
19234SOL    HW159709   2.758   7.919   1.185 -1.2805 -1.7863  0.3231
19234SOL    HW259710   2.829   7.842   1.294 -0.3678 -0.7657  0.4688
19235SOL     OW59711  10.943   5.384   1.331 -0.3682 -0.3056  0.3316
19235SOL    HW159712  10.900   5.358   1.413  0.6809 -1.7865  0.4463
19235SOL    HW259713  10.876   5.372   1.264 -0.6441 -0.9562  0.7193
19236SOL     OW59714   4.944   4.725   9.154  0.3646 -0.0407  0.7901
19236SOL    HW159715   5.009   4.660   9.126  2.0446  2.5332 -1.8966
19236SOL    HW259716   4.860   4.681   9.143  1.4132 -1.7930 -0.8744
19237SOL     OW59717   7.504   4.512   8.461  0.4241  0.0891  0.4574
19237SOL    HW159718   7.422   4.498   8.414 -0.0389  0.5106  1.1083
19237SOL    HW259719   7.527   4.603   8.443 -0.2924  0.5669  1.8204
19238SOL     OW59720   2.715  10.811   6.840  0.3177 -0.0469 -0.2149
19238SOL    HW159721   2.712  10.806   6.744  0.0919  0.0714 -0.2167
19238SOL    HW259722   2.763  10.733   6.867 -1.2234 -1.0798 -0.3445
19239SOL     OW59723  10.662   6.381   6.229  0.1030 -0.1219  0.1885
19239SOL    HW159724  10.665   6.464   6.182 -0.3505  0.2288  0.7714
19239SOL    HW259725  10.752   6.367   6.260  0.4116 -0.3592 -0.7630
19240SOL     OW59726   6.532   7.281   3.325  0.3991  0.1601  0.2536
19240SOL    HW159727   6.511   7.220   3.255 -1.3151 -1.1667  1.8370
19240SOL    HW259728   6.459   7.343   3.326  0.5689  0.3575  0.6711
19241SOL     OW59729   0.635   8.803   8.181 -0.1653  0.4202 -0.3846
19241SOL    HW159730   0.571   8.752   8.231  0.6733 -0.9812 -0.6894
19241SOL    HW259731   0.685   8.851   8.247 -0.5446  0.3518 -0.0450
19242SOL     OW59732   7.664   3.090   9.645 -0.1242  0.0190  0.1566
19242SOL    HW159733   7.637   3.119   9.557  0.4827  0.6443  0.1669
19242SOL    HW259734   7.584   3.099   9.698 -1.3379 -3.1063 -0.9078
19243SOL     OW59735   3.285   4.668   2.943  0.1083 -0.1947  0.1967
19243SOL    HW159736   3.293   4.614   3.022 -1.5794  0.8011  1.0993
19243SOL    HW259737   3.348   4.630   2.882 -0.1783 -2.4760  1.1904
19244SOL     OW59738   4.020   9.910   8.221 -0.4667  0.1114 -0.0189
19244SOL    HW159739   4.069   9.924   8.302  2.0204 -2.0177 -1.0210
19244SOL    HW259740   4.047   9.823   8.191 -1.3614  0.7734 -3.0816
19245SOL     OW59741   9.650   4.918   3.074 -0.0236 -0.2597 -0.5323
19245SOL    HW159742   9.633   4.953   2.986  1.5581 -2.7355 -1.9428
19245SOL    HW259743   9.742   4.939   3.091 -0.3566  0.3385  0.6478
19246SOL     OW59744   0.880   4.716   0.859 -0.8014  0.0230  0.6150
19246SOL    HW159745   0.965   4.725   0.903 -0.7052  0.4403  0.3495
19246SOL    HW259746   0.816   4.736   0.927 -0.6721  0.1139  0.7118
19247SOL     OW59747   6.105   6.367   5.806 -0.1438  0.0184  0.1732
19247SOL    HW159748   6.114   6.411   5.721 -2.0349  2.7290  1.2240
19247SOL    HW259749   6.193   6.335   5.826  0.3687 -0.6690 -2.7178
19248SOL     OW59750   9.948   7.798   8.107 -0.1021  0.5104 -0.3417
19248SOL    HW159751   9.913   7.755   8.029  2.3036 -3.2325  0.3818
19248SOL    HW259752  10.041   7.810   8.088  1.1033 -2.6163  2.5122
19249SOL     OW59753   4.494   2.211   5.078  0.6318  0.4178 -0.0846
19249SOL    HW159754   4.534   2.184   4.996  2.0548 -1.9274  1.2719
19249SOL    HW259755   4.427   2.144   5.095 -0.9777  1.9250 -0.2008
19250SOL     OW59756   6.180  10.209  10.488 -0.0589  0.1727  0.2002
19250SOL    HW159757   6.186  10.301  10.460 -1.0257  0.5575  1.1740
19250SOL    HW259758   6.251  10.199  10.551 -0.8030  0.6862  1.1583
19251SOL     OW59759   1.595  10.751   7.732 -0.0135 -0.1224 -0.2460
19251SOL    HW159760   1.664  10.786   7.789 -0.0309  1.6812 -1.2774
19251SOL    HW259761   1.584  10.661   7.762  2.8215 -0.5104 -0.0447
19252SOL     OW59762   2.549   2.683   8.337  0.0678 -0.2017 -0.2327
19252SOL    HW159763   2.515   2.730   8.414 -0.6754  1.3965 -1.4840
19252SOL    HW259764   2.481   2.618   8.318 -0.3984  0.2992 -0.3208
19253SOL     OW59765   4.703  10.924   1.900  0.2084 -0.0176 -0.0179
19253SOL    HW159766   4.789  10.913   1.941  0.0609  1.3119  0.7074
19253SOL    HW259767   4.722  10.922   1.806  0.6722 -2.1639  0.0653
19254SOL     OW59768   9.649   9.926   7.887  0.0879 -0.3316 -0.5312
19254SOL    HW159769   9.598   9.853   7.922 -1.0602 -0.1232 -1.6938
19254SOL    HW259770   9.623  10.001   7.940  0.4296 -0.5384 -0.0623
19255SOL     OW59771  10.691   5.379   6.999  0.1272 -0.0819 -0.3716
19255SOL    HW159772  10.651   5.439   6.937 -0.7059  0.3226  0.5292
19255SOL    HW259773  10.728   5.309   6.945 -2.9144 -1.1654 -1.2206
19256SOL     OW59774   7.345   9.406   1.083 -0.3402 -0.8022 -0.2642
19256SOL    HW159775   7.263   9.441   1.120  0.4992  1.9516 -0.7245
19256SOL    HW259776   7.320   9.324   1.041 -2.7910 -0.2224 -0.1014
19257SOL     OW59777   7.057   8.738   3.777 -0.2618 -0.1821  0.4997
19257SOL    HW159778   7.133   8.698   3.736  0.3459  0.2661  1.1747
19257SOL    HW259779   7.009   8.779   3.705  1.3536  1.5280  0.3321
19258SOL     OW59780  10.723   3.856   8.902 -0.3101  0.1412 -0.4723
19258SOL    HW159781  10.676   3.870   8.820 -1.7111  0.4669  0.3517
19258SOL    HW259782  10.659   3.815   8.960  0.5162  0.3093  0.5948
19259SOL     OW59783   8.576   1.189   8.835 -0.0299  0.5726  0.1737
19259SOL    HW159784   8.638   1.123   8.805 -1.6462  0.0766 -2.3596
19259SOL    HW259785   8.630   1.252   8.882  2.0696 -0.8682 -0.1553
19260SOL     OW59786  10.942   8.490   6.595 -0.1173  0.0868 -0.6351
19260SOL    HW159787  11.023   8.461   6.553 -0.6778 -0.7604 -1.1696
19260SOL    HW259788  10.910   8.412   6.640 -0.2194  0.6329  0.2592
19261SOL     OW59789   9.374   5.697   8.935 -0.2231 -0.3185  0.2827
19261SOL    HW159790   9.359   5.645   9.013 -1.4950 -0.4997 -0.0677
19261SOL    HW259791   9.468   5.716   8.937 -0.1158 -0.8817  1.4877
19262SOL     OW59792   8.959   8.102   5.686 -0.1907 -0.0814 -0.0326
19262SOL    HW159793   8.920   8.102   5.774  0.7999 -0.1142  0.4184
19262SOL    HW259794   8.915   8.030   5.641 -0.6510 -0.1218  0.4631
19263SOL     OW59795   0.940   1.593   2.638 -0.6285 -0.0483 -0.3242
19263SOL    HW159796   0.864   1.634   2.596 -1.1924  0.8174  1.4280
19263SOL    HW259797   1.013   1.650   2.616 -0.7165 -0.1533 -0.9196
19264SOL     OW59798  10.611   1.193   6.742  0.2702  0.7559  0.2088
19264SOL    HW159799  10.594   1.165   6.652 -0.9429 -0.9417  0.9060
19264SOL    HW259800  10.692   1.243   6.736  0.7977 -0.1871 -1.6779
19265SOL     OW59801   8.598   2.641  10.846 -0.0961 -0.1266  0.3295
19265SOL    HW159802   8.650   2.638  10.927 -0.3986 -0.1272  0.5264
19265SOL    HW259803   8.651   2.594  10.782 -0.0635 -0.5341  0.6492
19266SOL     OW59804   7.851   3.896   0.131  0.0760  0.4103  0.5781
19266SOL    HW159805   7.788   3.916   0.062  0.5570  1.0300  0.3062
19266SOL    HW259806   7.799   3.855   0.200 -0.5016  0.2754  0.0756
19267SOL     OW59807   0.569  10.051   4.314 -0.1653  0.1397  0.3096
19267SOL    HW159808   0.587  10.132   4.362  0.9152 -0.7801  1.4886
19267SOL    HW259809   0.482  10.065   4.276  0.5685  2.4157 -0.7251
19268SOL     OW59810  10.315   0.415  10.639 -0.1260  0.6814  0.1066
19268SOL    HW159811  10.335   0.451  10.553  1.1071 -1.7450 -0.7063
19268SOL    HW259812  10.395   0.427  10.690  0.3096 -0.8460 -0.1829
19269SOL     OW59813   7.226   9.623   7.519 -0.1191  0.3690  0.5404
19269SOL    HW159814   7.271   9.540   7.534  0.1621  0.0123 -1.9333
19269SOL    HW259815   7.133   9.602   7.532  0.0617  0.0373  1.3470
19270SOL     OW59816   6.453   0.752   5.370  0.1658  0.4224  0.4182
19270SOL    HW159817   6.469   0.754   5.276  3.4939 -0.3322  0.8441
19270SOL    HW259818   6.400   0.830   5.387 -1.2582  0.1137 -2.1356
19271SOL     OW59819   2.310   9.213   5.151 -0.2802  0.0348  0.4198
19271SOL    HW159820   2.286   9.285   5.209 -0.4691 -1.0311  1.6872
19271SOL    HW259821   2.272   9.135   5.190  1.0459 -0.9757 -0.1905
19272SOL     OW59822   6.930  10.217   7.495  0.1860  0.4456  0.0291
19272SOL    HW159823   6.866  10.235   7.427 -0.5004 -1.0413  0.2304
19272SOL    HW259824   7.005  10.272   7.473 -1.1037  2.1794 -0.2575
19273SOL     OW59825  10.978   4.143   9.949 -0.0514  0.1287  0.2416
19273SOL    HW159826  11.054   4.200   9.960 -0.3535  0.6109 -0.1411
19273SOL    HW259827  10.975   4.091  10.030 -1.1576  2.3233  1.7289
19274SOL     OW59828   7.038  10.176   4.569  0.1598 -0.6530 -0.1830
19274SOL    HW159829   7.069  10.234   4.499 -0.7571  1.2829  0.9272
19274SOL    HW259830   7.119  10.146   4.611  0.6878 -0.9678 -1.3727
19275SOL     OW59831   5.282   6.607   3.897 -0.4760 -0.2114  0.2203
19275SOL    HW159832   5.221   6.578   3.829  2.3044  0.9139 -3.0747
19275SOL    HW259833   5.303   6.527   3.946 -1.7839 -1.3264 -0.9363
19276SOL     OW59834   9.668   8.478   5.981 -0.2692  0.9433 -0.6843
19276SOL    HW159835   9.636   8.515   6.063 -2.9745  0.0501 -1.2232
19276SOL    HW259836   9.713   8.550   5.938 -0.6503  2.0259  0.6666
19277SOL     OW59837   0.570   0.435   3.050  0.0962  0.6317 -0.2358
19277SOL    HW159838   0.535   0.346   3.038  1.1056 -0.1892  2.2363
19277SOL    HW259839   0.494   0.487   3.077 -0.1676  0.0515  0.1735
19278SOL     OW59840   0.064  10.229   7.867 -0.7710 -0.3596 -0.6766
19278SOL    HW159841   0.108  10.243   7.783 -0.1090  0.2027 -0.2461
19278SOL    HW259842   0.022  10.144   7.858 -2.2456  0.4834 -2.2399
19279SOL     OW59843   9.146   7.539   6.215  0.4512  0.5516 -0.0783
19279SOL    HW159844   9.146   7.458   6.164 -0.4768 -0.4985  1.5218
19279SOL    HW259845   9.054   7.565   6.220  0.5413  0.7471  0.8649
19280SOL     OW59846   1.761   3.297   9.435 -0.0601 -0.1231  0.5813
19280SOL    HW159847   1.674   3.320   9.468 -0.6311 -1.1860 -0.1296
19280SOL    HW259848   1.782   3.215   9.480  0.1416 -0.3898  0.0033
19281SOL     OW59849   7.444   5.028  10.181  0.1815 -0.7886 -0.2409
19281SOL    HW159850   7.455   5.010  10.275  1.0174 -0.5340 -0.2825
19281SOL    HW259851   7.533   5.047  10.150 -0.1853 -0.1756 -0.9357
19282SOL     OW59852   0.815   0.312   8.629  0.1682  0.2723  0.0762
19282SOL    HW159853   0.753   0.319   8.701  1.9695 -0.7756  1.8411
19282SOL    HW259854   0.785   0.238   8.577 -0.5880  0.3940  0.3352
19283SOL     OW59855   2.351   2.811   7.391  0.4987 -0.3723  0.4082
19283SOL    HW159856   2.417   2.879   7.403  0.7245 -0.5659  0.2793
19283SOL    HW259857   2.351   2.762   7.474  0.7714 -0.5907  0.2822
19284SOL     OW59858   3.133   3.267  10.778  0.3717 -0.5391 -0.2017
19284SOL    HW159859   3.118   3.225  10.692 -0.3203 -0.9749  0.1162
19284SOL    HW259860   3.204   3.329  10.763  0.2706 -0.6252 -1.0913
19285SOL     OW59861   5.408   4.783   0.871 -0.2278  0.1569 -0.5077
19285SOL    HW159862   5.317   4.772   0.899 -0.7326  2.7273 -0.8701
19285SOL    HW259863   5.417   4.726   0.795 -1.1051 -1.1522  0.3289
19286SOL     OW59864  10.659   2.177   2.851 -0.3522  0.5924  0.1354
19286SOL    HW159865  10.727   2.237   2.819  0.1770 -0.1586 -0.1792
19286SOL    HW259866  10.699   2.090   2.844 -0.5677  0.3171  1.9530
19287SOL     OW59867   7.606   4.746   3.010  0.1487 -0.0521 -0.2308
19287SOL    HW159868   7.600   4.727   3.104  1.8552  1.6017  0.2658
19287SOL    HW259869   7.515   4.754   2.981 -0.4066  1.4157  1.7302
19288SOL     OW59870   0.657   5.949   2.029  0.3751  0.1032  0.3324
19288SOL    HW159871   0.749   5.974   2.029  0.2733  0.4750  0.5446
19288SOL    HW259872   0.658   5.853   2.019  0.7736  0.1374  0.0146
19289SOL     OW59873   5.854   0.675   0.107  0.3138 -0.7341  0.0847
19289SOL    HW159874   5.836   0.581   0.113  1.3372 -0.9422  0.0522
19289SOL    HW259875   5.807   0.713   0.181 -0.7179 -1.1678 -0.3224
19290SOL     OW59876   2.234  10.688   7.843 -0.1381 -0.4647 -0.0131
19290SOL    HW159877   2.272  10.767   7.882  0.0352 -0.4197 -0.2732
19290SOL    HW259878   2.190  10.719   7.764  0.3972 -0.7051 -0.4107
19291SOL     OW59879  10.766   5.848   6.150 -0.1750 -0.2554 -0.0983
19291SOL    HW159880  10.686   5.824   6.196  0.2368 -1.3056  0.0892
19291SOL    HW259881  10.827   5.872   6.219  0.4057 -1.7162 -0.0741
19292SOL     OW59882   1.078   4.233   7.746  0.1966 -0.1149 -0.4429
19292SOL    HW159883   1.133   4.178   7.801 -0.4147  0.0898  0.3949
19292SOL    HW259884   1.051   4.305   7.803 -1.1363 -0.3447 -0.7456
19293SOL     OW59885   1.994  10.520  10.806  0.0666 -0.8455 -0.4088
19293SOL    HW159886   2.070  10.494  10.753  1.2788  0.1982  0.7639
19293SOL    HW259887   1.919  10.499  10.751  1.2236 -1.2607 -1.9009
19294SOL     OW59888   5.525   2.605   6.415  0.1808  0.4023  0.1955
19294SOL    HW159889   5.571   2.651   6.485 -0.9977  1.4514  0.2997
19294SOL    HW259890   5.488   2.674   6.360 -1.6466 -0.3736  0.3688
19295SOL     OW59891   0.438   8.851   9.998  0.1794  0.4037 -0.1782
19295SOL    HW159892   0.403   8.924   9.947  1.1212  2.0885  1.4769
19295SOL    HW259893   0.449   8.886  10.086  0.6555 -1.7580  0.6975
19296SOL     OW59894   6.736   2.914   7.079 -0.3155 -0.6533  0.3440
19296SOL    HW159895   6.701   2.854   7.145 -1.7755 -0.0337  0.1849
19296SOL    HW259896   6.660   2.938   7.026  0.7025 -0.5865 -1.1357
19297SOL     OW59897   2.187   3.568   0.542 -0.5327 -0.0098  0.3407
19297SOL    HW159898   2.164   3.475   0.544 -1.2260  0.0899 -1.2112
19297SOL    HW259899   2.134   3.607   0.611 -0.0963 -0.7926  1.1289
19298SOL     OW59900   8.322   8.707   1.712 -0.2049  0.2320 -0.5445
19298SOL    HW159901   8.400   8.714   1.768 -0.9441  0.6195  0.4844
19298SOL    HW259902   8.299   8.615   1.714  0.9842 -0.1334 -1.9630
19299SOL     OW59903   1.910   6.101   4.005  0.3241  0.1091  0.1152
19299SOL    HW159904   1.997   6.142   4.013  0.8904 -1.0917  0.2987
19299SOL    HW259905   1.849   6.171   4.029  1.3679  0.2734  2.5929
19300SOL     OW59906   5.622   7.640   0.571  0.7273 -0.2722 -0.2523
19300SOL    HW159907   5.712   7.672   0.583  0.8957 -0.9070  0.1859
19300SOL    HW259908   5.627   7.587   0.491  0.6368  0.0584 -0.4826
19301SOL     OW59909   6.271   6.613   0.150 -0.1083  0.2074  0.3770
19301SOL    HW159910   6.232   6.564   0.078 -0.8540 -0.6535  1.3433
19301SOL    HW259911   6.355   6.643   0.116 -0.0722 -0.9151 -0.5637
19302SOL     OW59912   1.518  10.429   1.125  0.2289  0.4311 -0.2210
19302SOL    HW159913   1.493  10.507   1.076 -0.2649  0.5243  0.1792
19302SOL    HW259914   1.542  10.366   1.057  0.5045  0.8789 -0.5512
19303SOL     OW59915   2.752   9.636   4.337 -0.0232 -0.6274 -0.0044
19303SOL    HW159916   2.699   9.566   4.373 -0.6493 -1.9305 -3.1126
19303SOL    HW259917   2.766   9.611   4.245  0.0484  3.1193 -1.1982
19304SOL     OW59918   3.566   7.718   8.214 -0.4142  0.4400  0.0865
19304SOL    HW159919   3.542   7.721   8.306  0.8770 -0.2621  0.4739
19304SOL    HW259920   3.656   7.686   8.214  1.0227  4.0230 -1.1626
19305SOL     OW59921   0.864   9.115   8.749  0.1762 -0.2435 -0.1652
19305SOL    HW159922   0.867   9.045   8.814 -1.5911 -0.0567  0.1767
19305SOL    HW259923   0.780   9.103   8.705 -0.5745  2.1512  0.4771
19306SOL     OW59924   7.772   2.208   6.399 -0.0354  0.1841  0.1110
19306SOL    HW159925   7.826   2.271   6.351  1.3040 -1.3045 -0.4283
19306SOL    HW259926   7.683   2.241   6.389  0.5406  1.5917 -0.7675
19307SOL     OW59927   2.308   3.301   3.787 -0.2531 -0.2250 -0.3173
19307SOL    HW159928   2.322   3.246   3.710 -1.9207 -2.0943  0.6300
19307SOL    HW259929   2.221   3.339   3.774  0.0387  0.5810  0.0085
19308SOL     OW59930   7.839   9.179   8.878  0.1392  0.0366  0.3887
19308SOL    HW159931   7.820   9.178   8.784 -1.2297 -1.0443  0.6569
19308SOL    HW259932   7.932   9.201   8.883  0.0415  0.9381 -1.1778
19309SOL     OW59933  10.063   6.235   0.645  0.3049  0.2104  0.5893
19309SOL    HW159934   9.980   6.187   0.651  0.5735 -0.2618  0.6090
19309SOL    HW259935  10.064   6.291   0.723  0.7636 -1.0283  1.5123
19310SOL     OW59936   5.391   8.146   3.089  0.1820 -0.1934 -0.1444
19310SOL    HW159937   5.321   8.136   3.025 -1.5384  0.7633  1.5103
19310SOL    HW259938   5.427   8.057   3.098 -0.2018 -0.5344 -1.6503
19311SOL     OW59939   9.473   4.764   5.586  0.3671 -0.4632 -0.2843
19311SOL    HW159940   9.470   4.672   5.559 -3.9365 -0.5581 -0.0998
19311SOL    HW259941   9.403   4.805   5.536  0.4748  2.1658  1.5700
19312SOL     OW59942   4.908   1.947   4.961 -0.3403 -0.1535 -0.6319
19312SOL    HW159943   4.845   1.961   5.032  0.7909  0.5166  0.2651
19312SOL    HW259944   4.865   1.985   4.884 -0.7712  0.8999  0.1020
19313SOL     OW59945   7.537   4.658   0.130  0.0447  0.3770  0.1448
19313SOL    HW159946   7.455   4.660   0.178  1.0334 -0.0949  1.9497
19313SOL    HW259947   7.549   4.747   0.098 -0.3588  0.8690  1.3172
19314SOL     OW59948   4.292   6.522   9.932 -0.2532 -0.1866 -0.0983
19314SOL    HW159949   4.350   6.591   9.965  0.6761 -0.7181 -0.5820
19314SOL    HW259950   4.350   6.461   9.887 -0.7932 -2.2487  1.8424
19315SOL     OW59951   2.566   5.722   1.879 -0.3272 -0.0951  0.0496
19315SOL    HW159952   2.584   5.780   1.804 -3.7431 -0.1947 -1.0130
19315SOL    HW259953   2.516   5.777   1.940 -0.8508 -1.0610  0.5030
19316SOL     OW59954   3.130   6.974   9.661 -0.8555  0.3076 -0.2255
19316SOL    HW159955   3.108   6.903   9.720 -1.5692 -0.0263 -0.8884
19316SOL    HW259956   3.147   7.049   9.719 -0.6566 -0.2432  0.4381
19317SOL     OW59957   1.389   2.265   3.679  0.3520  0.3256  0.5314
19317SOL    HW159958   1.310   2.230   3.721 -0.8302  2.5858  0.3576
19317SOL    HW259959   1.389   2.225   3.592 -1.0191  0.7893  0.2825
19318SOL     OW59960   6.001   1.596   4.683 -0.3498 -0.4554  0.0026
19318SOL    HW159961   6.027   1.505   4.672  0.2106 -0.2310 -0.5708
19318SOL    HW259962   6.070   1.647   4.641 -0.4448  0.2584  0.6730
19319SOL     OW59963   8.475   6.251   0.761 -0.1531 -0.1579  0.2978
19319SOL    HW159964   8.499   6.341   0.782 -2.3612  0.2218  1.4769
19319SOL    HW259965   8.528   6.197   0.820 -0.2531  0.4882  0.9925
19320SOL     OW59966   0.117   3.178   0.701 -0.7540  0.3872 -0.5907
19320SOL    HW159967   0.157   3.265   0.703 -0.8308  0.4284 -0.7987
19320SOL    HW259968   0.174   3.127   0.642  0.0459 -0.0785  0.5582
19321SOL     OW59969   0.947   0.962   9.386 -0.7014 -0.1903  0.0595
19321SOL    HW159970   0.892   0.897   9.343 -2.6266  1.1597  0.3164
19321SOL    HW259971   0.887   1.034   9.407  1.1159  1.2430  0.6827
19322SOL     OW59972   7.272  10.832   2.403 -0.0976 -0.9554  0.0509
19322SOL    HW159973   7.222  10.807   2.325 -0.5389 -0.7348  0.2574
19322SOL    HW259974   7.232  10.782   2.474 -0.9131  0.2250  0.4443
19323SOL     OW59975   8.255   4.296   8.941  0.0749  0.4283 -0.5542
19323SOL    HW159976   8.254   4.201   8.931  3.8618  0.0156  1.0739
19323SOL    HW259977   8.248   4.310   9.036 -0.7764  1.8173 -0.7898
19324SOL     OW59978   4.167   6.412   4.245 -0.3075  0.4510  0.2771
19324SOL    HW159979   4.228   6.484   4.262  2.0960 -1.4729  0.3774
19324SOL    HW259980   4.081   6.454   4.243  0.9510  3.3030  0.2997
19325SOL     OW59981   3.147  10.982   9.986  0.6570  0.2873  0.3922
19325SOL    HW159982   3.135  11.075   9.967  0.6202  0.3477  0.7200
19325SOL    HW259983   3.239  10.974  10.010  0.6375  0.2519  0.4546
19326SOL     OW59984   1.510   4.502   0.356 -0.0933 -0.0973  0.0346
19326SOL    HW159985   1.422   4.514   0.320 -0.4341  2.3000  1.4754
19326SOL    HW259986   1.499   4.436   0.424 -1.3200  1.6729  1.6731
19327SOL     OW59987   6.197   5.195   0.040 -0.1306 -0.2411 -0.5856
19327SOL    HW159988   6.257   5.169  -0.030  0.9051  0.8096 -0.0995
19327SOL    HW259989   6.171   5.112   0.080 -1.1984 -0.9346 -2.5353
19328SOL     OW59990   2.948   6.049   5.970  0.3228  0.1641 -0.5920
19328SOL    HW159991   2.855   6.073   5.966  0.0920 -0.6734 -0.5345
19328SOL    HW259992   2.987   6.092   5.894 -0.0453  0.7812 -0.4400
19329SOL     OW59993   6.877   1.459  10.056 -0.1401 -0.5217  0.2995
19329SOL    HW159994   6.891   1.534  10.114  2.7788 -0.1277 -0.7520
19329SOL    HW259995   6.917   1.385  10.103  0.0826 -0.6954 -0.1610
19330SOL     OW59996   2.100   1.982   9.720 -0.1162 -0.3156 -0.0801
19330SOL    HW159997   2.112   2.059   9.775  0.5858 -0.6729  0.2715
19330SOL    HW259998   2.010   1.954   9.737 -0.5165  0.6597 -0.5221
19331SOL     OW59999   9.990   2.278   5.277  0.0461 -0.0075  0.3738
19331SOL    HW160000   9.928   2.343   5.245  1.0375  0.4164 -0.7549
19331SOL    HW260001   9.980   2.280   5.372 -1.1757  0.5245  0.2572
19332SOL     OW60002   9.908   9.562   3.523  0.9572  0.1449 -0.5460
19332SOL    HW160003   9.951   9.526   3.600 -0.5662  0.0011  0.2832
19332SOL    HW260004   9.854   9.634   3.558 -0.7828 -0.7631 -1.2381
19333SOL     OW60005  10.195   9.968   5.022 -0.4297  0.4313  0.2818
19333SOL    HW160006  10.130   9.945   5.088 -0.7111  0.9886  0.2024
19333SOL    HW260007  10.231  10.052   5.050 -0.9569  0.9539 -0.5610
19334SOL     OW60008   3.008   1.991   6.484 -0.0964  0.2430 -0.3914
19334SOL    HW160009   2.935   1.931   6.497  0.2366 -0.4857 -1.6357
19334SOL    HW260010   2.967   2.077   6.478 -0.5378  0.2441  1.8935
19335SOL     OW60011   3.775   4.065   5.419 -0.2556 -0.1761 -0.5399
19335SOL    HW160012   3.680   4.077   5.414  0.1193  3.5681 -2.3775
19335SOL    HW260013   3.799   4.100   5.504 -0.4988 -1.3204  0.0150
19336SOL     OW60014   7.085   6.853   0.067  0.3559 -0.4061 -0.4914
19336SOL    HW160015   7.122   6.826   0.151  0.7200 -0.0819 -0.5436
19336SOL    HW260016   7.020   6.786   0.046  1.4076 -1.3847 -0.7408
19337SOL     OW60017   0.819   8.661  10.153 -0.1889  0.1549 -0.7365
19337SOL    HW160018   0.819   8.720  10.228 -2.2490  2.2667 -2.2389
19337SOL    HW260019   0.910   8.655  10.126  0.2787  1.2096  0.5431
19338SOL     OW60020   6.457   5.745   4.470 -0.0595 -0.5678  0.0549
19338SOL    HW160021   6.407   5.825   4.451  0.1484  0.0402  1.8462
19338SOL    HW260022   6.547   5.768   4.448 -0.3435 -1.2879 -2.0929
19339SOL     OW60023   2.974   8.026   7.773 -0.3927  0.2566 -0.0223
19339SOL    HW160024   2.881   8.048   7.776 -0.7213 -1.0700 -0.1358
19339SOL    HW260025   2.977   7.940   7.732  0.8158 -0.1060  0.7952
19340SOL     OW60026  10.772   7.237   2.664 -0.3109  0.8160  0.1370
19340SOL    HW160027  10.727   7.156   2.690  0.8936 -0.2326 -0.8803
19340SOL    HW260028  10.835   7.253   2.735 -0.9983  1.2576  0.6635
19341SOL     OW60029   3.109   2.924   5.918 -0.1890  0.9253 -0.0353
19341SOL    HW160030   3.106   2.913   6.013 -0.0142  2.1878  0.1340
19341SOL    HW260031   3.030   2.881   5.887 -1.2386  2.1117  0.8820
19342SOL     OW60032   6.139   4.568   4.570  0.1865  0.3002 -0.1073
19342SOL    HW160033   6.180   4.610   4.645 -1.5392 -0.4747  1.3251
19342SOL    HW260034   6.085   4.636   4.530  0.0027  0.3354  0.2043
19343SOL     OW60035   7.747   8.031  10.665  0.4413 -0.0795  0.3044
19343SOL    HW160036   7.727   7.944  10.700  1.8379 -1.0085 -1.0618
19343SOL    HW260037   7.816   8.065  10.722 -1.0786  0.8111  1.7145
19344SOL     OW60038   5.873   1.005   4.447 -0.0109  0.0016  0.0556
19344SOL    HW160039   5.882   0.935   4.381 -1.2533  0.5015 -0.6658
19344SOL    HW260040   5.874   1.086   4.396  3.5943  0.7451  1.0410
19345SOL     OW60041   2.583   2.142   2.181  0.0849 -0.1097 -0.1474
19345SOL    HW160042   2.515   2.164   2.118  1.6002  2.2672 -1.0871
19345SOL    HW260043   2.659   2.192   2.153  1.8592 -1.6163  1.6340
19346SOL     OW60044   1.547   3.901   6.305 -0.2878  0.2931  0.2964
19346SOL    HW160045   1.635   3.916   6.271 -0.3973  0.8485  0.2475
19346SOL    HW260046   1.559   3.845   6.381  0.0472 -0.1858 -0.1088
19347SOL     OW60047   0.018   8.001   0.389 -0.0442  0.5305 -0.1841
19347SOL    HW160048  -0.033   8.079   0.409  1.0822  1.6310 -1.3813
19347SOL    HW260049   0.019   7.997   0.293  2.5040  0.8782 -0.2432
19348SOL     OW60050   5.657   8.719   3.468  0.3043  0.3257 -0.2110
19348SOL    HW160051   5.579   8.737   3.415  0.9846  1.3151 -0.9180
19348SOL    HW260052   5.658   8.790   3.533  0.4918  0.1913 -0.0682
19349SOL     OW60053   7.026   7.503   2.161 -0.7656  0.3923  0.5241
19349SOL    HW160054   7.042   7.409   2.175 -0.3633  0.2095 -0.9315
19349SOL    HW260055   7.092   7.528   2.096 -2.4907  1.0807 -1.0514
19350SOL     OW60056   6.649   1.386   8.560 -0.3454 -0.5896 -0.2743
19350SOL    HW160057   6.559   1.356   8.575 -0.7346  0.9443  0.6046
19350SOL    HW260058   6.703   1.327   8.613 -0.7274 -2.0042 -1.3913
19351SOL     OW60059   2.672   1.989   0.968 -0.2571 -0.1916 -0.1746
19351SOL    HW160060   2.735   1.941   0.913 -1.0750  1.1281 -2.3602
19351SOL    HW260061   2.621   2.041   0.907 -0.9966  1.6765  1.8921
19352SOL     OW60062   6.981   7.535   9.981 -0.2203  0.1261 -0.4707
19352SOL    HW160063   6.984   7.617   9.933 -0.4588  1.3719  1.5202
19352SOL    HW260064   6.987   7.561  10.073  1.0340 -2.1623  0.1894
19353SOL     OW60065   9.743   2.329   7.119  0.3685  0.5319  0.0710
19353SOL    HW160066   9.705   2.268   7.183 -0.5461  0.9886 -0.0145
19353SOL    HW260067   9.762   2.408   7.170  0.1420  0.7032 -0.1044
19354SOL     OW60068   2.658   6.930   5.421  0.0212 -0.1399 -0.0534
19354SOL    HW160069   2.673   6.935   5.326 -0.0179  1.5220 -0.0052
19354SOL    HW260070   2.626   6.841   5.436  0.2696 -0.5105 -1.5639
19355SOL     OW60071  10.252   9.196   0.160 -0.4785 -0.0184  0.2308
19355SOL    HW160072  10.200   9.120   0.186  1.2916 -0.8023  1.7276
19355SOL    HW260073  10.211   9.270   0.205  0.2311 -0.7928  2.3205
19356SOL     OW60074   0.444   4.173   8.906 -0.7042  0.2296  0.0722
19356SOL    HW160075   0.442   4.253   8.958 -0.5991 -0.2748  0.8547
19356SOL    HW260076   0.474   4.105   8.966  0.5956 -0.1414 -0.9465
19357SOL     OW60077   1.752   6.096   8.432 -0.2420  0.3265  0.0230
19357SOL    HW160078   1.723   6.005   8.427  1.4565 -0.2031 -0.8066
19357SOL    HW260079   1.704   6.132   8.507  0.4213 -1.7848  1.5621
19358SOL     OW60080   1.170   2.303   0.724 -0.4857 -0.1893  0.1935
19358SOL    HW160081   1.182   2.209   0.737 -2.6353 -0.7337 -1.2518
19358SOL    HW260082   1.254   2.333   0.691 -0.2299 -1.9279 -0.8661
19359SOL     OW60083   3.162   7.035   3.043  0.3405  0.2975 -0.0818
19359SOL    HW160084   3.181   7.029   2.949  0.0976 -0.5091 -0.0899
19359SOL    HW260085   3.099   6.964   3.059  1.3135 -0.3648  0.9236
19360SOL     OW60086   3.398   6.448   2.951  0.4146  0.3590 -0.1438
19360SOL    HW160087   3.389   6.452   3.047  1.1080  0.3475 -0.0746
19360SOL    HW260088   3.456   6.520   2.929  0.2453  0.3703 -0.5627
19361SOL     OW60089   0.830  10.961  10.612 -0.2679 -0.0946  0.4373
19361SOL    HW160090   0.853  10.949  10.704 -0.9240 -1.4029  0.4560
19361SOL    HW260091   0.865  11.047  10.589 -0.1256  0.2633  1.9190
19362SOL     OW60092   0.752   3.378   3.545 -0.2632  0.0418  0.0814
19362SOL    HW160093   0.659   3.360   3.533 -0.6971  0.3014  2.5277
19362SOL    HW260094   0.756   3.427   3.628  2.1242 -0.9014  0.5957
19363SOL     OW60095   9.030   6.492   4.920 -0.5015  0.4915  0.0373
19363SOL    HW160096   9.043   6.493   4.825 -0.9076  0.7145 -0.0202
19363SOL    HW260097   9.057   6.580   4.949 -1.5435  0.8531 -0.0438
19364SOL     OW60098   6.458   6.593   5.417  0.6671  0.1682  0.0215
19364SOL    HW160099   6.387   6.547   5.372 -0.2719  0.0948  1.4944
19364SOL    HW260100   6.413   6.663   5.465  1.5409 -0.0564  1.2059
19365SOL     OW60101   5.156   0.244  10.799  0.0525 -0.1158  0.1658
19365SOL    HW160102   5.113   0.326  10.777  0.4858  0.3159  0.8916
19365SOL    HW260103   5.246   0.255  10.771  0.2832 -0.0647  0.8910
19366SOL     OW60104   2.874   9.213   6.113 -0.0321 -1.0231  0.5663
19366SOL    HW160105   2.815   9.287   6.126 -0.3794 -0.6413 -2.3773
19366SOL    HW260106   2.957   9.241   6.151 -0.9771 -0.4428  2.3004
19367SOL     OW60107   8.707   8.339   1.858  0.0413 -0.1549  0.6992
19367SOL    HW160108   8.742   8.269   1.913 -1.3991 -0.4784  1.2416
19367SOL    HW260109   8.717   8.307   1.769  2.3938  0.3658  0.7062
19368SOL     OW60110   7.019   0.329   1.720  0.0318  0.4296  0.1848
19368SOL    HW160111   6.962   0.361   1.791  0.2498  0.0648  0.5266
19368SOL    HW260112   6.986   0.373   1.642 -1.4144 -0.5744  0.1826
19369SOL     OW60113   4.311   2.772  10.250  0.0026 -0.2930 -0.3154
19369SOL    HW160114   4.392   2.806  10.288 -0.1143 -0.8247  0.4513
19369SOL    HW260115   4.333   2.750  10.160  0.8467 -0.8785  0.0191
19370SOL     OW60116  10.229   8.670   3.166  0.0786 -0.8932  0.1315
19370SOL    HW160117  10.215   8.690   3.074 -1.2798 -1.9846  0.0728
19370SOL    HW260118  10.317   8.703   3.185 -0.4747  1.3956 -0.9503
19371SOL     OW60119   8.317   2.452   7.144 -0.3109 -0.5319  0.6168
19371SOL    HW160120   8.303   2.537   7.185 -2.9961 -0.6821  0.1812
19371SOL    HW260121   8.402   2.460   7.100  1.2594  0.6551  3.5277
19372SOL     OW60122   6.350  10.263   6.717  0.0116 -0.2764 -0.3566
19372SOL    HW160123   6.303  10.297   6.793 -0.7942 -1.4020 -0.3367
19372SOL    HW260124   6.440  10.294   6.729  0.1718 -1.3578  1.6557
19373SOL     OW60125   0.531   4.349   7.037 -0.0599 -0.0780 -0.3286
19373SOL    HW160126   0.500   4.389   6.955  2.3889 -2.5680 -2.6569
19373SOL    HW260127   0.457   4.297   7.067 -0.7637  0.3087 -1.3304
19374SOL     OW60128   2.319   6.258   5.661 -0.6146  0.5506  0.3621
19374SOL    HW160129   2.393   6.204   5.686  1.5187  2.6246 -1.0742
19374SOL    HW260130   2.319   6.330   5.724  0.2985  1.9407 -1.1480
19375SOL     OW60131   5.814   9.496   2.467  0.4202  0.5377 -0.1586
19375SOL    HW160132   5.745   9.436   2.495  1.2710  0.0032  0.8491
19375SOL    HW260133   5.772   9.551   2.401 -1.1834  0.7043  0.9395
19376SOL     OW60134   9.049   7.384   3.485  0.3154 -0.2677 -0.4066
19376SOL    HW160135   8.954   7.370   3.479  0.3605 -1.0774  0.3420
19376SOL    HW260136   9.064   7.404   3.578  1.0037 -1.4177 -0.2429
19377SOL     OW60137   5.242   6.687   8.891 -0.6534  0.0677  0.2437
19377SOL    HW160138   5.189   6.685   8.971  0.3888 -2.0172  0.9703
19377SOL    HW260139   5.271   6.778   8.883 -0.6242  0.2988  2.3683
19378SOL     OW60140   2.016   9.760   8.505 -0.0628  0.4119  0.7327
19378SOL    HW160141   2.038   9.676   8.465 -1.0316  0.4705  0.0287
19378SOL    HW260142   1.922   9.755   8.523 -0.4606  1.8349 -0.6561
19379SOL     OW60143   5.724  10.788   2.302  0.1481  0.4631  0.4394
19379SOL    HW160144   5.657  10.854   2.285 -1.0377 -0.4939  1.2376
19379SOL    HW260145   5.676  10.715   2.340  1.6506 -0.2709  0.9861
19380SOL     OW60146   5.945   7.963   7.293  0.2215 -0.5633 -0.5099
19380SOL    HW160147   5.891   7.925   7.223 -0.4885 -0.8778  0.2035
19380SOL    HW260148   5.946   8.057   7.275 -1.1512 -0.4626 -0.1367
19381SOL     OW60149   3.239   6.040   0.824 -0.5306 -0.2673 -0.5152
19381SOL    HW160150   3.150   6.060   0.850  0.3769  1.8564  1.3314
19381SOL    HW260151   3.292   6.107   0.867  2.3127 -3.3314  1.2703
19382SOL     OW60152   5.134   9.398   0.128 -0.4609  0.0672 -0.0453
19382SOL    HW160153   5.219   9.441   0.127 -0.4032  0.0422 -2.3302
19382SOL    HW260154   5.086   9.441   0.198  1.0826  0.7903  0.6101
19383SOL     OW60155  10.214   3.620   5.799  0.4749 -0.2653  0.3433
19383SOL    HW160156  10.121   3.597   5.798  0.5241 -0.5299  0.9391
19383SOL    HW260157  10.219   3.695   5.858  0.4297  0.7785 -0.9670
19384SOL     OW60158   8.460   7.349   8.291  0.0175 -0.1616 -0.4229
19384SOL    HW160159   8.396   7.303   8.237  1.6720 -1.0040 -1.7856
19384SOL    HW260160   8.508   7.279   8.335  0.8844  0.3626 -0.5113
19385SOL     OW60161   6.244   0.456   6.594  0.1652 -0.1208 -0.3193
19385SOL    HW160162   6.294   0.380   6.564 -1.1213 -1.0609 -0.2090
19385SOL    HW260163   6.256   0.457   6.689 -1.7581 -1.7415  0.0219
19386SOL     OW60164   7.730   9.189   8.125 -0.1917  0.2121  0.2664
19386SOL    HW160165   7.759   9.247   8.196 -3.9493  1.0824  1.3391
19386SOL    HW260166   7.717   9.247   8.050  2.0981 -0.4248 -0.6988
19387SOL     OW60167   1.245   6.206   6.987  0.1608  0.0511  0.6630
19387SOL    HW160168   1.283   6.288   6.956 -0.7350  0.4005  0.4609
19387SOL    HW260169   1.189   6.176   6.915  1.3878 -1.3829  0.2370
19388SOL     OW60170   1.356   0.202   3.712 -0.0877 -0.4408  0.1014
19388SOL    HW160171   1.368   0.180   3.620 -2.7975 -0.4358 -0.3374
19388SOL    HW260172   1.349   0.118   3.756  2.1843 -0.4656  0.5345
19389SOL     OW60173   3.856   7.667  10.429  0.4089  0.3096  0.5600
19389SOL    HW160174   3.951   7.656  10.419  0.6545  1.0231  1.8942
19389SOL    HW260175   3.827   7.584  10.468  0.7393  0.6397  1.5478
19390SOL     OW60176   7.018   7.108   0.636  0.2672  0.2681  0.0426
19390SOL    HW160177   7.018   7.151   0.721 -2.6556  0.3935  0.0640
19390SOL    HW260178   6.990   7.018   0.655  1.4896 -0.2917 -0.6152
19391SOL     OW60179   9.068   5.912   3.850  0.7846 -0.1887  0.1914
19391SOL    HW160180   9.068   5.844   3.783  3.1297 -0.4443  0.3770
19391SOL    HW260181   9.030   5.870   3.927 -0.9452 -0.2124 -0.6321
19392SOL     OW60182   6.121   0.185   5.908  0.1182  0.3598 -0.6135
19392SOL    HW160183   6.159   0.201   5.995  0.6944 -1.9742 -0.3667
19392SOL    HW260184   6.040   0.138   5.926  0.9246 -1.3683 -1.3459
19393SOL     OW60185   2.485   9.618   1.578 -0.4862 -0.3917 -0.5438
19393SOL    HW160186   2.533   9.610   1.660 -0.7849 -1.9131 -0.4711
19393SOL    HW260187   2.395   9.594   1.601 -0.5019 -1.1762 -1.3633
19394SOL     OW60188   9.090   5.237   6.378 -0.1340 -0.5149 -0.2282
19394SOL    HW160189   9.064   5.279   6.296  0.4928 -0.7766 -0.5719
19394SOL    HW260190   9.112   5.309   6.436 -1.0387 -0.3097 -0.1207
19395SOL     OW60191   1.247   8.471   3.709 -0.4254 -0.0128  0.4589
19395SOL    HW160192   1.311   8.538   3.685 -0.4488  0.2132  1.0339
19395SOL    HW260193   1.253   8.407   3.637  0.4434  0.0038  0.4986
19396SOL     OW60194   6.878   8.559  10.043 -0.6918  0.4865 -0.4262
19396SOL    HW160195   6.944   8.600   9.987  0.5532 -0.5567  0.2383
19396SOL    HW260196   6.887   8.466  10.026 -2.6517  0.3651 -0.9934
19397SOL     OW60197   3.494   8.507   0.621  0.2007  0.2350  0.0410
19397SOL    HW160198   3.417   8.497   0.564  0.0073  0.7015  0.2129
19397SOL    HW260199   3.560   8.546   0.564  1.2554 -2.6627 -0.8783
19398SOL     OW60200   1.036   9.666   5.274 -0.4617  0.0179  0.5349
19398SOL    HW160201   1.083   9.601   5.327  0.5533  0.6146  0.3919
19398SOL    HW260202   1.104   9.710   5.223 -1.3917 -0.4403 -1.1981
19399SOL     OW60203   7.106   9.114   4.251  0.0394 -0.5461  0.1468
19399SOL    HW160204   7.061   9.122   4.335  0.1190 -0.7138  0.2081
19399SOL    HW260205   7.076   9.188   4.199 -0.0765 -0.4908  0.2938
19400SOL     OW60206   9.058   6.801   7.232  0.4623 -0.5532  0.2895
19400SOL    HW160207   8.981   6.836   7.187 -0.3930 -2.7769 -0.1349
19400SOL    HW260208   9.098   6.742   7.168  2.3435  0.2408  0.6464
19401SOL     OW60209   9.106   8.112   7.715  0.2612  0.1969 -0.1843
19401SOL    HW160210   9.196   8.080   7.718 -0.0800 -0.7604  0.4757
19401SOL    HW260211   9.062   8.053   7.653 -0.0444  0.3124 -0.0774
19402SOL     OW60212   0.938   3.299   3.352  0.1006 -0.6291  0.5787
19402SOL    HW160213   0.882   3.350   3.411  0.4182 -0.4968  0.7690
19402SOL    HW260214   0.879   3.235   3.313 -0.2302 -0.3521  0.6145
19403SOL     OW60215   8.767   2.520   0.447  0.7593 -0.2724 -0.1731
19403SOL    HW160216   8.830   2.558   0.508  0.5168  0.2116 -0.2181
19403SOL    HW260217   8.729   2.595   0.402 -0.5067 -0.4794  0.4916
19404SOL     OW60218   0.044   5.006   4.491 -0.2212 -0.2534 -0.7700
19404SOL    HW160219  -0.019   5.001   4.419 -0.4279  2.9445 -0.9645
19404SOL    HW260220   0.127   5.030   4.449  0.2304 -0.6403 -0.1321
19405SOL     OW60221   9.449   2.636   2.238  0.2870 -0.0710  0.0874
19405SOL    HW160222   9.453   2.567   2.305  1.3375  1.0707  1.2726
19405SOL    HW260223   9.382   2.607   2.177  0.5732 -2.0413  0.6570
19406SOL     OW60224   9.820   4.808   0.687  0.0257 -0.1983  0.4227
19406SOL    HW160225   9.736   4.854   0.691  0.7862  1.4628 -1.1866
19406SOL    HW260226   9.827   4.764   0.772 -1.4931  1.3629  1.4331
19407SOL     OW60227   6.427   7.468   2.626  0.3424  0.1315  0.0548
19407SOL    HW160228   6.451   7.444   2.536  1.8003  0.5699  0.3030
19407SOL    HW260229   6.456   7.394   2.679 -1.5958 -0.6840  0.0938
19408SOL     OW60230   2.220   1.039   5.256 -0.4171  0.2628 -0.1503
19408SOL    HW160231   2.305   1.036   5.211  0.9244 -0.7552  2.2139
19408SOL    HW260232   2.237   1.088   5.336 -2.0249 -0.0888  0.4508
19409SOL     OW60233   8.639   9.008   5.774 -0.1206  0.3353 -0.1585
19409SOL    HW160234   8.722   9.043   5.741 -0.2233  0.5926 -0.1498
19409SOL    HW260235   8.579   9.017   5.701 -0.1506  0.1875 -0.1510
19410SOL     OW60236   9.049   8.050   0.610 -0.0932 -0.3454  0.2154
19410SOL    HW160237   9.020   7.994   0.537  0.0749 -2.1017  1.4381
19410SOL    HW260238   8.969   8.090   0.643 -0.2166  0.1790 -0.6608
19411SOL     OW60239  10.591   9.535   4.707 -0.6581 -0.0692 -1.1280
19411SOL    HW160240  10.588   9.620   4.750  1.2505 -0.2914 -0.4370
19411SOL    HW260241  10.607   9.473   4.778  0.3777 -0.6968 -1.8768
19412SOL     OW60242   6.817   7.295   9.963  0.2298  0.0608  0.2111
19412SOL    HW160243   6.829   7.300  10.058 -0.6893 -0.4416  0.3772
19412SOL    HW260244   6.865   7.370   9.928  0.0455  0.6274  1.1312
19413SOL     OW60245   4.446   1.667   1.444  0.2109 -0.3172  0.3247
19413SOL    HW160246   4.535   1.637   1.424  0.3176  0.3613 -0.2736
19413SOL    HW260247   4.414   1.702   1.361  0.6155  2.5213  1.2557
19414SOL     OW60248   4.887   7.555  10.277  0.1914  0.1559 -0.0314
19414SOL    HW160249   4.869   7.464  10.297  0.2385  0.2014  0.2258
19414SOL    HW260250   4.937   7.553  10.195  0.0813 -0.0392 -0.0933
19415SOL     OW60251   5.965   8.200   1.641  0.1592  0.1555 -0.1502
19415SOL    HW160252   5.905   8.214   1.715 -2.3344  1.2901 -2.2389
19415SOL    HW260253   5.938   8.117   1.603  1.1811 -0.2371 -0.0542
19416SOL     OW60254   6.830   6.835   2.591  0.3633  0.2270  0.4411
19416SOL    HW160255   6.812   6.878   2.508 -0.3988  1.5216  1.2300
19416SOL    HW260256   6.924   6.845   2.605  0.8800 -1.7933 -1.1828
19417SOL     OW60257   9.413   9.165   0.046 -0.3859  0.4619  0.2702
19417SOL    HW160258   9.437   9.257   0.056 -0.2468  0.5021 -0.3678
19417SOL    HW260259   9.328   9.157   0.089  0.8358  0.2536  2.8474
19418SOL     OW60260   3.399   7.171   0.497  0.2848  0.3100  0.2709
19418SOL    HW160261   3.357   7.199   0.578  1.8593  0.0779  1.2047
19418SOL    HW260262   3.453   7.096   0.522  1.2796  0.6101 -0.8473
19419SOL     OW60263   2.386   0.965   9.271 -0.0849 -1.1301 -0.4125
19419SOL    HW160264   2.462   1.015   9.239  0.2383 -0.1755  1.6666
19419SOL    HW260265   2.311   1.006   9.227  0.3887 -0.3362 -0.5085
19420SOL     OW60266   0.494   8.322   7.554  0.8952  0.0768  0.2060
19420SOL    HW160267   0.575   8.374   7.561  0.1120  1.1705  1.7439
19420SOL    HW260268   0.446   8.362   7.481  0.7233  0.9307  0.7730
19421SOL     OW60269   1.831   6.727   4.896 -0.1789  0.5564  0.1351
19421SOL    HW160270   1.838   6.823   4.902  0.7622  0.6192 -1.4175
19421SOL    HW260271   1.913   6.700   4.856 -0.4342 -0.9197  0.5739
19422SOL     OW60272   4.351   2.196  10.230  0.2649  0.3625 -0.0020
19422SOL    HW160273   4.268   2.169  10.192  0.0076 -2.3077  2.1481
19422SOL    HW260274   4.335   2.201  10.324  2.6598 -0.9334  0.5661
19423SOL     OW60275   2.468   0.565   8.838 -0.0552  0.0313  0.3598
19423SOL    HW160276   2.410   0.489   8.833 -0.5864  0.3266  1.6683
19423SOL    HW260277   2.491   0.572   8.930  0.8957  0.7908  0.0783
19424SOL     OW60278   4.961  10.984   0.554  0.0243 -0.3152  0.2889
19424SOL    HW160279   5.013  10.917   0.508 -0.9579  0.5788 -2.3474
19424SOL    HW260280   5.017  11.061   0.556  0.2160 -0.4674  1.0100
19425SOL     OW60281   5.861   9.523   5.768  0.0764 -0.7901 -0.0744
19425SOL    HW160282   5.854   9.572   5.850  0.1267  0.1905 -0.6502
19425SOL    HW260283   5.955   9.503   5.760  0.9949  3.4319 -2.3122
19426SOL     OW60284  10.279   8.676   3.923 -0.3781 -0.0885 -0.1371
19426SOL    HW160285  10.347   8.723   3.970 -0.9832  0.0798  0.5849
19426SOL    HW260286  10.317   8.659   3.836  0.9428 -0.8515  0.5580
19427SOL     OW60287   3.797   2.040  10.611  0.2140  0.1998 -0.0456
19427SOL    HW160288   3.844   2.034  10.695 -0.5830 -1.1657  0.3531
19427SOL    HW260289   3.794   2.133  10.591  0.5320  0.5432  1.3986
19428SOL     OW60290   8.273   9.810   7.687 -0.0198  0.0478 -0.5094
19428SOL    HW160291   8.320   9.732   7.716  0.6555  0.3389 -0.8124
19428SOL    HW260292   8.338   9.861   7.638 -0.6486  0.4471 -0.9439
19429SOL     OW60293   9.224   8.752   1.205  0.0739  0.3801  0.4538
19429SOL    HW160294   9.295   8.816   1.204  0.7673 -0.3205 -1.9476
19429SOL    HW260295   9.165   8.781   1.135 -0.4019 -0.7501  0.3623
19430SOL     OW60296   7.048   1.349  10.670  0.3880 -0.2721  0.1118
19430SOL    HW160297   7.137   1.336  10.638 -0.2127 -2.6705 -0.8361
19430SOL    HW260298   6.992   1.325  10.596 -1.0551  0.5984  0.8780
19431SOL     OW60299   3.932   7.187   7.275 -0.3426  0.3765  0.2583
19431SOL    HW160300   3.887   7.105   7.296 -0.0119  0.1607  0.1293
19431SOL    HW260301   4.024   7.169   7.293 -0.2560  0.6858  0.1242
19432SOL     OW60302   1.171   7.297   4.691  0.0856 -0.0893 -0.2161
19432SOL    HW160303   1.114   7.351   4.636  1.6559  1.6411 -0.2634
19432SOL    HW260304   1.120   7.282   4.771 -0.2970  1.8659 -0.0344
19433SOL     OW60305   3.247   7.503   8.346  0.0944 -0.3394  0.2732
19433SOL    HW160306   3.338   7.481   8.325 -0.0660 -0.7387 -0.0275
19433SOL    HW260307   3.244   7.598   8.343  0.1530 -0.3717 -1.2133
19434SOL     OW60308   6.926  10.600   3.345  0.0904 -0.5557 -0.0300
19434SOL    HW160309   6.944  10.507   3.354 -0.8069 -0.7210  0.1940
19434SOL    HW260310   7.008  10.638   3.314  0.5679 -1.3631  0.2195
19435SOL     OW60311   1.433   3.722   0.232  0.3599 -0.1209  0.4869
19435SOL    HW160312   1.466   3.732   0.143  0.3236 -0.1579  0.4694
19435SOL    HW260313   1.389   3.805   0.251  1.4834  0.3929  0.9400
19436SOL     OW60314  10.710   0.773   3.104  0.3906 -0.6662  0.1176
19436SOL    HW160315  10.663   0.790   3.022 -0.9279 -2.3365  0.4872
19436SOL    HW260316  10.698   0.680   3.120 -1.0135 -0.0877  3.1846
19437SOL     OW60317   4.681   0.140  10.734  0.0180  0.4695  0.0042
19437SOL    HW160318   4.620   0.074  10.701  0.5600 -0.4205  0.7755
19437SOL    HW260319   4.661   0.218  10.682 -1.5081  0.0805 -0.0265
19438SOL     OW60320   9.680   7.705   4.519  0.2726  0.0009  0.2052
19438SOL    HW160321   9.695   7.718   4.612 -0.9821  1.1780  0.2744
19438SOL    HW260322   9.727   7.776   4.476  2.1650 -1.4280 -0.2164
19439SOL     OW60323   7.917   8.156   2.550  0.2835  0.3150  0.2042
19439SOL    HW160324   7.839   8.166   2.496  0.2010  0.4313  0.3458
19439SOL    HW260325   7.951   8.245   2.561  0.5316  0.2483  0.0039
19440SOL     OW60326   3.776   9.001   9.806  0.0307  0.0693 -0.6427
19440SOL    HW160327   3.732   9.068   9.859  0.5221  0.0647 -0.2230
19440SOL    HW260328   3.820   8.945   9.870  1.9304  0.9602 -1.0931
19441SOL     OW60329   4.606   5.088   1.434 -0.2720  0.1821 -0.2406
19441SOL    HW160330   4.593   5.162   1.492  0.0879 -1.2111  1.6923
19441SOL    HW260331   4.518   5.066   1.402 -0.4690  0.9727 -0.2537
19442SOL     OW60332   2.477  10.956   8.620  0.8792  0.2046  0.4795
19442SOL    HW160333   2.464  11.051   8.613  1.2905  0.2987  0.9259
19442SOL    HW260334   2.393  10.923   8.652  0.5258  0.3376 -0.3015
19443SOL     OW60335  10.242   4.315  10.297 -0.4899 -0.5683  0.0812
19443SOL    HW160336  10.216   4.402  10.268 -2.0727 -0.9413  0.3236
19443SOL    HW260337  10.178   4.291  10.364 -0.9850 -2.5027 -0.9966
19444SOL     OW60338  10.733   1.982   1.951  0.3635  0.0214  0.3982
19444SOL    HW160339  10.806   1.929   1.984 -1.1436 -1.4964  1.4869
19444SOL    HW260340  10.743   2.066   1.994  0.2633 -0.8982  2.3553
19445SOL     OW60341  10.840   4.935   9.308 -0.8617  0.2281 -0.2294
19445SOL    HW160342  10.834   5.012   9.365  1.8971  0.2797  0.0878
19445SOL    HW260343  10.753   4.930   9.267 -2.0303  1.8417  1.8114
19446SOL     OW60344   8.455   6.933   8.921 -0.4118 -0.4280 -0.5454
19446SOL    HW160345   8.490   7.002   8.977 -3.3885  1.1170 -0.4035
19446SOL    HW260346   8.488   6.852   8.960  1.1076  0.7784  0.8141
19447SOL     OW60347   0.173   3.403   7.761  0.1600  0.5509 -0.0459
19447SOL    HW160348   0.190   3.472   7.697  0.0650  0.5453 -0.0770
19447SOL    HW260349   0.085   3.373   7.741  1.3176 -1.7987 -2.1289
19448SOL     OW60350   3.019   7.479   6.895  0.1621  0.6319 -0.2047
19448SOL    HW160351   3.068   7.453   6.817  1.2839  1.0526  0.3304
19448SOL    HW260352   2.927   7.469   6.871  0.5095 -0.0456 -1.2910
19449SOL     OW60353  10.324   2.572   6.852  0.2069  0.2111  0.3930
19449SOL    HW160354  10.233   2.546   6.863  0.5015 -0.2139  2.1343
19449SOL    HW260355  10.322   2.638   6.783 -1.2820 -0.4549 -0.2446
19450SOL     OW60356   9.410   5.287   5.639 -0.3828  0.2115 -0.3287
19450SOL    HW160357   9.340   5.223   5.639 -0.3758  0.2029 -0.2207
19450SOL    HW260358   9.411   5.323   5.550  0.2340 -0.6165 -0.6633
19451SOL     OW60359   7.306   4.989   8.792  0.1402 -0.3056  0.4012
19451SOL    HW160360   7.311   4.941   8.710 -1.7094  0.9263 -0.5050
19451SOL    HW260361   7.277   5.076   8.767  0.5682  0.4288  2.2805
19452SOL     OW60362   2.734   7.581   7.451 -0.1569  0.1009 -0.6244
19452SOL    HW160363   2.800   7.624   7.397 -0.5640  0.1608 -1.0824
19452SOL    HW260364   2.652   7.592   7.402 -0.5037  0.0179 -0.0745
19453SOL     OW60365   3.507   5.482  10.467 -0.0724 -0.2180  0.2558
19453SOL    HW160366   3.437   5.489  10.402 -0.8009 -1.0048  0.9198
19453SOL    HW260367   3.479   5.539  10.538  0.7988  0.7585 -0.1735
19454SOL     OW60368   3.851   7.142  10.338 -0.1846  0.2816  0.3067
19454SOL    HW160369   3.793   7.154  10.262  0.5994 -1.8656 -0.6993
19454SOL    HW260370   3.869   7.048  10.340  1.8690  0.6433  1.6456
19455SOL     OW60371   8.257   9.424  10.434 -0.1390  0.9715 -0.0234
19455SOL    HW160372   8.235   9.338  10.469  1.4716  0.9565  1.0331
19455SOL    HW260373   8.194   9.484  10.475  0.2641  0.6301  1.1198
19456SOL     OW60374   5.057  10.027   5.058 -0.4717 -0.0133 -0.1439
19456SOL    HW160375   5.011   9.946   5.081 -1.8564  0.9987  0.8127
19456SOL    HW260376   5.109  10.047   5.136  1.2842 -0.8779 -1.0337
19457SOL     OW60377   0.531   1.000   3.762 -0.2079 -0.2467  0.3675
19457SOL    HW160378   0.478   0.924   3.739  1.6287 -1.3521 -0.4649
19457SOL    HW260379   0.602   1.000   3.699  2.5243 -0.6740  3.1847
19458SOL     OW60380   4.239   9.476   7.095 -0.7653 -0.2808 -0.0722
19458SOL    HW160381   4.167   9.429   7.053 -1.3990 -0.4541  1.1472
19458SOL    HW260382   4.287   9.408   7.142  0.9518 -0.3644 -1.8304
19459SOL     OW60383   3.500   8.907   3.149  0.0186 -0.0278  0.1962
19459SOL    HW160384   3.460   8.820   3.160  0.3989 -0.7631 -3.2289
19459SOL    HW260385   3.589   8.896   3.182  0.1881 -1.0946 -0.5499
19460SOL     OW60386   0.944   5.833   5.497  0.3275  0.3007  0.1738
19460SOL    HW160387   0.914   5.866   5.412 -0.5870  0.7032  0.6342
19460SOL    HW260388   1.036   5.812   5.484 -0.1102 -0.8754 -1.2832
19461SOL     OW60389   1.964   9.441   3.476 -0.1891  0.2498 -0.0990
19461SOL    HW160390   1.876   9.403   3.481 -0.7928  1.4609 -0.9169
19461SOL    HW260391   2.016   9.391   3.538 -1.5072 -0.3725  0.5328
19462SOL     OW60392   2.720   4.372   8.202 -0.6211  0.5240 -0.0586
19462SOL    HW160393   2.724   4.294   8.147  0.2888 -0.2732  1.0911
19462SOL    HW260394   2.632   4.371   8.240 -0.3004 -0.5124  0.7099
19463SOL     OW60395   2.806   8.949   3.982  0.0292 -0.1908 -0.3669
19463SOL    HW160396   2.775   8.889   4.050 -0.6675  2.2599  1.6559
19463SOL    HW260397   2.900   8.934   3.978  0.1295 -0.2208  1.3848
19464SOL     OW60398   7.211   6.008   3.385  0.1275  0.5935 -0.0434
19464SOL    HW160399   7.195   6.005   3.291  0.0150 -0.0929 -0.0120
19464SOL    HW260400   7.268   5.933   3.402 -0.1902  0.4652  0.4915
19465SOL     OW60401  10.925   1.125   6.769  0.4272  0.1776 -0.0988
19465SOL    HW160402  10.911   1.199   6.710  0.1383  1.2487  1.2679
19465SOL    HW260403  11.020   1.119   6.777  0.4469  0.5919  0.0090
19466SOL     OW60404   7.486   1.931   3.867 -0.3811 -0.1614  0.4262
19466SOL    HW160405   7.563   1.907   3.817 -0.7659 -0.3487 -0.0819
19466SOL    HW260406   7.512   2.010   3.916 -0.1682  0.3218 -0.4528
19467SOL     OW60407   3.951   3.311   5.618  0.2334  0.0824  0.1601
19467SOL    HW160408   3.883   3.250   5.644 -1.0179  1.1204 -0.5722
19467SOL    HW260409   4.008   3.261   5.560 -0.5467 -0.4959 -0.1172
19468SOL     OW60410   3.712   1.171   0.733 -0.1271 -0.0914 -0.1972
19468SOL    HW160411   3.730   1.264   0.738 -0.7497  0.1368 -1.6543
19468SOL    HW260412   3.796   1.129   0.748  0.1230  0.6826  0.6557
19469SOL     OW60413   2.414  10.367   8.213  0.2837 -0.1004 -0.4508
19469SOL    HW160414   2.335  10.329   8.252 -0.2499  1.5560  0.1611
19469SOL    HW260415   2.480  10.360   8.282 -0.1797  1.2320  0.1603
19470SOL     OW60416   5.784   4.391  10.617  0.0299 -0.4575 -0.3625
19470SOL    HW160417   5.711   4.334  10.593  0.0511  0.0491 -1.7494
19470SOL    HW260418   5.773   4.406  10.711 -1.5197 -0.5827 -0.4923
19471SOL     OW60419   5.244   2.550  10.851 -0.1291  0.1098  0.0516
19471SOL    HW160420   5.245   2.542  10.756 -0.5220  1.0514 -0.0399
19471SOL    HW260421   5.330   2.588  10.872 -0.1716  0.2137  0.0388
19472SOL     OW60422   7.917   4.182   0.042 -0.0422 -0.1658  0.1680
19472SOL    HW160423   7.970   4.133  -0.021  1.7852  0.3569  1.2029
19472SOL    HW260424   7.884   4.116   0.102 -0.1773 -0.4615 -0.2337
19473SOL     OW60425   6.001   4.878   9.284 -0.2294  0.1592 -0.0784
19473SOL    HW160426   6.030   4.787   9.295 -0.9517  0.0232  0.8420
19473SOL    HW260427   5.919   4.872   9.235 -0.6713  0.2370  0.6248
19474SOL     OW60428   6.641  10.531   7.501  0.0330  0.1415  0.1940
19474SOL    HW160429   6.666  10.623   7.511 -0.0409  0.2737 -0.7451
19474SOL    HW260430   6.545  10.533   7.498 -0.0116 -0.0876  1.2336
19475SOL     OW60431   7.278   5.535   4.607 -0.0214 -0.1002  0.1811
19475SOL    HW160432   7.240   5.475   4.671  0.0604  0.1562  0.4724
19475SOL    HW260433   7.367   5.502   4.592  0.4874  0.6892  1.3238
19476SOL     OW60434   7.551   1.581   8.205 -0.1045  0.0127  0.4389
19476SOL    HW160435   7.585   1.650   8.148 -0.2494  1.5489  2.1111
19476SOL    HW260436   7.585   1.500   8.167  2.2626  1.1724 -0.1578
19477SOL     OW60437   2.393   7.406   9.171  0.3997 -0.1674 -0.2211
19477SOL    HW160438   2.480   7.383   9.139  0.6168  2.7773 -2.2128
19477SOL    HW260439   2.408   7.440   9.260  1.4126  0.7481 -0.7209
19478SOL     OW60440   3.379   6.655   4.562 -0.2077 -0.0951  0.0085
19478SOL    HW160441   3.303   6.681   4.614 -0.1914  0.1725 -0.0963
19478SOL    HW260442   3.407   6.571   4.599  0.4897  0.6267  1.1942
19479SOL     OW60443   4.539   5.116   3.280 -0.1166  0.4342  0.1408
19479SOL    HW160444   4.594   5.053   3.326 -0.9414 -0.2994  0.1632
19479SOL    HW260445   4.513   5.072   3.199 -0.0157  1.0764 -0.2518
19480SOL     OW60446   1.504   9.041   9.985 -0.7776  0.2394  0.3803
19480SOL    HW160447   1.466   8.993  10.058 -1.2869 -0.4070 -0.2998
19480SOL    HW260448   1.494   8.983   9.909 -0.1851  0.8600 -0.1942
19481SOL     OW60449   2.351   4.538   5.235 -0.2599  0.2314 -0.2894
19481SOL    HW160450   2.428   4.582   5.269  0.4973 -0.9915 -0.3520
19481SOL    HW260451   2.307   4.503   5.313 -0.6312  0.7160 -0.2744
19482SOL     OW60452   5.943   3.173   6.896  0.0567  0.3607 -0.1121
19482SOL    HW160453   5.976   3.136   6.978 -1.1251 -1.8863 -0.5710
19482SOL    HW260454   5.856   3.207   6.918 -0.1789 -0.0632 -0.3709
19483SOL     OW60455   6.340   0.697   3.133  0.7274 -0.3965  0.1591
19483SOL    HW160456   6.318   0.784   3.098 -0.3200 -0.5865  0.3361
19483SOL    HW260457   6.428   0.709   3.171  1.2590  0.1886 -1.1767
19484SOL     OW60458   6.957  10.999   0.748  0.3485 -0.0393 -0.5152
19484SOL    HW160459   6.865  10.975   0.752  0.1431  0.8331  0.4204
19484SOL    HW260460   6.987  10.997   0.839  1.8835 -2.5362 -0.9619
19485SOL     OW60461   6.112   5.008   0.231  0.3238  0.0937  0.0548
19485SOL    HW160462   6.044   4.947   0.202 -0.2669  0.6257  0.2991
19485SOL    HW260463   6.074   5.051   0.307 -0.2267  2.4156 -1.4221
19486SOL     OW60464   0.184   4.667   8.961  0.0869  0.0907 -0.5198
19486SOL    HW160465   0.154   4.694   8.875  1.2472  1.5150 -0.5115
19486SOL    HW260466   0.203   4.574   8.952 -0.7330  0.0091 -1.5242
19487SOL     OW60467   7.448   7.480  10.614  0.2695 -0.5239  0.3693
19487SOL    HW160468   7.500   7.517  10.542  0.6491 -1.0888  0.3446
19487SOL    HW260469   7.513   7.463  10.683 -0.2777  1.3357  1.4171
19488SOL     OW60470   8.352   7.011   0.350 -0.2820 -0.0255 -0.1532
19488SOL    HW160471   8.264   7.048   0.344 -0.8856 -1.3489  0.0603
19488SOL    HW260472   8.381   7.003   0.259 -1.2298 -1.4225 -0.3804
19489SOL     OW60473   6.386   4.557   2.961  0.1597 -0.3290 -0.1857
19489SOL    HW160474   6.481   4.551   2.966  0.2758  1.6883  2.1957
19489SOL    HW260475   6.365   4.538   2.870  3.0220  1.1721 -1.2733
19490SOL     OW60476   5.405   1.005   0.728 -0.3117  0.1183  0.0097
19490SOL    HW160477   5.366   1.012   0.815 -0.0856 -0.6417  0.1812
19490SOL    HW260478   5.459   0.926   0.732 -1.4184 -0.7738 -1.2388
19491SOL     OW60479   6.075   4.173   7.889 -0.1274 -0.1945 -0.3795
19491SOL    HW160480   6.109   4.085   7.905  0.2719 -0.2787 -1.5604
19491SOL    HW260481   6.057   4.174   7.795  0.7831  1.2938 -0.5682
19492SOL     OW60482   0.809   6.101   6.769 -0.0815 -1.0882  0.5991
19492SOL    HW160483   0.787   6.008   6.773 -2.4715 -0.5702  1.2076
19492SOL    HW260484   0.770   6.139   6.848  0.9303  0.4092  0.4204
19493SOL     OW60485   8.737   6.866   4.484 -0.0245  0.0334  0.6000
19493SOL    HW160486   8.698   6.805   4.547 -0.5311 -0.7912 -0.4867
19493SOL    HW260487   8.678   6.941   4.483  0.4673  0.4640  1.7600
19494SOL     OW60488   6.523   4.831   9.825  0.7322  0.5740  0.2024
19494SOL    HW160489   6.516   4.852   9.918 -0.7325  1.1188  0.0010
19494SOL    HW260490   6.584   4.895   9.790 -0.1841  1.6149  0.4562
19495SOL     OW60491  10.413   7.013   9.016 -0.4706  0.3075  0.1841
19495SOL    HW160492  10.435   7.038   9.105  1.0008  0.2344 -0.1316
19495SOL    HW260493  10.405   6.918   9.018 -0.3323  0.2964  0.2294
19496SOL     OW60494   2.827   5.125   4.416 -0.2481  0.3400 -0.5378
19496SOL    HW160495   2.919   5.154   4.410  0.1001 -0.9378 -1.7846
19496SOL    HW260496   2.825   5.041   4.371 -2.2206  0.7356 -1.2980
19497SOL     OW60497   9.637   4.679   8.796  0.3025  0.6362  0.7543
19497SOL    HW160498   9.622   4.585   8.787  0.0237  0.8006 -0.7140
19497SOL    HW260499   9.731   4.690   8.777  0.4354  0.6048  1.3821
19498SOL     OW60500   9.256  10.766   4.988  0.3584  0.3003  0.0708
19498SOL    HW160501   9.235  10.824   5.061  0.9570 -0.5902  0.9870
19498SOL    HW260502   9.179  10.711   4.978 -0.1353  1.0955 -0.6758
19499SOL     OW60503   0.745   6.248   2.768  0.6693 -0.2357  0.0716
19499SOL    HW160504   0.790   6.164   2.772 -1.1601 -1.2816 -0.1241
19499SOL    HW260505   0.659   6.227   2.732  0.6611  1.9475 -1.3138
19500SOL     OW60506   4.225   4.218   8.744  0.4080 -0.1106  0.2368
19500SOL    HW160507   4.227   4.170   8.661  1.1653 -1.5283  1.0340
19500SOL    HW260508   4.239   4.151   8.811 -0.7725  0.9193  1.5697
19501SOL     OW60509   7.081   8.647   2.072 -0.2175  0.4008 -0.7386
19501SOL    HW160510   7.155   8.600   2.033 -1.9951 -2.1636 -1.2682
19501SOL    HW260511   7.050   8.589   2.141 -0.8474  2.1392  0.5109
19502SOL     OW60512   0.591   5.958   8.074  0.3350  0.7843  0.0732
19502SOL    HW160513   0.683   5.933   8.065 -0.3322 -1.6973 -0.4282
19502SOL    HW260514   0.566   5.989   7.987  0.4844  0.6943 -0.0021
19503SOL     OW60515   5.736   3.536   8.166  0.4180  0.0984 -0.3712
19503SOL    HW160516   5.785   3.611   8.201 -0.4265  0.2219  0.5808
19503SOL    HW260517   5.787   3.460   8.191 -0.1155  0.1901  1.0840
19504SOL     OW60518   8.150   4.079   9.298  0.3145 -0.4581  0.0929
19504SOL    HW160519   8.081   4.141   9.319  0.9211  0.0574  0.5812
19504SOL    HW260520   8.136   4.005   9.358  0.5885 -0.0522  0.6659
19505SOL     OW60521   7.137   7.916   1.593  0.4243 -0.0952 -0.4246
19505SOL    HW160522   7.147   7.986   1.529  0.2792 -1.7826 -2.4160
19505SOL    HW260523   7.051   7.930   1.631  1.0077  1.6461  0.3841
19506SOL     OW60524   3.888   1.159   0.420 -0.1412 -0.0252 -0.1289
19506SOL    HW160525   3.962   1.163   0.358 -0.6793  0.1334 -0.7716
19506SOL    HW260526   3.915   1.093   0.484  0.6643  0.2014 -0.2134
19507SOL     OW60527   5.800   8.856   2.268 -0.3032  0.2944  0.1054
19507SOL    HW160528   5.825   8.937   2.311  2.9185 -0.2274 -0.5229
19507SOL    HW260529   5.834   8.787   2.326  0.1252 -0.5036 -1.0604
19508SOL     OW60530   5.057   8.827   3.812  0.4273 -0.0649  0.2355
19508SOL    HW160531   4.964   8.850   3.804  0.6219  1.4253  1.7530
19508SOL    HW260532   5.101   8.911   3.823  1.7742 -0.8640  1.1780
19509SOL     OW60533   2.472   4.461   3.486  0.1111  0.3086  0.0791
19509SOL    HW160534   2.399   4.432   3.430  1.1643 -0.8590 -0.7446
19509SOL    HW260535   2.512   4.533   3.437  0.4441 -0.0782 -0.2283
19510SOL     OW60536   1.694   1.790   2.961  0.5400 -0.1332 -0.3756
19510SOL    HW160537   1.752   1.865   2.972  0.2497  0.3019 -1.6173
19510SOL    HW260538   1.688   1.777   2.866 -2.3653  0.6450 -0.4114
19511SOL     OW60539   1.065   7.459   7.920 -0.1448 -0.2811  0.0673
19511SOL    HW160540   1.007   7.515   7.869 -0.9450 -2.2032 -1.2241
19511SOL    HW260541   1.112   7.520   7.977 -1.4642  1.6133 -0.7588
19512SOL     OW60542   6.110   6.302  10.803  0.4649  0.6268  0.1079
19512SOL    HW160543   6.199   6.290  10.770  0.6541  0.5131  0.6376
19512SOL    HW260544   6.108   6.250  10.884 -0.8182 -1.3372 -1.1132
19513SOL     OW60545   0.123  10.616   7.589  0.2501 -0.0368 -0.0142
19513SOL    HW160546   0.100  10.667   7.667 -1.0206 -0.5397 -0.0367
19513SOL    HW260547   0.179  10.675   7.538  0.4287  0.5983  0.8829
19514SOL     OW60548   0.083   8.426   7.952 -0.5516 -0.5115 -0.3519
19514SOL    HW160549   0.030   8.409   7.874 -0.3102 -2.2758 -0.1680
19514SOL    HW260550   0.067   8.350   8.008  1.2053 -0.4726  0.2474
19515SOL     OW60551   4.114   4.430   2.928 -0.3365  0.3180 -0.7503
19515SOL    HW160552   4.028   4.471   2.923 -1.6293 -1.8831  1.1445
19515SOL    HW260553   4.103   4.347   2.882  0.9721  0.3002 -1.0541
19516SOL     OW60554   3.027   0.411   6.821  0.2460 -0.0955  0.3126
19516SOL    HW160555   2.997   0.497   6.850 -1.9056  0.0378 -2.0215
19516SOL    HW260556   3.103   0.430   6.766  0.2544  0.2113  0.4250
19517SOL     OW60557   1.020   3.178   4.118  0.1358  0.7980 -0.4911
19517SOL    HW160558   1.048   3.237   4.189  2.1544  1.8824 -2.0790
19517SOL    HW260559   1.080   3.104   4.123 -1.3538 -0.4033  0.4635
19518SOL     OW60560   5.974   9.834   8.830 -0.2083 -0.3736 -0.0473
19518SOL    HW160561   6.001   9.836   8.738  0.4280 -1.1202  0.1159
19518SOL    HW260562   6.011   9.915   8.867  0.2911 -0.5113 -0.2418
19519SOL     OW60563   7.298   2.289   6.952 -0.9170  0.1388  0.1599
19519SOL    HW160564   7.349   2.282   7.033  1.0287 -0.7217 -1.0851
19519SOL    HW260565   7.227   2.224   6.963  2.1083 -3.6915 -0.6697
19520SOL     OW60566   3.672   2.361   7.512  0.2154  0.3267  0.5782
19520SOL    HW160567   3.581   2.340   7.488  0.3252 -1.1675  1.3580
19520SOL    HW260568   3.717   2.369   7.428 -0.5478  0.7137  0.1915
19521SOL     OW60569   5.614  10.747   4.578 -0.2342  0.2168  0.5303
19521SOL    HW160570   5.551  10.767   4.509 -0.3467 -1.9618 -0.0757
19521SOL    HW260571   5.563  10.751   4.659 -0.9284 -0.5402  0.1417
19522SOL     OW60572   0.451   8.883   0.133 -0.4534  0.7027  0.0699
19522SOL    HW160573   0.444   8.912   0.224 -0.8632  0.7792  0.0181
19522SOL    HW260574   0.417   8.956   0.081 -1.5345  0.1455 -0.0572
19523SOL     OW60575   4.153  10.052   7.961  0.1218  0.6359 -0.2910
19523SOL    HW160576   4.137  10.122   7.898  1.1550  0.8586 -0.3303
19523SOL    HW260577   4.179  10.097   8.041 -1.8735  0.3809  0.5522
19524SOL     OW60578   3.999   7.083   5.049  0.2673 -0.6269 -0.0939
19524SOL    HW160579   3.968   6.996   5.074 -1.7376 -0.4073 -1.5592
19524SOL    HW260580   4.046   7.069   4.966 -2.2893 -0.0970 -1.7533
19525SOL     OW60581   5.868  10.492   4.427  0.2915 -0.8765  0.1208
19525SOL    HW160582   5.905  10.413   4.386 -0.0235 -0.9890  0.0500
19525SOL    HW260583   5.781  10.499   4.389  0.3951 -0.3729 -0.0315
19526SOL     OW60584   5.043   9.833   5.344 -0.1057  0.0822  0.3931
19526SOL    HW160585   4.991   9.783   5.281  0.8434  0.5926 -0.8425
19526SOL    HW260586   4.987   9.840   5.421 -0.8955 -1.4630  0.0039
19527SOL     OW60587   4.664   0.267   8.099 -0.1010  0.1703 -0.1485
19527SOL    HW160588   4.660   0.188   8.152  0.2650  0.8373  0.8886
19527SOL    HW260589   4.674   0.338   8.162 -2.6578  1.2934 -0.8880
19528SOL     OW60590   9.892   3.974   9.381  0.2993 -0.3816 -0.1384
19528SOL    HW160591   9.916   4.007   9.295  1.5932 -0.5706  0.1219
19528SOL    HW260592   9.847   3.892   9.364  0.4600 -0.3665 -0.6453
19529SOL     OW60593   8.630   4.171   6.288  0.6286  0.6426 -0.0388
19529SOL    HW160594   8.713   4.129   6.266 -0.2756 -1.4383  0.2529
19529SOL    HW260595   8.565   4.101   6.280 -1.2392  2.3776 -1.0202
19530SOL     OW60596  10.512   5.044   3.463  0.1125  0.2406 -0.2389
19530SOL    HW160597  10.432   4.999   3.493 -0.1185  0.7356 -0.1082
19530SOL    HW260598  10.552   5.077   3.543 -0.2837  1.1989 -0.4297
19531SOL     OW60599   3.234   9.102   2.710 -0.6025  0.0482 -0.2353
19531SOL    HW160600   3.307   9.161   2.728 -0.4416  0.1407 -1.1511
19531SOL    HW260601   3.181   9.104   2.790  0.3847 -0.0127  0.4417
19532SOL     OW60602   6.258   8.314   6.141 -0.1724  0.6866 -0.0732
19532SOL    HW160603   6.348   8.284   6.129 -0.5388 -0.6545  0.4055
19532SOL    HW260604   6.206   8.255   6.087 -1.1495 -1.1517  2.6636
19533SOL     OW60605  10.907   2.905  11.010  0.4329 -0.0447  0.4323
19533SOL    HW160606  10.861   2.930  10.930  0.2931 -1.6995 -0.0356
19533SOL    HW260607  10.997   2.888  10.981  0.6285  0.3188  0.8152
19534SOL     OW60608   0.283   1.928   1.889  0.1058  0.1362 -0.1298
19534SOL    HW160609   0.198   1.967   1.908  0.0204 -0.7680  1.5213
19534SOL    HW260610   0.335   1.944   1.967  1.0079 -0.5287 -0.5749
19535SOL     OW60611   0.363   9.550   0.732 -0.3128 -0.5747  0.3614
19535SOL    HW160612   0.311   9.475   0.703 -1.0322  0.2057 -0.4223
19535SOL    HW260613   0.452   9.516   0.739 -0.5504 -1.3991 -0.3696
19536SOL     OW60614   5.749   7.753  10.717 -0.6517 -0.1950 -0.8298
19536SOL    HW160615   5.688   7.694  10.761 -1.6718  0.2439 -1.6120
19536SOL    HW260616   5.779   7.812  10.786  1.4555 -2.3886  0.2925
19537SOL     OW60617   2.537   0.210   1.776 -0.1022 -0.4907  0.2301
19537SOL    HW160618   2.471   0.182   1.712 -0.0246  0.2077 -0.1743
19537SOL    HW260619   2.620   0.177   1.740  0.0514  0.6087 -0.4979
19538SOL     OW60620   1.810   3.389   7.250  0.3261  0.3882 -0.1463
19538SOL    HW160621   1.897   3.429   7.237  0.0039  0.5397 -2.3254
19538SOL    HW260622   1.829   3.299   7.275  1.0999  0.6828  0.3748
19539SOL     OW60623   0.942   4.977  10.126 -0.3413 -0.0860 -0.0367
19539SOL    HW160624   0.860   4.940  10.160 -0.3277 -0.3385 -0.2767
19539SOL    HW260625   0.918   5.066  10.098 -0.3543  0.1243  0.6162
19540SOL     OW60626   7.961   1.140   4.606  0.0357  0.1452  0.1553
19540SOL    HW160627   8.015   1.183   4.540  1.0644 -0.2576  0.7153
19540SOL    HW260628   7.920   1.211   4.655  1.1373  0.4856  0.6018
19541SOL     OW60629   9.261   8.934   3.589  0.0206 -0.5245 -0.1892
19541SOL    HW160630   9.208   8.862   3.552 -1.3446  1.2782 -1.9579
19541SOL    HW260631   9.274   8.994   3.516 -0.1357  1.7537  1.5514
19542SOL     OW60632  10.907   5.020  10.611  0.4743  0.3050 -0.4508
19542SOL    HW160633  10.959   4.941  10.601 -0.2708 -0.1244 -1.1143
19542SOL    HW260634  10.817   4.991  10.597  0.1121  1.1276  0.1116
19543SOL     OW60635   1.177   4.156   8.301 -0.0225  0.6028 -0.2256
19543SOL    HW160636   1.186   4.202   8.218 -2.4433 -0.4851 -1.1759
19543SOL    HW260637   1.252   4.096   8.303  0.0590  0.6285 -1.6140
19544SOL     OW60638   4.414   8.958   7.964  0.2636 -0.3116 -0.0101
19544SOL    HW160639   4.420   9.016   7.888  0.6516 -0.3315  0.0039
19544SOL    HW260640   4.324   8.926   7.962  0.5948 -1.2468 -1.1554
19545SOL     OW60641   1.169   8.485   6.667  0.1314 -0.1914 -0.0893
19545SOL    HW160642   1.142   8.393   6.666  0.9095 -0.4399  0.4086
19545SOL    HW260643   1.090   8.534   6.645 -0.6726 -0.9029  1.0980
19546SOL     OW60644   0.644   5.831   8.606  0.7501  0.4689  0.0511
19546SOL    HW160645   0.638   5.736   8.616  1.4680  0.2254 -1.6550
19546SOL    HW260646   0.692   5.844   8.525 -0.2574  2.2976 -0.2934
19547SOL     OW60647   1.776  10.843   0.083 -0.4792  0.1037  0.8383
19547SOL    HW160648   1.791  10.874  -0.007 -1.4900 -0.8312  0.3232
19547SOL    HW260649   1.785  10.922   0.137  0.3827  0.6401 -0.0429
19548SOL     OW60650   4.122   4.785   6.364  0.2524  1.1029  0.3467
19548SOL    HW160651   4.079   4.802   6.280  1.4188 -0.2916 -0.5710
19548SOL    HW260652   4.215   4.778   6.343  0.5448  0.5226  1.7237
19549SOL     OW60653   4.405   6.399   1.545 -0.3783  0.0742 -0.2570
19549SOL    HW160654   4.337   6.361   1.489 -0.5578 -0.5073  0.3446
19549SOL    HW260655   4.376   6.380   1.634  0.6015 -0.2414  0.0083
19550SOL     OW60656   3.298   6.254   9.884  0.0193 -0.5224 -0.5885
19550SOL    HW160657   3.271   6.336   9.925  1.4736 -1.4129  2.4730
19550SOL    HW260658   3.358   6.280   9.814  1.2797  1.0448  0.9866
19551SOL     OW60659   5.232   9.414   3.624 -0.0539 -0.4008 -1.1199
19551SOL    HW160660   5.231   9.323   3.594 -0.4295 -1.0721  0.7781
19551SOL    HW260661   5.155   9.421   3.681  1.4727  0.2734  0.9676
19552SOL     OW60662   4.228   5.345  10.008 -0.0839  0.5834 -0.1060
19552SOL    HW160663   4.291   5.310   9.945  0.8582  0.4045  0.9081
19552SOL    HW260664   4.275   5.415  10.054 -1.2438  1.7292 -0.6059
19553SOL     OW60665   4.841   8.751   1.317 -0.4073 -0.2754 -0.2494
19553SOL    HW160666   4.877   8.663   1.314  0.7754  0.2070 -0.8085
19553SOL    HW260667   4.746   8.738   1.320 -0.2169 -1.5681  0.9354
19554SOL     OW60668   1.254   4.689   3.329  0.0067 -0.3056  0.5240
19554SOL    HW160669   1.225   4.641   3.251 -1.1240  0.2663  0.5611
19554SOL    HW260670   1.342   4.719   3.308 -0.0175 -0.7616 -0.2570
19555SOL     OW60671   1.965   0.002   8.030 -0.6279 -0.3363  0.5204
19555SOL    HW160672   2.047   0.047   8.012 -2.3361  2.4791 -0.9573
19555SOL    HW260673   1.961  -0.005   8.125  0.6629  0.8052  0.6753
19556SOL     OW60674   7.970  10.791   8.117  0.3891  0.5041 -0.0273
19556SOL    HW160675   7.890  10.739   8.123  0.1869  0.8575  0.3501
19556SOL    HW260676   7.967  10.827   8.028 -1.1923  2.5948  0.7702
19557SOL     OW60677   7.406   6.094   5.598  0.0530 -0.2223 -0.4878
19557SOL    HW160678   7.341   6.039   5.641 -1.8355  1.4470 -1.0364
19557SOL    HW260679   7.441   6.040   5.527 -2.4279 -0.4458 -1.6143
19558SOL     OW60680   6.867   7.867   6.128 -0.0670  0.8996  0.3287
19558SOL    HW160681   6.838   7.909   6.047 -1.6727 -0.4648  0.1334
19558SOL    HW260682   6.901   7.782   6.100  0.8014  1.0235  0.9627
19559SOL     OW60683   8.028  10.660   5.136  0.7553 -0.2820  0.3964
19559SOL    HW160684   8.007  10.615   5.218 -3.0923 -0.0350 -0.2754
19559SOL    HW260685   7.991  10.748   5.146  0.5686 -0.1107 -1.4569
19560SOL     OW60686   4.065   3.612   6.253  0.1312  0.6271 -0.1899
19560SOL    HW160687   3.978   3.574   6.256 -0.0952  1.1758  0.3121
19560SOL    HW260688   4.094   3.598   6.162 -0.4796  0.4618 -0.3644
19561SOL     OW60689   9.973   1.361   6.208  0.2975  0.5858 -0.0745
19561SOL    HW160690  10.033   1.293   6.237 -0.6792 -0.1273  0.3235
19561SOL    HW260691   9.901   1.359   6.271  0.0824  1.7610 -0.2482
19562SOL     OW60692   8.904   0.622  10.851 -0.4632  0.0385 -0.5454
19562SOL    HW160693   8.828   0.659  10.805 -0.2365  0.1852 -0.8096
19562SOL    HW260694   8.913   0.677  10.929 -1.0677 -0.4361 -0.1296
19563SOL     OW60695   6.715   6.177  10.252 -0.1289  0.5142 -0.1022
19563SOL    HW160696   6.744   6.241  10.317  2.1128  0.7241 -1.2213
19563SOL    HW260697   6.682   6.231  10.180 -2.7564  0.2836  0.8102
19564SOL     OW60698   1.117   6.654   2.419 -0.9380  1.0070 -0.1912
19564SOL    HW160699   1.148   6.682   2.505 -1.6292  2.1621 -0.2899
19564SOL    HW260700   1.109   6.559   2.425  3.7278  0.3665 -0.5277
19565SOL     OW60701   9.147   8.988   8.453 -0.3282 -0.0346 -0.0249
19565SOL    HW160702   9.194   8.966   8.533 -0.3909 -1.0328 -0.2545
19565SOL    HW260703   9.057   9.005   8.482 -0.5936 -1.4083 -0.0006
19566SOL     OW60704   1.311   3.345   6.972  0.0507 -0.0729  0.6164
19566SOL    HW160705   1.290   3.252   6.969  1.4434 -0.3715 -0.2902
19566SOL    HW260706   1.387   3.351   7.030  0.1143  0.4724  0.4801
19567SOL     OW60707   4.918   2.415   8.146 -0.2063  0.0230  0.0484
19567SOL    HW160708   4.847   2.463   8.189  0.9355  0.9433  0.9681
19567SOL    HW260709   4.964   2.481   8.095  0.2307 -0.4833 -0.2184
19568SOL     OW60710   3.649  10.418  10.644 -0.2184 -0.2308 -0.5177
19568SOL    HW160711   3.613  10.424  10.732 -1.4098 -1.4674 -0.8696
19568SOL    HW260712   3.587  10.467  10.590 -0.9099 -1.5815 -1.0003
19569SOL     OW60713   0.358   4.861   2.013  0.0330  0.6408  0.4261
19569SOL    HW160714   0.377   4.921   1.941  0.4342 -0.0987 -0.1062
19569SOL    HW260715   0.269   4.830   1.995  0.6440 -0.6436 -0.5961
19570SOL     OW60716   3.021   3.464   0.556 -0.1503  0.2034 -0.7344
19570SOL    HW160717   3.115   3.456   0.573 -0.0378 -0.6460 -1.6841
19570SOL    HW260718   2.999   3.385   0.507 -1.1236  0.9980 -1.6001
19571SOL     OW60719   5.727   0.929   7.778 -0.2608  0.1676 -0.6396
19571SOL    HW160720   5.641   0.898   7.750  0.2042  0.3700 -2.4610
19571SOL    HW260721   5.711   0.980   7.857 -1.9646  1.1285 -1.5675
19572SOL     OW60722   8.453   4.762  10.881 -0.1241 -0.3894  0.1937
19572SOL    HW160723   8.481   4.777  10.971  0.6144 -1.9612  0.2588
19572SOL    HW260724   8.526   4.795  10.828 -0.0321 -0.5577  0.2155
19573SOL     OW60725   5.962   7.157   6.980 -0.2666 -0.5558  0.0675
19573SOL    HW160726   6.037   7.099   6.967 -0.2539 -0.6941  0.7052
19573SOL    HW260727   5.923   7.167   6.893  1.2904  0.6270 -0.5411
19574SOL     OW60728   2.736   2.478   3.019  0.6810  0.8232 -0.0939
19574SOL    HW160729   2.757   2.571   3.011  2.2734  0.5512  0.5626
19574SOL    HW260730   2.748   2.443   2.931  2.0728  0.8828  0.0481
19575SOL     OW60731   2.330   8.492   5.495  0.0787 -0.1852  0.2589
19575SOL    HW160732   2.305   8.584   5.506 -0.5012 -0.2053 -0.7526
19575SOL    HW260733   2.271   8.459   5.428  0.8251 -1.0824  0.0202
19576SOL     OW60734   6.420   1.345   2.516 -0.1829 -0.3385 -0.4017
19576SOL    HW160735   6.356   1.383   2.456 -0.2914 -1.3762 -0.9500
19576SOL    HW260736   6.373   1.274   2.560 -0.2975  0.7491  1.3735
19577SOL     OW60737   5.948  10.776   5.152 -0.0568 -0.2449  0.4270
19577SOL    HW160738   5.855  10.752   5.149 -0.6780  1.8809  1.1177
19577SOL    HW260739   5.993  10.693   5.169 -2.0593 -0.9555  2.9496
19578SOL     OW60740   6.339   8.366   7.452 -0.5342  0.1797  0.1068
19578SOL    HW160741   6.373   8.300   7.392  0.0126  1.1646 -0.6911
19578SOL    HW260742   6.354   8.329   7.539  0.6453 -0.3367 -0.2955
19579SOL     OW60743   7.213   4.944   8.024  0.5913 -0.3005  0.8180
19579SOL    HW160744   7.279   4.884   7.989  0.4475 -0.7664  1.3450
19579SOL    HW260745   7.135   4.890   8.035 -0.5532  0.6482 -1.7142
19580SOL     OW60746  10.445   8.879   5.568 -0.0764  0.4970 -0.3068
19580SOL    HW160747  10.375   8.899   5.630  0.3517  1.3644 -0.0744
19580SOL    HW260748  10.523   8.870   5.623  0.0289 -0.2987 -0.5772
19581SOL     OW60749   1.552   2.083   7.179  0.4144  0.5634  0.1567
19581SOL    HW160750   1.609   2.020   7.224 -1.4677  0.0988  2.0361
19581SOL    HW260751   1.508   2.031   7.112 -0.4998  0.0311  1.1420
19582SOL     OW60752  11.023   9.551   8.559 -0.8108  0.5435  0.5656
19582SOL    HW160753  11.031   9.588   8.471 -0.8611 -0.1720  0.2577
19582SOL    HW260754  10.929   9.551   8.576 -0.7836  0.9623  0.7513
19583SOL     OW60755   6.012   8.641   2.369  0.8669  0.3078  0.0980
19583SOL    HW160756   6.074   8.661   2.439  1.2272  2.1972 -0.7070
19583SOL    HW260757   6.039   8.697   2.296 -1.2550  0.5599 -0.5581
19584SOL     OW60758   7.323   4.899   4.358 -0.4541  0.1850  0.0301
19584SOL    HW160759   7.232   4.922   4.342 -0.3644  0.2395 -0.4397
19584SOL    HW260760   7.323   4.804   4.367 -0.3501  0.0084 -1.5738
19585SOL     OW60761   7.999   3.057  10.750 -0.1132 -0.0486 -0.5561
19585SOL    HW160762   7.953   3.128  10.704 -1.1351 -0.6292 -0.4622
19585SOL    HW260763   8.075   3.039  10.695 -0.6002  0.1756 -1.3238
19586SOL     OW60764  10.571  10.104   4.647 -0.4459  0.4177 -0.4522
19586SOL    HW160765  10.549  10.086   4.739  2.3836 -0.8522  0.1013
19586SOL    HW260766  10.502  10.060   4.597 -1.2942 -0.0654  1.0567
19587SOL     OW60767   9.041   0.131   1.240  0.2500 -0.9210  0.1713
19587SOL    HW160768   9.133   0.136   1.215  0.1772  0.1232  0.0962
19587SOL    HW260769   9.041   0.082   1.322  0.8853 -0.8357  0.2239
19588SOL     OW60770   7.892   7.181   6.793  0.3264 -0.6969 -0.0104
19588SOL    HW160771   7.901   7.101   6.742  1.2023 -0.0449 -0.9113
19588SOL    HW260772   7.981   7.205   6.818  0.3985  1.3912 -2.0002
19589SOL     OW60773   5.376   9.263   9.532  0.3586  0.1611  0.8427
19589SOL    HW160774   5.427   9.291   9.607  1.5933  0.7707 -0.1783
19589SOL    HW260775   5.441   9.242   9.465 -0.7072  1.0489 -0.5328
19590SOL     OW60776   0.856   5.412   7.438 -0.0115  0.0102  0.5099
19590SOL    HW160777   0.909   5.479   7.396  0.0851 -0.0733  0.4987
19590SOL    HW260778   0.781   5.402   7.380 -0.0847  0.1910  0.5706
19591SOL     OW60779   8.233   2.391   4.758  0.0227  0.1121 -0.0814
19591SOL    HW160780   8.184   2.322   4.713 -0.2674  1.0906 -1.3375
19591SOL    HW260781   8.325   2.369   4.744 -0.0463 -1.0178  1.1417
19592SOL     OW60782   6.483   2.819   0.076  0.1221  0.4067  0.5094
19592SOL    HW160783   6.453   2.763   0.005  2.2119  1.0961 -1.0184
19592SOL    HW260784   6.406   2.831   0.132 -1.9511  0.7000 -2.2045
19593SOL     OW60785   6.630   9.250  11.009 -0.1504  0.2416 -0.3558
19593SOL    HW160786   6.546   9.234  10.967 -0.5770 -3.6277  1.5064
19593SOL    HW260787   6.692   9.194  10.961  0.6474  0.5460  0.2838
19594SOL     OW60788   6.841   9.973   9.550 -0.2087  0.2283  0.2795
19594SOL    HW160789   6.751   9.966   9.520  0.2362 -1.3653 -0.8163
19594SOL    HW260790   6.836   9.960   9.644 -0.9856 -1.6855  0.0277
19595SOL     OW60791   4.438   0.078   6.965  0.0550  0.3496 -0.2295
19595SOL    HW160792   4.497   0.007   6.988  1.2503  0.9281 -1.3995
19595SOL    HW260793   4.362   0.066   7.023  0.5469 -1.4234  0.0992
19596SOL     OW60794   6.088   1.716   8.183  0.0872 -0.7436 -0.1916
19596SOL    HW160795   6.058   1.807   8.186 -1.5765 -1.2429  2.9718
19596SOL    HW260796   6.180   1.722   8.161  0.1321  1.7798  0.3748
19597SOL     OW60797   6.975   8.287   4.618 -0.2564  0.1190  0.3144
19597SOL    HW160798   6.953   8.194   4.626  0.0657 -0.2182 -1.9288
19597SOL    HW260799   6.890   8.331   4.618 -0.4392 -0.2175  0.8288
19598SOL     OW60800   0.833   7.805   2.346 -0.1895  0.0254  0.2468
19598SOL    HW160801   0.884   7.871   2.392  1.4475 -0.8115 -0.3011
19598SOL    HW260802   0.796   7.852   2.271  2.0001  0.0880 -0.8540
19599SOL     OW60803   4.929   8.811   0.928  0.9097  0.5484  0.2938
19599SOL    HW160804   4.876   8.889   0.912 -0.2783 -0.1163  0.8958
19599SOL    HW260805   5.018   8.845   0.940  0.0409  2.1616  3.3159
19600SOL     OW60806  11.026   3.350   9.672 -0.4566 -0.6368  0.0202
19600SOL    HW160807  10.967   3.420   9.701 -1.2382 -0.5796 -1.5981
19600SOL    HW260808  11.113   3.390   9.674 -0.6303 -0.2680  1.0509
19601SOL     OW60809   2.661   3.286  10.116 -0.6023  0.1772 -0.4538
19601SOL    HW160810   2.651   3.343  10.192 -0.3605 -0.7668  0.3194
19601SOL    HW260811   2.618   3.204  10.143  1.1853 -0.8428 -0.5691
19602SOL     OW60812   8.390  10.115   3.863 -0.6832  0.8347  0.3045
19602SOL    HW160813   8.321  10.056   3.895 -1.0014  0.4867 -0.9874
19602SOL    HW260814   8.345  10.197   3.845 -0.3824  1.2468  1.3212
19603SOL     OW60815   5.864   6.204   8.320  0.5537  0.1339 -0.1749
19603SOL    HW160816   5.905   6.278   8.276  1.0397  1.1610  1.8768
19603SOL    HW260817   5.929   6.175   8.384 -0.3187 -0.8956  0.2753
19604SOL     OW60818   7.845   3.429   7.037  0.2544 -0.2719 -0.4167
19604SOL    HW160819   7.927   3.407   6.993 -0.9389 -0.1218 -2.9009
19604SOL    HW260820   7.803   3.345   7.054 -0.5620 -0.2889 -2.2901
19605SOL     OW60821   8.880   9.703   1.907 -0.6916  0.0271  0.4087
19605SOL    HW160822   8.871   9.690   1.812  2.0310  2.0553 -0.2591
19605SOL    HW260823   8.961   9.657   1.930  0.2166  1.8875  1.1322
19606SOL     OW60824   2.281   7.701   8.065  0.1532 -0.3417  0.4079
19606SOL    HW160825   2.203   7.747   8.034  0.4373  0.4263  0.8130
19606SOL    HW260826   2.334   7.688   7.986  0.7116  1.2916  0.4717
19607SOL     OW60827   1.714   5.684   2.356  0.6484 -0.4798 -0.3684
19607SOL    HW160828   1.698   5.628   2.281  0.4524  1.7926 -2.1520
19607SOL    HW260829   1.628   5.716   2.382  0.9189  0.5911 -0.7384
19608SOL     OW60830   3.880   0.330   5.576 -0.3321 -0.1614  0.0337
19608SOL    HW160831   3.928   0.362   5.500  1.4729 -0.4204  0.9999
19608SOL    HW260832   3.872   0.406   5.634  1.7957 -0.7926  1.2571
19609SOL     OW60833   1.275   8.847   0.137  0.0802  0.2936 -0.2421
19609SOL    HW160834   1.312   8.935   0.126 -0.9652  0.9372  1.0569
19609SOL    HW260835   1.225   8.832   0.057 -1.0041  1.5613  0.1539
19610SOL     OW60836   9.474   8.137   9.122 -0.0173 -0.0058  0.3429
19610SOL    HW160837   9.439   8.194   9.191  1.1690 -0.0740  1.0226
19610SOL    HW260838   9.406   8.071   9.110 -0.9466  0.9342  0.2861
19611SOL     OW60839   0.371   0.439   9.074  0.0891  0.3741 -0.0639
19611SOL    HW160840   0.446   0.459   9.019  0.7639 -0.7260  0.4135
19611SOL    HW260841   0.318   0.380   9.021 -0.2386  0.8303 -0.2489
19612SOL     OW60842   4.680   6.734   5.075  0.0636  0.1667 -0.0144
19612SOL    HW160843   4.658   6.681   5.152  0.5546  0.0867  0.0802
19612SOL    HW260844   4.755   6.787   5.104  0.6016 -0.2586 -0.6035
19613SOL     OW60845   6.828   7.296   3.775  0.3224  0.0777  0.3051
19613SOL    HW160846   6.747   7.329   3.736  1.2068  0.5989 -1.1612
19613SOL    HW260847   6.897   7.335   3.722  1.4713 -2.6524 -0.3544
19614SOL     OW60848   7.168   0.014   4.949  0.4928 -0.1867  0.1050
19614SOL    HW160849   7.165   0.109   4.966 -1.9117  0.2680 -2.1544
19614SOL    HW260850   7.117  -0.024   5.019 -1.7203  0.6739 -0.9386
19615SOL     OW60851   7.989   7.638   8.349  1.1209 -0.0291  0.2949
19615SOL    HW160852   8.075   7.614   8.381  1.7446  1.0837 -0.4644
19615SOL    HW260853   8.006   7.684   8.266 -0.3303 -1.8279 -1.0849
19616SOL     OW60854   0.663   2.793   8.868  0.2463 -0.2397 -0.2367
19616SOL    HW160855   0.614   2.760   8.943 -0.0364  0.7218  0.0141
19616SOL    HW260856   0.720   2.720   8.843  0.7892 -0.3767  1.2904
19617SOL     OW60857   6.480   2.016   1.719  0.0103  0.0796 -0.3306
19617SOL    HW160858   6.452   1.940   1.668 -0.2023 -0.4265  0.5104
19617SOL    HW260859   6.401   2.046   1.763  0.7819 -1.9040  2.7790
19618SOL     OW60860   7.831   6.081   6.333  0.0337 -0.0892 -0.1772
19618SOL    HW160861   7.798   6.131   6.258 -0.1294 -0.2773 -0.2319
19618SOL    HW260862   7.919   6.055   6.308  0.1930  0.3357 -0.0704
19619SOL     OW60863   3.781   9.685   0.470  0.0475  0.1525 -0.1677
19619SOL    HW160864   3.743   9.628   0.403 -1.2768 -0.4582  1.0546
19619SOL    HW260865   3.778   9.772   0.431  1.5066 -0.4775 -1.8164
19620SOL     OW60866   1.191   1.370   7.904 -0.0940  0.0602  0.0753
19620SOL    HW160867   1.161   1.362   7.813 -0.7267 -0.0289  0.2882
19620SOL    HW260868   1.111   1.380   7.955  0.3252  1.4683  0.4903
19621SOL     OW60869   2.681   8.905   4.368 -0.1912 -0.7800  0.0226
19621SOL    HW160870   2.726   8.852   4.434 -0.4669 -0.2303  0.6625
19621SOL    HW260871   2.648   8.981   4.416  0.4697  0.1489 -0.9252
19622SOL     OW60872   6.030   4.592   5.718  0.8466  0.1179  0.0603
19622SOL    HW160873   6.077   4.549   5.790  0.0643 -2.0313 -0.6378
19622SOL    HW260874   6.056   4.543   5.640 -1.3646 -0.1878 -0.5580
19623SOL     OW60875   3.658   2.549   7.720  0.4098 -0.1399  0.6127
19623SOL    HW160876   3.671   2.469   7.669  0.5830 -0.1022  0.5976
19623SOL    HW260877   3.646   2.617   7.654  0.1412 -0.1750  0.6275
19624SOL     OW60878   6.848   4.254   7.053  0.0552 -0.5758  0.9250
19624SOL    HW160879   6.783   4.312   7.092  0.1859 -0.5399  1.0901
19624SOL    HW260880   6.854   4.180   7.113  0.8435 -0.1419  1.3953
19625SOL     OW60881   3.621   9.045   8.119  0.4134  0.2496 -0.6028
19625SOL    HW160882   3.680   9.120   8.125 -0.3353  0.9950 -2.0181
19625SOL    HW260883   3.608   9.032   8.025 -0.8166 -0.5765 -0.3452
19626SOL     OW60884   1.103  10.884   9.259  0.4157 -0.7924  0.0874
19626SOL    HW160885   1.138  10.859   9.173  0.3877  1.8244 -0.7963
19626SOL    HW260886   1.131  10.975   9.269 -0.9484 -0.5536  2.1638
19627SOL     OW60887   2.106  10.660   0.543  0.4079 -0.1053  0.3296
19627SOL    HW160888   2.080  10.719   0.614  1.2209 -0.3162  0.8123
19627SOL    HW260889   2.197  10.682   0.526  0.4251 -0.5470 -0.1675
19628SOL     OW60890   0.297  10.859   2.418 -0.2508 -0.7748  0.2704
19628SOL    HW160891   0.318  10.950   2.401 -1.9500 -0.4549 -0.3254
19628SOL    HW260892   0.315  10.847   2.512  0.6510 -0.0374  0.1990
19629SOL     OW60893   3.894   2.754   1.611  0.3303 -0.7554 -0.2328
19629SOL    HW160894   3.884   2.846   1.635  0.3544 -1.1480  1.3446
19629SOL    HW260895   3.859   2.750   1.522 -0.3283  0.6404 -0.0732
19630SOL     OW60896   9.375   6.663   5.024  0.3717 -0.6571  0.0670
19630SOL    HW160897   9.282   6.684   5.031  0.5299  0.3861 -0.6149
19630SOL    HW260898   9.418   6.748   5.013  1.3515 -1.1570 -0.1267
19631SOL     OW60899   6.878   1.134   6.478  0.4625  0.1019  0.0188
19631SOL    HW160900   6.873   1.150   6.572  2.1069  2.1957 -0.1779
19631SOL    HW260901   6.957   1.082   6.466 -1.3479 -2.8453 -0.0044
19632SOL     OW60902   8.900   8.072   2.239 -0.0046  0.0174 -0.5306
19632SOL    HW160903   8.950   8.124   2.302  2.4969  0.9747 -3.0632
19632SOL    HW260904   8.951   7.991   2.229 -0.6336 -0.3403 -0.9509
19633SOL     OW60905   3.093   7.567   9.817 -0.5012 -0.6263 -0.6712
19633SOL    HW160906   3.185   7.548   9.839 -1.1097 -0.5080  2.4099
19633SOL    HW260907   3.099   7.633   9.748  1.7029 -1.2714 -1.1975
19634SOL     OW60908   0.078  10.853   6.647  0.0332  0.0038  0.2626
19634SOL    HW160909   0.103  10.772   6.603 -3.6187 -0.7856 -0.6716
19634SOL    HW260910   0.050  10.911   6.576  0.1180  1.1184  1.1175
19635SOL     OW60911   1.686   9.798   4.167 -0.2941 -0.4575  0.4452
19635SOL    HW160912   1.599   9.770   4.197 -0.3184  1.4509  2.2897
19635SOL    HW260913   1.731   9.827   4.246  1.2238  0.7123 -0.8010
19636SOL     OW60914  10.137   3.483  10.186 -0.2687  0.4882 -0.7444
19636SOL    HW160915  10.223   3.451  10.157  0.3927  0.7573  0.8475
19636SOL    HW260916  10.102   3.530  10.110  0.9529  0.2969 -1.4448
19637SOL     OW60917   3.337   8.540   5.907 -0.2697  0.6699 -0.0201
19637SOL    HW160918   3.340   8.608   5.840 -0.9302  0.9490  0.2214
19637SOL    HW260919   3.244   8.531   5.928 -0.3882 -1.4918 -1.2108
19638SOL     OW60920   2.526   0.316  10.175 -0.1573 -0.1593 -0.6010
19638SOL    HW160921   2.550   0.408  10.183 -0.1995 -0.0685 -1.4787
19638SOL    HW260922   2.608   0.269  10.189 -0.2287 -0.0186  0.3530
19639SOL     OW60923   2.419   9.379   9.335  0.2569 -0.0571  0.8898
19639SOL    HW160924   2.511   9.377   9.308  0.8049  1.2273  2.4700
19639SOL    HW260925   2.403   9.292   9.372  1.4119  0.2434  2.2074
19640SOL     OW60926   7.861  10.321  10.855 -0.1152 -1.0794  0.2935
19640SOL    HW160927   7.786  10.333  10.913  0.1554 -0.9215  0.6101
19640SOL    HW260928   7.839  10.373  10.777 -0.5871 -1.4867  0.1465
19641SOL     OW60929   3.780   2.331   7.244 -0.5954 -0.4327  0.2769
19641SOL    HW160930   3.716   2.297   7.181 -1.9109  0.9387  0.7967
19641SOL    HW260931   3.865   2.308   7.206 -1.3675 -1.2518 -1.0617
19642SOL     OW60932   6.837   5.036   1.397 -0.0765  0.2336  0.3991
19642SOL    HW160933   6.851   4.944   1.419  0.0704 -0.0830 -0.9699
19642SOL    HW260934   6.748   5.055   1.429 -0.3044 -0.5203  0.2310
19643SOL     OW60935   2.501   2.101   6.529  0.0893 -0.5642 -0.0227
19643SOL    HW160936   2.491   2.006   6.518 -0.8445 -0.8036  2.4231
19643SOL    HW260937   2.470   2.137   6.446 -0.1144 -2.3450 -0.7803
19644SOL     OW60938   6.720   2.186  10.984 -0.1180  0.3221 -0.7341
19644SOL    HW160939   6.729   2.092  10.970  0.4554 -0.0540  1.7325
19644SOL    HW260940   6.798   2.224  10.943  0.9597 -0.5694  0.4044
19645SOL     OW60941   8.582   0.429   1.522 -0.1148  0.1943  0.1873
19645SOL    HW160942   8.501   0.409   1.568 -0.2343  0.8312  0.2654
19645SOL    HW260943   8.625   0.494   1.577  0.6657 -0.4638  0.3756
19646SOL     OW60944   1.719  10.360   7.737  0.4555 -0.1886  0.1576
19646SOL    HW160945   1.759  10.409   7.665 -0.3026 -0.8906 -0.7754
19646SOL    HW260946   1.740  10.269   7.718  0.9821 -0.3201  1.3195
19647SOL     OW60947   5.959   6.034   0.069  0.2905  0.6124 -0.5481
19647SOL    HW160948   6.030   5.997   0.122 -0.0507 -1.7222 -1.6359
19647SOL    HW260949   5.952   6.125   0.100  4.7385  1.4988 -1.3393
19648SOL     OW60950   5.275   5.042   9.389  0.2421  0.2550 -0.2440
19648SOL    HW160951   5.214   5.055   9.316  0.4169 -1.0105 -0.6436
19648SOL    HW260952   5.222   4.999   9.456  0.0216  1.6317  0.4923
19649SOL     OW60953   3.820   1.837   9.929 -0.0061 -0.0906 -0.0469
19649SOL    HW160954   3.759   1.891   9.979 -0.6937 -1.7642  1.0297
19649SOL    HW260955   3.887   1.811   9.993 -0.4417 -1.5844 -0.1553
19650SOL     OW60956  10.188   4.442   2.298 -0.4337  0.6402  0.4171
19650SOL    HW160957  10.166   4.361   2.345 -0.2343  0.0608 -0.4598
19650SOL    HW260958  10.191   4.509   2.366 -0.1394 -0.1735  1.2314
19651SOL     OW60959   8.036   5.693   4.240  0.1995  0.2581 -0.3347
19651SOL    HW160960   8.091   5.637   4.294 -1.1552 -0.5994  0.2122
19651SOL    HW260961   7.985   5.745   4.302 -1.4929 -0.8523 -0.7121
19652SOL     OW60962   2.170   9.222   0.358 -0.0481 -0.3579  0.5734
19652SOL    HW160963   2.191   9.253   0.446  2.9503  0.7104 -0.3839
19652SOL    HW260964   2.177   9.300   0.303 -1.3421 -1.0977 -0.7162
19653SOL     OW60965   3.311   6.536   8.100 -0.2263 -0.0949 -0.2659
19653SOL    HW160966   3.237   6.477   8.089 -0.2196 -0.0344 -0.6415
19653SOL    HW260967   3.374   6.507   8.034  0.4986 -0.7830  0.6971
19654SOL     OW60968   7.871   2.844  10.881 -0.6440 -0.1086 -0.0712
19654SOL    HW160969   7.942   2.827  10.943  0.6117 -0.5287 -1.5555
19654SOL    HW260970   7.887   2.933  10.850 -2.6600  1.0234  1.8999
19655SOL     OW60971   3.256   9.065   5.743  0.2560 -0.3936  0.7997
19655SOL    HW160972   3.343   9.102   5.727  0.1126 -0.8423 -1.4538
19655SOL    HW260973   3.273   8.973   5.765  0.3803 -0.6376 -0.2206
19656SOL     OW60974  10.234   8.916  10.724 -0.2310 -0.5096 -0.3664
19656SOL    HW160975  10.142   8.933  10.706 -0.5566 -1.6878  0.1101
19656SOL    HW260976  10.252   8.963  10.805 -0.7873 -1.3858  0.2780
19657SOL     OW60977   1.533   4.289   3.760  0.2133  0.3022 -0.3645
19657SOL    HW160978   1.507   4.353   3.693 -3.1081  0.4171  0.8602
19657SOL    HW260979   1.524   4.337   3.843 -1.7720 -1.4909  0.5429
19658SOL     OW60980   9.712   3.618   1.552  0.3169 -0.3319  0.3502
19658SOL    HW160981   9.656   3.553   1.509 -0.3981 -0.5413  1.5413
19658SOL    HW260982   9.784   3.568   1.589  0.1150 -0.3747  0.6975
19659SOL     OW60983   7.133   6.594   2.827 -0.1990 -0.0649  0.1830
19659SOL    HW160984   7.110   6.686   2.839  0.1649  0.3999 -2.1448
19659SOL    HW260985   7.229   6.592   2.828 -0.1706 -0.1904 -0.9006
19660SOL     OW60986   3.851   4.952   9.998  0.1465  0.1946 -0.2973
19660SOL    HW160987   3.885   5.037   9.969 -0.6520  0.7768  0.4087
19660SOL    HW260988   3.780   4.933   9.937  1.0307 -0.5150 -1.1308
19661SOL     OW60989   5.771  10.634   1.559  0.0108  0.0591  0.0379
19661SOL    HW160990   5.826  10.652   1.635  1.3810 -0.1207 -0.8717
19661SOL    HW260991   5.693  10.688   1.573  0.6430  0.7436  1.1118
19662SOL     OW60992   4.246   8.567  10.695  0.2765 -0.3742  0.6827
19662SOL    HW160993   4.180   8.514  10.740  0.7451 -0.0193  1.8220
19662SOL    HW260994   4.330   8.536  10.730  0.5700  1.0449  1.3444
19663SOL     OW60995   1.571   4.374   5.545 -0.1620  0.2879 -0.6656
19663SOL    HW160996   1.486   4.347   5.579 -0.5960  1.6441 -0.5975
19663SOL    HW260997   1.557   4.382   5.450 -0.2481  0.8980 -0.6105
19664SOL     OW60998   6.825   2.508   0.524  0.2752  0.7075 -0.5404
19664SOL    HW160999   6.805   2.546   0.609  0.5102  1.9993 -1.0251
19664SOL    HW261000   6.740   2.496   0.482 -0.0370 -2.1161  0.6993
19665SOL     OW61001   3.891  10.500   5.329 -0.2750 -0.5470  0.7689
19665SOL    HW161002   3.976  10.457   5.315  0.1357  0.3378  0.3882
19665SOL    HW261003   3.914  10.584   5.370 -1.0945 -0.9099  2.0147
19666SOL     OW61004   3.840   9.377   0.392 -0.0479 -0.7616 -0.1425
19666SOL    HW161005   3.791   9.295   0.381 -3.3551  1.0830 -0.4305
19666SOL    HW261006   3.834   9.397   0.485  2.5499 -1.7514  0.3255
19667SOL     OW61007   3.048   7.373  10.167 -0.0964 -0.6099 -0.2167
19667SOL    HW161008   3.112   7.441  10.149 -0.3659 -0.0542  0.8357
19667SOL    HW261009   3.046   7.366  10.263  0.0472 -2.2170 -0.3020
19668SOL     OW61010   2.873   7.329  10.722  0.1722  0.1110  0.2430
19668SOL    HW161011   2.900   7.374  10.802 -2.3983  0.0852  1.1841
19668SOL    HW261012   2.953   7.326  10.669  1.8723  0.3947  2.6444
19669SOL     OW61013   0.906   9.007   1.303  0.0920 -0.4117 -0.6147
19669SOL    HW161014   0.820   8.967   1.316 -0.1980  0.5830  0.7437
19669SOL    HW261015   0.887   9.099   1.285  0.8744  0.0838  0.8863
19670SOL     OW61016  10.382   7.016   1.138 -0.1595  0.7341  0.2301
19670SOL    HW161017  10.409   7.005   1.229  1.5656 -1.8986 -0.4886
19670SOL    HW261018  10.305   6.959   1.129  0.4127  0.0045 -0.2044
19671SOL     OW61019   3.915   7.064   0.080 -0.3796 -0.3854  0.1263
19671SOL    HW161020   3.850   6.995   0.068 -1.4126  0.6299 -0.2908
19671SOL    HW261021   3.945   7.052   0.170 -2.0262 -0.1634  0.7461
19672SOL     OW61022   9.575   8.109   1.088 -0.4256 -0.4664 -0.3299
19672SOL    HW161023   9.556   8.037   1.148 -0.7567 -1.2090 -1.3055
19672SOL    HW261024   9.561   8.072   1.001  1.2593  0.2116 -0.9313
19673SOL     OW61025   2.721   7.336   9.517  0.1541  0.3425 -0.3752
19673SOL    HW161026   2.662   7.294   9.579  0.2355 -1.6720 -1.5639
19673SOL    HW261027   2.794   7.275   9.509  1.0783  1.4987 -0.9872
19674SOL     OW61028   4.425   4.086   5.246 -0.3342  0.2261  0.2631
19674SOL    HW161029   4.386   4.163   5.206 -2.1637 -0.9501 -0.3472
19674SOL    HW261030   4.488   4.054   5.181 -1.1205  0.0253 -0.4144
19675SOL     OW61031   3.335   2.567   3.438 -0.1026  0.0975 -0.3825
19675SOL    HW161032   3.269   2.500   3.453  0.0465  0.1911  0.7999
19675SOL    HW261033   3.314   2.636   3.502 -0.5758  1.4456 -1.9065
19676SOL     OW61034   6.424   3.565  10.001  0.7272 -0.1817  0.7332
19676SOL    HW161035   6.384   3.633  10.056  1.0794  0.4662  0.1991
19676SOL    HW261036   6.440   3.608   9.917  0.9553 -0.9300  0.3836
19677SOL     OW61037   2.232   4.860  10.921  0.0258  0.0272  0.6900
19677SOL    HW161038   2.278   4.876  10.839 -1.9633 -0.5110 -0.6205
19677SOL    HW261039   2.269   4.779  10.955 -0.1036 -0.5251 -0.4480
19678SOL     OW61040  10.247   4.655   2.490 -0.0526 -0.2640  0.1014
19678SOL    HW161041  10.334   4.653   2.449 -0.7830 -1.0817 -1.5424
19678SOL    HW261042  10.260   4.618   2.577  1.2063 -0.6256 -0.2187
19679SOL     OW61043   3.985   2.135   1.667 -0.0111 -0.0382  0.0548
19679SOL    HW161044   4.051   2.123   1.735 -0.1379  0.1081  0.2039
19679SOL    HW261045   3.980   2.229   1.655 -0.0901 -0.0570 -0.0591
19680SOL     OW61046   6.729   5.675   0.718  0.2491 -0.1876  0.2836
19680SOL    HW161047   6.812   5.666   0.670  0.1670  0.1992  0.0667
19680SOL    HW261048   6.755   5.697   0.807  0.4309 -1.7101  0.6286
19681SOL     OW61049   0.627   9.531   4.863  0.6008  0.1825  0.1915
19681SOL    HW161050   0.560   9.547   4.929  0.2179  0.4945 -0.2713
19681SOL    HW261051   0.706   9.510   4.913  0.3873  0.7053  0.7512
19682SOL     OW61052   5.219  10.572   3.409  0.2507  0.3174 -0.0776
19682SOL    HW161053   5.131  10.605   3.429  0.0327  1.2868 -2.3067
19682SOL    HW261054   5.218  10.481   3.439 -1.2562  0.5412  0.6449
19683SOL     OW61055   6.437   8.918   9.873  0.1433  0.7017  0.2177
19683SOL    HW161056   6.473   8.832   9.894  0.1464  0.3830 -0.9909
19683SOL    HW261057   6.500   8.981   9.908  0.5997  0.1944  0.3057
19684SOL     OW61058   2.621   5.054   6.024  0.1691 -0.1806  0.0665
19684SOL    HW161059   2.549   5.011   5.978  0.3785  1.1715 -1.6116
19684SOL    HW261060   2.698   5.000   6.002  0.2407  0.3596 -1.1069
19685SOL     OW61061   3.627   3.692   5.606  0.1578  0.0282  0.5567
19685SOL    HW161062   3.575   3.611   5.611 -0.9901  0.7041  0.0203
19685SOL    HW261063   3.563   3.762   5.614  0.6187  0.9513 -2.4562
19686SOL     OW61064   5.333   9.937   1.716  0.2060 -0.1111  0.5066
19686SOL    HW161065   5.331   9.846   1.744 -1.1184  0.1971  1.5118
19686SOL    HW261066   5.264   9.943   1.649 -0.4120  0.3650  1.1764
19687SOL     OW61067   0.667   9.059   3.941 -0.2993  0.1058  0.2048
19687SOL    HW161068   0.717   9.135   3.912  3.0423 -1.6286  0.8816
19687SOL    HW261069   0.630   9.023   3.860  0.7752  0.6933 -0.5852
19688SOL     OW61070   8.118   4.702   7.589 -0.9686 -0.2163 -0.2960
19688SOL    HW161071   8.060   4.769   7.626 -0.1762  1.7696 -2.3978
19688SOL    HW261072   8.091   4.695   7.497 -0.3808 -2.1042 -0.3661
19689SOL     OW61073   2.278  10.092   0.956  0.1045 -0.2776  0.2278
19689SOL    HW161074   2.347  10.148   0.919  0.4932 -2.1579 -2.1414
19689SOL    HW261075   2.324  10.030   1.012  0.0697 -0.2838  0.2499
19690SOL     OW61076   3.789  10.910   1.982  0.2416  0.6809 -0.0351
19690SOL    HW161077   3.854  10.910   2.053  1.3106 -2.5677 -0.8323
19690SOL    HW261078   3.839  10.925   1.903 -0.0607 -0.9063 -0.5658
19691SOL     OW61079   4.465   0.932   6.659  0.1264  0.5098  0.5859
19691SOL    HW161080   4.527   0.949   6.588  1.8455 -1.0172  1.6278
19691SOL    HW261081   4.437   0.841   6.645 -2.2335  1.2588 -0.0535
19692SOL     OW61082   2.968   0.458   5.542 -0.3052 -0.0032 -0.4437
19692SOL    HW161083   2.899   0.448   5.477 -0.7774  0.8945 -0.1008
19692SOL    HW261084   2.941   0.399   5.613  0.1671 -0.9184 -1.0052
19693SOL     OW61085   8.405   2.712   0.700  0.9659 -0.1062 -0.2763
19693SOL    HW161086   8.374   2.789   0.747 -1.7211  0.3895 -2.5431
19693SOL    HW261087   8.449   2.746   0.622  1.0174 -0.8378 -0.5846
19694SOL     OW61088  10.692   9.625   2.793  0.0245  0.1881 -0.0830
19694SOL    HW161089  10.645   9.690   2.847 -0.6363  0.2977 -0.7662
19694SOL    HW261090  10.707   9.551   2.852 -0.1531  0.5432  0.4184
19695SOL     OW61091  10.266   2.368   8.558  0.1681 -0.4150 -0.5428
19695SOL    HW161092  10.353   2.405   8.573  0.8658 -1.1033 -2.5457
19695SOL    HW261093  10.259   2.296   8.621  0.0524  1.0529  1.2287
19696SOL     OW61094   9.440   4.404   4.736  0.0375 -0.1449 -0.2919
19696SOL    HW161095   9.357   4.356   4.744  0.5055 -0.8894  0.2506
19696SOL    HW261096   9.484   4.362   4.662 -0.6323  1.1441 -1.4616
19697SOL     OW61097   2.644   8.959   5.548 -0.2069  0.6945  0.0719
19697SOL    HW161098   2.597   8.999   5.621 -1.8336 -1.2484  0.1548
19697SOL    HW261099   2.659   9.032   5.487 -1.6489  1.7526  0.9161
19698SOL     OW61100  10.408   7.628  10.695 -0.5256 -0.4978  0.0841
19698SOL    HW161101  10.362   7.546  10.674  0.9931 -1.6883  1.1510
19698SOL    HW261102  10.489   7.623  10.644 -0.0140 -0.0881  0.8352
19699SOL     OW61103   5.841   4.268   9.972  0.4185  0.2052  0.4159
19699SOL    HW161104   5.798   4.270   9.886  1.9810 -0.3310 -0.4220
19699SOL    HW261105   5.848   4.176   9.993 -0.2628  0.3477  1.3054
19700SOL     OW61106   3.852   6.195   6.877 -0.0903  0.4836 -0.5781
19700SOL    HW161107   3.867   6.218   6.785  2.5312  0.5021 -0.2236
19700SOL    HW261108   3.929   6.229   6.923 -0.5439 -0.9721  1.3880
19701SOL     OW61109   7.183   3.563   5.349 -0.1623  0.3532 -0.0911
19701SOL    HW161110   7.225   3.645   5.373 -2.6375  1.0494  2.4643
19701SOL    HW261111   7.141   3.533   5.430 -1.4076 -2.1697 -1.5290
19702SOL     OW61112   7.166   0.106   6.296 -0.2589  0.3385  0.1031
19702SOL    HW161113   7.120   0.037   6.344  0.7229 -0.2694  0.2139
19702SOL    HW261114   7.113   0.122   6.218 -1.0946  0.2754  0.6533
19703SOL     OW61115   1.122   2.591   5.326 -0.3443 -0.6925  0.3504
19703SOL    HW161116   1.127   2.503   5.290  0.6395  0.3303 -2.3069
19703SOL    HW261117   1.085   2.644   5.255  0.4423  1.2550  1.3080
19704SOL     OW61118   4.358   0.629   0.806  0.0152  0.1891  0.3453
19704SOL    HW161119   4.266   0.630   0.779 -0.4353 -1.2186  1.6553
19704SOL    HW261120   4.354   0.615   0.901  1.5870 -0.0357  0.3998
19705SOL     OW61121   2.590   8.538   6.673  0.0383 -0.3017  0.2233
19705SOL    HW161122   2.508   8.582   6.654  0.4925  1.4029  1.9117
19705SOL    HW261123   2.566   8.449   6.696 -1.1304 -0.3466 -1.0795
19706SOL     OW61124   8.067   9.926  11.029  0.0294 -0.2579 -0.6679
19706SOL    HW161125   8.001   9.957  10.967 -1.6961 -0.6176  0.8880
19706SOL    HW261126   8.143   9.981  11.013 -1.4578  1.8327 -0.9318
19707SOL     OW61127   9.180   4.619   3.573 -0.3899 -0.2372 -0.9293
19707SOL    HW161128   9.123   4.560   3.623 -0.6477  0.3113 -0.5647
19707SOL    HW261129   9.119   4.680   3.530 -0.0471  1.2665  0.6142
19708SOL     OW61130   0.795   7.174  10.314  0.1119  0.2916 -0.1416
19708SOL    HW161131   0.836   7.089  10.298 -0.5406  0.2281 -1.5630
19708SOL    HW261132   0.851   7.237  10.267 -0.6202  0.3734 -0.9201
19709SOL     OW61133   9.658   8.253   6.511 -0.0385 -0.6481  0.1246
19709SOL    HW161134   9.589   8.308   6.547 -0.9891 -1.4428 -0.4333
19709SOL    HW261135   9.652   8.172   6.562  0.8136 -0.5504  0.3961
19710SOL     OW61136  10.570   0.406   9.931  0.1028  0.0333 -0.5836
19710SOL    HW161137  10.582   0.332   9.871 -2.4726  0.1932 -1.4097
19710SOL    HW261138  10.508   0.375   9.997 -0.6537  1.2707 -0.6750
19711SOL     OW61139   3.584   3.727   1.246  0.1471 -0.0222 -0.2633
19711SOL    HW161140   3.676   3.736   1.221 -0.0451 -0.8807 -1.3647
19711SOL    HW261141   3.547   3.667   1.181 -0.8039 -1.0081  1.1183
19712SOL     OW61142   5.470   3.224   7.453 -0.2916 -0.6009  0.8584
19712SOL    HW161143   5.383   3.243   7.420 -0.7119 -1.7359  1.2632
19712SOL    HW261144   5.521   3.303   7.435 -1.7587  0.6230  1.8852
19713SOL     OW61145   0.267   6.368   8.747 -0.0259 -0.2598  0.5884
19713SOL    HW161146   0.313   6.380   8.830 -0.3015 -1.0721  0.8669
19713SOL    HW261147   0.321   6.305   8.698  1.0508  1.4936 -0.5711
19714SOL     OW61148   6.974   4.903   6.211 -0.2965 -0.0038 -1.0044
19714SOL    HW161149   6.887   4.871   6.190 -0.5073  0.3113 -0.6285
19714SOL    HW261150   6.992   4.969   6.144 -1.0701  1.1812 -0.0924
19715SOL     OW61151   4.902   2.961   4.853 -0.2319  0.5910 -0.3093
19715SOL    HW161152   4.846   3.005   4.789 -0.7885  0.0860 -0.1821
19715SOL    HW261153   4.989   2.961   4.814 -0.2882  1.5073 -0.4552
19716SOL     OW61154   5.344   9.191   0.038  0.5676  0.1260 -0.0152
19716SOL    HW161155   5.272   9.213  -0.021  0.0625  1.1034  0.9368
19716SOL    HW261156   5.347   9.264   0.100  0.4639 -1.3233  1.7622
19717SOL     OW61157   1.280   8.663   9.000  0.4169  0.2632  0.3245
19717SOL    HW161158   1.331   8.611   9.062  3.1025  0.6586 -1.3794
19717SOL    HW261159   1.255   8.741   9.049 -2.2630 -1.6958  2.4191
19718SOL     OW61160   9.926   1.326   3.338  0.3429  0.0306  0.0157
19718SOL    HW161161   9.901   1.418   3.339 -2.3996 -0.5979 -1.0700
19718SOL    HW261162   9.855   1.282   3.385  1.0172 -1.6551 -0.4823
19719SOL     OW61163   6.160   9.642   3.668  1.1668 -0.4960  0.3096
19719SOL    HW161164   6.254   9.659   3.667  0.9790  0.9454  2.0664
19719SOL    HW261165   6.120   9.724   3.639  0.4283 -0.3839  1.5553
19720SOL     OW61166   9.891   7.911   4.562 -0.5178 -0.2902 -0.3126
19720SOL    HW161167   9.951   7.984   4.546  2.0279 -2.3179 -0.6209
19720SOL    HW261168   9.882   7.908   4.657 -0.9437  0.6321 -0.3165
19721SOL     OW61169   2.867   2.405   6.734  0.0365  0.5844  0.2350
19721SOL    HW161170   2.810   2.451   6.796  0.5638 -0.3586  1.4829
19721SOL    HW261171   2.810   2.339   6.693 -0.3992  1.4422 -0.5724
19722SOL     OW61172   4.982   7.878   8.831  0.4728  0.5031 -0.2366
19722SOL    HW161173   5.048   7.915   8.889  0.0645 -0.3099  0.7873
19722SOL    HW261174   5.008   7.786   8.820 -1.0808 -0.1553  1.1487
19723SOL     OW61175  10.281   8.902   6.724  0.0935 -0.4280  0.6724
19723SOL    HW161176  10.290   8.855   6.641  0.8802 -1.2396  1.1984
19723SOL    HW261177  10.306   8.992   6.704  1.2840 -0.8359  0.2423
19724SOL     OW61178   0.287   5.996   2.833  0.0019  0.0685 -0.1714
19724SOL    HW161179   0.355   6.059   2.857  1.4642 -1.8355  0.9927
19724SOL    HW261180   0.286   5.933   2.905 -2.0173 -0.7656 -0.8642
19725SOL     OW61181   3.730   9.413   3.272 -0.4259 -0.3256 -0.3783
19725SOL    HW161182   3.740   9.447   3.361  0.3195 -0.2547 -0.4813
19725SOL    HW261183   3.669   9.475   3.230  0.1984  0.3695 -0.2863
19726SOL     OW61184   8.047  10.930   3.526 -0.1156  0.7912 -0.3263
19726SOL    HW161185   8.002  10.990   3.585 -1.0686  1.0656 -1.2973
19726SOL    HW261186   8.113  10.984   3.482 -0.5934  1.0015 -0.7891
19727SOL     OW61187   1.464   0.647   7.527  0.2230  0.0727  0.4659
19727SOL    HW161188   1.495   0.629   7.439  0.8806  0.6262  0.5809
19727SOL    HW261189   1.378   0.605   7.531 -0.1157  0.6243 -0.6664
19728SOL     OW61190   1.212   1.564   0.379  0.1875 -0.5858  0.0352
19728SOL    HW161191   1.155   1.487   0.378 -0.9698  0.2269  0.8722
19728SOL    HW261192   1.151   1.638   0.376  1.2892  0.3071 -1.0506
19729SOL     OW61193   7.138   3.818   7.666 -0.0234  0.7901  0.0577
19729SOL    HW161194   7.087   3.885   7.619 -0.4727  1.2826  1.2166
19729SOL    HW261195   7.139   3.848   7.757  0.2798 -0.4764  0.4917
19730SOL     OW61196   3.495   4.451  10.931  0.3119  0.0770  0.7917
19730SOL    HW161197   3.460   4.527  10.976  3.9290 -0.5339  5.4386
19730SOL    HW261198   3.437   4.379  10.955 -2.3652  0.8318 -2.5640
19731SOL     OW61199   2.293   9.536   9.178  0.1020 -0.4036 -0.0395
19731SOL    HW161200   2.322   9.621   9.211  2.4241 -0.3862 -1.8448
19731SOL    HW261201   2.321   9.474   9.246  0.7304  0.0545  0.1344
19732SOL     OW61202   0.661   8.116   1.769 -0.7359 -0.3976  1.1289
19732SOL    HW161203   0.684   8.080   1.683 -0.1185 -0.9424  1.5150
19732SOL    HW261204   0.589   8.177   1.751 -0.5238 -0.4058  0.2097
19733SOL     OW61205   3.125   6.490   4.641 -1.0646  0.0912  0.2348
19733SOL    HW161206   3.053   6.431   4.619 -0.4847 -0.0849 -1.3257
19733SOL    HW261207   3.204   6.435   4.632 -0.4357  1.2620 -2.1352
19734SOL     OW61208   3.732   2.668   2.001  0.0650  0.1522  0.1948
19734SOL    HW161209   3.735   2.622   2.085  2.3950 -1.5836 -0.7198
19734SOL    HW261210   3.774   2.753   2.018  0.9804 -0.3846  0.7190
19735SOL     OW61211   6.857   2.712   2.371  0.1989  0.1038  0.5057
19735SOL    HW161212   6.858   2.757   2.286 -1.0466 -3.5644 -1.7002
19735SOL    HW261213   6.950   2.704   2.395  0.5210  2.3428  0.2859
19736SOL     OW61214   9.312   4.580   6.470 -0.5632 -1.0511 -0.3060
19736SOL    HW161215   9.345   4.669   6.458 -0.6462 -1.2633 -2.3441
19736SOL    HW261216   9.225   4.581   6.432  0.6377 -2.7359 -3.4689
19737SOL     OW61217  10.812   8.209   3.209  0.1022 -0.4343 -0.4696
19737SOL    HW161218  10.818   8.117   3.185 -0.5039 -0.2425 -1.3731
19737SOL    HW261219  10.786   8.254   3.129  1.2966  0.6560 -0.2904
19738SOL     OW61220   4.398  10.377   1.522 -0.0289  0.2875  0.2437
19738SOL    HW161221   4.452  10.303   1.494  0.6206  1.0884 -0.6917
19738SOL    HW261222   4.317  10.337   1.554  0.0437 -0.8067 -0.8711
19739SOL     OW61223   9.168   4.098   8.509 -0.1091  0.5703 -0.1850
19739SOL    HW161224   9.225   4.165   8.473  2.6429 -1.0634  0.8184
19739SOL    HW261225   9.144   4.130   8.596  2.5215 -0.3093  0.9594
19740SOL     OW61226  10.034   2.048   0.678  0.0549  0.1993  0.0583
19740SOL    HW161227  10.065   2.044   0.588  0.3251 -1.9677  0.1738
19740SOL    HW261228  10.113   2.055   0.731  0.1503 -1.3311  0.1869
19741SOL     OW61229   2.717   4.877   3.367 -0.4279 -0.1232  0.0206
19741SOL    HW161230   2.734   4.799   3.420 -1.5462 -0.4326 -0.0487
19741SOL    HW261231   2.708   4.948   3.432  1.0399  0.0652  0.0594
19742SOL     OW61232   9.616   7.237   4.150 -0.9190 -0.2189  0.3724
19742SOL    HW161233   9.620   7.276   4.238 -0.8401 -0.3030  0.4063
19742SOL    HW261234   9.682   7.285   4.100 -2.4440  1.3336 -0.2453
19743SOL     OW61235   3.624   6.795   7.968  0.5004  0.0303  0.5229
19743SOL    HW161236   3.571   6.852   8.024  1.2575  2.0160 -0.7077
19743SOL    HW261237   3.694   6.764   8.026 -0.9982 -1.3192  1.7232
19744SOL     OW61238   5.881   0.446   9.816 -0.4409 -0.0804 -0.1564
19744SOL    HW161239   5.896   0.538   9.838  1.7672 -0.6324  0.9236
19744SOL    HW261240   5.918   0.437   9.728  1.6997 -0.4172  0.7119
19745SOL     OW61241   3.042   3.361   3.976  0.1679 -0.5581  0.2211
19745SOL    HW161242   3.105   3.412   4.028  1.2088 -1.6938  0.1133
19745SOL    HW261243   3.065   3.381   3.885 -2.7205  2.7682 -0.0084
19746SOL     OW61244   2.613   6.976   4.293  0.5725  0.3339  0.7429
19746SOL    HW161245   2.606   6.891   4.250  0.8348 -0.1739  1.6688
19746SOL    HW261246   2.707   6.991   4.301  0.5285  0.9597  0.1149
19747SOL     OW61247   9.375   9.032   1.839  0.3211  0.0514  0.3045
19747SOL    HW161248   9.330   8.948   1.839 -0.2061  0.2954  2.1975
19747SOL    HW261249   9.310   9.094   1.874  0.1508  1.5998 -2.4262
19748SOL     OW61250   2.403   2.993   0.140  0.2174 -0.2274  0.3230
19748SOL    HW161251   2.382   3.056   0.209 -0.5877 -0.1182 -0.0109
19748SOL    HW261252   2.423   2.912   0.186  1.6009  0.3377  0.7779
19749SOL     OW61253  10.771   0.176   6.520 -0.1735 -0.2843  0.0439
19749SOL    HW161254  10.840   0.239   6.538 -0.4358 -0.0689  0.3234
19749SOL    HW261255  10.729   0.162   6.605 -0.2316 -0.6981 -0.0509
19750SOL     OW61256   5.118   7.026   3.115 -0.5828  0.5494 -0.0478
19750SOL    HW161257   5.125   7.108   3.066 -0.5353  0.1340 -0.7501
19750SOL    HW261258   5.207   6.992   3.118 -0.4198  1.0402  1.1702
19751SOL     OW61259   7.518   7.972   3.231 -0.5906 -0.4540  1.2836
19751SOL    HW161260   7.580   8.000   3.298  1.0118  1.3803 -0.8275
19751SOL    HW261261   7.432   7.989   3.270  0.2892  1.6390  2.4564
19752SOL     OW61262   9.476   7.669   5.634  0.4411 -0.0258  0.2867
19752SOL    HW161263   9.407   7.630   5.580 -0.0243 -1.2875  1.7181
19752SOL    HW261264   9.429   7.715   5.704  1.0062 -1.0575  1.3901
19753SOL     OW61265   6.254   9.918   7.506  0.3033 -0.4240 -0.6249
19753SOL    HW161266   6.332   9.913   7.450 -0.0148  0.4070 -1.1653
19753SOL    HW261267   6.191   9.860   7.465 -0.0440  0.4380 -1.3397
19754SOL     OW61268  10.953   2.381   5.434 -0.3402  0.2682 -0.1269
19754SOL    HW161269  10.869   2.335   5.423 -0.4696  0.4650  0.0361
19754SOL    HW261270  11.005   2.324   5.490 -0.9980  0.9477  1.2113
19755SOL     OW61271   4.316   7.787   1.708 -0.7419  0.0669  0.5622
19755SOL    HW161272   4.377   7.842   1.657  0.5176 -2.0758 -0.3611
19755SOL    HW261273   4.270   7.735   1.642 -2.5147  0.5353  1.3631
19756SOL     OW61274   2.017   9.214   8.471 -0.3701 -0.0887 -0.1673
19756SOL    HW161275   1.939   9.201   8.417  0.4412 -0.9381 -1.1777
19756SOL    HW261276   1.997   9.169   8.553 -2.0305  2.0950  0.7330
19757SOL     OW61277   0.612   4.780   4.468 -0.4163  0.6813  0.1195
19757SOL    HW161278   0.675   4.720   4.430  0.3720  1.6167 -0.0984
19757SOL    HW261279   0.543   4.789   4.401  0.1880  1.1221 -0.4602
19758SOL     OW61280   0.797   0.707   2.526  0.2741  0.3389  0.6052
19758SOL    HW161281   0.845   0.625   2.514  0.5528 -0.2760  4.6375
19758SOL    HW261282   0.707   0.686   2.500  0.8007 -0.4834 -0.6541
19759SOL     OW61283   9.420   2.821   7.769 -1.1183  0.1189  0.0769
19759SOL    HW161284   9.337   2.866   7.787 -3.1200 -2.5361 -1.6339
19759SOL    HW261285   9.415   2.740   7.821  0.1378 -0.3373 -0.4730
19760SOL     OW61286   6.123   7.782  10.078 -0.5064  0.1545 -0.7706
19760SOL    HW161287   6.043   7.757  10.123 -0.1434  1.3265  0.5610
19760SOL    HW261288   6.093   7.821   9.996 -1.2772  0.1426 -0.5019
19761SOL     OW61289  10.150   9.908   1.058  0.7156  0.1825 -0.5738
19761SOL    HW161290  10.210   9.842   1.093  0.1363 -0.4410 -0.7451
19761SOL    HW261291  10.065   9.866   1.057  0.4541  0.7054 -1.3163
19762SOL     OW61292   7.941   1.798   8.080  0.2827 -0.4220 -0.2595
19762SOL    HW161293   7.987   1.782   8.163  0.0255 -1.0581 -0.2352
19762SOL    HW261294   8.007   1.783   8.013  0.7482  1.0111 -0.1489
19763SOL     OW61295   5.574   3.007   2.188  0.1152 -0.1913 -0.5122
19763SOL    HW161296   5.523   3.089   2.193  0.7474  0.1794  0.1007
19763SOL    HW261297   5.528   2.947   2.247 -1.2562 -0.8209 -2.1311
19764SOL     OW61298   8.806  10.991   7.530  0.0321  0.0815 -0.3207
19764SOL    HW161299   8.766  10.906   7.548 -0.0721  0.1340 -0.3004
19764SOL    HW261300   8.732  11.052   7.528  0.2578  0.4988  1.6056
19765SOL     OW61301   5.059   6.374   5.324 -0.2702 -0.4067 -0.1699
19765SOL    HW161302   5.002   6.450   5.335  1.0903  0.5566  0.4319
19765SOL    HW261303   5.037   6.316   5.397 -1.6624 -0.8552 -0.9107
19766SOL     OW61304   6.326   2.818  10.365 -0.4147  0.2912  0.2120
19766SOL    HW161305   6.277   2.747  10.325 -1.0276  1.1273 -0.5667
19766SOL    HW261306   6.274   2.843  10.442  0.7365 -1.2793  1.5843
19767SOL     OW61307  10.828   6.882   7.748  0.4339  0.6651 -0.6150
19767SOL    HW161308  10.809   6.975   7.740 -1.7911  0.2385 -0.7232
19767SOL    HW261309  10.847   6.869   7.841 -1.6076  0.8548 -0.1413
19768SOL     OW61310   2.183   1.639   1.231  0.2716 -0.1299 -0.1200
19768SOL    HW161311   2.157   1.561   1.280 -0.9895  0.8349  0.8130
19768SOL    HW261312   2.184   1.709   1.296  2.8566  0.3950 -0.6297
19769SOL     OW61313  10.300   7.037   3.457 -0.5029  0.3015  0.3690
19769SOL    HW161314  10.330   7.053   3.367  1.3265  0.6708  0.9899
19769SOL    HW261315  10.230   6.973   3.448  0.3953 -0.5241 -1.2418
19770SOL     OW61316   5.541   0.714   2.432 -0.1157  0.2071  0.7513
19770SOL    HW161317   5.610   0.674   2.379  0.0381  1.6672 -0.1945
19770SOL    HW261318   5.460   0.679   2.396  0.0394  0.1440  0.4599
19771SOL     OW61319   6.551   6.683   3.517 -0.8986 -0.3363  0.0336
19771SOL    HW161320   6.529   6.635   3.596 -0.0472 -0.9877 -0.1171
19771SOL    HW261321   6.580   6.616   3.454  0.0469  0.3210 -0.2657
19772SOL     OW61322   7.958   5.438   6.020 -0.2451  0.0164 -0.4501
19772SOL    HW161323   8.002   5.356   6.044  0.4227 -0.0542 -1.8124
19772SOL    HW261324   7.915   5.418   5.936 -0.2080  1.0062 -0.7134
19773SOL     OW61325   1.258  10.116   7.323 -0.6669  0.0113 -0.2263
19773SOL    HW161326   1.289  10.179   7.258  0.4487 -2.4057 -2.2686
19773SOL    HW261327   1.321  10.121   7.394  0.6404 -0.1734 -1.3204
19774SOL     OW61328   2.337   6.784   1.205 -0.3177 -0.2852  0.6615
19774SOL    HW161329   2.411   6.725   1.192 -1.1467 -1.1212 -0.4106
19774SOL    HW261330   2.266   6.727   1.235 -1.7327 -0.2730 -2.2849
19775SOL     OW61331   2.862   8.081  10.433 -0.3169 -0.6738 -0.5134
19775SOL    HW161332   2.871   8.010  10.496  2.0500  0.7441  0.9276
19775SOL    HW261333   2.856   8.038  10.348  3.3443 -2.7185  0.0411
19776SOL     OW61334   2.654   0.127   8.032 -0.3461 -0.0669  0.3930
19776SOL    HW161335   2.686   0.140   8.122 -0.1472  1.0264  0.1783
19776SOL    HW261336   2.690   0.042   8.006 -0.0730 -0.2114  1.2034
19777SOL     OW61337  10.153   5.741   8.107 -0.2776  0.2716 -0.0895
19777SOL    HW161338  10.075   5.795   8.119 -0.3887  0.5420 -1.7627
19777SOL    HW261339  10.225   5.805   8.098 -0.0475  0.0599  0.2261
19778SOL     OW61340   4.960   3.967   9.396  0.0028  0.1392 -0.3648
19778SOL    HW161341   4.875   3.943   9.431  0.2964 -0.3039  0.0564
19778SOL    HW261342   4.959   4.063   9.394 -1.0210  0.1264 -1.6788
19779SOL     OW61343   8.741   6.670   8.940 -0.1076  0.2316  0.6622
19779SOL    HW161344   8.700   6.682   9.026 -2.8851 -1.1714 -0.3426
19779SOL    HW261345   8.735   6.756   8.898 -1.7067  0.1890  0.7292
19780SOL     OW61346   8.351   2.472  10.684  0.7580  0.3180 -0.2144
19780SOL    HW161347   8.358   2.389  10.637 -1.5992  0.2858 -0.6439
19780SOL    HW261348   8.421   2.526  10.648 -0.6771  0.1743 -3.6549
19781SOL     OW61349   7.148   6.492   8.140 -0.5345  0.0113  0.1833
19781SOL    HW161350   7.112   6.413   8.100  2.1670 -1.2066 -0.1058
19781SOL    HW261351   7.145   6.475   8.234 -1.6181  0.3821  0.2274
19782SOL     OW61352   8.656   1.123   4.339 -0.0279  0.3670 -0.5022
19782SOL    HW161353   8.710   1.044   4.336 -1.5321 -0.7573  0.2503
19782SOL    HW261354   8.713   1.190   4.376  1.2562 -0.3827 -1.0641
19783SOL     OW61355   4.793   2.812   2.269 -0.4356  0.2098  0.1051
19783SOL    HW161356   4.825   2.889   2.223 -1.1593  0.3942 -0.1027
19783SOL    HW261357   4.762   2.846   2.353 -2.7575  0.5329 -0.8065
19784SOL     OW61358  10.896   6.302   3.291  0.1369 -0.2125 -0.0142
19784SOL    HW161359  10.917   6.242   3.219 -2.3545 -0.9407 -0.2161
19784SOL    HW261360  10.832   6.363   3.253 -0.2898  0.1555  1.2579
19785SOL     OW61361   4.886   2.872   6.563 -0.1501 -0.2580 -0.3738
19785SOL    HW161362   4.953   2.885   6.496 -0.5582  0.1860 -0.7005
19785SOL    HW261363   4.926   2.811   6.625  0.3850 -0.3530 -0.8029
19786SOL     OW61364   9.040   9.517   5.515 -0.0383 -0.2490  0.4549
19786SOL    HW161365   9.060   9.483   5.428 -4.7809 -1.8807 -0.3025
19786SOL    HW261366   9.003   9.604   5.499  0.8449  0.2600  1.1018
19787SOL     OW61367   4.006   8.353   7.594  0.4586 -0.4424  0.3722
19787SOL    HW161368   4.060   8.414   7.544 -0.9212 -0.9902 -1.9431
19787SOL    HW261369   4.068   8.297   7.640  1.8125  0.2251 -0.5869
19788SOL     OW61370   2.397   9.602   5.083 -0.1631  0.5429  0.0143
19788SOL    HW161371   2.355   9.522   5.115  0.0263  0.2632 -0.4299
19788SOL    HW261372   2.480   9.572   5.045 -0.5416  0.8154 -1.0591
19789SOL     OW61373   6.739   3.817   0.131 -0.3064  0.5341  0.8395
19789SOL    HW161374   6.720   3.824   0.037 -2.4085  3.5440  1.3279
19789SOL    HW261375   6.773   3.729   0.142  2.5109  0.8348 -3.1065
19790SOL     OW61376   3.212   2.220   2.368 -0.2445  0.2224 -0.0165
19790SOL    HW161377   3.236   2.270   2.447 -1.5877 -0.1312  0.6425
19790SOL    HW261378   3.128   2.256   2.342 -0.3152 -0.4008 -0.6706
19791SOL     OW61379   6.425   7.156   8.435 -0.0783 -0.1504  0.6246
19791SOL    HW161380   6.395   7.070   8.465  0.4068 -0.4664  0.2274
19791SOL    HW261381   6.382   7.169   8.351  0.7314 -0.5279  0.1344
19792SOL     OW61382   6.745   4.918   5.645 -0.2282 -0.3178 -0.0219
19792SOL    HW161383   6.804   4.984   5.606 -1.2632  0.4171 -0.3859
19792SOL    HW261384   6.787   4.834   5.624 -0.2888  0.0849 -2.0292
19793SOL     OW61385   6.869   8.644   2.685 -0.2433  0.4550 -0.0583
19793SOL    HW161386   6.925   8.675   2.614  0.2553  0.9000  0.5185
19793SOL    HW261387   6.864   8.549   2.673  0.7964  0.3899 -0.0037
19794SOL     OW61388   0.699   9.474   7.998  0.5064 -0.2553  0.5152
19794SOL    HW161389   0.660   9.398   8.041  3.3228 -0.4278  3.1693
19794SOL    HW261390   0.780   9.440   7.959  0.4547  0.9102 -0.6654
19795SOL     OW61391   7.293  11.013   1.479  0.1418  0.2025  0.1056
19795SOL    HW161392   7.229  11.076   1.512 -0.0890 -0.5250  1.0786
19795SOL    HW261393   7.253  10.978   1.400  0.0830  0.9552 -0.2103
19796SOL     OW61394   9.709   9.758   3.162  0.2213 -0.1523 -0.2206
19796SOL    HW161395   9.634   9.812   3.137 -0.2233  0.3268  1.9527
19796SOL    HW261396   9.779   9.785   3.102 -1.2104 -0.3604 -2.0558
19797SOL     OW61397   2.016   7.649   3.476 -0.4611  0.5367 -0.8136
19797SOL    HW161398   1.983   7.574   3.427  2.2966 -0.5893 -1.1232
19797SOL    HW261399   2.022   7.618   3.567 -0.6652  0.9051 -0.6679
19798SOL     OW61400   6.884   1.885   6.105  0.2287 -0.2571 -0.3943
19798SOL    HW161401   6.829   1.811   6.079 -0.6802  0.4798 -0.6212
19798SOL    HW261402   6.973   1.856   6.085 -0.2056 -0.8282 -1.6262
19799SOL     OW61403   9.283  10.238   2.015 -0.0678 -0.6210  0.1930
19799SOL    HW161404   9.338  10.247   2.092 -2.5111 -0.9576  2.0770
19799SOL    HW261405   9.331  10.178   1.958  1.7319 -0.4776  1.4877
19800SOL     OW61406   3.432   1.597   8.393  0.2051 -0.1243 -0.0023
19800SOL    HW161407   3.510   1.626   8.346 -0.4542 -0.3462 -1.3050
19800SOL    HW261408   3.404   1.518   8.346 -0.6665 -0.1754  0.5752
19801SOL     OW61409   9.979   3.475   5.862  0.4431  0.5009 -0.1532
19801SOL    HW161410   9.899   3.504   5.818  0.0085 -0.6334 -0.1482
19801SOL    HW261411   9.959   3.483   5.955 -0.2333 -1.1495 -0.1187
19802SOL     OW61412   2.959   4.041   5.381  0.1151 -0.3193  0.2006
19802SOL    HW161413   2.978   4.078   5.467  1.7569  0.9318 -0.6446
19802SOL    HW261414   2.953   3.947   5.396 -2.2923  0.0207  2.0950
19803SOL     OW61415   0.278   2.279   0.237 -0.3662 -0.0516  0.0569
19803SOL    HW161416   0.185   2.264   0.255 -0.3631 -0.3336 -0.1588
19803SOL    HW261417   0.323   2.240   0.312 -0.3529 -1.2221 -0.5331
19804SOL     OW61418   6.140   7.070   8.637 -0.0870  0.0352 -0.9990
19804SOL    HW161419   6.076   7.070   8.565  0.5335 -1.2501 -1.5856
19804SOL    HW261420   6.165   6.979   8.647 -2.7810 -0.5064  3.2877
19805SOL     OW61421   9.924   4.501   2.256 -0.0660  0.0784  0.8688
19805SOL    HW161422   9.916   4.573   2.195 -0.8621 -0.5879  0.1566
19805SOL    HW261423  10.018   4.482   2.260 -0.1457 -2.5416 -3.4497
19806SOL     OW61424   8.348   1.474   0.841  0.2327  0.1983  0.3384
19806SOL    HW161425   8.422   1.532   0.860  0.6811 -0.2710  0.0317
19806SOL    HW261426   8.270   1.529   0.856  0.6216  0.5291  1.2174
19807SOL     OW61427  10.583   1.866   8.486  0.3355 -0.0763  0.4867
19807SOL    HW161428  10.659   1.919   8.463 -0.5126  0.8574 -0.2353
19807SOL    HW261429  10.597   1.843   8.578  0.5767  1.6703  0.9074
19808SOL     OW61430   2.520   7.778   2.936 -0.1633 -0.4256 -0.5936
19808SOL    HW161431   2.513   7.756   2.843  2.2165  0.3166 -1.0171
19808SOL    HW261432   2.449   7.729   2.978 -2.5217  0.6589 -2.9810
19809SOL     OW61433   2.503   8.230   6.413 -0.1340 -0.6541  0.5001
19809SOL    HW161434   2.551   8.311   6.397 -0.3923 -0.2764  1.5854
19809SOL    HW261435   2.564   8.161   6.389 -0.4409 -0.1576 -1.9414
19810SOL     OW61436   6.690  10.043   0.933  0.0129 -0.0104 -0.0734
19810SOL    HW161437   6.660   9.952   0.936 -0.6723  0.1421 -1.3743
19810SOL    HW261438   6.614  10.092   0.902  0.9865  0.6849 -1.4881
19811SOL     OW61439   6.089   2.040   2.168  0.5573  0.3029 -0.0997
19811SOL    HW161440   6.035   2.107   2.125  0.2868 -0.7704 -1.5326
19811SOL    HW261441   6.082   2.059   2.261 -2.4217  0.1750 -0.1830
19812SOL     OW61442   6.427   9.960   7.760  0.5058 -0.4963  0.3100
19812SOL    HW161443   6.422   9.905   7.682 -0.3133  0.5521 -0.3997
19812SOL    HW261444   6.395   9.903   7.831 -2.3281 -0.3718 -0.7399
19813SOL     OW61445   3.748   5.100   3.100 -0.0034 -0.5308 -0.0215
19813SOL    HW161446   3.698   5.134   3.174 -1.3184 -1.9818 -0.1896
19813SOL    HW261447   3.686   5.098   3.027  0.5834 -1.3883 -0.5192
19814SOL     OW61448   2.445   1.656  10.882 -0.3168 -0.2581 -0.3517
19814SOL    HW161449   2.397   1.670  10.963 -0.8152 -2.1883 -0.2606
19814SOL    HW261450   2.534   1.634  10.910  0.4520  2.3096 -0.4907
19815SOL     OW61451  10.257   7.913   4.027 -1.0140  0.1639 -0.3094
19815SOL    HW161452  10.285   7.933   3.938  1.8609 -0.0767  0.4627
19815SOL    HW261453  10.242   7.998   4.068 -2.6658  0.2718 -1.0358
19816SOL     OW61454   8.647   9.047   0.585 -0.5443 -0.3769 -0.1627
19816SOL    HW161455   8.624   9.090   0.668 -1.7592 -2.4668  0.6421
19816SOL    HW261456   8.742   9.058   0.579 -0.5391  0.5302  1.0938
19817SOL     OW61457   2.147   3.250   9.541 -0.4625 -0.3830 -0.2664
19817SOL    HW161458   2.119   3.191   9.611  0.4598 -1.4257 -0.7485
19817SOL    HW261459   2.099   3.220   9.463  1.4795 -1.8147 -0.9659
19818SOL     OW61460   0.416   9.939   9.900  0.2845 -0.2638 -0.0176
19818SOL    HW161461   0.383   9.945   9.810  3.2578 -1.0420 -1.2628
19818SOL    HW261462   0.392   9.851   9.929 -1.6439  0.3579  0.4535
19819SOL     OW61463  10.663   6.572   6.609  0.0366  0.0938 -0.3465
19819SOL    HW161464  10.695   6.617   6.531 -0.1650  1.3828  0.2697
19819SOL    HW261465  10.657   6.642   6.675  1.1013 -1.1054  1.0926
19820SOL     OW61466   8.984   4.219   6.039  0.0488  0.0854 -0.5047
19820SOL    HW161467   8.975   4.204   5.945 -0.1340  0.1025 -0.4895
19820SOL    HW261468   8.916   4.164   6.079 -0.2235  0.4877 -0.4125
19821SOL     OW61469   8.337   5.666   1.581  0.1869  0.3114  0.1374
19821SOL    HW161470   8.361   5.619   1.501  1.7490 -0.7061  1.1450
19821SOL    HW261471   8.376   5.752   1.572 -1.7141  1.0842 -1.2215
19822SOL     OW61472   1.761   3.909   2.799 -0.1423 -0.0774  0.4463
19822SOL    HW161473   1.714   3.879   2.721 -1.7983  1.1828  0.8919
19822SOL    HW261474   1.843   3.944   2.765  0.0655 -1.3888 -0.4847
19823SOL     OW61475   4.469   4.998  10.753  0.6678 -0.2495 -0.1402
19823SOL    HW161476   4.391   5.005  10.698 -0.5900  3.3536  1.7950
19823SOL    HW261477   4.540   5.029  10.697 -0.1616  1.0340 -0.5379
19824SOL     OW61478   6.831   6.169  10.897 -0.0319  0.0043 -0.2043
19824SOL    HW161479   6.911   6.127  10.864  0.9922  0.7435  1.1786
19824SOL    HW261480   6.794   6.106  10.958 -1.2785 -0.8783 -1.7921
19825SOL     OW61481   9.097   4.841   0.001  0.1631 -0.3314 -0.1092
19825SOL    HW161482   9.120   4.750   0.022  1.0249 -0.3159 -0.9356
19825SOL    HW261483   9.111   4.889   0.083  0.2285 -0.8464  0.1851
19826SOL     OW61484   4.840   1.969   8.398 -0.6835 -0.2020 -0.5111
19826SOL    HW161485   4.885   1.941   8.318 -1.3501 -0.0076 -0.9580
19826SOL    HW261486   4.873   1.910   8.466 -0.8106 -0.9760 -1.1104
19827SOL     OW61487   5.317   0.133   0.640 -0.2917  0.5034 -0.5341
19827SOL    HW161488   5.385   0.151   0.705 -2.0976 -1.0909  1.9468
19827SOL    HW261489   5.344   0.051   0.599  1.0995  1.7510 -2.2950
19828SOL     OW61490   2.124   6.842   3.231 -0.4271  0.4294  0.0279
19828SOL    HW161491   2.030   6.854   3.242 -0.2809  1.3580  0.3040
19828SOL    HW261492   2.149   6.780   3.300 -0.8943 -0.1379 -0.3029
19829SOL     OW61493   6.852  10.338   4.094  0.3432 -0.3008  0.4903
19829SOL    HW161494   6.910  10.414   4.107 -0.7182  0.6516 -0.0949
19829SOL    HW261495   6.912  10.263   4.088  1.3982  0.4074  1.5771
19830SOL     OW61496   8.921  10.769   7.132 -0.3398 -0.2642 -0.4240
19830SOL    HW161497   8.975  10.799   7.206  0.5366  0.2209 -1.2305
19830SOL    HW261498   8.875  10.692   7.165  1.6262 -1.3134  0.0228
19831SOL     OW61499   1.142   2.183   8.464 -0.0239  0.1263  0.1062
19831SOL    HW161500   1.178   2.112   8.411 -1.0587 -0.8300  0.6567
19831SOL    HW261501   1.139   2.147   8.553 -0.1090  1.0303  0.4752
19832SOL     OW61502   3.947   0.913   9.058  0.5175 -0.1694 -0.1598
19832SOL    HW161503   4.033   0.953   9.047  0.3318  0.9710  1.9703
19832SOL    HW261504   3.960   0.848   9.128 -0.2358 -0.3653 -0.1924
19833SOL     OW61505   6.917   7.429   6.037  0.1474  0.8403 -0.0319
19833SOL    HW161506   6.835   7.379   6.045  0.7011 -0.0554  0.1351
19833SOL    HW261507   6.938   7.453   6.127  0.7818 -0.1221  0.0950
19834SOL     OW61508   0.410   8.455   9.955  0.1007 -0.2796  0.2939
19834SOL    HW161509   0.473   8.516   9.994 -0.7308  0.8939 -0.1589
19834SOL    HW261510   0.331   8.464  10.008 -0.0293 -0.9659  0.2203
19835SOL     OW61511   4.826   0.156  10.335  0.1615  0.1322  0.1392
19835SOL    HW161512   4.819   0.231  10.275  1.5495  0.4434  0.3188
19835SOL    HW261513   4.781   0.185  10.414  0.0946  0.5151 -0.0333
19836SOL     OW61514  10.674  10.498   1.178  0.6944 -0.4571  0.0847
19836SOL    HW161515  10.580  10.504   1.157  0.7137  1.1595  0.3166
19836SOL    HW261516  10.714  10.570   1.128  1.7960 -1.0370  0.1061
19837SOL     OW61517   6.825  10.522   2.318  0.7966  0.8804 -0.0457
19837SOL    HW161518   6.900  10.481   2.360  0.5693  1.1455  0.6399
19837SOL    HW261519   6.792  10.584   2.384  0.2194  1.0475 -0.4861
19838SOL     OW61520   1.627   2.771   4.730  0.4318 -0.0973 -0.4091
19838SOL    HW161521   1.623   2.677   4.715  0.5916 -0.2071  0.2323
19838SOL    HW261522   1.558   2.807   4.674 -0.5076 -0.7080  0.3391
19839SOL     OW61523   7.525   6.213   4.170  0.3883  0.0445  0.5914
19839SOL    HW161524   7.507   6.123   4.194  1.5216 -0.6351 -0.9060
19839SOL    HW261525   7.457   6.236   4.107  0.2507  0.1363  0.7749
19840SOL     OW61526   3.071   0.254   6.410  0.2182 -0.0214 -0.0245
19840SOL    HW161527   3.072   0.166   6.448 -0.3156  0.6297  1.5491
19840SOL    HW261528   3.008   0.303   6.462  0.4854  1.3101 -0.8860
19841SOL     OW61529   3.951   1.706   6.708 -0.4552  0.2219  0.2588
19841SOL    HW161530   3.922   1.688   6.798 -0.0141  0.0353  0.3665
19841SOL    HW261531   3.952   1.620   6.666  0.4997  0.1397  0.4277
19842SOL     OW61532   0.990  10.642   3.098  0.1206 -0.4027 -0.4114
19842SOL    HW161533   0.984  10.571   3.163  0.9581 -0.1990 -0.0968
19842SOL    HW261534   1.081  10.670   3.102 -0.5062  1.6713  0.5107
19843SOL     OW61535   8.492   5.178   5.795  0.4186 -0.1097  0.1792
19843SOL    HW161536   8.416   5.180   5.854 -0.9132  2.0198 -1.4511
19843SOL    HW261537   8.517   5.270   5.785  2.1068 -0.6318 -0.7256
19844SOL     OW61538   1.096   9.780   8.947  0.1931 -0.0605  0.4604
19844SOL    HW161539   1.062   9.729   8.874  1.2646 -0.1416  0.0043
19844SOL    HW261540   1.136   9.716   9.006  0.9107  0.1587  0.2308
19845SOL     OW61541   2.137   3.057   2.146  0.0883 -0.1580  0.2775
19845SOL    HW161542   2.093   3.049   2.061 -0.4310  0.5583  0.4754
19845SOL    HW261543   2.082   3.117   2.197 -0.1623 -1.3450  1.4770
19846SOL     OW61544   9.970   3.447   9.458 -0.0292  0.1799  0.4853
19846SOL    HW161545   9.942   3.359   9.484 -1.2483  0.2868 -0.3829
19846SOL    HW261546   9.893   3.502   9.472  0.7850  1.1745  1.2291
19847SOL     OW61547   6.833   7.191  10.608  0.1727  0.0542  0.5540
19847SOL    HW161548   6.800   7.281  10.612  0.0453  0.0111  0.4604
19847SOL    HW261549   6.905   7.195  10.546  0.9600  0.3451  1.4648
19848SOL     OW61550   5.029   4.388   0.386  0.1973 -0.3933  0.4759
19848SOL    HW161551   5.117   4.390   0.349  0.2670 -0.0663  0.6488
19848SOL    HW261552   4.986   4.465   0.348  0.1634 -0.2443  0.8155
19849SOL     OW61553   4.409   0.773   3.246 -0.2850  0.6740 -0.4233
19849SOL    HW161554   4.483   0.768   3.185  0.8668 -1.7019  1.0396
19849SOL    HW261555   4.420   0.698   3.304 -2.9920  1.1558  0.8782
19850SOL     OW61556   7.148   4.045   1.176 -0.3441 -0.4454  0.8967
19850SOL    HW161557   7.209   3.989   1.224  1.1998  0.7450  0.4078
19850SOL    HW261558   7.096   3.984   1.123 -0.7556 -1.6166  2.5627
19851SOL     OW61559   1.717   7.503   9.282 -0.4856 -0.3347  0.3856
19851SOL    HW161560   1.797   7.450   9.283  0.1577  0.6169  0.4568
19851SOL    HW261561   1.653   7.449   9.329 -0.6196 -2.1535 -1.7034
19852SOL     OW61562   2.743   1.500   9.071  0.4833  0.4503  0.1899
19852SOL    HW161563   2.811   1.539   9.126  0.4734  2.9145 -1.3993
19852SOL    HW261564   2.779   1.501   8.983 -0.0526 -2.1187 -0.1580
19853SOL     OW61565   5.087   7.773   9.122  0.3434  0.3233 -0.2308
19853SOL    HW161566   5.151   7.844   9.132 -0.7760  1.1778  1.4926
19853SOL    HW261567   5.003   7.818   9.116 -0.2167 -0.8186 -1.3039
19854SOL     OW61568   0.536   5.377  10.214  0.6432  0.5188 -0.2683
19854SOL    HW161569   0.451   5.338  10.234  1.7425 -1.4832  0.8048
19854SOL    HW261570   0.514   5.461  10.173 -1.8263  0.5388  0.8691
19855SOL     OW61571   4.764   0.892   8.184 -0.2543  0.1775 -0.4385
19855SOL    HW161572   4.738   0.956   8.251 -0.7639  0.2014 -0.6531
19855SOL    HW261573   4.844   0.929   8.146  1.1516 -0.7705  1.4473
19856SOL     OW61574   9.389   2.500  10.525 -0.2907 -0.7327  0.3066
19856SOL    HW161575   9.321   2.479  10.589 -0.3117 -1.4964  0.0424
19856SOL    HW261576   9.341   2.522  10.445 -0.2260 -2.1413 -0.1401
19857SOL     OW61577   7.068   0.264   4.312  0.0139  0.2200 -0.2470
19857SOL    HW161578   7.117   0.225   4.385 -0.4817  2.2824  1.2988
19857SOL    HW261579   7.135   0.297   4.253  0.4627  0.2328  0.2624
19858SOL     OW61580   8.215   4.589   2.895 -0.7928 -0.0814 -0.0223
19858SOL    HW161581   8.225   4.640   2.976 -1.8014 -0.1288  0.1467
19858SOL    HW261582   8.302   4.589   2.856 -0.1925 -0.3621  1.2448
19859SOL     OW61583   5.694   5.824   5.322  0.0313 -0.0436  0.4052
19859SOL    HW161584   5.638   5.882   5.374 -0.5986 -0.9372  0.7593
19859SOL    HW261585   5.639   5.798   5.248  0.5218  0.2869 -0.0835
19860SOL     OW61586   3.601   9.844   4.958 -0.4838 -0.6104  0.1077
19860SOL    HW161587   3.523   9.887   4.924 -0.4771  0.2417  1.1203
19860SOL    HW261588   3.626   9.895   5.035  1.5997 -0.3443 -0.6811
19861SOL     OW61589   4.254  10.892   9.687 -0.5851 -0.2803  0.1309
19861SOL    HW161590   4.173  10.929   9.723 -0.0872  0.9425  0.0569
19861SOL    HW261591   4.322  10.920   9.749 -0.0612 -0.2686 -0.4416
19862SOL     OW61592   5.698   0.526   6.762 -0.0942 -0.1979 -0.1503
19862SOL    HW161593   5.698   0.582   6.839  0.9014 -0.1479 -0.1754
19862SOL    HW261594   5.717   0.438   6.796  1.9613  0.0664 -0.4649
19863SOL     OW61595   1.846   8.870   3.563 -0.0890  0.3986 -0.1354
19863SOL    HW161596   1.755   8.845   3.578  0.1574 -0.2891  0.2335
19863SOL    HW261597   1.881   8.887   3.650  0.1209  0.7270 -0.2814
19864SOL     OW61598   5.616   2.609   5.319  0.3087 -0.0878 -0.0161
19864SOL    HW161599   5.614   2.522   5.359 -1.2221 -0.0218  0.0986
19864SOL    HW261600   5.526   2.626   5.293  0.8899  0.7735 -1.5845
19865SOL     OW61601   8.717   2.740   4.323  0.0657  0.1341  0.6071
19865SOL    HW161602   8.755   2.726   4.236  0.6299 -0.4712  0.9395
19865SOL    HW261603   8.623   2.747   4.307  0.1454 -0.1184 -0.0332
19866SOL     OW61604   6.489   9.604   5.280 -0.0988  0.5171 -0.8366
19866SOL    HW161605   6.528   9.634   5.362 -2.0380 -3.4878  1.9076
19866SOL    HW261606   6.559   9.556   5.236  0.4917  1.1681 -0.6088
19867SOL     OW61607   5.107  10.518   2.041 -0.1597  0.1562  0.4746
19867SOL    HW161608   5.142  10.482   2.122  0.8741  1.3994  0.6106
19867SOL    HW261609   5.183  10.556   1.997 -0.9435  0.7521 -0.3954
19868SOL     OW61610   7.816   9.234   2.341  0.2503  0.0278 -0.4779
19868SOL    HW161611   7.746   9.169   2.349  0.4242 -0.1415 -0.3311
19868SOL    HW261612   7.895   9.183   2.327  0.9878 -0.0128  3.0217
19869SOL     OW61613   4.609   4.020   1.963 -0.4598  0.0056 -0.1093
19869SOL    HW161614   4.677   3.962   1.930  0.8194  1.0977  0.5082
19869SOL    HW261615   4.543   4.021   1.894 -0.0589 -1.4175 -0.5349
19870SOL     OW61616   5.090   3.564  10.410 -0.5165  0.1835 -0.0136
19870SOL    HW161617   5.077   3.512  10.331 -1.2678 -1.2460  1.0031
19870SOL    HW261618   5.037   3.642  10.397  0.1477  0.4370 -1.3140
19871SOL     OW61619  10.756   8.024   2.863  0.4152 -0.0028 -0.0539
19871SOL    HW161620  10.835   7.987   2.822  0.7820 -0.8069  1.3000
19871SOL    HW261621  10.685   7.996   2.806  1.0868  0.6301 -1.2378
19872SOL     OW61622   3.354   9.820   0.518  0.2387  0.6087 -0.2167
19872SOL    HW161623   3.300   9.899   0.526 -0.8806 -0.0334 -1.0592
19872SOL    HW261624   3.290   9.749   0.509  1.2295 -0.3162 -0.0867
19873SOL     OW61625   9.239   5.557   2.010 -0.5745 -0.2555 -0.1806
19873SOL    HW161626   9.271   5.637   2.052 -1.7849  0.0242  0.2665
19873SOL    HW261627   9.157   5.538   2.055 -0.0319 -2.0977  0.1052
19874SOL     OW61628   0.019   5.627   8.348 -0.6487 -0.1247 -0.0891
19874SOL    HW161629   0.049   5.550   8.300 -0.2748  0.5555 -0.9895
19874SOL    HW261630   0.048   5.612   8.438  2.3992  0.4219 -0.8536
19875SOL     OW61631   6.759   8.927   4.533 -0.3872  0.3752  0.9866
19875SOL    HW161632   6.821   8.893   4.597  1.5414 -0.5377 -1.2213
19875SOL    HW261633   6.806   8.998   4.489 -1.7074  1.0772  0.6539
19876SOL     OW61634   3.089   1.656   2.314  0.0184 -0.1156  0.3465
19876SOL    HW161635   3.096   1.751   2.309  1.4607 -0.2307 -0.4209
19876SOL    HW261636   3.055   1.630   2.228  1.1806 -0.3835 -0.0534
19877SOL     OW61637   4.682   0.758   3.190  0.0521  0.2097  0.9059
19877SOL    HW161638   4.699   0.686   3.250  0.0735 -0.3079  0.2804
19877SOL    HW261639   4.734   0.738   3.112  0.4320  1.1350  0.9029
19878SOL     OW61640   2.792   0.838   0.592 -0.0091  0.2763 -0.0246
19878SOL    HW161641   2.874   0.839   0.543  1.0397  2.3371  1.5775
19878SOL    HW261642   2.798   0.760   0.647  0.2794 -0.2767 -0.8232
19879SOL     OW61643   8.286   0.757   1.127 -0.4039 -0.1615 -0.0915
19879SOL    HW161644   8.350   0.707   1.075 -2.2919 -1.1665 -1.5955
19879SOL    HW261645   8.336   0.831   1.161  1.4045 -0.4827 -1.8084
19880SOL     OW61646   5.342   3.432  10.123 -0.0842  0.2664 -0.0903
19880SOL    HW161647   5.367   3.522  10.143  0.5867 -0.0327  0.4629
19880SOL    HW261648   5.423   3.392  10.090  0.0798 -0.5928  1.2841
19881SOL     OW61649   3.025   2.808   3.368 -0.1921  0.1961  0.5855
19881SOL    HW161650   2.979   2.877   3.320  0.2434  0.2936  0.3016
19881SOL    HW261651   3.117   2.834   3.364  0.4303 -2.0574 -2.3409
19882SOL     OW61652  10.833   1.876   7.685 -0.6928 -0.0657 -0.8283
19882SOL    HW161653  10.920   1.837   7.673 -0.9525 -0.9915  0.1819
19882SOL    HW261654  10.827   1.893   7.779 -1.9457 -0.8491 -0.7531
19883SOL     OW61655   1.110  10.817  10.009 -0.1046 -0.0369 -0.1490
19883SOL    HW161656   1.161  10.800   9.929  0.5863  1.5554 -0.0852
19883SOL    HW261657   1.131  10.908  10.032 -0.2552 -0.4664  1.8770
19884SOL     OW61658   1.606   5.185   3.563 -0.3976  0.4847  0.1222
19884SOL    HW161659   1.647   5.226   3.639  0.0792 -1.0657  0.7577
19884SOL    HW261660   1.617   5.248   3.492  1.1440  1.0308  0.8086
19885SOL     OW61661   4.603  10.597   4.102  0.1531 -0.1343 -0.0766
19885SOL    HW161662   4.616  10.539   4.177 -1.7412 -1.3447 -0.6329
19885SOL    HW261663   4.595  10.684   4.141  0.3271 -0.5847  1.0078
19886SOL     OW61664   7.153   6.437   7.259 -0.3861 -0.2857  0.4828
19886SOL    HW161665   7.160   6.358   7.313  0.7354 -0.2825  0.3832
19886SOL    HW261666   7.195   6.505   7.312  0.3085 -0.1786 -0.1751
19887SOL     OW61667   5.588   0.291   0.347  0.1480 -0.2631 -0.0339
19887SOL    HW161668   5.504   0.248   0.364  0.5335 -1.2102 -0.4475
19887SOL    HW261669   5.650   0.246   0.404  0.0229  1.9036  1.9626
19888SOL     OW61670   8.009   5.868   7.760  0.5689  0.4341  0.1176
19888SOL    HW161671   7.916   5.862   7.741  0.7580  1.3085 -1.1743
19888SOL    HW261672   8.052   5.843   7.679  1.4685  0.1109  0.6778
19889SOL     OW61673   7.033   4.123   2.704 -0.0364 -0.1580 -0.6812
19889SOL    HW161674   6.939   4.128   2.685  0.2694 -0.7442 -2.4964
19889SOL    HW261675   7.055   4.211   2.733 -1.2616 -0.1830  0.4492
19890SOL     OW61676   7.155   9.737   4.854 -0.2369 -0.2257  0.1239
19890SOL    HW161677   7.230   9.680   4.833 -1.0499 -1.6316  0.8658
19890SOL    HW261678   7.195   9.811   4.899  0.8223 -0.4104 -0.4571
19891SOL     OW61679   7.066  10.910   1.013 -0.3293 -0.3274 -0.1116
19891SOL    HW161680   6.999  10.852   1.047 -1.6110  0.5619 -1.0098
19891SOL    HW261681   7.104  10.862   0.939 -0.2676 -0.6729  0.1456
19892SOL     OW61682   1.617   3.515   2.627  0.1017  0.3516  0.0290
19892SOL    HW161683   1.573   3.435   2.599 -0.1290  0.5547 -0.1856
19892SOL    HW261684   1.703   3.485   2.658 -0.5008 -0.1617  1.2785
19893SOL     OW61685   3.069   2.135   1.293  0.1033  0.2485  0.2134
19893SOL    HW161686   3.164   2.123   1.283 -0.0910 -0.7409 -0.5302
19893SOL    HW261687   3.041   2.178   1.213 -0.4872 -2.0202 -0.8680
19894SOL     OW61688   7.424   9.491   9.328 -0.3327 -0.0570 -0.0242
19894SOL    HW161689   7.509   9.507   9.286 -0.5526  0.4920 -0.2676
19894SOL    HW261690   7.446   9.440   9.406  0.2743  0.4721  0.1619
19895SOL     OW61691   4.896   0.690  10.333  0.6861  0.5027  0.7252
19895SOL    HW161692   4.866   0.756  10.271  1.0947 -0.0393 -0.0623
19895SOL    HW261693   4.977   0.656  10.295  0.9226  0.1326  1.5347
19896SOL     OW61694   1.154   5.919   2.052  0.3529 -0.3730  0.1971
19896SOL    HW161695   1.152   5.990   1.987 -0.3330 -0.1118  0.4933
19896SOL    HW261696   1.220   5.859   2.019 -1.1789 -1.1369 -1.7092
19897SOL     OW61697   7.232   7.102   0.031 -0.1384  0.3104  0.5454
19897SOL    HW161698   7.198   7.176   0.081  0.6509  0.3613  1.0144
19897SOL    HW261699   7.178   7.028   0.059 -1.4506  0.8186 -0.4935
19898SOL     OW61700   9.004   1.909   1.222  0.0625 -0.2032 -0.3508
19898SOL    HW161701   8.999   1.997   1.184 -1.4499  0.0780  0.4288
19898SOL    HW261702   8.960   1.853   1.158 -0.7911 -0.0382  0.0737
19899SOL     OW61703   7.625   6.387   2.906 -0.6153  0.5103  0.3412
19899SOL    HW161704   7.581   6.323   2.961  0.0297  1.4262  1.9872
19899SOL    HW261705   7.619   6.351   2.817 -3.5395  0.0170  0.6518
19900SOL     OW61706   3.511   9.808   0.811 -0.0826 -0.4326  0.2237
19900SOL    HW161707   3.444   9.821   0.745 -1.9621 -1.6957  1.7659
19900SOL    HW261708   3.480   9.732   0.862  1.9247 -0.3237  1.7215
19901SOL     OW61709   1.500   4.198   5.010 -0.4280 -0.0457  0.3688
19901SOL    HW161710   1.462   4.280   4.979  0.4465  0.1842 -0.1477
19901SOL    HW261711   1.447   4.129   4.970 -0.3913  0.2635 -0.2176
19902SOL     OW61712   0.546   9.261   8.451  0.4252 -0.0914 -0.1238
19902SOL    HW161713   0.461   9.264   8.405  0.7594 -2.1783 -0.9698
19902SOL    HW261714   0.606   9.305   8.391  0.2061  0.1946 -0.1375
19903SOL     OW61715   4.150   9.336   6.553  0.3759  0.2019 -0.3675
19903SOL    HW161716   4.243   9.343   6.532  0.7134 -0.8596  0.6925
19903SOL    HW261717   4.138   9.392   6.630  0.7924 -1.9026  1.3131
19904SOL     OW61718   9.226   6.081   7.406 -0.8402  0.5753  0.1315
19904SOL    HW161719   9.250   6.045   7.491 -0.0282  3.1585  1.1060
19904SOL    HW261720   9.133   6.060   7.396 -0.8767 -0.0100  1.5288
19905SOL     OW61721   0.922   0.202   6.848 -0.0432  0.0339  0.2323
19905SOL    HW161722   0.930   0.191   6.753  0.4264  0.1322  0.2594
19905SOL    HW261723   1.010   0.225   6.877  0.2050 -1.5980  0.9043
19906SOL     OW61724  10.769   7.322   1.540 -0.3357  0.0085 -0.0426
19906SOL    HW161725  10.727   7.393   1.491 -0.2327 -1.4049 -2.2917
19906SOL    HW261726  10.724   7.243   1.512  0.3995 -0.9989  1.4641
19907SOL     OW61727   0.712   9.375   2.671  0.7964  0.8977  0.4019
19907SOL    HW161728   0.688   9.283   2.660 -0.5609  1.4518 -2.3100
19907SOL    HW261729   0.628   9.420   2.681  1.5050  1.7747  3.3768
19908SOL     OW61730   4.026  10.687  10.614 -0.0614 -0.1556  0.5949
19908SOL    HW161731   3.988  10.599  10.610 -0.3409 -0.0397  0.6664
19908SOL    HW261732   4.118  10.674  10.592 -0.4734 -0.2338 -1.2541
19909SOL     OW61733   7.874   6.499   8.347  0.0644  0.2794  0.3195
19909SOL    HW161734   7.801   6.538   8.394 -1.1868  0.6861 -1.8316
19909SOL    HW261735   7.894   6.562   8.277 -0.0818 -1.5502 -1.4571
19910SOL     OW61736  10.152   7.665   4.118  0.0893  0.2180 -0.2354
19910SOL    HW161737  10.195   7.750   4.103 -0.4126  0.1724 -2.2102
19910SOL    HW261738  10.067   7.688   4.156 -0.3304  0.6774 -1.4040
19911SOL     OW61739   9.647   6.191   9.678  0.0747 -0.5845  0.4605
19911SOL    HW161740   9.670   6.104   9.712  1.5999 -0.7060 -0.7759
19911SOL    HW261741   9.557   6.181   9.647  0.1836 -1.6941  0.4414
19912SOL     OW61742   2.280   8.746  10.472 -0.0092 -0.5618  0.1155
19912SOL    HW161743   2.355   8.731  10.414  3.1208  0.3143  3.5309
19912SOL    HW261744   2.276   8.667  10.526 -0.3789  0.1157  1.1119
19913SOL     OW61745   9.557   8.891  10.104  0.4200 -0.1650 -0.0835
19913SOL    HW161746   9.559   8.983  10.077  0.4169 -0.2842 -0.4935
19913SOL    HW261747   9.526   8.844  10.027 -2.9672 -0.1374  1.0748
19914SOL     OW61748   7.406   3.884   3.300 -0.4550 -0.4189  0.2027
19914SOL    HW161749   7.401   3.911   3.392  1.1587  0.2255  0.1358
19914SOL    HW261750   7.372   3.959   3.252  2.1878  0.8382  0.1249
19915SOL     OW61751  10.296   9.127  10.960 -0.4835  0.1379  0.0296
19915SOL    HW161752  10.302   9.138  11.055 -1.3947  0.7764  0.0387
19915SOL    HW261753  10.345   9.201  10.925 -1.3598  0.7502  0.0371
19916SOL     OW61754   5.477   2.364   5.292 -0.1171 -0.6462 -0.3301
19916SOL    HW161755   5.446   2.414   5.368  0.0345 -2.0063  0.6704
19916SOL    HW261756   5.406   2.369   5.229  0.4020  1.8776 -0.8049
19917SOL     OW61757   5.817   3.019   0.403  0.1011  0.3356  0.0680
19917SOL    HW161758   5.769   2.940   0.427 -0.1299  0.6335  0.6089
19917SOL    HW261759   5.749   3.083   0.381  0.2188  0.8097  0.9932
19918SOL     OW61760   2.321   7.261   1.970  0.1379 -0.0495 -0.2668
19918SOL    HW161761   2.403   7.212   1.964 -0.0559 -0.7345  1.9676
19918SOL    HW261762   2.295   7.274   1.879  1.0641 -2.6462 -1.0026
19919SOL     OW61763   4.017   7.865   3.865 -0.2484  0.5264 -0.2366
19919SOL    HW161764   3.982   7.843   3.779  1.4897  0.8493 -1.0599
19919SOL    HW261765   3.955   7.826   3.927 -2.2015  1.3689 -1.6007
19920SOL     OW61766   1.174   3.729  10.757  0.3047 -0.0902 -0.1113
19920SOL    HW161767   1.212   3.643  10.741 -0.8121 -0.3581 -1.5767
19920SOL    HW261768   1.127   3.750  10.676 -0.6756  1.2498  0.7527
19921SOL     OW61769   3.361   7.695   9.640 -0.5806  0.1225 -0.2126
19921SOL    HW161770   3.329   7.604   9.637 -1.5559  0.3087  2.3589
19921SOL    HW261771   3.439   7.691   9.695 -0.8354  0.9014  0.2113
19922SOL     OW61772  10.616   2.504   6.886 -0.1569 -0.5033  0.0186
19922SOL    HW161773  10.613   2.524   6.979  2.6715  0.7194 -0.0295
19922SOL    HW261774  10.560   2.570   6.845 -1.9656 -1.4737  0.8369
19923SOL     OW61775   5.650   8.528  10.132 -0.1883 -0.4675 -0.3332
19923SOL    HW161776   5.735   8.511  10.173  0.4762  1.0267 -1.0090
19923SOL    HW261777   5.661   8.500  10.041  0.3155  1.6855 -0.9737
19924SOL     OW61778   8.908   8.976   7.824 -0.1589  0.3040 -0.1369
19924SOL    HW161779   8.919   8.946   7.914 -0.0310  1.0855  0.1217
19924SOL    HW261780   8.827   8.935   7.795 -0.8049  0.9283  0.7262
19925SOL     OW61781   4.377   9.027   2.374  0.1062  0.1076 -0.3091
19925SOL    HW161782   4.460   8.980   2.364 -0.0650  0.0052 -1.3901
19925SOL    HW261783   4.357   9.059   2.286 -2.2589 -1.9926 -0.6286
19926SOL     OW61784   7.460   1.287   6.047 -0.5021  0.1667 -0.1484
19926SOL    HW161785   7.491   1.327   6.128  0.5114  0.0701 -0.4710
19926SOL    HW261786   7.491   1.345   5.978  0.0530 -0.5889 -0.5546
19927SOL     OW61787   7.831   3.740   5.546  0.3565 -0.8975 -0.3855
19927SOL    HW161788   7.887   3.670   5.513  1.9047 -0.0332  0.2935
19927SOL    HW261789   7.750   3.696   5.571  0.8207 -2.2355 -1.1465
19928SOL     OW61790   6.085   5.014   5.459 -0.0721  0.2935 -0.2764
19928SOL    HW161791   6.002   5.060   5.457 -0.5348 -0.5240 -0.3022
19928SOL    HW261792   6.101   4.988   5.368  0.0504  0.1660 -0.2200
19929SOL     OW61793   5.100   4.152   1.909  0.5046 -0.4974  0.3559
19929SOL    HW161794   5.077   4.197   1.991 -1.2795 -0.3511 -0.1860
19929SOL    HW261795   5.188   4.117   1.925  0.0447 -0.8285  2.4875
19930SOL     OW61796   3.861  10.587   9.967  0.1904 -0.2701  0.1124
19930SOL    HW161797   3.880  10.644   9.893  1.2885  1.8240  1.8719
19930SOL    HW261798   3.917  10.621  10.038 -2.3071 -0.7911  2.4946
19931SOL     OW61799   7.054   3.038  10.537 -0.8765 -0.1403 -0.5932
19931SOL    HW161800   6.986   2.973  10.555  1.1353 -1.9502  1.0852
19931SOL    HW261801   7.122   2.990  10.490  0.8737  0.5668  1.0716
19932SOL     OW61802   6.461   6.846   0.574  0.7507  0.2711 -0.4344
19932SOL    HW161803   6.503   6.841   0.488  0.9299  0.1190 -0.3382
19932SOL    HW261804   6.516   6.907   0.624  1.3991 -0.6443 -0.0046
19933SOL     OW61805   1.841   2.729   7.667  0.0322 -0.4195  0.0040
19933SOL    HW161806   1.864   2.637   7.654  0.4538 -0.9266  3.3799
19933SOL    HW261807   1.925   2.772   7.685 -0.2772  0.4360 -0.5305
19934SOL     OW61808  10.255   6.270   0.227 -0.5881  0.3013 -0.5557
19934SOL    HW161809  10.259   6.202   0.294 -1.5519  1.0117  0.2585
19934SOL    HW261810  10.257   6.222   0.144 -2.8182 -0.8580 -0.0127
19935SOL     OW61811   9.865   1.767   1.973 -0.0201 -0.3464  0.2570
19935SOL    HW161812   9.920   1.845   1.965 -0.2464 -0.1991  0.1004
19935SOL    HW261813   9.791   1.795   2.027 -0.3299 -0.3257 -0.1760
19936SOL     OW61814   4.900   9.612   9.147  0.2005 -0.3649  0.2398
19936SOL    HW161815   4.854   9.553   9.207  0.4807  0.5878  1.4154
19936SOL    HW261816   4.837   9.681   9.128  0.1006 -0.6784 -0.6156
19937SOL     OW61817   5.068   2.795   6.002  0.2411  0.2747 -0.4075
19937SOL    HW161818   5.066   2.849   5.923 -2.3313 -0.4780 -0.9273
19937SOL    HW261819   5.137   2.730   5.985  0.1446  0.4978 -1.7583
19938SOL     OW61820   4.215   1.876   6.402 -0.1487 -0.0605 -0.3145
19938SOL    HW161821   4.126   1.876   6.367 -0.0210  1.0462 -0.6798
19938SOL    HW261822   4.246   1.966   6.390 -0.6608  0.9622  4.0169
19939SOL     OW61823   0.738   8.538   1.405 -0.3499  0.1122  0.1148
19939SOL    HW161824   0.783   8.454   1.412 -0.5035  0.1167  1.3692
19939SOL    HW261825   0.730   8.568   1.495 -1.9002  0.6304 -0.1679
19940SOL     OW61826   2.432   6.978   1.021 -0.4284  0.0407 -0.3354
19940SOL    HW161827   2.521   6.994   1.053 -0.3093 -1.0380 -0.0988
19940SOL    HW261828   2.392   6.924   1.088 -1.0805  0.0494 -0.7139
19941SOL     OW61829   3.099   9.135   9.107  0.0646 -0.1100  0.3152
19941SOL    HW161830   3.004   9.123   9.104  0.2815 -2.0396 -0.4953
19941SOL    HW261831   3.112   9.226   9.082 -1.5243 -0.0987 -0.6689
19942SOL     OW61832   8.988   1.003   8.906 -0.1999  0.0514  0.1601
19942SOL    HW161833   8.925   0.938   8.938 -0.0274  0.6283  1.8009
19942SOL    HW261834   9.031   0.961   8.832 -2.1601 -0.5300 -0.6856
19943SOL     OW61835   0.412   6.830   6.268 -0.0120 -0.5868  0.0049
19943SOL    HW161836   0.360   6.897   6.225  1.6191  1.0706  0.5019
19943SOL    HW261837   0.389   6.837   6.361  0.2194 -0.6664  0.0686
19944SOL     OW61838   9.316   6.504   7.126 -0.2053  0.1773  0.4690
19944SOL    HW161839   9.407   6.497   7.097  0.1337 -1.7798  1.8568
19944SOL    HW261840   9.318   6.573   7.193 -0.1252  1.3767 -0.7143
19945SOL     OW61841   7.448   6.897   1.015 -0.0819 -0.3489 -0.0283
19945SOL    HW161842   7.395   6.927   0.941 -0.4473  0.3025  0.4882
19945SOL    HW261843   7.537   6.893   0.980 -0.3219 -0.5047 -0.6353
19946SOL     OW61844   6.896  10.893   6.196 -0.5003 -0.2483 -0.5085
19946SOL    HW161845   6.991  10.909   6.190 -0.1051 -2.5613 -1.1232
19946SOL    HW261846   6.868  10.882   6.105 -1.2635 -0.1436 -0.2879
19947SOL     OW61847  10.116   7.882   5.361  0.1441 -0.3774  0.0151
19947SOL    HW161848  10.084   7.811   5.417  1.2077 -0.0348  1.1042
19947SOL    HW261849  10.146   7.949   5.422 -2.6583  1.9500 -0.9609
19948SOL     OW61850   7.584   1.964   2.334  0.3432  0.5618 -0.8692
19948SOL    HW161851   7.661   1.962   2.392 -0.2209 -0.2098 -0.1161
19948SOL    HW261852   7.620   1.980   2.247  1.4653 -0.7592 -0.6871
19949SOL     OW61853   6.929   5.767   3.519  0.0829 -0.3023 -0.3048
19949SOL    HW161854   6.970   5.738   3.601  0.9809 -0.3687 -0.7747
19949SOL    HW261855   6.948   5.860   3.514 -1.9243  0.2094  0.6846
19950SOL     OW61856   6.561   8.644   2.720  0.4586 -0.0914 -0.4198
19950SOL    HW161857   6.613   8.722   2.736  0.8188 -0.3499 -0.3109
19950SOL    HW261858   6.544   8.607   2.807  0.3563 -0.1740 -0.4743
19951SOL     OW61859   9.679   4.608   4.437  0.2406  0.2415  0.2355
19951SOL    HW161860   9.714   4.629   4.350 -0.4987  2.9163  0.4813
19951SOL    HW261861   9.597   4.561   4.420 -0.2877  1.4072 -0.5780
19952SOL     OW61862   1.012   5.077   0.837 -0.4604 -0.7111  0.0877
19952SOL    HW161863   0.989   5.080   0.930 -0.9503 -1.7745  0.0205
19952SOL    HW261864   1.092   5.025   0.834  0.0726  0.0903 -0.0142
19953SOL     OW61865   5.630  11.004   9.501  0.1788  0.1666  0.1109
19953SOL    HW161866   5.649  11.094   9.526 -0.8892  0.0950  1.3406
19953SOL    HW261867   5.546  10.985   9.543  0.5098 -1.4838  0.1133
19954SOL     OW61868   1.491   6.245   1.029 -0.2834  0.6728 -0.0177
19954SOL    HW161869   1.574   6.198   1.017  0.3462  1.8037 -0.1463
19954SOL    HW261870   1.425   6.183   0.998  0.3408 -0.8710  1.5525
19955SOL     OW61871   8.059  10.137   5.401  0.4470  0.2298  0.6736
19955SOL    HW161872   8.080  10.075   5.471  0.3579  0.3756  0.8294
19955SOL    HW261873   8.080  10.090   5.320  1.5951  0.4426  0.8324
19956SOL     OW61874   5.151   7.205   7.456  0.1675 -0.0919  0.1186
19956SOL    HW161875   5.075   7.182   7.402 -1.5140  1.7641  1.5489
19956SOL    HW261876   5.136   7.160   7.539  0.0066  1.1090  0.7781
19957SOL     OW61877   0.781   6.141   5.599 -0.1386 -0.1248  0.1011
19957SOL    HW161878   0.753   6.211   5.539 -2.1954 -0.3177  0.7479
19957SOL    HW261879   0.787   6.064   5.543  2.9131  0.6190 -0.7780
19958SOL     OW61880   8.539   2.255  10.248  0.3194  0.3066  0.7267
19958SOL    HW161881   8.568   2.213  10.329 -0.6027  0.1779  1.0006
19958SOL    HW261882   8.443   2.257  10.255  0.2442  0.5216 -0.2453
19959SOL     OW61883   3.792   8.679   0.500 -0.0098  0.2107  0.1167
19959SOL    HW161884   3.833   8.596   0.525 -1.4774 -0.5021  0.2346
19959SOL    HW261885   3.865   8.734   0.471  0.9496 -1.2813 -0.4134
19960SOL     OW61886   6.997   7.132   3.013  0.3540  0.0283  0.0566
19960SOL    HW161887   7.045   7.055   3.044 -0.9518 -0.5733  0.6354
19960SOL    HW261888   7.055   7.170   2.946  1.4374 -0.9054  0.4205
19961SOL     OW61889  10.617   1.930   0.899  0.3650 -0.5448  0.0177
19961SOL    HW161890  10.665   1.878   0.835 -0.8561 -0.3506 -1.0951
19961SOL    HW261891  10.586   2.006   0.849  0.2906  0.1568  1.1004
19962SOL     OW61892   8.150   1.772   0.185  0.1321  0.5842 -0.3333
19962SOL    HW161893   8.069   1.809   0.150 -1.5542 -3.6484 -1.4549
19962SOL    HW261894   8.199   1.743   0.108  1.3755  0.4676  0.4667
19963SOL     OW61895   8.392   0.863   5.510  0.3498  0.1306 -0.8785
19963SOL    HW161896   8.446   0.807   5.566 -0.5129  0.3338  0.1750
19963SOL    HW261897   8.450   0.935   5.485  0.6295  0.2475  0.0867
19964SOL     OW61898   0.830   4.857   3.293 -0.0697  0.1738  0.3769
19964SOL    HW161899   0.916   4.898   3.288 -0.5850  1.2393 -0.2018
19964SOL    HW261900   0.800   4.874   3.382  0.5909 -0.7953  0.7943
19965SOL     OW61901   7.258   3.732   6.645 -0.3800  0.2710  0.2269
19965SOL    HW161902   7.259   3.745   6.740  1.5847 -0.4868  0.3569
19965SOL    HW261903   7.251   3.820   6.609  2.0096  0.8917  1.1081
19966SOL     OW61904   6.217   7.126   8.274  0.3423  0.2434 -0.0768
19966SOL    HW161905   6.146   7.182   8.242  2.5560  2.4125 -1.5991
19966SOL    HW261906   6.184   7.037   8.265 -2.5850  1.1884  0.4449
19967SOL     OW61907   0.610   7.431   8.066 -0.0557  0.3359  0.4274
19967SOL    HW161908   0.548   7.488   8.020  0.7860  0.6317 -0.3915
19967SOL    HW261909   0.692   7.482   8.067 -0.0141  0.2713  2.1662
19968SOL     OW61910   4.091   1.452   9.635 -0.8496 -0.4306 -0.5265
19968SOL    HW161911   4.005   1.486   9.610 -1.3457 -0.1657  1.4113
19968SOL    HW261912   4.146   1.530   9.643 -0.9846 -0.4155  0.2607
19969SOL     OW61913   1.880   8.686   6.218 -0.1350  0.4145  0.0864
19969SOL    HW161914   1.804   8.738   6.190 -0.9068  0.3116  1.8232
19969SOL    HW261915   1.842   8.607   6.257  0.8710  0.2370  0.7408
19970SOL     OW61916   7.140  10.102   6.755  0.0152  0.2573 -0.4313
19970SOL    HW161917   7.172  10.090   6.844  0.6065 -1.4379 -0.8270
19970SOL    HW261918   7.066  10.041   6.748  0.7161 -0.5230 -1.4148
19971SOL     OW61919   5.186   5.756   2.699  0.0724 -0.0605 -0.3487
19971SOL    HW161920   5.129   5.809   2.755 -1.4680 -0.2879 -1.6299
19971SOL    HW261921   5.221   5.690   2.758 -2.2064 -0.8537  0.2430
19972SOL     OW61922   0.914   8.821   9.580  0.0030  0.3792 -0.1729
19972SOL    HW161923   0.858   8.885   9.624  0.5160  0.3481  0.5567
19972SOL    HW261924   0.892   8.738   9.622 -1.7321 -0.2307 -2.1289
19973SOL     OW61925   2.112   6.052   2.443 -0.0151 -0.9024  0.2323
19973SOL    HW161926   2.042   6.010   2.393 -1.4192  0.3313  1.1078
19973SOL    HW261927   2.104   6.145   2.423  2.2368 -0.8298 -0.6779
19974SOL     OW61928   8.940   5.931   6.885  0.2610 -0.2216  0.3803
19974SOL    HW161929   8.964   6.006   6.939 -2.4649  0.4591  0.8112
19974SOL    HW261930   8.909   5.970   6.803 -1.6971 -0.7986  0.8074
19975SOL     OW61931   6.836   1.221   5.953 -0.2394  0.1081  0.0098
19975SOL    HW161932   6.832   1.172   5.871 -2.1403  1.4407 -0.7696
19975SOL    HW261933   6.770   1.181   6.009 -0.0449  0.1935  0.3050
19976SOL     OW61934   4.618   3.218   8.678 -0.6387  0.0101 -0.5181
19976SOL    HW161935   4.655   3.242   8.593 -0.0496  0.4002 -0.1519
19976SOL    HW261936   4.692   3.221   8.738 -1.0158 -0.4781 -0.0302
19977SOL     OW61937   7.979   0.841   2.448 -0.0289 -0.0514  0.6609
19977SOL    HW161938   7.930   0.770   2.406 -0.1834 -0.7479  1.9671
19977SOL    HW261939   8.068   0.832   2.415 -0.3755  0.1050 -0.3525
19978SOL     OW61940  10.511   2.384  10.037  0.1818  0.2609 -0.8289
19978SOL    HW161941  10.563   2.463  10.053  0.2918  0.2430 -1.0892
19978SOL    HW261942  10.568   2.328   9.984  0.1556 -0.0512 -0.5360
19979SOL     OW61943   7.327   3.874   1.419 -0.1540  0.2176 -0.0105
19979SOL    HW161944   7.362   3.857   1.331  0.7025 -1.5394  0.6010
19979SOL    HW261945   7.404   3.899   1.470 -0.1447 -1.2903  0.7914
19980SOL     OW61946   7.499   8.066   7.417 -0.2641  0.6418 -0.3453
19980SOL    HW161947   7.519   7.973   7.425  0.9710  1.0085  1.4262
19980SOL    HW261948   7.572   8.110   7.460 -0.1475  2.5164 -2.2687
19981SOL     OW61949   7.868   4.999   5.356 -0.4463  0.0919  0.0107
19981SOL    HW161950   7.933   5.049   5.306 -0.3135 -1.1959 -1.1746
19981SOL    HW261951   7.893   4.908   5.344 -1.7966 -0.3741  0.5082
19982SOL     OW61952   3.504   1.068   8.966  0.1310  0.5129 -0.3158
19982SOL    HW161953   3.570   1.068   9.036 -0.0200  0.6126 -0.1768
19982SOL    HW261954   3.445   0.996   8.989 -0.4740  1.1546  0.1719
19983SOL     OW61955   2.524   1.787   7.794 -0.2692 -0.0021  0.8341
19983SOL    HW161956   2.580   1.716   7.824 -0.6769 -1.0713 -0.7762
19983SOL    HW261957   2.479   1.817   7.873  1.4668 -0.0913  1.9051
19984SOL     OW61958   5.213   8.994   8.829 -0.0393  0.3119 -0.2961
19984SOL    HW161959   5.210   9.084   8.796 -0.9744  0.7014  0.8001
19984SOL    HW261960   5.304   8.982   8.857  0.1236  0.8695 -0.5683
19985SOL     OW61961   3.211   8.900  10.728 -0.1774 -0.2014  0.2313
19985SOL    HW161962   3.148   8.956  10.772  0.1486  0.6298 -0.3283
19985SOL    HW261963   3.173   8.812  10.732 -0.9877  0.1581  0.5901
19986SOL     OW61964   3.026   3.328   8.295 -0.1185 -0.0602 -0.7377
19986SOL    HW161965   3.045   3.270   8.221 -0.1173 -1.2132  0.1474
19986SOL    HW261966   2.940   3.300   8.326 -0.2531  0.6175 -0.4898
19987SOL     OW61967   9.972   2.347   7.538 -0.0468  0.0601 -0.1543
19987SOL    HW161968   9.933   2.434   7.545 -1.4129 -0.5751  0.7173
19987SOL    HW261969   9.910   2.298   7.484  0.7570 -0.3393 -0.7148
19988SOL     OW61970   7.680   2.700   9.264  0.0635 -0.4755 -0.1143
19988SOL    HW161971   7.674   2.680   9.358 -1.4279 -0.8241 -0.2515
19988SOL    HW261972   7.609   2.762   9.249  1.0980  0.5751 -0.7903
19989SOL     OW61973   1.421   4.059  10.435 -0.6185  0.0276  0.2718
19989SOL    HW161974   1.330   4.035  10.455 -1.2790  2.1087  0.0417
19989SOL    HW261975   1.413   4.122  10.364  0.9197  1.1388  1.0404
19990SOL     OW61976  10.534   0.744  10.818  0.1019 -0.7206  0.3630
19990SOL    HW161977  10.515   0.827  10.775  1.0679 -2.6275 -4.4106
19990SOL    HW261978  10.448   0.707  10.839 -0.4749  0.1237 -0.4490
19991SOL     OW61979   2.703   2.143   0.482 -0.3924 -0.0242  0.1583
19991SOL    HW161980   2.644   2.195   0.536 -1.2978  0.1618 -0.9553
19991SOL    HW261981   2.686   2.174   0.393  0.8063 -0.5504 -0.2638
19992SOL     OW61982   4.604   4.796   1.519  0.1862  0.2830  0.0317
19992SOL    HW161983   4.571   4.885   1.504 -1.7185 -0.1690  1.2919
19992SOL    HW261984   4.605   4.787   1.614 -1.1682 -1.5597 -0.0837
19993SOL     OW61985   6.431  10.721   8.240 -0.0042  0.0433 -0.1290
19993SOL    HW161986   6.470  10.636   8.257 -1.3204 -0.6112 -0.3109
19993SOL    HW261987   6.464  10.746   8.153  1.4015  0.3358  0.4599
19994SOL     OW61988   7.715   6.171  10.687 -0.4375  0.4454 -0.0921
19994SOL    HW161989   7.647   6.197  10.625  0.3088 -0.6506 -1.4053
19994SOL    HW261990   7.691   6.083  10.714  0.1146  0.2897 -0.0864
19995SOL     OW61991   9.014   5.004   2.764  0.1985  0.3062  0.0623
19995SOL    HW161992   9.016   5.097   2.740 -1.7863  0.0410 -1.4303
19995SOL    HW261993   9.041   4.959   2.684 -0.7339 -0.4388  0.1553
19996SOL     OW61994   9.745   4.533   6.301  0.1072 -0.3544 -0.0336
19996SOL    HW161995   9.732   4.619   6.261 -0.0340 -0.6137 -0.5445
19996SOL    HW261996   9.811   4.548   6.369  0.2419  0.1115 -0.2665
19997SOL     OW61997   7.434   5.783  10.802 -0.6499  0.1245  0.1686
19997SOL    HW161998   7.415   5.690  10.791 -1.2267  0.3827 -1.1310
19997SOL    HW261999   7.530   5.788  10.797 -0.5632 -0.4842  1.0486
19998SOL     OW62000   3.068   9.616   4.610  0.2814 -0.5782  0.3692
19998SOL    HW162001   3.023   9.619   4.526  0.3846  0.7059  0.3392
19998SOL    HW262002   3.003   9.582   4.671  0.0187 -0.9483 -0.1131
19999SOL     OW62003   2.168   8.382   9.372  0.1135  0.1480  0.8984
19999SOL    HW162004   2.073   8.382   9.388  0.4158 -0.5913  2.8745
19999SOL    HW262005   2.190   8.289   9.362  0.6327  0.3237  0.3938
20000SOL     OW62006   9.518   5.248   2.079  0.4150 -0.3439  0.3532
20000SOL    HW162007   9.482   5.288   2.159  0.3148 -0.1429  0.2084
20000SOL    HW262008   9.528   5.156   2.101  1.6272 -0.0705  1.0573
20001SOL     OW62009   0.053   1.916   4.536  0.1569  0.6661  0.2479
20001SOL    HW162010   0.014   1.963   4.462 -1.1999  0.5119  0.8291
20001SOL    HW262011  -0.022   1.880   4.583  1.0344  0.1710  1.3089
20002SOL     OW62012   9.611   8.879   7.898 -0.2009  0.2812  0.1628
20002SOL    HW162013   9.653   8.957   7.861  0.0313 -0.1039 -0.3919
20002SOL    HW262014   9.622   8.889   7.993  2.1046 -0.3094  0.0224
20003SOL     OW62015   9.801   2.554   7.247  0.0645 -0.1197  0.3779
20003SOL    HW162016   9.731   2.599   7.200 -0.9646 -1.4483  0.5719
20003SOL    HW262017   9.803   2.596   7.333 -1.1015 -0.6043  0.6653
20004SOL     OW62018  10.395   9.638   8.689 -0.0917 -0.0474 -0.4024
20004SOL    HW162019  10.360   9.641   8.777  0.6992  2.1395 -0.0829
20004SOL    HW262020  10.477   9.688   8.694  0.0704 -0.0324 -2.3133
20005SOL     OW62021   7.633   5.985   3.618 -0.3555 -0.8448 -0.7281
20005SOL    HW162022   7.606   5.903   3.660  0.7739 -0.5662  0.6199
20005SOL    HW262023   7.579   6.052   3.659  2.1546 -0.2856  1.9776
20006SOL     OW62024  10.677   3.279   8.391 -0.3219  0.3587 -0.1590
20006SOL    HW162025  10.728   3.211   8.347 -0.3804 -0.0516  0.4035
20006SOL    HW262026  10.633   3.234   8.463 -2.0386  0.5596 -1.0384
20007SOL     OW62027   9.352   3.229   1.900  0.4214  0.1689  0.1552
20007SOL    HW162028   9.395   3.154   1.941 -0.6057  0.7091  2.3966
20007SOL    HW262029   9.424   3.283   1.868  1.2426 -0.8540  0.2047
20008SOL     OW62030  10.855   0.375  10.048 -0.3565 -0.0337  0.1969
20008SOL    HW162031  10.856   0.318   9.971  1.2514  1.2428 -0.7961
20008SOL    HW262032  10.772   0.422  10.042 -0.0473  0.4102 -1.0955
20009SOL     OW62033   6.745   9.564   9.097 -0.6243  0.0096 -0.5003
20009SOL    HW162034   6.743   9.474   9.062 -0.4232 -0.4058  0.5127
20009SOL    HW262035   6.751   9.552   9.192 -1.4185  1.1047 -0.2991
20010SOL     OW62036   2.287   5.668  10.361  0.7223  0.2595 -0.1815
20010SOL    HW162037   2.270   5.752  10.403 -0.3968 -0.5505  1.0482
20010SOL    HW262038   2.275   5.685  10.268  1.6456  1.7100 -0.0758
20011SOL     OW62039   3.447   4.568   2.752  0.2327 -0.3142  0.7370
20011SOL    HW162040   3.532   4.608   2.730 -0.0507  0.6106  1.2563
20011SOL    HW262041   3.423   4.519   2.674  1.5385 -1.0981  0.7961
20012SOL     OW62042   0.128   0.190   5.753  0.2489 -0.2010 -0.2489
20012SOL    HW162043   0.163   0.142   5.678  1.6601 -0.2412  0.3940
20012SOL    HW262044   0.146   0.282   5.734 -1.0074 -0.0448 -0.7528
20013SOL     OW62045   2.650   0.938   0.274  0.2539  0.5474  0.0304
20013SOL    HW162046   2.627   0.971   0.187 -0.2029 -1.2551 -0.5767
20013SOL    HW262047   2.568   0.940   0.323  0.2298  0.3475 -0.0011
20014SOL     OW62048   3.769   6.096   9.810  0.4605  0.2815 -0.0840
20014SOL    HW162049   3.858   6.079   9.842  0.8123 -1.4330 -1.8024
20014SOL    HW262050   3.779   6.111   9.716 -1.1539 -1.3312 -0.5827
20015SOL     OW62051   7.927   6.946   5.935  0.1649  0.1554 -0.3421
20015SOL    HW162052   8.000   6.922   5.991 -0.0062  1.0619  0.2877
20015SOL    HW262053   7.883   7.017   5.981 -2.1806 -1.5091  0.1765
20016SOL     OW62054   0.281  10.110   3.515  0.2269 -0.4497  0.6486
20016SOL    HW162055   0.303  10.196   3.551 -2.3331  0.8184 -0.4909
20016SOL    HW262056   0.195  10.090   3.553 -0.5324 -1.1168 -1.2957
20017SOL     OW62057   5.688   2.820   4.255 -0.3441 -0.0199 -0.2028
20017SOL    HW162058   5.704   2.746   4.313  0.4084 -0.6761 -1.2225
20017SOL    HW262059   5.648   2.887   4.312 -0.5596 -1.0031  0.8331
20018SOL     OW62060   6.880   8.160   4.954  0.0256 -0.4042 -0.0613
20018SOL    HW162061   6.917   8.135   4.870 -0.1586  1.6418 -0.8101
20018SOL    HW262062   6.932   8.236   4.983 -1.9089  0.9786  0.0461
20019SOL     OW62063   1.272   9.663   2.561  0.2604 -0.1910  0.6916
20019SOL    HW162064   1.229   9.748   2.556  2.1816  0.7715 -0.5443
20019SOL    HW262065   1.262   9.637   2.653 -0.1195  1.4854  1.1573
20020SOL     OW62066   0.696   8.454  10.797  0.5942 -0.6583  0.2783
20020SOL    HW162067   0.666   8.383  10.740  2.6507 -0.6900 -0.8730
20020SOL    HW262068   0.740   8.409  10.869  4.4450 -0.7803 -1.8468
20021SOL     OW62069   2.013   6.672   4.695 -0.0767 -0.8828 -0.0851
20021SOL    HW162070   2.036   6.745   4.639 -1.4297 -1.9776 -2.2157
20021SOL    HW262071   2.095   6.623   4.706  0.4232 -0.0960 -0.2442
20022SOL     OW62072   5.231   5.420   3.586 -0.2744 -0.4310 -0.6117
20022SOL    HW162073   5.218   5.334   3.626 -2.1440  0.3083  0.5463
20022SOL    HW262074   5.269   5.473   3.655 -0.6844  0.0991 -0.7895
20023SOL     OW62075   3.623   6.256   8.627 -0.2361  0.3970  0.1038
20023SOL    HW162076   3.632   6.205   8.707  2.3928  1.4362  0.5688
20023SOL    HW262077   3.533   6.240   8.598 -1.0470 -0.5482  2.8597
20024SOL     OW62078   4.162   0.383   2.226 -0.3511 -0.0863  0.0344
20024SOL    HW162079   4.216   0.361   2.150  0.0189  0.8831  0.0062
20024SOL    HW262080   4.224   0.391   2.298 -0.9304 -3.8471  1.1836
20025SOL     OW62081   3.907   6.517   6.639  0.3828 -0.5002 -0.0671
20025SOL    HW162082   3.979   6.547   6.694 -0.2651  0.2989  0.3744
20025SOL    HW262083   3.831   6.567   6.669  0.0959  0.3578 -2.0249
20026SOL     OW62084   8.944   7.987   6.200 -0.1154 -0.0982  0.4281
20026SOL    HW162085   8.862   7.945   6.228  0.6962 -1.6431  0.5846
20026SOL    HW262086   8.983   8.020   6.280 -0.4608  0.4264  0.3841
20027SOL     OW62087   6.135   7.764   2.939 -0.3717 -0.0614 -0.2318
20027SOL    HW162088   6.174   7.704   2.875  0.7565 -2.1343  2.2096
20027SOL    HW262089   6.205   7.827   2.959 -0.2047 -0.3296  0.0355
20028SOL     OW62090   0.055   2.759   5.610 -0.0904 -0.2160 -0.6520
20028SOL    HW162091   0.134   2.812   5.619 -0.2998 -0.0110  0.0849
20028SOL    HW262092   0.084   2.669   5.625 -0.4644  0.1173  2.8868
20029SOL     OW62093   5.262   1.940   2.896  0.1788  1.2636 -0.3501
20029SOL    HW162094   5.350   1.976   2.887  0.0977  1.4175 -0.5469
20029SOL    HW262095   5.204   2.009   2.862 -0.0050  1.1007 -0.3745
20030SOL     OW62096   9.554   5.504   3.033  0.1717 -0.9322  0.1946
20030SOL    HW162097   9.584   5.594   3.042 -1.5988 -0.2731 -0.0177
20030SOL    HW262098   9.574   5.463   3.117  1.9733 -0.6941 -0.0730
20031SOL     OW62099   3.112   7.385   7.711 -0.5269 -0.5106  0.2382
20031SOL    HW162100   3.150   7.449   7.651 -0.8188 -0.1580  0.4241
20031SOL    HW262101   3.120   7.426   7.798 -2.4497  0.1377  0.1605
20032SOL     OW62102   0.660   4.020   4.870 -0.2753 -0.4522  0.1037
20032SOL    HW162103   0.603   3.969   4.811 -0.4372 -1.6020  1.1977
20032SOL    HW262104   0.736   3.964   4.884 -0.1186 -0.0817  0.7742
20033SOL     OW62105   5.104   1.547   1.780 -0.1352  0.1451  0.4109
20033SOL    HW162106   5.124   1.454   1.782 -0.4794  0.0635  0.2162
20033SOL    HW262107   5.164   1.583   1.715 -0.0974  0.0335  0.3838
20034SOL     OW62108   0.930  10.956   7.519 -1.0860 -0.1765  0.3020
20034SOL    HW162109   0.935  11.009   7.598 -0.5692 -0.4064  0.4316
20034SOL    HW262110   0.953  10.867   7.548 -0.2806 -0.1507 -0.2039
20035SOL     OW62111   7.192   6.628   2.277  0.2068  0.5545  0.3292
20035SOL    HW162112   7.186   6.601   2.368  0.7287  0.9370  0.4868
20035SOL    HW262113   7.136   6.568   2.229 -1.3689  1.3610  1.1111
20036SOL     OW62114   3.034   8.652   4.164  0.0719  0.2631 -0.0772
20036SOL    HW162115   3.045   8.567   4.206 -1.4808  0.3316  0.5196
20036SOL    HW262116   3.104   8.706   4.201  0.1353 -0.3274  0.6950
20037SOL     OW62117   7.478   4.134   8.546  0.2547 -0.0928  0.3357
20037SOL    HW162118   7.400   4.157   8.595  0.7307 -0.1297  1.1297
20037SOL    HW262119   7.513   4.217   8.514  0.9341  0.1262  1.6004
20038SOL     OW62120   7.950   4.634   2.846 -0.2559 -0.1619  0.6536
20038SOL    HW162121   8.024   4.581   2.875 -0.0755  0.9575  2.4247
20038SOL    HW262122   7.988   4.700   2.789  0.0837  0.2387  1.3328
20039SOL     OW62123   7.156   5.419   1.771 -0.6491  0.0042  0.3821
20039SOL    HW162124   7.235   5.456   1.731 -0.2564 -0.8304  0.3649
20039SOL    HW262125   7.188   5.345   1.824 -1.1963  0.8580  1.9765
20040SOL     OW62126   8.075   2.743   6.096 -0.0892 -0.2974  0.0710
20040SOL    HW162127   8.029   2.758   6.014  0.1204 -1.4278 -0.2621
20040SOL    HW262128   8.082   2.830   6.135 -1.0820  0.1159 -0.6210
20041SOL     OW62129   9.384   7.054  10.826 -0.5519  0.1382 -0.3743
20041SOL    HW162130   9.305   7.092  10.789 -0.9805  1.7861  1.9769
20041SOL    HW262131   9.353   7.000  10.899  0.4350  0.8524  0.6136
20042SOL     OW62132   1.490   4.608   2.815 -0.1832  0.3666  0.2899
20042SOL    HW162133   1.585   4.624   2.819 -0.2096  0.4428  0.6802
20042SOL    HW262134   1.479   4.549   2.741  0.0943  0.8811 -0.1661
20043SOL     OW62135   1.032   7.947   8.860 -0.1740 -0.2323 -0.7094
20043SOL    HW162136   1.084   7.983   8.788  0.2242 -1.6823 -1.1744
20043SOL    HW262137   1.093   7.890   8.907 -0.8089 -0.3811 -0.0598
20044SOL     OW62138   0.226  10.440   4.876  0.5316 -0.4705 -0.1076
20044SOL    HW162139   0.196  10.524   4.909  1.3033 -0.5850  0.9531
20044SOL    HW262140   0.161  10.377   4.906  0.7243 -0.4416  0.3836
20045SOL     OW62141   2.896   3.624   9.279  0.5784  0.4329 -0.3420
20045SOL    HW162142   2.801   3.628   9.288  0.6621  0.7832  0.5951
20045SOL    HW262143   2.919   3.702   9.229  0.5089  1.3780  1.0313
20046SOL     OW62144   3.791   4.630   4.724  0.1064  0.1305  0.1013
20046SOL    HW162145   3.725   4.584   4.775  0.8555 -1.4880 -0.3097
20046SOL    HW262146   3.780   4.598   4.635  1.2689  0.0071 -0.0204
20047SOL     OW62147  10.100   7.537   2.310  0.0893 -0.6692  0.3730
20047SOL    HW162148  10.146   7.464   2.351 -0.1827 -1.3005 -0.4106
20047SOL    HW262149  10.048   7.576   2.380  0.6615 -0.8841  0.9212
20048SOL     OW62150   6.265   2.570   6.688  0.0113  0.6273 -0.3083
20048SOL    HW162151   6.329   2.519   6.638  1.1945  1.6477  0.1392
20048SOL    HW262152   6.190   2.511   6.697  0.3105 -0.0642 -2.0872
20049SOL     OW62153  10.423   0.461   0.190  0.4027 -0.1308 -0.1300
20049SOL    HW162154  10.381   0.451   0.276 -2.0283  1.9977 -0.9508
20049SOL    HW262155  10.364   0.416   0.129 -1.1332  3.1892 -1.3506
20050SOL     OW62156  10.813   6.999   6.993  0.0381  0.5652 -0.5052
20050SOL    HW162157  10.848   6.911   6.981  2.2816  1.3897 -0.4049
20050SOL    HW262158  10.758   6.993   7.071  1.1074 -0.4889  0.1976
20051SOL     OW62159   1.891  10.481   0.015  0.1799  0.2128 -0.0404
20051SOL    HW162160   1.933  10.509  -0.066  1.7488 -2.6237 -0.3055
20051SOL    HW262161   1.939  10.403   0.042 -0.3300  0.9670  3.6136
20052SOL     OW62162   6.684  10.993   0.177 -0.2172 -0.3964  0.3615
20052SOL    HW162163   6.599  10.988   0.133  0.3984 -0.1121 -0.8827
20052SOL    HW262164   6.674  10.938   0.255 -1.0910 -1.5306 -0.5240
20053SOL     OW62165   1.600   0.072   7.652 -0.2536  0.1763 -0.1182
20053SOL    HW162166   1.522   0.053   7.600 -0.9688 -1.3074  1.4414
20053SOL    HW262167   1.575   0.055   7.742  1.0198  2.4920  0.7690
20054SOL     OW62168   5.507   7.439   2.577  0.2974 -0.7308 -0.6500
20054SOL    HW162169   5.600   7.416   2.581  1.2188  1.9124 -3.5631
20054SOL    HW262170   5.505   7.534   2.583 -2.1750 -0.6485 -1.5852
20055SOL     OW62171   1.392   5.535   8.652  0.5041  0.4701 -0.2242
20055SOL    HW162172   1.345   5.497   8.726  0.0534 -0.4745 -0.9610
20055SOL    HW262173   1.479   5.495   8.656 -0.3085 -1.6124 -1.6330
20056SOL     OW62174   7.647   2.847  10.275  0.3036 -0.2116  0.3368
20056SOL    HW162175   7.710   2.918  10.271  0.3447 -0.2026  1.0186
20056SOL    HW262176   7.632   2.833  10.369 -0.0144 -0.8216  0.2039
20057SOL     OW62177   6.648   8.901   0.277  0.0790  0.2906  0.2085
20057SOL    HW162178   6.637   8.808   0.294  0.1866  0.0297 -1.0697
20057SOL    HW262179   6.564   8.930   0.242  1.1184 -0.1832 -2.9413
20058SOL     OW62180   1.311   6.513   3.160  0.0177 -0.2327 -0.3514
20058SOL    HW162181   1.281   6.458   3.232 -0.7049  1.2662  0.5376
20058SOL    HW262182   1.347   6.452   3.095  0.8036 -1.6181  1.3245
20059SOL     OW62183   3.455   7.324  10.482 -0.5710 -0.3446 -0.2364
20059SOL    HW162184   3.469   7.359  10.570 -1.6566 -0.3505 -0.0382
20059SOL    HW262185   3.422   7.235  10.496 -0.1400 -0.5779 -0.6724
20060SOL     OW62186  10.128   0.542   1.122 -0.0747 -0.3765  0.3267
20060SOL    HW162187  10.037   0.513   1.127 -0.0453 -0.3270  1.1841
20060SOL    HW262188  10.173   0.494   1.191  0.1974  0.8781  1.0484
20061SOL     OW62189   4.742  10.982   9.025 -0.0095 -0.2515 -0.3228
20061SOL    HW162190   4.660  11.030   9.015 -0.0458 -0.5906 -1.7657
20061SOL    HW262191   4.787  11.028   9.097 -1.3044  0.1200  0.2907
20062SOL     OW62192   3.133   5.897   7.632  0.3761 -0.0168  0.2280
20062SOL    HW162193   3.196   5.874   7.702  0.2821 -1.2321 -0.0695
20062SOL    HW262194   3.182   5.883   7.551 -0.2479 -0.8955 -0.0046
20063SOL     OW62195   1.362   1.150   1.636  0.1624  1.1216  0.3252
20063SOL    HW162196   1.290   1.132   1.696  0.0033  2.6176  0.6236
20063SOL    HW262197   1.441   1.134   1.687  0.0685 -0.1328  0.1185
20064SOL     OW62198   6.288   6.772   8.139  0.1537  0.1827  0.1767
20064SOL    HW162199   6.249   6.801   8.222  2.1496 -1.1004  1.6575
20064SOL    HW262200   6.373   6.736   8.164  0.4690 -1.0258 -2.3469
20065SOL     OW62201   9.845   6.186   8.809  0.2291 -0.2760  0.1420
20065SOL    HW162202   9.799   6.111   8.846 -1.2602  0.5469  0.0412
20065SOL    HW262203   9.912   6.148   8.752  1.1940 -1.5322  2.0249
20066SOL     OW62204   5.034   7.335   0.976 -0.3020 -0.2419  0.4833
20066SOL    HW162205   5.010   7.392   0.903  0.7176 -0.2320  0.1299
20066SOL    HW262206   5.002   7.248   0.949  0.4017 -0.3112 -0.1685
20067SOL     OW62207   7.807   7.828   2.957  0.0851  0.1745 -0.4113
20067SOL    HW162208   7.800   7.746   2.909 -2.4154 -0.6566  1.1815
20067SOL    HW262209   7.725   7.875   2.937  0.2195  1.0085  0.8825
20068SOL     OW62210   8.195   6.835   1.406  0.3399 -0.2811  0.0947
20068SOL    HW162211   8.227   6.777   1.475  0.8604 -1.3621 -1.0209
20068SOL    HW262212   8.269   6.844   1.346 -0.1105  0.6190 -0.3576
20069SOL     OW62213  10.433   0.109   0.763  0.5733 -0.6943 -0.4978
20069SOL    HW162214  10.447   0.166   0.688  0.2168 -0.7526 -0.6099
20069SOL    HW262215  10.349   0.136   0.799  1.0198 -0.2630  0.2444
20070SOL     OW62216   1.487   0.392   8.429 -0.2857 -0.5316  0.6442
20070SOL    HW162217   1.472   0.456   8.359 -1.3709 -1.3298  0.1194
20070SOL    HW262218   1.500   0.446   8.508 -1.6202  0.3574  0.3050
20071SOL     OW62219   7.005   2.088   4.958 -0.2410  0.1413  0.2861
20071SOL    HW162220   6.934   2.075   5.022 -0.1372 -1.1230  0.1803
20071SOL    HW262221   6.978   2.164   4.907 -1.6372 -0.4296  0.1258
20072SOL     OW62222   7.167   2.274   3.237 -0.0044  0.4887 -0.6475
20072SOL    HW162223   7.251   2.297   3.278  0.3714 -1.0908 -0.4698
20072SOL    HW262224   7.134   2.357   3.202  1.5235  1.1770 -0.5357
20073SOL     OW62225   1.962   1.083   0.678 -0.2644  0.3714 -0.2948
20073SOL    HW162226   1.963   1.088   0.773  0.2097 -1.2179 -0.1949
20073SOL    HW262227   1.952   1.174   0.650 -3.1563  0.6653  1.2708
20074SOL     OW62228   8.459   9.003   4.519  0.2552  0.5861 -0.0753
20074SOL    HW162229   8.429   8.967   4.436  1.1527  0.1647 -0.2203
20074SOL    HW262230   8.394   8.973   4.583 -0.2693  0.6597 -0.5621
20075SOL     OW62231   5.573   9.803  10.808 -0.4001 -0.0457 -0.3215
20075SOL    HW162232   5.629   9.881  10.811  1.7431 -1.4159 -1.6941
20075SOL    HW262233   5.620   9.738  10.862 -1.3193 -0.8745 -0.4939
20076SOL     OW62234   5.667   8.242   7.798 -0.0387  0.1217  0.6712
20076SOL    HW162235   5.583   8.211   7.834  0.4088 -1.3608  0.5305
20076SOL    HW262236   5.646   8.325   7.756 -1.7881 -0.9674 -0.7474
20077SOL     OW62237   2.036   9.705   3.698 -0.7365 -0.0294 -0.4060
20077SOL    HW162238   2.004   9.787   3.737 -0.9619  0.1285 -0.9131
20077SOL    HW262239   1.960   9.647   3.698 -0.4748 -0.3918  0.3317
20078SOL     OW62240   6.642   8.628  10.143 -0.3486  0.1732  0.3640
20078SOL    HW162241   6.673   8.675  10.220  1.0201 -1.5777  0.9534
20078SOL    HW262242   6.721   8.593  10.103 -0.9138  1.7588 -2.4148
20079SOL     OW62243   0.549   3.133   7.335  0.0765  0.8396 -0.3510
20079SOL    HW162244   0.629   3.161   7.380 -0.1331 -1.8755  1.9841
20079SOL    HW262245   0.575   3.056   7.285 -0.4030  2.0175 -2.5393
20080SOL     OW62246   2.184   2.582   4.408 -0.0655 -0.3613  0.0268
20080SOL    HW162247   2.232   2.649   4.358 -1.3243 -0.3550 -1.2649
20080SOL    HW262248   2.186   2.505   4.352  1.9006 -1.6846  1.7791
20081SOL     OW62249   4.608   1.788   2.750  0.8435 -0.4688 -0.0983
20081SOL    HW162250   4.657   1.801   2.831  0.3185  1.9052 -0.1025
20081SOL    HW262251   4.566   1.703   2.761  2.3053 -1.0514  1.2929
20082SOL     OW62252   5.337   2.711   6.851 -0.2363  0.0882 -0.3082
20082SOL    HW162253   5.338   2.804   6.874  0.7963  0.3921 -1.4463
20082SOL    HW262254   5.430   2.688   6.843 -0.4326 -1.3961  1.2397
20083SOL     OW62255   0.395  10.719   1.084  0.3924 -0.1476 -0.4738
20083SOL    HW162256   0.340  10.795   1.104  1.7675  0.4578  1.2497
20083SOL    HW262257   0.445  10.745   1.007  1.0149  0.8153  0.2362
20084SOL     OW62258   4.743   4.084   3.325 -0.4772  0.3382  0.1894
20084SOL    HW162259   4.761   4.070   3.232 -0.1568  1.2566  0.1060
20084SOL    HW262260   4.705   4.001   3.354  0.6236 -0.4236 -0.4594
20085SOL     OW62261   7.115   9.268  10.904 -0.1473 -0.2172 -0.2987
20085SOL    HW162262   7.119   9.357  10.869  0.9580 -0.6454 -1.3207
20085SOL    HW262263   7.147   9.275  10.993 -1.6254  0.6652  0.1905
20086SOL     OW62264   7.412   9.367   8.950  0.6901  0.3311 -0.0186
20086SOL    HW162265   7.397   9.273   8.937  0.1569  0.2849  0.8350
20086SOL    HW262266   7.504   9.374   8.975  0.5892 -0.0205  0.4469
20087SOL     OW62267   7.838   5.421   3.187  0.5291  0.6472  0.0693
20087SOL    HW162268   7.846   5.514   3.211 -1.3239  0.7431  0.4593
20087SOL    HW262269   7.822   5.423   3.093  2.0642  0.5990 -0.2204
20088SOL     OW62270   2.285   2.577   6.330 -0.2617  0.3779  0.5745
20088SOL    HW162271   2.249   2.654   6.286  1.4064  0.4123 -0.8524
20088SOL    HW262272   2.336   2.532   6.262 -0.5819 -1.6030  1.5536
20089SOL     OW62273   5.226  10.381   2.887 -1.1422 -0.0380  0.3528
20089SOL    HW162274   5.131  10.371   2.880 -1.0361 -1.3214  0.4865
20089SOL    HW262275   5.243  10.384   2.982 -1.0654  0.4001  0.3263
20090SOL     OW62276   8.071   4.178   6.355 -0.2252  0.1936  0.7468
20090SOL    HW162277   8.010   4.122   6.306 -0.8752 -0.1992  1.9566
20090SOL    HW262278   8.142   4.119   6.380  0.1025  0.3919  0.2802
20091SOL     OW62279   7.687   5.547   9.670 -0.3639  0.1847  0.6125
20091SOL    HW162280   7.727   5.497   9.599  0.5888 -1.0022  1.9212
20091SOL    HW262281   7.613   5.494   9.698 -1.5253  1.2783 -0.3090
20092SOL     OW62282   8.410   0.033   2.524  0.0174 -0.0900  0.4943
20092SOL    HW162283   8.384   0.071   2.440 -0.8864  0.9209  1.2065
20092SOL    HW262284   8.426  -0.060   2.505  0.4285  0.2431 -0.9020
20093SOL     OW62285   3.938   3.149   7.923 -0.4460  0.2881  0.7487
20093SOL    HW162286   3.948   3.073   7.866 -0.8486  1.1706 -0.5592
20093SOL    HW262287   3.843   3.164   7.927 -0.4541  0.0045  2.0024
20094SOL     OW62288   4.601   9.597   4.673  0.6164  0.5252 -0.0252
20094SOL    HW162289   4.516   9.602   4.629  0.6796 -1.1890 -0.4117
20094SOL    HW262290   4.663   9.629   4.607  0.2838  1.7858  0.2597
20095SOL     OW62291   3.199   3.439   5.253  0.0629 -0.1837 -0.1499
20095SOL    HW162292   3.114   3.405   5.283 -0.1526  1.2762  1.0735
20095SOL    HW262293   3.263   3.397   5.310 -0.0650  0.3627  0.4070
20096SOL     OW62294   9.919   6.668   8.193 -0.4246  0.1062 -0.3855
20096SOL    HW162295   9.960   6.738   8.244 -0.3890 -0.5497  0.5113
20096SOL    HW262296   9.950   6.682   8.104  0.1618  0.8030 -0.0844
20097SOL     OW62297   7.920   3.580   0.108  0.0220 -0.6067 -0.2180
20097SOL    HW162298   7.961   3.666   0.098 -1.2314 -0.1790 -2.2697
20097SOL    HW262299   7.949   3.550   0.194 -0.0454  2.1655  0.8959
20098SOL     OW62300   7.108   0.287   6.595  0.4522 -0.4099  0.1904
20098SOL    HW162301   7.126   0.202   6.635  2.2649 -0.0990  0.1130
20098SOL    HW262302   7.175   0.345   6.631  0.3193  0.5781 -1.0976
20099SOL     OW62303   8.393   4.943   0.900 -0.5232 -0.0318  0.1368
20099SOL    HW162304   8.419   4.932   0.991 -2.5108  1.0936  0.8968
20099SOL    HW262305   8.385   5.037   0.888  0.4381 -0.1084 -1.4555
20100SOL     OW62306  10.714   9.077   4.870  0.0230  0.0126  0.2103
20100SOL    HW162307  10.762   9.012   4.922  0.8288 -0.5973 -1.2204
20100SOL    HW262308  10.666   9.024   4.806 -0.9777  0.7408  0.3421
20101SOL     OW62309   8.423   1.925   9.240 -0.2225 -0.2136  0.0825
20101SOL    HW162310   8.354   1.909   9.176 -1.4297 -2.2084  1.7693
20101SOL    HW262311   8.378   1.967   9.314  0.8461  0.6514  0.2738
20102SOL     OW62312   3.117   6.016   5.228  0.1905  0.4181  0.2321
20102SOL    HW162313   3.187   5.992   5.168 -0.8075 -0.0228 -0.7974
20102SOL    HW262314   3.151   5.994   5.315  1.1372 -0.2345 -0.2855
20103SOL     OW62315   1.030   6.913   1.182 -0.3587  0.0669  0.3632
20103SOL    HW162316   1.079   6.860   1.120 -2.1658 -1.0037 -0.2192
20103SOL    HW262317   1.035   7.002   1.147  0.0299 -0.2476 -0.4093
20104SOL     OW62318   4.731   3.733   4.292 -0.0256  0.2790  0.0510
20104SOL    HW162319   4.653   3.677   4.291  0.8524 -0.9776  0.5855
20104SOL    HW262320   4.795   3.685   4.345  1.6365  0.5963 -1.5892
20105SOL     OW62321   0.497   8.444   8.027  0.1212 -0.0892  0.0665
20105SOL    HW162322   0.538   8.516   7.979 -1.2525  0.4837 -0.2900
20105SOL    HW262323   0.449   8.395   7.961 -1.4828  0.4854  0.7609
20106SOL     OW62324   2.845   0.338   6.589  0.3322 -0.3530  0.0369
20106SOL    HW162325   2.863   0.383   6.671  0.0060 -2.0391  1.0810
20106SOL    HW262326   2.756   0.366   6.566 -0.3425 -1.3268  1.3138
20107SOL     OW62327   0.804   9.153   1.963 -0.1805  0.2854 -0.1627
20107SOL    HW162328   0.828   9.067   1.997 -1.2281  0.0021 -0.1074
20107SOL    HW262329   0.842   9.155   1.875 -1.1561 -0.7369 -0.6410
20108SOL     OW62330   0.411   7.383   9.678 -0.7385  0.1007  0.0608
20108SOL    HW162331   0.443   7.392   9.768  1.6630  0.4093 -0.7350
20108SOL    HW262332   0.317   7.370   9.687 -0.3149 -2.0861  2.7284
20109SOL     OW62333  10.348   5.469   9.301  0.0088  0.0815 -0.6119
20109SOL    HW162334  10.410   5.406   9.336 -1.8144 -1.6540 -0.3487
20109SOL    HW262335  10.300   5.501   9.378 -0.3434  0.3637 -0.9446
20110SOL     OW62336   2.170   9.504   1.383  0.0455 -0.3679 -0.0672
20110SOL    HW162337   2.199   9.544   1.300 -1.6001 -0.0386 -0.5107
20110SOL    HW262338   2.145   9.415   1.360 -1.0063 -0.0826 -0.0580
20111SOL     OW62339   0.450   0.489   0.036  0.3942 -0.0893 -0.4132
20111SOL    HW162340   0.413   0.401   0.024  0.5965  0.0191 -2.0696
20111SOL    HW262341   0.378   0.548   0.017 -0.1436  0.1442  2.1087
20112SOL     OW62342   1.035   6.400   9.150  0.0591 -0.2676 -0.3223
20112SOL    HW162343   0.957   6.373   9.198 -0.0931 -1.6183 -1.2952
20112SOL    HW262344   1.054   6.488   9.183 -1.1293 -0.4183  0.8312
20113SOL     OW62345   9.332   8.231   9.922  0.0925  0.1307 -0.0894
20113SOL    HW162346   9.334   8.267   9.833  0.9383 -0.5053 -0.3382
20113SOL    HW262347   9.314   8.307   9.978  1.0801  0.8108 -0.6679
20114SOL     OW62348   8.399  10.080   6.667 -0.3487 -0.2977 -0.3106
20114SOL    HW162349   8.328  10.033   6.711  0.4451 -1.7955 -0.5571
20114SOL    HW262350   8.396  10.169   6.704 -1.0984 -0.8905  1.1247
20115SOL     OW62351   7.364   3.733  10.467  0.0668  0.1131  0.4577
20115SOL    HW162352   7.276   3.753  10.434 -0.0923 -1.8366 -0.4475
20115SOL    HW262353   7.368   3.637  10.466  1.5751  0.1181  2.2196
20116SOL     OW62354   0.135   5.273   8.461  0.5156 -0.2943  0.3077
20116SOL    HW162355   0.171   5.352   8.502  2.2549 -1.4589  1.1733
20116SOL    HW262356   0.188   5.262   8.381 -0.4861  0.0160 -0.4164
20117SOL     OW62357   9.599   1.525   5.564  0.1054  0.0686  0.5646
20117SOL    HW162358   9.561   1.611   5.584 -0.9298 -0.1841 -0.1776
20117SOL    HW262359   9.689   1.530   5.596 -0.2441  1.0656  1.4683
20118SOL     OW62360   2.079   9.453   2.498 -0.1250  0.1787  0.2185
20118SOL    HW162361   2.170   9.479   2.512 -0.5612  0.6048  2.8779
20118SOL    HW262362   2.060   9.394   2.572 -1.5684 -1.1647 -1.1495
20119SOL     OW62363   6.958   4.464   0.065  0.2127 -0.1111 -0.8152
20119SOL    HW162364   6.940   4.444  -0.027  3.0487 -1.6173 -1.1359
20119SOL    HW262365   7.032   4.525   0.062  0.7469 -0.6793  0.4705
20120SOL     OW62366   2.379   7.438   2.715 -0.0348 -0.1823 -0.0601
20120SOL    HW162367   2.387   7.388   2.634  3.1146 -1.3222  0.7964
20120SOL    HW262368   2.399   7.529   2.690  0.2999 -0.4208 -0.6735
20121SOL     OW62369   0.586   6.018   0.871  0.7021 -0.5144 -0.0957
20121SOL    HW162370   0.496   6.018   0.837  0.1913 -0.9106  1.2350
20121SOL    HW262371   0.615   5.928   0.862  0.5674 -0.6188  0.5156
20122SOL     OW62372   4.873   4.292   1.299 -0.0506  0.0789 -0.2495
20122SOL    HW162373   4.968   4.288   1.287 -0.0879  0.1786 -0.5892
20122SOL    HW262374   4.853   4.385   1.298 -0.0993  0.0806  0.2841
20123SOL     OW62375   1.836   3.973   7.301 -0.2410 -0.7489 -0.1361
20123SOL    HW162376   1.881   3.893   7.330  0.7059 -0.6923 -1.3224
20123SOL    HW262377   1.787   4.003   7.377  0.9312 -1.4064  0.9224
20124SOL     OW62378   4.992   2.660   5.692  0.1246 -0.7683 -0.3597
20124SOL    HW162379   4.929   2.634   5.625 -0.7303 -0.2549  0.2245
20124SOL    HW262380   4.957   2.625   5.774 -0.3192  0.9263  0.2292
20125SOL     OW62381   2.184   5.655   5.187  0.7645  0.7796 -0.3417
20125SOL    HW162382   2.277   5.630   5.185  0.6359  0.2947 -0.8331
20125SOL    HW262383   2.179   5.726   5.250  1.4045  0.5298  0.0005
20126SOL     OW62384   3.445   1.313   8.870  0.2025  0.2730 -0.0512
20126SOL    HW162385   3.453   1.230   8.917 -0.8663 -0.3029 -0.8480
20126SOL    HW262386   3.411   1.374   8.936  0.5961 -0.0144  0.4285
20127SOL     OW62387   7.961   8.354   7.281 -0.4181  0.0007  0.6282
20127SOL    HW162388   7.959   8.274   7.228 -0.3047  0.3922  0.0173
20127SOL    HW262389   7.989   8.422   7.220  0.4347  0.3333  1.3694
20128SOL     OW62390  10.003   9.996   4.502  0.6601  0.4071  0.3414
20128SOL    HW162391   9.965  10.062   4.561  0.4486  0.0481  0.6107
20128SOL    HW262392  10.030  10.046   4.425 -0.5011  0.6511  0.0718
20129SOL     OW62393   7.134  10.220  10.566 -0.1465  0.1577  0.4726
20129SOL    HW162394   7.094  10.179  10.643 -1.2395 -1.4766 -0.9000
20129SOL    HW262395   7.115  10.160  10.494  1.8830  1.0271 -0.8871
20130SOL     OW62396   1.206   9.612   9.129  0.0068  0.2422 -0.3840
20130SOL    HW162397   1.271   9.646   9.189 -0.6049  0.4884  0.1534
20130SOL    HW262398   1.143   9.566   9.185 -0.6992  0.6781 -0.7990
20131SOL     OW62399   4.229   6.090   8.036 -0.2309 -0.4324  0.1688
20131SOL    HW162400   4.250   6.015   8.091 -0.9105 -0.0875  0.9259
20131SOL    HW262401   4.143   6.119   8.066  0.6566  1.5709  0.9658
20132SOL     OW62402   5.327   0.727   1.032  0.1180 -0.1551  0.1075
20132SOL    HW162403   5.413   0.749   0.996 -0.0721  1.4614  0.5893
20132SOL    HW262404   5.270   0.799   1.004 -0.6949 -0.3395  1.2358
20133SOL     OW62405   6.098  10.139   3.053 -0.1182 -0.4806  0.0813
20133SOL    HW162406   6.049  10.081   2.994  0.3457 -0.1939 -0.5995
20133SOL    HW262407   6.096  10.224   3.010  0.0906 -0.2299  0.5653
20134SOL     OW62408   1.100   2.533   8.890  0.6781  0.3018  0.1096
20134SOL    HW162409   1.183   2.570   8.861  0.5516  1.1587  0.8111
20134SOL    HW262410   1.099   2.444   8.854  1.4790  0.6027 -0.6738
20135SOL     OW62411   0.624   9.103   2.328 -0.2198  0.5228  0.1119
20135SOL    HW162412   0.677   9.055   2.391 -1.7130  0.3723  1.3362
20135SOL    HW262413   0.583   9.036   2.274 -1.8415  0.3481  1.4428
20136SOL     OW62414   6.519   0.856  10.733  0.3341 -0.7210  0.2465
20136SOL    HW162415   6.518   0.911  10.811 -0.6483  0.5577 -0.6072
20136SOL    HW262416   6.592   0.891  10.680  0.2558 -0.8019  0.0847
20137SOL     OW62417   0.847   2.364   9.529 -0.2913  0.3370  0.2545
20137SOL    HW162418   0.774   2.407   9.483  0.5349  0.9545 -0.5230
20137SOL    HW262419   0.822   2.366   9.621 -1.4373  0.1763 -0.0330
20138SOL     OW62420   2.588   4.367   1.817 -0.2143 -0.1914  0.4970
20138SOL    HW162421   2.621   4.336   1.901  2.5666  0.0223 -0.4263
20138SOL    HW262422   2.615   4.459   1.813 -1.2051  0.0806 -0.2313
20139SOL     OW62423  10.986   4.495   9.914 -0.6507 -0.2032  0.2858
20139SOL    HW162424  11.011   4.567   9.856  0.8519 -1.7772 -1.1338
20139SOL    HW262425  10.961   4.424   9.855  0.1889 -1.6098  1.5411
20140SOL     OW62426   3.672   8.656   4.462 -0.4381  0.4994  0.5286
20140SOL    HW162427   3.723   8.579   4.434 -2.5592 -0.2990 -1.4311
20140SOL    HW262428   3.603   8.620   4.517 -1.2398  1.0234 -0.1134
20141SOL     OW62429   7.957  10.615   5.403  0.2351  0.3854  0.0328
20141SOL    HW162430   8.023  10.554   5.437  0.3894 -0.1586 -1.1975
20141SOL    HW262431   7.876  10.565   5.403 -0.0309  0.8027  0.8030
20142SOL     OW62432   8.392   3.354   2.529 -0.2170 -0.0964 -0.0691
20142SOL    HW162433   8.460   3.347   2.597 -1.3584  0.1567  1.1443
20142SOL    HW262434   8.439   3.338   2.447  1.7939  2.4416  0.4451
20143SOL     OW62435   4.039   0.432   1.820  0.0592 -0.3638  0.5033
20143SOL    HW162436   4.052   0.470   1.733  2.6796 -0.6820  0.6816
20143SOL    HW262437   4.069   0.501   1.880 -3.4905  0.6427  1.4010
20144SOL     OW62438   3.428   2.863   4.429 -0.0614  0.1244  0.5306
20144SOL    HW162439   3.458   2.938   4.480 -1.3565  0.1472  1.3077
20144SOL    HW262440   3.497   2.848   4.364  0.4505  1.6672  0.6867
20145SOL     OW62441   9.817   7.386   9.245 -0.4454 -0.5159 -0.2453
20145SOL    HW162442   9.773   7.339   9.316 -0.9781  0.2974 -0.0205
20145SOL    HW262443   9.892   7.331   9.223  0.5776 -0.0710  1.9359
20146SOL     OW62444   0.275   1.508   7.693 -0.8319 -0.6338 -0.1677
20146SOL    HW162445   0.296   1.561   7.615 -1.0173 -0.3349 -0.0153
20146SOL    HW262446   0.260   1.420   7.658 -0.6253 -0.5663 -0.4369
20147SOL     OW62447   9.526   0.815   9.277  0.2707 -0.5455 -0.0853
20147SOL    HW162448   9.531   0.813   9.372  1.1342 -0.5953 -0.1280
20147SOL    HW262449   9.483   0.733   9.253  0.4893 -0.7550  0.2389
20148SOL     OW62450  10.980   8.631   8.184  0.1666 -0.7292  0.5699
20148SOL    HW162451  11.059   8.653   8.136  1.1642 -2.8424  1.0931
20148SOL    HW262452  10.911   8.683   8.144  1.2838 -1.0604 -1.9459
20149SOL     OW62453   9.294   6.779   6.873  0.2006  0.1026  0.0888
20149SOL    HW162454   9.352   6.768   6.798 -1.1278  0.8760 -1.1057
20149SOL    HW262455   9.321   6.862   6.912  0.4541  0.0438  0.0368
20150SOL     OW62456   5.843   3.042   8.904  0.3621  0.3554 -0.7371
20150SOL    HW162457   5.829   2.975   8.837  1.1822 -0.3244 -0.2577
20150SOL    HW262458   5.892   2.997   8.973  1.1112  1.4996 -0.4891
20151SOL     OW62459   2.187   6.680   3.457 -0.1112  0.7607  0.5365
20151SOL    HW162460   2.120   6.669   3.524  1.8932  1.1834  2.7871
20151SOL    HW262461   2.237   6.598   3.459  0.1663  0.9017 -0.2289
20152SOL     OW62462   6.251   2.484   2.711 -0.3964 -0.2427  0.2589
20152SOL    HW162463   6.276   2.394   2.732  1.1815  0.4631  1.6952
20152SOL    HW262464   6.334   2.529   2.694 -1.0987  1.0677  0.1569
20153SOL     OW62465   2.003   5.071  10.481  0.3663  0.2550 -0.0646
20153SOL    HW162466   1.966   5.110  10.401 -1.8697  0.3875  0.9522
20153SOL    HW262467   1.935   5.083  10.547  2.2443  0.4074  1.9754
20154SOL     OW62468   4.257   8.989   3.771  0.3060  0.2616  0.1050
20154SOL    HW162469   4.234   9.048   3.843 -0.6192  1.1213 -0.8358
20154SOL    HW262470   4.203   9.021   3.697  2.6375  0.6869 -1.5214
20155SOL     OW62471  10.952   0.424   3.859  0.0188  0.0242  0.3674
20155SOL    HW162472  10.995   0.482   3.922 -1.2333  3.3794 -1.5774
20155SOL    HW262473  10.863   0.413   3.893 -0.3910  1.1041 -0.3101
20156SOL     OW62474   4.042   4.230   0.009  0.1363  0.5309 -0.1082
20156SOL    HW162475   4.066   4.302   0.067 -1.4881  1.1585 -0.1626
20156SOL    HW262476   4.121   4.212  -0.040  0.8381  1.6780  0.5521
20157SOL     OW62477   4.053   6.437   7.577  0.2149  0.0972 -0.4339
20157SOL    HW162478   4.061   6.358   7.630 -0.7025 -0.6981 -1.4304
20157SOL    HW262479   3.962   6.464   7.589  0.7826  1.6753  0.7652
20158SOL     OW62480   5.971   7.076   4.817  0.1473  0.2368  0.3046
20158SOL    HW162481   6.027   7.153   4.832 -2.8998  2.4315  1.3502
20158SOL    HW262482   5.918   7.100   4.741 -0.5616 -1.0563  0.3722
20159SOL     OW62483   9.475   7.657   4.343 -0.1238  0.4303 -0.0244
20159SOL    HW162484   9.516   7.661   4.257 -0.0643  2.6770  0.0541
20159SOL    HW262485   9.548   7.662   4.405 -0.3309  1.9332  0.1221
20160SOL     OW62486   6.479   7.121   2.724  0.5864 -0.4900  0.2893
20160SOL    HW162487   6.411   7.133   2.790  1.1889 -0.3294  0.8945
20160SOL    HW262488   6.535   7.052   2.759  0.9306 -0.3816 -0.0341
20161SOL     OW62489   5.832   9.186   7.057  0.0413  0.2447 -0.5151
20161SOL    HW162490   5.866   9.129   6.988  0.5950  0.7776 -0.6882
20161SOL    HW262491   5.750   9.220   7.021 -1.1670 -1.6755  0.2210
20162SOL     OW62492   3.270   1.872   8.275 -0.3742  0.9618  0.9094
20162SOL    HW162493   3.324   1.886   8.353 -0.6060  0.5952  1.1406
20162SOL    HW262494   3.249   1.778   8.278  1.2072  0.5095 -0.6078
20163SOL     OW62495   6.050   5.350   8.898  0.6637 -0.9394  0.2324
20163SOL    HW162496   6.023   5.321   8.985 -0.6395 -3.0903 -0.8086
20163SOL    HW262497   5.969   5.361   8.849  1.3585  0.4089 -0.6772
20164SOL     OW62498   2.517   3.580   0.706 -0.5787 -0.0528 -0.7138
20164SOL    HW162499   2.580   3.652   0.713 -0.0793 -0.4892 -0.6690
20164SOL    HW262500   2.432   3.620   0.726 -0.4756  0.7756 -1.8552
20165SOL     OW62501   5.582   3.172   7.694  0.1308 -0.0656 -0.2384
20165SOL    HW162502   5.509   3.179   7.755  1.4170  0.5106  1.3137
20165SOL    HW262503   5.544   3.191   7.609 -1.0025  3.3463  0.8627
20166SOL     OW62504   7.025   8.979   9.465  0.0772 -0.1862  0.0393
20166SOL    HW162505   7.049   8.947   9.552  1.9973  1.3822  0.1291
20166SOL    HW262506   6.956   9.043   9.481  0.7401  0.4292  0.4616
20167SOL     OW62507   6.041   6.507   4.107 -0.3873  0.3247 -0.0406
20167SOL    HW162508   6.037   6.558   4.188 -0.6253  0.2736 -0.0204
20167SOL    HW262509   5.961   6.532   4.060  0.8180  2.0835 -1.2901
20168SOL     OW62510   5.175   5.311   2.760  0.2910  0.3110 -0.5499
20168SOL    HW162511   5.135   5.396   2.742 -0.4164  0.3790  1.1535
20168SOL    HW262512   5.248   5.305   2.699 -0.1580  1.7663 -1.2696
20169SOL     OW62513  10.604   1.410   4.495 -0.8061 -0.0744 -0.0733
20169SOL    HW162514  10.511   1.427   4.480 -0.4898  2.5631  0.4154
20169SOL    HW262515  10.645   1.434   4.412 -0.5835 -2.3675 -0.7077
20170SOL     OW62516   7.270   9.391  10.365 -0.2784  0.1349 -0.2990
20170SOL    HW162517   7.204   9.346  10.417 -2.4701  2.7911 -0.5832
20170SOL    HW262518   7.336   9.419  10.429 -1.0194  0.1446  0.4734
20171SOL     OW62519   3.135  10.244   4.422  0.4209 -0.7578 -0.3144
20171SOL    HW162520   3.204  10.238   4.488  1.1260  0.8757 -0.8684
20171SOL    HW262521   3.178  10.279   4.344 -1.0330  0.4339 -0.6357
20172SOL     OW62522   7.501   6.080   4.808 -0.4624  0.2403 -0.4250
20172SOL    HW162523   7.436   6.040   4.865  0.3466 -0.8369 -0.2219
20172SOL    HW262524   7.575   6.100   4.866 -0.6237  1.5269 -0.6335
20173SOL     OW62525   6.540   9.199   1.673 -0.7032 -0.2794  0.4491
20173SOL    HW162526   6.570   9.228   1.759  0.1208  0.1758  0.0199
20173SOL    HW262527   6.541   9.103   1.678 -0.8954 -0.2519  1.0244
20174SOL     OW62528   3.753   8.847   0.245 -0.1012 -0.0379 -0.4366
20174SOL    HW162529   3.810   8.771   0.260 -0.1157 -0.0179 -0.2792
20174SOL    HW262530   3.762   8.866   0.151  1.6927  1.1907 -0.0548
20175SOL     OW62531   8.084   0.471   1.075  0.1049 -0.1657  0.0147
20175SOL    HW162532   8.163   0.504   1.033  0.3324 -0.1581  0.4471
20175SOL    HW262533   8.115   0.408   1.140 -0.3077 -1.1797 -0.7238
20176SOL     OW62534   5.160   9.777   7.623 -0.7738 -0.1688 -0.9949
20176SOL    HW162535   5.129   9.863   7.595 -0.4515  0.9036  1.6854
20176SOL    HW262536   5.080   9.725   7.632 -1.1851  0.5059 -0.6537
20177SOL     OW62537   1.107   4.080   0.993  0.5325  0.1566 -0.4201
20177SOL    HW162538   1.136   4.123   1.074  0.3893 -2.0271  0.8624
20177SOL    HW262539   1.186   4.040   0.958  0.3647  0.0868 -0.7160
20178SOL     OW62540   5.704   0.406   8.567  0.1974  0.1868  0.3769
20178SOL    HW162541   5.738   0.487   8.605 -0.9471  1.3175 -0.9367
20178SOL    HW262542   5.706   0.421   8.473  0.0566 -1.3738  0.0965
20179SOL     OW62543   3.732   7.013   3.261 -0.6986 -0.0634  0.0317
20179SOL    HW162544   3.736   6.988   3.168 -0.7367 -1.6980  0.4302
20179SOL    HW262545   3.653   6.968   3.294 -1.2355  1.2829  0.6533
20180SOL     OW62546   3.658   3.768   6.604 -0.0749  0.3991 -0.0735
20180SOL    HW162547   3.600   3.827   6.653  0.3514  1.6416 -0.9951
20180SOL    HW262548   3.745   3.808   6.612  0.1461  0.1459 -1.1073
20181SOL     OW62549   6.392   0.712   9.840 -0.2938 -0.0328  0.0454
20181SOL    HW162550   6.348   0.787   9.878 -0.0256 -0.0765  0.4512
20181SOL    HW262551   6.451   0.681   9.909 -0.8989 -1.0323  0.1321
20182SOL     OW62552   6.852   7.793   1.157  0.5326 -0.3469  0.0699
20182SOL    HW162553   6.788   7.825   1.221  0.5995  0.9423 -0.4849
20182SOL    HW262554   6.937   7.807   1.199  0.6171  1.1619 -0.5498
20183SOL     OW62555   0.101   5.851   8.731  0.2289 -0.3522  0.0125
20183SOL    HW162556   0.021   5.817   8.772 -0.0228  0.0888 -0.0994
20183SOL    HW262557   0.071   5.885   8.646 -0.0872  2.6804  1.2100
20184SOL     OW62558   6.137   9.629   6.451 -0.2455 -0.8244  0.1453
20184SOL    HW162559   6.048   9.624   6.488  0.2856 -1.3637  1.3978
20184SOL    HW262560   6.123   9.620   6.356 -1.5459 -0.6767  0.2936
20185SOL     OW62561   1.682   6.888   4.416 -0.8454  0.4916 -0.0183
20185SOL    HW162562   1.629   6.889   4.496 -0.9224  1.2764 -0.0760
20185SOL    HW262563   1.619   6.905   4.345 -0.8002 -0.3287 -0.2734
20186SOL     OW62564   2.206   2.940   8.187 -0.2907 -0.4198  0.4839
20186SOL    HW162565   2.149   2.877   8.230  0.7091  0.3207  3.0388
20186SOL    HW262566   2.281   2.889   8.158 -1.3347 -1.0666 -1.2590
20187SOL     OW62567   3.513   9.102   1.828 -0.6655 -0.0145  0.2014
20187SOL    HW162568   3.568   9.162   1.779  0.2033  0.0395  1.1986
20187SOL    HW262569   3.457   9.158   1.882 -0.3648 -0.0847  0.5905
20188SOL     OW62570   5.088   3.137   0.718 -0.1156 -0.3466  0.3681
20188SOL    HW162571   5.111   3.216   0.766 -0.5386 -1.0053  1.7233
20188SOL    HW262572   5.088   3.163   0.626  3.7877  0.2283  0.3928
20189SOL     OW62573   1.765   7.287   6.809 -0.1145 -0.3792  0.4155
20189SOL    HW162574   1.841   7.228   6.806 -0.4742 -0.8440 -2.5580
20189SOL    HW262575   1.709   7.249   6.877  0.5202 -2.4400 -0.1120
20190SOL     OW62576   3.532   8.880   0.378  0.2034 -0.2625 -0.2363
20190SOL    HW162577   3.474   8.831   0.319 -0.2351 -1.6604  1.2818
20190SOL    HW262578   3.620   8.856   0.350  0.0095 -2.4225  0.7629
20191SOL     OW62579   3.871   4.215   2.038  0.4094 -0.0481  0.1428
20191SOL    HW162580   3.783   4.248   2.052  1.1802  1.5516  1.5738
20191SOL    HW262581   3.887   4.226   1.944 -0.5969  0.4381  0.0196
20192SOL     OW62582   6.811   9.635   4.197 -0.4861 -0.4780 -0.5099
20192SOL    HW162583   6.814   9.628   4.292  0.5891  1.3405 -0.3583
20192SOL    HW262584   6.736   9.692   4.180 -0.4677 -0.5207 -0.7385
20193SOL     OW62585   1.087   8.318   7.839  0.0417 -0.6616  0.1829
20193SOL    HW162586   1.106   8.256   7.769  0.3738  0.1125 -0.4330
20193SOL    HW262587   1.078   8.403   7.795  0.0821 -0.1833  1.0555
20194SOL     OW62588   7.083   3.183   0.421 -0.6687  0.1639 -0.3256
20194SOL    HW162589   7.110   3.268   0.384 -1.2336  0.3925 -0.2171
20194SOL    HW262590   7.158   3.156   0.474 -0.4558  0.5612 -0.4128
20195SOL     OW62591  10.937   7.385   1.741 -0.1296  0.0717  0.0484
20195SOL    HW162592  11.012   7.424   1.696 -0.9609  1.4548 -0.2000
20195SOL    HW262593  10.883   7.348   1.671  0.5234 -1.3711  0.2629
20196SOL     OW62594   9.941   2.393   5.577 -0.3142  0.5906 -0.2512
20196SOL    HW162595   9.902   2.480   5.584 -1.1474  0.2212 -0.1506
20196SOL    HW262596  10.035   2.408   5.583 -0.3226  1.6788 -2.0403
20197SOL     OW62597   4.256   3.836   5.978 -0.0234 -0.9061  0.1855
20197SOL    HW162598   4.188   3.882   6.026 -1.0393 -0.1445 -1.8821
20197SOL    HW262599   4.323   3.818   6.044 -0.7082  1.2791  1.6017
20198SOL     OW62600   5.382   3.996   0.040 -0.0926  0.0287 -0.1467
20198SOL    HW162601   5.459   4.023   0.091  0.9582 -0.3746 -1.4815
20198SOL    HW262602   5.308   4.010   0.100  1.1395 -1.0846  1.7661
20199SOL     OW62603   5.481   7.917  10.593  0.0778 -0.4894  0.1310
20199SOL    HW162604   5.529   7.836  10.609 -2.4250 -1.8040  1.7333
20199SOL    HW262605   5.464   7.917  10.499 -0.1558 -2.0404  0.1435
20200SOL     OW62606   7.777   0.125   3.284 -0.3096  0.4439  0.2414
20200SOL    HW162607   7.855   0.095   3.237 -0.7919 -0.9708  0.2982
20200SOL    HW262608   7.799   0.213   3.314  0.9166  0.4219 -0.5341
20201SOL     OW62609   7.212   0.926   0.476 -0.8141 -0.1808  0.4655
20201SOL    HW162610   7.221   0.999   0.536  0.0574 -0.6029  0.8606
20201SOL    HW262611   7.219   0.965   0.389 -0.9912  0.2781  0.6542
20202SOL     OW62612   3.543  10.613   2.240 -0.0979  0.3450  0.4453
20202SOL    HW162613   3.525  10.681   2.176 -1.7237 -1.2095 -0.8539
20202SOL    HW262614   3.636  10.624   2.262  0.0418  2.0193 -0.8378
20203SOL     OW62615   3.857   0.464   4.432 -0.1386 -0.5105  0.0616
20203SOL    HW162616   3.941   0.440   4.472 -0.2704 -1.2686 -0.1097
20203SOL    HW262617   3.878   0.538   4.376  0.2823 -0.2354  0.5723
20204SOL     OW62618   4.731   1.173   6.297 -0.3916 -0.5552  0.1806
20204SOL    HW162619   4.729   1.129   6.212  1.5597 -0.7069  0.1465
20204SOL    HW262620   4.775   1.256   6.280 -0.5249 -0.3224  0.9316
20205SOL     OW62621   9.448   6.189   6.079  0.4453 -0.1240  0.3023
20205SOL    HW162622   9.528   6.146   6.110  0.7945 -0.3383 -0.8216
20205SOL    HW262623   9.409   6.228   6.157  2.1310  0.7861  0.7371
20206SOL     OW62624   0.186   8.423   2.313 -0.0449  0.0863  0.3841
20206SOL    HW162625   0.151   8.450   2.228 -0.9205 -0.3656  0.5866
20206SOL    HW262626   0.119   8.450   2.376  0.9295  1.0951  1.0317
20207SOL     OW62627   5.439   7.513   8.746  0.5267  0.1324 -0.5686
20207SOL    HW162628   5.380   7.498   8.819  0.6973 -0.0640 -0.4687
20207SOL    HW262629   5.505   7.444   8.754  1.0349  0.6276 -0.4023
20208SOL     OW62630   1.082   2.691   6.649  0.0773 -0.2728  0.4126
20208SOL    HW162631   1.079   2.783   6.625  1.3327 -0.6981 -1.6291
20208SOL    HW262632   1.173   2.665   6.637 -0.4813 -2.0742 -0.4297
20209SOL     OW62633   5.775   5.474   9.329  0.1762  0.2354  0.3840
20209SOL    HW162634   5.824   5.392   9.339  0.6834  0.3783 -0.7698
20209SOL    HW262635   5.699   5.451   9.275  0.7379  0.6554 -0.6191
20210SOL     OW62636   0.838   7.410   7.179  0.0722  0.0346  0.3765
20210SOL    HW162637   0.882   7.326   7.195  0.9328  0.7877  2.2119
20210SOL    HW262638   0.908   7.475   7.186 -0.7763  1.0103  0.0389
20211SOL     OW62639   2.785   7.683   0.590  0.1109  0.2957  0.2387
20211SOL    HW162640   2.705   7.655   0.546  1.5233 -0.1433 -2.2746
20211SOL    HW262641   2.756   7.720   0.673 -2.6505 -0.0474 -0.4912
20212SOL     OW62642   8.947   7.464  10.512  0.0639 -0.0859 -0.3423
20212SOL    HW162643   8.997   7.444  10.591 -0.1359  0.8341  0.0247
20212SOL    HW262644   8.860   7.487  10.544  0.0902  0.6709 -0.8001
20213SOL     OW62645   3.241   4.523   9.961 -0.2260 -0.0883  0.0586
20213SOL    HW162646   3.322   4.566   9.934  0.3676 -0.4615  1.1599
20213SOL    HW262647   3.229   4.551  10.052 -0.8839 -0.6947  0.1663
20214SOL     OW62648   3.584   0.318   8.904 -0.4131 -0.2882  0.0992
20214SOL    HW162649   3.508   0.351   8.952 -0.4863  0.1256 -0.2953
20214SOL    HW262650   3.570   0.348   8.814  0.5424  0.3709  0.1524
20215SOL     OW62651   8.162   0.025   9.421  0.6533 -0.1576  0.6845
20215SOL    HW162652   8.252   0.011   9.393 -0.2597 -1.6642 -1.8390
20215SOL    HW262653   8.131   0.098   9.367 -0.1553 -0.8645  0.1621
20216SOL     OW62654   8.964   0.059  10.578  0.2936  0.0065  0.3327
20216SOL    HW162655   8.903   0.012  10.634 -0.7404  1.1419  0.1992
20216SOL    HW262656   8.912   0.130  10.540  1.0787 -0.4232 -1.6730
20217SOL     OW62657  10.619   4.810   1.144 -0.0518 -0.0201  0.4080
20217SOL    HW162658  10.678   4.867   1.193  0.3731 -0.1848  0.0962
20217SOL    HW262659  10.660   4.801   1.058 -1.0733  0.7146 -0.1725
20218SOL     OW62660   2.346   9.247   4.113 -0.2861  0.0597 -0.7025
20218SOL    HW162661   2.360   9.335   4.079 -0.7747  1.2579  1.9445
20218SOL    HW262662   2.429   9.222   4.153 -0.8989  0.5187  0.9511
20219SOL     OW62663   7.059   1.011   8.178 -0.0887  0.1341 -0.0573
20219SOL    HW162664   7.078   1.083   8.238  0.6694 -2.6237  3.4315
20219SOL    HW262665   7.136   1.004   8.122  0.7018  0.8466  0.9161
20220SOL     OW62666   8.983   4.823   5.037  0.4005 -0.0863 -0.8628
20220SOL    HW162667   9.038   4.753   5.003 -0.8689 -2.3829  1.4502
20220SOL    HW262668   8.992   4.817   5.132 -3.1518 -0.0619 -0.4024
20221SOL     OW62669   6.305  10.200  10.172  0.1217  0.0322  0.0954
20221SOL    HW162670   6.313  10.290  10.202  0.6638  0.0523 -0.1004
20221SOL    HW262671   6.212  10.180  10.180 -0.0928  0.7985 -0.4108
20222SOL     OW62672   3.252   6.022   5.491 -0.0416  0.8747  0.0091
20222SOL    HW162673   3.280   5.954   5.552 -2.6790 -0.2316  0.1190
20222SOL    HW262674   3.316   6.093   5.503  0.6492 -0.0779  2.5974
20223SOL     OW62675   7.637   8.849   3.367 -0.0256  0.1146  0.1135
20223SOL    HW162676   7.570   8.806   3.314 -0.7746  1.5211 -0.1439
20223SOL    HW262677   7.661   8.927   3.316  0.0470  0.9109  1.3167
20224SOL     OW62678   3.843   0.366   4.927 -0.0462  0.2836  0.2383
20224SOL    HW162679   3.832   0.416   5.008 -1.4247  0.0764  0.1989
20224SOL    HW262680   3.850   0.275   4.957  4.3068  0.4662  0.4794
20225SOL     OW62681   1.671   8.336   6.583  0.8008  0.0641 -0.5376
20225SOL    HW162682   1.710   8.289   6.656  1.4815  0.0395 -0.9135
20225SOL    HW262683   1.582   8.300   6.576  1.6998 -2.0949 -1.6340
20226SOL     OW62684   3.141   1.768   2.692 -0.1588  0.3839  0.3318
20226SOL    HW162685   3.228   1.781   2.656 -0.8298  0.0948 -1.4772
20226SOL    HW262686   3.157   1.734   2.780  1.5483 -0.1549 -0.1427
20227SOL     OW62687   5.614   7.003   4.730  0.8288 -0.1648 -0.1888
20227SOL    HW162688   5.594   6.929   4.672 -0.6722  1.1205 -1.4158
20227SOL    HW262689   5.670   7.060   4.677  0.2645  0.5519 -0.0301
20228SOL     OW62690   2.717   7.205   4.096 -0.0655 -0.0534  0.1002
20228SOL    HW162691   2.696   7.293   4.064 -1.7002 -0.4418  0.0152
20228SOL    HW262692   2.755   7.160   4.021 -1.1239 -0.0361 -0.4605
20229SOL     OW62693   9.950   7.170   0.265  0.0561  0.4209 -0.2096
20229SOL    HW162694   9.910   7.202   0.184 -1.2601  1.0762  0.6648
20229SOL    HW262695   9.936   7.240   0.328  1.5415  0.1492  0.4808
20230SOL     OW62696   4.596   2.509   0.728  0.4843 -0.1793  0.1193
20230SOL    HW162697   4.654   2.584   0.720  1.4279 -0.9760 -0.7557
20230SOL    HW262698   4.626   2.448   0.661 -1.5578 -0.4936 -0.5772
20231SOL     OW62699   7.185   8.056   9.684  0.5548  0.2042  0.5026
20231SOL    HW162700   7.094   8.027   9.681  0.1684  1.4625 -0.8031
20231SOL    HW262701   7.235   7.979   9.657 -0.0244 -0.7338  1.9682
20232SOL     OW62702   2.198  10.290   4.437 -0.4966  0.3882 -0.2266
20232SOL    HW162703   2.107  10.269   4.415 -0.3967 -0.2840 -0.0178
20232SOL    HW262704   2.193  10.368   4.491 -1.2083 -1.2569  2.2777
20233SOL     OW62705   3.555   8.397   2.164 -0.1620  0.1078 -0.5549
20233SOL    HW162706   3.518   8.450   2.235  0.6060 -0.4433  0.2731
20233SOL    HW262707   3.523   8.439   2.084 -1.2051  0.6335  0.1049
20234SOL     OW62708   0.865   1.572   9.871  1.1859 -0.4308  0.2536
20234SOL    HW162709   0.949   1.543   9.907  0.5526 -1.0353  1.3086
20234SOL    HW262710   0.816   1.603   9.947  0.4210 -0.1654 -0.3380
20235SOL     OW62711   6.940   2.638   4.333 -0.4511  0.4098 -0.5675
20235SOL    HW162712   6.900   2.554   4.309  1.2352 -0.9177  0.9287
20235SOL    HW262713   7.031   2.630   4.305 -0.0395  1.3586  0.4362
20236SOL     OW62714  10.144   4.212   4.469 -0.0677  0.5847  0.5481
20236SOL    HW162715  10.078   4.150   4.500  1.2648 -1.1631  0.0416
20236SOL    HW262716  10.213   4.158   4.431  1.1924  2.3860  0.0926
20237SOL     OW62717   3.539   6.151   7.282  0.5282 -0.3203 -0.1122
20237SOL    HW162718   3.542   6.217   7.213 -2.7359  0.1323 -0.0064
20237SOL    HW262719   3.554   6.068   7.237  0.3660  0.1354 -1.0297
20238SOL     OW62720   4.418   0.447   6.092  0.5098  0.7031  0.0780
20238SOL    HW162721   4.352   0.451   6.022 -0.7437  1.8888  1.2681
20238SOL    HW262722   4.437   0.354   6.101  0.1736  0.4704 -1.3640
20239SOL     OW62723   8.007   3.474  10.817 -0.0018 -0.5878  0.0853
20239SOL    HW162724   8.072   3.463  10.886 -0.2262 -0.2732  0.3494
20239SOL    HW262725   7.923   3.471  10.862 -0.1347  0.0520 -0.1146
20240SOL     OW62726   8.511   8.874   6.805 -0.0735  0.1689  0.3603
20240SOL    HW162727   8.481   8.953   6.759  2.4110  1.9327  1.5526
20240SOL    HW262728   8.454   8.868   6.881  0.6825  1.8210  1.1179
20241SOL     OW62729   0.038   7.820   9.040 -0.1268  0.5079 -0.0864
20241SOL    HW162730   0.096   7.760   9.087 -0.2980  1.5687  1.5848
20241SOL    HW262731   0.095   7.888   9.006  0.1475 -0.8417 -2.5098
20242SOL     OW62732   3.447   5.117   6.027 -0.0487  0.1941 -0.1532
20242SOL    HW162733   3.404   5.073   5.953 -4.3169  0.0976  2.0433
20242SOL    HW262734   3.395   5.091   6.103  1.3195  3.7288  2.2392
20243SOL     OW62735   3.005   6.924   6.581  0.1168  0.6765 -0.5108
20243SOL    HW162736   3.090   6.969   6.583  0.2471  0.5587 -1.9648
20243SOL    HW262737   3.008   6.862   6.654  1.8109 -0.2262 -1.2933
20244SOL     OW62738   0.844   8.826   3.787  0.5831  0.0711  0.5612
20244SOL    HW162739   0.801   8.767   3.849  0.1616 -3.7978 -2.9501
20244SOL    HW262740   0.935   8.797   3.785  1.1462  1.7219  0.9874
20245SOL     OW62741   9.870   3.817   5.828 -0.0294 -0.0996  0.2133
20245SOL    HW162742   9.929   3.807   5.902 -0.0780  0.6499  0.3606
20245SOL    HW262743   9.783   3.805   5.865 -0.1617  1.6770  0.5897
20246SOL     OW62744   3.625   5.590   6.417 -0.2369  0.0545 -0.0163
20246SOL    HW162745   3.679   5.663   6.449 -1.4074  0.9120  0.0563
20246SOL    HW262746   3.689   5.523   6.392  0.8019 -0.2615  3.0819
20247SOL     OW62747   4.799   8.668   3.140 -0.1017 -0.1322 -0.1951
20247SOL    HW162748   4.805   8.636   3.050  0.1160  0.7396 -0.5061
20247SOL    HW262749   4.723   8.726   3.139 -0.0316 -0.0348  0.1529
20248SOL     OW62750   4.069   2.544   8.067  0.4286  0.0201  0.1190
20248SOL    HW162751   4.144   2.595   8.099 -0.4412  0.8279  0.9137
20248SOL    HW262752   3.992   2.594   8.094 -0.4320 -1.1723 -0.0340
20249SOL     OW62753  10.713   0.720   4.948 -0.0557  0.1093 -0.1106
20249SOL    HW162754  10.699   0.663   5.024 -1.3095  2.0921  1.2450
20249SOL    HW262755  10.802   0.754   4.961 -0.3181  0.5532  0.5716
20250SOL     OW62756   1.885   3.919   0.689 -0.2146 -0.2314 -0.2202
20250SOL    HW162757   1.854   3.979   0.621 -0.7126  0.7745  0.8565
20250SOL    HW262758   1.828   3.843   0.682 -0.3758 -0.0630 -0.8033
20251SOL     OW62759   3.779   9.945   0.393  0.0399 -0.3416 -0.6196
20251SOL    HW162760   3.745  10.003   0.461  2.1355 -0.2682  0.4404
20251SOL    HW262761   3.787  10.000   0.316  1.1479  0.5929  0.1245
20252SOL     OW62762   3.326   0.081   3.720 -0.0435  0.0060 -0.0433
20252SOL    HW162763   3.347   0.050   3.808  1.5855  1.2936  0.0713
20252SOL    HW262764   3.287   0.167   3.734  0.0435  0.1332 -0.5578
20253SOL     OW62765   6.673   5.287   6.965  0.2028 -0.0237  0.0248
20253SOL    HW162766   6.730   5.243   7.029  0.3077 -1.9450 -1.3028
20253SOL    HW262767   6.591   5.237   6.968 -0.0795  0.3869 -0.7633
20254SOL     OW62768   5.242   6.286   8.630 -0.3233  0.2481 -0.3375
20254SOL    HW162769   5.266   6.345   8.558 -2.1925 -0.8506 -1.9636
20254SOL    HW262770   5.212   6.344   8.700  2.6088  1.4099  0.1130
20255SOL     OW62771   3.825   4.058   2.688  0.2657 -0.7088  0.0008
20255SOL    HW162772   3.793   3.980   2.734 -0.1010 -0.5693 -0.0147
20255SOL    HW262773   3.757   4.077   2.623  1.3664 -1.6565 -1.4982
20256SOL     OW62774   5.262   1.605  10.965 -0.3972  0.4685 -0.4950
20256SOL    HW162775   5.262   1.561  11.050  0.4044 -0.7659 -1.1134
20256SOL    HW262776   5.304   1.689  10.982 -2.1441  1.1655  0.7471
20257SOL     OW62777   6.851   9.459   7.318 -0.0414  0.1568  0.7821
20257SOL    HW162778   6.883   9.511   7.244 -0.9984  0.5665  0.6412
20257SOL    HW262779   6.761   9.437   7.295  0.2969 -1.4547  0.9156
20258SOL     OW62780   7.446  10.584   8.978 -0.6312 -0.2090 -0.5881
20258SOL    HW162781   7.532  10.626   8.974  0.1378 -1.0904  3.0856
20258SOL    HW262782   7.387  10.654   9.005 -1.2983  0.4892 -3.4765
20259SOL     OW62783   7.369   3.296   0.016  0.5533  0.0023 -0.0489
20259SOL    HW162784   7.398   3.387   0.022  0.0071  0.0673  2.0517
20259SOL    HW262785   7.275   3.300   0.028  0.5478 -0.8664  0.2261
20260SOL     OW62786   2.283   7.405  10.271  0.6864 -0.1040  0.3601
20260SOL    HW162787   2.359   7.436  10.222  0.8952  1.4324  1.5727
20260SOL    HW262788   2.320   7.362  10.348  0.4275  2.6611  2.1624
20261SOL     OW62789   4.848   4.780   9.733 -0.2558  0.3491 -0.4426
20261SOL    HW162790   4.764   4.814   9.762 -0.6855 -0.6077 -0.5605
20261SOL    HW262791   4.894   4.857   9.700 -0.6492  1.0667  0.6209
20262SOL     OW62792   9.225   5.187   5.283 -0.1911 -0.0102 -0.2175
20262SOL    HW162793   9.164   5.134   5.335 -1.5187  1.6082 -0.0441
20262SOL    HW262794   9.249   5.259   5.341 -0.1613  0.7647 -1.1566
20263SOL     OW62795   9.697   7.803   1.789  0.0534 -0.0623  0.3579
20263SOL    HW162796   9.775   7.811   1.734 -0.3205  3.2951  0.1381
20263SOL    HW262797   9.624   7.818   1.729 -0.5853 -0.1319  1.1075
20264SOL     OW62798  10.484   3.375   0.640  0.6720 -0.4215  0.3585
20264SOL    HW162799  10.408   3.319   0.657  0.3806 -0.3297 -0.5785
20264SOL    HW262800  10.556   3.332   0.686  0.1822 -0.8376  0.7565
20265SOL     OW62801   7.602   9.817   4.184  0.3643 -0.2560 -0.5589
20265SOL    HW162802   7.592   9.910   4.166 -0.3578 -0.6049 -2.1109
20265SOL    HW262803   7.684   9.793   4.140  0.7690 -0.2814  0.1937
20266SOL     OW62804   4.978   1.238  10.961 -0.2730  0.1610  0.0401
20266SOL    HW162805   5.062   1.194  10.949 -0.5015 -0.7100  1.4329
20266SOL    HW262806   4.993   1.327  10.929  1.1920  0.0295  0.2937
20267SOL     OW62807   8.717   8.426   0.694 -0.4118  0.3008 -0.3374
20267SOL    HW162808   8.711   8.355   0.630  1.3714  0.1858 -0.4314
20267SOL    HW262809   8.800   8.470   0.673 -1.0338  1.8561  0.2984
20268SOL     OW62810   1.078   9.109   6.217  0.2906  0.4924 -0.4451
20268SOL    HW162811   1.156   9.074   6.173  0.6564  0.0584  0.5223
20268SOL    HW262812   1.113   9.159   6.291 -0.3634 -1.2845  1.1505
20269SOL     OW62813   4.154   8.908  10.574 -0.7626  0.2593 -0.0407
20269SOL    HW162814   4.136   8.826  10.529 -0.0103  0.4602 -0.7427
20269SOL    HW262815   4.156   8.974  10.504 -0.7918  0.7827  0.4400
20270SOL     OW62816   0.882   2.498   6.401 -0.5361  0.2494  0.2032
20270SOL    HW162817   0.921   2.575   6.361 -0.1694 -0.0289  0.0251
20270SOL    HW262818   0.905   2.425   6.343  0.1746 -0.1913  1.0199
20271SOL     OW62819   7.999  10.193   9.598 -0.0652 -0.1434 -0.5809
20271SOL    HW162820   7.998  10.169   9.505  1.0697 -2.6159 -0.0521
20271SOL    HW262821   7.913  10.165   9.631 -0.2057  0.0941 -0.7437
20272SOL     OW62822   6.600   6.394   9.722 -0.6426  0.2228  0.1997
20272SOL    HW162823   6.642   6.308   9.725 -1.2249 -0.2073 -2.1593
20272SOL    HW262824   6.507   6.375   9.736 -0.4638  0.9105  2.9770
20273SOL     OW62825   4.886   2.423   7.273  0.4432  0.1688  0.3618
20273SOL    HW162826   4.962   2.434   7.215  0.1661 -0.8397 -0.2234
20273SOL    HW262827   4.906   2.478   7.349  0.8293  1.5237 -0.6628
20274SOL     OW62828   1.112   3.780   7.513  0.0508 -0.1950  0.1318
20274SOL    HW162829   1.113   3.820   7.426 -0.0271  1.4393  0.8553
20274SOL    HW262830   1.053   3.835   7.565  0.5877 -0.7674  1.3905
20275SOL     OW62831   3.215   6.543   2.418 -0.0379  0.1306 -0.1079
20275SOL    HW162832   3.134   6.539   2.468  0.3324  1.7273  0.6926
20275SOL    HW262833   3.270   6.474   2.455 -1.1657 -1.3067 -0.9917
20276SOL     OW62834   4.129   4.041   2.459 -0.0306  0.8777  0.2904
20276SOL    HW162835   4.095   4.125   2.427 -0.1860  0.9685  0.6872
20276SOL    HW262836   4.223   4.047   2.446 -0.1778  0.5158 -1.0740
20277SOL     OW62837   5.490   1.645   1.166 -0.0588 -0.1368  0.1958
20277SOL    HW162838   5.567   1.677   1.120  1.4031 -1.1043  1.8665
20277SOL    HW262839   5.482   1.554   1.138 -0.7590  0.0167 -0.1347
20278SOL     OW62840   0.837   6.284   6.537 -0.3485  0.4607  0.1335
20278SOL    HW162841   0.869   6.226   6.606 -0.3895  1.2027  0.7890
20278SOL    HW262842   0.769   6.233   6.493  0.2105 -0.3076  0.1390
20279SOL     OW62843   5.339   5.911   5.831 -0.1084 -0.1694 -0.3346
20279SOL    HW162844   5.378   5.970   5.767 -0.8382 -0.5984 -1.2017
20279SOL    HW262845   5.391   5.831   5.825 -0.1408 -0.1903 -0.3385
20280SOL     OW62846   3.005  10.439   0.343 -0.8390  0.1905 -0.4141
20280SOL    HW162847   2.936  10.415   0.405 -1.2976  1.4274 -0.4281
20280SOL    HW262848   2.964  10.502   0.284  0.1449  0.5239 -0.7604
20281SOL     OW62849   4.767   8.554   2.127  0.2144 -0.3471  0.2756
20281SOL    HW162850   4.757   8.519   2.215  0.9223 -1.5273 -0.0876
20281SOL    HW262851   4.855   8.591   2.125  0.0112  0.1482  0.2100
20282SOL     OW62852   1.381   7.585   0.686  0.0862 -0.2582 -0.2524
20282SOL    HW162853   1.330   7.539   0.619  0.3067 -1.2770  0.2503
20282SOL    HW262854   1.406   7.667   0.645  0.1285 -0.8162 -1.3893
20283SOL     OW62855   7.099   6.250   6.951  0.5888 -0.3720  0.6741
20283SOL    HW162856   7.050   6.319   6.996  1.3842  0.0008  0.9812
20283SOL    HW262857   7.156   6.213   7.018  0.8483 -0.6911  0.2837
20284SOL     OW62858   6.957   9.441   8.638  0.2718 -0.0408  0.6374
20284SOL    HW162859   7.000   9.383   8.701  0.4364  1.0448  1.5533
20284SOL    HW262860   6.961   9.528   8.679 -0.0697  0.6003 -0.6485
20285SOL     OW62861   0.399   1.575   9.735 -0.5168  0.6606 -0.0358
20285SOL    HW162862   0.484   1.533   9.745 -0.1400  1.4123  0.0190
20285SOL    HW262863   0.380   1.567   9.641 -0.7299 -0.1478  0.0746
20286SOL     OW62864   3.532  10.459  10.891 -0.7292 -0.1880  0.1215
20286SOL    HW162865   3.455  10.405  10.909 -1.1155  0.2660 -0.1696
20286SOL    HW262866   3.521  10.536  10.947 -0.7832  0.1562 -0.3596
20287SOL     OW62867   4.138   4.097   0.778  0.1749  0.5310  0.5800
20287SOL    HW162868   4.167   4.160   0.844  0.4753  1.5967 -0.5175
20287SOL    HW262869   4.074   4.146   0.726 -0.2202 -0.3595  0.2057
20288SOL     OW62870   6.372   9.467   5.534 -0.7065  0.1432  0.5170
20288SOL    HW162871   6.425   9.507   5.465 -0.4618  1.4994  1.4518
20288SOL    HW262872   6.436   9.427   5.594 -0.5289  3.0453  2.4354
20289SOL     OW62873   6.993   7.992   8.542 -0.2656  0.2066 -0.3462
20289SOL    HW162874   7.057   8.018   8.475  0.4339 -0.1849  0.1567
20289SOL    HW262875   7.037   7.923   8.591 -1.6558 -1.1568 -0.9458
20290SOL     OW62876   5.070   7.875   9.666 -0.3440 -0.6666  0.1060
20290SOL    HW162877   5.073   7.971   9.658 -0.7644 -0.6074  0.5576
20290SOL    HW262878   5.155   7.851   9.702 -1.5413 -0.0305  3.8518
20291SOL     OW62879   0.436   2.219   3.264 -0.1951  0.8188  0.1470
20291SOL    HW162880   0.368   2.244   3.326 -0.1223  0.8262  0.2244
20291SOL    HW262881   0.483   2.301   3.245  0.1416  0.7163  0.5200
20292SOL     OW62882   6.654   9.048   4.941 -0.2962  0.7947 -0.1588
20292SOL    HW162883   6.628   9.140   4.945 -0.7502  0.7323 -1.3721
20292SOL    HW262884   6.590   9.007   4.883  0.0753 -0.2375  0.1282
20293SOL     OW62885   7.441   6.421   9.711  0.2652  0.6525  0.2362
20293SOL    HW162886   7.463   6.503   9.756  1.5681  0.5795 -0.2219
20293SOL    HW262887   7.475   6.352   9.767  0.6448  0.5089 -0.1556
20294SOL     OW62888   5.922   1.715   4.908  0.0692 -0.1163  0.0488
20294SOL    HW162889   5.892   1.806   4.899  0.7748  0.1557  0.3537
20294SOL    HW262890   5.915   1.679   4.819 -0.9195  0.0005  0.0679
20295SOL     OW62891   5.723   4.106   4.749 -0.7535  0.4158 -0.1527
20295SOL    HW162892   5.770   4.142   4.823 -0.0354 -0.2801 -0.2622
20295SOL    HW262893   5.632   4.132   4.763 -0.2549  2.3912 -0.3154
20296SOL     OW62894   3.981   5.593   2.319  0.1141 -0.5637  0.1260
20296SOL    HW162895   3.919   5.523   2.303  1.2679 -1.2972 -1.4079
20296SOL    HW262896   4.037   5.560   2.390 -1.4293  0.2763  1.8165
20297SOL     OW62897   4.990   0.473  10.753 -0.0367 -0.2797  0.0743
20297SOL    HW162898   4.987   0.567  10.770 -0.1501 -0.3567  0.4773
20297SOL    HW262899   4.904   0.441  10.780  0.4414 -0.7018  1.1553
20298SOL     OW62900   9.780   0.929   3.144  0.2135 -0.3809  0.3633
20298SOL    HW162901   9.736   0.930   3.059 -1.0818  0.9714  0.9952
20298SOL    HW262902   9.850   0.994   3.135  1.4837 -1.7901 -0.3150
20299SOL     OW62903   1.808   7.343  10.029  0.1055 -0.2042 -0.0351
20299SOL    HW162904   1.857   7.425  10.038  0.2849 -0.2207 -0.8314
20299SOL    HW262905   1.740   7.349  10.096 -0.2152  0.8332 -0.4446
20300SOL     OW62906   1.146   1.810   3.222 -0.0004 -0.9381  0.3189
20300SOL    HW162907   1.079   1.870   3.190 -0.3327 -2.0112 -1.1189
20300SOL    HW262908   1.101   1.726   3.230 -0.1395 -0.6930  4.4096
20301SOL     OW62909   2.506   8.490   3.661  0.5563  0.2905 -0.7390
20301SOL    HW162910   2.462   8.409   3.634  0.1772 -0.2003  1.1756
20301SOL    HW262911   2.542   8.470   3.748  0.8956  2.0297 -0.4397
20302SOL     OW62912   8.709  10.753   6.940  0.2054  0.7762 -0.7520
20302SOL    HW162913   8.791  10.756   6.990 -0.4910 -0.0827  0.4841
20302SOL    HW262914   8.725  10.812   6.866  1.9135  0.6852 -0.5127
20303SOL     OW62915   5.301   2.877  10.807 -0.5916  0.0822  0.5160
20303SOL    HW162916   5.333   2.895  10.718  0.3193 -3.7519 -0.1202
20303SOL    HW262917   5.206   2.865  10.796 -0.4521 -0.6106 -0.0458
20304SOL     OW62918  10.579   8.439   5.622 -0.0013  1.0637  0.9318
20304SOL    HW162919  10.584   8.516   5.565  0.2750  0.2469 -0.1753
20304SOL    HW262920  10.620   8.467   5.704  2.1982  1.4242 -0.2253
20305SOL     OW62921   4.237   3.797   1.697  0.0442  0.7714  0.1631
20305SOL    HW162922   4.194   3.881   1.715  0.3224  1.2084 -1.1245
20305SOL    HW262923   4.165   3.740   1.667 -0.0779  0.6610  0.6544
20306SOL     OW62924   2.922   1.536  10.508  0.3459  0.2873 -0.1335
20306SOL    HW162925   2.841   1.531  10.457  0.0351 -1.1558  0.4302
20306SOL    HW262926   2.990   1.556  10.445  0.0045 -1.6602 -1.2102
20307SOL     OW62927   6.349   0.876   4.732 -0.1907 -0.0369  0.1451
20307SOL    HW162928   6.394   0.797   4.762 -0.3716 -0.0745  0.3182
20307SOL    HW262929   6.269   0.879   4.783 -0.2068  0.2358  0.1067
20308SOL     OW62930   2.229   1.576   1.773  0.0785 -0.5310 -0.0593
20308SOL    HW162931   2.237   1.487   1.738 -0.5717 -0.9002  0.7069
20308SOL    HW262932   2.152   1.612   1.729  0.6585 -0.1393 -0.7792
20309SOL     OW62933   1.059   5.467   9.830  0.4326  0.0525 -0.1331
20309SOL    HW162934   1.041   5.517   9.750 -0.8906 -1.3851 -0.7915
20309SOL    HW262935   0.992   5.495   9.892  0.4441 -0.0026 -0.0952
20310SOL     OW62936   3.712   2.135   4.406 -0.6927  0.0439  0.0861
20310SOL    HW162937   3.703   2.056   4.354 -0.3092  0.8667 -1.2852
20310SOL    HW262938   3.640   2.131   4.469 -0.1836 -1.7776  0.6188
20311SOL     OW62939   2.232   6.265   6.368  0.8689 -0.1405 -0.2879
20311SOL    HW162940   2.186   6.334   6.416  0.9565 -1.4170  1.7730
20311SOL    HW262941   2.162   6.207   6.337  0.9047 -0.2648 -0.1371
20312SOL     OW62942  10.662   2.168   7.411 -0.7728  0.2076 -0.1676
20312SOL    HW162943  10.608   2.200   7.339 -0.6972  0.1189 -0.2634
20312SOL    HW262944  10.748   2.154   7.373 -0.3117  1.6281  0.2814
20313SOL     OW62945   6.368  10.839   1.476  0.1130 -0.7106  0.0899
20313SOL    HW162946   6.445  10.810   1.525  1.1196 -0.2395 -1.1477
20313SOL    HW262947   6.294  10.795   1.517  1.2051 -2.2859  0.4271
20314SOL     OW62948   8.503   8.109  10.357 -0.3353 -0.4019  0.4611
20314SOL    HW162949   8.534   8.183  10.408 -0.0589 -0.5288  0.4814
20314SOL    HW262950   8.415   8.133  10.330  0.5686  0.9366 -1.4838
20315SOL     OW62951   1.671   0.637   2.280 -0.2633 -0.1066 -0.5100
20315SOL    HW162952   1.751   0.596   2.312  0.2685  0.1882 -1.4435
20315SOL    HW262953   1.606   0.567   2.282 -0.4264  0.0212  1.7331
20316SOL     OW62954   0.049   0.248   6.158  0.3458  0.1523 -0.5623
20316SOL    HW162955   0.039   0.165   6.112  0.3851  0.5426 -1.2960
20316SOL    HW262956  -0.039   0.283   6.165  0.3357  0.0792 -0.3024
20317SOL     OW62957   0.605   7.528   0.175 -0.2408 -0.2104 -0.4567
20317SOL    HW162958   0.577   7.616   0.200 -1.1855 -0.8830  1.0371
20317SOL    HW262959   0.679   7.509   0.232  0.6505 -0.0063 -1.5183
20318SOL     OW62960   7.172  10.215   4.335  0.4721  0.1296  0.4672
20318SOL    HW162961   7.166  10.306   4.307  1.6071 -0.2496 -1.1706
20318SOL    HW262962   7.266  10.197   4.339  0.2668 -0.9503  0.8369
20319SOL     OW62963   7.261   9.172  10.689 -0.2464  0.1495  0.1672
20319SOL    HW162964   7.215   9.199  10.610 -1.8073 -1.2187  0.5500
20319SOL    HW262965   7.216   9.218  10.760  0.7868  0.9380  0.3300
20320SOL     OW62966   6.067   0.191   8.105  0.8782  0.2206 -0.2200
20320SOL    HW162967   6.082   0.247   8.029  1.8031  0.8363  0.3785
20320SOL    HW262968   6.030   0.250   8.171 -0.5704 -0.4568 -0.4011
20321SOL     OW62969   5.465   7.218   3.522 -0.0652  0.3306 -0.4752
20321SOL    HW162970   5.560   7.213   3.507 -0.0264 -2.3979  0.2578
20321SOL    HW262971   5.428   7.160   3.455 -0.9315 -1.1254  1.2043
20322SOL     OW62972   0.757   6.615   3.941  0.0980  0.3155  0.0212
20322SOL    HW162973   0.715   6.666   4.010  0.8444  0.5105  0.3397
20322SOL    HW262974   0.746   6.524   3.968 -1.3654  0.2753 -0.6214
20323SOL     OW62975   4.690   7.442   5.261  0.5269  0.2684  0.1547
20323SOL    HW162976   4.750   7.377   5.225 -0.8268 -0.5528 -0.6775
20323SOL    HW262977   4.728   7.527   5.236  2.2866 -0.1509  1.2182
20324SOL     OW62978   2.064  10.299   1.629  0.0747 -0.2404 -0.4361
20324SOL    HW162979   2.103  10.371   1.679 -1.3274  0.8128 -0.8020
20324SOL    HW262980   2.099  10.309   1.541  1.6650 -1.4235  0.0087
20325SOL     OW62981   6.391  10.827   4.598  0.0733 -0.1441 -0.1917
20325SOL    HW162982   6.298  10.843   4.580 -0.1246 -1.9452 -1.0276
20325SOL    HW262983   6.436  10.899   4.555 -0.8833 -0.0524 -1.0972
20326SOL     OW62984   0.959   6.146   4.479  0.1541 -0.2295 -0.4971
20326SOL    HW162985   0.868   6.173   4.469  0.8951  1.9460 -2.4637
20326SOL    HW262986   0.989   6.190   4.558  0.0329  0.8907 -1.0471
20327SOL     OW62987   7.514   1.351   1.127 -0.9260  0.2255 -0.2074
20327SOL    HW162988   7.488   1.265   1.092  0.0937 -0.2131  0.0638
20327SOL    HW262989   7.432   1.391   1.157 -1.5063 -0.3679 -0.9575
20328SOL     OW62990   3.375   6.513   7.652  0.1505  0.4856  0.7752
20328SOL    HW162991   3.462   6.474   7.645  1.1322  2.5622  0.6737
20328SOL    HW262992   3.348   6.528   7.562 -1.6294 -2.7283  0.6539
20329SOL     OW62993   0.601   2.442   1.341 -0.0896 -0.0302 -0.1336
20329SOL    HW162994   0.522   2.468   1.294 -0.5254  0.6996  0.9474
20329SOL    HW262995   0.569   2.401   1.421  0.6305 -0.7488 -0.2065
20330SOL     OW62996   7.754   9.981   2.326 -0.0619 -0.3132  0.0875
20330SOL    HW162997   7.834   9.973   2.274 -0.2813 -1.3937 -0.1269
20330SOL    HW262998   7.695   9.915   2.288 -0.0254 -1.5472  2.0509
20331SOL     OW62999   0.126   1.209   6.648  0.4566  0.3019  0.0983
20331SOL    HW163000   0.196   1.243   6.703 -0.1591  1.6282  0.0996
20331SOL    HW263001   0.137   1.253   6.564 -1.3190  1.8329  0.5959
20332SOL     OW63002   3.850   4.019   6.874 -0.4266 -0.2051  0.4689
20332SOL    HW163003   3.905   4.045   6.948 -0.3618 -0.1775  0.4103
20332SOL    HW263004   3.761   4.037   6.904 -0.4206 -0.4762  0.6547
20333SOL     OW63005   2.793  10.569   9.774  0.7042 -0.5216  0.1778
20333SOL    HW163006   2.887  10.554   9.763  0.3641 -1.9509 -1.0203
20333SOL    HW263007   2.759  10.571   9.684 -0.3836  0.2139  0.5944
20334SOL     OW63008   3.884  10.069   4.245  0.3624 -0.0657 -0.0105
20334SOL    HW163009   3.821  10.140   4.259  0.9320  0.5633 -0.5809
20334SOL    HW263010   3.923  10.088   4.160  1.1361 -0.5991  0.2145
20335SOL     OW63011   4.389   3.851   9.225 -0.3265 -0.1530 -0.2346
20335SOL    HW163012   4.341   3.769   9.234  1.5333 -1.0967  2.3428
20335SOL    HW263013   4.344   3.911   9.285  0.8122 -0.6501  1.1809
20336SOL     OW63014   8.151   3.126   7.374  0.4376 -0.5310  1.1271
20336SOL    HW163015   8.117   3.120   7.463  0.3068  0.1564  1.1287
20336SOL    HW263016   8.085   3.176   7.326  0.0223 -1.7602  0.3810
20337SOL     OW63017   0.799   4.126   2.801  0.5222 -0.6354  0.0919
20337SOL    HW163018   0.835   4.212   2.823 -0.2830 -0.3061  0.1762
20337SOL    HW263019   0.709   4.128   2.834  0.2129 -1.1975 -0.6581
20338SOL     OW63020   4.740   7.224   4.279 -0.1506 -0.3430 -0.0789
20338SOL    HW163021   4.753   7.141   4.325 -1.7759 -0.2631  0.5847
20338SOL    HW263022   4.773   7.209   4.191 -1.5778 -2.0966 -0.3459
20339SOL     OW63023   6.382   9.469   4.591 -0.3114 -0.4462  0.2363
20339SOL    HW163024   6.466   9.478   4.637 -0.0845 -0.0828 -0.2442
20339SOL    HW263025   6.377   9.545   4.534  0.7095 -2.1666 -2.3882
20340SOL     OW63026   5.829   7.804   8.184 -0.3479 -0.0647 -0.4021
20340SOL    HW163027   5.881   7.810   8.105  0.6063  0.8546  0.2715
20340SOL    HW263028   5.741   7.831   8.157 -0.0352  0.2312 -1.1434
20341SOL     OW63029   1.746  10.625   2.242  0.5088  0.0625  0.1261
20341SOL    HW163030   1.679  10.570   2.282 -1.2063  0.7809 -1.6082
20341SOL    HW263031   1.741  10.605   2.149  1.3605  1.5742 -0.2869
20342SOL     OW63032   9.334   9.147   0.808  0.5572 -0.3185  0.0513
20342SOL    HW163033   9.361   9.098   0.885 -1.0524 -1.1384  0.1201
20342SOL    HW263034   9.329   9.238   0.838  0.5571 -0.5427  0.7367
20343SOL     OW63035   9.646   6.098   7.798  0.4798  0.2099 -0.5902
20343SOL    HW163036   9.655   6.171   7.737  1.6033 -0.9049 -1.8385
20343SOL    HW263037   9.552   6.093   7.816  0.2285  1.1089 -1.5516
20344SOL     OW63038   4.256   5.723   5.575 -0.1041 -0.2627  0.6779
20344SOL    HW163039   4.223   5.782   5.507 -0.1046  0.7245  1.4937
20344SOL    HW263040   4.321   5.668   5.531  0.6925  1.0877  0.1123
20345SOL     OW63041   6.373   3.414   6.777  0.2891 -0.3391 -0.3007
20345SOL    HW163042   6.281   3.438   6.790  0.6189  0.5255  0.5640
20345SOL    HW263043   6.397   3.371   6.859  0.7540 -0.2458 -0.3874
20346SOL     OW63044   9.024   1.170   6.000 -0.7467 -0.0898 -0.4271
20346SOL    HW163045   9.076   1.248   6.019  0.1082 -0.7495  0.0083
20346SOL    HW263046   8.938   1.188   6.038 -0.1354  0.0704  0.9366
20347SOL     OW63047   5.013   2.140  11.002 -0.7790  0.7587 -0.3078
20347SOL    HW163048   5.067   2.203  11.050 -0.4917  0.2328  0.0802
20347SOL    HW263049   5.010   2.063  11.059 -0.9663  0.3520 -0.8528
20348SOL     OW63050   8.611   2.000  10.996  0.1942 -0.0615  0.0658
20348SOL    HW163051   8.621   2.094  11.011  1.1636  0.0095 -0.8991
20348SOL    HW263052   8.561   1.993  10.915 -2.2549 -0.4239  1.5201
20349SOL     OW63053   8.730   7.083   1.922  0.2573  0.4229 -0.1150
20349SOL    HW163054   8.645   7.049   1.952  0.7464 -1.1993 -0.4540
20349SOL    HW263055   8.713   7.112   1.832 -0.3422  1.8303  0.4250
20350SOL     OW63056   9.064   3.402  10.283 -0.3730  0.6827 -0.4413
20350SOL    HW163057   9.037   3.341  10.351  0.7856 -0.5667 -1.0660
20350SOL    HW263058   8.983   3.428  10.240 -0.7990 -1.5519 -1.0972
20351SOL     OW63059   4.210   6.288   6.156  0.8113 -0.5467  0.2121
20351SOL    HW163060   4.193   6.366   6.209  2.2894  0.3824 -0.6005
20351SOL    HW263061   4.215   6.216   6.219 -1.8079 -0.2560  0.8683
20352SOL     OW63062   2.517   9.376   0.231 -0.4995  0.1666  0.1027
20352SOL    HW163063   2.447   9.326   0.190  0.5562 -0.2354 -1.2955
20352SOL    HW263064   2.578   9.395   0.159 -0.0299  2.0083  0.9298
20353SOL     OW63065   1.588   0.442   9.949  0.1138  0.2261 -0.2606
20353SOL    HW163066   1.615   0.355   9.981  2.3544  0.9780  0.1165
20353SOL    HW263067   1.494   0.445   9.964 -0.4371 -2.8640 -2.0645
20354SOL     OW63068   2.820   7.129   9.164 -0.3485 -0.1354  0.0614
20354SOL    HW163069   2.898   7.174   9.130  0.8019 -0.9944  1.4373
20354SOL    HW263070   2.832   7.038   9.136 -1.4853 -0.0695 -0.7133
20355SOL     OW63071   0.841   3.775   2.645 -0.1114 -0.3627 -0.0464
20355SOL    HW163072   0.886   3.696   2.614 -1.1183 -0.6267 -0.8971
20355SOL    HW263073   0.760   3.742   2.684 -0.3083  0.2170  0.0434
20356SOL     OW63074   0.227   8.146  10.041 -0.2496 -0.3200 -0.3132
20356SOL    HW163075   0.311   8.123  10.002  0.4365  1.5931 -0.0784
20356SOL    HW263076   0.168   8.075  10.016  1.4163 -1.6637 -0.5293
20357SOL     OW63077   1.592   1.815   2.688  0.2938  0.2012 -0.7173
20357SOL    HW163078   1.540   1.735   2.689  1.2019 -0.4278  1.0650
20357SOL    HW263079   1.531   1.885   2.712 -0.0903 -0.2791 -0.2814
20358SOL     OW63080   0.042   8.753   4.474  0.1043  0.3744  0.0535
20358SOL    HW163081  -0.016   8.828   4.462 -0.5304  0.1960  1.7205
20358SOL    HW263082   0.115   8.787   4.525  0.8785  0.3209 -0.9965
20359SOL     OW63083   5.715   6.331   2.796  0.3064  0.1582 -0.1105
20359SOL    HW163084   5.622   6.323   2.819 -0.7046  4.1255 -1.9677
20359SOL    HW263085   5.758   6.356   2.878 -0.9951  1.7456  0.1468
20360SOL     OW63086  10.255  10.627   2.653  0.0315  0.2491 -0.0524
20360SOL    HW163087  10.290  10.642   2.565  0.5890 -0.1735  0.0948
20360SOL    HW263088  10.251  10.714   2.692 -1.1502  0.5689 -0.8338
20361SOL     OW63089   2.131   3.654   5.108 -0.1172 -0.2331  0.5408
20361SOL    HW163090   2.065   3.668   5.040  1.4915  0.5349 -0.9456
20361SOL    HW263091   2.154   3.561   5.099  2.7260  0.5911 -2.6499
20362SOL     OW63092   3.113   5.032   2.334 -0.3208  0.0572 -0.2593
20362SOL    HW163093   3.034   5.078   2.307 -1.5619 -0.4770  2.2027
20362SOL    HW263094   3.138   5.072   2.417  1.1778 -0.7326 -0.2902
20363SOL     OW63095   4.045  10.541   1.546 -0.2644 -0.3689 -0.2177
20363SOL    HW163096   4.055  10.606   1.615 -2.6437 -0.6026  0.4286
20363SOL    HW263097   4.012  10.590   1.471  0.6893 -0.4043 -0.6839
20364SOL     OW63098   0.416   5.135   1.818  0.2687 -0.4951  0.0858
20364SOL    HW163099   0.447   5.063   1.764  0.1185 -1.6216  1.4417
20364SOL    HW263100   0.325   5.114   1.836  0.9145 -1.4603  2.7078
20365SOL     OW63101   2.630   8.502   4.453  0.1127 -0.6717 -0.0861
20365SOL    HW163102   2.639   8.560   4.529 -1.0026 -0.8678  0.2145
20365SOL    HW263103   2.683   8.425   4.475  1.2309  0.0065 -0.2911
20366SOL     OW63104   6.564   8.593  10.748 -0.5125 -0.0065  0.3239
20366SOL    HW163105   6.631   8.654  10.718  0.2564 -1.1788 -0.4080
20366SOL    HW263106   6.587   8.510  10.707 -1.3629 -0.8672  1.5315
20367SOL     OW63107   2.697   5.596   1.049 -0.3637 -0.2990 -0.0085
20367SOL    HW163108   2.717   5.532   0.981 -0.7621  0.1812 -0.5878
20367SOL    HW263109   2.602   5.590   1.061 -0.6560  1.2648 -1.2023
20368SOL     OW63110   7.643  10.008   9.367 -0.5218 -0.2748 -0.3114
20368SOL    HW163111   7.671   9.917   9.375 -1.6896 -0.6025  0.2677
20368SOL    HW263112   7.648  10.026   9.273  0.6409 -0.6080 -0.3372
20369SOL     OW63113   4.396   4.005   0.228  0.3268 -0.3193  0.1696
20369SOL    HW163114   4.475   3.991   0.280  0.9173 -1.4080 -0.9757
20369SOL    HW263115   4.325   4.007   0.292  1.1657 -0.3453  1.1206
20370SOL     OW63116  10.177   0.206   2.802 -0.0252 -0.1365 -0.4496
20370SOL    HW163117  10.240   0.154   2.852  1.0255  2.7448  1.4286
20370SOL    HW263118  10.186   0.295   2.836 -2.8962  1.0222 -2.3473
20371SOL     OW63119   5.492   3.237   8.317 -0.0568  0.3646  0.0163
20371SOL    HW163120   5.401   3.209   8.324 -0.1536  0.6261 -0.1883
20371SOL    HW263121   5.496   3.318   8.368  0.7285 -1.1540  2.5195
20372SOL     OW63122   7.386   1.949   1.740  0.6867  0.3639  0.1158
20372SOL    HW163123   7.406   2.020   1.679 -2.2527  0.7131 -0.6066
20372SOL    HW263124   7.434   1.874   1.708 -0.2348  0.7206 -2.2717
20373SOL     OW63125   0.266   2.886   7.159  0.0286 -0.3118 -0.7675
20373SOL    HW163126   0.198   2.899   7.224  1.0425 -1.6401  0.6226
20373SOL    HW263127   0.255   2.795   7.131  1.5373 -0.7158 -0.1179
20374SOL     OW63128   7.144   4.332   5.852 -0.2128  0.2665  0.2134
20374SOL    HW163129   7.200   4.341   5.775 -1.7081  1.8429 -0.7427
20374SOL    HW263130   7.172   4.249   5.892  1.0698 -0.2349 -1.6018
20375SOL     OW63131   2.494   7.427   7.873  0.2677 -0.2916 -0.1986
20375SOL    HW163132   2.465   7.517   7.858 -1.5557 -0.9026 -0.5819
20375SOL    HW263133   2.582   7.424   7.837 -0.5563  0.7046 -2.4561
20376SOL     OW63134  10.600   9.970   9.106  0.0067 -0.1930 -0.1160
20376SOL    HW163135  10.520   9.984   9.055 -1.1263 -1.9100  1.0843
20376SOL    HW263136  10.589  10.024   9.184  0.0159 -0.4457  0.0605
20377SOL     OW63137   0.357   2.083   5.663  0.0477  0.1245  0.1019
20377SOL    HW163138   0.330   2.102   5.753 -0.0990 -0.2581  0.1412
20377SOL    HW263139   0.315   2.152   5.610  1.5285  1.3745  0.5083
20378SOL     OW63140   2.189   3.677   8.035 -0.2563  0.1408  0.0051
20378SOL    HW163141   2.186   3.680   8.130 -2.9248  2.2033 -0.0174
20378SOL    HW263142   2.143   3.596   8.012 -2.4765  1.1667  0.5399
20379SOL     OW63143   6.347   2.481   0.045 -0.5054 -0.5503 -0.4526
20379SOL    HW163144   6.389   2.401   0.012  2.4109  0.3078  0.8849
20379SOL    HW263145   6.342   2.468   0.140 -1.6233  0.1722 -0.3931
20380SOL     OW63146   3.530   6.879   4.633  0.1019 -0.1178 -0.0125
20380SOL    HW163147   3.491   6.804   4.589 -0.2200  0.7858 -1.3392
20380SOL    HW263148   3.476   6.893   4.711 -1.3539  0.2179 -1.0420
20381SOL     OW63149   5.277   0.351   7.312 -0.3752  0.6230 -0.0021
20381SOL    HW163150   5.242   0.411   7.378  0.0825 -0.1756  0.9983
20381SOL    HW263151   5.202   0.330   7.257 -0.6456  1.7343 -0.0880
20382SOL     OW63152   3.873   3.861   3.336 -0.2040  0.0468  0.6783
20382SOL    HW163153   3.837   3.856   3.425 -0.8144  0.7012  0.4712
20382SOL    HW263154   3.804   3.900   3.284  0.5558  0.7048  0.1350
20383SOL     OW63155   5.040   3.225   6.164 -0.1111 -0.4054  0.3052
20383SOL    HW163156   5.104   3.154   6.172  1.5352  0.9270 -0.2001
20383SOL    HW263157   5.022   3.251   6.254 -0.8016 -1.5125  0.4938
20384SOL     OW63158  10.077   2.992   5.703  0.1721  0.1879  0.1397
20384SOL    HW163159  10.103   3.084   5.700 -0.5374  0.3895  0.2270
20384SOL    HW263160  10.147   2.947   5.654 -0.2487  0.9546 -1.2341
20385SOL     OW63161   2.499   5.538   1.371  0.7369 -0.1012 -0.4325
20385SOL    HW163162   2.436   5.470   1.395  0.2026  0.1684 -1.0418
20385SOL    HW263163   2.584   5.496   1.380  0.3921 -1.0714 -1.4701
20386SOL     OW63164   5.919   4.443   7.672 -0.0280 -0.6423  0.3379
20386SOL    HW163165   5.966   4.363   7.650 -1.4290 -1.1715 -0.9409
20386SOL    HW263166   5.901   4.485   7.587  1.1110  1.3232  0.9958
20387SOL     OW63167   4.603   9.598   3.878 -0.3416  0.4309 -0.0575
20387SOL    HW163168   4.614   9.684   3.839 -1.2037  0.1166 -1.0611
20387SOL    HW263169   4.527   9.607   3.935 -0.7804  0.2151 -0.5933
20388SOL     OW63170   5.825   6.879   6.432 -0.2842 -0.0150 -0.5167
20388SOL    HW163171   5.866   6.961   6.401  0.8408 -0.1076  0.6536
20388SOL    HW263172   5.750   6.867   6.374  1.5342 -0.0294 -3.0494
20389SOL     OW63173   9.743   0.740   5.024 -0.4538 -0.1185 -0.0316
20389SOL    HW163174   9.706   0.723   4.937 -0.8242 -0.7843  0.2445
20389SOL    HW263175   9.723   0.832   5.042  0.9355  0.4570 -1.2641
20390SOL     OW63176   8.833   5.972   7.801  0.2190  0.2654  0.6207
20390SOL    HW163177   8.926   5.959   7.782  0.3474 -2.6581  2.5967
20390SOL    HW263178   8.789   5.957   7.718  1.4092  0.0161  0.0169
20391SOL     OW63179   1.690   3.349   9.158  0.2232  0.1561 -0.0002
20391SOL    HW163180   1.600   3.318   9.145  0.5985 -1.2315  0.4646
20391SOL    HW263181   1.710   3.324   9.249  1.7852 -1.5665 -0.7397
20392SOL     OW63182   1.020   9.325   6.649  0.1334  0.1535  0.0657
20392SOL    HW163183   1.060   9.300   6.732 -0.3798  1.1167  0.6158
20392SOL    HW263184   1.087   9.305   6.584  0.5260 -0.6509  0.6972
20393SOL     OW63185   6.929   6.486   5.358 -0.0931 -0.0782  0.1146
20393SOL    HW163186   6.850   6.534   5.333 -0.7971 -1.2530  0.0597
20393SOL    HW263187   6.986   6.554   5.396 -0.8333  0.9006 -0.4725
20394SOL     OW63188   8.138   2.713   4.763 -0.1697  0.1255 -0.1857
20394SOL    HW163189   8.215   2.709   4.705 -0.0739  0.6404 -0.0986
20394SOL    HW263190   8.070   2.754   4.709 -0.2144  0.1938 -0.0774
20395SOL     OW63191   4.952   5.922   2.288  0.4111  0.7528  0.1439
20395SOL    HW163192   4.972   5.956   2.376  0.9411  1.9021 -0.3939
20395SOL    HW263193   4.929   6.000   2.238 -2.1482 -0.1155 -0.1848
20396SOL     OW63194   3.069   2.277   1.902  0.1497  0.1710  0.2217
20396SOL    HW163195   3.090   2.366   1.872  1.5400  0.1388  0.9913
20396SOL    HW263196   3.022   2.290   1.984  1.2455  0.2264  0.8726
20397SOL     OW63197   0.010   6.133   1.484 -0.4591  0.4270  0.1600
20397SOL    HW163198   0.097   6.156   1.516 -0.1181  0.2653 -0.6360
20397SOL    HW263199  -0.042   6.212   1.498  0.7544  1.8821 -2.7556
20398SOL     OW63200  10.140   5.708   2.667 -0.3900  0.0468  0.0642
20398SOL    HW163201  10.158   5.614   2.668 -0.4729 -0.0011 -1.1024
20398SOL    HW263202  10.067   5.719   2.728 -0.9127 -0.7692 -0.3842
20399SOL     OW63203   2.004   1.701   1.651  0.0131 -0.1979 -0.3148
20399SOL    HW163204   1.920   1.681   1.611  1.0176 -0.6961 -2.3429
20399SOL    HW263205   2.012   1.796   1.644  0.1985 -0.2809 -1.4327
20400SOL     OW63206   3.399   8.311   3.010  0.3107 -0.1328  0.1299
20400SOL    HW163207   3.460   8.286   3.079 -1.4553  0.2352  1.9006
20400SOL    HW263208   3.313   8.307   3.051 -0.8119  0.1215 -2.0656
20401SOL     OW63209   3.593  10.832   1.848 -0.0873 -0.4941  0.3927
20401SOL    HW163210   3.617  10.813   1.758  1.0570 -3.0090  1.1206
20401SOL    HW263211   3.673  10.866   1.888 -0.6582  0.8532  0.4193
20402SOL     OW63212   3.989   4.992   5.752 -0.0451 -0.3780  0.0171
20402SOL    HW163213   4.034   4.911   5.728 -2.2047 -1.9656  1.0377
20402SOL    HW263214   3.899   4.980   5.721 -0.7737  1.0379  1.4156
20403SOL     OW63215   2.982   5.338   4.925 -0.1974  0.5958 -0.3222
20403SOL    HW163216   3.022   5.408   4.976 -1.7447  0.7755  0.7239
20403SOL    HW263217   2.922   5.383   4.866 -1.3389  0.1898  0.4821
20404SOL     OW63218   4.396  10.948   7.563  0.6152  0.4501  0.1704
20404SOL    HW163219   4.304  10.938   7.540  0.7002 -0.1191  0.0480
20404SOL    HW263220   4.424  11.029   7.520  0.0704  0.8468  0.5553
20405SOL     OW63221   2.095   5.922   0.659 -0.2151 -0.3336  0.3148
20405SOL    HW163222   2.155   5.993   0.634 -1.4909  0.5935 -0.2108
20405SOL    HW263223   2.134   5.844   0.620  1.1598  0.0717  0.8067
20406SOL     OW63224   6.184   3.184   9.404  0.0343  1.1102  0.2784
20406SOL    HW163225   6.136   3.105   9.429 -1.4048  2.6383  2.7231
20406SOL    HW263226   6.129   3.225   9.336  0.2313  0.5848 -0.2045
20407SOL     OW63227   5.848   4.457   1.467 -0.7289  0.0076 -0.1093
20407SOL    HW163228   5.912   4.392   1.437 -0.9434  0.6032 -2.0349
20407SOL    HW263229   5.866   4.535   1.414 -2.0325  0.7007  0.4198
20408SOL     OW63230   6.785   1.264   3.776 -0.1194 -0.1881  0.2884
20408SOL    HW163231   6.740   1.213   3.843 -0.6862 -0.4743 -0.3013
20408SOL    HW263232   6.866   1.215   3.759 -1.7201 -2.3093 -1.9956
20409SOL     OW63233   4.568   3.591   4.798 -0.2922 -0.2385 -0.6728
20409SOL    HW163234   4.642   3.592   4.858 -1.6590 -2.7493  1.2243
20409SOL    HW263235   4.598   3.538   4.724  0.6942  1.1471 -1.3163
20410SOL     OW63236   4.731   2.106   3.379 -0.5819 -0.4370  0.2997
20410SOL    HW163237   4.792   2.058   3.322 -0.8846  0.1745 -0.5611
20410SOL    HW263238   4.666   2.143   3.319 -0.7399  0.4721  1.0113
20411SOL     OW63239   4.333   5.148   6.507  0.1188  0.6087  0.4171
20411SOL    HW163240   4.304   5.155   6.416 -0.9325 -0.9642  0.5846
20411SOL    HW263241   4.269   5.200   6.556  0.7621  1.5660  0.2629
20412SOL     OW63242   9.860  10.955   7.539  0.4884  0.1259 -0.0130
20412SOL    HW163243   9.827  11.028   7.590  0.5544 -1.5596  2.6273
20412SOL    HW263244   9.950  10.943   7.569  0.5049 -0.9792 -0.4393
20413SOL     OW63245   1.662   9.297   4.941 -0.3758  0.9209 -0.0849
20413SOL    HW163246   1.616   9.258   4.866 -0.4460 -2.7613  1.6803
20413SOL    HW263247   1.745   9.328   4.904 -1.6545  2.1049 -2.1766
20414SOL     OW63248   4.975   8.941   4.982 -0.0223  0.3379  0.1390
20414SOL    HW163249   5.062   8.963   5.014  0.4770  0.0378 -0.9780
20414SOL    HW263250   4.989   8.870   4.920 -0.9181  1.1582 -1.0404
20415SOL     OW63251   8.409   0.508   5.344  0.3094 -0.4306 -0.4654
20415SOL    HW163252   8.369   0.576   5.397  0.6227  0.0077 -0.7908
20415SOL    HW263253   8.346   0.492   5.274  1.1054  0.9587 -1.5481
20416SOL     OW63254   6.248   8.029  10.711  0.0800 -0.5912  0.3814
20416SOL    HW163255   6.331   8.002  10.750  0.1432 -0.0946  0.6113
20416SOL    HW263256   6.235   8.119  10.743 -0.9525 -0.9520  1.0158
20417SOL     OW63257   8.991   0.383   9.532  0.3911 -0.6063  0.2152
20417SOL    HW163258   9.025   0.298   9.503  0.7020 -0.1639 -0.7456
20417SOL    HW263259   9.055   0.412   9.598  0.5276 -0.9041  0.2175
20418SOL     OW63260   2.198   0.971   0.571 -0.1348 -0.1251  0.1185
20418SOL    HW163261   2.116   1.013   0.600 -0.1069  1.7141 -2.2094
20418SOL    HW263262   2.264   1.005   0.631 -1.1018 -2.7239  2.9702
20419SOL     OW63263   4.440   1.432   0.388 -0.3601 -0.1228 -0.2446
20419SOL    HW163264   4.517   1.488   0.397 -0.1075 -0.4719 -0.2277
20419SOL    HW263265   4.405   1.453   0.302 -1.3044  1.3661  0.4475
20420SOL     OW63266   1.482   9.956   3.289 -0.1721  0.1418  0.1263
20420SOL    HW163267   1.481  10.052   3.284 -0.4231  0.1047 -0.5939
20420SOL    HW263268   1.526   9.928   3.209 -1.9316 -0.3990 -0.7033
20421SOL     OW63269   9.495  10.260   2.985 -0.4619  0.2304  0.2624
20421SOL    HW163270   9.585  10.232   2.972  0.0897  0.1661  3.5349
20421SOL    HW263271   9.443  10.181   2.972 -0.1627  0.3482 -2.0382
20422SOL     OW63272   4.102   6.684   0.300  0.1732  0.1217  0.4068
20422SOL    HW163273   4.109   6.612   0.362  0.6676 -2.6048 -2.5575
20422SOL    HW263274   4.190   6.722   0.296  1.0125 -1.8340 -0.9124
20423SOL     OW63275   0.694   2.547   5.120 -0.2155  0.2326  0.6740
20423SOL    HW163276   0.636   2.565   5.046 -1.6005 -1.9571  1.1282
20423SOL    HW263277   0.674   2.616   5.184  1.5334  2.5970 -1.1687
20424SOL     OW63278   2.871   6.394   4.029 -0.2853  0.1193 -0.2521
20424SOL    HW163279   2.882   6.300   4.016 -0.3554  0.0134  0.4217
20424SOL    HW263280   2.960   6.428   4.032 -0.2488 -0.0043  0.0572
20425SOL     OW63281   2.136   4.779   7.204  0.4073 -0.2878 -0.0402
20425SOL    HW163282   2.079   4.753   7.277 -2.6719  1.8102 -1.4600
20425SOL    HW263283   2.173   4.863   7.231  2.0558 -1.1236  0.4199
20426SOL     OW63284   4.540   8.941   0.164 -0.2878 -0.6373  0.1938
20426SOL    HW163285   4.489   8.944   0.084 -0.0071  3.6655 -0.0758
20426SOL    HW263286   4.622   8.898   0.140 -1.0863 -1.4261 -1.1841
20427SOL     OW63287   8.879   6.957   0.256 -0.2484 -0.3283 -0.0844
20427SOL    HW163288   8.963   6.993   0.284 -0.3098 -0.2712  0.0268
20427SOL    HW263289   8.832   6.940   0.337 -0.0145 -1.1597 -0.1095
20428SOL     OW63290   9.851   6.279   9.498 -0.0717 -0.4762  0.5002
20428SOL    HW163291   9.845   6.344   9.568  0.7805 -1.0193  1.0912
20428SOL    HW263292   9.805   6.202   9.532  0.1123 -0.6490  0.3616
20429SOL     OW63293   5.011   3.470  10.918 -0.5383  0.3822  0.2048
20429SOL    HW163294   5.012   3.393  10.975  2.1518 -0.0815 -0.3089
20429SOL    HW263295   4.923   3.506  10.927 -1.1855 -1.4842  2.1678
20430SOL     OW63296   5.110   2.652   6.325 -0.0649  0.6396  0.2337
20430SOL    HW163297   5.126   2.739   6.288 -1.2065  0.7971  0.0943
20430SOL    HW263298   5.076   2.601   6.252  1.2194 -0.1344  0.1452
20431SOL     OW63299   6.586   2.985   1.533  0.4586  0.1066 -0.1811
20431SOL    HW163300   6.646   2.911   1.526  0.6421  0.3667 -1.4653
20431SOL    HW263301   6.514   2.952   1.587  1.6046 -0.2776  1.1916
20432SOL     OW63302   4.544   5.048   9.860  0.3840 -0.3712 -0.1761
20432SOL    HW163303   4.628   5.078   9.825  0.6834 -0.2235  0.6380
20432SOL    HW263304   4.527   4.966   9.814  1.3861 -0.8240  0.2358
20433SOL     OW63305   5.541   5.059   0.860  0.5036 -0.1327 -0.1140
20433SOL    HW163306   5.564   4.968   0.845 -0.1423 -0.6625  1.9131
20433SOL    HW263307   5.614   5.094   0.911  0.3257  0.2415 -0.1110
20434SOL     OW63308   5.420   9.000   9.156  0.1574  0.1782  0.2506
20434SOL    HW163309   5.379   9.085   9.143  0.4210  0.1481 -0.8363
20434SOL    HW263310   5.513   9.020   9.170  0.3320  0.0391 -0.6600
20435SOL     OW63311  10.705   6.425  10.192 -0.8647 -0.6333  0.5046
20435SOL    HW163312  10.789   6.454  10.227 -1.0000  0.7868 -0.2671
20435SOL    HW263313  10.643   6.492  10.222 -1.6813 -1.5031  0.8135
20436SOL     OW63314   4.912   9.626  10.764  0.2814 -0.0399  0.2105
20436SOL    HW163315   4.965   9.565  10.815  1.7837  0.1053 -1.0803
20436SOL    HW263316   4.844   9.571  10.724  1.2963 -0.8238 -0.5035
20437SOL     OW63317   1.881   2.948   0.760 -0.3748 -0.0161  0.1147
20437SOL    HW163318   1.788   2.935   0.742 -0.6862  0.6630  1.1621
20437SOL    HW263319   1.883   3.005   0.837  0.9127 -0.9260  0.7825
20438SOL     OW63320   2.929   5.549   5.367 -0.0434 -0.3732 -0.0483
20438SOL    HW163321   3.016   5.512   5.376  1.5758  3.3904  3.0235
20438SOL    HW263322   2.935   5.609   5.292 -0.0143 -0.2196  0.0755
20439SOL     OW63323   3.389   5.265   9.626  0.3020  0.4689 -0.5863
20439SOL    HW163324   3.321   5.249   9.693 -1.4945  0.3417 -2.3507
20439SOL    HW263325   3.438   5.183   9.621  0.3598  0.4242  0.4418
20440SOL     OW63326   9.116   7.578   7.064  0.4508 -0.0387  0.5115
20440SOL    HW163327   9.079   7.633   6.996  1.1183 -1.3863 -0.9918
20440SOL    HW263328   9.147   7.500   7.019 -0.0316 -1.4671  2.5026
20441SOL     OW63329   0.743   2.722   9.402 -0.2680 -0.0810 -0.2312
20441SOL    HW163330   0.706   2.638   9.375 -2.7173  0.8266 -0.0076
20441SOL    HW263331   0.755   2.714   9.496 -0.0660 -0.3204 -0.2768
20442SOL     OW63332   1.369   4.727   8.862  0.4433  0.0066  0.0231
20442SOL    HW163333   1.328   4.674   8.794 -0.3974  0.4109  0.2013
20442SOL    HW263334   1.326   4.700   8.943  2.0658 -1.1156  0.5622
20443SOL     OW63335   0.079   1.129   1.664 -0.2754 -0.3284 -0.3883
20443SOL    HW163336  -0.001   1.095   1.623 -0.2769 -0.5761 -0.1884
20443SOL    HW263337   0.052   1.148   1.754 -0.2114 -0.0229 -0.4344
20444SOL     OW63338   0.091   3.506   6.677 -0.3175 -0.6735  0.0688
20444SOL    HW163339  -0.001   3.484   6.692 -0.0840 -1.8606 -0.0842
20444SOL    HW263340   0.089   3.587   6.627 -1.3060 -0.9771 -0.4150
20445SOL     OW63341   8.348   9.181   0.019 -0.0322 -0.0168  0.0131
20445SOL    HW163342   8.296   9.105  -0.008 -1.0872  0.6882  0.0093
20445SOL    HW263343   8.304   9.256  -0.023  0.1733  0.7424  1.1259
20446SOL     OW63344   1.636   1.388   2.498  0.2293 -0.3781 -0.1045
20446SOL    HW163345   1.669   1.322   2.437 -0.1938  0.5130 -1.3372
20446SOL    HW263346   1.666   1.472   2.462  2.5817  0.0760  2.5631
20447SOL     OW63347   1.301   2.847   2.328  0.7158 -0.0657 -0.1460
20447SOL    HW163348   1.351   2.768   2.308  0.2099 -0.5457  0.4533
20447SOL    HW263349   1.340   2.881   2.408  0.9204  0.2894 -0.3917
20448SOL     OW63350   2.566  10.250   5.251 -0.0455  0.3929  0.3257
20448SOL    HW163351   2.495  10.223   5.309 -0.2770  0.6693  0.1724
20448SOL    HW263352   2.619  10.311   5.304 -0.8296  1.4425 -0.0724
20449SOL     OW63353   4.243   2.102   3.012 -0.0595 -0.4326 -0.0952
20449SOL    HW163354   4.334   2.074   3.017 -0.0832 -0.3786  1.1201
20449SOL    HW263355   4.194   2.034   3.059 -0.3408  0.6330  1.2360
20450SOL     OW63356   6.051   2.448   9.137 -0.3227  0.0233  0.3229
20450SOL    HW163357   6.105   2.498   9.076 -1.0923  1.7525  0.9730
20450SOL    HW263358   5.961   2.469   9.112 -0.7489 -2.3623 -0.4010
20451SOL     OW63359   6.722   6.839   9.828  0.1190  0.6461 -0.0413
20451SOL    HW163360   6.698   6.766   9.771 -0.1219 -0.4409  1.3957
20451SOL    HW263361   6.804   6.812   9.868  0.5001  1.5814 -0.1678
20452SOL     OW63362  10.579   1.773   7.276  0.0959  0.2257  0.0845
20452SOL    HW163363  10.574   1.828   7.354 -0.1886 -0.7263  0.7550
20452SOL    HW263364  10.617   1.691   7.307 -0.3193 -0.2765 -0.7143
20453SOL     OW63365   8.867   0.613   8.759 -0.2884  0.5488  0.1913
20453SOL    HW163366   8.861   0.659   8.843 -0.0002 -1.1670  1.2045
20453SOL    HW263367   8.907   0.528   8.781  0.3252  0.2724 -1.7729
20454SOL     OW63368   9.372   1.705   9.562 -0.5508 -0.4772 -0.6771
20454SOL    HW163369   9.308   1.752   9.616  0.4345 -1.0201  1.0138
20454SOL    HW263370   9.433   1.667   9.624 -0.0413 -2.1527 -2.1224
20455SOL     OW63371   1.019  10.150  10.331  0.0263  0.2400  0.0537
20455SOL    HW163372   1.028  10.189  10.417 -3.2004 -0.9857  1.1041
20455SOL    HW263373   0.941  10.191  10.293  0.7981  0.0420 -1.9099
20456SOL     OW63374   2.173   5.548   9.930  0.1000  0.5286  0.0656
20456SOL    HW163375   2.138   5.499   9.856  1.5164  1.1947 -1.1194
20456SOL    HW263376   2.113   5.622   9.941  0.0480  0.5975 -0.6498
20457SOL     OW63377   9.469   8.384   4.599  0.5072 -0.3156 -0.2865
20457SOL    HW163378   9.390   8.349   4.558  0.3725  1.2987 -1.4921
20457SOL    HW263379   9.437   8.450   4.661  0.7468 -2.2649  2.0937
20458SOL     OW63380   1.959   3.489   4.884  0.0812  0.5674 -0.3411
20458SOL    HW163381   1.881   3.467   4.935 -0.1727  1.7296 -0.1869
20458SOL    HW263382   1.959   3.585   4.881  0.7587  0.5485 -1.5099
20459SOL     OW63383   8.095   1.752   5.268 -0.3256 -0.2083 -0.0112
20459SOL    HW163384   8.135   1.738   5.354  0.2867  1.0485 -0.0590
20459SOL    HW263385   8.001   1.749   5.284 -0.2217 -1.0781  0.4981
20460SOL     OW63386   9.395   8.951   8.736 -0.5994  0.0327  0.4006
20460SOL    HW163387   9.317   9.005   8.735 -0.0556  0.9427  2.3756
20460SOL    HW263388   9.425   8.950   8.645 -1.3513  2.0019  0.0838
20461SOL     OW63389   3.201   4.668   6.328 -0.1023  0.5990 -0.4171
20461SOL    HW163390   3.172   4.758   6.335  0.3061  0.7310 -0.3920
20461SOL    HW263391   3.149   4.621   6.394  0.8017  1.0967  0.6844
20462SOL     OW63392  10.795   4.989   7.736 -0.0775 -0.7041 -0.1908
20462SOL    HW163393  10.748   5.023   7.812 -0.2296  0.8832 -0.9354
20462SOL    HW263394  10.763   4.900   7.725 -1.2930 -0.3859  0.6254
20463SOL     OW63395   5.961   3.451   6.328  0.2210  0.3951  0.0528
20463SOL    HW163396   5.984   3.449   6.235 -1.7507 -0.6000 -0.4653
20463SOL    HW263397   5.965   3.543   6.352 -0.9508  0.8993 -1.5146
20464SOL     OW63398   3.150   4.529   7.214  0.5413 -0.0097 -0.0014
20464SOL    HW163399   3.192   4.443   7.225  0.3483 -0.0211  0.6595
20464SOL    HW263400   3.080   4.529   7.278 -1.0718 -0.3533 -1.6716
20465SOL     OW63401   2.466   2.307   1.497  0.5023  0.1609 -0.0835
20465SOL    HW163402   2.483   2.361   1.419  0.5152 -0.0554 -0.2317
20465SOL    HW263403   2.454   2.219   1.462 -1.8539  0.4172 -0.1236
20466SOL     OW63404   0.523   9.210   5.385 -0.3983 -0.3922  0.2096
20466SOL    HW163405   0.453   9.227   5.448 -0.3075  1.4026 -0.1117
20466SOL    HW263406   0.480   9.220   5.300  0.2129  0.7167  0.0111
20467SOL     OW63407   5.233   9.879   5.557  0.8556 -0.2881 -0.8292
20467SOL    HW163408   5.233   9.879   5.462  0.3321  0.4985 -0.8393
20467SOL    HW263409   5.142   9.900   5.581  1.5919  2.6148 -0.1932
20468SOL     OW63410   9.026   7.459  10.259 -0.3605  0.1465 -0.6019
20468SOL    HW163411   9.072   7.543  10.259  1.1264 -0.6251  0.2626
20468SOL    HW263412   8.982   7.455  10.344 -0.4507  0.0521 -0.6518
20469SOL     OW63413   8.619   1.600   4.757 -0.4578 -0.7432 -0.4262
20469SOL    HW163414   8.526   1.577   4.754 -1.0089  1.0070  1.1792
20469SOL    HW263415   8.628   1.674   4.697 -0.7792  0.9867  1.5481
20470SOL     OW63416   2.805   9.026   9.190  0.2117 -0.6269  0.0049
20470SOL    HW163417   2.835   9.094   9.250 -0.1320  1.9285 -2.4777
20470SOL    HW263418   2.740   8.977   9.240 -0.4697  1.7020  1.6018
20471SOL     OW63419   0.016   8.249   9.002  0.3336  0.3291 -0.1947
20471SOL    HW163420   0.009   8.201   9.084 -1.5528 -0.3591 -0.7067
20471SOL    HW263421   0.083   8.203   8.953  0.5227 -0.0753  0.4278
20472SOL     OW63422   1.357   1.182   2.449  0.5787  0.0008  0.5302
20472SOL    HW163423   1.329   1.271   2.429  1.1195  0.0490 -0.0342
20472SOL    HW263424   1.369   1.182   2.544  0.1295  0.3963  0.5918
20473SOL     OW63425   4.821   2.323   8.949 -0.3908  0.8820  0.7184
20473SOL    HW163426   4.856   2.310   8.861 -0.0722  0.9903  0.8275
20473SOL    HW263427   4.896   2.353   9.001 -1.1346  3.7054  0.3629
20474SOL     OW63428   8.569   1.766   5.731 -0.1767  0.2358 -0.0812
20474SOL    HW163429   8.520   1.834   5.685 -2.1723 -1.9609 -1.4341
20474SOL    HW263430   8.661   1.790   5.720 -0.8051  2.7965 -0.2566
20475SOL     OW63431   4.515   3.407   3.616 -0.2062 -0.4495 -0.0798
20475SOL    HW163432   4.435   3.389   3.665 -0.7625 -4.5915 -2.0691
20475SOL    HW263433   4.586   3.382   3.674 -0.4157  0.8210  0.7738
20476SOL     OW63434   2.677   7.821   8.660  0.1156 -0.0244  0.4838
20476SOL    HW163435   2.627   7.846   8.583 -0.6766 -1.1964  0.5982
20476SOL    HW263436   2.744   7.761   8.627 -0.6935 -1.1221  0.7872
20477SOL     OW63437   6.069   2.326   3.301  0.7198 -0.4014 -0.0415
20477SOL    HW163438   6.122   2.262   3.348 -1.6103 -2.1637  0.3718
20477SOL    HW263439   6.066   2.294   3.210  1.9845  0.8312 -0.5556
20478SOL     OW63440   0.643   6.529   7.024 -0.3756 -0.1122  0.5317
20478SOL    HW163441   0.680   6.480   7.098  1.2261 -1.2306 -0.9081
20478SOL    HW263442   0.719   6.550   6.969 -1.5612  0.1134 -1.1049
20479SOL     OW63443   8.719   2.082   7.821  0.1694  0.5717 -0.1075
20479SOL    HW163444   8.678   2.155   7.866 -1.2684 -0.4184  0.2660
20479SOL    HW263445   8.666   2.006   7.846 -0.2853 -0.1289 -2.9522
20480SOL     OW63446   9.132   9.038   8.746  0.1066  0.0683 -0.1490
20480SOL    HW163447   9.046   9.012   8.712  0.6414  0.4989 -1.9420
20480SOL    HW263448   9.121   9.129   8.772  0.0006  0.0916 -0.2749
20481SOL     OW63449   6.232   2.829   3.162 -0.6958  0.1737 -0.1441
20481SOL    HW163450   6.143   2.802   3.185 -0.2485 -0.9562  0.3491
20481SOL    HW263451   6.246   2.911   3.209 -0.3895 -1.2317  2.4392
20482SOL     OW63452   5.486   5.395   8.976 -0.0008  0.2894 -0.6134
20482SOL    HW163453   5.518   5.482   8.997  0.6400  0.8467 -3.4945
20482SOL    HW263454   5.433   5.406   8.897  1.0951 -2.0507 -1.7935
20483SOL     OW63455   4.776   6.590   1.036  0.1406  0.0793  0.5978
20483SOL    HW163456   4.708   6.610   0.971  0.0336  0.4978  0.8330
20483SOL    HW263457   4.751   6.504   1.070  0.6764 -0.5257 -0.5174
20484SOL     OW63458  10.106  10.458   9.465 -0.2830 -0.1887 -1.1328
20484SOL    HW163459  10.017  10.480   9.438 -0.4165  2.1978  0.8535
20484SOL    HW263460  10.161  10.496   9.397 -0.7414  0.8612 -0.9477
20485SOL     OW63461   7.672   1.055  10.933 -0.0421  0.1666  0.5178
20485SOL    HW163462   7.714   1.137  10.959  1.0752 -0.2185  0.0409
20485SOL    HW263463   7.736   0.987  10.958  0.1343 -0.3634 -1.2184
20486SOL     OW63464   9.104   5.396   7.444 -0.3759 -0.1928 -0.3062
20486SOL    HW163465   9.164   5.323   7.458 -0.8406 -0.1714  2.2426
20486SOL    HW263466   9.018   5.355   7.435 -0.6870 -0.0138  1.4700
20487SOL     OW63467   3.206   1.444   8.270  0.4036 -0.1418  0.3370
20487SOL    HW163468   3.241   1.484   8.190 -0.3922  0.2528  0.1714
20487SOL    HW263469   3.131   1.499   8.293 -0.2837 -1.1192  0.5171
20488SOL     OW63470   7.749   5.560   8.750  0.2634  0.2748 -0.0103
20488SOL    HW163471   7.791   5.646   8.753  0.9543  0.1141 -2.9343
20488SOL    HW263472   7.813   5.503   8.708 -0.8724 -1.2870  0.2824
20489SOL     OW63473   2.036   1.262   0.889 -0.0930 -0.1813  0.3540
20489SOL    HW163474   2.071   1.274   0.977  0.3664  2.5816 -0.0945
20489SOL    HW263475   2.113   1.257   0.832 -0.3481  1.1121 -0.1517
20490SOL     OW63476   5.556   4.099   0.240 -0.0684 -0.0756 -0.1602
20490SOL    HW163477   5.563   4.177   0.295 -0.2151  0.6937 -1.1924
20490SOL    HW263478   5.647   4.078   0.218 -0.0194 -0.2836  0.2382
20491SOL     OW63479   0.469   4.148   1.633 -0.2323  0.1289  0.0561
20491SOL    HW163480   0.523   4.124   1.557 -1.2770 -0.5885 -0.4906
20491SOL    HW263481   0.500   4.092   1.704 -0.6141 -0.6963 -0.4081
20492SOL     OW63482   0.079   1.427   0.386  0.4166  0.5524 -0.0269
20492SOL    HW163483   0.055   1.380   0.466  0.0846  1.6296  0.5299
20492SOL    HW263484   0.053   1.368   0.315  0.9254 -0.5186  0.6445
20493SOL     OW63485   8.644   0.778   3.016  0.2620  0.1006  0.2141
20493SOL    HW163486   8.627   0.687   3.043  0.4682  0.2727  0.9308
20493SOL    HW263487   8.713   0.808   3.075  0.4206  0.6237 -0.2370
20494SOL     OW63488  10.321   4.395   3.366  0.5709  0.2493  0.0037
20494SOL    HW163489  10.320   4.402   3.270 -1.3409 -0.6581 -0.0936
20494SOL    HW263490  10.267   4.468   3.396 -0.8814 -0.8663  0.2108
20495SOL     OW63491   6.879   6.268   3.534  0.5048  0.3315  0.1279
20495SOL    HW163492   6.792   6.300   3.556  0.3506 -1.8241  3.4036
20495SOL    HW263493   6.936   6.344   3.549 -0.7614  2.4265 -4.1146
20496SOL     OW63494   0.958   4.349   2.250  0.7337 -0.4422 -0.2194
20496SOL    HW163495   0.913   4.316   2.328  1.2678 -1.5297 -0.3469
20496SOL    HW263496   0.887   4.374   2.190  0.3130 -0.5682  0.2192
20497SOL     OW63497   1.476   0.806   5.558  0.9307 -0.1114 -0.3374
20497SOL    HW163498   1.395   0.797   5.509 -0.5066  0.7320  1.7459
20497SOL    HW263499   1.481   0.899   5.580  0.8963 -0.6065  2.0245
20498SOL     OW63500   0.296   8.015   1.829 -0.2530  0.2776  0.4331
20498SOL    HW163501   0.220   8.065   1.856 -1.0001  2.1025 -4.1428
20498SOL    HW263502   0.362   8.081   1.807  0.5977 -0.9843 -1.0083
20499SOL     OW63503   2.080   2.405   7.340 -0.8044  0.5133 -0.4450
20499SOL    HW163504   2.016   2.334   7.336 -0.8551  0.5452 -0.2151
20499SOL    HW263505   2.105   2.410   7.432  1.1121 -0.8917 -0.8192
20500SOL     OW63506   6.224   2.337   1.622  0.0148  0.2424 -0.1370
20500SOL    HW163507   6.139   2.306   1.590 -0.3906  0.9452  0.2360
20500SOL    HW263508   6.237   2.422   1.579  0.6826  0.0024 -0.4325
20501SOL     OW63509   5.424   4.649   2.325 -0.0042  0.2709 -0.0656
20501SOL    HW163510   5.460   4.627   2.239  0.6089  2.3023 -0.3776
20501SOL    HW263511   5.355   4.712   2.306 -0.2678  0.2816  0.8963
20502SOL     OW63512   2.742   4.110   0.393  0.3814 -0.2604  0.8245
20502SOL    HW163513   2.725   4.044   0.326  1.0337 -0.7143  1.1030
20502SOL    HW263514   2.693   4.187   0.364 -0.6183 -0.9484  0.6389
20503SOL     OW63515   8.927   7.012   2.296  0.2627 -0.3669  0.3199
20503SOL    HW163516   8.905   6.951   2.226  0.5531 -0.5045  0.3453
20503SOL    HW263517   8.925   6.959   2.376  0.6478 -0.3791  0.3259
20504SOL     OW63518   2.490   1.910   1.894  0.4220  0.4357 -0.1507
20504SOL    HW163519   2.582   1.896   1.915  0.0940  0.4484  1.4023
20504SOL    HW263520   2.476   2.003   1.910  0.3643  0.6730 -1.4216
20505SOL     OW63521  10.747   6.177   6.504 -0.0419  0.7566 -0.0346
20505SOL    HW163522  10.727   6.089   6.473  0.2202  0.1008  1.5665
20505SOL    HW263523  10.664   6.224   6.497 -0.5793 -0.0789  0.5527
20506SOL     OW63524   5.927   0.883   4.188 -0.0773  0.0095 -0.6891
20506SOL    HW163525   5.865   0.897   4.116 -0.6948 -0.6608 -0.2938
20506SOL    HW263526   6.010   0.863   4.144 -0.4047 -0.2244 -1.2115
20507SOL     OW63527  10.719   0.376   3.992 -0.1582  0.1815  0.2178
20507SOL    HW163528  10.709   0.317   4.067 -0.2223 -1.3297 -0.9240
20507SOL    HW263529  10.650   0.441   4.003 -1.5110 -1.2381  0.3993
20508SOL     OW63530   5.418   3.992   0.912 -0.5139  0.6802 -0.0531
20508SOL    HW163531   5.453   3.907   0.888 -0.9503  0.8968 -1.5898
20508SOL    HW263532   5.489   4.054   0.893 -0.9973  0.8983 -1.2721
20509SOL     OW63533   8.823   0.049   5.485 -0.1629  0.1357 -0.3367
20509SOL    HW163534   8.731   0.069   5.469 -0.1720  0.0833 -0.3506
20509SOL    HW263535   8.863   0.134   5.504 -0.7350 -0.0998  2.3342
20510SOL     OW63536   6.576   7.242   9.223 -0.0419  0.5642  0.7466
20510SOL    HW163537   6.541   7.242   9.134 -0.5691  0.0705  0.9455
20510SOL    HW263538   6.533   7.315   9.266  1.1845  1.6193  0.2420
20511SOL     OW63539   4.778   4.729   6.195 -0.4815 -0.1087 -0.1876
20511SOL    HW163540   4.729   4.772   6.125  0.2828  0.3369 -0.4582
20511SOL    HW263541   4.861   4.706   6.155  0.5285  1.4058  0.9415
20512SOL     OW63542   6.865   7.007   7.081 -0.3023  0.1713  0.2393
20512SOL    HW163543   6.899   6.924   7.115 -3.8207 -1.5098  0.1036
20512SOL    HW263544   6.882   7.003   6.986  0.4938  0.1637  0.3711
20513SOL     OW63545   3.637   5.161   0.475  0.4617  0.2013 -0.5541
20513SOL    HW163546   3.551   5.189   0.507  0.8810 -0.0224  0.8050
20513SOL    HW263547   3.671   5.238   0.428 -0.6856  0.1159 -1.5951
20514SOL     OW63548   5.134  10.011   1.909  0.3279  0.1159  0.1733
20514SOL    HW163549   5.191   9.999   1.834  1.2864  0.2064  0.8637
20514SOL    HW263550   5.063   9.949   1.895  2.2689 -2.4531  0.8746
20515SOL     OW63551   5.536   0.839   7.263  0.0039  0.5948  0.3865
20515SOL    HW163552   5.447   0.846   7.229  0.3592  0.5694 -0.5792
20515SOL    HW263553   5.569   0.929   7.263  0.2163  0.5199  0.0603
20516SOL     OW63554   2.816   4.934   9.666 -0.3195  0.4802  0.3895
20516SOL    HW163555   2.876   5.006   9.682 -1.0039  1.0945  0.2419
20516SOL    HW263556   2.870   4.865   9.628  0.3346  0.9247  0.5057
20517SOL     OW63557   7.968   9.155   7.658  0.1291 -0.5032 -0.4175
20517SOL    HW163558   7.953   9.100   7.580  0.4756 -0.3730 -0.5811
20517SOL    HW263559   7.881   9.180   7.687 -0.1048 -2.1834  0.4125
20518SOL     OW63560   2.286   3.173   6.046  0.9006  0.4669  0.2271
20518SOL    HW163561   2.331   3.090   6.037  1.2993  0.6412  0.6041
20518SOL    HW263562   2.232   3.180   5.967 -0.6919 -1.0921  1.1140
20519SOL     OW63563  10.930  10.647   6.069  1.0380  0.5875 -0.2204
20519SOL    HW163564  10.951  10.648   6.163  0.3405  0.6237 -0.0650
20519SOL    HW263565  10.972  10.568   6.036 -1.8470 -1.5620  0.8523
20520SOL     OW63566   5.513   7.792   3.411  0.6808 -0.3281  0.1788
20520SOL    HW163567   5.471   7.782   3.496 -0.0273  0.2359 -0.0973
20520SOL    HW263568   5.607   7.796   3.431  0.7053 -2.5094  0.7166
20521SOL     OW63569   1.570   8.900   4.883  0.0683 -0.1447  0.1506
20521SOL    HW163570   1.544   8.978   4.835  2.0072 -0.0369 -0.8222
20521SOL    HW263571   1.518   8.903   4.964 -0.0997  2.0066  0.0163
20522SOL     OW63572   2.709   6.889   2.076 -0.2379  0.1220 -0.2211
20522SOL    HW163573   2.644   6.944   2.119 -0.8703 -1.6236  1.2285
20522SOL    HW263574   2.665   6.855   1.999 -1.2297 -1.2691  0.9017
20523SOL     OW63575   9.787   5.587  10.702 -0.4364  0.1832  0.5639
20523SOL    HW163576   9.699   5.597  10.666 -0.8916  1.8711  2.0275
20523SOL    HW263577   9.774   5.545  10.787  0.4005 -1.4481 -0.0585
20524SOL     OW63578   5.293   8.537   4.299  0.2374 -0.4993 -0.0284
20524SOL    HW163579   5.377   8.501   4.329  0.1911  0.4209  1.2481
20524SOL    HW263580   5.314   8.579   4.216  1.3088  0.7232  0.8203
20525SOL     OW63581   6.846   2.679   9.827 -0.3428 -0.2537 -0.3129
20525SOL    HW163582   6.831   2.713   9.916  0.4151  0.9905 -0.6388
20525SOL    HW263583   6.817   2.750   9.770 -0.8335 -1.0513 -1.0747
20526SOL     OW63584   1.228   6.534   1.727  0.2873  0.1585 -0.5380
20526SOL    HW163585   1.209   6.626   1.712  0.4544 -0.0021 -1.8489
20526SOL    HW263586   1.143   6.490   1.718 -0.1001  0.3301  1.7064
20527SOL     OW63587   1.809   9.542   3.703 -0.1615 -0.3476 -0.1241
20527SOL    HW163588   1.744   9.540   3.773  0.5695  1.5659  0.7032
20527SOL    HW263589   1.774   9.606   3.641  1.1875  1.2545  0.6852
20528SOL     OW63590   7.320   9.044   1.515  1.0039 -0.4784  0.0989
20528SOL    HW163591   7.309   9.040   1.420 -1.6240 -0.6881  0.3396
20528SOL    HW263592   7.332   8.953   1.541  0.0359 -0.6143  0.1013
20529SOL     OW63593   3.916  10.900  10.498  0.0719 -0.7658 -0.0994
20529SOL    HW163594   3.989  10.920  10.438  0.2813  0.5266  0.5474
20529SOL    HW263595   3.943  10.820  10.542  0.0497 -1.5751 -1.4987
20530SOL     OW63596   7.253   6.122   5.045  0.6419  0.3247  0.5009
20530SOL    HW163597   7.323   6.075   5.091  0.9539 -0.0218 -0.3186
20530SOL    HW263598   7.174   6.073   5.067  0.6871  0.5466  1.1920
20531SOL     OW63599   6.686   7.184   5.279  0.0151 -0.1348  0.3859
20531SOL    HW163600   6.767   7.134   5.289  0.0514 -0.8185 -2.3986
20531SOL    HW263601   6.616   7.121   5.293 -0.1425  0.5753  3.3419
20532SOL     OW63602   2.011   1.094   4.933  0.3292  0.0249  0.6873
20532SOL    HW163603   1.918   1.078   4.921  0.2746 -0.5489  1.7908
20532SOL    HW263604   2.054   1.030   4.876  0.0516 -1.1266  1.7261
20533SOL     OW63605   4.368   0.670   5.088  0.0851  0.2037 -0.4557
20533SOL    HW163606   4.427   0.724   5.035  1.4635 -0.1813  0.6214
20533SOL    HW263607   4.389   0.694   5.178 -0.7614 -0.6337 -0.0239
20534SOL     OW63608   6.622   2.493   3.776  0.3218 -1.1420  0.2249
20534SOL    HW163609   6.531   2.472   3.754  0.9598 -2.1086 -1.6605
20534SOL    HW263610   6.621   2.505   3.871 -1.9912  0.0951  0.1190
20535SOL     OW63611   8.283   3.237   8.740 -0.0840  0.3292 -0.3861
20535SOL    HW163612   8.329   3.322   8.738 -1.4646  1.0911 -0.7697
20535SOL    HW263613   8.266   3.217   8.648 -0.9974  0.3274 -0.2196
20536SOL     OW63614   4.990   6.940   1.840  0.7472  0.1726 -0.3104
20536SOL    HW163615   4.926   6.879   1.802  2.2791 -0.0900 -2.6299
20536SOL    HW263616   5.050   6.884   1.889 -0.2749  0.3318  1.1720
20537SOL     OW63617   9.444   5.684   9.634 -0.1724 -0.1116 -0.5204
20537SOL    HW163618   9.454   5.777   9.614 -0.7004 -0.0302 -0.4154
20537SOL    HW263619   9.377   5.681   9.702 -0.9282 -0.6356 -1.2546
20538SOL     OW63620  10.449  10.809   6.443 -0.0721  0.2472 -0.3154
20538SOL    HW163621  10.523  10.857   6.480  0.1103 -0.7585  0.6754
20538SOL    HW263622  10.442  10.842   6.353  1.2814  0.6927 -0.2823
20539SOL     OW63623   9.050   2.191   3.942 -0.1969  0.6776  0.2474
20539SOL    HW163624   9.084   2.181   3.853 -1.3188 -0.1891 -0.1073
20539SOL    HW263625   8.955   2.185   3.932 -0.3287  0.2445  1.5450
20540SOL     OW63626   9.490   4.752   7.144 -0.0623 -0.2559 -0.2584
20540SOL    HW163627   9.458   4.665   7.172  0.3543 -0.0127  1.0443
20540SOL    HW263628   9.582   4.752   7.168  0.5209 -0.2652 -2.3396
20541SOL     OW63629   8.945   8.237   3.608  0.0641 -0.1743  0.1056
20541SOL    HW163630   8.912   8.299   3.543  0.2924 -0.6175 -0.4440
20541SOL    HW263631   8.983   8.166   3.556 -0.7106 -1.0650  0.7218
20542SOL     OW63632   8.297   1.909   5.916 -0.4479 -0.0472 -0.5910
20542SOL    HW163633   8.278   1.885   6.006  0.2074 -1.1952 -0.7447
20542SOL    HW263634   8.322   2.002   5.921 -0.1098 -0.1814  0.4384
20543SOL     OW63635   7.152  10.697   9.046  0.3459 -0.6365 -0.5226
20543SOL    HW163636   7.096  10.761   9.002  1.2020 -0.7060 -1.7537
20543SOL    HW263637   7.183  10.742   9.124  1.2841  0.6486 -1.5817
20544SOL     OW63638   6.633   7.311   0.089  0.0799  0.0576  0.5368
20544SOL    HW163639   6.551   7.344   0.052  0.4770  1.6270  1.0110
20544SOL    HW263640   6.617   7.217   0.100 -0.5637 -0.2511 -2.2229
20545SOL     OW63641   1.858   1.102   8.480  0.5363 -0.5183  0.0082
20545SOL    HW163642   1.807   1.093   8.561  0.7933 -2.6818 -0.0052
20545SOL    HW263643   1.795   1.088   8.410  0.9847 -2.8693 -0.0155
20546SOL     OW63644   2.686   6.745   8.765 -0.4382 -0.1291  0.3455
20546SOL    HW163645   2.699   6.831   8.806  0.1982 -0.0510  0.0011
20546SOL    HW263646   2.741   6.685   8.815 -0.1110 -0.1433 -0.0230
20547SOL     OW63647   7.654   5.098   1.978  0.0938  0.1126 -0.4177
20547SOL    HW163648   7.578   5.100   2.036 -0.0022 -0.0491 -0.5363
20547SOL    HW263649   7.704   5.177   2.001 -0.5226  0.6506 -0.8940
20548SOL     OW63650   3.264   3.057   6.970 -0.3280  0.0295 -0.2762
20548SOL    HW163651   3.292   3.149   6.967  1.0491 -0.3979 -1.3081
20548SOL    HW263652   3.313   3.020   7.043  1.6024 -0.6104 -1.8083
20549SOL     OW63653   6.385  10.250   8.080 -0.2619 -0.2091 -0.0067
20549SOL    HW163654   6.368  10.262   8.173  1.4705 -1.3396  0.5074
20549SOL    HW263655   6.474  10.285   8.067 -0.3841 -0.2905 -1.1888
20550SOL     OW63656   3.995   4.521   6.908  0.2443  0.1730  0.0802
20550SOL    HW163657   3.948   4.443   6.879  1.7421 -0.7266 -0.0535
20550SOL    HW263658   3.928   4.578   6.945 -1.1376 -0.4045 -1.4332
20551SOL     OW63659   2.348   2.357   5.893 -0.0222  0.1504 -0.0405
20551SOL    HW163660   2.308   2.352   5.806 -0.7727  1.8625  0.1622
20551SOL    HW263661   2.275   2.377   5.952  0.6895  0.3826  0.7826
20552SOL     OW63662   9.273   0.660   2.284  0.0878  0.6428 -0.7003
20552SOL    HW163663   9.283   0.752   2.259  0.1005  0.8992  0.2129
20552SOL    HW263664   9.351   0.641   2.336 -0.7222  0.6020  0.5291
20553SOL     OW63665   0.106  10.207   2.762  0.2497  0.2975  0.3445
20553SOL    HW163666   0.108  10.213   2.857 -1.3626 -0.8268  0.4913
20553SOL    HW263667   0.013  10.215   2.740  0.2902 -1.9774 -0.9148
20554SOL     OW63668   9.050   2.689  10.551  0.4043  0.0111  0.1368
20554SOL    HW163669   9.123   2.749  10.536 -0.8626  1.2526 -1.4859
20554SOL    HW263670   8.974   2.747  10.561 -1.1024 -1.2570 -2.7679
20555SOL     OW63671   6.468   2.953   1.274 -0.4054  0.5334 -0.3849
20555SOL    HW163672   6.457   3.000   1.357 -0.6435  0.8787 -0.6100
20555SOL    HW263673   6.554   2.980   1.242 -0.2531  0.2929 -0.1863
20556SOL     OW63674   4.123   6.633   4.969  0.5240  0.2155 -0.7682
20556SOL    HW163675   4.189   6.694   5.003 -0.2922  0.3505  0.6576
20556SOL    HW263676   4.127   6.645   4.874 -0.2431  3.2390 -0.5405
20557SOL     OW63677  10.494   8.705   3.179  0.7656 -0.0620 -0.3874
20557SOL    HW163678  10.468   8.664   3.096  1.1415 -1.2109  0.0444
20557SOL    HW263679  10.572   8.755   3.157 -1.0790  2.6148 -1.4818
20558SOL     OW63680   0.086   5.441   0.027  0.0935  0.2480  0.4758
20558SOL    HW163681   0.122   5.517  -0.019  1.1315  0.2795  1.3322
20558SOL    HW263682   0.137   5.434   0.108 -1.2402 -0.2261  1.3131
20559SOL     OW63683   9.047   9.479   0.186 -0.0814 -0.6967 -0.3408
20559SOL    HW163684   8.957   9.506   0.168 -0.7239 -2.0107  0.7274
20559SOL    HW263685   9.081   9.544   0.247 -0.1719 -0.0073 -1.0130
20560SOL     OW63686   6.802   8.387   3.286 -0.2010  0.0872 -0.3329
20560SOL    HW163687   6.803   8.483   3.285 -0.5723  0.1441  1.3500
20560SOL    HW263688   6.729   8.363   3.228 -1.5822  0.9362  0.9635
20561SOL     OW63689  10.683   1.171  10.444 -0.1242 -0.6692 -0.8071
20561SOL    HW163690  10.683   1.098  10.381 -0.8052 -1.0438 -0.3822
20561SOL    HW263691  10.629   1.238  10.402 -1.2493 -1.2237 -0.3011
20562SOL     OW63692   3.833   1.587  10.870  0.4406 -0.8334 -0.4412
20562SOL    HW163693   3.760   1.550  10.820 -0.7791  0.1924  0.4909
20562SOL    HW263694   3.846   1.526  10.943 -1.9051  0.6347  1.3839
20563SOL     OW63695   1.447   9.477  10.839 -0.2797  0.1022 -0.3179
20563SOL    HW163696   1.415   9.540  10.905  0.0940  1.5570 -1.4664
20563SOL    HW263697   1.498   9.531  10.778  0.0283 -1.3371 -1.3758
20564SOL     OW63698   0.417   7.986   6.290  0.2963  0.3298 -0.1127
20564SOL    HW163699   0.428   7.968   6.197  1.5997 -1.1389  0.2702
20564SOL    HW263700   0.497   7.952   6.331  0.1115  1.6332  1.4674
20565SOL     OW63701   7.614   0.491   3.059 -0.4161  0.4179 -0.2342
20565SOL    HW163702   7.673   0.472   2.987  1.4416 -0.0087  1.3259
20565SOL    HW263703   7.667   0.537   3.123 -2.0760  1.0458  0.7711
20566SOL     OW63704   3.625   5.318   6.115 -0.4010 -0.7602 -0.9059
20566SOL    HW163705   3.568   5.267   6.056 -0.8896  0.7426 -1.7754
20566SOL    HW263706   3.614   5.275   6.200 -0.0920 -2.6559 -1.7496
20567SOL     OW63707   7.476   7.973   5.305  0.9226 -0.0340 -0.0310
20567SOL    HW163708   7.442   8.035   5.241  0.3804  0.6499  0.9098
20567SOL    HW263709   7.440   7.888   5.278  0.8975  0.2074 -0.7631
20568SOL     OW63710  10.621   5.159   3.733 -0.3383  0.2156 -0.5562
20568SOL    HW163711  10.543   5.150   3.787  0.3974  1.0563  0.7060
20568SOL    HW263712  10.690   5.186   3.794  0.4995  1.3628 -1.9341
20569SOL     OW63713   9.541  10.704   1.388  0.2936 -0.5081  0.0276
20569SOL    HW163714   9.567  10.685   1.298 -0.7491  0.1256 -0.4336
20569SOL    HW263715   9.446  10.689   1.389  0.5700 -2.6659  1.6063
20570SOL     OW63716   1.420  10.881   6.487  0.2903 -0.0963  0.0313
20570SOL    HW163717   1.346  10.941   6.478 -0.5910 -1.2696 -0.7023
20570SOL    HW263718   1.415  10.849   6.577  0.8423  0.9955  0.4711
20571SOL     OW63719   0.938   0.913   8.144  0.0487 -0.4429  0.1297
20571SOL    HW163720   0.940   0.990   8.200  0.9099 -0.6102  0.3315
20571SOL    HW263721   0.930   0.948   8.055 -0.0600 -0.1404  0.2594
20572SOL     OW63722  10.989   0.627  10.757 -0.3653 -0.2110 -0.6968
20572SOL    HW163723  10.903   0.606  10.721 -1.0014 -1.8751  1.5593
20572SOL    HW263724  10.987   0.721  10.770 -2.5325 -0.3966  0.8094
20573SOL     OW63725   7.132   6.097   1.522  0.2642 -0.2614  1.1560
20573SOL    HW163726   7.198   6.101   1.591  0.0110 -1.9379  1.5367
20573SOL    HW263727   7.059   6.149   1.556  1.1695  1.2263  0.9243
20574SOL     OW63728   4.287   1.403   2.503 -0.2391 -0.1850  0.1750
20574SOL    HW163729   4.271   1.334   2.438  0.0576 -0.9587  0.9114
20574SOL    HW263730   4.273   1.485   2.455  0.1969 -0.7374 -0.9208
20575SOL     OW63731   7.545   0.812   5.766  0.0050 -0.0461 -0.2011
20575SOL    HW163732   7.638   0.823   5.747  0.1252  0.3555  0.5768
20575SOL    HW263733   7.541   0.738   5.826 -0.1430  0.1446  0.0268
20576SOL     OW63734   5.380   0.718   5.490 -0.6894 -0.7554  0.3005
20576SOL    HW163735   5.473   0.727   5.512 -1.0074  2.2246  0.9530
20576SOL    HW263736   5.379   0.673   5.406  1.1817 -2.6566  1.1975
20577SOL     OW63737   4.839   9.279   1.203 -0.3034  0.3770 -0.7484
20577SOL    HW163738   4.858   9.190   1.173  1.6706 -0.1857  1.8018
20577SOL    HW263739   4.894   9.335   1.148  1.4310 -0.3922  0.1194
20578SOL     OW63740   1.127   7.131   5.539  0.1299  0.3344  0.6064
20578SOL    HW163741   1.183   7.054   5.540 -0.2422  0.0591  0.3609
20578SOL    HW263742   1.108   7.147   5.447 -1.2395 -0.3469  0.7449
20579SOL     OW63743   9.730  10.212   6.376 -0.3430 -0.0326  0.5396
20579SOL    HW163744   9.758  10.177   6.461  0.1413  0.8989  0.7812
20579SOL    HW263745   9.650  10.260   6.394  0.4763  1.2983  0.7368
20580SOL     OW63746   9.968   0.086  10.828 -1.0041  0.5228 -0.2260
20580SOL    HW163747   9.914   0.160  10.856 -2.3950  0.0444 -1.5335
20580SOL    HW263748  10.015   0.118  10.751  1.0008  1.0760  1.1460
20581SOL     OW63749   4.312   5.495   4.904  0.8299  0.4650  0.2871
20581SOL    HW163750   4.393   5.473   4.857 -0.1452  0.3163 -1.3930
20581SOL    HW263751   4.267   5.557   4.847  1.9722  4.6640  3.3791
20582SOL     OW63752   5.735   9.144   8.399 -0.1465 -0.5116  0.2320
20582SOL    HW163753   5.711   9.095   8.320  1.1191 -1.7820  0.5841
20582SOL    HW263754   5.716   9.083   8.471 -0.6129  0.3640  0.8620
20583SOL     OW63755   3.560   7.410   4.092  0.4373 -0.1936 -0.2114
20583SOL    HW163756   3.467   7.388   4.097  0.3275 -0.2804 -2.0961
20583SOL    HW263757   3.581   7.407   3.999  2.6211 -1.4006  0.2302
20584SOL     OW63758   7.777   8.971  10.655  0.0336 -0.3459 -0.1805
20584SOL    HW163759   7.777   8.977  10.750  1.7700 -1.3780 -0.0733
20584SOL    HW263760   7.687   8.991  10.629 -1.2672 -2.9228  1.8903
20585SOL     OW63761   3.662   0.842   9.270  0.2039 -0.4592  0.7450
20585SOL    HW163762   3.634   0.926   9.307 -0.6047 -0.6045  0.4742
20585SOL    HW263763   3.758   0.848   9.269  0.2027  0.0057  1.7858
20586SOL     OW63764   2.468   3.584   1.845 -0.1793 -0.0865 -0.8830
20586SOL    HW163765   2.525   3.598   1.921 -2.0609 -1.2526  0.8633
20586SOL    HW263766   2.495   3.499   1.810 -1.1154 -0.8923  0.2710
20587SOL     OW63767   8.171   2.368   9.957  0.4960  0.2684  0.2878
20587SOL    HW163768   8.121   2.405  10.029 -0.0095 -0.0765  0.1157
20587SOL    HW263769   8.223   2.442   9.924 -0.0036  0.6614  0.3769
20588SOL     OW63770   3.907   0.429   0.995  0.3281 -0.2461 -0.2649
20588SOL    HW163771   3.988   0.427   0.944  0.8015  0.5296  0.4220
20588SOL    HW263772   3.872   0.518   0.981 -0.7992 -0.7943 -1.1286
20589SOL     OW63773  10.152   6.607   5.260 -0.1034 -0.1584 -0.0225
20589SOL    HW163774  10.185   6.684   5.306 -1.3698  0.4848 -0.1496
20589SOL    HW263775  10.110   6.554   5.327 -0.5010 -0.0239 -0.1601
20590SOL     OW63776  10.879   9.384   1.885 -0.2632  0.3048  0.4960
20590SOL    HW163777  10.973   9.369   1.880 -0.5411 -1.8619  0.7256
20590SOL    HW263778  10.857   9.424   1.801  0.7500  0.0419  0.0904
20591SOL     OW63779   9.051   8.697   9.384 -0.0178 -0.7442 -0.6941
20591SOL    HW163780   9.009   8.769   9.336 -1.6789 -1.2358 -0.0177
20591SOL    HW263781   9.056   8.625   9.321  1.2248 -0.2253 -1.2291
20592SOL     OW63782   3.218   0.522   8.857  0.0214  0.4261 -0.1621
20592SOL    HW163783   3.218   0.432   8.890  0.8094  0.9386  1.3200
20592SOL    HW263784   3.125   0.542   8.843 -0.2414 -0.2902  0.4731
20593SOL     OW63785   6.872   7.059  10.123  0.0204  0.3790  0.0861
20593SOL    HW163786   6.882   7.146  10.162  0.2064  0.6452 -0.5471
20593SOL    HW263787   6.952   7.045  10.074  0.2941 -0.4493  0.7397
20594SOL     OW63788   8.917   5.085   1.696 -0.3373  0.2770 -0.1781
20594SOL    HW163789   8.975   5.044   1.632 -1.1852 -2.8716  0.9051
20594SOL    HW263790   8.874   5.155   1.647  1.4816  0.1594 -2.0760
20595SOL     OW63791   9.025   3.562   4.011 -0.1918 -0.2211  0.3235
20595SOL    HW163792   8.947   3.618   4.006  1.4965  2.2173 -1.0075
20595SOL    HW263793   9.074   3.595   4.086  0.2771 -0.7222  0.2499
20596SOL     OW63794   7.873   0.227   5.753  0.0981  0.3380 -0.5824
20596SOL    HW163795   7.814   0.162   5.790  0.0793  1.8409  2.3649
20596SOL    HW263796   7.821   0.307   5.748  0.9479  0.8774 -1.2215
20597SOL     OW63797   4.066   1.197   5.276  0.2796  0.2263  0.0027
20597SOL    HW163798   4.067   1.112   5.232 -0.4545 -0.4650  1.2618
20597SOL    HW263799   4.141   1.244   5.239 -0.7224 -0.0139 -2.4910
20598SOL     OW63800   9.467  10.965   6.623 -0.2605  1.0768 -0.0051
20598SOL    HW163801   9.406  10.904   6.582  0.0234  1.2002 -0.6168
20598SOL    HW263802   9.423  10.990   6.705  0.6468 -1.7978  1.5185
20599SOL     OW63803   5.735   4.031   4.472 -0.2292  0.0100  0.2735
20599SOL    HW163804   5.654   4.045   4.424  0.7615 -0.5870 -1.6929
20599SOL    HW263805   5.715   4.056   4.562 -2.1431  1.3466 -0.4685
20600SOL     OW63806   4.060   2.049   2.344  0.2842 -0.2222  0.3001
20600SOL    HW163807   4.007   2.075   2.419 -0.1050 -0.0239 -0.0388
20600SOL    HW263808   4.144   2.092   2.358  1.5259 -3.0294  2.4890
20601SOL     OW63809   1.483   6.582   5.068  0.2020 -0.4334 -0.2001
20601SOL    HW163810   1.548   6.512   5.078 -0.6753 -1.3485 -0.7069
20601SOL    HW263811   1.401   6.536   5.051 -0.7031  0.6768  0.9612
20602SOL     OW63812   8.660   4.469   8.288 -0.1888 -0.3803  0.1748
20602SOL    HW163813   8.692   4.556   8.264  1.6819 -0.0098  3.4286
20602SOL    HW263814   8.616   4.437   8.210  3.3950  1.4185 -2.9046
20603SOL     OW63815   8.229   7.638   8.834  0.6621  0.4186 -0.0431
20603SOL    HW163816   8.324   7.623   8.832  0.9173  1.5205  1.5835
20603SOL    HW263817   8.217   7.720   8.785  0.3441 -0.4962 -1.5316
20604SOL     OW63818   5.974   7.492   3.401  0.2433 -0.5703  0.3026
20604SOL    HW163819   5.968   7.514   3.308 -0.7833  0.6373  0.6255
20604SOL    HW263820   6.025   7.411   3.403  1.5763  0.1642 -1.1944
20605SOL     OW63821   0.821   4.437   0.271 -0.0968  0.2988  0.4096
20605SOL    HW163822   0.867   4.369   0.222  1.6958  0.4705  1.7724
20605SOL    HW263823   0.742   4.453   0.220  1.5011  0.2579 -2.2601
20606SOL     OW63824   8.080   2.764   3.315 -0.4832 -0.2244 -0.5648
20606SOL    HW163825   8.089   2.726   3.402  0.7733 -1.3300 -1.1423
20606SOL    HW263826   8.055   2.855   3.331 -1.0955 -0.6195  0.9146
20607SOL     OW63827  10.307   0.896   4.321 -0.4721  0.1051 -0.5656
20607SOL    HW163828  10.253   0.945   4.259 -1.0419 -1.8228 -1.6804
20607SOL    HW263829  10.245   0.866   4.387 -0.3984 -0.3490 -0.7031
20608SOL     OW63830   2.489   5.387  10.595  0.0582 -0.3750  0.1849
20608SOL    HW163831   2.508   5.451  10.526 -0.3265 -0.1079  0.3233
20608SOL    HW263832   2.400   5.357  10.577  0.5722 -1.5835 -0.4333
20609SOL     OW63833   5.387   1.599   4.454  0.5231 -0.2329 -0.2590
20609SOL    HW163834   5.390   1.517   4.504 -0.3048  0.4165  0.8957
20609SOL    HW263835   5.479   1.621   4.440  0.7810 -0.5391  0.8189
20610SOL     OW63836   0.293   1.991   0.597  0.5921  0.0238 -0.0786
20610SOL    HW163837   0.230   1.921   0.615 -0.6364  1.1420  0.2215
20610SOL    HW263838   0.366   1.973   0.655  0.8792 -1.7049 -0.9368
20611SOL     OW63839   1.017   0.565   7.748  0.0197 -0.5343 -0.0529
20611SOL    HW163840   0.936   0.523   7.718 -0.0058  0.0379 -0.8058
20611SOL    HW263841   1.063   0.496   7.795 -0.8806 -0.8848  0.3420
20612SOL     OW63842   3.772   9.357   5.530  0.2294 -0.0996 -0.1089
20612SOL    HW163843   3.708   9.306   5.482 -1.5172 -0.0394  2.0066
20612SOL    HW263844   3.811   9.295   5.592 -0.4848  0.6223  1.1178
20613SOL     OW63845   2.890   1.298   4.807  0.3675 -0.1591  0.3732
20613SOL    HW163846   2.857   1.217   4.848  1.4970 -1.1498 -0.6058
20613SOL    HW263847   2.977   1.275   4.776  0.5681  1.3521 -0.2489
20614SOL     OW63848   4.951   9.794  10.073 -0.3987  0.3350 -0.1245
20614SOL    HW163849   4.939   9.785  10.168  0.2342  2.4463  0.2101
20614SOL    HW263850   5.045   9.799  10.061 -0.3882 -1.5172 -1.0812
20615SOL     OW63851   4.834   1.520   9.634  0.0956 -0.4351  0.0635
20615SOL    HW163852   4.925   1.550   9.628  0.0798 -0.4850 -0.4402
20615SOL    HW263853   4.784   1.590   9.594 -0.0639 -0.5478  0.0675
20616SOL     OW63854   4.029   6.274   5.400 -0.2212  0.1139  0.4689
20616SOL    HW163855   3.975   6.303   5.475 -0.3539 -0.1546  0.4771
20616SOL    HW263856   3.990   6.191   5.374 -0.3343  0.3335 -0.0651
20617SOL     OW63857   7.384   4.631   8.218  0.2344  0.6354 -0.7675
20617SOL    HW163858   7.321   4.635   8.145 -1.8577  0.5663  0.9235
20617SOL    HW263859   7.392   4.722   8.247 -0.0105  0.4932 -0.2447
20618SOL     OW63860   5.293  10.014   8.061  0.5087 -0.2246 -0.5264
20618SOL    HW163861   5.299  10.078   8.132 -1.2366 -1.7312  1.0793
20618SOL    HW263862   5.366   9.954   8.077  0.2704 -0.4157 -0.1424
20619SOL     OW63863   3.028   1.031   2.449  0.5594  0.6783  0.1192
20619SOL    HW163864   3.071   0.953   2.414  1.1094  1.3823 -0.8347
20619SOL    HW263865   2.959   0.997   2.507  1.0036 -0.4960 -0.0144
20620SOL     OW63866   6.093   6.103   8.468 -0.0203 -0.9062 -0.1170
20620SOL    HW163867   6.124   6.190   8.491 -2.5998 -0.0117  0.3791
20620SOL    HW263868   6.074   6.061   8.552 -1.5795 -0.7920 -0.3857
20621SOL     OW63869   9.016   8.553   8.854  0.0228 -0.4842 -0.1727
20621SOL    HW163870   8.976   8.469   8.833  0.9366 -0.4775 -2.1403
20621SOL    HW263871   9.072   8.573   8.779  0.1675  1.6847  0.4309
20622SOL     OW63872   0.795   9.172   9.903  0.3361  0.6500 -0.3510
20622SOL    HW163873   0.841   9.088   9.909 -0.0816  0.4223 -0.2914
20622SOL    HW263874   0.723   9.164   9.965  0.4177  1.1355 -0.1917
20623SOL     OW63875   0.830   8.099   5.643  0.6627  0.1245 -0.6816
20623SOL    HW163876   0.902   8.162   5.634 -0.2863  1.4330  0.4676
20623SOL    HW263877   0.841   8.064   5.732 -0.3758  0.6926 -0.3169
20624SOL     OW63878   7.065   0.654   0.483  0.3382 -0.6548 -0.0868
20624SOL    HW163879   7.108   0.692   0.560  1.5586  0.3971 -1.2425
20624SOL    HW263880   7.113   0.690   0.409  0.2079 -2.8722 -1.3260
20625SOL     OW63881   0.679   4.429   0.673  0.8797 -0.0551  0.2069
20625SOL    HW163882   0.617   4.438   0.745 -0.0201 -0.8606 -0.4400
20625SOL    HW263883   0.629   4.454   0.595  0.9383 -1.9847 -0.5005
20626SOL     OW63884   9.957   9.539   1.466 -0.1226 -0.0614 -0.3228
20626SOL    HW163885   9.862   9.528   1.479 -0.0354  0.0110  0.4553
20626SOL    HW263886   9.974   9.630   1.492  0.1487 -0.0508 -0.5383
20627SOL     OW63887   4.912   7.577   8.628  0.2686 -0.7718 -0.4982
20627SOL    HW163888   4.857   7.568   8.551 -0.2046  0.5858 -0.3415
20627SOL    HW263889   4.901   7.495   8.676 -2.9642  0.0480  0.3880
20628SOL     OW63890   5.562  10.885   6.332  0.0987  0.0078  0.6591
20628SOL    HW163891   5.655  10.904   6.345  0.8799 -0.5967 -2.9304
20628SOL    HW263892   5.522  10.971   6.313  0.5023 -0.0161 -0.3691
20629SOL     OW63893   5.168   5.606   0.770 -0.1122 -0.0641 -0.2155
20629SOL    HW163894   5.152   5.573   0.858  0.4445  1.9659  0.6917
20629SOL    HW263895   5.081   5.619   0.732 -0.3516 -0.7988  0.0546
20630SOL     OW63896   6.884   4.664   5.115  0.1160  0.0488  0.0847
20630SOL    HW163897   6.850   4.750   5.090 -0.1075  0.1163  0.6226
20630SOL    HW263898   6.861   4.654   5.207  0.6711 -0.3313  0.1904
20631SOL     OW63899   9.902   4.281   1.640 -0.0674 -0.1939  0.3535
20631SOL    HW163900   9.973   4.255   1.581 -0.1150  3.7957 -1.8737
20631SOL    HW263901   9.936   4.357   1.687 -1.6358 -0.5183  2.1544
20632SOL     OW63902   6.870   0.257   0.092 -0.5499 -0.2737  0.1345
20632SOL    HW163903   6.949   0.266   0.041  0.3368 -1.7495  1.1422
20632SOL    HW263904   6.836   0.170   0.068  1.3756 -2.3033  3.7878
20633SOL     OW63905   1.531   3.313   7.119 -0.0204 -0.0086  0.2880
20633SOL    HW163906   1.506   3.235   7.168  2.3142  0.3322  2.1638
20633SOL    HW263907   1.589   3.281   7.050  0.4888  0.0123  0.7074
20634SOL     OW63908   6.503   1.057   9.912 -0.3029  0.0990 -0.2281
20634SOL    HW163909   6.557   0.982   9.885  0.4909  0.2643  0.8394
20634SOL    HW263910   6.418   1.018   9.934  0.1069 -0.5026  0.3405
20635SOL     OW63911   2.972   6.840   8.167 -0.3376 -0.1541 -0.6924
20635SOL    HW163912   2.944   6.749   8.157 -0.1162 -0.4152  0.7048
20635SOL    HW263913   3.066   6.838   8.147 -0.6260  0.0661 -2.1086
20636SOL     OW63914   7.329   3.726   9.276  0.3398  0.0442  0.0659
20636SOL    HW163915   7.310   3.647   9.328 -1.1727 -0.6009 -1.3746
20636SOL    HW263916   7.421   3.745   9.294  0.0516 -0.4940  2.4683
20637SOL     OW63917  10.249   9.955   0.068  0.0083 -0.3048  0.2487
20637SOL    HW163918  10.226  10.029   0.125  2.4849  0.4228  0.4103
20637SOL    HW263919  10.321   9.912   0.113  0.0902 -1.4899 -0.9674
20638SOL     OW63920   7.172   1.132   6.863 -0.6509 -0.0748  0.2810
20638SOL    HW163921   7.242   1.183   6.823 -1.3516 -0.0892 -1.0076
20638SOL    HW263922   7.181   1.148   6.957  1.7119 -0.8813  0.2461
20639SOL     OW63923   4.299   8.136   3.077  0.2443 -0.1740  0.2835
20639SOL    HW163924   4.323   8.114   2.987  3.0279 -0.3613  0.9768
20639SOL    HW263925   4.317   8.057   3.127 -5.9599 -1.9348  0.5646
20640SOL     OW63926  10.598   6.781   6.786 -0.3111 -0.4733  0.4276
20640SOL    HW163927  10.539   6.844   6.746 -0.9662 -1.7256 -0.6594
20640SOL    HW263928  10.556   6.757   6.869  0.1466  0.7734  1.0486
20641SOL     OW63929   3.025   1.826   1.906 -0.3000  0.3475 -0.3826
20641SOL    HW163930   3.082   1.887   1.953 -0.4927 -0.7823  1.4065
20641SOL    HW263931   3.066   1.817   1.820  2.9750 -1.2434  1.1406
20642SOL     OW63932   7.274   1.511   1.228 -0.1124 -0.0233  0.3017
20642SOL    HW163933   7.311   1.494   1.314 -0.9301  1.4760  0.9942
20642SOL    HW263934   7.261   1.606   1.225 -1.7563 -0.2259 -0.7585
20643SOL     OW63935   8.790   1.733   7.827  0.0161 -0.5143  0.1276
20643SOL    HW163936   8.805   1.646   7.864 -0.1241 -2.0847 -3.1159
20643SOL    HW263937   8.847   1.735   7.750  0.0980  2.3740  0.1794
20644SOL     OW63938   8.015   2.374   7.557  0.6319 -0.1170 -0.1687
20644SOL    HW163939   7.946   2.331   7.506 -1.8085  3.3349 -0.1802
20644SOL    HW263940   7.978   2.381   7.645 -0.1979  3.6865 -0.6471
20645SOL     OW63941   5.322   7.627  10.892 -0.2697 -0.2263  0.0244
20645SOL    HW163942   5.248   7.659  10.841 -1.3996 -4.3012 -1.2410
20645SOL    HW263943   5.310   7.666  10.978 -2.5922  1.0129 -0.7694
20646SOL     OW63944   1.418   7.001   1.092  0.3064 -0.9793  0.5450
20646SOL    HW163945   1.404   6.949   1.172 -0.8542 -0.1428  0.9136
20646SOL    HW263946   1.512   6.996   1.076  0.7927 -0.0513  2.7605
20647SOL     OW63947   9.502   9.711   6.286 -0.2271 -0.3261 -0.1019
20647SOL    HW163948   9.476   9.796   6.251  0.1731  0.1329  0.6873
20647SOL    HW263949   9.431   9.652   6.260 -1.4565  0.6315  0.9368
20648SOL     OW63950   5.375  11.002   3.696 -0.3039  0.2937 -0.1233
20648SOL    HW163951   5.465  11.007   3.664  0.0357  3.9584  0.9425
20648SOL    HW263952   5.354  10.908   3.695  2.7602 -0.5182 -2.3170
20649SOL     OW63953   9.776   2.006   0.526 -0.4666 -0.7368  0.1920
20649SOL    HW163954   9.822   2.088   0.512  0.2603 -1.0772  0.5889
20649SOL    HW263955   9.751   1.978   0.437  0.5111 -0.7931 -0.0771
20650SOL     OW63956   2.017   2.631   7.048 -0.0649  0.2530  0.1761
20650SOL    HW163957   1.955   2.576   7.096  0.4661 -1.6958 -1.1984
20650SOL    HW263958   2.089   2.645   7.109 -0.8190  0.6032  1.0117
20651SOL     OW63959   1.352   1.726   0.689 -0.0955 -0.5476  0.5037
20651SOL    HW163960   1.271   1.680   0.669  1.4898 -2.5456 -1.9747
20651SOL    HW263961   1.385   1.683   0.768 -0.4266 -1.1644  0.3135
20652SOL     OW63962   0.888   9.839   4.669 -0.4520 -0.0228  0.0385
20652SOL    HW163963   0.803   9.799   4.689 -0.1030 -0.9045 -0.1889
20652SOL    HW263964   0.947   9.808   4.737 -0.0323 -0.3853 -0.4787
20653SOL     OW63965   0.523   8.344   8.559  0.1734 -0.4961 -0.1830
20653SOL    HW163966   0.615   8.337   8.587  0.0360 -0.6698  0.2255
20653SOL    HW263967   0.527   8.399   8.480  0.4522  0.9928  0.8244
20654SOL     OW63968  10.824   0.885   8.212  0.1729  0.1939  0.2391
20654SOL    HW163969  10.797   0.976   8.203  1.2819  0.5987  0.8977
20654SOL    HW263970  10.750   0.835   8.178 -0.3633  1.3390 -0.3305
20655SOL     OW63971   8.342   5.883   7.819  0.4742  0.9651  0.7422
20655SOL    HW163972   8.249   5.869   7.834  0.3847  0.6904 -0.0522
20655SOL    HW263973   8.384   5.805   7.858  0.2525  0.3449 -0.2197
20656SOL     OW63974   5.715   7.855   4.889 -0.0421 -0.0381 -0.2736
20656SOL    HW163975   5.763   7.775   4.870 -1.1541 -1.0885  1.0615
20656SOL    HW263976   5.642   7.855   4.827  0.5171  0.5029 -0.9515
20657SOL     OW63977   7.147   5.985   1.913 -0.1184  0.1757  0.3808
20657SOL    HW163978   7.124   5.922   1.981  0.6965 -0.1962  0.3190
20657SOL    HW263979   7.141   5.936   1.831 -1.8628  0.8265  0.0922
20658SOL     OW63980   2.882   0.365   4.259 -0.4205  0.4855 -0.0954
20658SOL    HW163981   2.854   0.422   4.188  0.4693  1.6460  0.4524
20658SOL    HW263982   2.964   0.326   4.229  0.2287  1.3775  0.4736
20659SOL     OW63983   9.080   6.125   8.950 -0.0170 -0.5339  0.0414
20659SOL    HW163984   9.067   6.088   8.863  0.4945 -0.3931 -0.1023
20659SOL    HW263985   9.152   6.187   8.938 -0.1928 -0.2431  0.4886
20660SOL     OW63986  10.209   0.365   0.749  0.0598 -0.2084  0.5143
20660SOL    HW163987  10.275   0.387   0.683 -0.4239  1.4077  0.5189
20660SOL    HW263988  10.244   0.401   0.831 -0.8735  0.8346  0.4823
20661SOL     OW63989   4.954   8.860   8.878 -0.1156 -0.7197 -0.0262
20661SOL    HW163990   5.036   8.909   8.863 -0.3232 -0.8189 -1.5927
20661SOL    HW263991   4.961   8.784   8.821 -0.7973 -1.3670  0.7350
20662SOL     OW63992   3.657   4.860   9.817  0.0095 -0.2908 -0.0280
20662SOL    HW163993   3.585   4.812   9.858 -0.2678  0.2284  0.0932
20662SOL    HW263994   3.719   4.791   9.790 -0.3605 -0.7128  0.1864
20663SOL     OW63995   4.527   0.521   0.608  0.2270 -0.1796  0.4697
20663SOL    HW163996   4.491   0.457   0.546  1.5177 -0.0069 -0.5073
20663SOL    HW263997   4.450   0.561   0.649 -0.6274 -2.2915  1.0726
20664SOL     OW63998   0.685   1.853  10.998  0.2847 -0.0708 -0.6244
20664SOL    HW163999   0.719   1.781  11.050 -0.5567  0.0989  0.2013
20664SOL    HW264000   0.614   1.814  10.946  2.4580 -0.7089 -3.3033
20665SOL     OW64001   5.054   1.778   2.797 -0.3122 -0.1610 -0.4284
20665SOL    HW164002   5.082   1.689   2.774 -1.5828 -1.3936  2.3946
20665SOL    HW264003   5.129   1.816   2.844 -1.2798 -1.5097  2.4035
20666SOL     OW64004   7.464   7.847   6.859  0.2394  0.0048 -0.4115
20666SOL    HW164005   7.480   7.769   6.911  1.2540 -0.5942 -1.5715
20666SOL    HW264006   7.370   7.848   6.845 -0.3090  1.0152  2.6329
20667SOL     OW64007   1.741   7.709   4.029  0.0522 -0.3029  0.4765
20667SOL    HW164008   1.763   7.781   3.970  1.2568 -1.6511 -0.8088
20667SOL    HW264009   1.645   7.707   4.029 -0.0265 -0.6744 -2.0739
20668SOL     OW64010   4.404  10.699   7.206  0.3736  0.3653 -0.5939
20668SOL    HW164011   4.406  10.644   7.127  1.0741  2.8379 -2.4188
20668SOL    HW264012   4.331  10.759   7.191 -0.8943 -0.4906  1.7237
20669SOL     OW64013   1.005   1.001   1.399  0.2663 -0.4115 -0.1233
20669SOL    HW164014   1.037   1.074   1.452  1.7828 -1.9573  1.2095
20669SOL    HW264015   1.034   1.022   1.310 -0.6480  1.2966 -0.0658
20670SOL     OW64016   1.530   5.182   8.583 -0.1189 -0.1396  0.2123
20670SOL    HW164017   1.575   5.231   8.652 -0.5240 -0.8371  0.9947
20670SOL    HW264018   1.447   5.157   8.622 -1.1135  0.9133 -1.1314
20671SOL     OW64019   2.655   8.510   9.944 -0.4069  0.4158  0.7379
20671SOL    HW164020   2.725   8.575   9.937 -0.0017 -0.2018 -2.5502
20671SOL    HW264021   2.684   8.451  10.013  2.2029  0.3936 -0.2543
20672SOL     OW64022   1.881   4.939   3.039  0.4491  0.1836  0.1667
20672SOL    HW164023   1.889   4.906   3.128 -2.5532  0.1632  0.5165
20672SOL    HW264024   1.890   4.861   2.984  1.7173  0.1071  0.4608
20673SOL     OW64025   5.158   6.204   8.000 -0.3097  0.4045  0.1990
20673SOL    HW164026   5.130   6.205   7.909  0.4724  1.5843 -0.0541
20673SOL    HW264027   5.250   6.178   7.997 -0.3716  0.1187  0.6870
20674SOL     OW64028  10.812   0.336   6.168 -0.0025  1.2850 -0.7631
20674SOL    HW164029  10.774   0.419   6.197 -0.3095  0.6343  0.8033
20674SOL    HW264030  10.738   0.275   6.168  0.9448 -0.1455  2.8780
20675SOL     OW64031   1.774   6.561   3.850 -0.4893  0.5814  0.0933
20675SOL    HW164032   1.818   6.499   3.909  0.9188  1.2271 -0.2219
20675SOL    HW264033   1.690   6.578   3.891  0.0556  0.2388  1.4042
20676SOL     OW64034   3.698   3.408   7.915  0.0249 -0.2519  0.1346
20676SOL    HW164035   3.724   3.442   7.829  0.0122 -0.5516  0.0112
20676SOL    HW264036   3.657   3.483   7.959 -1.2147 -0.4361 -0.6414
20677SOL     OW64037   3.667   8.735   8.717 -0.1521  0.2000 -0.0502
20677SOL    HW164038   3.750   8.689   8.701 -0.7205 -0.9248  0.1063
20677SOL    HW264039   3.684   8.826   8.692  1.1027 -0.0304 -0.0895
20678SOL     OW64040   2.510   1.024   5.236 -0.0769 -0.4563 -0.1337
20678SOL    HW164041   2.495   1.087   5.166 -0.5397 -0.1963  0.1971
20678SOL    HW264042   2.521   0.940   5.191 -1.5880 -0.5050 -0.4485
20679SOL     OW64043   5.170   9.153   3.540 -0.0851  0.3073 -0.7162
20679SOL    HW164044   5.235   9.213   3.503  0.2444 -0.3963 -1.3050
20679SOL    HW264045   5.208   9.066   3.528 -0.6851 -0.0453 -0.1363
20680SOL     OW64046   8.681   9.470   9.669 -0.2276  0.7385 -0.3180
20680SOL    HW164047   8.606   9.415   9.647 -0.8284  1.5847 -0.4668
20680SOL    HW264048   8.728   9.421   9.736 -2.0654  1.0951  1.3157
20681SOL     OW64049   9.445   6.403   1.140 -0.2595  0.1529  0.0323
20681SOL    HW164050   9.352   6.390   1.123  0.5118 -0.9615 -4.7502
20681SOL    HW264051   9.461   6.495   1.121 -0.2809  0.2252  0.3562
20682SOL     OW64052   0.622   6.546   7.327 -0.6897 -0.0279  0.2931
20682SOL    HW164053   0.544   6.492   7.341 -0.7904  0.5501  2.2104
20682SOL    HW264054   0.605   6.625   7.377 -0.2387  1.5381 -1.9003
20683SOL     OW64055  10.099   4.376   4.259  0.1930  0.0276  0.0902
20683SOL    HW164056  10.100   4.305   4.324 -1.0600 -1.9090 -1.8682
20683SOL    HW264057  10.171   4.433   4.286  0.8097 -1.5821  2.1867
20684SOL     OW64058   1.595   0.982   2.797  0.6249 -0.1401 -0.3499
20684SOL    HW164059   1.622   1.066   2.834 -0.1596 -0.3074  0.6710
20684SOL    HW264060   1.672   0.926   2.807  0.7520  0.1134  0.1193
20685SOL     OW64061   9.964   7.302  10.287  0.3468 -0.1908  0.2762
20685SOL    HW164062   9.953   7.289  10.381  1.7294  1.0130  0.6377
20685SOL    HW264063   9.888   7.354  10.261  0.9603  1.2037  1.1502
20686SOL     OW64064   9.995   1.962   8.786 -0.5484 -0.3399  0.6407
20686SOL    HW164065   9.943   2.016   8.846 -0.8640 -0.4225  0.4470
20686SOL    HW264066   9.934   1.941   8.715 -0.0812  0.0447  0.1191
20687SOL     OW64067   3.107   7.557  10.421 -0.0887  0.1091  0.2985
20687SOL    HW164068   3.164   7.630  10.400 -1.3736  1.1843  0.4216
20687SOL    HW264069   3.126   7.537  10.513  2.2261 -1.5687 -0.4542
20688SOL     OW64070   1.990   6.469   2.625 -0.2250 -0.2538  0.0691
20688SOL    HW164071   1.919   6.420   2.582 -0.1871 -1.3900  1.2377
20688SOL    HW264072   1.959   6.559   2.628 -1.7244 -0.7582  0.6959
20689SOL     OW64073   4.416  10.667   3.868  0.5589  0.4694  0.0405
20689SOL    HW164074   4.343  10.700   3.816  1.1552  0.4774 -0.8071
20689SOL    HW264075   4.492  10.717   3.839  1.2395 -0.7495 -0.3621
20690SOL     OW64076   0.426   2.551   4.293  0.2596 -0.1270  0.1505
20690SOL    HW164077   0.466   2.588   4.372  2.1835 -1.3896 -0.1464
20690SOL    HW264078   0.458   2.606   4.222 -2.3470  1.6762  0.2800
20691SOL     OW64079   2.542   7.265   7.553  0.3213  0.4082 -0.6435
20691SOL    HW164080   2.469   7.261   7.615  1.7223  0.5452  1.1107
20691SOL    HW264081   2.594   7.341   7.582  0.7871  0.7475 -2.2803
20692SOL     OW64082   6.004   0.380   4.113  0.0193 -0.6786  0.4188
20692SOL    HW164083   5.943   0.373   4.187  0.1266  2.3084  0.8842
20692SOL    HW264084   6.083   0.419   4.151 -0.4017  2.2176 -1.4267
20693SOL     OW64085   3.934   2.318   4.349  0.0968 -0.0538  0.6240
20693SOL    HW164086   4.009   2.258   4.350  0.6305  0.5713 -0.3214
20693SOL    HW264087   3.860   2.262   4.325  0.2769 -0.6553  1.4525
20694SOL     OW64088   9.084   0.413   0.922 -0.0720 -0.1429  0.3887
20694SOL    HW164089   9.058   0.499   0.954  0.4439  0.3604 -0.5183
20694SOL    HW264090   9.063   0.414   0.829  1.5370 -0.3422 -0.0096
20695SOL     OW64091   1.208   5.114   5.494  0.4022  0.4679 -0.8904
20695SOL    HW164092   1.178   5.042   5.438  0.2143 -0.0320 -0.1561
20695SOL    HW264093   1.160   5.191   5.462 -1.9713 -0.3477  0.4446
20696SOL     OW64094   3.755   1.009   2.024  0.2261 -0.0598  0.0377
20696SOL    HW164095   3.750   0.970   2.111  0.0190 -1.1601 -0.4375
20696SOL    HW264096   3.769   1.102   2.039  1.3037 -0.3883  1.2266
20697SOL     OW64097   3.256   1.748   4.461  0.1409  0.2029  0.5823
20697SOL    HW164098   3.184   1.688   4.442 -0.3320  1.2599 -1.1801
20697SOL    HW264099   3.227   1.797   4.538 -0.6472  0.0158  0.4130
20698SOL     OW64100  10.216   0.828  10.188  0.4118  0.5116 -0.0074
20698SOL    HW164101  10.262   0.834  10.104  1.7455  0.7367  0.7136
20698SOL    HW264102  10.273   0.874  10.250  0.1015 -0.7588  1.2797
20699SOL     OW64103   6.467   0.409  10.456  0.6468  0.5523  0.0725
20699SOL    HW164104   6.519   0.332  10.477  0.8488 -0.7934 -4.3167
20699SOL    HW264105   6.476   0.466  10.533  3.7699 -2.0537  1.8997
20700SOL     OW64106   1.313   6.018   5.708 -0.5312  0.2336  0.0419
20700SOL    HW164107   1.346   6.105   5.730 -0.3471  0.4190 -0.8918
20700SOL    HW264108   1.390   5.972   5.674 -0.9374  0.2258 -0.9058
20701SOL     OW64109   9.399   8.209   7.444 -0.0505 -0.5456 -0.1587
20701SOL    HW164110   9.472   8.271   7.446 -0.7763  0.3419 -0.4475
20701SOL    HW264111   9.439   8.124   7.427  1.0898 -0.3532  1.4420
20702SOL     OW64112  10.844   0.136   7.825 -0.3654  0.6664 -0.2761
20702SOL    HW164113  10.874   0.170   7.740  0.1492 -0.6279 -0.6229
20702SOL    HW264114  10.924   0.120   7.874 -0.6455  0.9120  0.2642
20703SOL     OW64115   6.417   6.682   2.590  0.7843  0.1432  0.3324
20703SOL    HW164116   6.354   6.707   2.658 -0.3031 -0.1123 -0.5533
20703SOL    HW264117   6.414   6.755   2.528  0.3932 -0.4474 -0.3553
20704SOL     OW64118   4.315   8.362   4.287  0.7257 -0.0199 -0.1556
20704SOL    HW164119   4.379   8.291   4.292 -2.6237 -3.2791  2.6459
20704SOL    HW264120   4.232   8.319   4.266 -1.6710  2.8770  2.2385
20705SOL     OW64121   8.275   7.888  10.831  0.3587 -0.0384 -0.2648
20705SOL    HW164122   8.230   7.934  10.760 -0.2695 -1.2902 -0.7120
20705SOL    HW264123   8.358   7.935  10.842  0.6715 -0.0794 -2.1368
20706SOL     OW64124   4.872   1.960   6.506 -0.0706  0.2180  0.8196
20706SOL    HW164125   4.828   2.044   6.521  0.9037  0.9151 -0.0621
20706SOL    HW264126   4.854   1.909   6.585 -0.3302  1.4110  1.5543
20707SOL     OW64127   2.141   1.905   0.282 -0.4461 -0.0774 -0.1200
20707SOL    HW164128   2.100   1.825   0.313  2.0259 -0.8586  1.4577
20707SOL    HW264129   2.095   1.975   0.328 -1.4384 -0.6917 -0.1408
20708SOL     OW64130   7.319   2.050   3.048  0.2018 -0.1803 -0.4085
20708SOL    HW164131   7.308   1.976   3.108  0.1635 -0.1259 -0.3485
20708SOL    HW264132   7.301   2.127   3.102  1.4207 -0.0464 -0.1596
20709SOL     OW64133   8.076   9.264   3.746  0.0829 -1.0352  0.2812
20709SOL    HW164134   8.157   9.314   3.758  0.2949 -1.3947  0.3572
20709SOL    HW264135   8.017   9.325   3.701  0.4347 -0.8124  0.1145
20710SOL     OW64136   6.625   8.177   6.569  0.1117  0.2735  0.2293
20710SOL    HW164137   6.589   8.258   6.605 -1.1073  0.3485 -1.0847
20710SOL    HW264138   6.717   8.197   6.552  0.1836  0.9039  1.2465
20711SOL     OW64139   3.131   2.223  10.865 -0.0201 -0.2303  0.5252
20711SOL    HW164140   3.055   2.255  10.915 -0.6155  0.1980 -0.6002
20711SOL    HW264141   3.096   2.150  10.814 -0.1099  0.9138 -1.1476
20712SOL     OW64142   2.369   1.568   8.436  0.2765  0.9709 -0.4333
20712SOL    HW164143   2.447   1.581   8.383  1.6614  1.5934  1.6470
20712SOL    HW264144   2.330   1.487   8.402  0.7924  1.5768 -2.6549
20713SOL     OW64145   6.518   6.126   3.436 -0.1068 -0.3617 -0.6585
20713SOL    HW164146   6.519   6.040   3.478  1.5977 -0.8360 -1.5592
20713SOL    HW264147   6.540   6.187   3.506  1.2729 -0.9811 -0.5105
20714SOL     OW64148   1.429   3.157   0.142  0.2229 -0.2779 -0.1630
20714SOL    HW164149   1.455   3.173   0.051 -1.0503  2.3073 -0.1635
20714SOL    HW264150   1.335   3.140   0.138  0.1525 -0.1489  0.6714
20715SOL     OW64151   5.622   2.473   1.364  0.1069 -0.1964 -0.1332
20715SOL    HW164152   5.644   2.486   1.457  1.2399 -2.4498 -0.0022
20715SOL    HW264153   5.594   2.382   1.359  1.4937 -0.5903 -2.2162
20716SOL     OW64154  10.768   9.662   9.351 -0.6375 -0.4557 -0.4454
20716SOL    HW164155  10.834   9.649   9.419 -0.4774 -3.6540 -1.0320
20716SOL    HW264156  10.690   9.690   9.399  0.4592  1.0755  0.5364
20717SOL     OW64157  10.760  10.299   4.689 -0.1118 -0.0077  0.0438
20717SOL    HW164158  10.697  10.230   4.668 -0.2174 -0.1872  0.9323
20717SOL    HW264159  10.769  10.295   4.784 -0.4392  1.4903  0.1490
20718SOL     OW64160   5.431   5.915   2.433 -0.7091  0.0543 -0.1620
20718SOL    HW164161   5.387   5.989   2.393  0.8336  0.7286 -0.6998
20718SOL    HW264162   5.368   5.879   2.495 -1.6933  1.4373 -0.3334
20719SOL     OW64163   3.207   7.086   9.021  0.7328  0.0126 -0.5039
20719SOL    HW164164   3.182   7.152   9.086  1.6341  0.1493 -0.2943
20719SOL    HW264165   3.181   7.125   8.937  0.5793  0.3073 -0.3234
20720SOL     OW64166   6.575   3.300   9.183  0.3017 -0.0634 -0.1838
20720SOL    HW164167   6.618   3.242   9.245  0.8085  1.6756  1.1754
20720SOL    HW264168   6.534   3.367   9.237  0.3299  1.2461 -1.6939
20721SOL     OW64169   0.786   6.955   0.154 -0.1462  0.0353  0.3011
20721SOL    HW164170   0.759   6.864   0.162 -2.2101  0.6369  0.7740
20721SOL    HW264171   0.827   6.960   0.067  2.8058 -1.9189  1.4008
20722SOL     OW64172   1.579   3.561   7.657 -0.3760  0.3709 -0.0287
20722SOL    HW164173   1.594   3.484   7.603 -0.9269 -0.3033  0.7497
20722SOL    HW264174   1.511   3.611   7.611  0.1827  0.5410 -0.6745
20723SOL     OW64175   3.183   1.155   0.178 -0.0259  0.0543  0.0100
20723SOL    HW164176   3.267   1.198   0.166  0.2550 -0.6588 -0.6610
20723SOL    HW264177   3.190   1.109   0.262 -0.5810  1.8401  1.0977
20724SOL     OW64178   6.017   9.379   9.881 -0.4085 -0.5166  0.8408
20724SOL    HW164179   5.994   9.345   9.967  0.1670  0.5261  1.4246
20724SOL    HW264180   6.112   9.382   9.880 -0.3885 -1.0933 -0.0740
20725SOL     OW64181   6.091   2.611   7.405 -0.1346 -0.4709 -0.3233
20725SOL    HW164182   5.996   2.624   7.407 -0.0144  0.3562  1.3622
20725SOL    HW264183   6.103   2.521   7.438 -0.3671 -0.9612 -1.5302
20726SOL     OW64184  10.079   7.761   1.861 -0.1949 -0.0174 -0.2380
20726SOL    HW164185  10.173   7.776   1.856 -0.0747 -0.9625 -1.3630
20726SOL    HW264186  10.070   7.681   1.913 -0.3763  0.0192 -0.2114
20727SOL     OW64187   5.888   0.486  10.548 -0.0676  0.2104  0.3529
20727SOL    HW164188   5.969   0.537  10.551 -0.8393  1.6677 -1.4350
20727SOL    HW264189   5.825   0.538  10.598  0.0127 -0.8269  1.5845
20728SOL     OW64190   0.576   5.064   4.217 -0.3818 -0.0983 -0.5438
20728SOL    HW164191   0.481   5.063   4.211 -0.3518 -0.1333 -1.0643
20728SOL    HW264192   0.605   4.996   4.156 -0.0059  0.4239 -0.9587
20729SOL     OW64193   7.190   8.759   9.195  0.3794 -0.0207  0.8015
20729SOL    HW164194   7.268   8.716   9.163  0.8814  0.3437  1.4941
20729SOL    HW264195   7.202   8.852   9.174 -0.7091 -0.1927 -0.7153
20730SOL     OW64196   5.035   2.833   1.772 -0.2389  0.2131  0.6007
20730SOL    HW164197   5.047   2.803   1.682 -0.6838  0.5641  0.4202
20730SOL    HW264198   5.020   2.753   1.822  0.0838  0.0089  0.3771
20731SOL     OW64199   8.113   2.444   5.559 -0.2593  0.3101  0.3263
20731SOL    HW164200   8.018   2.443   5.549 -0.3472  0.4389  1.0945
20731SOL    HW264201   8.139   2.532   5.532 -0.4022  0.4029  0.4921
20732SOL     OW64202   9.574   8.060   5.149  0.2607 -0.1378 -0.3655
20732SOL    HW164203   9.641   8.038   5.084  0.6849 -1.9979  0.6042
20732SOL    HW264204   9.526   8.133   5.111  2.8693  1.3370 -1.0741
20733SOL     OW64205  10.247   2.157   8.734  0.2221  0.5172 -0.2638
20733SOL    HW164206  10.284   2.083   8.685  1.6153  0.6684  0.5022
20733SOL    HW264207  10.154   2.135   8.743  0.4847 -0.8411 -0.5905
20734SOL     OW64208   5.066  10.332   8.423  0.1393  0.5957  0.2759
20734SOL    HW164209   5.091  10.423   8.406  0.4887  0.4746  0.1375
20734SOL    HW264210   5.057  10.328   8.518 -0.1669  0.8492  0.2600
20735SOL     OW64211   6.738   5.207   8.021 -0.9393  0.3793  0.2537
20735SOL    HW164212   6.792   5.128   8.025  0.1134  1.0222 -0.5814
20735SOL    HW264213   6.801   5.279   8.026 -1.9495  1.1960  1.8661
20736SOL     OW64214   8.206   5.426   8.281 -0.1310 -0.1043  0.6149
20736SOL    HW164215   8.150   5.504   8.284 -0.6567 -0.4578  0.0623
20736SOL    HW264216   8.253   5.433   8.198 -0.5510 -0.6311  0.3311
20737SOL     OW64217   6.287   8.683   9.573  0.1631  0.4635  0.4676
20737SOL    HW164218   6.219   8.674   9.640  0.1994  0.2075  0.4687
20737SOL    HW264219   6.282   8.775   9.546  0.2713  0.6152  0.9546
20738SOL     OW64220   6.542   3.068   6.693  0.2705 -0.4427 -0.6523
20738SOL    HW164221   6.526   3.009   6.620 -2.0138  0.0120 -0.5868
20738SOL    HW264222   6.455   3.092   6.725  1.1624 -0.2720  1.9415
20739SOL     OW64223   7.959   2.660  10.720 -0.6474  0.8545 -0.0951
20739SOL    HW164224   7.937   2.718  10.792  0.2275  0.1386  0.7781
20739SOL    HW264225   7.913   2.696  10.644 -1.2972  1.8167  0.7447
20740SOL     OW64226   1.982   6.397   4.333 -0.7533  0.0276  0.3136
20740SOL    HW164227   2.016   6.472   4.381  0.8530  0.0285 -0.7659
20740SOL    HW264228   1.960   6.333   4.401  0.1551  0.5556  1.1291
20741SOL     OW64229   8.522   7.993  10.946  0.1199 -0.9314  0.5620
20741SOL    HW164230   8.511   8.074  10.997 -0.6797 -1.1283  0.7166
20741SOL    HW264231   8.606   8.004  10.902  1.0544 -0.9221  2.2499
20742SOL     OW64232   0.633   8.985   9.668  0.0692 -0.3059  0.1965
20742SOL    HW164233   0.547   8.942   9.665  0.7693 -1.7376  0.0372
20742SOL    HW264234   0.630   9.036   9.749 -1.0638 -0.0313  0.0089
20743SOL     OW64235   2.230   1.772   4.782 -0.0078  0.3516  0.2517
20743SOL    HW164236   2.204   1.832   4.712 -0.0540 -0.1854 -0.1986
20743SOL    HW264237   2.270   1.828   4.848 -1.2027  1.0518  0.4233
20744SOL     OW64238   4.293   0.996   5.025 -0.2857  0.2199  0.1461
20744SOL    HW164239   4.351   0.932   4.986 -0.6631  0.6363 -1.1254
20744SOL    HW264240   4.349   1.072   5.043 -0.6331  1.1904 -2.4302
20745SOL     OW64241   7.270   8.940  10.504 -0.4537  0.1766  0.2787
20745SOL    HW164242   7.289   8.959  10.596 -0.0758 -0.0605  0.2509
20745SOL    HW264243   7.320   8.860  10.485 -0.4119  0.3078 -0.1736
20746SOL     OW64244   0.092   1.353   1.439 -0.1605 -0.3964 -0.0551
20746SOL    HW164245   0.023   1.295   1.472  0.2089 -0.9641 -0.2705
20746SOL    HW264246   0.174   1.312   1.469  0.0647  1.0484  1.4737
20747SOL     OW64247  10.215   1.560   1.105 -0.1356  0.2904  0.0426
20747SOL    HW164248  10.156   1.618   1.154 -2.2589 -1.3046 -0.4830
20747SOL    HW264249  10.201   1.584   1.013 -0.9620 -0.9418 -0.1719
20748SOL     OW64250   2.886   0.904   0.941 -0.1446 -0.5089  0.4977
20748SOL    HW164251   2.968   0.857   0.957 -0.4302 -2.6300 -3.1362
20748SOL    HW264252   2.817   0.843   0.967 -0.5297 -0.5849 -0.6316
20749SOL     OW64253  10.249   2.340   7.489  0.1062  0.6031 -0.1730
20749SOL    HW164254  10.162   2.377   7.500 -0.5092 -0.1787 -2.0238
20749SOL    HW264255  10.282   2.328   7.578 -1.6143  1.0446  0.5497
20750SOL     OW64256   8.946   4.467   6.302  0.6496  0.0343 -0.0676
20750SOL    HW164257   9.008   4.400   6.329 -0.2437 -1.3538 -1.3318
20750SOL    HW264258   8.866   4.447   6.350 -0.3287 -1.2565 -2.0895
20751SOL     OW64259   3.399   9.326   1.355  0.5834  0.1108  0.0926
20751SOL    HW164260   3.426   9.245   1.398 -0.0818 -0.0112  0.2952
20751SOL    HW264261   3.385   9.388   1.426  0.1266  0.1076  0.0084
20752SOL     OW64262   3.430   0.105   1.866  0.1665  0.3506 -0.5329
20752SOL    HW164263   3.512   0.138   1.903 -0.1039  0.3200  0.1215
20752SOL    HW264264   3.436   0.010   1.877 -0.3592  0.4113  0.4156
20753SOL     OW64265   8.432   9.520   3.144 -0.1742 -0.1095 -0.3611
20753SOL    HW164266   8.421   9.535   3.238  2.3428  0.4328 -0.0877
20753SOL    HW264267   8.424   9.425   3.134 -1.9611 -0.0541  0.1082
20754SOL     OW64268   6.459   5.632   1.182 -0.1286  0.5253  0.0921
20754SOL    HW164269   6.459   5.649   1.088 -0.7451 -0.9777 -0.2140
20754SOL    HW264270   6.420   5.545   1.190  1.3524 -0.0475  1.6316
20755SOL     OW64271   7.907   6.963   6.634  0.5834 -0.5294  0.3256
20755SOL    HW164272   7.818   6.963   6.601 -0.4577  2.1585  2.6790
20755SOL    HW264273   7.925   6.872   6.657 -2.2554 -0.9209  1.3998
20756SOL     OW64274   1.237   3.919   1.308  0.5583 -0.4685 -0.2657
20756SOL    HW164275   1.255   3.943   1.399  0.0033 -0.1258 -0.2416
20756SOL    HW264276   1.204   3.999   1.268 -0.3592 -0.9194 -0.4479
20757SOL     OW64277   7.025   7.072   0.271  0.1126 -0.1398 -0.0509
20757SOL    HW164278   7.120   7.062   0.278  0.4843  0.5032 -2.8988
20757SOL    HW264279   7.004   7.144   0.331  1.8464  1.3556 -1.1120
20758SOL     OW64280   8.366   7.733   3.214  0.1237 -0.3362 -0.4826
20758SOL    HW164281   8.330   7.646   3.194  1.9275 -0.4990 -3.7319
20758SOL    HW264282   8.291   7.792   3.210 -0.7117 -1.4005 -1.0169
20759SOL     OW64283   2.219   0.408   4.867  0.3528 -0.5104 -0.3761
20759SOL    HW164284   2.150   0.429   4.804  0.8569 -1.8033 -1.4201
20759SOL    HW264285   2.256   0.493   4.892 -0.8545  0.1205 -0.6695
20760SOL     OW64286   8.423   1.348   6.788  0.2366 -0.1318 -0.0432
20760SOL    HW164287   8.420   1.378   6.697  0.2750 -1.0528 -0.3592
20760SOL    HW264288   8.471   1.417   6.834  0.4785  0.2005 -0.7753
20761SOL     OW64289  10.751   8.691   9.336 -0.0297  0.1632  0.0991
20761SOL    HW164290  10.745   8.596   9.323 -0.4006  0.0576  1.0122
20761SOL    HW264291  10.845   8.710   9.332  0.1249 -0.3865  0.8845
20762SOL     OW64292   4.775   6.348  10.625  0.1816 -0.2964 -0.0955
20762SOL    HW164293   4.721   6.270  10.638  0.8896 -0.9078 -0.7663
20762SOL    HW264294   4.861   6.324  10.658  0.9400 -0.5123 -2.0849
20763SOL     OW64295   6.336   9.212   2.210  0.4920 -0.6331  0.1727
20763SOL    HW164296   6.420   9.193   2.169  0.6963 -1.8117  1.0812
20763SOL    HW264297   6.356   9.268   2.284  0.4125 -0.5277  0.1162
20764SOL     OW64298   1.924   8.151   3.518 -0.5411  0.1970 -0.4016
20764SOL    HW164299   1.999   8.125   3.571  0.5378  1.2889 -1.3349
20764SOL    HW264300   1.864   8.077   3.523  0.6672 -0.7671  0.2295
20765SOL     OW64301   8.052  10.235   3.136 -0.0463 -0.1500 -0.2158
20765SOL    HW164302   8.124  10.263   3.193  0.0054  0.9430 -0.7812
20765SOL    HW264303   7.977  10.288   3.164 -1.0364 -2.1389  1.1979
20766SOL     OW64304   6.720   1.650   2.928  0.5666  0.3528  0.8710
20766SOL    HW164305   6.635   1.609   2.946  0.4461  1.2284  2.4457
20766SOL    HW264306   6.774   1.627   3.004  1.7042 -0.0600 -0.0359
20767SOL     OW64307   0.184   8.043   5.983  0.0117  0.1709  0.4820
20767SOL    HW164308   0.145   8.109   6.041  0.8484  0.0805  1.1741
20767SOL    HW264309   0.115   7.980   5.968 -0.6914  1.0084  0.1168
20768SOL     OW64310   1.222   9.334   9.386 -0.1078 -0.6418 -0.0814
20768SOL    HW164311   1.265   9.321   9.302 -0.1332 -0.4668 -0.1222
20768SOL    HW264312   1.158   9.404   9.370  2.6035  2.3564  0.9835
20769SOL     OW64313   6.317   7.730   0.454  0.1431  0.2204  0.0764
20769SOL    HW164314   6.329   7.825   0.451 -0.9931  0.3946  0.5502
20769SOL    HW264315   6.224   7.717   0.434  0.5867 -0.9022 -1.4037
20770SOL     OW64316  10.438   9.305   8.706  0.1326  0.1729  0.2018
20770SOL    HW164317  10.344   9.319   8.690  0.1667  1.2834  0.8505
20770SOL    HW264318  10.472   9.392   8.726  1.6009  0.0214 -1.4312
20771SOL     OW64319   6.702   3.105  10.370 -0.2160  0.0105 -0.7857
20771SOL    HW164320   6.731   3.057  10.447 -1.7646  2.1296  1.2358
20771SOL    HW264321   6.650   3.041  10.321 -1.3493 -0.7370  1.2694
20772SOL     OW64322   7.046   6.508   7.009  0.0507 -0.1514 -0.0525
20772SOL    HW164323   7.080   6.486   7.096 -0.3165  0.0209  0.1357
20772SOL    HW264324   6.967   6.559   7.026 -0.0267 -0.1213 -0.4896
20773SOL     OW64325   7.615   2.198   6.826  0.1830  0.0661  0.1735
20773SOL    HW164326   7.676   2.179   6.898 -1.1783  1.2947  1.7378
20773SOL    HW264327   7.567   2.116   6.814  0.7187 -0.2815  0.3530
20774SOL     OW64328   4.436  10.894  10.914  0.3763 -0.2889  0.2337
20774SOL    HW164329   4.372  10.890  10.844  2.0864 -1.6920 -1.3524
20774SOL    HW264330   4.456  10.987  10.923 -0.9105  0.0405 -0.0987
20775SOL     OW64331   2.973   1.719   0.527  0.0581  0.6602  0.9810
20775SOL    HW164332   2.988   1.710   0.433  0.8565 -0.7939  1.2120
20775SOL    HW264333   2.954   1.812   0.540  0.7012  1.0260 -0.5117
20776SOL     OW64334   3.863   5.839  11.017  0.7782  0.0205  0.2692
20776SOL    HW164335   3.874   5.769  11.082  0.1057 -0.7280 -0.3912
20776SOL    HW264336   3.940   5.832  10.961  0.9629  0.1416  0.5079
20777SOL     OW64337   6.550   4.141  10.938 -0.5963  0.7471  0.6391
20777SOL    HW164338   6.526   4.060  10.984 -0.2709  1.0692  1.3881
20777SOL    HW264339   6.513   4.131  10.851  0.7420 -0.9008  0.1967
20778SOL     OW64340   1.773   5.655   2.944 -0.4249 -0.8261 -0.1230
20778SOL    HW164341   1.720   5.621   3.015  0.9127  1.0627  1.8988
20778SOL    HW264342   1.852   5.600   2.944  0.4571  0.3677  1.2460
20779SOL     OW64343   2.349   6.308   1.488  0.1827  0.1125  0.3182
20779SOL    HW164344   2.298   6.306   1.407 -1.4108  1.8655  1.1777
20779SOL    HW264345   2.350   6.401   1.513  2.9446  0.0018  0.9364
20780SOL     OW64346   7.447   5.030   0.138  0.2806 -0.3424 -0.4130
20780SOL    HW164347   7.352   5.041   0.126  0.0240 -0.9858  0.7908
20780SOL    HW264348   7.456   5.001   0.229  1.6269 -0.4696 -0.5646
20781SOL     OW64349   6.926   5.485   5.080  0.6866 -0.5813 -0.1948
20781SOL    HW164350   6.888   5.563   5.039  0.7106 -0.6122 -0.2748
20781SOL    HW264351   7.000   5.461   5.024  1.5994  0.2110  0.6279
20782SOL     OW64352   6.308   3.922   5.979  0.3213 -0.6524  0.2708
20782SOL    HW164353   6.271   3.872   6.052 -2.7428  1.3108  0.2482
20782SOL    HW264354   6.299   3.864   5.903  0.6854 -1.5652  0.9061
20783SOL     OW64355   7.303   8.974   1.225  0.0714 -0.0708 -0.4241
20783SOL    HW164356   7.361   9.035   1.180  0.0100  1.7593  1.7706
20783SOL    HW264357   7.215   9.004   1.204  0.0378  0.4536  0.4156
20784SOL     OW64358   9.543   9.646   5.258  0.1550 -0.3964  0.4839
20784SOL    HW164359   9.504   9.627   5.343  1.2338  0.8737  1.2958
20784SOL    HW264360   9.573   9.736   5.264  0.7094 -0.4311 -1.0826
20785SOL     OW64361   5.396   0.839   6.699  0.0987 -0.3848 -0.3155
20785SOL    HW164362   5.400   0.766   6.638 -1.4193  0.3501 -1.3656
20785SOL    HW264363   5.478   0.886   6.685 -0.8861  0.7293 -3.1365
20786SOL     OW64364  10.246   1.526  10.600 -0.0894 -0.1785  0.1489
20786SOL    HW164365  10.246   1.515  10.695  0.0556 -0.0341  0.1651
20786SOL    HW264366  10.310   1.594  10.583  0.5068 -0.7986 -0.1266
20787SOL     OW64367   7.218   2.128   8.162 -0.3200  0.4050 -0.3631
20787SOL    HW164368   7.215   2.033   8.158 -0.3303  0.4093 -0.4780
20787SOL    HW264369   7.184   2.150   8.249 -0.4587  0.3101 -0.3924
20788SOL     OW64370   0.877   1.069   2.308  0.5531  0.6360 -0.0682
20788SOL    HW164371   0.894   1.075   2.214  2.8949  2.0707  0.3736
20788SOL    HW264372   0.959   1.038   2.345 -0.9852 -2.0696  1.3759
20789SOL     OW64373   6.615   8.339  10.618 -0.3410  0.1068 -0.6577
20789SOL    HW164374   6.678   8.329  10.547  0.2047  0.3849 -0.2222
20789SOL    HW264375   6.540   8.285  10.592 -0.0391 -0.0014 -1.3134
20790SOL     OW64376   2.097   6.594   5.002  0.5385  0.5469  0.1104
20790SOL    HW164377   2.099   6.573   5.095  2.2122  2.1337  0.4836
20790SOL    HW264378   2.105   6.689   4.998 -0.2058  0.5855 -1.6529
20791SOL     OW64379   6.316   4.532   8.060 -0.4441  0.0777  0.1631
20791SOL    HW164380   6.246   4.467   8.062  0.1978 -0.6186  0.3992
20791SOL    HW264381   6.325   4.554   7.967 -0.2076 -0.6848 -0.0029
20792SOL     OW64382   6.019   4.452   5.167  0.1163 -0.3691  0.2667
20792SOL    HW164383   6.025   4.364   5.130 -0.3956 -0.4628  0.3963
20792SOL    HW264384   5.927   4.462   5.190  0.6190 -0.8088  2.7286
20793SOL     OW64385   5.749   7.921   7.081 -0.2360  0.2528 -0.1313
20793SOL    HW164386   5.685   7.870   7.131 -0.7704  1.0692  0.0240
20793SOL    HW264387   5.707   8.005   7.067  1.5461  1.5322  1.6543
20794SOL     OW64388   0.516   6.421   7.745  0.4061  0.4073  0.4633
20794SOL    HW164389   0.566   6.489   7.700 -0.0043  1.0149  0.8993
20794SOL    HW264390   0.478   6.466   7.821  1.4715 -0.6912  1.7030
20795SOL     OW64391   8.221   6.213   2.851  0.5508 -0.6817 -0.2558
20795SOL    HW164392   8.302   6.263   2.862  0.1525 -0.4182  1.8159
20795SOL    HW264393   8.163   6.271   2.801  0.9375 -0.0473  0.0253
20796SOL     OW64394   8.114   3.911   7.490  0.3324  0.1964  0.3691
20796SOL    HW164395   8.162   3.985   7.527 -1.4650  0.9699  1.3147
20796SOL    HW264396   8.170   3.878   7.420  2.3713  0.7860  1.6516
20797SOL     OW64397   9.984   8.585   0.166 -0.1538  0.5656  0.4500
20797SOL    HW164398   9.915   8.574   0.101  0.1969  3.1869 -0.4508
20797SOL    HW264399  10.033   8.502   0.163 -3.1309 -1.3954  1.1104
20798SOL     OW64400   3.709  10.083   4.773  0.2880 -0.4542 -0.3379
20798SOL    HW164401   3.637  10.133   4.810 -0.4569 -1.1294 -0.8416
20798SOL    HW264402   3.688   9.992   4.793 -0.9916 -1.0528 -3.6505
20799SOL     OW64403  10.187   8.479   7.840 -0.2533 -0.0187 -0.1161
20799SOL    HW164404  10.225   8.557   7.879  0.5156 -0.8501  0.8484
20799SOL    HW264405  10.192   8.493   7.745  0.5832  0.7553  0.0417
20800SOL     OW64406   3.213   3.881   3.235  0.1914  0.1554  0.2524
20800SOL    HW164407   3.307   3.868   3.219  0.2001 -1.3624  1.2913
20800SOL    HW264408   3.201   3.851   3.325 -1.6409 -1.5960 -0.5126
20801SOL     OW64409   8.512   7.443   6.857 -0.3991 -0.0435 -0.2626
20801SOL    HW164410   8.473   7.429   6.944 -2.1791 -2.6967 -1.3677
20801SOL    HW264411   8.603   7.416   6.867  0.5153  3.1893  1.5811
20802SOL     OW64412   5.263   8.778   5.607  0.5290 -0.5825  0.2882
20802SOL    HW164413   5.300   8.831   5.678  3.1656  1.3910 -2.3398
20802SOL    HW264414   5.213   8.839   5.554 -0.5179 -1.7986 -0.1855
20803SOL     OW64415  10.776   2.353   5.674 -0.1974 -0.3142 -0.0599
20803SOL    HW164416  10.856   2.361   5.725  1.1167  0.4361 -2.0875
20803SOL    HW264417  10.752   2.261   5.681  3.4840 -1.7985 -2.8975
20804SOL     OW64418   6.441   0.112   3.431 -0.3677  0.0240 -0.7766
20804SOL    HW164419   6.443   0.203   3.460  0.7024 -0.3083  0.2590
20804SOL    HW264420   6.515   0.071   3.476 -1.4904 -1.6219 -0.3648
20805SOL     OW64421   2.275  10.816  10.170  0.1493 -0.2867  0.6665
20805SOL    HW164422   2.322  10.806  10.253  0.2904  0.3562  0.6736
20805SOL    HW264423   2.326  10.881  10.122  1.1105 -1.9732 -0.7129
20806SOL     OW64424   8.312   7.988   9.157  0.2627 -0.1341  0.2340
20806SOL    HW164425   8.268   7.910   9.123 -0.3649  0.7564 -1.0947
20806SOL    HW264426   8.405   7.971   9.140  0.0108  0.0760 -1.6209
20807SOL     OW64427   8.309   7.623  10.825  0.3932  0.1931 -0.0298
20807SOL    HW164428   8.274   7.707  10.853 -0.5008 -0.5093  1.0817
20807SOL    HW264429   8.392   7.614  10.872  0.4756  0.4479 -0.1302
20808SOL     OW64430  10.599   1.556   4.748  0.4613  0.4832  0.3718
20808SOL    HW164431  10.689   1.539   4.776  0.6102 -2.5403 -1.4240
20808SOL    HW264432  10.590   1.506   4.667 -2.7406  1.0403  0.2495
20809SOL     OW64433   5.821   3.960   5.981 -0.1059  0.1850  0.5199
20809SOL    HW164434   5.823   3.997   6.069  1.3993  1.0607  0.1532
20809SOL    HW264435   5.758   4.014   5.933 -0.7415 -0.1411  0.9728
20810SOL     OW64436   5.463   5.702   8.472  0.4288 -0.0809  0.5373
20810SOL    HW164437   5.434   5.748   8.550 -0.6236  0.2332 -0.0224
20810SOL    HW264438   5.553   5.732   8.458  0.3667  0.4258  1.1935
20811SOL     OW64439   5.970   6.198   5.267 -0.2626 -0.4443 -0.7103
20811SOL    HW164440   5.895   6.153   5.227 -0.4478 -0.7742 -0.0091
20811SOL    HW264441   6.007   6.132   5.326 -2.4195  1.2037  2.8223
20812SOL     OW64442   5.956   3.986  10.352  0.5844 -0.3262 -0.0087
20812SOL    HW164443   5.876   3.939  10.373 -0.3966  1.4380  0.4540
20812SOL    HW264444   6.015   3.968  10.425  0.9363 -2.2443 -0.7136
20813SOL     OW64445   1.558   2.187   1.410 -0.1193 -0.1977 -0.0810
20813SOL    HW164446   1.527   2.276   1.390 -1.3155 -0.8215 -1.1599
20813SOL    HW264447   1.563   2.185   1.506  0.8408  1.3062 -0.0534
20814SOL     OW64448   1.911   9.108   5.114 -0.1136  0.7371  0.2305
20814SOL    HW164449   1.830   9.063   5.136 -0.7895  0.2180 -2.8560
20814SOL    HW264450   1.884   9.197   5.091  0.6748  1.5397  2.1670
20815SOL     OW64451   9.415   7.949  10.189 -0.1484  0.4302  0.1020
20815SOL    HW164452   9.319   7.948  10.192 -0.2440  2.6543 -0.5038
20815SOL    HW264453   9.441   8.009  10.258  0.8703 -0.6168  0.6629
20816SOL     OW64454   1.773   2.639   8.484 -0.2918  0.3767 -0.2032
20816SOL    HW164455   1.718   2.629   8.561  0.4565 -0.5741  0.2266
20816SOL    HW264456   1.828   2.716   8.503 -0.2049  0.2270  0.1622
20817SOL     OW64457   8.547  10.177   7.479 -0.3305 -0.5783  0.1814
20817SOL    HW164458   8.515  10.227   7.404  1.1240  0.1056 -0.0252
20817SOL    HW264459   8.630  10.141   7.449 -0.0706 -0.8710  1.2389
20818SOL     OW64460  10.539   7.456   5.054 -0.2976 -0.0506 -0.1795
20818SOL    HW164461  10.545   7.520   5.125  1.3045 -1.3538  0.9243
20818SOL    HW264462  10.532   7.509   4.974 -1.7746  1.4454  0.8793
20819SOL     OW64463   8.450  10.645   6.572 -0.1345 -0.3961  0.2867
20819SOL    HW164464   8.537  10.629   6.535 -0.2227 -3.3129  1.1279
20819SOL    HW264465   8.467  10.702   6.647  0.9012 -0.1903 -0.0735
20820SOL     OW64466   8.879   6.981  10.213 -0.5069  0.2825  0.0192
20820SOL    HW164467   8.903   6.888  10.214 -0.4612  0.2839 -0.7491
20820SOL    HW264468   8.784   6.980  10.229 -0.8966 -0.0429 -2.0676
20821SOL     OW64469   8.549   0.534   7.595  0.0605 -0.0005  1.0332
20821SOL    HW164470   8.529   0.583   7.516 -0.5942 -1.5231  0.2083
20821SOL    HW264471   8.464   0.501   7.625  0.6389 -2.1522  0.4861
20822SOL     OW64472   2.639   1.138   6.535  0.0178  0.3810 -0.2780
20822SOL    HW164473   2.575   1.184   6.481  0.2542  0.0768 -0.8127
20822SOL    HW264474   2.698   1.095   6.473  1.2553  1.3444  0.1751
20823SOL     OW64475   8.235   7.885   2.038  0.0043  0.6919 -0.1771
20823SOL    HW164476   8.301   7.845   2.094  1.7155 -0.1038 -2.5719
20823SOL    HW264477   8.273   7.968   2.011 -1.2795  1.5901  0.6510
20824SOL     OW64478   4.333   5.266   4.713 -0.0067 -0.4163  0.3982
20824SOL    HW164479   4.286   5.198   4.665  2.4875 -1.2409 -1.0965
20824SOL    HW264480   4.378   5.219   4.783  0.3707 -0.0248  0.4205
20825SOL     OW64481   9.642   1.012   0.565  0.6758 -0.0424  0.3132
20825SOL    HW164482   9.704   1.073   0.525 -0.8416  0.1024 -2.0336
20825SOL    HW264483   9.599   1.062   0.633  1.4709  0.5924  0.3666
20826SOL     OW64484   2.239   2.732   5.813 -0.3008  0.3393 -0.4332
20826SOL    HW164485   2.230   2.753   5.720 -2.6345  1.5854  0.0036
20826SOL    HW264486   2.159   2.683   5.834  0.0226  0.3804  0.9909
20827SOL     OW64487   4.586   4.985  11.006 -0.0742 -0.3977  0.1344
20827SOL    HW164488   4.526   5.027  10.945  0.2570 -1.5435 -1.0108
20827SOL    HW264489   4.549   4.897  11.019  1.2560 -1.0723 -0.4834
20828SOL     OW64490   7.010   1.038   5.325 -0.3142  0.3530  0.1170
20828SOL    HW164491   7.000   1.105   5.258 -0.3264 -0.5741 -0.8375
20828SOL    HW264492   7.104   1.039   5.345 -0.3760  0.9129  0.3912
20829SOL     OW64493   1.342   6.135   2.297 -0.2001 -0.0713 -0.4800
20829SOL    HW164494   1.384   6.219   2.314 -0.6407 -0.1475  1.2065
20829SOL    HW264495   1.272   6.155   2.235  0.7809  0.4745 -1.4346
20830SOL     OW64496   8.239   4.523   0.936  0.1725 -0.2028  0.5178
20830SOL    HW164497   8.167   4.533   0.874 -1.2936 -1.3072  1.9165
20830SOL    HW264498   8.288   4.447   0.904  0.5334  0.3580 -0.2713
20831SOL     OW64499   6.558   7.167   9.483  0.0201 -0.1530 -0.3993
20831SOL    HW164500   6.633   7.108   9.495  1.3325  1.1184 -1.7616
20831SOL    HW264501   6.544   7.167   9.388 -1.4221  0.0048 -0.1987
20832SOL     OW64502   9.721   2.368   1.315  0.0321 -0.2191  0.3417
20832SOL    HW164503   9.695   2.453   1.350  0.2742 -0.4652  1.1468
20832SOL    HW264504   9.796   2.388   1.258  0.6085  0.0191  1.1694
20833SOL     OW64505   0.540   6.602   6.033  0.4959 -0.3770 -0.1241
20833SOL    HW164506   0.570   6.543   5.964 -0.4874 -1.3383  0.2433
20833SOL    HW264507   0.507   6.679   5.987 -1.3598 -1.5343 -0.8685
20834SOL     OW64508   1.012   1.124   6.721  0.0865  0.1223 -0.4232
20834SOL    HW164509   0.981   1.035   6.735 -0.1046  0.1269 -0.8123
20834SOL    HW264510   1.068   1.142   6.797 -0.1026 -0.2228 -0.1997
20835SOL     OW64511   0.263   0.961   5.102  0.2952  0.0115  0.3696
20835SOL    HW164512   0.358   0.953   5.100  0.2928  0.0103  0.1803
20835SOL    HW264513   0.242   1.013   5.024  0.1246 -0.1722  0.2914
20836SOL     OW64514   5.897   7.081   0.376  0.2069 -0.1897 -0.0925
20836SOL    HW164515   5.822   7.055   0.322 -1.1020 -1.1640  2.0488
20836SOL    HW264516   5.885   7.175   0.390  0.2826 -0.0297 -1.0395
20837SOL     OW64517   6.333  10.476   8.945  0.0731  0.0318  0.0274
20837SOL    HW164518   6.250  10.509   8.979 -1.2605 -0.1034 -2.7963
20837SOL    HW264519   6.382  10.554   8.920  0.9249  0.1173  1.8044
20838SOL     OW64520   7.973   7.380   7.463 -0.5614  0.1615  0.1917
20838SOL    HW164521   8.042   7.419   7.517  2.3421 -2.1324 -1.5008
20838SOL    HW264522   7.975   7.431   7.382  0.8245 -1.2121 -0.7012
20839SOL     OW64523   9.201   0.744   4.313  0.3010 -0.0932  0.1983
20839SOL    HW164524   9.260   0.748   4.238  0.7388 -0.4464  0.5152
20839SOL    HW264525   9.227   0.816   4.369  0.3198 -0.1479  0.2601
20840SOL     OW64526   1.596   3.920   8.520 -0.0861 -0.1624  0.0860
20840SOL    HW164527   1.656   3.950   8.452 -0.7834  1.0993 -0.0032
20840SOL    HW264528   1.509   3.943   8.486 -0.4810 -0.0737  1.1248
20841SOL     OW64529   6.266   4.703   0.678 -0.0518 -0.1183  0.3684
20841SOL    HW164530   6.216   4.718   0.598  0.2518  0.4567  0.2767
20841SOL    HW264531   6.242   4.615   0.705  0.2484 -0.5274 -0.6512
20842SOL     OW64532   7.999   7.773   3.124 -0.4070  0.1717 -0.3913
20842SOL    HW164533   8.011   7.864   3.152 -1.9478  0.7940 -1.5776
20842SOL    HW264534   7.928   7.777   3.060  0.7136 -1.6258 -1.8482
20843SOL     OW64535   1.918   1.291   1.806 -0.1614 -0.0857 -0.4884
20843SOL    HW164536   1.839   1.337   1.835  0.0619 -0.1380  0.2293
20843SOL    HW264537   1.937   1.229   1.877 -0.2222 -0.9952 -1.2463
20844SOL     OW64538   4.058   9.045   3.188  0.5483  0.1380  0.1134
20844SOL    HW164539   3.993   8.987   3.227  1.5133 -1.1599 -0.1285
20844SOL    HW264540   4.022   9.133   3.198  0.4394 -0.1575  3.3604
20845SOL     OW64541   2.415   6.477   6.246  0.2382  0.7744  0.1734
20845SOL    HW164542   2.399   6.563   6.286 -0.2449  0.8861 -0.2408
20845SOL    HW264543   2.339   6.424   6.273 -1.0198  1.3683 -1.9951
20846SOL     OW64544   1.679   7.412   1.292  0.4105  0.2005 -1.1110
20846SOL    HW164545   1.633   7.400   1.209  0.7601 -0.9947 -1.1431
20846SOL    HW264546   1.673   7.506   1.309 -0.6767  0.2841 -1.8933
20847SOL     OW64547   0.499   2.805   4.795 -0.3610  0.2290  0.0925
20847SOL    HW164548   0.420   2.834   4.842 -0.4334  0.0613  0.0753
20847SOL    HW264549   0.498   2.856   4.714 -0.3379  0.3812  0.1879
20848SOL     OW64550   6.820  10.477   4.948 -0.1322 -0.6306  0.3670
20848SOL    HW164551   6.840  10.483   4.854  0.6038  0.2364  0.5647
20848SOL    HW264552   6.731  10.510   4.956 -0.8951 -2.3897 -0.2339
20849SOL     OW64553   2.229   2.006   1.087  0.4316  0.1345 -0.6435
20849SOL    HW164554   2.249   1.913   1.094  0.1286  0.1537  0.8561
20849SOL    HW264555   2.312   2.050   1.106  0.3333  0.1693 -0.2852
20850SOL     OW64556   2.538  10.869   4.481  0.0730 -0.1451  0.2131
20850SOL    HW164557   2.561  10.881   4.574  0.1091  0.0525  0.1787
20850SOL    HW264558   2.606  10.811   4.448  0.3932  0.2506  0.1697
20851SOL     OW64559   2.005   7.741   9.234 -0.3102  0.6022  0.2208
20851SOL    HW164560   1.926   7.774   9.190 -0.8200  1.1242  1.4757
20851SOL    HW264561   1.995   7.770   9.325  0.8987 -0.1121  0.5962
20852SOL     OW64562   1.451   6.662   9.309 -0.1911 -0.4065 -0.4700
20852SOL    HW164563   1.443   6.574   9.346 -0.5756 -0.4385 -0.6311
20852SOL    HW264564   1.389   6.716   9.359 -0.4745 -0.3801 -0.8404
20853SOL     OW64565   6.519  10.624   1.582  0.5963  0.0894 -0.6708
20853SOL    HW164566   6.537  10.543   1.629 -1.8761  0.5092  1.2224
20853SOL    HW264567   6.524  10.601   1.490  0.5594 -2.0651 -0.1706
20854SOL     OW64568   8.826   6.867   0.804  0.1651 -0.0107 -0.0188
20854SOL    HW164569   8.907   6.918   0.813 -0.4443  1.1113 -0.6725
20854SOL    HW264570   8.819   6.818   0.886  1.9046 -0.7361 -0.2544
20855SOL     OW64571   6.144   4.229   4.995 -0.1258  0.7924  0.6902
20855SOL    HW164572   6.122   4.142   5.029 -0.4320  1.4308  2.2053
20855SOL    HW264573   6.235   4.242   5.022  0.0923  0.7454  0.0020
20856SOL     OW64574   0.261   7.472   0.200  0.2367  0.1331 -0.2079
20856SOL    HW164575   0.171   7.457   0.172 -0.0657  0.7733  0.4027
20856SOL    HW264576   0.314   7.445   0.125 -0.4425 -0.5273 -0.4632
20857SOL     OW64577   8.215   3.247   1.892 -0.1604 -0.6307 -0.5799
20857SOL    HW164578   8.159   3.313   1.851 -0.3690  0.9363  1.9404
20857SOL    HW264579   8.154   3.191   1.940  0.2139  1.6234  2.9322
20858SOL     OW64580   6.775   7.437   7.601  0.7082  0.1572  0.1077
20858SOL    HW164581   6.690   7.412   7.566 -0.3418 -0.1236  2.6439
20858SOL    HW264582   6.810   7.357   7.640  0.9494  0.8170  1.3019
20859SOL     OW64583   2.342   3.512   9.825  0.0829  0.1935 -1.2533
20859SOL    HW164584   2.350   3.563   9.905 -3.3010 -1.4723  0.3579
20859SOL    HW264585   2.321   3.577   9.757  0.0666  1.3453 -0.1864
20860SOL     OW64586   7.583   0.844   1.904  0.0800 -0.6321 -0.1484
20860SOL    HW164587   7.622   0.883   1.983 -0.4837  0.9851 -0.6154
20860SOL    HW264588   7.620   0.895   1.832 -0.6356 -1.0182 -0.8039
20861SOL     OW64589   9.409   0.026   1.361  0.0015  0.1421 -0.0316
20861SOL    HW164590   9.369  -0.059   1.341 -0.2242 -0.0017  0.9684
20861SOL    HW264591   9.342   0.073   1.411  0.7189  0.2795  0.8305
20862SOL     OW64592   0.333   7.466   5.408  0.0001  0.0997  0.3438
20862SOL    HW164593   0.339   7.387   5.462 -0.4330  0.4529  0.9278
20862SOL    HW264594   0.266   7.520   5.452  0.0742  0.6582 -0.2113
20863SOL     OW64595   8.971   5.266   3.170 -0.3480 -0.0519 -0.0009
20863SOL    HW164596   8.940   5.355   3.156  1.6050  0.9376  1.4695
20863SOL    HW264597   9.060   5.276   3.204 -0.1854 -2.5530  0.5506
20864SOL     OW64598   0.912  10.190   2.575  0.0388 -0.0330 -0.0947
20864SOL    HW164599   0.855  10.171   2.501  2.3696  1.2532 -2.3633
20864SOL    HW264600   0.905  10.284   2.588 -0.0072 -0.1801  1.0849
20865SOL     OW64601   7.446   1.603   7.302  0.1789  0.4255  0.5649
20865SOL    HW164602   7.436   1.512   7.331  0.6065 -0.1224 -0.9023
20865SOL    HW264603   7.412   1.603   7.213  1.1581  1.4667  0.1772
20866SOL     OW64604   7.791   0.200  10.022  0.4659 -0.3307 -0.0638
20866SOL    HW164605   7.874   0.212  10.068  1.2687  1.6407 -1.8622
20866SOL    HW264606   7.805   0.238   9.936 -2.5361  0.7352 -0.2112
20867SOL     OW64607   8.110   0.635   2.833 -0.3255 -0.0021  0.5747
20867SOL    HW164608   8.177   0.629   2.765 -0.7617  0.6933  0.0704
20867SOL    HW264609   8.145   0.583   2.905  0.6037  0.0756  0.1987
20868SOL     OW64610   3.777   9.321   6.660 -0.0358  0.1582  0.3535
20868SOL    HW164611   3.837   9.363   6.599 -0.3090  2.4007  1.5368
20868SOL    HW264612   3.716   9.273   6.604  0.1009  1.6109 -1.1275
20869SOL     OW64613   8.772   0.474   5.889 -0.2746  0.3496  0.4408
20869SOL    HW164614   8.701   0.429   5.935 -0.8333  1.5543  0.7797
20869SOL    HW264615   8.850   0.421   5.909 -0.9172 -0.4895  0.7908
20870SOL     OW64616  10.857   2.269   6.435 -0.1718 -0.1987  0.0684
20870SOL    HW164617  10.800   2.331   6.389 -1.0781 -0.7430  0.4454
20870SOL    HW264618  10.798   2.200   6.466  0.6793 -0.7252  0.5466
20871SOL     OW64619   2.182  10.591   2.032 -0.0139  0.2082 -0.1439
20871SOL    HW164620   2.273  10.569   2.012  0.3111  2.2207 -1.1997
20871SOL    HW264621   2.134  10.562   1.954  0.3250  2.4395 -1.2579
20872SOL     OW64622   7.618   2.134   3.348 -0.1272  0.6683 -0.5897
20872SOL    HW164623   7.671   2.169   3.276 -1.1162  0.3941 -1.4810
20872SOL    HW264624   7.639   2.041   3.350  1.1093  0.9392  0.5652
20873SOL     OW64625   1.223   5.302   0.768  0.0809  0.6224 -0.5208
20873SOL    HW164626   1.259   5.380   0.810  1.2598 -0.1570 -0.0538
20873SOL    HW264627   1.265   5.228   0.812 -0.1180 -0.2624 -1.7429
20874SOL     OW64628  10.252  10.903   2.062 -0.1822  0.4312 -0.0744
20874SOL    HW164629  10.267  10.893   1.968 -1.0011  0.9135 -0.2634
20874SOL    HW264630  10.326  10.957   2.092 -0.4373  1.0974 -0.6248
20875SOL     OW64631  10.997   0.318   1.531  0.1633 -0.4393  0.1559
20875SOL    HW164632  11.062   0.251   1.554  0.2029 -0.6600 -0.5689
20875SOL    HW264633  11.048   0.398   1.519  0.3866 -0.7318 -0.9472
20876SOL     OW64634   8.070  10.035   6.557 -0.3173 -0.2533  0.0730
20876SOL    HW164635   8.102  10.125   6.557  1.6502 -0.8708  1.5818
20876SOL    HW264636   8.039  10.020   6.647  0.8655 -1.4985  0.3223
20877SOL     OW64637  10.607  10.331   2.800 -0.6427  0.8999 -0.1282
20877SOL    HW164638  10.617  10.375   2.884  3.3309  1.2533 -0.5714
20877SOL    HW264639  10.568  10.396   2.742 -1.4498  1.3599  0.9175
20878SOL     OW64640   8.072   4.596   0.415  0.0490  0.2145  0.5612
20878SOL    HW164641   8.107   4.527   0.358  0.7218 -1.1100  2.4750
20878SOL    HW264642   7.997   4.631   0.367 -0.6377 -2.2117 -0.2904
20879SOL     OW64643   2.386   6.042   0.398 -0.5893  0.1652  0.3255
20879SOL    HW164644   2.314   6.093   0.361  0.7094  0.7192 -1.5449
20879SOL    HW264645   2.354   6.016   0.485 -1.5445  3.6993  1.2055
20880SOL     OW64646   3.807   0.986   6.694 -0.0161 -0.4492  0.1265
20880SOL    HW164647   3.730   1.037   6.668 -0.4166 -1.5122 -0.8488
20880SOL    HW264648   3.815   0.919   6.626  0.3718 -1.8109  1.4695
20881SOL     OW64649   1.945   6.464   9.535  1.0250 -0.3774  0.7498
20881SOL    HW164650   1.964   6.430   9.447 -0.9288  0.4929 -0.0543
20881SOL    HW264651   1.851   6.454   9.545  1.1528 -0.0384  2.5914
20882SOL     OW64652  10.635   4.451   1.804 -0.4799 -0.1578  0.0123
20882SOL    HW164653  10.602   4.368   1.839 -0.8649  0.0962  0.2683
20882SOL    HW264654  10.563   4.484   1.750 -0.0333 -0.3636 -0.7267
20883SOL     OW64655   4.608   6.981   1.844 -0.4868 -0.0603 -0.0347
20883SOL    HW164656   4.559   7.018   1.917  1.4302  2.1928  0.2150
20883SOL    HW264657   4.631   6.892   1.873 -1.4940  0.0652  1.2226
20884SOL     OW64658   1.738   4.807   2.766 -0.3986  0.3474  0.0381
20884SOL    HW164659   1.818   4.830   2.718 -1.4015  0.1556 -1.8528
20884SOL    HW264660   1.697   4.892   2.786 -1.2002  0.4437 -1.7560
20885SOL     OW64661   9.746   8.238   1.453  0.2748 -0.4153 -0.1195
20885SOL    HW164662   9.776   8.286   1.376 -0.2487 -1.1474 -0.7764
20885SOL    HW264663   9.736   8.148   1.424 -2.5980 -0.2353  0.0323
20886SOL     OW64664   6.752   3.677   1.505  0.1497  0.1359 -0.2093
20886SOL    HW164665   6.732   3.728   1.427 -1.8346 -0.2360  0.0082
20886SOL    HW264666   6.688   3.606   1.505  1.5519 -1.1786  0.5867
20887SOL     OW64667   9.871   8.146   0.272 -0.4620 -0.4951  0.5559
20887SOL    HW164668   9.961   8.149   0.305 -0.2358  0.6908 -0.1128
20887SOL    HW264669   9.819   8.184   0.343 -0.3187 -0.3747  0.5985
20888SOL     OW64670   3.564   9.130   5.725 -0.2030  0.2235  0.0974
20888SOL    HW164671   3.557   9.195   5.795 -0.6518 -0.4450  0.6949
20888SOL    HW264672   3.617   9.060   5.763  0.4935  0.3532 -0.6270
20889SOL     OW64673   9.955   8.704   0.417  0.0966 -0.1541  0.1132
20889SOL    HW164674  10.029   8.765   0.417 -0.5750  0.6662  0.4804
20889SOL    HW264675   9.965   8.654   0.336  0.1125  1.0940 -0.6761
20890SOL     OW64676   5.680   2.895  10.676 -0.0766 -0.4312 -0.1619
20890SOL    HW164677   5.677   2.802  10.654  1.7638 -0.0818 -2.2151
20890SOL    HW264678   5.609   2.934  10.624  0.0775 -0.4965 -0.4232
20891SOL     OW64679   2.929   9.619   8.889 -0.3004  0.1819  0.1781
20891SOL    HW164680   2.982   9.550   8.848 -1.3102 -0.0550 -0.7798
20891SOL    HW264681   2.867   9.644   8.822  0.4300  2.5006  0.2932
20892SOL     OW64682   8.698   0.605   2.110  0.1251  0.6409 -0.1614
20892SOL    HW164683   8.619   0.561   2.139 -0.2623  1.4095 -0.0194
20892SOL    HW264684   8.725   0.659   2.185  0.6923  0.5116 -0.2641
20893SOL     OW64685   5.838   1.121   6.669 -0.0054 -0.8439 -0.5296
20893SOL    HW164686   5.814   1.210   6.644 -1.9956 -1.5940 -1.5349
20893SOL    HW264687   5.923   1.130   6.712 -0.0152  1.4832 -0.8685
20894SOL     OW64688   4.952   5.697   6.599 -0.1231  0.0101 -0.3781
20894SOL    HW164689   4.915   5.710   6.511 -0.0575 -0.7182 -0.5214
20894SOL    HW264690   5.035   5.745   6.597 -0.6023  0.8653 -0.3632
20895SOL     OW64691   0.622  10.400   5.098 -0.2046 -0.5524 -0.3885
20895SOL    HW164692   0.686  10.434   5.160 -0.8036  3.2911 -1.6251
20895SOL    HW264693   0.674  10.376   5.021 -0.0320  1.2424 -0.8723
20896SOL     OW64694   1.270   8.142   2.409 -0.3106 -0.2219 -0.3504
20896SOL    HW164695   1.213   8.137   2.332 -1.1059  1.7040  0.0725
20896SOL    HW264696   1.356   8.161   2.374 -0.5671  0.1345 -0.7986
20897SOL     OW64697   6.337   5.781   7.685 -0.2716  0.0933 -0.3953
20897SOL    HW164698   6.349   5.764   7.779 -0.7973 -1.3357 -0.5627
20897SOL    HW264699   6.425   5.771   7.648  0.0806  1.4098  0.0295
20898SOL     OW64700   0.465   4.728   2.382  0.4231 -0.0302  0.2451
20898SOL    HW164701   0.371   4.718   2.366  0.2436 -0.9315  1.6764
20898SOL    HW264702   0.505   4.718   2.296 -0.7299 -0.7523 -0.2389
20899SOL     OW64703   5.335   5.521   4.158  0.0432  0.1386  0.1500
20899SOL    HW164704   5.370   5.467   4.229  0.5805 -2.1230 -1.7380
20899SOL    HW264705   5.264   5.468   4.121  1.4983 -0.0261 -2.6725
20900SOL     OW64706   6.520   2.157  10.169 -0.0873  0.0369 -0.6981
20900SOL    HW164707   6.452   2.142  10.103  0.1647 -0.8842 -0.7529
20900SOL    HW264708   6.569   2.232  10.136 -1.1282  0.7893 -0.6102
20901SOL     OW64709   0.745   8.618   1.702 -0.0513 -0.3531 -0.9592
20901SOL    HW164710   0.768   8.705   1.734 -0.6081 -0.3076 -0.6830
20901SOL    HW264711   0.813   8.560   1.738 -0.9132 -0.3775  0.6844
20902SOL     OW64712   8.690   0.501   3.334 -0.2528  0.2100 -0.3300
20902SOL    HW164713   8.630   0.445   3.382 -0.2071  0.0770 -0.4276
20902SOL    HW264714   8.670   0.484   3.242  0.3548 -0.3058 -0.3775
20903SOL     OW64715   1.557   3.476   8.815  0.4739  0.2602 -0.1956
20903SOL    HW164716   1.560   3.538   8.742  1.1129  0.6244  0.1327
20903SOL    HW264717   1.625   3.506   8.875  1.0783 -0.9869 -0.2182
20904SOL     OW64718   2.524   9.515   7.908 -0.3455 -0.3873 -0.3784
20904SOL    HW164719   2.438   9.474   7.905 -0.6164  0.0532  0.7973
20904SOL    HW264720   2.506   9.608   7.894 -0.2974 -0.0394  1.5545
20905SOL     OW64721   7.880   3.126   5.936  0.1658  0.2243  0.0388
20905SOL    HW164722   7.800   3.168   5.906 -1.3525 -0.1557  3.1325
20905SOL    HW264723   7.930   3.196   5.979  0.4434  0.0034  0.0822
20906SOL     OW64724   0.919  10.744   6.502  0.0641 -0.7090  0.0674
20906SOL    HW164725   1.011  10.763   6.483 -0.1107  1.4608  1.1083
20906SOL    HW264726   0.874  10.827   6.486 -1.5562 -1.4521  0.5875
20907SOL     OW64727   5.108   1.221   1.427  0.1514 -0.1697  0.2305
20907SOL    HW164728   5.058   1.297   1.457 -0.3406 -0.1081 -0.7081
20907SOL    HW264729   5.043   1.162   1.389  0.5053 -1.1577  1.0933
20908SOL     OW64730   0.144   9.595   8.771  1.2158  0.3479  0.3918
20908SOL    HW164731   0.120   9.570   8.682  2.7329 -0.2296  0.1286
20908SOL    HW264732   0.075   9.656   8.798  1.1589  1.1568 -1.4645
20909SOL     OW64733   2.720   6.945   9.655  0.3777 -0.9373 -0.3309
20909SOL    HW164734   2.731   6.958   9.750  1.5069 -2.6475 -0.1741
20909SOL    HW264735   2.628   6.922   9.645 -0.0344  0.4048  0.1870
20910SOL     OW64736   3.331  10.826   6.960  0.3401 -0.1837  0.0712
20910SOL    HW164737   3.244  10.786   6.952 -0.8510  2.0113  1.1332
20910SOL    HW264738   3.350  10.858   6.872  0.5962 -1.6025 -0.4162
20911SOL     OW64739   5.077   9.607   3.210  0.6355  1.1436  0.2687
20911SOL    HW164740   5.043   9.597   3.122  0.0712  2.1096  0.3654
20911SOL    HW264741   5.092   9.518   3.241  0.1252  0.7821 -0.5226
20912SOL     OW64742   1.347   0.374   2.573  0.2480 -0.0917 -0.3063
20912SOL    HW164743   1.435   0.346   2.600  0.6696  0.8532 -0.6713
20912SOL    HW264744   1.288   0.329   2.635  0.8456 -2.0670 -1.0799
20913SOL     OW64745   9.350   9.017   5.205 -0.0291 -0.1947  0.3025
20913SOL    HW164746   9.294   9.071   5.149 -1.0391  1.1133  2.4831
20913SOL    HW264747   9.439   9.044   5.182 -0.4494  0.8259 -0.1813
20914SOL     OW64748   0.227   1.340   1.812 -0.5195 -0.0321  0.5657
20914SOL    HW164749   0.217   1.270   1.877 -0.9145  0.0477  0.5891
20914SOL    HW264750   0.230   1.294   1.728 -0.8557 -0.0728  0.5752
20915SOL     OW64751  10.162   8.837   3.374 -1.1450 -0.0319 -0.3347
20915SOL    HW164752  10.154   8.768   3.309 -1.2438 -0.6047  0.2694
20915SOL    HW264753  10.247   8.821   3.416 -0.8623  0.6206 -0.6455
20916SOL     OW64754   9.076   7.400   5.367 -0.1422  0.1460 -0.3121
20916SOL    HW164755   9.088   7.357   5.282 -2.6126 -1.2319 -0.0526
20916SOL    HW264756   9.033   7.334   5.421  1.0259  1.1278  1.9221
20917SOL     OW64757   2.216   5.429  10.468  0.1714  0.3477  0.7141
20917SOL    HW164758   2.139   5.460  10.516 -0.0368  0.4848  0.2989
20917SOL    HW264759   2.252   5.508  10.427  0.2001  0.1972  0.4446
20918SOL     OW64760   8.227   1.299   6.120  0.2730 -0.9997 -0.5434
20918SOL    HW164761   8.293   1.238   6.086  2.0217  0.1729  0.6260
20918SOL    HW264762   8.218   1.366   6.053  0.6356 -0.9096 -0.5025
20919SOL     OW64763   1.673   2.736  10.261  0.7108 -0.9875 -0.3559
20919SOL    HW164764   1.622   2.655  10.261  0.9986 -1.1727 -0.1382
20919SOL    HW264765   1.649   2.780  10.342 -0.9319  0.1125 -1.3808
20920SOL     OW64766   9.485   8.689   4.105 -0.3557 -0.3228  0.0321
20920SOL    HW164767   9.456   8.655   4.190 -0.4293 -1.1687 -0.3160
20920SOL    HW264768   9.547   8.623   4.073  2.2283  1.5544  0.8573
20921SOL     OW64769   8.423   5.823   6.751 -0.2711 -0.7224  0.1707
20921SOL    HW164770   8.363   5.751   6.738 -1.1719 -0.1596  1.0180
20921SOL    HW264771   8.403   5.856   6.839  0.0376  0.6141 -0.2244
20922SOL     OW64772   2.252   9.854   9.814  0.0641  0.9223 -0.0972
20922SOL    HW164773   2.211   9.771   9.841 -0.9069  0.7432 -1.9607
20922SOL    HW264774   2.187   9.921   9.838 -0.6736  0.7889 -1.6090
20923SOL     OW64775   6.951   9.926   6.799 -0.1336  0.1434  0.4841
20923SOL    HW164776   6.873   9.905   6.747 -1.2134  1.2789  1.5806
20923SOL    HW264777   6.945   9.867   6.874  1.5214 -1.6273 -0.7008
20924SOL     OW64778   4.110   7.667   3.073  0.5280 -0.2903 -0.3471
20924SOL    HW164779   4.024   7.651   3.112  0.4311  1.0740  0.0442
20924SOL    HW264780   4.095   7.662   2.979  0.1145 -0.5309 -0.2696
20925SOL     OW64781   4.663   2.484   4.855  0.2839  0.6494 -0.2859
20925SOL    HW164782   4.658   2.400   4.810  2.1343 -1.1304  2.5001
20925SOL    HW264783   4.723   2.537   4.803  0.5941 -0.4786 -1.0905
20926SOL     OW64784   1.072   5.073   0.196 -0.3934  0.6521 -0.4809
20926SOL    HW164785   1.009   5.118   0.251 -0.7284 -1.9328  1.4180
20926SOL    HW264786   1.019   5.024   0.133 -0.1229  0.9392 -0.9436
20927SOL     OW64787   2.861   9.484   0.126 -0.0129  0.4457  0.1572
20927SOL    HW164788   2.906   9.554   0.175 -0.6009  1.7266 -1.0550
20927SOL    HW264789   2.907   9.480   0.043 -0.0205 -0.6065  0.1963
20928SOL     OW64790   4.249   4.503   4.910 -0.5459  0.1131 -0.0249
20928SOL    HW164791   4.283   4.592   4.903 -0.1297 -0.0983 -0.7593
20928SOL    HW264792   4.157   4.515   4.934  0.3706  0.6780  3.9854
20929SOL     OW64793   7.435   2.706   7.531 -0.1456  0.4773 -0.2996
20929SOL    HW164794   7.388   2.767   7.587  0.3229 -0.1142  0.7579
20929SOL    HW264795   7.526   2.736   7.533 -0.2079  0.7491 -1.1542
20930SOL     OW64796  10.447   6.431   6.995  0.4384  0.3675 -0.6467
20930SOL    HW164797  10.526   6.457   7.044  0.3802  0.5317 -0.6384
20930SOL    HW264798  10.481   6.394   6.914  0.5017  1.3090 -1.0613
20931SOL     OW64799   0.040   9.991   6.622 -0.2552  0.0677  0.0200
20931SOL    HW164800   0.051   9.962   6.531 -0.8253 -0.1888  0.0321
20931SOL    HW264801   0.128   9.988   6.659  0.1697  1.2115 -0.8303
20932SOL     OW64802   7.098   3.485   2.744  0.1152 -0.3358 -0.2870
20932SOL    HW164803   7.058   3.437   2.816  1.1468  0.9128  1.1947
20932SOL    HW264804   7.029   3.546   2.716  0.5345  1.1227  1.5924
20933SOL     OW64805   8.654  10.303   2.993 -0.3533  0.1264 -0.5859
20933SOL    HW164806   8.706  10.373   3.032 -0.4859 -1.0289  1.8367
20933SOL    HW264807   8.602  10.268   3.065 -1.8325 -1.1445 -2.1538
20934SOL     OW64808   8.703   5.755   7.002  0.2648  0.2526  0.5103
20934SOL    HW164809   8.683   5.815   7.073 -2.5459  1.2680 -0.9800
20934SOL    HW264810   8.778   5.795   6.958  0.3754  1.0265  1.3693
20935SOL     OW64811   8.995  11.028   1.486  0.4751 -0.1271  0.2619
20935SOL    HW164812   9.063  10.975   1.527  1.2769  1.3449  0.9189
20935SOL    HW264813   8.913  10.985   1.510  1.0128 -0.1805  2.1401
20936SOL     OW64814   3.472   0.862   1.409  0.1776  0.0494 -0.4036
20936SOL    HW164815   3.447   0.953   1.395  1.2004  0.6327  1.2755
20936SOL    HW264816   3.521   0.863   1.492 -1.9971 -2.4092  1.0796
20937SOL     OW64817   9.209   8.773   4.752 -0.4304 -1.0664  0.6208
20937SOL    HW164818   9.123   8.770   4.796 -2.1849  0.4196 -2.3815
20937SOL    HW264819   9.202   8.707   4.683  0.3440 -0.0550 -0.4474
20938SOL     OW64820  10.574   9.023   0.342 -0.0476  0.3578 -0.1904
20938SOL    HW164821  10.527   9.094   0.383  1.4546  0.9957  0.5210
20938SOL    HW264822  10.657   9.062   0.315 -0.3996 -0.3961 -2.5633
20939SOL     OW64823   1.688   4.669   5.521  0.3213  0.7541  0.4924
20939SOL    HW164824   1.649   4.742   5.568  0.9879  1.0614  0.5827
20939SOL    HW264825   1.681   4.595   5.582  0.6698  1.0185  0.8603
20940SOL     OW64826   0.222   4.322   7.323  0.1826 -0.7366  0.4271
20940SOL    HW164827   0.309   4.323   7.364  1.3051 -0.7761 -1.8359
20940SOL    HW264828   0.218   4.403   7.273 -0.6252 -1.2805 -0.4154
20941SOL     OW64829   8.970   0.652   6.105 -0.2778 -0.3970 -0.1992
20941SOL    HW164830   8.926   0.694   6.179 -1.7434 -1.7494 -0.2361
20941SOL    HW264831   8.911   0.667   6.031 -0.0033 -1.0682 -0.5651
20942SOL     OW64832   4.414   1.879   9.904 -0.3884 -0.1385 -0.0022
20942SOL    HW164833   4.466   1.807   9.868  0.8453  0.1470  1.1116
20942SOL    HW264834   4.379   1.844   9.986  1.0630  0.8071  1.0722
20943SOL     OW64835   5.449   5.451   3.215  0.1613  0.0763 -0.4795
20943SOL    HW164836   5.539   5.475   3.235 -0.2049  0.8092  0.3284
20943SOL    HW264837   5.451   5.355   3.206  0.7938 -0.0404  0.7418
20944SOL     OW64838   0.538   0.742   6.900  0.1000  0.6043  0.4172
20944SOL    HW164839   0.528   0.837   6.909  0.2802  0.7077 -0.3835
20944SOL    HW264840   0.572   0.713   6.985 -0.4021  1.1897  0.8232
20945SOL     OW64841   3.085   9.021   2.940  0.1563  0.2576  0.0392
20945SOL    HW164842   3.069   8.927   2.938 -0.0124  0.2786 -2.2028
20945SOL    HW264843   2.998   9.060   2.941  0.1198  0.3408 -1.8481
20946SOL     OW64844   0.077   9.953   1.371 -0.3840  1.0970 -0.0723
20946SOL    HW164845   0.005   9.893   1.390  0.0504  0.7377  0.4628
20946SOL    HW264846   0.035  10.029   1.331 -0.7123 -0.5374 -3.1647
20947SOL     OW64847   8.700   7.926   4.977 -0.6922  0.3624  0.1150
20947SOL    HW164848   8.709   7.945   5.070 -0.2548  0.0535  0.1423
20947SOL    HW264849   8.784   7.886   4.953  0.6546  3.6317 -1.2183
20948SOL     OW64850   1.207   8.585   9.846 -0.0872  0.3336 -0.8704
20948SOL    HW164851   1.250   8.669   9.829  1.2411  0.0388  0.7437
20948SOL    HW264852   1.268   8.520   9.811  0.5266 -0.0684  0.8656
20949SOL     OW64853   5.343   4.452   0.779 -0.6318  0.3365 -0.3524
20949SOL    HW164854   5.355   4.413   0.865  0.1497 -0.7705 -0.9342
20949SOL    HW264855   5.263   4.412   0.745  0.1975 -0.8805 -0.9702
20950SOL     OW64856   6.633   9.090   2.203 -0.5316  0.9971  0.5267
20950SOL    HW164857   6.611   9.011   2.253  0.5793 -1.2673 -2.3065
20950SOL    HW264858   6.678   9.145   2.266 -0.4667 -1.0525  2.4073
20951SOL     OW64859   1.694   0.753   5.347 -0.2399  0.4917 -0.2431
20951SOL    HW164860   1.636   0.758   5.424  0.1190 -0.4468  0.1033
20951SOL    HW264861   1.651   0.808   5.282 -2.3999 -1.3678 -0.5338
20952SOL     OW64862   7.818   7.866   3.391  0.2621  0.1350  0.8443
20952SOL    HW164863   7.767   7.790   3.361  1.6176 -0.3990 -0.2342
20952SOL    HW264864   7.768   7.942   3.361  1.1843 -0.3699 -2.2915
20953SOL     OW64865   7.402   9.318   7.518 -0.2995  0.0442  0.1504
20953SOL    HW164866   7.419   9.225   7.502  1.2163  0.1056  1.2058
20953SOL    HW264867   7.312   9.321   7.551 -1.4134 -0.6878 -2.5069
20954SOL     OW64868   5.147   8.425   3.523 -0.2560  0.4908  0.6744
20954SOL    HW164869   5.231   8.469   3.539  0.3895 -0.5944  0.3427
20954SOL    HW264870   5.132   8.374   3.602 -0.2042  0.0544  0.4017
20955SOL     OW64871   9.887   2.132   1.791 -0.4452  0.0868  0.2772
20955SOL    HW164872   9.958   2.193   1.811  1.0186 -1.0273 -1.2069
20955SOL    HW264873   9.810   2.170   1.832  0.7851  1.9367  0.9901
20956SOL     OW64874   4.674   6.926   9.210  0.1669 -0.5657 -0.5822
20956SOL    HW164875   4.720   6.876   9.143  0.3899  0.0878 -0.9288
20956SOL    HW264876   4.744   6.963   9.264  0.0070 -0.5717 -0.3706
20957SOL     OW64877   9.312   4.947   5.446 -0.2927  0.6713  0.1584
20957SOL    HW164878   9.266   5.009   5.504 -0.8292  2.3325 -1.9062
20957SOL    HW264879   9.400   4.985   5.437  0.1322 -0.1631  0.6947
20958SOL     OW64880   9.727   9.820   8.711  0.1409  0.5095  0.1089
20958SOL    HW164881   9.680   9.903   8.711  0.6121  0.8376 -2.0413
20958SOL    HW264882   9.818   9.844   8.696  0.3548 -0.3614 -0.0381
20959SOL     OW64883   4.853   9.806   4.642 -0.0568 -0.7238 -0.0343
20959SOL    HW164884   4.791   9.778   4.710 -2.6353 -2.0503 -2.7142
20959SOL    HW264885   4.927   9.745   4.651  0.0941 -0.3143  2.0330
20960SOL     OW64886   9.043   6.306   5.505  0.3442  0.7972  0.4913
20960SOL    HW164887   9.110   6.293   5.437  0.0229  1.3577  0.0630
20960SOL    HW264888   9.024   6.217   5.536 -1.6181  0.1670 -2.1673
20961SOL     OW64889   3.092   2.235   5.667  0.3597 -0.1247 -0.2225
20961SOL    HW164890   3.140   2.152   5.659 -0.8591 -0.6550 -3.1623
20961SOL    HW264891   3.014   2.212   5.718  0.7152 -0.4289  0.1991
20962SOL     OW64892   8.748   9.393   7.996  0.4706  0.0890  0.1015
20962SOL    HW164893   8.774   9.413   8.086 -1.4328 -0.9932  0.9543
20962SOL    HW264894   8.806   9.322   7.969  1.5864  0.9578  0.1513
20963SOL     OW64895   6.193   8.785   9.807  0.7648  0.1758  0.3081
20963SOL    HW164896   6.181   8.750   9.895  0.4006  1.3507  0.7514
20963SOL    HW264897   6.264   8.848   9.816  1.0622 -0.0629 -0.3502
20964SOL     OW64898   3.991   4.252   3.529  0.0611 -0.2899 -0.3848
20964SOL    HW164899   4.025   4.192   3.462 -1.8528 -0.0549 -1.6452
20964SOL    HW264900   4.019   4.339   3.499 -0.5524 -0.2115 -0.7515
20965SOL     OW64901  10.192   5.819   1.344  0.5492 -0.1195  0.3859
20965SOL    HW164902  10.248   5.753   1.303  0.1821 -0.1177 -0.1256
20965SOL    HW264903  10.228   5.902   1.313  0.6005 -0.1005  0.4976
20966SOL     OW64904   5.896   5.845   2.097 -0.1796  0.3097 -0.7540
20966SOL    HW164905   5.968   5.805   2.145  0.8573  2.1155 -0.7167
20966SOL    HW264906   5.830   5.864   2.164  0.7107  1.6242 -0.2236
20967SOL     OW64907   4.162   1.532   8.183 -0.4940 -0.0619 -0.0403
20967SOL    HW164908   4.154   1.460   8.120 -1.4649 -0.0868  0.0922
20967SOL    HW264909   4.237   1.582   8.152 -0.6821 -0.3253 -0.9789
20968SOL     OW64910   6.967   5.110   1.176  0.2197  0.0473 -0.3248
20968SOL    HW164911   6.927   5.088   1.260 -2.4078  2.1008 -0.9026
20968SOL    HW264912   6.976   5.205   1.177 -0.0029  0.1427 -2.4068
20969SOL     OW64913   3.982   1.145  10.282  0.3587  0.0766  0.4344
20969SOL    HW164914   3.925   1.173  10.355  1.3529  0.1434  1.2035
20969SOL    HW264915   4.069   1.174  10.307  0.5372  1.3425 -1.4330
20970SOL     OW64916   0.081   7.312   0.363  0.0818  0.0127 -0.1494
20970SOL    HW164917   0.065   7.229   0.318  1.2228  0.8988 -2.3435
20970SOL    HW264918   0.176   7.322   0.362 -0.0727  1.7998 -0.8845
20971SOL     OW64919   1.084   6.492  10.131  0.5310  0.0968 -0.1363
20971SOL    HW164920   1.067   6.406  10.171 -0.5024  0.9879  1.4633
20971SOL    HW264921   1.044   6.486  10.044 -2.6519 -0.0136  1.1827
20972SOL     OW64922   6.862   3.252   1.507 -0.0852 -0.0924  0.2295
20972SOL    HW164923   6.898   3.164   1.494  0.4333  0.0003  0.9976
20972SOL    HW264924   6.935   3.304   1.540 -0.3205  0.6969 -0.4408
20973SOL     OW64925   0.449   9.655   5.048 -0.0707  0.1886 -0.5920
20973SOL    HW164926   0.401   9.608   5.117 -0.9852  0.6215 -0.9335
20973SOL    HW264927   0.428   9.747   5.062 -2.4124  0.1216 -3.0303
20974SOL     OW64928   4.494   8.958   8.468  0.2175  0.1677  0.2164
20974SOL    HW164929   4.578   8.993   8.495  0.6402  0.6169 -1.5354
20974SOL    HW264930   4.513   8.908   8.389 -0.9024 -1.2471  0.7949
20975SOL     OW64931   1.311  10.315   0.822 -0.0402  0.0641  0.5714
20975SOL    HW164932   1.300  10.250   0.753 -0.4375 -1.9711  2.4220
20975SOL    HW264933   1.405  10.317   0.839 -0.0531 -0.2134  0.6744
20976SOL     OW64934   4.965   2.639   4.389  0.3626  0.3131 -0.7691
20976SOL    HW164935   4.870   2.644   4.404  0.3186 -0.8594 -0.5482
20976SOL    HW264936   4.987   2.721   4.346 -0.2560  1.9494  1.8014
20977SOL     OW64937   4.363   5.112   2.694 -0.1516  0.3189 -0.5609
20977SOL    HW164938   4.428   5.170   2.735 -1.0178  0.7154  0.2950
20977SOL    HW264939   4.365   5.032   2.747  0.6556 -0.2302 -1.4108
20978SOL     OW64940   3.196   3.448   1.127 -0.6451  0.1152 -0.2975
20978SOL    HW164941   3.187   3.466   1.034 -2.0886  1.5734  0.0823
20978SOL    HW264942   3.107   3.438   1.159 -0.1340 -4.1273  0.3195
20979SOL     OW64943   2.215   1.365   9.244 -0.4937 -0.1788 -0.3989
20979SOL    HW164944   2.141   1.420   9.218 -1.4749 -0.0188  2.4113
20979SOL    HW264945   2.188   1.276   9.220 -0.8144  0.0640 -0.9710
20980SOL     OW64946   5.468  10.349   3.601  0.1486  0.0733 -0.2562
20980SOL    HW164947   5.514  10.351   3.685 -0.3645 -4.7420  0.3952
20980SOL    HW264948   5.522  10.404   3.544  3.4148 -0.5496  1.9313
20981SOL     OW64949   2.737   1.342   7.781  0.7788  0.3859 -0.2636
20981SOL    HW164950   2.714   1.424   7.737  1.0621  0.6174  0.0117
20981SOL    HW264951   2.786   1.293   7.715 -0.5148 -0.1291 -0.8657
20982SOL     OW64952   4.175  10.743   9.059  0.3669  0.0030 -0.4507
20982SOL    HW164953   4.159  10.667   9.004 -1.2790  1.2050 -1.7400
20982SOL    HW264954   4.251  10.785   9.020  1.3420 -0.9740  0.3242
20983SOL     OW64955   3.919   9.430   4.999 -0.7325 -0.1569 -0.2122
20983SOL    HW164956   3.958   9.477   5.073  0.3551 -2.2826  0.6708
20983SOL    HW264957   3.825   9.435   5.015 -0.5164 -1.0113  1.6728
20984SOL     OW64958   9.056   2.960   8.619  0.2433  0.4307 -0.2968
20984SOL    HW164959   9.085   3.032   8.675  0.1926  1.2502 -1.3033
20984SOL    HW264960   9.136   2.911   8.599  0.6636  1.5200 -1.4262
20985SOL     OW64961   3.751   4.529   1.858  0.2657 -0.1556 -0.0531
20985SOL    HW164962   3.701   4.473   1.918  0.5937  0.2236  0.5851
20985SOL    HW264963   3.836   4.540   1.902  0.4553  0.2544 -0.5202
20986SOL     OW64964   4.981   7.320   4.892  0.1032  0.6894  0.1781
20986SOL    HW164965   4.977   7.235   4.847  0.1229  0.4301  0.6638
20986SOL    HW264966   4.899   7.363   4.868 -0.4464  0.0501  0.8654
20987SOL     OW64967   6.372   2.741   9.011 -0.2806  0.2198 -0.1783
20987SOL    HW164968   6.368   2.835   9.028 -0.8122  0.2818 -0.6312
20987SOL    HW264969   6.292   2.722   8.963 -0.1181 -0.4456 -0.1929
20988SOL     OW64970   8.921   0.945   1.652  0.0211 -0.2654 -0.3974
20988SOL    HW164971   8.897   0.899   1.732  0.9426 -0.3957 -0.1834
20988SOL    HW264972   8.996   0.897   1.617  0.7731  0.8361 -0.3693
20989SOL     OW64973  10.635  10.127   9.332  0.0462  0.7117 -0.4776
20989SOL    HW164974  10.600  10.206   9.292 -0.6179  1.6479  1.8243
20989SOL    HW264975  10.719  10.154   9.369 -0.1199  0.3145  0.2015
20990SOL     OW64976   3.688   1.126   2.513 -0.0204 -0.3367  0.2389
20990SOL    HW164977   3.644   1.043   2.527  2.3779 -2.0735 -1.6627
20990SOL    HW264978   3.713   1.155   2.601  1.2700 -2.9616  0.8471
20991SOL     OW64979  10.339   1.153   8.945  0.5166  0.3474 -0.5262
20991SOL    HW164980  10.418   1.143   8.997  0.8218 -0.5158 -1.1392
20991SOL    HW264981  10.316   1.246   8.953 -0.5754 -0.0633  2.7637
20992SOL     OW64982   6.883   5.424   5.623  0.1099 -0.4371 -0.0822
20992SOL    HW164983   6.963   5.386   5.659  0.2837  0.2510  0.2689
20992SOL    HW264984   6.895   5.419   5.528  0.4274 -0.6260 -0.0336
20993SOL     OW64985   7.745   7.161   9.081 -0.4953 -0.6092 -0.1679
20993SOL    HW164986   7.703   7.113   9.153 -0.7198 -0.1827 -0.0111
20993SOL    HW264987   7.723   7.111   9.003 -3.8501  1.1355 -0.5329
20994SOL     OW64988   0.903   9.550   3.230 -0.1145 -0.1368 -0.7860
20994SOL    HW164989   0.899   9.527   3.322  3.1243  2.1886  0.1355
20994SOL    HW264990   0.942   9.473   3.187 -0.3970 -0.7255 -0.0026
20995SOL     OW64991  10.758   3.993   1.744  0.3127 -0.0681 -0.0458
20995SOL    HW164992  10.809   4.048   1.804 -1.5814  0.8811  0.7975
20995SOL    HW264993  10.738   4.050   1.670  1.5447 -0.8408 -1.0079
20996SOL     OW64994   7.298   9.330   3.191  0.2965  0.5407 -0.7940
20996SOL    HW164995   7.279   9.266   3.122  0.6281 -0.5775  0.1290
20996SOL    HW264996   7.222   9.326   3.249  0.3534  0.9443 -0.6874
20997SOL     OW64997   6.419   2.723   7.692 -0.4568  0.1336  0.1879
20997SOL    HW164998   6.480   2.788   7.655 -0.1127 -0.7035 -0.7737
20997SOL    HW264999   6.472   2.673   7.754 -0.3241 -0.1488 -0.1438
20998SOL     OW65000   6.169   8.604   0.605 -0.0289  0.2213  0.3412
20998SOL    HW165001   6.235   8.547   0.644 -0.8333 -0.4880  0.6832
20998SOL    HW265002   6.214   8.688   0.594  0.7883 -0.1148  0.9971
20999SOL     OW65003   1.134   7.563   6.397 -0.2658 -0.1483  0.0426
20999SOL    HW165004   1.046   7.559   6.436 -0.6678 -0.8252 -0.9119
20999SOL    HW265005   1.160   7.654   6.409 -2.4109  0.9430 -2.4038
21000SOL     OW65006   1.704   8.380   8.739 -0.0963 -0.1607  0.3259
21000SOL    HW165007   1.678   8.289   8.737  1.3837 -0.5997 -0.7866
21000SOL    HW265008   1.667   8.414   8.821  0.7046 -2.1773  1.5932
21001SOL     OW65009   3.269   2.164   3.956  0.0235 -0.0415 -0.1801
21001SOL    HW165010   3.353   2.186   3.917  0.5781  2.1137  1.9582
21001SOL    HW265011   3.283   2.080   3.999  1.4585  0.7345  0.9721
21002SOL     OW65012   5.726   7.505   3.542  0.0775  0.2726 -0.4620
21002SOL    HW165013   5.730   7.421   3.587 -1.5533  0.3059 -0.1933
21002SOL    HW265014   5.809   7.511   3.493  1.0445 -0.6172  1.0018
21003SOL     OW65015   0.127   9.819   6.131  0.1347 -0.3590  0.6167
21003SOL    HW165016   0.150   9.747   6.071 -1.5705  0.3784 -1.0267
21003SOL    HW265017   0.173   9.797   6.212  3.1553 -1.0453 -1.1023
21004SOL     OW65018   5.313   2.563   0.518  0.0972 -0.4169  0.3785
21004SOL    HW165019   5.407   2.584   0.517  0.5252 -2.2051 -0.2752
21004SOL    HW265020   5.280   2.608   0.595  2.0766 -1.9913  2.2916
21005SOL     OW65021   3.936  10.848   0.809  0.1598  0.2015 -0.1079
21005SOL    HW165022   3.956  10.777   0.870 -3.2665  0.2105  1.2051
21005SOL    HW265023   3.904  10.804   0.730 -0.1318  0.2573 -0.0209
21006SOL     OW65024  10.327   6.073   4.909 -0.2484  0.7090 -0.0324
21006SOL    HW165025  10.334   6.074   5.004  1.6901 -0.5257 -0.0987
21006SOL    HW265026  10.391   6.138   4.880  0.6829 -0.3666 -0.4852
21007SOL     OW65027   4.901   5.794   7.713 -0.3705  0.0761 -0.3049
21007SOL    HW165028   4.856   5.862   7.762 -0.8144 -0.8932  0.6916
21007SOL    HW265029   4.939   5.839   7.637 -1.3784  1.2538 -0.1358
21008SOL     OW65030   3.501   8.516  10.775 -0.0118 -0.0761  0.4898
21008SOL    HW165031   3.481   8.424  10.790  1.6037 -0.5029  0.1566
21008SOL    HW265032   3.594   8.524  10.796 -0.1622  1.5236  0.6704
21009SOL     OW65033  10.260  11.026   0.023 -0.8650  0.2354 -0.3160
21009SOL    HW165034  10.326  11.051  -0.042  0.1236 -0.9067  0.2060
21009SOL    HW265035  10.235  10.937  -0.002  0.6559 -0.8260  1.6937
21010SOL     OW65036   8.962   3.130   7.849 -0.6746 -0.6065  0.7786
21010SOL    HW165037   8.914   3.105   7.928 -0.4637  1.3969  1.5974
21010SOL    HW265038   8.896   3.167   7.791 -0.6204 -0.8959  0.5259
21011SOL     OW65039   8.937   3.596   0.943 -0.2622  0.4561 -0.1738
21011SOL    HW165040   8.984   3.650   1.006  0.2553  1.1791 -1.1342
21011SOL    HW265041   8.860   3.649   0.919  0.0812  0.6467 -0.8883
21012SOL     OW65042   7.130   6.526   9.515  0.3253  0.9668  0.1287
21012SOL    HW165043   7.195   6.460   9.540  0.6006  1.2636  0.2196
21012SOL    HW265044   7.058   6.477   9.478  0.1462  0.5402  1.0026
21013SOL     OW65045   1.341   4.887   0.079 -0.2318  0.5307  0.0186
21013SOL    HW165046   1.413   4.900   0.140  0.8693  1.9317 -1.4839
21013SOL    HW265047   1.266   4.864   0.134  1.1551 -0.1978  1.6853
21014SOL     OW65048   3.373   4.702   7.421  0.0135 -0.1618  0.6498
21014SOL    HW165049   3.295   4.675   7.471 -0.1533 -0.4016  0.2638
21014SOL    HW265050   3.349   4.788   7.385 -0.3177 -0.5144  0.0111
21015SOL     OW65051   4.270   2.726   5.012  0.2576  0.1377 -0.2076
21015SOL    HW165052   4.287   2.752   4.922  2.5476  0.6450  0.3168
21015SOL    HW265053   4.296   2.634   5.016 -1.4181 -0.3877 -0.4121
21016SOL     OW65054   1.943  10.889  10.337  0.1401  0.2343  0.4452
21016SOL    HW165055   1.914  10.877  10.427  0.9704  0.3418  0.7405
21016SOL    HW265056   2.005  10.962  10.342  1.0627 -0.4948 -0.0142
21017SOL     OW65057   2.793   4.091   2.963  0.6807 -0.3836  0.4330
21017SOL    HW165058   2.760   4.156   3.024 -0.6180  0.9756 -1.5944
21017SOL    HW265059   2.832   4.024   3.018  0.5229  1.2622  2.6790
21018SOL     OW65060  10.958   3.704   9.309  0.6150 -0.1418  0.4175
21018SOL    HW165061  10.952   3.772   9.375  0.0699  0.7592 -0.5235
21018SOL    HW265062  11.049   3.707   9.279  0.6242  0.0825  0.4704
21019SOL     OW65063   7.189   4.984   6.740  0.6108  0.1774  0.4387
21019SOL    HW165064   7.121   4.916   6.740 -0.2011  0.9693  0.0627
21019SOL    HW265065   7.219   4.988   6.650 -0.1853  1.1213  0.2017
21020SOL     OW65066   4.194   4.766   5.698  0.0158  0.5101 -0.1596
21020SOL    HW165067   4.268   4.795   5.750 -1.3294  0.7669  1.7288
21020SOL    HW265068   4.206   4.671   5.689  2.1396  0.9166 -2.5920
21021SOL     OW65069   4.577  10.308   4.804 -0.2062  0.5124 -0.2570
21021SOL    HW165070   4.509  10.345   4.861 -0.6231 -0.5789 -0.0349
21021SOL    HW265071   4.544  10.222   4.780  0.5713  0.4405 -1.1032
21022SOL     OW65072   3.267   5.395   2.138  0.0544  0.0180 -0.1109
21022SOL    HW165073   3.231   5.428   2.221 -0.1487 -0.5547  0.0308
21022SOL    HW265074   3.338   5.337   2.163  1.7610  1.8889 -0.4172
21023SOL     OW65075   3.160   6.683   4.200 -0.1454 -0.5959 -0.2387
21023SOL    HW165076   3.115   6.764   4.224  1.4723  0.0095  0.8667
21023SOL    HW265077   3.195   6.701   4.112 -1.9127 -1.0552 -1.0914
21024SOL     OW65078  10.770   6.290  10.750 -0.1253 -0.1476 -0.0974
21024SOL    HW165079  10.688   6.246  10.773 -0.3072 -0.0122 -0.4971
21024SOL    HW265080  10.838   6.229  10.780 -0.3742 -0.9300 -1.0771
21025SOL     OW65081   9.597   4.502   2.056 -0.2523  0.2115  0.1852
21025SOL    HW165082   9.615   4.595   2.072 -1.1166  0.0921  2.0013
21025SOL    HW265083   9.678   4.469   2.016 -0.2262  1.8977 -1.3197
21026SOL     OW65084   8.806   8.579   1.902 -0.3925 -0.0192 -0.0262
21026SOL    HW165085   8.799   8.586   1.998 -0.3911 -2.3288  0.1812
21026SOL    HW265086   8.785   8.488   1.883 -0.6287  0.4610 -2.2754
21027SOL     OW65087  10.191   4.272   7.273 -0.0146  0.2974  0.5873
21027SOL    HW165088  10.112   4.276   7.328 -0.3979  0.7461  0.0181
21027SOL    HW265089  10.213   4.364   7.257 -1.2510  0.2414 -1.8910
21028SOL     OW65090   9.804   5.639   9.390  0.1700  0.2514 -0.2406
21028SOL    HW165091   9.843   5.709   9.339 -0.7894  2.1042  1.4351
21028SOL    HW265092   9.878   5.583   9.415  1.1457  1.3574 -0.5838
21029SOL     OW65093   0.303   5.559   6.474  0.1571 -0.2944  0.4293
21029SOL    HW165094   0.232   5.586   6.417 -0.9171 -1.5834  1.0965
21029SOL    HW265095   0.382   5.571   6.421 -0.6538  0.0138 -0.7580
21030SOL     OW65096   2.713   7.736   2.518  0.5782 -0.5623 -0.6133
21030SOL    HW165097   2.728   7.830   2.530  1.3924 -0.2659 -3.3870
21030SOL    HW265098   2.801   7.698   2.513  0.2678 -1.6333  1.0945
21031SOL     OW65099   3.664   7.848   1.819 -0.8461  0.3821  0.2801
21031SOL    HW165100   3.687   7.860   1.911  0.5923  1.5837 -0.1959
21031SOL    HW265101   3.621   7.929   1.794  0.0836  0.6674 -0.4580
21032SOL     OW65102   8.859   2.470   7.318 -0.6052  0.0929  0.5634
21032SOL    HW165103   8.818   2.419   7.387 -1.9414  1.2189  0.6509
21032SOL    HW265104   8.943   2.499   7.355 -0.3693 -1.0361  0.9251
21033SOL     OW65105   8.077   5.530   3.530  0.2137  0.6033  0.6716
21033SOL    HW165106   8.106   5.500   3.444 -0.9344 -1.0125  0.7974
21033SOL    HW265107   7.988   5.562   3.516  0.0501  0.4158  1.2368
21034SOL     OW65108  10.066   7.540   2.039  0.9248  0.2904 -0.1428
21034SOL    HW165109  10.078   7.533   2.134 -1.5311  0.9630  0.3060
21034SOL    HW265110   9.973   7.560   2.029  0.9080 -0.7776 -2.7667
21035SOL     OW65111   5.363   1.375   8.020 -0.3313  0.2657 -0.1153
21035SOL    HW165112   5.386   1.467   8.012 -0.9118  0.3136 -1.5986
21035SOL    HW265113   5.292   1.373   8.084 -0.9476  0.9761 -0.7569
21036SOL     OW65114   6.536  10.980   2.213  0.3238  0.0439 -0.3285
21036SOL    HW165115   6.607  10.957   2.272  1.7763 -0.3693 -2.1474
21036SOL    HW265116   6.572  11.050   2.158 -0.6587 -0.1811 -1.2970
21037SOL     OW65117   8.616   8.423   3.369  0.3322  0.5091 -0.7124
21037SOL    HW165118   8.610   8.347   3.312  2.1988 -1.1001  1.0453
21037SOL    HW265119   8.530   8.465   3.363 -0.9687 -2.0475 -1.3662
21038SOL     OW65120   1.054   4.674   2.006  0.0439 -0.2516 -0.1937
21038SOL    HW165121   1.104   4.654   1.927  0.8316  2.1870 -0.3888
21038SOL    HW265122   1.108   4.642   2.078  0.7584  0.2195 -0.5147
21039SOL     OW65123   2.661   4.363   0.328 -0.2910  0.0412  0.0631
21039SOL    HW165124   2.648   4.362   0.423  1.4719 -0.4111  0.3283
21039SOL    HW265125   2.664   4.457   0.306 -1.0539  0.1509  0.3736
21040SOL     OW65126   3.269   7.172   9.336  0.0829 -0.1962  0.1996
21040SOL    HW165127   3.224   7.255   9.347 -0.2507 -0.4056  0.4553
21040SOL    HW265128   3.199   7.107   9.328  0.3202 -0.3012 -1.2972
21041SOL     OW65129   9.619   4.288   6.284 -0.0020 -0.5769  0.1380
21041SOL    HW165130   9.567   4.298   6.363  0.7939 -1.9835  0.8842
21041SOL    HW265131   9.663   4.372   6.272 -0.9511 -0.0070  0.5684
21042SOL     OW65132   2.651   9.174   8.804  0.2949 -0.5280  0.7480
21042SOL    HW165133   2.608   9.260   8.804  1.9521  0.3540  1.3184
21042SOL    HW265134   2.651   9.148   8.712  0.5068  0.5077  0.4333
21043SOL     OW65135   1.055   7.870   3.728 -0.3867  0.1306  0.7553
21043SOL    HW165136   0.976   7.915   3.759 -1.2028  0.3210 -1.4283
21043SOL    HW265137   1.123   7.937   3.730 -0.9107  0.6940  0.2388
21044SOL     OW65138   8.837   5.228   8.901  0.3561  0.2641 -0.0411
21044SOL    HW165139   8.779   5.255   8.830  0.3215  1.0900  0.2942
21044SOL    HW265140   8.924   5.226   8.861  0.2582  0.1525 -0.2519
21045SOL     OW65141   6.086   0.080   5.136 -0.3695 -0.3173  0.0617
21045SOL    HW165142   6.140   0.089   5.058 -1.9449 -0.0061 -1.0456
21045SOL    HW265143   6.020   0.015   5.113  0.5248 -2.0294  1.9992
21046SOL     OW65144  10.695   6.676  10.849 -0.4874 -0.0379  0.2353
21046SOL    HW165145  10.769   6.736  10.857 -0.6361  0.1508  0.1791
21046SOL    HW265146  10.735   6.591  10.832 -0.3339  0.3005 -1.1835
21047SOL     OW65147   5.134   9.093  10.652  0.1322  0.0665  0.2797
21047SOL    HW165148   5.089   9.009  10.665 -0.9468  0.5421 -0.2662
21047SOL    HW265149   5.221   9.079  10.690 -0.2684 -1.0677  0.8514
21048SOL     OW65150   3.617   0.799   9.748 -0.1004  0.0134  0.1575
21048SOL    HW165151   3.685   0.815   9.814 -0.7270  0.7687  0.6257
21048SOL    HW265152   3.619   0.876   9.691  0.5391 -0.6993 -0.8233
21049SOL     OW65153   1.234   6.350   1.299 -0.2745  0.2956  0.1558
21049SOL    HW165154   1.155   6.360   1.246 -0.1598  1.4442  0.1786
21049SOL    HW265155   1.302   6.397   1.251  0.6170 -1.3488 -0.2727
21050SOL     OW65156   9.422   8.522   8.896  0.0857 -0.1210  0.0837
21050SOL    HW165157   9.484   8.509   8.967  1.0401  1.3904 -0.4290
21050SOL    HW265158   9.428   8.442   8.844  2.4913  0.4157 -0.5788
21051SOL     OW65159   5.107   0.984   2.639  0.4006 -0.2059 -0.7002
21051SOL    HW165160   5.071   0.960   2.724  0.5388  3.3125  0.5030
21051SOL    HW265161   5.056   0.932   2.576  0.2160 -2.8404  1.4184
21052SOL     OW65162   5.625   2.848  10.269 -0.8288  0.1362  0.2525
21052SOL    HW165163   5.720   2.849  10.260 -0.7770 -2.6181 -0.4786
21052SOL    HW265164   5.598   2.938  10.253  1.6096  0.9141  0.1041
21053SOL     OW65165   9.383   4.350   2.856  0.0753  0.2670 -0.1230
21053SOL    HW165166   9.291   4.324   2.861  0.2359 -0.2753  0.1178
21053SOL    HW265167   9.401   4.390   2.942 -0.2803  1.5770 -0.6355
21054SOL     OW65168  10.319   7.768   9.050 -0.2005 -0.1422  0.1681
21054SOL    HW165169  10.354   7.705   9.113  1.4332 -1.3585 -1.8450
21054SOL    HW265170  10.388   7.833   9.038  0.3360 -0.9889 -1.7321
21055SOL     OW65171   2.638   4.069   6.447 -0.3230  0.3870 -0.0731
21055SOL    HW165172   2.613   4.104   6.362  1.1256 -0.7349 -1.0188
21055SOL    HW265173   2.604   3.980   6.447  0.3215  0.1332  0.1950
21056SOL     OW65174   6.440   5.243   3.601  0.1320  0.8077  0.2237
21056SOL    HW165175   6.372   5.299   3.638 -0.0064  0.8623 -0.1100
21056SOL    HW265176   6.436   5.162   3.653  0.3545  1.1163  0.7261
21057SOL     OW65177   1.102   1.075  10.032  0.0295 -0.5294  0.1406
21057SOL    HW165178   1.096   0.999  10.089  1.2386 -0.7237  0.0276
21057SOL    HW265179   1.011   1.100  10.016 -0.3836  0.3359  3.2127
21058SOL     OW65180   6.793   6.254   8.503 -0.2250 -0.9481 -0.0651
21058SOL    HW165181   6.747   6.170   8.495 -0.5253 -0.7392 -0.5945
21058SOL    HW265182   6.802   6.286   8.413 -1.1509  0.1284  0.1883
21059SOL     OW65183   2.751   3.106   2.171 -0.1291 -0.0427  0.7963
21059SOL    HW165184   2.664   3.146   2.159  0.5427  1.3149  0.2292
21059SOL    HW265185   2.788   3.101   2.083  1.1803  1.3633  1.2233
21060SOL     OW65186   5.802   9.049  10.345  0.0625  0.9733 -0.2156
21060SOL    HW165187   5.877   9.017  10.395 -0.1296  2.0376  0.8077
21060SOL    HW265188   5.781   8.978  10.285  1.4998  0.4160 -0.0969
21061SOL     OW65189   2.869   9.529   5.959 -0.7003  0.2168 -0.2065
21061SOL    HW165190   2.949   9.580   5.947 -0.6344  0.1452 -0.0715
21061SOL    HW265191   2.805   9.592   5.995 -1.2461  0.7302 -1.9693
21062SOL     OW65192   0.362   6.405   9.775 -0.4178 -0.5217  0.3390
21062SOL    HW165193   0.385   6.490   9.814 -0.5691 -0.4123  0.1948
21062SOL    HW265194   0.439   6.351   9.788  0.0497 -0.0607 -0.4124
21063SOL     OW65195   0.661   8.208   8.961 -0.0682  0.1947 -0.0939
21063SOL    HW165196   0.577   8.162   8.962  0.0796 -0.1849  2.3544
21063SOL    HW265197   0.638   8.300   8.957 -0.7083  0.1445  1.6385
21064SOL     OW65198   6.679   0.060   8.989  0.6749 -0.2975  0.2021
21064SOL    HW165199   6.773   0.047   9.000  0.3623 -2.4704  0.6681
21064SOL    HW265200   6.658   0.018   8.906  0.5209  2.8809 -1.5494
21065SOL     OW65201   1.649   1.698   1.246  0.0512  0.4671  0.6450
21065SOL    HW165202   1.608   1.778   1.214 -1.3926  0.2760  1.9192
21065SOL    HW265203   1.743   1.710   1.229 -0.1780  2.2852  0.5462
21066SOL     OW65204   4.847   8.944   4.584  0.4936  0.2346 -0.2612
21066SOL    HW165205   4.842   9.003   4.509  0.6642 -0.8562 -1.1533
21066SOL    HW265206   4.931   8.965   4.626  1.7575 -1.0157 -2.0138
21067SOL     OW65207   9.567   1.820   1.543  0.2163 -0.9477  0.0440
21067SOL    HW165208   9.626   1.754   1.508  0.0088 -0.5771 -1.0203
21067SOL    HW265209   9.623   1.895   1.564  0.3256 -1.1327  0.4159
21068SOL     OW65210   9.720   8.586   7.247 -0.6255  0.0396 -0.3163
21068SOL    HW165211   9.752   8.624   7.165 -2.6844 -1.0715 -1.7238
21068SOL    HW265212   9.687   8.660   7.297 -0.7190  0.5824 -1.1619
21069SOL     OW65213   4.098   8.789  10.263 -0.1625 -0.3861  0.5813
21069SOL    HW165214   4.096   8.756  10.173  3.3573  0.5845 -0.0158
21069SOL    HW265215   4.149   8.725  10.312  1.1200  0.8484  0.9445
21070SOL     OW65216   6.829   8.381   2.691  0.4012 -0.1689  0.3707
21070SOL    HW165217   6.771   8.306   2.680  0.4800 -0.1511 -0.1787
21070SOL    HW265218   6.863   8.372   2.780 -0.6437 -0.0441  0.8031
21071SOL     OW65219   0.978   2.401  10.622 -0.5686  0.1054 -0.0399
21071SOL    HW165220   0.923   2.331  10.657  1.1003 -0.7827  0.9496
21071SOL    HW265221   1.060   2.393  10.670  0.0857  2.0267 -0.7375
21072SOL     OW65222   7.708   1.675   5.050 -0.1635 -0.0852  0.4447
21072SOL    HW165223   7.708   1.689   4.956  1.3821  1.2235  0.5961
21072SOL    HW265224   7.632   1.618   5.066  0.0443 -1.0238 -1.6486
21073SOL     OW65225   3.006   4.124  10.717  0.0574  0.3867 -0.0067
21073SOL    HW165226   3.033   4.032  10.725 -0.8657  0.0791 -0.2682
21073SOL    HW265227   2.939   4.135  10.784  1.7408  1.5279  1.5730
21074SOL     OW65228  10.865   9.351   3.771  0.5179  0.3586 -0.1820
21074SOL    HW165229  10.791   9.407   3.748 -2.3139 -3.3718 -1.1585
21074SOL    HW265230  10.888   9.308   3.688  1.6023 -0.9325  0.7511
21075SOL     OW65231   8.532   1.970   2.928  0.0315 -0.2903 -0.2191
21075SOL    HW165232   8.578   1.913   2.989  1.0526 -1.0237 -1.6177
21075SOL    HW265233   8.446   1.929   2.916 -0.0078 -0.3840  0.3569
21076SOL     OW65234   8.149  10.910   0.403  0.1614  0.1975  0.3034
21076SOL    HW165235   8.200  10.931   0.325 -1.3456  0.5327 -0.6268
21076SOL    HW265236   8.192  10.959   0.473  0.0788  1.9427 -0.7928
21077SOL     OW65237   2.647   2.319   7.693  0.1207  0.1659 -0.3634
21077SOL    HW165238   2.583   2.295   7.760 -2.8076 -0.9007 -3.2133
21077SOL    HW265239   2.705   2.244   7.687 -1.5082 -1.1290 -0.9776
21078SOL     OW65240   0.007   7.783   0.605  0.3901 -0.4508  0.2690
21078SOL    HW165241   0.004   7.704   0.550  1.9832 -0.5835  0.3235
21078SOL    HW265242  -0.027   7.853   0.548  2.3053 -0.5230 -1.0485
21079SOL     OW65243   5.025   9.173   2.134  0.4257 -0.6193  0.0423
21079SOL    HW165244   4.997   9.243   2.076  0.8456 -0.0544  0.5095
21079SOL    HW265245   4.957   9.106   2.126  0.7198 -0.7658 -1.4528
21080SOL     OW65246   6.421   0.458   8.040 -0.0038  0.0165  0.4234
21080SOL    HW165247   6.411   0.435   8.132  0.4937 -2.4324 -0.0557
21080SOL    HW265248   6.332   0.459   8.006 -0.0895 -0.4903  0.6288
21081SOL     OW65249   5.612   0.787   3.818  0.8765  0.0616  0.3051
21081SOL    HW165250   5.658   0.748   3.745 -0.2845 -0.9258  0.0673
21081SOL    HW265251   5.538   0.833   3.777  0.7594  0.3149  0.7939
21082SOL     OW65252   1.658   4.341   6.987 -0.3562 -0.1329  0.1381
21082SOL    HW165253   1.750   4.357   7.007 -0.8583  1.2839  1.4585
21082SOL    HW265254   1.637   4.407   6.921 -0.6082 -0.0129  0.3411
21083SOL     OW65255   4.447   8.222   3.370 -0.4063 -0.5729 -0.2376
21083SOL    HW165256   4.518   8.202   3.431 -0.7230  1.9167  1.0286
21083SOL    HW265257   4.377   8.160   3.393  0.4989 -1.5479 -0.0192
21084SOL     OW65258   1.658   0.506   8.657 -0.3727  0.2788  0.5100
21084SOL    HW165259   1.743   0.482   8.619 -0.6072  0.6379 -0.2556
21084SOL    HW265260   1.641   0.437   8.722 -0.0385 -0.4393 -0.1473
21085SOL     OW65261   9.702   2.718   8.487 -0.0479  0.0931  0.1139
21085SOL    HW165262   9.728   2.657   8.418 -0.9404 -1.1574  0.8316
21085SOL    HW265263   9.782   2.767   8.507 -0.1088  1.5689 -2.8038
21086SOL     OW65264  10.064   5.725   8.688 -0.0283 -0.2113  0.5044
21086SOL    HW165265  10.116   5.648   8.664 -2.2340 -1.4148 -0.7980
21086SOL    HW265266  10.077   5.786   8.615  0.2630 -0.1227  0.6286
21087SOL     OW65267   0.103  10.297   7.236 -0.5845 -0.2020  0.0227
21087SOL    HW165268   0.015  10.294   7.198  0.0493  1.3655 -1.7030
21087SOL    HW265269   0.162  10.292   7.161  0.8784 -2.0685  1.2019
21088SOL     OW65270   8.208   2.029   6.602  0.2598  0.0446 -0.1524
21088SOL    HW165271   8.289   1.984   6.578  0.4586 -1.4360  2.9516
21088SOL    HW265272   8.214   2.042   6.696 -1.3396  3.6480 -0.3643
21089SOL     OW65273   0.115   7.635   0.981 -0.2989  1.0265 -0.0288
21089SOL    HW165274   0.157   7.678   0.907  0.4428 -0.2873 -0.3879
21089SOL    HW265275   0.182   7.631   1.048 -0.5115  0.8565  0.1755
21090SOL     OW65276   4.811  10.808   0.144 -0.6533  0.2507  0.8666
21090SOL    HW165277   4.887  10.779   0.093 -1.1783 -1.4142  0.9696
21090SOL    HW265278   4.813  10.903   0.138  0.6252  0.1783 -0.3205
21091SOL     OW65279   3.752  10.589   0.116 -0.0831  0.2111  0.0863
21091SOL    HW165280   3.773  10.572   0.024 -0.3122 -1.5764  0.3134
21091SOL    HW265281   3.797  10.671   0.137  0.2534  0.4740 -1.5133
21092SOL     OW65282   3.069   8.569   3.404  0.3991 -0.0906  0.0919
21092SOL    HW165283   3.112   8.595   3.486  1.0056 -2.0189  0.4376
21092SOL    HW265284   2.983   8.537   3.432  0.2056  0.2299 -0.1435
21093SOL     OW65285   9.933   5.805   6.832  0.2669  0.1649 -0.3697
21093SOL    HW165286  10.010   5.788   6.777  0.1049 -0.6745 -0.3513
21093SOL    HW265287   9.870   5.845   6.773  0.6690  0.7274 -0.4198
21094SOL     OW65288   8.169   0.526   5.117  0.3230 -0.0904 -0.0545
21094SOL    HW165289   8.119   0.465   5.062 -1.3322  0.4934  0.7407
21094SOL    HW265290   8.105   0.592   5.144  1.7042  1.0835  0.4472
21095SOL     OW65291   9.241  11.017   7.191  0.2440 -0.3259 -0.3851
21095SOL    HW165292   9.254  11.076   7.117 -0.5054 -1.5335 -1.5237
21095SOL    HW265293   9.222  11.074   7.265 -0.2470  0.8682 -1.4065
21096SOL     OW65294   4.538   3.909  10.445  0.0477 -0.7634 -0.2284
21096SOL    HW165295   4.501   3.821  10.449 -1.9870  0.0686  0.7161
21096SOL    HW265296   4.558   3.923  10.353 -0.2890 -1.9513 -0.4952
21097SOL     OW65297   1.034   1.457   3.854 -0.5492  0.4761  0.1246
21097SOL    HW165298   1.101   1.455   3.786 -0.0969 -0.2531  0.5728
21097SOL    HW265299   0.951   1.452   3.807 -0.2786  0.8449 -0.4061
21098SOL     OW65300   0.375   9.823   5.557 -0.1590 -0.5883  0.1650
21098SOL    HW165301   0.388   9.828   5.651 -0.9867  0.6407  0.2379
21098SOL    HW265302   0.462   9.836   5.520  0.5211 -3.0429  0.7553
21099SOL     OW65303   2.059   3.354   6.174  0.5267 -0.3394 -0.2425
21099SOL    HW165304   2.068   3.405   6.255 -0.5864 -1.4480  0.6299
21099SOL    HW265305   2.141   3.369   6.127  0.6430  1.4447  0.4236
21100SOL     OW65306   9.291  10.800   1.291  0.3096 -0.3862 -0.5575
21100SOL    HW165307   9.217  10.781   1.349  1.0891 -1.3242  0.1764
21100SOL    HW265308   9.277  10.743   1.215 -0.0419 -0.1000 -0.7104
21101SOL     OW65309   1.787   5.903   7.988  0.3666 -0.2774 -0.2423
21101SOL    HW165310   1.747   5.918   7.902 -0.7020 -0.5595  0.1953
21101SOL    HW265311   1.772   5.984   8.036  1.8208  0.2477 -0.6272
21102SOL     OW65312   6.170   1.748   5.924 -0.4563 -0.0054  0.5081
21102SOL    HW165313   6.227   1.745   6.001 -0.7804  2.2744  0.9147
21102SOL    HW265314   6.083   1.724   5.958 -0.3543 -0.2524  0.5913
21103SOL     OW65315   3.242   1.562  10.125 -0.0135  0.1334  0.7020
21103SOL    HW165316   3.208   1.618  10.055  0.0725  0.4205  0.8828
21103SOL    HW265317   3.335   1.585  10.129  0.3587 -1.1010 -0.2192
21104SOL     OW65318   2.418   0.127   9.426  0.2401 -0.4941  0.0061
21104SOL    HW165319   2.417   0.185   9.350 -0.0215 -0.3253  0.1360
21104SOL    HW265320   2.491   0.159   9.479 -2.2896  2.3837  2.0949
21105SOL     OW65321  10.619   0.150   6.288 -0.3124  0.0369  0.4584
21105SOL    HW165322  10.633   0.069   6.240  1.1520  1.1797 -1.1627
21105SOL    HW265323  10.678   0.145   6.362  1.9739  0.7607 -1.1977
21106SOL     OW65324   5.525   2.176   7.218  0.2418  0.6011  0.2169
21106SOL    HW165325   5.434   2.154   7.237  0.3467 -0.2490 -0.1934
21106SOL    HW265326   5.525   2.197   7.124  0.1773  2.2523  0.5667
21107SOL     OW65327   8.719   5.042   0.469 -0.2170  0.1267  0.7160
21107SOL    HW165328   8.626   5.021   0.456 -0.0368  0.0068 -0.5046
21107SOL    HW265329   8.751   4.974   0.528 -0.5908 -0.6482  0.0475
21108SOL     OW65330   3.305   0.844   5.051  0.1288  0.4515 -0.6705
21108SOL    HW165331   3.325   0.848   5.144  1.0700  3.2286 -0.8922
21108SOL    HW265332   3.361   0.774   5.017  1.5255  0.9596  0.5015
21109SOL     OW65333   7.078  11.023   9.201 -0.2506  0.0782 -0.2393
21109SOL    HW165334   7.132  10.995   9.127  0.7831 -0.6769  0.7625
21109SOL    HW265335   7.141  11.042   9.271 -1.2843 -1.6148  1.2463
21110SOL     OW65336   9.871   7.268   3.228 -0.8943  0.0295  0.2345
21110SOL    HW165337   9.964   7.279   3.206 -0.8264  2.2846  1.3352
21110SOL    HW265338   9.832   7.353   3.207 -2.5425 -0.6059  0.6144
21111SOL     OW65339   9.739   1.232   2.527 -0.1270 -0.2745  0.3026
21111SOL    HW165340   9.720   1.257   2.617 -1.6244  1.1395 -0.3437
21111SOL    HW265341   9.706   1.305   2.475  2.7731  0.0504 -1.3148
21112SOL     OW65342   8.384   8.912   8.987 -0.7663 -0.1819  0.0790
21112SOL    HW165343   8.397   8.986   8.929 -0.5998  0.1609  0.5468
21112SOL    HW265344   8.373   8.951   9.074 -2.7564 -0.5706  0.0414
21113SOL     OW65345   3.755   9.548   9.792 -0.1782  0.0890  0.1169
21113SOL    HW165346   3.803   9.505   9.721  1.3367  1.0236  0.5266
21113SOL    HW265347   3.664   9.547   9.763  0.3761  0.3584 -1.8084
21114SOL     OW65348   0.848   0.371   5.299  1.0049  0.0147 -0.0818
21114SOL    HW165349   0.759   0.397   5.275  0.6578  0.5669  1.6742
21114SOL    HW265350   0.851   0.277   5.283 -0.1450 -0.1431  0.5028
21115SOL     OW65351   8.752   1.613   1.062  0.3771  0.1042  0.4937
21115SOL    HW165352   8.818   1.571   1.118 -0.6865 -0.5317  1.3142
21115SOL    HW265353   8.799   1.685   1.021  1.5993 -0.3502  1.0208
21116SOL     OW65354  10.896   2.125   1.409 -0.3252  0.2314  0.1718
21116SOL    HW165355  10.827   2.160   1.353  0.8219  0.8993 -0.8965
21116SOL    HW265356  10.919   2.197   1.468  0.7806  0.7332 -0.8103
21117SOL     OW65357   7.069   9.411   6.616  0.2500 -0.1722 -0.0839
21117SOL    HW165358   7.066   9.489   6.560 -1.4636 -1.6493 -2.2552
21117SOL    HW265359   7.028   9.438   6.698  1.1029  1.5701 -0.1876
21118SOL     OW65360   4.309   9.445   2.250 -0.2986  0.1566 -0.0374
21118SOL    HW165361   4.253   9.508   2.205 -0.6412  0.0150  0.1777
21118SOL    HW265362   4.387   9.495   2.276 -1.4848  1.0861  2.0412
21119SOL     OW65363   5.760   1.875   3.724  0.3434 -0.6099  0.2069
21119SOL    HW165364   5.744   1.924   3.643  0.1016  0.5156  0.9241
21119SOL    HW265365   5.702   1.914   3.789  1.3762 -0.7079  1.2309
21120SOL     OW65366   1.658   1.194   2.240  0.2840 -0.6584  0.0664
21120SOL    HW165367   1.609   1.114   2.262 -0.5192 -0.2374 -0.1310
21120SOL    HW265368   1.747   1.177   2.271  0.0759 -1.5476  0.2171
21121SOL     OW65369   7.576   4.829   5.277  0.2157 -0.8327 -0.2103
21121SOL    HW165370   7.554   4.815   5.369 -1.8984 -1.3500 -0.7509
21121SOL    HW265371   7.590   4.924   5.270 -0.2887 -0.6952  0.5211
21122SOL     OW65372   6.199  10.017   8.057 -0.0295 -0.0233 -0.1020
21122SOL    HW165373   6.266  10.082   8.037  0.8874 -0.9634 -0.1792
21122SOL    HW265374   6.167  10.041   8.144  1.4110 -0.3585  0.5483
21123SOL     OW65375   9.023   0.034   7.673  0.0346  0.2867 -0.2205
21123SOL    HW165376   8.985   0.115   7.640  0.8121  0.3294 -1.0471
21123SOL    HW265377   8.960  -0.034   7.650 -0.2237  0.5411 -0.2661
21124SOL     OW65378   7.096   7.721   4.618 -0.3651  0.0696  0.3398
21124SOL    HW165379   7.176   7.759   4.581 -0.2189 -1.2036 -0.7237
21124SOL    HW265380   7.027   7.748   4.557 -0.2673 -1.2819 -0.3946
21125SOL     OW65381   0.708   5.498   0.730 -0.3370 -0.0004  0.2579
21125SOL    HW165382   0.778   5.474   0.790  0.1100 -0.2266 -0.3428
21125SOL    HW265383   0.647   5.424   0.733  0.4197 -0.6920 -0.6542
21126SOL     OW65384   5.312   1.059   1.506 -0.7429  0.1012 -0.5700
21126SOL    HW165385   5.241   1.117   1.481 -0.6150  0.5403  0.0443
21126SOL    HW265386   5.271   0.992   1.560 -0.7575  0.1062 -0.5751
21127SOL     OW65387   1.162   2.150   5.602 -0.1128  0.1613 -0.1268
21127SOL    HW165388   1.253   2.147   5.630  0.1406 -0.9477 -0.9653
21127SOL    HW265389   1.113   2.168   5.682  0.7450 -0.6278  0.6105
21128SOL     OW65390   2.646   2.515   9.649  0.5344 -0.0505 -0.2327
21128SOL    HW165391   2.645   2.553   9.561 -0.9012 -0.4822 -0.4191
21128SOL    HW265392   2.698   2.435   9.640  1.9336  0.8181 -0.2611
21129SOL     OW65393   0.442   1.980   3.939  0.4688  0.8688 -0.1805
21129SOL    HW165394   0.380   1.911   3.962  0.1716  0.8777 -0.9207
21129SOL    HW265395   0.475   2.012   4.023  0.3610  0.0571  0.1780
21130SOL     OW65396   7.263   4.923   3.744  0.4597  0.1791 -0.6660
21130SOL    HW165397   7.264   4.861   3.817 -0.0103  1.7002  0.6998
21130SOL    HW265398   7.176   4.961   3.746  0.7550  0.9150 -1.4461
21131SOL     OW65399   4.554   2.387   4.575  0.1441 -0.0359  0.0070
21131SOL    HW165400   4.474   2.336   4.587  0.2106  0.3109  2.2310
21131SOL    HW265401   4.535   2.445   4.501 -1.9940  0.6478  1.0184
21132SOL     OW65402   0.532   1.043   4.401 -0.1584 -0.2146 -0.1235
21132SOL    HW165403   0.457   1.069   4.454  1.0732 -0.9123  2.1139
21132SOL    HW265404   0.595   1.115   4.411  0.4621 -0.7846  0.2095
21133SOL     OW65405   7.376   1.728   6.004  0.0581  0.7130  0.1968
21133SOL    HW165406   7.439   1.657   6.014  0.4533  1.1524  0.8923
21133SOL    HW265407   7.423   1.796   5.957 -0.3803  0.4638 -0.6407
21134SOL     OW65408   6.406   8.210   9.650  0.0183  0.2119  0.0121
21134SOL    HW165409   6.500   8.193   9.646 -0.1458 -0.9489  0.6211
21134SOL    HW265410   6.389   8.225   9.743 -0.7343 -1.8600  0.2633
21135SOL     OW65411   6.351   2.317   3.057 -0.5075  0.1405 -0.1599
21135SOL    HW165412   6.397   2.391   3.018 -0.0289 -0.6703 -1.1779
21135SOL    HW265413   6.419   2.250   3.071 -1.4510 -1.4866 -2.6784
21136SOL     OW65414   6.243   1.312   6.630  0.6795  0.3295 -0.4180
21136SOL    HW165415   6.281   1.400   6.624  0.8695  0.4015  1.2510
21136SOL    HW265416   6.242   1.280   6.540  0.7970  1.9612 -1.0344
21137SOL     OW65417   6.025   8.652   8.335 -0.2258  0.2213 -0.1628
21137SOL    HW165418   6.061   8.741   8.342 -1.8292  0.7623  2.1873
21137SOL    HW265419   6.091   8.597   8.376 -0.7770  0.8653  1.7103
21138SOL     OW65420   6.456   8.248   9.246  0.2067 -0.0675  0.0144
21138SOL    HW165421   6.388   8.277   9.307 -1.4831  0.4241 -1.9953
21138SOL    HW265422   6.533   8.233   9.301 -0.4332  2.8638  1.9133
21139SOL     OW65423   7.404   7.468   9.726  0.6184  0.0502  0.4765
21139SOL    HW165424   7.456   7.491   9.648 -1.1171 -1.2058 -1.1481
21139SOL    HW265425   7.321   7.515   9.714  1.3003  2.2023  3.1406
21140SOL     OW65426  10.288   9.465   2.255 -0.1397 -0.1965 -0.0214
21140SOL    HW165427  10.294   9.560   2.248 -0.0082 -0.1721  0.3901
21140SOL    HW265428  10.207   9.443   2.208 -0.5404  0.1881  0.4693
21141SOL     OW65429   4.474   8.634   4.282 -0.3414 -0.1150 -0.2761
21141SOL    HW165430   4.477   8.728   4.295 -2.9138  0.0531 -0.4237
21141SOL    HW265431   4.439   8.622   4.194  0.5185 -1.2266 -0.4963
21142SOL     OW65432   6.428   9.634   3.648 -0.0663  0.3390 -0.7070
21142SOL    HW165433   6.465   9.609   3.733 -0.9441 -1.3281 -0.7754
21142SOL    HW265434   6.447   9.560   3.590  1.3504  1.8349 -2.2715
21143SOL     OW65435   9.245  10.451   4.820  0.1609 -0.1834 -0.7581
21143SOL    HW165436   9.155  10.419   4.830  0.1430 -0.2372 -1.0898
21143SOL    HW265437   9.292  10.379   4.779  0.3397 -0.1291 -0.6503
21144SOL     OW65438   7.590   1.534   9.819 -0.1666  0.1887  0.1596
21144SOL    HW165439   7.532   1.605   9.791  1.5673  1.1293 -1.2686
21144SOL    HW265440   7.535   1.478   9.874 -1.3065  3.2699  2.4564
21145SOL     OW65441   4.666   4.832   3.031 -0.4460 -0.0516  0.0586
21145SOL    HW165442   4.576   4.863   3.044 -0.4948  0.1257 -0.6815
21145SOL    HW265443   4.679   4.767   3.100 -1.1227 -0.0375  0.2046
21146SOL     OW65444   4.244   9.385   4.143 -0.0497  0.4779 -0.0994
21146SOL    HW165445   4.303   9.344   4.206 -0.7501 -0.0542  0.2292
21146SOL    HW265446   4.245   9.478   4.166  0.9085  0.5251 -0.3161
21147SOL     OW65447   8.325   1.115   9.458 -0.1345  0.0945 -0.2919
21147SOL    HW165448   8.324   1.204   9.494  0.5253 -0.6873  1.7807
21147SOL    HW265449   8.406   1.109   9.409  0.6022  0.1683  0.8878
21148SOL     OW65450   1.721   1.915   6.947  0.5369 -0.0438  0.2956
21148SOL    HW165451   1.784   1.876   6.888 -0.0663  0.2000 -0.5394
21148SOL    HW265452   1.770   1.934   7.027  1.1183 -1.3419  0.2653
21149SOL     OW65453   9.143   9.744   4.294 -0.8413 -0.3780 -0.1625
21149SOL    HW165454   9.202   9.689   4.243  0.0448  1.1599 -0.8632
21149SOL    HW265455   9.174   9.737   4.384  0.1076  0.0136 -0.4524
21150SOL     OW65456   5.153   2.256   8.708  0.0384  0.1280  0.1662
21150SOL    HW165457   5.159   2.274   8.802 -0.6565 -0.3545  0.3171
21150SOL    HW265458   5.243   2.260   8.677  0.2677  0.4067  0.8312
21151SOL     OW65459   7.759   6.101   9.298 -0.4593  0.4575 -0.1252
21151SOL    HW165460   7.818   6.145   9.237  1.0013 -0.7090  0.3679
21151SOL    HW265461   7.801   6.112   9.384 -1.1903 -0.0236  0.3065
21152SOL     OW65462   5.069   6.351   2.410 -0.2647  0.7729 -0.0770
21152SOL    HW165463   5.002   6.361   2.342  0.5541  1.5056 -0.8071
21152SOL    HW265464   5.049   6.420   2.473  0.7477  2.0919 -1.1395
21153SOL     OW65465   6.821   4.408   6.058  0.4070 -0.6699 -0.1870
21153SOL    HW165466   6.769   4.479   6.093 -0.7393 -1.2136 -0.7414
21153SOL    HW265467   6.911   4.442   6.057 -0.0208  0.5121  0.1545
21154SOL     OW65468   1.628   3.823   3.977  0.2837 -0.0876 -0.0179
21154SOL    HW165469   1.646   3.850   4.067  1.6920 -0.3382 -0.1930
21154SOL    HW265470   1.661   3.733   3.972 -1.4595 -0.7533 -0.3072
21155SOL     OW65471   7.797   8.515   4.765 -0.3098  0.0106 -0.7924
21155SOL    HW165472   7.794   8.487   4.673  1.5568  2.2926 -1.6354
21155SOL    HW265473   7.720   8.571   4.775  0.9593  2.0772 -1.8907
21156SOL     OW65474   4.200   0.110   9.455  0.0329 -0.8295  0.5199
21156SOL    HW165475   4.249   0.191   9.471 -0.6350 -0.1095 -0.9779
21156SOL    HW265476   4.237   0.048   9.519 -0.3344  0.9722  2.6040
21157SOL     OW65477   6.939   9.755   1.064 -0.3797  0.2445 -0.5839
21157SOL    HW165478   7.027   9.792   1.054  0.3260 -0.9218  0.8493
21157SOL    HW265479   6.949   9.663   1.041 -1.5263  0.3444 -1.5777
21158SOL     OW65480   9.866  10.496   9.358  0.1962  0.1385 -0.8398
21158SOL    HW165481   9.804  10.470   9.290 -1.2205  1.1864 -0.0158
21158SOL    HW265482   9.878  10.590   9.343  1.4949 -0.0193 -0.8836
21159SOL     OW65483  10.772   4.663   8.421  0.2985  0.5009 -0.4718
21159SOL    HW165484  10.856   4.623   8.395  0.6564  2.5979 -2.9482
21159SOL    HW265485  10.778   4.670   8.516  1.4934 -2.3534 -0.2163
21160SOL     OW65486   0.326   0.088   2.377  0.3255 -0.2558  0.3973
21160SOL    HW165487   0.362   0.176   2.391  2.7101 -0.6570 -2.2457
21160SOL    HW265488   0.263   0.098   2.306 -0.4923 -0.4706  1.0855
21161SOL     OW65489   7.681   6.824   9.721  0.3597  0.6988 -0.5438
21161SOL    HW165490   7.761   6.822   9.669  1.5754  0.8922  1.2132
21161SOL    HW265491   7.703   6.774   9.800 -1.4075  0.3933 -0.1964
21162SOL     OW65492   9.946   8.793   2.565  0.1317 -0.0119 -0.6653
21162SOL    HW165493   9.877   8.736   2.601  0.6002 -0.2573 -0.1474
21162SOL    HW265494  10.020   8.781   2.624  0.0718  1.5400 -0.2335
21163SOL     OW65495   9.951   1.108   0.748 -0.3234 -0.2184 -0.5134
21163SOL    HW165496   9.971   1.096   0.841 -0.3171 -1.7850 -0.6930
21163SOL    HW265497  10.020   1.165   0.716  0.6173 -0.9627  0.1130
21164SOL     OW65498   4.864   0.655   1.074  0.3561  0.4545  0.0094
21164SOL    HW165499   4.927   0.715   1.034  0.0989  1.2810  0.7832
21164SOL    HW265500   4.781   0.675   1.030  0.3848  0.2632 -0.1303
21165SOL     OW65501   8.850   9.181   3.252 -0.4678 -0.5041  0.5402
21165SOL    HW165502   8.880   9.191   3.162 -1.2153 -0.7599  0.2578
21165SOL    HW265503   8.929   9.158   3.301  0.1693  0.7632  0.1608
21166SOL     OW65504   4.033   4.640   7.642  0.0066 -0.2423 -0.2858
21166SOL    HW165505   4.031   4.545   7.638 -1.9412 -0.2298 -0.8236
21166SOL    HW265506   4.074   4.659   7.727 -2.8233 -1.7110  1.6128
21167SOL     OW65507   3.141   5.610   3.854  0.5664  0.4222 -0.5146
21167SOL    HW165508   3.085   5.670   3.903 -0.0487  0.2926 -1.0533
21167SOL    HW265509   3.138   5.642   3.764  1.6154  0.6029 -0.5035
21168SOL     OW65510   4.828   7.285   3.281 -0.3011 -0.3040  0.3679
21168SOL    HW165511   4.893   7.351   3.257 -0.2298 -0.7738 -0.7462
21168SOL    HW265512   4.858   7.253   3.367  0.9625 -0.5450 -0.1412
21169SOL     OW65513   7.601   8.282   1.487 -0.1034 -0.3116 -0.0446
21169SOL    HW165514   7.584   8.237   1.570  1.1521  1.2830  1.1425
21169SOL    HW265515   7.694   8.265   1.469 -0.5764 -1.4035 -1.6492
21170SOL     OW65516   1.423   6.475   6.096  0.5670  0.3764  0.4247
21170SOL    HW165517   1.501   6.425   6.073  0.7382  1.0303 -0.4246
21170SOL    HW265518   1.433   6.559   6.051 -0.9928  0.1743 -0.3757
21171SOL     OW65519   7.012   8.332   8.332 -0.5063  0.5645  0.5418
21171SOL    HW165520   6.946   8.401   8.338 -0.7171  0.4639 -0.4679
21171SOL    HW265521   6.965   8.256   8.298 -0.6273 -0.5973  3.0859
21172SOL     OW65522   0.126  11.013   0.430 -0.0325 -0.0548  0.3138
21172SOL    HW165523   0.062  11.056   0.372  0.7107 -0.7883 -1.1076
21172SOL    HW265524   0.075  10.986   0.506 -1.6861 -1.5961 -1.2641
21173SOL     OW65525   3.271   7.533  10.160  0.7607 -0.7023 -0.5768
21173SOL    HW165526   3.293   7.543  10.067  0.7193 -2.4577 -0.8024
21173SOL    HW265527   3.353   7.549  10.206  0.8841 -0.2693 -0.9369
21174SOL     OW65528   5.922   5.960   7.905  0.2825  0.5871  0.5486
21174SOL    HW165529   5.889   6.049   7.912  0.6469  0.9764 -1.8139
21174SOL    HW265530   5.931   5.945   7.811  2.5553 -1.0740  0.9374
21175SOL     OW65531   9.968   3.373  10.486 -0.2102 -1.0002  0.0062
21175SOL    HW165532   9.897   3.317  10.517  0.4750 -1.7353  0.2914
21175SOL    HW265533  10.042   3.353  10.544 -0.0646  0.5418  0.4034
21176SOL     OW65534   9.227  10.524   2.540 -0.1418 -0.4565  0.1845
21176SOL    HW165535   9.227  10.593   2.474  1.7585  1.8739  2.4228
21176SOL    HW265536   9.135  10.498   2.547 -0.7023  0.7646 -1.7728
21177SOL     OW65537   3.888   3.169   8.754  0.6922  0.1308  0.1878
21177SOL    HW165538   3.872   3.090   8.703  0.3427  0.9483 -1.0123
21177SOL    HW265539   3.939   3.139   8.829 -0.0625 -1.3445  0.1527
21178SOL     OW65540   5.349   8.644  10.824 -0.4310  0.7645 -0.4397
21178SOL    HW165541   5.269   8.629  10.874 -1.3578  3.0064 -1.1101
21178SOL    HW265542   5.412   8.583  10.860 -1.7900  0.5380  1.7014
21179SOL     OW65543   2.133   8.190   4.149 -0.1326  0.1550  0.0050
21179SOL    HW165544   2.198   8.182   4.079 -0.9064 -2.2303 -0.5363
21179SOL    HW265545   2.184   8.216   4.226  1.3683 -0.9081 -0.5829
21180SOL     OW65546   7.090  10.248   0.898 -0.0171  0.2300  0.4343
21180SOL    HW165547   7.036  10.202   0.962 -0.2682 -0.7430 -0.4475
21180SOL    HW265548   7.169  10.273   0.947 -0.5368  0.2006  1.3110
21181SOL     OW65549   6.496   5.303   4.210 -0.2929  0.0520  0.3131
21181SOL    HW165550   6.541   5.224   4.241 -2.5035 -1.5828 -0.3715
21181SOL    HW265551   6.433   5.323   4.278 -2.1658 -0.9547 -1.0412
21182SOL     OW65552   4.813   2.092   7.868 -0.2016 -0.1771  0.2002
21182SOL    HW165553   4.736   2.043   7.840 -0.3082  0.4600 -0.6833
21182SOL    HW265554   4.868   2.097   7.789 -0.0521  0.8311  0.3537
21183SOL     OW65555  10.093   8.069   6.211  0.1311 -0.5735 -0.2222
21183SOL    HW165556  10.031   8.055   6.282 -0.3487 -1.3074 -0.7696
21183SOL    HW265557  10.050   8.031   6.134 -0.1646  1.7572 -1.3024
21184SOL     OW65558   3.928   6.860   1.906 -0.1378 -0.4232  0.6438
21184SOL    HW165559   4.012   6.825   1.937 -0.5525 -0.4922  1.7185
21184SOL    HW265560   3.942   6.955   1.904  0.5183 -0.5264 -0.8773
21185SOL     OW65561   5.294   2.622   4.638 -0.0419 -0.1750  0.7605
21185SOL    HW165562   5.327   2.546   4.687 -0.1874 -0.0779  1.0121
21185SOL    HW265563   5.294   2.693   4.702 -2.9897 -0.6968  1.5034
21186SOL     OW65564   8.373   8.362   2.260  0.2325 -0.8690  0.6799
21186SOL    HW165565   8.403   8.358   2.351  0.3107  1.3490  0.8163
21186SOL    HW265566   8.452   8.355   2.207  0.3194 -1.0419  0.8354
21187SOL     OW65567   8.431   1.636   8.284 -0.2832  0.3736 -0.4256
21187SOL    HW165568   8.524   1.659   8.287 -0.7791  2.7064 -0.3976
21187SOL    HW265569   8.427   1.546   8.314  2.1781 -0.5557 -2.4760
21188SOL     OW65570   4.325   7.636   4.058 -0.3257  0.6351  0.5109
21188SOL    HW165571   4.326   7.666   4.148  1.7522 -2.0555  1.5254
21188SOL    HW265572   4.391   7.690   4.013 -0.2903  0.9916  0.9929
21189SOL     OW65573   1.404   9.272   7.745 -0.0098 -0.1974  0.2461
21189SOL    HW165574   1.415   9.334   7.673 -0.0512 -0.9700 -0.4392
21189SOL    HW265575   1.405   9.186   7.704 -0.7812 -0.6326  1.0766
21190SOL     OW65576   9.009   0.132   4.966 -0.6284  0.5286  0.4121
21190SOL    HW165577   8.949   0.204   4.989 -3.5526 -1.5209 -0.1629
21190SOL    HW265578   9.021   0.085   5.048  2.6062  2.3604  1.1771
21191SOL     OW65579   7.820   9.767   9.350  0.4079 -0.0204 -0.4782
21191SOL    HW165580   7.904   9.735   9.384  0.4855 -0.4982 -1.0960
21191SOL    HW265581   7.767   9.688   9.339 -0.8143  0.4387  1.6587
21192SOL     OW65582   5.145   5.348   4.011  0.4813  0.0818 -0.3353
21192SOL    HW165583   5.109   5.284   4.074 -0.7711  1.3927  0.3475
21192SOL    HW265584   5.075   5.359   3.946  1.1086 -0.0152 -1.0309
21193SOL     OW65585   2.294   5.372   4.447 -0.4489  0.5463 -0.0348
21193SOL    HW165586   2.326   5.430   4.378  2.1295 -0.1601  0.4499
21193SOL    HW265587   2.336   5.288   4.428  0.1966  0.2944  2.2535
21194SOL     OW65588   6.633   2.990   3.224  0.2303 -0.2009 -0.4257
21194SOL    HW165589   6.557   2.989   3.283 -0.4334 -1.6560 -1.2474
21194SOL    HW265590   6.662   3.081   3.224 -2.4634  0.7479 -1.2409
21195SOL     OW65591   2.576   7.566   3.547 -0.0335 -0.9397  0.3772
21195SOL    HW165592   2.664   7.602   3.550  0.0792 -1.1637 -0.1398
21195SOL    HW265593   2.588   7.474   3.524 -0.3036 -1.4039  1.9827
21196SOL     OW65594   3.466   9.297   3.321 -0.2608 -0.6885 -0.1803
21196SOL    HW165595   3.427   9.373   3.278  1.3059  0.1356 -0.2127
21196SOL    HW265596   3.485   9.326   3.410  1.0082 -0.7614 -0.3963
21197SOL     OW65597   3.272   4.711   9.328 -0.8318 -0.2111  0.7094
21197SOL    HW165598   3.178   4.717   9.311 -1.0359 -2.9083  0.4097
21197SOL    HW265599   3.281   4.632   9.382  1.3743 -0.8829 -0.5242
21198SOL     OW65600   2.669   1.272   5.718 -0.2396 -0.1218  0.0765
21198SOL    HW165601   2.732   1.239   5.654  1.4257 -0.9366  2.0274
21198SOL    HW265602   2.597   1.306   5.665  0.2159 -2.3478 -2.1741
21199SOL     OW65603   2.386   4.950   5.896 -0.5434  0.2730 -0.0542
21199SOL    HW165604   2.322   5.018   5.916 -2.9297 -0.8181 -3.0822
21199SOL    HW265605   2.420   4.974   5.810  3.5150  0.9495  1.5579
21200SOL     OW65606   5.801   1.470   1.852  0.0410  0.1292 -0.4909
21200SOL    HW165607   5.822   1.520   1.931  1.0858  0.5803 -1.0254
21200SOL    HW265608   5.797   1.379   1.882  1.9406  0.1124 -0.1515
21201SOL     OW65609   2.881   0.739   0.049  0.2443 -0.2474 -0.0674
21201SOL    HW165610   2.902   0.812  -0.009  3.0539  0.4906  1.6706
21201SOL    HW265611   2.828   0.778   0.119  0.7475 -0.0997  0.2383
21202SOL     OW65612  10.404   9.614   0.814  0.5466 -0.5414 -0.0111
21202SOL    HW165613  10.463   9.659   0.874  0.0815 -1.3940  1.1241
21202SOL    HW265614  10.322   9.663   0.819  0.7949 -0.0490 -0.6910
21203SOL     OW65615  10.468   6.052   3.480 -0.0018 -0.5212  0.5951
21203SOL    HW165616  10.445   6.133   3.525 -0.8846 -0.3447 -0.1538
21203SOL    HW265617  10.551   6.024   3.521  2.1705  2.5196 -1.3125
21204SOL     OW65618   3.053   5.592   3.200 -0.3402 -0.1695  0.4568
21204SOL    HW165619   3.056   5.609   3.294 -1.9299  2.0365  0.1782
21204SOL    HW265620   3.103   5.664   3.161 -0.0205 -0.8472 -0.4222
21205SOL     OW65621   2.027   4.510   1.980 -0.2066 -0.0268 -0.0650
21205SOL    HW165622   2.012   4.451   2.054 -2.5426 -0.1405 -0.5456
21205SOL    HW265623   1.939   4.540   1.956  0.4931  0.0345 -2.7941
21206SOL     OW65624   7.436   8.873   8.199 -0.2667 -0.5786  0.0755
21206SOL    HW165625   7.434   8.893   8.106  1.7945  0.7478  0.2519
21206SOL    HW265626   7.430   8.777   8.203 -0.3442 -0.6582 -1.4134
21207SOL     OW65627   9.822   8.703   4.163  0.6168 -0.2471  0.2743
21207SOL    HW165628   9.884   8.716   4.092 -1.5042  1.1351 -1.4439
21207SOL    HW265629   9.781   8.618   4.144 -1.9339  1.3171 -1.9402
21208SOL     OW65630   5.381   7.025   9.907  0.0692  0.8306 -0.4237
21208SOL    HW165631   5.361   7.007   9.999 -0.7252 -0.2011 -0.7848
21208SOL    HW265632   5.395   6.939   9.868  0.2665  1.2519 -1.3038
21209SOL     OW65633   3.160   8.656   9.432  0.0845  0.4250 -0.0964
21209SOL    HW165634   3.187   8.748   9.439  1.7413 -0.0398 -0.0497
21209SOL    HW265635   3.072   8.655   9.470  0.2567  1.8870  0.4316
21210SOL     OW65636   2.437   2.360   8.973 -0.0001  0.2984  0.0329
21210SOL    HW165637   2.487   2.424   8.922  0.3880 -1.4726 -1.9664
21210SOL    HW265638   2.495   2.284   8.979  0.9789  1.0590  5.2746
21211SOL     OW65639   7.757   3.788   2.820  0.2667  0.3152 -0.3492
21211SOL    HW165640   7.730   3.819   2.734 -3.0257  1.3818  0.9015
21211SOL    HW265641   7.714   3.847   2.882 -0.8113 -2.6805  2.0691
21212SOL     OW65642   5.339   5.150   1.463 -0.5828  1.0459 -1.1307
21212SOL    HW165643   5.247   5.125   1.459 -0.5213  0.6156 -0.1233
21212SOL    HW265644   5.373   5.128   1.376 -0.9931 -0.5749 -0.9244
21213SOL     OW65645   0.158   5.904   7.115 -0.2366 -0.0175 -0.8642
21213SOL    HW165646   0.216   5.831   7.134  1.0580  0.0676 -3.8706
21213SOL    HW265647   0.183   5.931   7.027 -2.7917  2.0574 -1.0536
21214SOL     OW65648   1.768   5.605   7.087 -0.0871  0.2527  0.1014
21214SOL    HW165649   1.837   5.653   7.133  0.1779  0.2275 -0.2639
21214SOL    HW265650   1.815   5.534   7.042 -0.0996  1.2043 -1.5110
21215SOL     OW65651   7.534   5.993  10.247  0.1300  0.3456  0.1201
21215SOL    HW165652   7.542   5.947  10.163 -0.2257  0.0392  0.2515
21215SOL    HW265653   7.539   6.086  10.224 -3.5381  0.4616 -0.7142
21216SOL     OW65654   9.799   2.543   1.983  0.2152  0.6405  0.0031
21216SOL    HW165655   9.822   2.558   1.891 -2.4863  2.0058 -0.5602
21216SOL    HW265656   9.883   2.541   2.029  1.5795  1.1896 -2.3029
21217SOL     OW65657   5.454   8.106   9.470 -0.6837 -0.6679  0.1551
21217SOL    HW165658   5.478   8.199   9.467 -1.0432 -0.5710  0.2850
21217SOL    HW265659   5.527   8.062   9.427 -0.7512 -0.2824 -0.3606
21218SOL     OW65660   4.040   0.740   2.772 -0.7401  0.1582 -0.0590
21218SOL    HW165661   3.954   0.771   2.744 -1.9408 -1.5973  1.4445
21218SOL    HW265662   4.055   0.661   2.720  1.0967  1.6673 -1.9861
21219SOL     OW65663   1.799   6.929   6.216  0.0911  0.5979  0.8530
21219SOL    HW165664   1.847   6.849   6.194  0.9736  0.8943  1.6325
21219SOL    HW265665   1.711   6.915   6.180  0.5937 -0.1918 -0.1148
21220SOL     OW65666   2.476   9.978   1.634 -0.1815  0.1207 -0.3143
21220SOL    HW165667   2.529  10.057   1.638  0.8912 -0.5257 -1.1130
21220SOL    HW265668   2.435   9.980   1.547 -2.0185  0.9228  0.5170
21221SOL     OW65669   0.880   5.530  10.069 -0.2141 -0.1017 -0.0804
21221SOL    HW165670   0.968   5.568  10.076  0.9303 -2.8098  1.6767
21221SOL    HW265671   0.855   5.512  10.159 -2.6280  0.5954 -0.5552
21222SOL     OW65672   2.715   5.867   8.162  0.4504  0.6796 -0.2301
21222SOL    HW165673   2.734   5.952   8.202 -0.6424  1.1482 -0.6787
21222SOL    HW265674   2.771   5.864   8.084 -0.3489  1.5117 -0.8566
21223SOL     OW65675   2.383   1.155   4.708  0.6444 -0.0074 -0.5483
21223SOL    HW165676   2.459   1.148   4.765  0.5317  2.4435  0.0055
21223SOL    HW265677   2.419   1.173   4.622  0.7303 -0.9293 -0.7135
21224SOL     OW65678   5.120   0.734   6.485 -0.1253  0.3649 -0.2951
21224SOL    HW165679   5.172   0.789   6.425 -0.1868 -0.2909 -0.9723
21224SOL    HW265680   5.032   0.770   6.479 -0.9044 -1.6044 -3.1627
21225SOL     OW65681   2.634   4.373   0.588  0.5677  0.0537 -0.1954
21225SOL    HW165682   2.652   4.324   0.669 -1.9626 -1.7694 -0.6215
21225SOL    HW265683   2.611   4.461   0.617 -2.0169 -1.0289  1.3009
21226SOL     OW65684   7.501   8.999   0.992 -0.5290  0.0874  0.5424
21226SOL    HW165685   7.561   9.004   0.918 -0.0367 -0.5949  0.8733
21226SOL    HW265686   7.516   8.911   1.028 -1.9961 -0.2414  0.4155
21227SOL     OW65687   3.481   1.838  10.686 -0.2413 -0.0075  0.2487
21227SOL    HW165688   3.450   1.889  10.612 -2.2933  0.4632  1.3612
21227SOL    HW265689   3.521   1.902  10.744 -0.6421 -0.0300  0.5525
21228SOL     OW65690   3.128   9.767   3.611 -0.4095 -0.0233 -0.3283
21228SOL    HW165691   3.196   9.771   3.544 -0.8243  0.9281 -0.7111
21228SOL    HW265692   3.048   9.798   3.567 -0.5066  1.4905  0.7947
21229SOL     OW65693  10.406   6.448   5.919  0.2151  0.2642 -0.1915
21229SOL    HW165694  10.488   6.398   5.916 -1.1918 -2.1798 -0.5404
21229SOL    HW265695  10.381   6.447   6.012  1.0097  1.8261  0.0634
21230SOL     OW65696   7.839   4.333   6.528 -0.4428  0.0942  0.3822
21230SOL    HW165697   7.922   4.294   6.501 -0.5378  1.4411 -2.1876
21230SOL    HW265698   7.863   4.418   6.565 -0.5244 -0.6900  2.3563
21231SOL     OW65699   8.648   6.569   6.992 -0.1349 -0.3361  0.3557
21231SOL    HW165700   8.719   6.567   6.928 -2.5866  0.9080 -2.6599
21231SOL    HW265701   8.632   6.477   7.012  0.0115 -0.8524 -1.7052
21232SOL     OW65702   1.453   5.633   5.645 -0.0090  0.4393 -0.0433
21232SOL    HW165703   1.534   5.583   5.652 -0.3291 -0.3093 -1.4840
21232SOL    HW265704   1.387   5.579   5.688  0.5990  2.0868  3.3171
21233SOL     OW65705  10.381   8.058   5.918 -0.2224 -0.1680  0.2284
21233SOL    HW165706  10.325   7.981   5.905  0.0745 -0.2352 -0.7663
21233SOL    HW265707  10.356   8.117   5.847  1.1032 -0.2901 -0.3728
21234SOL     OW65708   7.336   8.255   9.237  0.7522  0.0393  0.5620
21234SOL    HW165709   7.258   8.235   9.186  0.8977 -0.2365  0.4455
21234SOL    HW265710   7.343   8.182   9.299  1.3555 -0.3499  0.0509
21235SOL     OW65711   2.128   4.850   8.014  0.3521  0.1723 -0.0410
21235SOL    HW165712   2.216   4.885   8.024  0.3662  0.4147 -0.9267
21235SOL    HW265713   2.080   4.884   8.090  1.0112  0.0398  0.4461
21236SOL     OW65714   4.817   1.544   3.208  0.5514  0.3936  0.6006
21236SOL    HW165715   4.866   1.518   3.286  0.8991  1.4936  0.7642
21236SOL    HW265716   4.861   1.498   3.136  0.0806 -0.8163  1.0498
21237SOL     OW65717   1.829   2.831   2.841  0.0192  0.3493  0.3153
21237SOL    HW165718   1.884   2.753   2.830 -1.3892 -0.7300  0.5825
21237SOL    HW265719   1.818   2.865   2.752 -0.8306 -0.8320 -0.0505
21238SOL     OW65720   7.025   3.680   7.365  0.2946  0.1274 -0.1133
21238SOL    HW165721   7.103   3.712   7.320 -0.6158 -1.0440 -2.7439
21238SOL    HW265722   6.967   3.757   7.370  0.5732  0.3750 -0.6247
21239SOL     OW65723   6.427   0.194   1.436  0.0873  0.2039 -0.2347
21239SOL    HW165724   6.450   0.131   1.505  0.5595  0.1488 -0.4416
21239SOL    HW265725   6.496   0.184   1.371  0.4159  1.2535 -0.0664
21240SOL     OW65726   2.382   9.086   0.242 -0.2726 -0.5025 -0.9471
21240SOL    HW165727   2.323   9.059   0.171 -1.2370  1.2342 -0.8419
21240SOL    HW265728   2.326   9.131   0.305  0.6640 -1.5156  0.6916
21241SOL     OW65729   9.091   0.323   3.388 -0.2464  0.1049  0.0917
21241SOL    HW165730   9.020   0.387   3.389 -0.3468 -0.0157  0.5962
21241SOL    HW265731   9.048   0.238   3.400 -0.1264 -0.0727 -0.6740
21242SOL     OW65732   1.819   1.747   8.162  0.3198  0.2424  0.2516
21242SOL    HW165733   1.884   1.803   8.204  1.3383 -0.3247 -0.5079
21242SOL    HW265734   1.760   1.720   8.233 -0.4681  2.5758  0.5693
21243SOL     OW65735   1.342  10.013   6.738 -0.0359 -0.4368  0.0162
21243SOL    HW165736   1.351  10.095   6.690 -0.2980 -0.4091  0.0087
21243SOL    HW265737   1.256   9.980   6.712  0.0262 -0.6634  0.0956
21244SOL     OW65738   4.319   9.711   3.593  0.2106  0.0901 -0.1546
21244SOL    HW165739   4.364   9.784   3.551 -1.1030  1.7974  1.2744
21244SOL    HW265740   4.388   9.646   3.608  2.3097  2.5613  1.9251
21245SOL     OW65741   0.939   0.170   0.322  0.4915 -0.7404  0.0371
21245SOL    HW165742   0.951   0.105   0.391  1.2294 -1.1470 -0.4560
21245SOL    HW265743   0.993   0.138   0.250  1.0272  0.5366 -0.1496
21246SOL     OW65744   1.260   3.615  10.099 -0.7544  0.3049 -0.1842
21246SOL    HW165745   1.252   3.549  10.030  1.5900  1.0275 -1.2520
21246SOL    HW265746   1.339   3.589  10.147 -0.6621  1.5031  0.3366
21247SOL     OW65747   8.239   5.829   5.330  0.0465  0.1837  0.0809
21247SOL    HW165748   8.322   5.826   5.378  0.3546 -1.0279 -0.4806
21247SOL    HW265749   8.248   5.905   5.272 -0.7507  2.3167  2.5763
21248SOL     OW65750   5.759   2.143   8.592 -0.2354  0.1261 -0.3524
21248SOL    HW165751   5.777   2.173   8.681  1.7250 -2.6462  0.2895
21248SOL    HW265752   5.674   2.100   8.598 -0.9934  1.5462 -0.3187
21249SOL     OW65753   1.499   6.985   6.969  0.0009 -0.0874  0.2684
21249SOL    HW165754   1.413   6.958   7.002 -0.0007  0.5688  0.8474
21249SOL    HW265755   1.500   7.080   6.982  0.0770  0.1860 -1.4950
21250SOL     OW65756   0.951   7.450   4.137  0.2494  0.3186  0.2487
21250SOL    HW165757   0.870   7.443   4.188 -0.5267 -0.1551 -1.0093
21250SOL    HW265758   1.018   7.469   4.202 -0.7636  0.0734  1.4081
21251SOL     OW65759   1.263   1.255   0.460 -0.1808 -0.1475  0.0319
21251SOL    HW165760   1.247   1.200   0.537  1.7112  0.8305  1.2063
21251SOL    HW265761   1.341   1.306   0.482 -1.1991  2.2470 -1.4232
21252SOL     OW65762   6.863   6.665   6.475  0.1762  0.0304  0.3261
21252SOL    HW165763   6.947   6.623   6.458  0.1145 -0.9668  2.2009
21252SOL    HW265764   6.798   6.607   6.435  0.3080  0.5297 -0.6596
21253SOL     OW65765  10.694   2.402   6.250  0.2873 -0.7649  0.0297
21253SOL    HW165766  10.667   2.332   6.191  1.2416 -0.5177 -0.7292
21253SOL    HW265767  10.730   2.469   6.192 -0.9102  0.5151  0.7083
21254SOL     OW65768   8.050   4.790  10.012 -0.1277 -0.3969  0.4227
21254SOL    HW165769   8.038   4.802  10.106 -0.4386  1.5398  0.1850
21254SOL    HW265770   7.967   4.818   9.973  0.4136  0.0010 -0.4792
21255SOL     OW65771   2.227   9.946   8.604 -0.0018  0.2618 -0.5191
21255SOL    HW165772   2.166   9.879   8.575  0.4940 -0.4395  0.0299
21255SOL    HW265773   2.172  10.021   8.625 -0.4309  0.6212 -2.7125
21256SOL     OW65774   8.051   7.907  11.031 -0.0348  0.8559  0.5503
21256SOL    HW165775   8.108   7.905  10.955  0.1070 -0.1424  0.6724
21256SOL    HW265776   8.090   7.845  11.093 -0.9888  0.4960  0.8199
21257SOL     OW65777   1.710   7.865  10.680 -0.5935  0.4099  0.3274
21257SOL    HW165778   1.785   7.890  10.626 -0.8851 -0.8189 -0.6780
21257SOL    HW265779   1.634   7.872  10.622 -0.9780 -0.4146  0.7125
21258SOL     OW65780   8.486   9.825  10.706  0.2479 -0.2253  0.1842
21258SOL    HW165781   8.461   9.745  10.752 -0.3918  0.2934  0.7531
21258SOL    HW265782   8.569   9.803  10.664  0.2776 -1.0630  0.6604
21259SOL     OW65783   7.706   5.920  11.021  0.1901 -0.0234 -0.3532
21259SOL    HW165784   7.652   5.912  11.100  2.4334  1.3120  1.4636
21259SOL    HW265785   7.664   5.990  10.971 -0.4420  0.1662  0.4083
21260SOL     OW65786  10.382   1.785   0.848 -0.0243 -0.0830  0.0001
21260SOL    HW165787  10.451   1.845   0.876 -0.8894 -0.5303  3.4999
21260SOL    HW265788  10.426   1.721   0.793  1.7044  1.4015 -0.4283
21261SOL     OW65789   2.675   0.613   7.316 -0.2958  0.1629 -0.7453
21261SOL    HW165790   2.690   0.646   7.404  1.1624 -0.4488 -0.7262
21261SOL    HW265791   2.722   0.673   7.259 -3.0660  1.8851 -1.4063
21262SOL     OW65792   5.722   2.274   5.574  0.2164 -0.2505 -0.1276
21262SOL    HW165793   5.631   2.261   5.600 -0.4458  0.5651 -1.8598
21262SOL    HW265794   5.757   2.185   5.564 -1.1032 -0.6594 -1.6418
21263SOL     OW65795   6.334   5.758   1.832  0.3729  0.1329  0.3312
21263SOL    HW165796   6.317   5.790   1.743  1.0423 -0.3232  0.0281
21263SOL    HW265797   6.258   5.704   1.853 -0.3400  1.1622  0.4970
21264SOL     OW65798   1.865   2.056   4.578  0.4693  0.2140 -0.7270
21264SOL    HW165799   1.827   1.983   4.528 -1.3873 -0.1950  1.1326
21264SOL    HW265800   1.810   2.131   4.555 -0.7571 -0.1007  1.0337
21265SOL     OW65801   1.227   9.435   4.883  0.4155 -0.8936  0.0307
21265SOL    HW165802   1.143   9.442   4.927 -0.7546  0.2177 -2.2188
21265SOL    HW265803   1.283   9.498   4.928 -0.1626 -1.0849  1.0488
21266SOL     OW65804   1.497   1.787   1.503  0.3689  0.6170  0.3521
21266SOL    HW165805   1.422   1.733   1.477  0.1257 -0.2293  2.5732
21266SOL    HW265806   1.510   1.847   1.430 -1.4898 -0.2509 -0.7634
21267SOL     OW65807   7.496   4.212   7.817  0.0932 -0.5328 -0.2788
21267SOL    HW165808   7.584   4.230   7.850 -0.4030 -0.0961  0.8625
21267SOL    HW265809   7.491   4.117   7.812  0.8026 -0.5460 -0.8529
21268SOL     OW65810   7.992   1.429   2.689 -0.4589 -0.1508 -0.5912
21268SOL    HW165811   7.979   1.336   2.667  0.7256 -0.1468 -1.3690
21268SOL    HW265812   8.079   1.433   2.727 -0.9989  0.4674  0.6363
21269SOL     OW65813   2.531   4.552   2.990  0.0707 -0.2211 -0.1253
21269SOL    HW165814   2.519   4.520   2.901  1.0264 -2.1127  0.3608
21269SOL    HW265815   2.481   4.491   3.045  2.2418 -1.2559  0.8702
21270SOL     OW65816   5.433   9.354   4.342  0.4623  0.2132 -0.1550
21270SOL    HW165817   5.467   9.293   4.277 -0.7908 -0.2211 -0.4169
21270SOL    HW265818   5.503   9.419   4.352  1.9415 -1.3795  0.3422
21271SOL     OW65819   6.729   8.051   2.413  0.2770  0.1732 -0.4854
21271SOL    HW165820   6.660   7.986   2.400 -0.8018  1.4967 -1.7373
21271SOL    HW265821   6.689   8.117   2.470  0.3820  1.1025 -1.4594
21272SOL     OW65822   4.111   2.808   0.590 -1.0556 -0.1358  0.0150
21272SOL    HW165823   4.124   2.896   0.625 -0.4198 -0.1321 -0.2189
21272SOL    HW265824   4.092   2.754   0.666 -0.1897 -0.0336  0.3074
21273SOL     OW65825   3.049   3.570  10.445  0.4571  0.0689 -0.0753
21273SOL    HW165826   3.015   3.660  10.448  1.1162  0.3234 -0.0767
21273SOL    HW265827   3.139   3.580  10.412  0.0269 -0.7270 -1.5605
21274SOL     OW65828   2.873  10.336   3.299  0.3869 -0.3862  0.2431
21274SOL    HW165829   2.785  10.368   3.316  0.1706  0.0427 -1.4647
21274SOL    HW265830   2.892  10.277   3.371 -1.6426 -1.1580  0.2118
21275SOL     OW65831   1.154   3.707   9.572  0.0850 -0.5158  0.3313
21275SOL    HW165832   1.169   3.722   9.666 -1.8749 -0.4968  0.6926
21275SOL    HW265833   1.059   3.711   9.563  0.2244 -0.8812 -1.6187
21276SOL     OW65834   9.059   8.123   1.849  0.5503  0.4617 -0.3402
21276SOL    HW165835   9.044   8.032   1.822 -1.3999  0.0112  2.0153
21276SOL    HW265836   8.985   8.145   1.905  1.8144  2.9888  0.5063
21277SOL     OW65837   0.686   3.555  10.754  0.0898 -0.3965  0.6193
21277SOL    HW165838   0.642   3.540  10.671 -2.1764 -0.3825  1.7423
21277SOL    HW265839   0.741   3.632  10.740 -0.4885 -0.2236 -0.7701
21278SOL     OW65840   0.532   0.872   9.375  0.0734 -0.0847  0.3657
21278SOL    HW165841   0.496   0.889   9.462  0.3581 -3.1508  1.2087
21278SOL    HW265842   0.587   0.794   9.386  3.4499  1.7209 -1.7761
21279SOL     OW65843   9.906   1.368   9.704  0.0565  0.3360  0.1531
21279SOL    HW165844   9.864   1.363   9.790 -1.9881 -0.7181 -0.8438
21279SOL    HW265845   9.937   1.458   9.698  0.1123  0.4726  1.9222
21280SOL     OW65846  10.361   5.795   4.884  0.3819  0.2753 -0.2282
21280SOL    HW165847  10.313   5.877   4.875 -3.1987 -1.2964  2.2172
21280SOL    HW265848  10.331   5.742   4.811  1.3271  0.5337 -0.8096
21281SOL     OW65849   1.588   7.661   1.953  0.1038 -0.0583  0.0373
21281SOL    HW165850   1.549   7.665   1.866  0.1154  0.9956  0.0664
21281SOL    HW265851   1.663   7.719   1.948  0.0657  0.0635  0.7674
21282SOL     OW65852   7.829   9.025   1.093  0.0125 -0.3960  0.1736
21282SOL    HW165853   7.845   9.083   1.019  0.6633 -1.2994 -0.4253
21282SOL    HW265854   7.804   8.942   1.053 -0.9556 -0.5287  1.0085
21283SOL     OW65855   9.120   1.372   5.188 -0.4394  0.2701 -0.6609
21283SOL    HW165856   9.150   1.365   5.097 -2.5521  0.2100 -1.4004
21283SOL    HW265857   9.041   1.426   5.183 -1.3447 -0.8412  0.9704
21284SOL     OW65858   2.107   6.862   1.871 -0.3615 -0.0780  0.2613
21284SOL    HW165859   2.072   6.776   1.848 -1.0032  0.1456  0.3760
21284SOL    HW265860   2.032   6.910   1.906 -1.0237  1.8479 -3.3234
21285SOL     OW65861   4.091   4.548   2.527  0.0034  0.5773 -0.3142
21285SOL    HW165862   4.102   4.641   2.504  1.7839  0.3066 -0.7565
21285SOL    HW265863   4.007   4.544   2.571 -0.4778  2.2777 -0.9756
21286SOL     OW65864   9.455   8.338   5.869 -0.1230 -0.8681  0.0000
21286SOL    HW165865   9.530   8.391   5.896 -1.0537  0.4576  0.0990
21286SOL    HW265866   9.395   8.341   5.943 -1.6171  0.7370 -1.2113
21287SOL     OW65867   0.611   7.485   7.373  0.6035  0.2629 -0.8879
21287SOL    HW165868   0.545   7.507   7.307  0.5206  1.4263 -0.4377
21287SOL    HW265869   0.684   7.448   7.322  0.6508  1.3909 -1.6824
21288SOL     OW65870   4.671   9.295   9.518  0.0217 -0.2449  0.1368
21288SOL    HW165871   4.617   9.239   9.574  1.7414 -1.5520  0.5940
21288SOL    HW265872   4.701   9.237   9.448 -1.6578  1.2396 -1.9399
21289SOL     OW65873   3.509   0.188   0.899 -0.1365 -0.1438  0.0484
21289SOL    HW165874   3.570   0.132   0.851 -0.0855 -0.8981  0.9646
21289SOL    HW265875   3.508   0.270   0.850  0.6465 -0.5567 -0.6859
21290SOL     OW65876   2.780   2.138   1.809 -0.0812  0.2586 -0.4650
21290SOL    HW165877   2.733   2.215   1.776 -1.4612 -1.0572 -1.7266
21290SOL    HW265878   2.861   2.138   1.758  0.0236  0.9738 -0.3170
21291SOL     OW65879   1.274   6.605   7.574  0.3133 -0.4881  0.2747
21291SOL    HW165880   1.200   6.547   7.590 -1.3094  0.5459 -2.7831
21291SOL    HW265881   1.347   6.545   7.555 -0.2803 -1.5157  1.1176
21292SOL     OW65882   4.236  11.015   3.314 -0.2046  0.0507 -0.0043
21292SOL    HW165883   4.250  10.921   3.302 -0.0748 -0.0129  0.6424
21292SOL    HW265884   4.317  11.055   3.281  0.3332 -0.1532  1.0090
21293SOL     OW65885   3.718   6.619  10.466  0.1442 -0.2557 -0.0352
21293SOL    HW165886   3.660   6.632  10.541  1.1344 -0.1284  0.7355
21293SOL    HW265887   3.685   6.678  10.399 -1.6120 -1.3925 -0.2204
21294SOL     OW65888   6.120   5.708   6.466 -0.5812 -0.1600 -0.0097
21294SOL    HW165889   6.028   5.710   6.438 -0.7649 -0.9069  0.4888
21294SOL    HW265890   6.169   5.743   6.392 -1.4593  2.7806  0.6538
21295SOL     OW65891   8.378   7.005   7.634 -0.5403 -0.1825 -0.4593
21295SOL    HW165892   8.353   6.996   7.543  0.0863  3.4610 -1.1546
21295SOL    HW265893   8.302   7.043   7.677 -0.0991  0.1986  0.0079
21296SOL     OW65894   7.761   8.165   1.010  0.4907 -0.1759  0.9928
21296SOL    HW165895   7.835   8.188   1.065 -1.5274  1.4272  3.2983
21296SOL    HW265896   7.776   8.212   0.928  1.9783  0.1314  1.4218
21297SOL     OW65897   1.806   5.057   0.898  0.1501 -0.3763  0.3946
21297SOL    HW165898   1.763   5.051   0.813  1.1324 -0.1289 -0.1372
21297SOL    HW265899   1.830   4.966   0.919  0.6301 -0.3378  0.0190
21298SOL     OW65900   2.243  10.317   3.993  0.1829 -0.1715 -0.1388
21298SOL    HW165901   2.267  10.400   3.953  1.2382  0.0890  0.9526
21298SOL    HW265902   2.302  10.309   4.068  0.8017 -2.3850 -0.7828
21299SOL     OW65903  10.761   8.240   3.654  0.3944 -0.6062 -0.4644
21299SOL    HW165904  10.823   8.312   3.663  0.1726 -0.6826  3.9873
21299SOL    HW265905  10.691   8.275   3.600  0.7909  2.2335  0.6889
21300SOL     OW65906   6.931   5.290   0.860 -0.1841  0.2174 -0.2228
21300SOL    HW165907   6.919   5.368   0.915  1.6896  0.7090 -0.4291
21300SOL    HW265908   6.976   5.323   0.782  0.6993 -1.0811 -0.2845
21301SOL     OW65909   5.777   5.511   3.607  0.6990  0.0960  0.6356
21301SOL    HW165910   5.720   5.588   3.600  1.8591  1.0014  0.8269
21301SOL    HW265911   5.769   5.485   3.699 -1.9175 -1.8307 -0.0210
21302SOL     OW65912   5.298   1.745   8.042  1.2685  0.2431  0.5876
21302SOL    HW165913   5.322   1.832   8.011 -0.1072  0.7412  0.8413
21302SOL    HW265914   5.212   1.729   8.004  0.8349 -0.3669  1.7647
21303SOL     OW65915   4.053   6.751   0.621 -0.1417  0.5371  0.9611
21303SOL    HW165916   4.130   6.785   0.668  1.0318 -0.3379 -0.2354
21303SOL    HW265917   3.986   6.819   0.632  0.9176  1.4965  1.7406
21304SOL     OW65918   2.652   5.236   5.133  0.6836 -0.2832  0.0165
21304SOL    HW165919   2.657   5.304   5.066 -4.7949  1.3051  0.7151
21304SOL    HW265920   2.575   5.184   5.110  1.0983 -2.4321  2.8223
21305SOL     OW65921   3.304   9.634   6.372 -0.1998 -0.4630  0.0663
21305SOL    HW165922   3.375   9.613   6.432  0.4583 -0.7820 -0.7888
21305SOL    HW265923   3.233   9.665   6.427  1.0351  1.0759  0.8670
21306SOL     OW65924   5.105   6.684   8.490 -0.0190 -0.3967 -0.1356
21306SOL    HW165925   5.029   6.672   8.433 -0.7389 -0.1354  0.7468
21306SOL    HW265926   5.179   6.693   8.430 -1.1179  3.0464 -1.2013
21307SOL     OW65927   6.292   2.316   1.129 -0.5694 -0.1667 -0.1188
21307SOL    HW165928   6.250   2.230   1.136 -0.5814 -0.1384  0.1597
21307SOL    HW265929   6.219   2.376   1.112 -0.4431 -0.3561 -1.4720
21308SOL     OW65930   5.825   7.248   2.845 -0.3530  0.1941 -0.0588
21308SOL    HW165931   5.847   7.176   2.904  0.0037  0.2532 -0.1207
21308SOL    HW265932   5.771   7.208   2.777  1.6017 -0.4553 -1.2827
21309SOL     OW65933   9.220   1.053   5.101  0.3255  0.1883  0.1972
21309SOL    HW165934   9.234   1.013   5.187  2.5400 -1.2947 -0.7645
21309SOL    HW265935   9.139   1.012   5.070 -0.2503  0.3844  1.3566
21310SOL     OW65936   5.934   3.460   0.314  0.6208 -0.3675 -0.2197
21310SOL    HW165937   5.957   3.438   0.224  2.4188  1.1474 -0.2052
21310SOL    HW265938   5.969   3.388   0.366  3.0535  0.5476 -0.4617
21311SOL     OW65939   0.584   3.449   5.474  0.1960 -0.4325  0.4704
21311SOL    HW165940   0.533   3.499   5.538 -0.6355  0.1166 -0.5778
21311SOL    HW265941   0.645   3.512   5.437  0.7861 -0.7880  0.8223
21312SOL     OW65942   5.025   0.038   4.552 -0.3983  0.7904 -0.1185
21312SOL    HW165943   5.023   0.113   4.493  0.1046  0.9957  0.1186
21312SOL    HW265944   5.109   0.046   4.598 -0.0064 -0.3287 -0.6192
21313SOL     OW65945   8.191  10.106   9.981 -0.1548  0.0029  0.0768
21313SOL    HW165946   8.154  10.173  10.038 -0.3219  0.0283 -0.0616
21313SOL    HW265947   8.128  10.034   9.984  0.1874 -0.2869  0.4915
21314SOL     OW65948   7.327   7.407   8.650 -0.0268  0.5890 -0.0526
21314SOL    HW165949   7.396   7.364   8.700  1.7780  1.5451 -1.5772
21314SOL    HW265950   7.359   7.496   8.636 -1.2787  0.8780 -1.3778
21315SOL     OW65951   0.206   6.979   6.153  0.0776 -0.3774 -0.2775
21315SOL    HW165952   0.136   6.956   6.092 -1.1775  0.6798  0.7151
21315SOL    HW265953   0.163   7.029   6.222  1.5156 -1.2292  1.3119
21316SOL     OW65954  10.028   8.004   0.686  0.5608 -0.1075  0.4270
21316SOL    HW165955  10.107   7.950   0.678  0.7470  0.1383  0.5843
21316SOL    HW265956  10.034   8.042   0.774 -0.6660 -1.5417  1.1696
21317SOL     OW65957   4.238   9.647   1.903  0.2275  0.3101  0.8431
21317SOL    HW165958   4.268   9.577   1.845 -0.6349  2.2340 -2.1782
21317SOL    HW265959   4.319   9.689   1.933  0.7029 -0.9840  1.4462
21318SOL     OW65960  10.453   3.654   0.086  0.2308 -0.6839 -0.4297
21318SOL    HW165961  10.366   3.672   0.119  0.8513 -1.1892  1.5919
21318SOL    HW265962  10.512   3.702   0.144  1.3057  0.1832 -2.1474
21319SOL     OW65963   0.771   3.950   7.155  0.1674 -0.3204  0.1792
21319SOL    HW165964   0.852   3.898   7.154  1.0734  0.9984  1.1405
21319SOL    HW265965   0.783   4.010   7.228 -0.9842  1.0214 -0.6946
21320SOL     OW65966   8.534   5.585   2.474 -0.2857 -0.1162 -0.2492
21320SOL    HW165967   8.518   5.678   2.460 -1.4456 -0.3897 -0.8642
21320SOL    HW265968   8.580   5.557   2.394 -1.3090 -0.3770 -0.7603
21321SOL     OW65969   2.427   1.850   6.570  0.0574  0.0148 -0.1865
21321SOL    HW165970   2.477   1.769   6.556  1.1981  0.3899  1.4010
21321SOL    HW265971   2.384   1.836   6.654  0.8289  1.3079  0.4547
21322SOL     OW65972   8.040   9.520   7.608 -0.6766  0.3085 -0.0701
21322SOL    HW165973   7.985   9.465   7.552 -1.0171  1.3540 -0.8163
21322SOL    HW265974   8.125   9.478   7.609 -0.9688 -0.3019 -0.5065
21323SOL     OW65975   9.150   1.405   6.450 -0.0279  0.0035  0.0025
21323SOL    HW165976   9.081   1.399   6.516 -0.3810  0.2438 -0.3429
21323SOL    HW265977   9.191   1.318   6.450 -1.1529 -0.5551 -0.6831
21324SOL     OW65978   6.582   6.841   9.029 -0.8581 -0.9771 -0.0953
21324SOL    HW165979   6.495   6.876   9.047 -1.0604 -1.6984  0.3675
21324SOL    HW265980   6.582   6.754   9.069  0.2469 -0.7941  0.3282
21325SOL     OW65981   7.579   3.166   4.214  0.5897 -0.1215  0.8553
21325SOL    HW165982   7.567   3.087   4.268  0.6189 -0.7058  0.0197
21325SOL    HW265983   7.674   3.171   4.201  0.4905 -0.7291 -0.2189
21326SOL     OW65984   0.396   5.418   4.731 -0.3719 -0.1381  0.3626
21326SOL    HW165985   0.372   5.334   4.693 -0.3278 -0.0982  0.2450
21326SOL    HW265986   0.491   5.423   4.720 -0.3610 -0.1177  0.4612
21327SOL     OW65987   5.942   0.194   2.763 -0.7094 -0.6793 -0.1661
21327SOL    HW165988   5.944   0.222   2.854 -1.3918  0.1988 -0.4133
21327SOL    HW265989   5.905   0.106   2.766  2.2712 -2.0417  0.7092
21328SOL     OW65990   3.077   0.735   5.969  0.4933 -0.2715 -0.0918
21328SOL    HW165991   3.107   0.816   6.011  0.0025  0.1560 -0.5524
21328SOL    HW265992   3.153   0.704   5.920  0.8377 -0.3680  0.4823
21329SOL     OW65993   5.963   1.029   0.852  0.2235  0.6914  0.6724
21329SOL    HW165994   6.038   1.028   0.793  0.1069 -0.3271  0.5265
21329SOL    HW265995   5.932   0.938   0.853 -1.6289  1.2572 -0.0845
21330SOL     OW65996   7.449   4.910   1.476 -0.0892 -0.0078  0.2912
21330SOL    HW165997   7.463   5.004   1.487 -1.8383  0.1713  1.2060
21330SOL    HW265998   7.488   4.890   1.391 -2.0070  2.0793 -1.1856
21331SOL     OW65999   8.548   2.860   8.656  0.0943  0.3094  0.4938
21331SOL    HW166000   8.512   2.905   8.580  1.7662  0.0018 -0.5101
21331SOL    HW266001   8.642   2.875   8.652  0.4862 -1.6647  1.1852
21332SOL     OW66002   1.967   2.623   1.140  0.2978  0.6844 -0.6528
21332SOL    HW166003   1.922   2.682   1.079 -1.5040 -0.5466 -0.6148
21332SOL    HW266004   1.950   2.659   1.226 -1.9541 -0.4701 -0.5153
21333SOL     OW66005  11.024   6.929   1.515 -0.1722 -0.0993 -0.3663
21333SOL    HW166006  10.948   6.986   1.525 -0.6959 -0.5970 -1.3715
21333SOL    HW266007  11.028   6.910   1.422 -0.0636 -1.7619 -0.0522
21334SOL     OW66008   5.058   0.573   4.982  0.5126  0.1987  0.1545
21334SOL    HW166009   5.139   0.623   4.990 -0.0935  1.3385 -0.5855
21334SOL    HW266010   4.990   0.639   4.970 -0.3284 -0.8072 -0.8210
21335SOL     OW66011   1.923   6.400   3.358  0.3895 -0.1493 -0.5803
21335SOL    HW166012   1.883   6.349   3.428  0.6741 -0.1838 -0.4399
21335SOL    HW266013   2.015   6.372   3.357  0.7628  0.9964  0.0837
21336SOL     OW66014   7.025   8.267   2.857  0.2055  0.1541  0.1139
21336SOL    HW166015   7.044   8.189   2.907 -0.1879 -0.2864 -0.4106
21336SOL    HW266016   7.074   8.256   2.775 -0.5800  0.0229 -0.3431
21337SOL     OW66017   8.610   8.428   7.628  0.3115  0.5203  0.3006
21337SOL    HW166018   8.675   8.466   7.569 -1.0337 -0.1451 -1.7344
21337SOL    HW266019   8.606   8.336   7.604 -0.5347  0.2992  1.2059
21338SOL     OW66020   7.597   8.494   7.666  0.3507 -0.6132  0.1885
21338SOL    HW166021   7.687   8.524   7.681  0.3879 -0.3121 -0.5838
21338SOL    HW266022   7.591   8.412   7.714  0.9374 -0.4699  0.5222
21339SOL     OW66023   4.874   3.323   8.528  0.4260  0.5034 -0.1726
21339SOL    HW166024   4.867   3.236   8.489  1.3698  0.7911 -1.0242
21339SOL    HW266025   4.966   3.347   8.517  0.8583  0.4618  2.5885
21340SOL     OW66026   1.632   3.360  10.617  0.0023 -0.2694  0.4234
21340SOL    HW166027   1.597   3.446  10.639 -1.7834 -0.6790 -0.6341
21340SOL    HW266028   1.676   3.372  10.533  1.5651  0.0004  1.2296
21341SOL     OW66029  10.912   2.915   7.787  0.3298 -0.3539 -0.1550
21341SOL    HW166030  10.953   2.935   7.703 -0.7579 -0.9440 -0.8517
21341SOL    HW266031  10.852   2.987   7.803 -0.5692 -0.9640 -0.6503
21342SOL     OW66032  10.049   1.028   9.761  0.4655 -0.8975 -0.2582
21342SOL    HW166033  10.086   1.097   9.816 -0.7937  0.4871 -1.0716
21342SOL    HW266034  10.080   0.946   9.801  1.8561  0.1083  0.8397
21343SOL     OW66035   8.689   6.242   3.200  0.3055 -0.7883  0.4595
21343SOL    HW166036   8.684   6.154   3.236 -2.4131  0.1659  2.7859
21343SOL    HW266037   8.744   6.290   3.263  0.0523 -0.3449  0.3441
21344SOL     OW66038   8.741   9.095   6.602 -0.1078  0.0140 -0.1789
21344SOL    HW166039   8.714   9.185   6.620 -0.8782 -0.3649  0.6074
21344SOL    HW266040   8.672   9.059   6.547  0.1161 -0.1522 -0.3556
21345SOL     OW66041   5.545   3.533   2.025 -0.3250 -0.6038  0.1645
21345SOL    HW166042   5.451   3.535   2.042 -0.5190 -2.8900 -0.2837
21345SOL    HW266043   5.584   3.585   2.095 -2.0051  2.0503 -0.7382
21346SOL     OW66044   2.833   2.368  10.361  0.1619  0.0122  0.0730
21346SOL    HW166045   2.835   2.290  10.416 -0.2711  0.8348  1.2763
21346SOL    HW266046   2.840   2.441  10.421  0.0684  0.9307 -0.9945
21347SOL     OW66047   1.284   2.381   4.333  0.8257 -0.0365  0.0431
21347SOL    HW166048   1.322   2.465   4.359  0.9573 -0.6563  1.9426
21347SOL    HW266049   1.227   2.357   4.405 -3.7297  1.0427 -2.7968
21348SOL     OW66050   7.446   3.867   3.871 -0.0394  0.3000  0.0040
21348SOL    HW166051   7.423   3.871   3.964 -2.3495 -0.2061 -0.4948
21348SOL    HW266052   7.410   3.784   3.840 -1.1143  1.3471 -1.7628
21349SOL     OW66053  10.968   2.670   0.119 -0.1556 -0.1894 -0.2129
21349SOL    HW166054  10.923   2.750   0.089 -1.2360 -0.4303  0.6923
21349SOL    HW266055  10.945   2.605   0.053 -0.2868 -0.0493 -0.3083
21350SOL     OW66056   0.021   9.597   7.835  0.5341 -0.6286  0.0832
21350SOL    HW166057   0.001   9.511   7.797 -0.0682 -0.4400 -0.0436
21350SOL    HW266058   0.046   9.650   7.760  1.4683 -0.8482  0.2353
21351SOL     OW66059   8.621   6.463   5.751 -0.5630  0.4125 -0.2972
21351SOL    HW166060   8.558   6.470   5.823  0.7625 -1.1987  1.1112
21351SOL    HW266061   8.667   6.380   5.767  2.8472  2.0838 -0.4249
21352SOL     OW66062   5.644   6.125   9.874 -0.1168 -0.3263  0.5987
21352SOL    HW166063   5.721   6.179   9.857  0.8036 -1.9598 -0.7410
21352SOL    HW266064   5.573   6.166   9.825  0.4384 -0.0262  0.0365
21353SOL     OW66065   4.254   6.087   8.480  0.0566 -0.3191 -0.6158
21353SOL    HW166066   4.197   6.147   8.528 -0.3922 -2.1605  1.3269
21353SOL    HW266067   4.198   6.012   8.461  1.4801 -1.6617  0.2538
21354SOL     OW66068   3.818   8.227   9.965  0.1360  0.0030 -0.2156
21354SOL    HW166069   3.740   8.198  10.012 -0.1261 -0.5764 -0.9931
21354SOL    HW266070   3.889   8.221  10.030 -0.6150  1.5683  0.8213
21355SOL     OW66071   4.354   6.741   4.328  0.6699 -0.6597  0.0246
21355SOL    HW166072   4.348   6.739   4.233 -3.7726  3.9361 -0.2663
21355SOL    HW266073   4.429   6.798   4.347  0.7948 -0.5573 -0.7686
21356SOL     OW66074   4.580   2.314   2.309 -0.2543  0.3820 -0.4358
21356SOL    HW166075   4.600   2.329   2.216  0.5275  1.9076 -0.0528
21356SOL    HW266076   4.665   2.314   2.353 -0.6417  0.0124  0.3398
21357SOL     OW66077   4.746   1.336   7.209  0.0571  0.0047  0.3068
21357SOL    HW166078   4.744   1.255   7.158  1.9258 -0.6016  1.1299
21357SOL    HW266079   4.694   1.398   7.157 -0.6182 -1.4388 -0.7986
21358SOL     OW66080   9.178   6.239  10.207  0.4362  0.4541  0.1324
21358SOL    HW166081   9.131   6.288  10.274  1.4808  1.6566  0.0146
21358SOL    HW266082   9.128   6.158  10.197 -0.1664  0.5912  1.8052
21359SOL     OW66083   4.111   7.664  10.421  0.0713 -0.5049  0.1714
21359SOL    HW166084   4.178   7.599  10.399  0.6690 -0.2276  1.1135
21359SOL    HW266085   4.152   7.749  10.402  0.2325 -0.3074  1.3231
21360SOL     OW66086   6.563   2.952   8.736 -0.5079  0.4366 -0.5100
21360SOL    HW166087   6.469   2.945   8.716 -0.4433  0.5508 -0.8451
21360SOL    HW266088   6.565   2.975   8.829 -0.7738 -1.6855  0.0867
21361SOL     OW66089   7.982   7.832   1.134 -1.0816 -0.7618  0.0121
21361SOL    HW166090   8.005   7.899   1.069  1.3881 -1.1550  0.3729
21361SOL    HW266091   8.051   7.766   1.125 -2.1957 -2.1441  1.2254
21362SOL     OW66092   5.814   9.850   3.970  0.4975 -0.2693  0.2858
21362SOL    HW166093   5.885   9.905   3.936  0.5328 -0.6230 -0.2126
21362SOL    HW266094   5.813   9.774   3.913 -0.8171  0.0963 -0.2108
21363SOL     OW66095   3.800   5.399   5.508  0.1653  0.3215 -0.5252
21363SOL    HW166096   3.802   5.490   5.538 -1.8506  0.4521 -0.6165
21363SOL    HW266097   3.791   5.347   5.589  1.0384  0.2101 -0.4927
21364SOL     OW66098   1.430   9.191   9.553 -0.3414 -0.3166  0.3745
21364SOL    HW166099   1.505   9.157   9.506 -0.6486  0.4808 -0.7522
21364SOL    HW266100   1.390   9.253   9.492 -0.7235  0.8168  1.7198
21365SOL     OW66101   2.738   3.690  10.192 -0.1826 -0.0447 -0.1136
21365SOL    HW166102   2.701   3.631  10.127 -2.7028  0.6756  0.5592
21365SOL    HW266103   2.737   3.640  10.274  1.2740 -0.3144 -0.2185
21366SOL     OW66104   3.511  10.408   9.861  0.0124  0.5636  0.3567
21366SOL    HW166105   3.499  10.383   9.770  0.0025  0.3456  0.4172
21366SOL    HW266106   3.465  10.491   9.870  0.5344  0.8931  0.0081
21367SOL     OW66107   2.390   7.412   4.554 -0.0011 -0.0081  0.0030
21367SOL    HW166108   2.321   7.443   4.495  0.9924 -0.7102 -1.5921
21367SOL    HW266109   2.363   7.322   4.576 -0.9785  0.6442  1.6360
21368SOL     OW66110   5.849   3.629   1.355 -0.5811  0.2378 -0.6415
21368SOL    HW166111   5.862   3.713   1.399  0.1621  0.9089 -2.0593
21368SOL    HW266112   5.936   3.590   1.352 -1.1372 -1.2636  1.2388
21369SOL     OW66113   3.886   6.702   7.091  0.1875  0.1428  0.0098
21369SOL    HW166114   3.849   6.790   7.097 -1.2074 -0.4445  0.2680
21369SOL    HW266115   3.977   6.716   7.064  0.1342  1.6850  0.5392
21370SOL     OW66116   0.119   4.395   9.655  0.1771  0.1386  0.8149
21370SOL    HW166117   0.138   4.340   9.730 -0.6400 -0.6188  0.4840
21370SOL    HW266118   0.145   4.343   9.579 -0.4771  0.2450  0.5053
21371SOL     OW66119   2.332   4.040   9.046 -0.0247  0.1448 -0.0346
21371SOL    HW166120   2.246   4.077   9.028 -0.1931  0.0964  0.6466
21371SOL    HW266121   2.353   4.071   9.134  1.3998  1.5612 -0.8165
21372SOL     OW66122   0.122   2.824   9.121  0.3204 -0.2890 -0.1743
21372SOL    HW166123   0.121   2.762   9.048 -0.1215  1.3426 -1.6323
21372SOL    HW266124   0.200   2.800   9.172  0.9824 -1.1196 -1.5176
21373SOL     OW66125   7.516   9.024   8.488  0.1140 -0.7075 -0.1764
21373SOL    HW166126   7.433   9.023   8.535 -0.1119 -0.9387 -0.5719
21373SOL    HW266127   7.504   9.091   8.421  1.8049  2.5491  2.4706
21374SOL     OW66128   5.448   2.749   3.797 -0.1171 -0.4422  0.1251
21374SOL    HW166129   5.353   2.737   3.785 -0.7003  2.8248  0.3376
21374SOL    HW266130   5.460   2.753   3.892  0.5880 -2.5805  0.1694
21375SOL     OW66131   9.884  10.811   3.149  0.2721 -0.0467 -0.0479
21375SOL    HW166132   9.873  10.819   3.244 -1.9240 -0.3487 -0.2373
21375SOL    HW266133   9.865  10.719   3.130  0.2773  0.1114 -0.8409
21376SOL     OW66134   9.727   1.756   1.139 -0.1675 -0.1129  0.0955
21376SOL    HW166135   9.776   1.791   1.064  0.5463 -0.2914  0.4650
21376SOL    HW266136   9.667   1.827   1.164  0.2946  0.3288 -0.0232
21377SOL     OW66137   8.613   6.321   4.524  0.4221  0.1498  0.6388
21377SOL    HW166138   8.704   6.345   4.543  0.9874 -1.4268  0.0556
21377SOL    HW266139   8.619   6.236   4.480 -1.1283  1.4482 -2.3362
21378SOL     OW66140   2.127   3.034   9.129  0.0875  0.0981 -0.0924
21378SOL    HW166141   2.162   2.946   9.139 -1.3990 -0.3899  1.4139
21378SOL    HW266142   2.037   3.021   9.098 -1.0911  0.8285  2.6361
21379SOL     OW66143   5.339   5.993   4.391  0.0891 -0.0177  0.2728
21379SOL    HW166144   5.278   6.030   4.327  1.8237 -0.1015 -1.5024
21379SOL    HW266145   5.351   6.064   4.455 -0.9937  0.3915  0.0475
21380SOL     OW66146   9.056   9.635   9.460  0.0559  0.3209  0.0036
21380SOL    HW166147   9.083   9.666   9.373 -1.9994 -0.0515 -0.8186
21380SOL    HW266148   9.117   9.678   9.520  1.5314  0.6048 -1.5947
21381SOL     OW66149   4.650   0.115   7.199 -0.4871 -0.1752 -0.5165
21381SOL    HW166150   4.712   0.150   7.135 -0.9966 -0.4442 -1.1710
21381SOL    HW266151   4.647   0.021   7.181 -1.2531 -0.1318 -0.6568
21382SOL     OW66152   3.152   4.235   6.922 -0.4522 -0.0354  0.5732
21382SOL    HW166153   3.064   4.198   6.919 -0.4402 -0.2046  1.8647
21382SOL    HW266154   3.155   4.284   7.005  1.1562 -1.2904  1.3122
21383SOL     OW66155   4.931   5.945   3.161  0.4968 -0.2212  0.2840
21383SOL    HW166156   4.873   6.019   3.177  1.2813  0.7468 -1.1598
21383SOL    HW266157   4.993   5.946   3.235 -0.6228 -0.6156  1.2611
21384SOL     OW66158   9.721   0.608   5.262 -0.3350  0.4427  0.0343
21384SOL    HW166159   9.625   0.615   5.259 -0.5987 -2.1517 -0.2062
21384SOL    HW266160   9.750   0.644   5.178 -1.0747  1.3307  0.1435
21385SOL     OW66161   9.300  10.981  10.772 -0.1589  0.2150 -0.1942
21385SOL    HW166162   9.396  10.991  10.769 -0.1498  0.5990  1.0397
21385SOL    HW266163   9.267  11.069  10.754 -0.3111 -0.0198 -1.1420
21386SOL     OW66164   4.669   0.332   7.599 -0.3626  0.2247  0.2322
21386SOL    HW166165   4.763   0.317   7.608 -0.3068  0.8626  0.8170
21386SOL    HW266166   4.631   0.292   7.678 -0.3595  1.7252  1.0361
21387SOL     OW66167  10.684   7.355   7.942  0.2528  0.0764  0.1721
21387SOL    HW166168  10.619   7.400   7.996 -0.1309 -0.0657 -0.1650
21387SOL    HW266169  10.720   7.424   7.885  0.2230  0.1090  0.1924
21388SOL     OW66170  10.420   5.050   8.090  0.2525 -0.4003 -0.0654
21388SOL    HW166171  10.325   5.052   8.102 -0.0623  1.4422 -2.1837
21388SOL    HW266172  10.446   4.963   8.120 -1.9571 -0.6549  1.3598
21389SOL     OW66173   4.936  10.280   5.767  0.1599 -0.2243 -0.4179
21389SOL    HW166174   4.962  10.241   5.684 -1.0490 -0.0464 -0.9068
21389SOL    HW266175   4.891  10.209   5.813  0.1616 -0.1096 -0.2387
21390SOL     OW66176   1.035   8.421   2.538 -0.2844  0.0138 -0.0500
21390SOL    HW166177   1.033   8.391   2.447 -1.5909 -0.0545 -0.0251
21390SOL    HW266178   1.049   8.516   2.532  1.5096 -0.2359 -0.2245
21391SOL     OW66179   7.233   6.857   2.886 -0.4866  0.9764 -0.1298
21391SOL    HW166180   7.220   6.883   2.977  1.6791 -1.3906  0.9792
21391SOL    HW266181   7.287   6.928   2.849  0.0353  1.1529  0.9308
21392SOL     OW66182   2.732   6.495   5.522 -0.1210 -0.0701 -0.3429
21392SOL    HW166183   2.675   6.484   5.599  0.8926  0.8817  0.5977
21392SOL    HW266184   2.821   6.480   5.556  0.3500  0.4447 -1.3053
21393SOL     OW66185  10.175   1.889   8.316  0.5680 -0.0120 -0.1432
21393SOL    HW166186  10.089   1.911   8.281  0.8523  1.5423  0.0630
21393SOL    HW266187  10.236   1.922   8.250  1.0156 -0.6608 -0.0589
21394SOL     OW66188   0.021   4.809   2.310  0.8298  0.3532 -0.7429
21394SOL    HW166189   0.007   4.899   2.281 -0.3246  0.1095 -0.9977
21394SOL    HW266190  -0.046   4.759   2.264  1.6600 -0.6965 -0.8549
21395SOL     OW66191   6.276   1.957   3.123  0.0448 -0.4826  0.2656
21395SOL    HW166192   6.302   1.866   3.111  0.4519 -0.2776 -0.4687
21395SOL    HW266193   6.340   1.993   3.185  1.2975 -0.1012 -1.1897
21396SOL     OW66194   0.521   5.135   2.453 -0.2603 -0.2155  0.1208
21396SOL    HW166195   0.502   5.094   2.368  2.2246  0.1861 -0.7106
21396SOL    HW266196   0.616   5.135   2.458 -0.1719  3.5502  1.0443
21397SOL     OW66197   6.181   0.922   4.917  0.1753 -0.0817 -0.1465
21397SOL    HW166198   6.231   0.852   4.958  0.9023  1.0269  0.9129
21397SOL    HW266199   6.147   0.974   4.990 -1.7704 -0.2637 -0.8633
21398SOL     OW66200  10.563   8.655   5.450  0.8115  0.3152 -0.2975
21398SOL    HW166201  10.532   8.734   5.494 -2.1136 -0.7102 -0.2702
21398SOL    HW266202  10.607   8.686   5.371  1.4068  1.9942  0.6514
21399SOL     OW66203   4.254   0.806   1.288  0.0789 -0.3234 -0.0498
21399SOL    HW166204   4.315   0.879   1.294 -1.0087  0.6407 -0.3051
21399SOL    HW266205   4.308   0.731   1.263  1.1896  0.4320  0.0299
21400SOL     OW66206   2.234   0.486   8.298 -0.0614 -0.0980 -0.0565
21400SOL    HW166207   2.146   0.454   8.279 -0.1076 -0.4448  0.7189
21400SOL    HW266208   2.220   0.565   8.351  0.0591  1.0313 -1.6523
21401SOL     OW66209   8.074   6.536   8.543 -0.5886 -0.1422  0.0844
21401SOL    HW166210   8.142   6.503   8.484  1.5410  1.5273  1.4449
21401SOL    HW266211   7.996   6.543   8.488  0.3124 -2.0735 -1.5735
21402SOL     OW66212   8.473   5.575   8.125 -0.6755 -0.8076  0.3765
21402SOL    HW166213   8.477   5.593   8.219  2.7959  0.9280  0.0356
21402SOL    HW266214   8.538   5.506   8.111 -1.0364 -0.9300 -0.7809
21403SOL     OW66215   3.807   6.580   4.928 -0.1843  0.4868 -0.1350
21403SOL    HW166216   3.807   6.492   4.892  1.0385 -0.1851  1.4082
21403SOL    HW266217   3.884   6.583   4.985 -0.8970  2.1445  0.8090
21404SOL     OW66218   5.040   0.599   7.267  0.1451 -0.0285 -0.2785
21404SOL    HW166219   4.954   0.568   7.295  0.7990 -1.1500  0.5889
21404SOL    HW266220   5.022   0.669   7.205 -1.3901 -0.5969 -0.5064
21405SOL     OW66221   6.733   3.317   5.081 -0.3032 -0.2257  0.5555
21405SOL    HW166222   6.755   3.399   5.037 -0.4249 -0.1619  0.6132
21405SOL    HW266223   6.768   3.249   5.023  1.6364 -0.1075  1.4959
21406SOL     OW66224   9.322   6.303   6.327 -0.3709  0.2447  0.5244
21406SOL    HW166225   9.254   6.237   6.313 -0.6293  0.5850  0.1660
21406SOL    HW266226   9.352   6.288   6.417  1.3370 -1.9750 -0.3282
21407SOL     OW66227  10.338   7.373   4.849 -0.1898 -0.1516 -0.0643
21407SOL    HW166228  10.406   7.426   4.893 -1.4931  1.0093  0.6423
21407SOL    HW266229  10.369   7.283   4.858  0.7935  0.2691  1.0971
21408SOL     OW66230   7.633   0.166   2.126 -0.2280 -0.1928 -0.3189
21408SOL    HW166231   7.613   0.244   2.075 -0.9755  0.3574  0.7607
21408SOL    HW266232   7.642   0.198   2.216  0.5314 -1.2007 -0.0140
21409SOL     OW66233  10.994   6.198   9.872 -0.2087  0.1562 -0.7814
21409SOL    HW166234  10.977   6.230   9.961  2.4587  1.3719 -0.6133
21409SOL    HW266235  10.908   6.195   9.831 -1.3749  0.8082  1.4256
21410SOL     OW66236   6.597   3.958  10.056 -0.6271 -0.1359 -0.4080
21410SOL    HW166237   6.671   3.928  10.108 -1.4055 -1.1536  0.1396
21410SOL    HW266238   6.533   3.989  10.121 -1.1002 -0.2430 -0.8181
21411SOL     OW66239   8.565   5.106   3.794  0.0509  0.4637 -0.3438
21411SOL    HW166240   8.659   5.118   3.781  0.6854 -1.2584  1.8911
21411SOL    HW266241   8.530   5.087   3.707  2.3057 -1.7111 -0.8937
21412SOL     OW66242   3.252  10.341   0.240 -0.1393  0.2110  0.2594
21412SOL    HW166243   3.324  10.354   0.302  0.4318  0.9685 -0.5341
21412SOL    HW266244   3.174  10.370   0.287 -0.1853 -1.9921  1.6521
21413SOL     OW66245  10.869   9.570  10.334 -0.2074  0.5251 -0.1229
21413SOL    HW166246  10.843   9.651  10.377  2.0063  1.3616 -0.2268
21413SOL    HW266247  10.818   9.502  10.378 -1.4292  1.8458  0.5904
21414SOL     OW66248   2.392   3.095   6.786 -0.0881  0.0465 -0.4030
21414SOL    HW166249   2.479   3.128   6.761  0.7470 -1.7589 -0.0038
21414SOL    HW266250   2.407   3.005   6.813 -2.0702 -0.2269 -0.0665
21415SOL     OW66251   8.888   2.177   3.542 -0.2454  0.0289 -0.1777
21415SOL    HW166252   8.881   2.106   3.477  0.0310 -0.1656  0.0047
21415SOL    HW266253   8.929   2.249   3.494 -3.2968  1.2000 -1.2875
21416SOL     OW66254   5.008   9.218   7.021 -0.1578  0.4212 -0.3008
21416SOL    HW166255   4.994   9.135   6.975 -1.7299 -0.3301  1.4174
21416SOL    HW266256   5.083   9.201   7.078 -1.5925 -0.5190  1.4184
21417SOL     OW66257   1.893   5.095   1.864 -0.4593 -0.0868 -0.4187
21417SOL    HW166258   1.870   5.072   1.954 -1.7980 -0.1353 -0.7479
21417SOL    HW266259   1.808   5.104   1.820  0.1808 -0.1853 -1.7030
21418SOL     OW66260   5.021   4.510   2.156  0.0818 -0.4897  0.0853
21418SOL    HW166261   4.959   4.569   2.113  0.3626 -0.0367  0.2899
21418SOL    HW266262   5.105   4.529   2.114  0.3808  0.0394  0.9076
21419SOL     OW66263  10.182   6.415   8.546 -0.6342 -0.8275 -0.3796
21419SOL    HW166264  10.214   6.343   8.493 -2.8395 -1.3623 -1.1037
21419SOL    HW266265  10.089   6.394   8.561 -0.8577  0.9039  1.0029
21420SOL     OW66266   2.540  10.461   7.481 -0.0815 -0.6033 -0.3001
21420SOL    HW166267   2.502  10.393   7.536  0.7296  0.6163  1.8738
21420SOL    HW266268   2.465  10.506   7.444 -0.6395 -1.7495 -0.6316
21421SOL     OW66269  11.018   8.833   9.659 -0.1496 -0.7035  0.3941
21421SOL    HW166270  10.953   8.775   9.698 -1.5014  1.3478  1.3653
21421SOL    HW266271  11.080   8.851   9.729 -0.9472  0.6636  0.7951
21422SOL     OW66272   2.360   5.372   4.707 -0.2744  0.0826  0.3192
21422SOL    HW166273   2.412   5.451   4.719  0.5780 -0.2876 -0.8150
21422SOL    HW266274   2.335   5.373   4.615  0.2310 -1.2365  0.1443
21423SOL     OW66275   7.096   3.361   2.497 -0.2350  0.7633  0.3681
21423SOL    HW166276   7.103   3.403   2.583 -1.3883 -0.0251  0.8708
21423SOL    HW266277   7.068   3.272   2.517 -0.6778  0.6223 -0.8518
21424SOL     OW66278   9.702   0.970   5.413  0.1450 -0.4458 -0.8709
21424SOL    HW166279   9.654   0.954   5.332 -0.3802  0.0443 -0.6644
21424SOL    HW266280   9.665   1.051   5.448 -0.8010 -1.4860  0.6841
21425SOL     OW66281  10.676   6.174   6.988 -0.3929 -0.5116 -0.5326
21425SOL    HW166282  10.748   6.170   7.051 -1.2504  2.3530  0.8142
21425SOL    HW266283  10.718   6.197   6.905  0.5191 -2.0301 -0.5178
21426SOL     OW66284   6.063   6.786   7.658 -0.2737  0.6246 -0.0746
21426SOL    HW166285   6.159   6.780   7.654 -0.1407  1.7890  0.9268
21426SOL    HW266286   6.044   6.878   7.645 -1.1245  0.7140  1.4957
21427SOL     OW66287   6.802   6.704   4.551  0.4561 -0.0627  0.2626
21427SOL    HW166288   6.737   6.728   4.485  0.5310 -0.5655  0.0054
21427SOL    HW266289   6.880   6.753   4.526  0.5812 -0.4986 -0.2130
21428SOL     OW66290   0.947   5.644   5.097  0.2736  0.5728  0.0398
21428SOL    HW166291   0.908   5.704   5.160  0.7110 -0.2974  1.1732
21428SOL    HW266292   0.937   5.557   5.136  1.3858  0.1023 -0.6434
21429SOL     OW66293   0.646   5.923   6.052  0.1234  0.3427  0.2122
21429SOL    HW166294   0.591   5.966   6.117 -1.9997  1.8448 -2.3577
21429SOL    HW266295   0.732   5.964   6.062 -0.6112  1.7961  0.9461
21430SOL     OW66296   9.782   3.282   8.729  0.0544  0.7937  0.6323
21430SOL    HW166297   9.836   3.208   8.703  0.9238 -0.4588  5.1344
21430SOL    HW266298   9.821   3.312   8.811 -2.2442  4.1910  0.6785
21431SOL     OW66299   0.635   7.910   2.773 -0.4347 -0.4187 -0.0614
21431SOL    HW166300   0.568   7.900   2.705  0.0151  0.3822 -0.6366
21431SOL    HW266301   0.625   7.833   2.828 -1.2306 -0.7619 -0.6682
21432SOL     OW66302   4.889   9.422   7.143  0.3220  0.5396  0.1420
21432SOL    HW166303   4.938   9.364   7.086  1.2065 -0.3587  1.7452
21432SOL    HW266304   4.955   9.474   7.188 -0.3227  0.9486  0.6413
21433SOL     OW66305   2.994   3.341   6.309  0.4571  0.2307  0.1439
21433SOL    HW166306   3.067   3.329   6.370  2.8310  4.3583 -1.4323
21433SOL    HW266307   3.035   3.339   6.223 -1.2103  2.6394 -0.8167
21434SOL     OW66308   0.588   3.713   0.780 -0.1273  0.1706  0.2120
21434SOL    HW166309   0.600   3.689   0.871  1.2732 -1.0071 -0.2497
21434SOL    HW266310   0.609   3.807   0.777  2.4080 -0.3085  0.6960
21435SOL     OW66311   1.298  10.480   5.987 -0.1038  0.2493 -0.4847
21435SOL    HW166312   1.385  10.441   5.973 -0.2279  0.4163 -1.9049
21435SOL    HW266313   1.272  10.450   6.074  1.1910 -0.1613 -0.2069
21436SOL     OW66314   1.015   0.420   9.829 -0.8058  0.4744  0.4562
21436SOL    HW166315   0.979   0.477   9.761 -1.4685  0.4000  0.7298
21436SOL    HW266316   1.027   0.336   9.786  0.4470  0.8792 -0.0275
21437SOL     OW66317  10.911   9.871   1.513  0.5553  0.0965  0.5236
21437SOL    HW166318  10.880   9.815   1.583  0.2474  0.2249  0.4943
21437SOL    HW266319  10.843   9.939   1.505  0.3453 -0.1860 -0.2106
21438SOL     OW66320   0.174   5.331   4.114 -0.5114  0.4252 -0.0769
21438SOL    HW166321   0.121   5.333   4.193  0.8116 -0.0603  0.8661
21438SOL    HW266322   0.238   5.261   4.130 -0.8887 -0.4521 -2.0335
21439SOL     OW66323   0.507   4.158   2.565 -0.1248 -0.4294 -0.7966
21439SOL    HW166324   0.548   4.240   2.594 -0.3685  0.3792 -2.6250
21439SOL    HW266325   0.445   4.137   2.635 -1.6353  2.1282 -1.2381
21440SOL     OW66326   7.053   6.726   8.945 -0.0637  0.2753 -0.1463
21440SOL    HW166327   6.983   6.730   8.880  0.7182  1.3032 -0.9854
21440SOL    HW266328   7.009   6.708   9.028 -1.0584 -1.5209 -1.0024
21441SOL     OW66329   5.633  10.876   0.066  0.1745  0.0235  0.1847
21441SOL    HW166330   5.679  10.908   0.143 -0.5291  1.1998  0.1445
21441SOL    HW266331   5.580  10.950   0.037  0.7471 -0.2615 -1.6951
21442SOL     OW66332   5.745   4.248   6.257 -0.0146 -0.1792 -0.2075
21442SOL    HW166333   5.712   4.252   6.167  1.3788  0.8863 -0.7013
21442SOL    HW266334   5.787   4.162   6.263 -2.7245 -1.5967  0.4524
21443SOL     OW66335   7.404   2.140  10.496 -0.7309  0.7221  0.0289
21443SOL    HW166336   7.494   2.136  10.463 -0.1100  0.5277  1.6730
21443SOL    HW266337   7.364   2.213  10.448  0.4621  1.1573 -0.3267
21444SOL     OW66338   6.996   3.888   1.048 -0.0245  0.1515 -0.0408
21444SOL    HW166339   6.962   3.808   1.088 -1.5620 -0.0491 -1.6673
21444SOL    HW266340   6.942   3.902   0.971  2.8995  0.4556 -2.1889
21445SOL     OW66341   2.754  10.077   3.249  0.5041 -0.2456  0.3845
21445SOL    HW166342   2.766  10.115   3.336 -1.6784  0.4257  0.4295
21445SOL    HW266343   2.729  10.151   3.194 -1.7350 -1.1993  0.0163
21446SOL     OW66344   2.609   3.544   5.446  0.0611 -0.3285  0.1838
21446SOL    HW166345   2.643   3.516   5.531  0.3773  0.2266  0.2425
21446SOL    HW266346   2.590   3.637   5.457  0.6859 -0.1072 -0.5370
21447SOL     OW66347   4.657  10.387  10.461  0.1507  0.1711  0.3785
21447SOL    HW166348   4.589  10.358  10.521 -0.0548  2.6846  1.4924
21447SOL    HW266349   4.728  10.417  10.517  0.7389  0.8094 -0.6635
21448SOL     OW66350   5.918   2.918   6.295  0.7902 -0.3669  0.2464
21448SOL    HW166351   5.966   2.921   6.212 -2.7134  0.7298 -1.9581
21448SOL    HW266352   5.896   3.010   6.313 -0.1905 -0.7855  1.2962
21449SOL     OW66353   3.677   2.658   0.591  0.1933  0.2321  0.3621
21449SOL    HW166354   3.693   2.619   0.677 -0.7340 -0.4076  0.2533
21449SOL    HW266355   3.603   2.717   0.604 -0.7347 -0.7635 -0.2306
21450SOL     OW66356   4.698   2.286   2.757  0.7033 -0.1517  0.1651
21450SOL    HW166357   4.615   2.246   2.729  1.0218 -0.4302 -0.3932
21450SOL    HW266358   4.686   2.303   2.850 -0.4926  1.0735 -0.1829
21451SOL     OW66359   3.460   4.691   8.902  0.6051  0.1162  0.4558
21451SOL    HW166360   3.425   4.649   8.981  0.1409 -0.5774 -0.1032
21451SOL    HW266361   3.406   4.657   8.831  1.7805 -0.2064 -0.3091
21452SOL     OW66362   8.139   7.985   2.525 -0.0314  0.5532 -0.3511
21452SOL    HW166363   8.100   7.910   2.480 -0.6056  0.7773 -0.2327
21452SOL    HW266364   8.071   8.053   2.523 -0.4189  0.2837  1.6203
21453SOL     OW66365   5.598   8.118  10.727 -0.5519 -0.2768 -0.0271
21453SOL    HW166366   5.530   8.176  10.763  0.2569 -0.1048  1.3004
21453SOL    HW266367   5.549   8.050  10.681 -1.6000  0.2240  0.3081
21454SOL     OW66368  10.530   1.963   4.317  0.7676 -0.0467  0.1226
21454SOL    HW166369  10.549   1.974   4.224 -0.3418 -0.4708 -0.1849
21454SOL    HW266370  10.614   1.969   4.361  1.4605 -0.9671 -1.0305
21455SOL     OW66371   4.149   1.536   5.885  0.4484 -0.1193  0.1378
21455SOL    HW166372   4.220   1.581   5.838  0.1891 -1.1159 -1.2779
21455SOL    HW266373   4.172   1.443   5.879 -0.2005 -0.3431  1.0024
21456SOL     OW66374   8.042   4.226   7.384 -0.1699  0.0201  0.1994
21456SOL    HW166375   8.068   4.208   7.294 -0.6009 -2.9834  0.5536
21456SOL    HW266376   7.949   4.200   7.388 -0.3602  0.7688  1.3424
21457SOL     OW66377   6.235   4.779   5.873 -0.3298 -0.1833  0.2074
21457SOL    HW166378   6.267   4.725   5.800 -1.2814 -1.7838  0.9136
21457SOL    HW266379   6.174   4.840   5.832  0.4705  0.1278 -0.5642
21458SOL     OW66380   9.781   1.299   3.715  0.2290 -0.0133 -0.1108
21458SOL    HW166381   9.791   1.382   3.670  1.1194  0.1586  0.3736
21458SOL    HW266382   9.687   1.281   3.713  0.2198  0.1227 -1.7492
21459SOL     OW66383   0.697   5.622   4.573  0.2287  0.7627 -0.4172
21459SOL    HW166384   0.763   5.686   4.543  1.0748  0.5951  0.9826
21459SOL    HW266385   0.623   5.676   4.601  1.0672  1.1930  1.0692
21460SOL     OW66386   0.580   2.046   0.711 -0.0319 -0.0095 -0.7356
21460SOL    HW166387   0.589   2.141   0.711 -0.5876  0.0764  0.7582
21460SOL    HW266388   0.663   2.014   0.747 -0.2460 -0.0069 -0.2187
21461SOL     OW66389   0.470   3.307   3.972  0.3247  0.0229  0.8459
21461SOL    HW166390   0.508   3.376   3.918 -0.9064 -0.7539 -1.1545
21461SOL    HW266391   0.384   3.340   3.996 -0.6266 -1.0776 -0.8549
21462SOL     OW66392   7.382   0.011   9.854  0.0127  0.0995 -0.6008
21462SOL    HW166393   7.458  -0.005   9.910  1.3209  0.9475 -2.0494
21462SOL    HW266394   7.313   0.037   9.915 -0.0097 -3.2525  1.0612
21463SOL     OW66395  10.166   1.950   2.666 -0.0786 -0.3231 -0.4349
21463SOL    HW166396  10.165   2.018   2.599  1.8776  0.3119  0.1160
21463SOL    HW266397  10.076   1.946   2.697 -0.5112  1.0720 -1.4182
21464SOL     OW66398   4.969   8.507  10.501 -0.0001 -0.0402 -0.2695
21464SOL    HW166399   5.058   8.528  10.530  0.1353 -2.6355  1.4930
21464SOL    HW266400   4.974   8.418  10.468 -1.7489  0.1691 -1.2446
21465SOL     OW66401   7.291   2.024   7.199 -0.2164 -0.1276 -0.3562
21465SOL    HW166402   7.321   2.093   7.258 -0.8483  1.2422 -1.5833
21465SOL    HW266403   7.203   2.050   7.174 -0.8410 -1.8934 -0.1340
21466SOL     OW66404   3.526   6.188   6.163 -0.0152  0.5114 -0.5040
21466SOL    HW166405   3.483   6.150   6.087 -0.3253 -0.8324  0.3026
21466SOL    HW266406   3.614   6.213   6.132 -0.6527  1.4497 -1.6600
21467SOL     OW66407   5.841   7.523   6.912  0.0274  0.3373 -0.0166
21467SOL    HW166408   5.894   7.474   6.848 -0.0697  2.5871 -1.9628
21467SOL    HW266409   5.773   7.461   6.939  0.7773 -1.0720 -1.2104
21468SOL     OW66410   4.520   8.535  10.649 -0.1769  0.3429 -0.0709
21468SOL    HW166411   4.518   8.576  10.563  1.4403  2.9204  0.9929
21468SOL    HW266412   4.607   8.496  10.657 -0.6610 -0.7552  0.0591
21469SOL     OW66413   3.303   8.995   6.112 -0.5119  0.1486  0.2406
21469SOL    HW166414   3.248   9.073   6.102  1.4932  1.6375  0.0903
21469SOL    HW266415   3.386   9.029   6.146 -0.2586 -2.2116  2.2610
21470SOL     OW66416   1.343   6.009   8.801  0.4136  0.4845 -1.0362
21470SOL    HW166417   1.299   6.092   8.782 -0.3477  0.4744  0.5748
21470SOL    HW266418   1.326   5.955   8.723  0.7891  1.7470 -2.0401
21471SOL     OW66419   9.518  10.543   2.206 -0.5915  0.0238  0.1292
21471SOL    HW166420   9.515  10.501   2.292  0.0759  0.8238  0.5580
21471SOL    HW266421   9.576  10.618   2.218 -1.4892  0.8832 -0.6982
21472SOL     OW66422   5.893   1.267   0.941  0.3491 -0.3766  0.0460
21472SOL    HW166423   5.943   1.185   0.939 -0.5687 -0.9488 -0.1499
21472SOL    HW266424   5.861   1.273   1.031 -0.4032 -0.7477 -0.1932
21473SOL     OW66425   1.492   4.473   4.897  0.6631  0.0815 -0.2172
21473SOL    HW166426   1.484   4.533   4.822  0.3653 -0.7548 -0.8643
21473SOL    HW266427   1.583   4.482   4.925  0.6722  0.6951 -0.4251
21474SOL     OW66428   5.391   9.659   1.431  0.7476  0.0382 -0.4906
21474SOL    HW166429   5.403   9.697   1.518  1.6351 -1.9981  0.3485
21474SOL    HW266430   5.310   9.698   1.398 -1.1098 -1.0801  2.3848
21475SOL     OW66431   6.705   1.482   4.566  0.1745 -0.1886 -0.3206
21475SOL    HW166432   6.778   1.513   4.512  1.2142 -0.4273  0.8817
21475SOL    HW266433   6.741   1.480   4.655 -0.2209 -3.4237 -0.0964
21476SOL     OW66434   7.509  10.129   0.222  0.1302 -0.6489 -0.1756
21476SOL    HW166435   7.577  10.154   0.160  0.8777 -2.7047 -0.2435
21476SOL    HW266436   7.434  10.184   0.198  1.3628  0.7825 -0.8839
21477SOL     OW66437  10.971   4.978  10.974  0.5756  0.4284 -0.1820
21477SOL    HW166438  10.974   5.057  10.920 -1.1338  0.1317 -0.7712
21477SOL    HW266439  10.888   4.983  11.021  1.0100 -0.4247  0.7187
21478SOL     OW66440   5.551   5.654  10.513 -0.2907 -0.4530 -0.0789
21478SOL    HW166441   5.534   5.617  10.600  0.2827 -2.0553 -0.6220
21478SOL    HW266442   5.469   5.642  10.466 -0.0650 -1.1970 -0.2963
21479SOL     OW66443   9.456   5.371  10.798 -0.2041  0.2017  0.0533
21479SOL    HW166444   9.462   5.462  10.770  2.1400  0.4463  1.1012
21479SOL    HW266445   9.513   5.324  10.738  0.2154 -0.2198  0.7700
21480SOL     OW66446   7.644   2.707   0.772  0.0083  0.4638 -0.3302
21480SOL    HW166447   7.582   2.760   0.723 -0.7328  0.6472  0.7766
21480SOL    HW266448   7.713   2.687   0.709 -0.5386  1.3172 -1.2309
21481SOL     OW66449   6.902  10.070   4.863 -0.3177 -0.3222  0.5267
21481SOL    HW166450   6.934  10.059   4.953 -0.3017 -1.0185  0.4377
21481SOL    HW266451   6.866   9.985   4.840 -2.7968  0.5819  0.8173
21482SOL     OW66452   4.900   0.747   2.098  0.2158  0.4868 -1.0900
21482SOL    HW166453   4.952   0.802   2.040 -0.7808  2.6427 -0.0660
21482SOL    HW266454   4.817   0.735   2.051  0.5001 -0.3631 -1.3974
21483SOL     OW66455   7.533   2.153   3.999 -0.3219 -0.9620  0.0440
21483SOL    HW166456   7.449   2.158   4.046 -0.9550 -0.3986 -1.1056
21483SOL    HW266457   7.548   2.242   3.968  0.5068 -1.1519 -0.1041
21484SOL     OW66458   6.749   8.162   2.956  0.3371 -0.1991  0.6249
21484SOL    HW166459   6.834   8.179   2.996 -0.6344 -2.4034  4.0835
21484SOL    HW266460   6.686   8.205   3.013 -1.0240 -0.2731 -0.7456
21485SOL     OW66461   0.190   6.641   8.801 -0.0814 -0.0771  0.1404
21485SOL    HW166462   0.276   6.667   8.834  0.6996 -1.5740 -0.6604
21485SOL    HW266463   0.201   6.551   8.772 -2.1927 -0.6480  0.9463
21486SOL     OW66464   8.008  10.994   4.857 -0.9211  0.4603  0.2807
21486SOL    HW166465   8.091  11.007   4.903 -0.6312  0.3943 -0.2191
21486SOL    HW266466   8.022  10.916   4.803 -1.5657 -0.0101  0.7731
21487SOL     OW66467   1.861   1.100   6.716 -0.5536 -0.2147  0.4110
21487SOL    HW166468   1.812   1.182   6.728  1.0202  0.5568  2.0228
21487SOL    HW266469   1.911   1.114   6.635  0.2542  0.7586  1.0499
21488SOL     OW66470   0.482   4.140   3.868 -0.3124 -0.8417  0.3624
21488SOL    HW166471   0.517   4.110   3.952 -0.0978 -1.2235  0.1386
21488SOL    HW266472   0.406   4.084   3.852  1.0310 -2.4204 -0.8406
21489SOL     OW66473   1.716   4.068   3.818  0.1633  0.4936  0.3896
21489SOL    HW166474   1.649   4.136   3.803  0.2008  0.0677 -2.3174
21489SOL    HW266475   1.681   4.014   3.888 -1.6909  1.1230  0.0032
21490SOL     OW66476   9.682   2.161   4.806  0.1987  0.9653  0.2981
21490SOL    HW166477   9.677   2.142   4.900  2.1976 -0.2056  0.2232
21490SOL    HW266478   9.688   2.075   4.764 -1.9240  1.4104 -1.0525
21491SOL     OW66479   5.884   7.939   4.402 -0.2374  0.2713 -0.3114
21491SOL    HW166480   5.824   7.972   4.335 -1.7798 -0.4733  0.6262
21491SOL    HW266481   5.839   7.958   4.485  0.2691 -1.3670  0.3752
21492SOL     OW66482   9.482   2.792   8.231  0.1990  0.6582  0.6090
21492SOL    HW166483   9.558   2.766   8.179 -0.6756 -2.2012  0.5936
21492SOL    HW266484   9.418   2.820   8.166 -0.5771 -2.0694  0.0544
21493SOL     OW66485   6.897   6.179   3.260 -0.1015  0.5882  0.0809
21493SOL    HW166486   6.916   6.226   3.342  1.3479  1.5501 -0.7588
21493SOL    HW266487   6.971   6.199   3.203 -1.7478  1.1312 -2.0082
21494SOL     OW66488  10.207   2.410   5.717  0.0950 -0.1027 -0.0234
21494SOL    HW166489  10.218   2.504   5.698  1.7480 -0.4067 -0.7765
21494SOL    HW266490  10.182   2.407   5.809 -3.2252  1.2021 -0.7094
21495SOL     OW66491   6.699  10.664   6.828  0.3408  0.3617 -0.1776
21495SOL    HW166492   6.608  10.682   6.805  0.7284  1.1134 -1.1785
21495SOL    HW266493   6.734  10.619   6.751  0.9859  0.6397 -0.0452
21496SOL     OW66494   6.334   9.732   7.224 -0.4135  0.0715  0.1829
21496SOL    HW166495   6.358   9.824   7.208  0.6343 -0.4352 -1.4807
21496SOL    HW266496   6.239   9.730   7.213 -0.3852  0.8604 -0.3084
21497SOL     OW66497  10.940   2.348   5.921  0.6875 -0.5620 -0.1683
21497SOL    HW166498  10.915   2.430   5.964  2.5229 -0.7961  1.5025
21497SOL    HW266499  10.926   2.281   5.987  2.8181 -1.0579 -0.1511
21498SOL     OW66500   7.929   1.043   6.817  0.0979  0.4190  0.0687
21498SOL    HW166501   7.989   1.118   6.822 -1.8028  1.9553  3.8115
21498SOL    HW266502   7.887   1.052   6.732  3.6633  0.3518 -1.8948
21499SOL     OW66503   8.391   5.219   5.269  0.2946  0.1305  0.1958
21499SOL    HW166504   8.435   5.138   5.244  0.0025 -0.6783  2.0782
21499SOL    HW266505   8.450   5.288   5.241  0.6344 -0.7207 -1.3008
21500SOL     OW66506   0.022   0.875   4.693 -0.8740 -0.3506 -0.6906
21500SOL    HW166507   0.018   0.841   4.783 -0.3073 -1.5977 -1.1067
21500SOL    HW266508  -0.007   0.966   4.700  0.8855  0.1572  1.0679
21501SOL     OW66509   5.223   2.584   1.341  0.0196  0.5475  0.3630
21501SOL    HW166510   5.162   2.512   1.325  1.7301 -0.5954 -1.5517
21501SOL    HW266511   5.205   2.647   1.271  1.1730  0.0456 -0.4257
21502SOL     OW66512   8.054  10.996   4.082  0.0876 -0.5386  0.3562
21502SOL    HW166513   8.137  10.983   4.128  0.8386  0.9298 -0.5068
21502SOL    HW266514   8.026  11.084   4.108  0.2133  0.0690 -1.4220
21503SOL     OW66515   9.050   2.042   9.571  0.2258 -0.1518  0.2008
21503SOL    HW166516   9.076   1.978   9.638  0.7786  1.0379  1.1702
21503SOL    HW266517   9.113   2.031   9.501 -0.5199 -1.6082 -0.2835
21504SOL     OW66518   1.615   2.553  10.749 -0.1309  0.2245  0.8849
21504SOL    HW166519   1.609   2.460  10.731 -0.7083  0.3555  0.3800
21504SOL    HW266520   1.524   2.584  10.751  0.0763  0.9007  0.3801
21505SOL     OW66521   1.391   7.246   3.886 -0.1722 -0.4128 -0.2450
21505SOL    HW166522   1.373   7.200   3.804  1.5525  1.6529 -1.8924
21505SOL    HW266523   1.309   7.293   3.905 -0.2213  0.0420 -1.4696
21506SOL     OW66524  10.491   9.901   2.050 -0.1373  0.2551 -0.4920
21506SOL    HW166525  10.537   9.984   2.060  1.1792 -0.5587  0.7269
21506SOL    HW266526  10.561   9.836   2.042 -1.1062 -0.8579 -0.2564
21507SOL     OW66527   0.168   9.980   8.683  0.2004 -0.6885 -0.6930
21507SOL    HW166528   0.137  10.006   8.596 -2.3111 -0.8176  0.0618
21507SOL    HW266529   0.088   9.977   8.736  1.6667 -0.5607  1.6437
21508SOL     OW66530   3.015   3.068   8.884  0.4333 -0.1227  0.7157
21508SOL    HW166531   3.014   3.154   8.926  0.9639  0.0470  0.3785
21508SOL    HW266532   2.922   3.048   8.871  0.1619 -0.7959  3.1936
21509SOL     OW66533  10.903   6.059  10.866 -0.3617  0.3593  0.4751
21509SOL    HW166534  10.896   6.044  10.961  2.7413  0.1826  0.7822
21509SOL    HW266535  10.893   5.973  10.827 -0.3141  0.2253  0.7574
21510SOL     OW66536   5.642   5.832   9.239  0.5941  0.6951 -0.2109
21510SOL    HW166537   5.690   5.895   9.186 -0.3558  1.3645 -0.3041
21510SOL    HW266538   5.610   5.883   9.314  1.7784 -0.1945  0.9606
21511SOL     OW66539   4.618   9.228   8.281  0.1410 -0.2595  0.0801
21511SOL    HW166540   4.697   9.227   8.334  1.0899 -1.6560 -1.2814
21511SOL    HW266541   4.580   9.315   8.296  2.1804  0.6269  0.4032
21512SOL     OW66542  10.019   7.046  10.384 -0.4869  0.3854 -0.4571
21512SOL    HW166543   9.969   7.020  10.461  2.1793  1.2523  1.7637
21512SOL    HW266544   9.954   7.074  10.320 -2.8280  0.0071  1.6272
21513SOL     OW66545   2.073   0.601   4.144 -0.0375 -0.1727  0.5056
21513SOL    HW166546   2.015   0.661   4.190 -0.2352  0.4910 -0.5811
21513SOL    HW266547   2.020   0.523   4.129  0.0591 -0.4404  1.4516
21514SOL     OW66548   9.708   9.095   4.541  0.1925 -0.4313 -0.1560
21514SOL    HW166549   9.734   9.046   4.619 -3.0872  0.0160  1.3670
21514SOL    HW266550   9.694   9.028   4.474 -0.0721 -1.1610  0.6142
21515SOL     OW66551   0.011   6.468   7.536  0.7351 -0.4275  0.2605
21515SOL    HW166552   0.055   6.400   7.586 -1.0110 -0.3605  2.0115
21515SOL    HW266553  -0.021   6.530   7.601  0.9267  1.2808 -1.1760
21516SOL     OW66554   1.921   7.919   5.984  0.1905  0.2326  0.1511
21516SOL    HW166555   1.841   7.968   6.003 -0.0337 -0.5067  1.2479
21516SOL    HW266556   1.930   7.923   5.889 -0.7206  0.9797  0.0793
21517SOL     OW66557   6.001   4.492   4.055 -0.2393  0.1916  0.1231
21517SOL    HW166558   6.009   4.574   4.104  1.8562 -0.8088  1.6437
21517SOL    HW266559   5.937   4.441   4.104 -1.0091  0.6325 -0.4128
21518SOL     OW66560   8.566   1.190   1.496 -0.0341 -0.1074  0.2413
21518SOL    HW166561   8.567   1.127   1.568  0.0555 -2.0314 -1.3645
21518SOL    HW266562   8.650   1.235   1.503 -0.2511  0.1110  1.6345
21519SOL     OW66563   3.871   2.266   8.256 -0.1588  0.2965 -0.2457
21519SOL    HW166564   3.961   2.245   8.282  0.6667  2.1017 -1.3736
21519SOL    HW266565   3.869   2.249   8.162 -1.0615  0.0943 -0.1969
21520SOL     OW66566  10.355   5.375   8.041  0.0113 -0.1001 -0.6546
21520SOL    HW166567  10.449   5.374   8.058  0.1066  0.3464 -1.1290
21520SOL    HW266568  10.317   5.327   8.114  0.6267 -0.4785 -0.5761
21521SOL     OW66569  10.978   9.878   4.886  0.0137 -0.0405 -0.1121
21521SOL    HW166570  11.013   9.950   4.939  1.2466 -0.8234  0.1975
21521SOL    HW266571  10.985   9.802   4.943  1.3091 -0.8945 -1.3388
21522SOL     OW66572   8.875   6.792   2.483 -0.7358  0.3678  0.4367
21522SOL    HW166573   8.827   6.710   2.476  0.3470 -0.1605 -1.5057
21522SOL    HW266574   8.956   6.769   2.529 -0.1471  0.1868 -0.6668
21523SOL     OW66575   1.756   3.170   8.441  0.3777  0.3167  0.5420
21523SOL    HW166576   1.827   3.234   8.432 -0.3441  1.0068 -0.4405
21523SOL    HW266577   1.706   3.200   8.517  0.6400  0.3254  0.7118
21524SOL     OW66578   6.839   2.468   8.520  0.1627 -0.4183 -0.3489
21524SOL    HW166579   6.897   2.484   8.595 -1.1104  1.9212  0.2296
21524SOL    HW266580   6.898   2.460   8.445  1.3481 -0.7177  0.5881
21525SOL     OW66581   3.600   3.804   0.929 -0.1964  1.0504 -0.4767
21525SOL    HW166582   3.505   3.804   0.937 -0.1508  2.7296  0.6141
21525SOL    HW266583   3.617   3.763   0.844 -1.9602  2.2047 -1.4493
21526SOL     OW66584   1.946   2.014   1.344 -0.3328  0.3596 -0.6894
21526SOL    HW166585   1.924   1.979   1.430  1.7391 -1.8587 -0.9678
21526SOL    HW266586   2.034   2.050   1.354 -0.1260  0.2142 -1.8173
21527SOL     OW66587   7.202   9.908   8.044 -0.0807  0.0058  0.4455
21527SOL    HW166588   7.285   9.862   8.059  1.2510  0.9835 -3.0484
21527SOL    HW266589   7.191   9.962   8.122  1.9601 -0.9893  1.5195
21528SOL     OW66590  10.927   0.432   0.257  0.2028  0.1707 -0.7729
21528SOL    HW166591  10.867   0.426   0.183 -0.4815  1.5581 -0.3700
21528SOL    HW266592  10.997   0.371   0.236  0.2364  0.8217 -2.7445
21529SOL     OW66593   7.253   5.382   1.399  0.2127  0.8349  0.3233
21529SOL    HW166594   7.330   5.378   1.455  0.3365  3.1479  0.4259
21529SOL    HW266595   7.279   5.337   1.318  0.6453 -0.9387  1.3959
21530SOL     OW66596   9.753   8.643   1.517  0.1283 -0.5602 -0.6558
21530SOL    HW166597   9.766   8.738   1.518  1.0265 -0.6600  1.2295
21530SOL    HW266598   9.788   8.613   1.601 -1.8712 -2.3458 -0.3873
21531SOL     OW66599   2.397   7.860   9.245 -0.0857 -0.0723 -0.7297
21531SOL    HW166600   2.375   7.837   9.335  1.2697  0.7165 -0.1809
21531SOL    HW266601   2.350   7.795   9.192  0.5111 -1.6587  0.6025
21532SOL     OW66602   0.748  10.389   0.261 -0.0595  0.3473  0.2497
21532SOL    HW166603   0.675  10.388   0.322  0.7189 -1.2353  1.2071
21532SOL    HW266604   0.818  10.433   0.308 -0.2582  1.5707 -0.5472
21533SOL     OW66605   9.781   8.988   6.109 -0.2419 -0.0155  0.8124
21533SOL    HW166606   9.862   8.942   6.089  0.2197  0.7531  0.8689
21533SOL    HW266607   9.712   8.934   6.071  0.4304  0.2163 -0.7935
21534SOL     OW66608   7.388   9.795   9.379  0.2042 -0.2690  0.0845
21534SOL    HW166609   7.410   9.810   9.471  0.8203 -1.0860  0.0831
21534SOL    HW266610   7.370   9.701   9.374 -0.0958 -0.1800 -0.5741
21535SOL     OW66611  10.239   4.728   7.085 -0.0685 -0.4658  0.0250
21535SOL    HW166612  10.317   4.763   7.128  0.8155 -1.6258 -0.5868
21535SOL    HW266613  10.223   4.644   7.127 -0.0405 -0.9594 -0.9121
21536SOL     OW66614   6.267   3.405   8.401 -0.1040 -0.2326  0.4201
21536SOL    HW166615   6.202   3.365   8.344  0.3850  0.0086 -0.3285
21536SOL    HW266616   6.309   3.472   8.346  0.9385 -0.5500  0.8000
21537SOL     OW66617   5.787   8.748  10.525 -0.1461 -0.0073 -0.5529
21537SOL    HW166618   5.748   8.705  10.601 -0.4540  0.5774 -0.3762
21537SOL    HW266619   5.712   8.782  10.475  0.1039  0.5982 -0.5241
21538SOL     OW66620   7.173   6.600   1.404 -0.3863 -0.0804 -0.4891
21538SOL    HW166621   7.229   6.629   1.476  0.4042 -0.0389 -1.1037
21538SOL    HW266622   7.128   6.679   1.375  0.0749  0.1068 -0.7049
21539SOL     OW66623   6.908   0.005   6.904  0.0309  0.2377  0.1977
21539SOL    HW166624   6.822  -0.016   6.941 -0.2867  0.8392 -0.1863
21539SOL    HW266625   6.949   0.061   6.970 -0.2556  0.7369 -0.0469
21540SOL     OW66626   0.480   0.263   9.699  0.5033  0.0089 -0.3087
21540SOL    HW166627   0.515   0.275   9.611 -0.4597  1.9051 -0.4764
21540SOL    HW266628   0.545   0.304   9.756  0.0312  0.8445 -0.3581
21541SOL     OW66629   5.130   3.529   0.443 -0.1551 -0.1561 -0.5014
21541SOL    HW166630   5.114   3.474   0.367 -0.4057  0.0948 -0.6323
21541SOL    HW266631   5.062   3.596   0.439  0.0414  0.0630 -0.2512
21542SOL     OW66632   4.512  10.105   1.353 -0.2797  0.1399  0.5120
21542SOL    HW166633   4.481  10.095   1.443 -0.7022 -0.6336  0.2950
21542SOL    HW266634   4.438  10.144   1.306 -0.0845  0.4805  0.4879
21543SOL     OW66635   0.596   8.908   3.425 -0.0100  0.3467  0.8550
21543SOL    HW166636   0.618   8.858   3.347 -1.2730  0.6153  0.3038
21543SOL    HW266637   0.526   8.967   3.397 -0.7491  0.1933  2.2747
21544SOL     OW66638   2.237   6.251   6.055 -0.2263  0.0572  0.3970
21544SOL    HW166639   2.258   6.161   6.029  0.4546 -0.0523  1.2506
21544SOL    HW266640   2.220   6.245   6.149  0.5379  0.9341  0.6065
21545SOL     OW66641   8.399   7.309   5.504 -0.0991 -0.2029  0.5906
21545SOL    HW166642   8.381   7.225   5.461  2.3135  0.0895 -1.1797
21545SOL    HW266643   8.489   7.301   5.537 -0.3260  1.2103  1.6781
21546SOL     OW66644   9.425   5.905   3.087  0.2238 -0.5843 -0.4748
21546SOL    HW166645   9.506   5.854   3.093  0.0284 -1.0502 -1.6269
21546SOL    HW266646   9.371   5.858   3.024 -0.9458 -0.2544  0.2468
21547SOL     OW66647   0.523   4.575   1.012  0.0949 -0.0389 -0.1019
21547SOL    HW166648   0.465   4.542   1.080 -0.9793  1.0972 -0.4304
21547SOL    HW266649   0.514   4.514   0.940 -0.4343 -0.0464 -0.0286
21548SOL     OW66650   5.856   4.282   9.684 -0.1983  0.0068  0.2035
21548SOL    HW166651   5.860   4.219   9.612 -1.0030  0.6101 -0.3781
21548SOL    HW266652   5.941   4.326   9.681  0.7711 -1.6610  1.2167
21549SOL     OW66653   9.171   1.776   7.333 -0.4078  0.1829  0.3724
21549SOL    HW166654   9.187   1.851   7.276 -0.8023  0.2131  0.2956
21549SOL    HW266655   9.078   1.783   7.356 -0.9186 -1.2058 -1.0206
21550SOL     OW66656   8.672   0.604   8.347  0.4504 -0.0154  0.2474
21550SOL    HW166657   8.766   0.592   8.356  0.3206 -0.5384  1.0704
21550SOL    HW266658   8.662   0.664   8.273  1.3851 -0.5795 -0.3492
21551SOL     OW66659   3.182   1.635   9.599 -0.0413 -0.5806 -0.7723
21551SOL    HW166660   3.210   1.714   9.646 -0.3630 -1.5817  1.2124
21551SOL    HW266661   3.181   1.661   9.507  1.2029  1.3166 -0.3122
21552SOL     OW66662   5.566   6.648   1.953 -0.2480 -0.0376  0.3322
21552SOL    HW166663   5.550   6.714   2.021 -2.0026  0.8538 -0.8411
21552SOL    HW266664   5.595   6.699   1.877  2.5345 -1.0933  0.5904
21553SOL     OW66665   7.824   6.668  10.428  0.0858 -0.3446 -0.0384
21553SOL    HW166666   7.733   6.671  10.460 -0.3424 -0.7632 -1.1500
21553SOL    HW266667   7.820   6.712  10.343  1.0118 -0.0388  0.0700
21554SOL     OW66668   4.266   1.668   8.572 -0.6549  0.2110  0.0300
21554SOL    HW166669   4.259   1.691   8.664  0.0148  1.0707 -0.1230
21554SOL    HW266670   4.314   1.740   8.532 -1.7648  0.3328 -1.1808
21555SOL     OW66671   0.253   0.655  10.007  0.4244 -0.5430  0.4757
21555SOL    HW166672   0.201   0.662  10.087 -1.5294 -0.5945 -0.7390
21555SOL    HW266673   0.305   0.575  10.019  0.4808 -0.3280  1.8416
21556SOL     OW66674   7.133   8.395   1.565 -0.0535 -0.3984  0.5407
21556SOL    HW166675   7.105   8.448   1.490 -0.7563 -1.3352  0.1080
21556SOL    HW266676   7.223   8.422   1.581  0.1709 -0.2897 -0.7584
21557SOL     OW66677  10.765   9.725   0.687  0.0828 -0.4381 -0.1583
21557SOL    HW166678  10.712   9.671   0.628 -0.7923  0.0554  0.1474
21557SOL    HW266679  10.772   9.675   0.767 -0.0683 -0.4320 -0.1413
21558SOL     OW66680   1.725   7.207   2.537 -0.4421  0.5866 -0.1645
21558SOL    HW166681   1.809   7.248   2.513 -0.2751 -0.4821 -1.5588
21558SOL    HW266682   1.676   7.203   2.455 -3.1660  3.8606  1.0654
21559SOL     OW66683   8.397  11.023   9.205 -0.3666 -0.0409 -0.4986
21559SOL    HW166684   8.341  11.100   9.192  0.7858  0.4654 -3.4581
21559SOL    HW266685   8.466  11.034   9.140  1.9502 -1.7583  1.5091
21560SOL     OW66686   9.177   4.844  10.766 -0.3153 -0.0161  0.3593
21560SOL    HW166687   9.137   4.918  10.719  1.8349  2.8630  2.6578
21560SOL    HW266688   9.159   4.862  10.858  2.0688 -1.1991  1.1321
21561SOL     OW66689   5.207   7.844   2.895  0.0673 -0.2003  0.1109
21561SOL    HW166690   5.198   7.799   2.980  1.7384 -0.2073  0.3003
21561SOL    HW266691   5.183   7.935   2.914  0.7056 -0.1400  0.6617
21562SOL     OW66692  10.523   9.667   4.465 -0.7146  0.1007  0.3998
21562SOL    HW166693  10.558   9.626   4.544 -0.7004 -2.7792 -0.9904
21562SOL    HW266694  10.441   9.707   4.493  1.1585  2.7854  2.6662
21563SOL     OW66695   0.882   7.625  10.094 -0.2246  0.1443 -0.4011
21563SOL    HW166696   0.949   7.623  10.025 -0.5836 -4.1581 -0.9122
21563SOL    HW266697   0.911   7.560  10.157 -1.6418  1.5580  1.8330
21564SOL     OW66698   1.224   7.960   7.792 -0.0904 -0.2478 -0.4840
21564SOL    HW166699   1.212   8.039   7.740 -1.6510 -0.3771 -0.3613
21564SOL    HW266700   1.277   7.903   7.736 -0.0698  0.3753 -1.1115
21565SOL     OW66701   1.033   4.384   9.842 -0.0481 -0.7616 -0.0096
21565SOL    HW166702   1.004   4.293   9.835  2.0336 -1.5342  0.7367
21565SOL    HW266703   0.996   4.415   9.925 -2.3338 -0.2404 -1.1326
21566SOL     OW66704   1.446   7.987   5.200 -0.0762 -0.0671  0.3498
21566SOL    HW166705   1.388   7.952   5.132 -1.1298  1.0793  0.6109
21566SOL    HW266706   1.400   8.064   5.233  1.1741  0.3291  1.2500
21567SOL     OW66707   2.637   7.351   9.082  0.6264  0.2489  0.5001
21567SOL    HW166708   2.693   7.380   9.154  0.8297 -1.1220  0.9128
21567SOL    HW266709   2.670   7.264   9.060  0.3938  0.5269 -1.0775
21568SOL     OW66710  10.787   8.315   2.941  1.2204 -0.1807  0.1360
21568SOL    HW166711  10.774   8.223   2.917  1.5741  0.3177 -2.2744
21568SOL    HW266712  10.879   8.321   2.965  0.9486 -0.6259  1.3882
21569SOL     OW66713   7.805   4.957   0.885 -0.1388 -1.0533  0.5515
21569SOL    HW166714   7.808   4.908   0.967  1.3373  0.4400  1.4488
21569SOL    HW266715   7.887   4.935   0.841  0.1638 -0.0605  0.5897
21570SOL     OW66716   6.424   3.587   5.206 -0.5666 -0.2383  0.5292
21570SOL    HW166717   6.341   3.580   5.254 -0.4270 -0.4912  0.7393
21570SOL    HW266718   6.401   3.574   5.115 -0.7991 -0.0244  0.5555
21571SOL     OW66719  10.492   1.875   9.185 -0.0912 -0.6205 -0.2702
21571SOL    HW166720  10.434   1.810   9.145 -0.7361 -1.8811  2.4369
21571SOL    HW266721  10.433   1.933   9.233  0.5363  1.7064 -2.1089
21572SOL     OW66722   7.707   5.207   6.035 -0.1391 -0.3214  0.2485
21572SOL    HW166723   7.681   5.253   6.115 -0.4305  1.6201 -0.8759
21572SOL    HW266724   7.740   5.277   5.978  0.1424 -1.6604 -1.2818
21573SOL     OW66725   5.914   2.586   8.885  0.6301 -0.3332 -0.6220
21573SOL    HW166726   5.859   2.565   8.960  1.4270  1.5836  0.5944
21573SOL    HW266727   5.854   2.592   8.811 -0.7339  1.0895  0.5437
21574SOL     OW66728   4.169   9.292   5.041 -0.2318 -0.5361 -0.0614
21574SOL    HW166729   4.113   9.364   5.068  1.2940 -0.0243  1.9678
21574SOL    HW266730   4.158   9.288   4.946 -1.9438  0.9825  0.0237
21575SOL     OW66731   5.306  10.847   8.329 -0.0350  0.1188 -0.0674
21575SOL    HW166732   5.376  10.805   8.279  0.2854 -0.4254  0.8148
21575SOL    HW266733   5.344  10.863   8.415 -0.5464  1.1278 -0.0159
21576SOL     OW66734   0.322   4.874   9.548  0.3313 -0.4600 -0.0223
21576SOL    HW166735   0.253   4.858   9.612  0.5774 -0.2638  0.2980
21576SOL    HW266736   0.308   4.809   9.480 -0.3405 -0.2364 -0.1006
21577SOL     OW66737   1.002   4.595   8.377 -0.0548 -0.5259 -0.3324
21577SOL    HW166738   0.954   4.622   8.455 -1.1361 -1.3582 -0.6922
21577SOL    HW266739   1.083   4.557   8.410 -0.1207 -0.1046  0.3320
21578SOL     OW66740   0.442  10.415   8.235 -0.1419 -0.7233  0.7073
21578SOL    HW166741   0.395  10.476   8.293  1.2393  1.0724  0.0254
21578SOL    HW266742   0.445  10.333   8.284  0.3950  0.5335  2.9106
21579SOL     OW66743   7.936   7.073   9.734  0.2421  0.5939 -0.6057
21579SOL    HW166744   7.942   6.995   9.679  0.9890  0.7080 -0.6931
21579SOL    HW266745   7.852   7.063   9.780  0.5421 -0.4869 -0.2701
21580SOL     OW66746   5.488  10.782   4.330  0.3269 -0.3117 -0.1505
21580SOL    HW166747   5.538  10.850   4.286 -0.6052  0.3690 -0.1746
21580SOL    HW266748   5.530  10.700   4.303  0.5896  0.1655 -1.2332
21581SOL     OW66749   8.255  10.243   0.851 -0.0934  0.7618  0.6522
21581SOL    HW166750   8.282  10.200   0.932 -0.4114  0.6201  0.6850
21581SOL    HW266751   8.334  10.247   0.797  0.2746  1.4513  1.2289
21582SOL     OW66752   9.395   7.885   4.174  1.1526  0.4179  0.7415
21582SOL    HW166753   9.325   7.829   4.208  1.8103  0.5610  2.4247
21582SOL    HW266754   9.405   7.858   4.083 -0.3838 -0.3151  0.7551
21583SOL     OW66755   6.190   8.738  10.648  0.2013 -0.7039 -0.4664
21583SOL    HW166756   6.201   8.694  10.733  0.3460  1.2434  0.5732
21583SOL    HW266757   6.217   8.672  10.584 -0.5584 -2.4710  0.9346
21584SOL     OW66758  10.794   1.382   3.422  0.5399 -0.0826 -0.2126
21584SOL    HW166759  10.797   1.460   3.368 -1.1643 -0.7922 -1.4302
21584SOL    HW266760  10.725   1.328   3.382  1.9220 -2.3773  0.3292
21585SOL     OW66761   0.897   7.099   0.522  0.1109 -0.1948 -0.2250
21585SOL    HW166762   0.928   7.112   0.432 -0.9777 -0.2638 -0.6307
21585SOL    HW266763   0.933   7.014   0.547  0.9577  0.1202 -0.3508
21586SOL     OW66764  11.000   1.818   9.459  0.1920  0.1535  0.0313
21586SOL    HW166765  11.030   1.813   9.368  0.3286  0.1873  0.0733
21586SOL    HW266766  10.989   1.911   9.475  3.2153  0.4436  1.0048
21587SOL     OW66767   2.679   8.793   8.917 -0.7034 -0.5749  0.5148
21587SOL    HW166768   2.741   8.852   8.874 -0.8912 -0.0847  0.9085
21587SOL    HW266769   2.732   8.718   8.942 -0.5327 -0.7365 -0.3052
21588SOL     OW66770   2.506   4.684   4.119  0.1279  0.6584 -0.3269
21588SOL    HW166771   2.446   4.651   4.052 -0.2418  1.0035 -0.1705
21588SOL    HW266772   2.452   4.693   4.197  0.7118 -0.4206  0.2252
21589SOL     OW66773   2.981   2.070  10.343 -0.2744  0.0756 -0.3221
21589SOL    HW166774   2.976   2.084  10.437 -1.0246 -1.5586 -0.0857
21589SOL    HW266775   3.028   2.147  10.310 -1.3867  1.4653  1.1634
21590SOL     OW66776   5.728   4.676   3.016  0.3071  0.4358 -0.1913
21590SOL    HW166777   5.807   4.726   2.999 -0.0795  1.0336 -0.2602
21590SOL    HW266778   5.735   4.650   3.108  0.3611  0.8822 -0.0706
21591SOL     OW66779   8.391  10.563   9.149 -0.4361 -0.3556 -0.4863
21591SOL    HW166780   8.307  10.608   9.142 -1.2671 -1.5807  0.9809
21591SOL    HW266781   8.410  10.562   9.242  0.9281 -0.6549 -0.7402
21592SOL     OW66782   6.594  10.514   8.218  0.4025  0.0857 -0.7600
21592SOL    HW166783   6.678  10.526   8.262 -0.1967  0.1828  0.3826
21592SOL    HW266784   6.590  10.419   8.201 -0.3438 -0.3338  1.4814
21593SOL     OW66785   3.497   2.156   7.701 -0.4453 -0.1733 -0.1913
21593SOL    HW166786   3.493   2.190   7.612 -1.8800  2.0742  0.6403
21593SOL    HW266787   3.465   2.228   7.756 -2.1746 -2.3786  1.9051
21594SOL     OW66788   6.373   5.929   5.288 -0.4968  0.4368  0.2112
21594SOL    HW166789   6.360   6.008   5.341 -0.7740  0.2517  0.4192
21594SOL    HW266790   6.433   5.875   5.340  0.8097  1.1041 -0.5519
21595SOL     OW66791   4.436   9.960   8.906  0.0227 -0.5174 -0.0427
21595SOL    HW166792   4.364   9.903   8.931 -1.5530  1.6625  0.6551
21595SOL    HW266793   4.456  10.010   8.985  1.3899 -0.1016 -0.6143
21596SOL     OW66794   1.031   6.322   4.151  0.2480  0.4471 -0.6118
21596SOL    HW166795   1.021   6.242   4.201  1.6551  0.3895 -0.3983
21596SOL    HW266796   0.989   6.390   4.204  1.0363  0.2462  0.2831
21597SOL     OW66797   4.270   4.313   7.995 -0.1678  0.4559 -0.2471
21597SOL    HW166798   4.248   4.224   8.023 -0.0639  0.7238  0.6904
21597SOL    HW266799   4.347   4.337   8.046 -1.0135  1.5978  0.5279
21598SOL     OW66800   1.433   7.051   6.550  0.0486 -0.6597 -0.1926
21598SOL    HW166801   1.449   7.117   6.482  1.6322 -1.5478 -0.7481
21598SOL    HW266802   1.418   7.101   6.630 -0.2649  0.3910 -0.8921
21599SOL     OW66803   6.822   6.907   0.271  0.1076  0.4390  0.6124
21599SOL    HW166804   6.909   6.948   0.266 -0.0918  0.8047  0.0104
21599SOL    HW266805   6.832   6.823   0.226 -0.5150  1.6894 -2.0575
21600SOL     OW66806   6.642  10.447  10.375  0.5483  0.7543  0.3220
21600SOL    HW166807   6.574  10.442  10.442 -0.8562  0.4539 -1.0543
21600SOL    HW266808   6.667  10.539  10.372 -1.4628  1.3288 -0.6695
21601SOL     OW66809   7.797   4.428   0.086  0.4099 -0.1904 -0.2497
21601SOL    HW166810   7.837   4.344   0.065  0.5648 -0.0311 -0.5869
21601SOL    HW266811   7.840   4.455   0.167  0.7276 -0.1927 -0.4145
21602SOL     OW66812   7.600   1.331   6.298  0.5993 -0.2898  0.2629
21602SOL    HW166813   7.616   1.239   6.278 -2.1831 -1.1342  1.4639
21602SOL    HW266814   7.686   1.365   6.324  1.6370 -2.6038  0.1310
21603SOL     OW66815   3.725   0.776   5.812  0.3886 -0.0123 -0.2733
21603SOL    HW166816   3.768   0.827   5.744 -0.0803 -0.0423 -0.5987
21603SOL    HW266817   3.659   0.836   5.848 -0.5523 -0.5591 -1.0404
21604SOL     OW66818   8.613  10.168  10.948  0.0955 -0.5476 -0.0576
21604SOL    HW166819   8.618  10.169  10.852  0.8738 -0.1986 -0.0174
21604SOL    HW266820   8.639  10.079  10.972 -0.6978 -0.8279 -0.1895
21605SOL     OW66821   0.967   4.022   7.609  0.1298  0.0938  0.0230
21605SOL    HW166822   1.008   4.095   7.655 -0.6849  1.3152 -1.1310
21605SOL    HW266823   0.930   3.967   7.678  2.3680 -0.2839  1.0218
21606SOL     OW66824   6.654   8.530   1.120  0.1457  0.1071  0.5420
21606SOL    HW166825   6.560   8.519   1.108  0.3882 -1.0609 -0.4564
21606SOL    HW266826   6.677   8.469   1.190  0.5015 -1.3627 -0.7985
21607SOL     OW66827   1.883   8.596   7.272 -0.1058  0.2452  0.2517
21607SOL    HW166828   1.960   8.649   7.249 -1.0890  1.3309 -0.6447
21607SOL    HW266829   1.885   8.523   7.211  0.5064 -0.0403  0.6006
21608SOL     OW66830   5.114   2.936   6.898  0.5058 -1.1036 -0.1025
21608SOL    HW166831   5.205   2.965   6.895  1.0627 -2.3916  2.0558
21608SOL    HW266832   5.107   2.872   6.828  0.1653  1.5752 -2.7060
21609SOL     OW66833   6.819   4.539   8.248  0.2308  0.2617  0.3990
21609SOL    HW166834   6.764   4.485   8.305  0.3388 -2.9217 -2.2078
21609SOL    HW266835   6.764   4.557   8.172  1.1917  1.3870 -0.0629
21610SOL     OW66836   9.407   9.581   6.927 -0.3923  0.8020  0.4137
21610SOL    HW166837   9.408   9.515   6.858 -0.1184 -0.4676  1.5856
21610SOL    HW266838   9.489   9.629   6.915  0.2716 -0.2427  0.6141
21611SOL     OW66839   6.951   2.928   1.825 -0.3749 -0.4111 -0.1516
21611SOL    HW166840   6.908   3.009   1.798  0.6968 -0.2689 -1.5428
21611SOL    HW266841   6.887   2.860   1.807  0.0725 -0.2618 -2.6826
21612SOL     OW66842   6.148   9.954   2.116 -0.3893 -0.1509 -0.0041
21612SOL    HW166843   6.142  10.048   2.131  1.5767  0.0423 -0.1997
21612SOL    HW266844   6.058   9.927   2.100 -1.1492  1.4855  1.2089
21613SOL     OW66845   6.123   1.477   7.132  0.5222 -0.0628 -0.2074
21613SOL    HW166846   6.170   1.417   7.189 -2.0700 -2.2270 -0.1604
21613SOL    HW266847   6.112   1.557   7.184 -0.3684 -1.4013  1.7542
21614SOL     OW66848   0.931   0.180   2.880  0.9002  0.0610  0.2353
21614SOL    HW166849   0.869   0.121   2.839  0.4723  1.4681 -1.2564
21614SOL    HW266850   0.983   0.125   2.938 -0.8806 -1.3754  0.5428
21615SOL     OW66851   9.650   7.548   3.723  0.4393 -0.1733 -0.0131
21615SOL    HW166852   9.591   7.495   3.776  0.8240 -1.4555 -0.8297
21615SOL    HW266853   9.731   7.554   3.776  0.3612 -0.2992  0.1198
21616SOL     OW66854   6.076   5.408   5.752  0.5102 -0.3190 -0.0443
21616SOL    HW166855   6.150   5.348   5.763  1.2300  0.4246 -0.7254
21616SOL    HW266856   6.050   5.429   5.842  1.0757 -0.6438  0.2056
21617SOL     OW66857  10.816   8.077   7.911 -0.4024  0.1451  0.5660
21617SOL    HW166858  10.907   8.052   7.921 -0.3887  0.6544  1.9045
21617SOL    HW266859  10.791   8.114   7.996 -2.1535 -0.9386  0.5859
21618SOL     OW66860   6.544   8.548   3.010  0.3498  0.1604  0.3325
21618SOL    HW166861   6.634   8.579   3.025  0.6136 -0.1314 -0.6093
21618SOL    HW266862   6.492   8.595   3.075  1.0172  1.1901  0.1461
21619SOL     OW66863   6.544   1.027   4.925  0.0936 -0.1436 -0.2499
21619SOL    HW166864   6.532   0.949   4.980  0.2253 -0.7390 -1.0599
21619SOL    HW266865   6.499   1.006   4.843 -1.8151  1.4961  0.2914
21620SOL     OW66866   7.761   0.205   6.753 -0.1038  0.0698  0.1147
21620SOL    HW166867   7.740   0.197   6.660 -0.2084 -0.6295  0.1937
21620SOL    HW266868   7.797   0.120   6.777  1.1611  0.6703  0.4087
21621SOL     OW66869   5.556   1.102   3.393 -0.6190 -0.2985  0.3247
21621SOL    HW166870   5.627   1.089   3.456  0.1777 -1.1013 -0.6998
21621SOL    HW266871   5.582   1.050   3.317 -1.4059  0.8847 -0.7941
21622SOL     OW66872   1.960   6.644   8.983 -0.5413 -0.2766 -0.3520
21622SOL    HW166873   1.958   6.552   9.007 -0.5164 -0.1508  0.1407
21622SOL    HW266874   1.956   6.644   8.887 -1.7826 -0.7474 -0.3222
21623SOL     OW66875   8.700   2.176   7.191 -0.0321 -0.2388 -0.0730
21623SOL    HW166876   8.609   2.202   7.199  0.1149  0.2499  0.0465
21623SOL    HW266877   8.736   2.233   7.123 -0.2311 -1.5652 -1.3375
21624SOL     OW66878   1.445  10.106   8.637  0.1069 -0.3129 -0.1496
21624SOL    HW166879   1.535  10.127   8.612 -0.2703 -0.2062 -1.5401
21624SOL    HW266880   1.439  10.129   8.729  1.4981 -0.3067 -0.0431
21625SOL     OW66881   5.340   5.059   0.679 -0.2586 -0.0318  0.0380
21625SOL    HW166882   5.417   5.065   0.735 -0.6673 -0.3221  0.6435
21625SOL    HW266883   5.339   5.141   0.630 -0.4731  0.7180  1.2346
21626SOL     OW66884  10.011   0.912   6.831 -0.0599  0.9084  0.0508
21626SOL    HW166885  10.024   0.914   6.736 -0.7667  0.3007 -0.0730
21626SOL    HW266886  10.098   0.926   6.868  0.2589  0.9084 -0.6847
21627SOL     OW66887  10.861   9.207   8.009  0.1180 -0.0249  1.1113
21627SOL    HW166888  10.908   9.258   8.075  0.7417  0.0913  0.5770
21627SOL    HW266889  10.774   9.246   8.007  0.4178  0.6519  1.1123
21628SOL     OW66890   6.457   6.564   0.601  0.2225 -0.1540  0.2282
21628SOL    HW166891   6.444   6.543   0.694  0.7698  1.7747  0.7842
21628SOL    HW266892   6.454   6.660   0.597 -3.7979 -0.1516 -2.3841
21629SOL     OW66893   1.825   3.848  10.027  0.0869 -0.1000 -0.8939
21629SOL    HW166894   1.799   3.937  10.053 -0.4633 -0.1648 -1.2023
21629SOL    HW266895   1.823   3.798  10.109  0.6485  0.2244 -0.6753
21630SOL     OW66896   5.006   0.459   2.213  0.7392  0.3830  0.1702
21630SOL    HW166897   5.033   0.404   2.286  1.7546  1.9625  1.0590
21630SOL    HW266898   4.931   0.508   2.246  0.2916  0.0729 -0.3648
21631SOL     OW66899   2.509   2.287   0.600  0.0094  0.4004  0.1340
21631SOL    HW166900   2.442   2.276   0.531  1.0436  1.4365 -1.0916
21631SOL    HW266901   2.523   2.381   0.605  0.1679  0.3120  1.5865
21632SOL     OW66902   2.543   8.023   4.115 -0.4010 -0.0842 -0.0804
21632SOL    HW166903   2.505   7.962   4.052 -2.0461  0.0792  0.7099
21632SOL    HW266904   2.527   8.109   4.077 -0.3850 -0.0320  0.0314
21633SOL     OW66905   1.917   8.820   1.724 -0.5790  0.0008  0.2176
21633SOL    HW166906   1.909   8.836   1.818  0.2046  0.3204  0.2340
21633SOL    HW266907   1.967   8.739   1.717  1.0474  0.9723  0.0766
21634SOL     OW66908   6.384   0.163   4.285 -0.4788  0.0025  0.1061
21634SOL    HW166909   6.372   0.220   4.209 -1.5327 -0.9640 -0.4698
21634SOL    HW266910   6.393   0.075   4.249 -0.6546 -0.4252  1.0780
21635SOL     OW66911   2.080   0.947   1.517  0.2917  0.5625  0.9804
21635SOL    HW166912   2.003   0.904   1.553  0.9516  0.1893  1.9768
21635SOL    HW266913   2.152   0.886   1.533  0.8806  1.0919  0.4555
21636SOL     OW66914   5.290   0.236   8.510  0.1470 -0.0067  0.6035
21636SOL    HW166915   5.332   0.153   8.489  0.8146  0.6178 -0.6104
21636SOL    HW266916   5.240   0.218   8.590  0.2786 -1.5640  0.3630
21637SOL     OW66917   0.366   6.694   9.936 -0.2927  0.8034 -0.2862
21637SOL    HW166918   0.397   6.784   9.941 -0.1581  0.7185  0.6386
21637SOL    HW266919   0.323   6.679  10.020  0.4536 -0.2558 -0.0657
21638SOL     OW66920   2.738   8.938  10.551 -0.3543  0.3461 -0.1664
21638SOL    HW166921   2.658   8.946  10.604 -0.5530 -0.7800 -0.2724
21638SOL    HW266922   2.745   8.845  10.532  0.0687  0.6390 -1.5846
21639SOL     OW66923   2.653  10.811  10.469  0.6373  0.3336  0.5136
21639SOL    HW166924   2.707  10.781  10.395 -0.3826 -0.0735 -0.0822
21639SOL    HW266925   2.700  10.780  10.546  0.6366 -1.1332 -0.0318
21640SOL     OW66926   2.646   1.592   8.800 -0.1773  0.4627 -0.6589
21640SOL    HW166927   2.729   1.547   8.804  0.1847  1.2061  2.5596
21640SOL    HW266928   2.665   1.673   8.752  0.9687  0.6014 -0.0023
21641SOL     OW66929   3.481   0.657   9.201  0.0446  0.1813  0.2561
21641SOL    HW166930   3.424   0.631   9.273 -0.9387  1.8124  0.1260
21641SOL    HW266931   3.554   0.703   9.243  0.6479 -0.8210  0.3362
21642SOL     OW66932  10.829   9.013   5.342 -0.1975  0.4787  0.2558
21642SOL    HW166933  10.873   9.036   5.260  0.1029 -2.8522 -0.6632
21642SOL    HW266934  10.737   9.036   5.327  0.3484  2.9491  0.3172
21643SOL     OW66935   3.529   0.729   7.964 -0.2788 -0.1391 -0.3033
21643SOL    HW166936   3.598   0.781   7.923 -0.9058 -0.3456 -1.6614
21643SOL    HW266937   3.455   0.735   7.904 -0.0844 -3.3207 -1.0490
21644SOL     OW66938   4.641   6.387   7.202  0.1714 -0.3336 -0.2350
21644SOL    HW166939   4.676   6.316   7.149  0.9936  0.4484 -0.7495
21644SOL    HW266940   4.672   6.368   7.291  1.9419  0.3326 -0.6686
21645SOL     OW66941   4.384   2.545  10.714  0.1221 -0.1462 -0.4713
21645SOL    HW166942   4.446   2.589  10.773 -1.0344 -1.1667  1.6368
21645SOL    HW266943   4.350   2.472  10.766 -1.5819 -0.6192 -2.1609
21646SOL     OW66944   1.315   8.456   6.147 -0.4228  0.4542  0.3837
21646SOL    HW166945   1.374   8.530   6.157 -1.0497  0.8858  0.9745
21646SOL    HW266946   1.339   8.417   6.063  1.5867 -0.1782  1.1711
21647SOL     OW66947   3.487   9.322   4.711  0.0275 -0.3367  0.2352
21647SOL    HW166948   3.483   9.231   4.740 -0.9080  0.0014  1.2228
21647SOL    HW266949   3.426   9.327   4.638  2.1684 -1.1232 -1.7194
21648SOL     OW66950   8.268   6.959   2.364 -0.1266 -0.0433  0.2369
21648SOL    HW166951   8.338   6.960   2.299 -0.1731 -2.5755  0.0389
21648SOL    HW266952   8.299   7.017   2.434  0.5650  1.5991 -1.3615
21649SOL     OW66953   5.195   2.512   5.628  0.0784 -0.3489 -1.0164
21649SOL    HW166954   5.138   2.588   5.613  1.3038  0.3023 -2.7131
21649SOL    HW266955   5.159   2.471   5.707  0.5328  3.1170  1.2448
21650SOL     OW66956   6.995   9.128   6.623  0.4307  0.0217  0.2685
21650SOL    HW166957   7.048   9.088   6.555 -0.2543  1.5007 -1.1989
21650SOL    HW266958   7.032   9.216   6.635  1.0667 -0.4666  2.4506
21651SOL     OW66959   5.758  10.640   9.939 -0.3707 -0.4433  0.0500
21651SOL    HW166960   5.823  10.600   9.882 -1.1118 -2.1745  0.3449
21651SOL    HW266961   5.750  10.730   9.908 -0.0278 -1.0573 -1.9180
21652SOL     OW66962   0.933   9.108   2.349 -0.2229 -0.0437  0.0260
21652SOL    HW166963   1.006   9.161   2.316  1.1007 -0.3174  2.2780
21652SOL    HW266964   0.940   9.025   2.300  1.2589 -0.2078  0.4578
21653SOL     OW66965   8.558   7.310   1.312 -0.8052  0.2665  0.5262
21653SOL    HW166966   8.529   7.229   1.269  1.6804  0.7494 -2.3999
21653SOL    HW266967   8.653   7.307   1.306 -0.4053  1.6409  3.9865
21654SOL     OW66968   3.168   6.848   2.356 -0.4271 -0.0941 -0.5201
21654SOL    HW166969   3.214   6.768   2.381 -0.4382  0.0756  0.0686
21654SOL    HW266970   3.228   6.919   2.380 -0.2694  0.0629 -1.3654
21655SOL     OW66971   1.946   6.658   8.723  0.3184 -0.5854 -0.3261
21655SOL    HW166972   1.993   6.721   8.669  0.0465  0.6294  0.7957
21655SOL    HW266973   1.972   6.572   8.689  1.0709  0.1149 -1.5763
21656SOL     OW66974   3.822   2.375   8.916  0.0990  0.2504  0.7562
21656SOL    HW166975   3.776   2.442   8.967 -1.0268  0.1863 -0.1522
21656SOL    HW266976   3.915   2.397   8.927 -0.2367  2.1591  0.2650
21657SOL     OW66977  10.606   1.596  10.816  0.0245  0.6511 -0.1289
21657SOL    HW166978  10.587   1.515  10.863 -0.0468  1.2363  0.8896
21657SOL    HW266979  10.575   1.580  10.727  0.3275 -0.5506 -0.0364
21658SOL     OW66980   1.349   9.800   9.886 -0.4214 -0.4198 -0.6487
21658SOL    HW166981   1.339   9.723   9.829 -1.9476 -1.0345  0.3851
21658SOL    HW266982   1.262   9.812   9.924  0.7650 -0.6352  2.3279
21659SOL     OW66983   5.092   1.577   9.590 -0.3221 -0.5163 -0.6213
21659SOL    HW166984   5.155   1.505   9.583 -1.7963 -2.0622  0.7803
21659SOL    HW266985   5.143   1.651   9.623  1.0467 -1.2248 -1.0735
21660SOL     OW66986  10.338   4.184   6.386 -0.8937  0.4494  0.0190
21660SOL    HW166987  10.278   4.258   6.389  0.3110  1.4294  1.0099
21660SOL    HW266988  10.416   4.214   6.433 -0.2810 -1.3690  0.2384
21661SOL     OW66989   3.123   8.740   2.997  0.3366  0.8888 -0.5084
21661SOL    HW166990   3.218   8.729   2.990  0.2605 -0.3133  0.0753
21661SOL    HW266991   3.089   8.703   2.915  0.3235  0.4943 -0.3266
21662SOL     OW66992   9.758   6.586   8.427  0.5914  0.1810 -0.5499
21662SOL    HW166993   9.788   6.643   8.356 -0.1026 -1.5953 -2.3549
21662SOL    HW266994   9.730   6.647   8.496 -2.5022  2.2387 -3.2960
21663SOL     OW66995   9.642   5.167   4.125  0.0425 -0.1016  0.0157
21663SOL    HW166996   9.705   5.205   4.063  0.2501 -1.4300 -0.6236
21663SOL    HW266997   9.607   5.091   4.079 -4.1881  2.0875 -0.8341
21664SOL     OW66998   7.085   6.784   7.177 -0.2507  0.0753 -0.1561
21664SOL    HW166999   7.125   6.793   7.264 -2.0457  0.2926  0.6817
21664SOL    HW267000   7.014   6.721   7.190 -0.7974  0.4153 -1.3934
21665SOL     OW67001   3.277   3.900   4.643  0.2485 -0.0524 -0.0928
21665SOL    HW167002   3.326   3.865   4.718  1.3825  1.0798 -0.2649
21665SOL    HW267003   3.215   3.961   4.681  0.3777  0.0359 -0.0217
21666SOL     OW67004   3.274   5.306  10.411 -0.0832 -0.5760  0.1603
21666SOL    HW167005   3.286   5.335  10.501  1.2892 -0.7016  0.0419
21666SOL    HW267006   3.361   5.318  10.371 -0.5588 -0.9619 -1.0073
21667SOL     OW67007   9.854   8.678   3.826 -0.2847  0.3435  0.0674
21667SOL    HW167008   9.869   8.771   3.810 -0.8421  0.2992 -0.7550
21667SOL    HW267009   9.937   8.636   3.802 -0.2799  0.5467 -0.2702
21668SOL     OW67010   2.017   5.985   4.291 -0.4522  0.5733  0.0593
21668SOL    HW167011   2.080   6.024   4.352 -0.3543 -0.4104  0.6151
21668SOL    HW267012   2.009   6.048   4.220 -0.4117  1.6586  0.9952
21669SOL     OW67013   7.504   1.158   2.318  0.1068 -0.2939 -0.5124
21669SOL    HW167014   7.419   1.125   2.345 -0.5827  0.5094 -1.6079
21669SOL    HW267015   7.531   1.216   2.389  0.4479 -1.6725  0.5181
21670SOL     OW67016   4.510   1.268   5.764  0.1838  0.3002 -0.5591
21670SOL    HW167017   4.415   1.259   5.770  0.3516 -2.1314 -0.1668
21670SOL    HW267018   4.524   1.356   5.729 -2.2331  0.3859 -1.5391
21671SOL     OW67019   4.133   7.999  10.026  0.2256 -0.3297  0.4911
21671SOL    HW167020   4.103   8.073  10.079 -0.6211 -0.1071 -0.2852
21671SOL    HW267021   4.151   8.037   9.940 -0.5523 -1.0774 -0.0190
21672SOL     OW67022  10.375   8.649   9.101 -0.2512  0.2632 -0.1239
21672SOL    HW167023  10.447   8.682   9.048  0.0026  0.5120  0.3774
21672SOL    HW267024  10.349   8.723   9.156 -1.1673  0.3065 -0.5937
21673SOL     OW67025   1.413   1.348   5.663  0.7311  0.2926  0.5001
21673SOL    HW167026   1.324   1.383   5.656  0.1896 -1.2167 -1.3085
21673SOL    HW267027   1.467   1.423   5.687 -0.9161  1.4133  0.8877
21674SOL     OW67028   5.857   6.828   6.926 -0.1023 -0.1686  0.3829
21674SOL    HW167029   5.838   6.838   6.833  0.2117 -1.2296  0.1798
21674SOL    HW267030   5.874   6.916   6.958  0.1013  0.1731 -0.6436
21675SOL     OW67031   0.737   3.010   5.179  0.2687  0.0289 -0.0926
21675SOL    HW167032   0.744   3.046   5.091  0.8312 -0.1126 -0.1074
21675SOL    HW267033   0.718   3.087   5.234  1.3971  0.3524 -0.1350
21676SOL     OW67034   2.242   8.919   8.698 -0.2439 -0.1927 -0.0427
21676SOL    HW167035   2.293   8.910   8.779  1.9454  1.5012 -1.1560
21676SOL    HW267036   2.303   8.895   8.628 -2.3352 -2.4690 -1.2575
21677SOL     OW67037   7.659   2.833  10.576  0.2195  0.2029  0.9377
21677SOL    HW167038   7.597   2.792  10.636  0.9934 -0.2693  1.4355
21677SOL    HW267039   7.670   2.922  10.608  0.8483 -0.1341  1.6832
21678SOL     OW67040   5.057   5.291   0.295 -0.5155  0.9090 -0.8532
21678SOL    HW167041   5.076   5.378   0.332  1.0924 -0.5076  2.0543
21678SOL    HW267042   4.986   5.257   0.349  1.0889 -0.7806  0.3104
21679SOL     OW67043  10.362   4.044   9.008  0.6628 -0.4009 -0.2962
21679SOL    HW167044  10.294   4.017   8.946  1.0935  1.3350 -1.5932
21679SOL    HW267045  10.400   4.123   8.969  1.4110  0.3751  1.8757
21680SOL     OW67046   5.722   0.623   7.001  0.0894  1.0322  0.5638
21680SOL    HW167047   5.696   0.562   7.070 -0.2115  0.9221  0.3592
21680SOL    HW267048   5.796   0.671   7.037 -0.0022  0.9062  0.9233
21681SOL     OW67049   5.351   8.957   6.838 -0.1731  0.6311  0.0899
21681SOL    HW167050   5.285   9.019   6.807 -1.0946 -0.2664  0.2252
21681SOL    HW267051   5.432   9.009   6.841 -0.6098  1.4495 -1.1990
21682SOL     OW67052   8.370   7.929   0.388  0.4284  0.0761 -0.1137
21682SOL    HW167053   8.458   7.953   0.359  0.9852 -0.0650  1.3540
21682SOL    HW267054   8.327   8.012   0.406  0.2643  0.1450 -0.8193
21683SOL     OW67055   1.957   9.717   7.582  0.3143  0.0941 -0.5205
21683SOL    HW167056   1.984   9.636   7.539 -1.8003 -0.3867 -1.0761
21683SOL    HW267057   1.922   9.771   7.511 -2.7344 -0.4988  0.3731
21684SOL     OW67058   3.372   5.377   8.019  0.0427  0.1345 -0.4360
21684SOL    HW167059   3.285   5.416   8.026 -0.3141 -0.2736 -2.1064
21684SOL    HW267060   3.388   5.339   8.105 -1.8442 -0.5862 -0.3500
21685SOL     OW67061   3.341  10.779   0.519 -0.4835  0.5232 -0.0451
21685SOL    HW167062   3.373  10.690   0.528 -2.4183 -0.1894  0.3136
21685SOL    HW267063   3.419  10.834   0.526  0.8746 -1.1515 -1.1649
21686SOL     OW67064   4.846   5.403   9.478  0.4426 -0.0168 -0.8043
21686SOL    HW167065   4.843   5.449   9.394  0.8075  1.1826 -0.1744
21686SOL    HW267066   4.811   5.465   9.541 -0.1723 -1.0456 -0.1068
21687SOL     OW67067   7.709   6.942   2.540  0.2662  0.4669  0.2917
21687SOL    HW167068   7.788   6.992   2.516 -1.1405  2.3344 -0.7207
21687SOL    HW267069   7.705   6.871   2.475  1.2340  0.1880  0.5173
21688SOL     OW67070   5.334   6.710   3.463  0.1294  0.1626 -0.0658
21688SOL    HW167071   5.314   6.707   3.556  2.6900 -2.7587  0.5552
21688SOL    HW267072   5.349   6.618   3.439  0.0060  0.8576 -3.2797
21689SOL     OW67073   4.781   5.228   6.194 -0.1858  0.2848 -0.4121
21689SOL    HW167074   4.801   5.322   6.188 -1.0257  0.3570 -3.4090
21689SOL    HW267075   4.709   5.223   6.257  1.0300  1.3858  1.1518
21690SOL     OW67076   9.667   7.986   6.599 -0.3225  0.3319 -0.3622
21690SOL    HW167077   9.691   7.973   6.691 -1.5874  0.0569 -0.0457
21690SOL    HW267078   9.603   7.918   6.581 -0.5473  0.7643 -1.2747
21691SOL     OW67079   5.703   3.802   3.330  0.3498  0.4894  0.0583
21691SOL    HW167080   5.631   3.747   3.300 -0.3946  1.7128 -0.4415
21691SOL    HW267081   5.782   3.760   3.294 -0.3800  0.9651 -2.2423
21692SOL     OW67082   9.099   1.914   7.962 -0.5767 -0.1321  0.2124
21692SOL    HW167083   9.163   1.858   7.917  0.8713  0.0239  1.9752
21692SOL    HW267084   9.028   1.855   7.986 -0.3658 -0.6298 -0.3495
21693SOL     OW67085   5.899  10.673   1.787 -0.0827  0.4342 -0.1572
21693SOL    HW167086   5.841  10.650   1.860 -1.6062  0.9780 -1.1345
21693SOL    HW267087   5.940  10.756   1.814 -0.8610  0.7867 -0.0295
21694SOL     OW67088  10.906   4.469   8.735 -0.1401  0.1232 -0.3614
21694SOL    HW167089  10.838   4.522   8.694 -0.6307 -0.4243 -0.2755
21694SOL    HW267090  10.885   4.471   8.828  0.2137  0.3077 -0.2869
21695SOL     OW67091   1.308   9.904   9.250 -0.1530  0.2954 -0.2710
21695SOL    HW167092   1.374   9.966   9.283  2.0182 -2.7987  1.8048
21695SOL    HW267093   1.336   9.819   9.284 -2.8068 -1.9456 -3.0786
21696SOL     OW67094   8.039   4.782   2.152  0.3667  0.2923 -0.1627
21696SOL    HW167095   8.027   4.705   2.097  2.7366  0.5815 -1.2081
21696SOL    HW267096   8.022   4.856   2.094  0.0765  0.5890  0.2900
21697SOL     OW67097   4.592   3.884   4.744  0.5408  0.7378 -0.5028
21697SOL    HW167098   4.514   3.932   4.719  0.5179  0.6714 -0.5575
21697SOL    HW267099   4.570   3.792   4.730  0.1934  0.6315  0.6569
21698SOL     OW67100   9.962   3.325   8.320  0.2332  0.0233  0.5858
21698SOL    HW167101  10.030   3.259   8.309 -0.3020 -0.4707  0.1489
21698SOL    HW267102  10.003   3.407   8.291  0.0917 -0.5827 -1.4996
21699SOL     OW67103   6.486   5.435   8.388 -0.2162 -0.7742 -0.6734
21699SOL    HW167104   6.475   5.408   8.297  2.1138 -2.5618 -0.5195
21699SOL    HW267105   6.454   5.361   8.439  0.9917 -0.9226 -0.1063
21700SOL     OW67106   6.120   3.851   0.935 -0.4447  0.4590  0.0042
21700SOL    HW167107   6.167   3.785   0.884 -1.0942 -0.0196  0.0164
21700SOL    HW267108   6.064   3.801   0.994 -3.0231  0.9527 -1.8658
21701SOL     OW67109   4.220   1.759   6.667 -0.4422 -0.0868 -0.0183
21701SOL    HW167110   4.128   1.733   6.679 -0.1437 -0.9607  0.4104
21701SOL    HW267111   4.220   1.806   6.584 -1.2606 -0.1714 -0.0821
21702SOL     OW67112   8.865   8.534   7.504  0.2033  1.1683  0.3559
21702SOL    HW167113   8.875   8.448   7.464 -1.1051  0.8700  0.6254
21702SOL    HW267114   8.894   8.522   7.594 -0.8362  0.7622  0.6486
21703SOL     OW67115   6.239   7.724   3.232 -0.4649 -0.0258 -0.0805
21703SOL    HW167116   6.286   7.807   3.222 -1.9654  0.6763 -1.7993
21703SOL    HW267117   6.193   7.711   3.149 -1.9941 -1.4915  0.9083
21704SOL     OW67118   1.180   7.196   2.084 -0.1633  0.3932 -0.1768
21704SOL    HW167119   1.104   7.195   2.026 -0.4958 -0.9056  0.2444
21704SOL    HW267120   1.144   7.175   2.170  0.8202 -1.7083 -0.2175
21705SOL     OW67121   8.618  10.659   8.041 -0.6821  0.5328  0.3268
21705SOL    HW167122   8.653  10.705   8.117 -0.8961 -0.1022  0.8157
21705SOL    HW267123   8.685  10.596   8.017 -0.3832  1.0864 -0.3517
21706SOL     OW67124   6.339   5.061   7.222 -0.1588 -0.3903 -0.2686
21706SOL    HW167125   6.280   5.119   7.174  1.8215  1.3972 -0.6714
21706SOL    HW267126   6.386   5.014   7.153 -1.7611 -2.6354  0.0465
21707SOL     OW67127   4.072   8.238   1.050  0.1067 -0.1229  0.0002
21707SOL    HW167128   4.021   8.270   1.125  0.9747  1.3623 -0.0209
21707SOL    HW267129   4.005   8.212   0.986 -0.6524 -1.3732  1.2186
21708SOL     OW67130   2.137   2.444   6.878 -0.2128  0.0990 -0.1321
21708SOL    HW167131   2.226   2.475   6.864  0.2014  0.5728  2.9811
21708SOL    HW267132   2.092   2.518   6.918 -1.0308 -1.2168  1.4718
21709SOL     OW67133   3.528   8.796   3.793  0.0908  0.1094 -0.5187
21709SOL    HW167134   3.454   8.839   3.752  0.9756  1.0395 -1.1703
21709SOL    HW267135   3.489   8.740   3.861 -1.0711  2.5009  0.8998
21710SOL     OW67136   0.706   4.470   3.047 -0.7038  0.1393 -0.9923
21710SOL    HW167137   0.768   4.503   3.112 -0.6412  0.2091 -1.0866
21710SOL    HW267138   0.661   4.548   3.015  0.3511  0.3116 -2.1553
21711SOL     OW67139   8.270   7.175   6.709  0.0778 -0.2827  0.1948
21711SOL    HW167140   8.311   7.107   6.763 -0.1730  0.0528  0.8267
21711SOL    HW267141   8.222   7.127   6.642 -0.9628 -0.7761  1.2524
21712SOL     OW67142   1.399   9.537   9.692  0.2910 -0.0367  0.5132
21712SOL    HW167143   1.474   9.559   9.637  1.3678 -1.6322  1.2864
21712SOL    HW267144   1.422   9.454   9.734 -2.2763 -1.0547  0.1057
21713SOL     OW67145   9.985   8.445  10.637 -0.5998 -0.0953  0.2400
21713SOL    HW167146   9.968   8.366  10.688  0.1369  0.3147  1.1633
21713SOL    HW267147   9.899   8.484  10.624 -0.9983 -1.1468 -0.4096
21714SOL     OW67148   9.620   1.029   6.668 -0.2751 -0.2882  0.1370
21714SOL    HW167149   9.559   0.987   6.729 -1.0411 -0.1384 -0.5002
21714SOL    HW267150   9.584   1.117   6.655  0.8214  0.2792  0.7667
21715SOL     OW67151   4.392   8.014   2.849  0.1602 -0.3991 -0.1117
21715SOL    HW167152   4.372   7.924   2.877 -0.1866 -0.4702 -0.5614
21715SOL    HW267153   4.446   8.003   2.770  0.3874 -0.2107  0.0182
21716SOL     OW67154   0.460   4.402   8.637  0.7160  0.1381  0.7210
21716SOL    HW167155   0.476   4.324   8.584 -0.0383 -0.3034  1.1136
21716SOL    HW267156   0.527   4.465   8.610  0.9683 -0.4396 -0.0157
21717SOL     OW67157   7.884   5.220   9.957 -0.1858 -0.6737  0.3086
21717SOL    HW167158   7.832   5.300   9.969  0.9290  0.0065  0.7906
21717SOL    HW267159   7.898   5.214   9.863 -0.2032 -0.2494  0.2770
21718SOL     OW67160   0.433  10.358   1.099 -0.2263 -0.3025  0.6040
21718SOL    HW167161   0.512  10.409   1.119  0.9585 -2.1852  1.0148
21718SOL    HW267162   0.450  10.321   1.012 -0.4413 -1.0668  0.8769
21719SOL     OW67163   7.343  10.342   8.382 -0.0517 -0.1238 -0.0301
21719SOL    HW167164   7.296  10.384   8.454 -1.4973 -1.5089 -0.1073
21719SOL    HW267165   7.377  10.414   8.329 -0.6013  0.9151  0.9945
21720SOL     OW67166  10.587   5.194   4.183 -0.3050 -0.2427  0.5586
21720SOL    HW167167  10.534   5.270   4.205 -1.1488 -0.3151 -1.0928
21720SOL    HW267168  10.622   5.164   4.267 -0.5532  1.5038  1.3259
21721SOL     OW67169  10.388   7.289   2.912  0.4187  0.2538  0.4146
21721SOL    HW167170  10.352   7.202   2.895  0.6681  0.1516  0.3969
21721SOL    HW267171  10.425   7.316   2.828 -0.0484  0.5655  0.3073
21722SOL     OW67172   9.569   4.209   5.050  0.6712 -0.3991  0.1137
21722SOL    HW167173   9.481   4.171   5.046 -0.1693  1.4750 -0.5241
21722SOL    HW267174   9.596   4.196   5.141 -0.7469 -0.0024  0.6279
21723SOL     OW67175  10.197   9.624   4.012  0.6067 -0.0692 -0.3725
21723SOL    HW167176  10.268   9.674   4.053  1.6647 -1.0383 -0.9710
21723SOL    HW267177  10.143   9.595   4.086 -0.2170  2.1555 -0.0251
21724SOL     OW67178   5.473   1.855   0.786  0.2922  0.0679  0.4022
21724SOL    HW167179   5.391   1.817   0.818 -0.4342  0.5629 -0.7977
21724SOL    HW267180   5.513   1.784   0.735 -0.6465  0.5892 -1.1196
21725SOL     OW67181   5.997   8.451   9.473 -0.0756  0.0821 -0.1251
21725SOL    HW167182   6.079   8.401   9.462  0.8333  1.8071 -1.8180
21725SOL    HW267183   5.941   8.421   9.402  0.1406  0.8157 -0.6154
21726SOL     OW67184   8.286   3.737   6.232  0.2573 -0.3149  0.4013
21726SOL    HW167185   8.283   3.641   6.233 -0.0159 -0.3532 -1.3508
21726SOL    HW267186   8.195   3.764   6.223  0.2850  0.1533  1.3464
21727SOL     OW67187   6.908   0.346   4.877 -0.0092  0.1615  0.5567
21727SOL    HW167188   6.903   0.269   4.935  0.1224 -0.0389  0.3025
21727SOL    HW267189   6.999   0.375   4.884  0.1445 -0.1771  0.0514
21728SOL     OW67190   1.225   9.827   4.762 -0.5383  0.0967  1.1074
21728SOL    HW167191   1.285   9.901   4.771 -0.9801  0.5997  0.0302
21728SOL    HW267192   1.256   9.780   4.685 -0.5767 -0.5548  1.4810
21729SOL     OW67193   9.066   7.574   2.344  0.0602  0.6815  0.0073
21729SOL    HW167194   9.147   7.622   2.359  1.0649 -0.3124 -1.9863
21729SOL    HW267195   9.073   7.497   2.400  1.3534 -0.3215 -1.4776
21730SOL     OW67196   8.525   9.433   6.257 -0.4423 -0.0400 -0.0937
21730SOL    HW167197   8.473   9.372   6.309  3.6543 -1.1418  3.2657
21730SOL    HW267198   8.527   9.513   6.310  0.7997  0.1196 -0.3539
21731SOL     OW67199   5.142   3.700   7.887  0.5828 -0.2873  0.1039
21731SOL    HW167200   5.063   3.651   7.907  1.3457 -1.7992 -0.4065
21731SOL    HW267201   5.112   3.790   7.874 -0.8377 -0.5691  1.2413
21732SOL     OW67202   7.198   0.986   4.986 -1.0263  0.4326  0.4943
21732SOL    HW167203   7.161   1.070   4.958 -1.2561 -0.3297 -1.7059
21732SOL    HW267204   7.241   0.951   4.908  0.5487 -0.7346  1.8181
21733SOL     OW67205   4.797   5.404   3.355  0.2643  0.0338 -0.1818
21733SOL    HW167206   4.867   5.468   3.349  1.8756 -1.6438 -0.2807
21733SOL    HW267207   4.735   5.442   3.417  1.4357  1.4059  0.2081
21734SOL     OW67208  11.017   3.029   3.450 -0.1564 -0.1235 -0.3132
21734SOL    HW167209  11.031   2.935   3.436  0.5418  0.1917 -2.0198
21734SOL    HW267210  11.100   3.060   3.487 -0.0899 -0.0496 -0.5218
21735SOL     OW67211   9.951   7.855   9.928  0.6682 -0.5068 -0.5698
21735SOL    HW167212   9.871   7.850   9.876 -0.0352 -0.3107  0.4650
21735SOL    HW267213   9.940   7.933   9.981  0.6495 -1.5597  1.0281
21736SOL     OW67214   2.886   6.649   3.890 -0.5180 -0.3589  0.0063
21736SOL    HW167215   2.841   6.571   3.858 -0.7159 -0.9841  1.7282
21736SOL    HW267216   2.978   6.635   3.868 -0.8261 -0.0732 -1.5838
21737SOL     OW67217   4.761   9.432   1.398 -0.2155  0.0301  0.3292
21737SOL    HW167218   4.795   9.365   1.339 -0.5496 -0.4728  0.7110
21737SOL    HW267219   4.815   9.509   1.378  0.9826 -0.6725  0.7247
21738SOL     OW67220   3.668   1.862   4.459 -0.0710 -0.6130  0.2020
21738SOL    HW167221   3.705   1.844   4.545  0.7573  2.2538  0.5556
21738SOL    HW267222   3.742   1.852   4.399 -0.2694 -1.0318  0.0197
21739SOL     OW67223   3.658   2.466   4.325  0.2595  0.6836 -0.0879
21739SOL    HW167224   3.681   2.394   4.385  0.4125 -0.0653 -1.0236
21739SOL    HW267225   3.571   2.494   4.354  0.8528  1.2139  1.2916
21740SOL     OW67226   1.307   9.226  10.463  0.9547  0.3921 -0.5420
21740SOL    HW167227   1.238   9.276  10.420  0.1020 -1.0563 -0.9061
21740SOL    HW267228   1.326   9.155  10.403  1.4262 -0.3085  0.4130
21741SOL     OW67229   9.786   2.279   6.626  0.2291  0.0494  0.4624
21741SOL    HW167230   9.790   2.339   6.701 -0.2767 -1.2182  1.5335
21741SOL    HW267231   9.803   2.193   6.663  1.1159 -0.4856 -1.0793
21742SOL     OW67232   7.538   5.654   8.322  0.4061 -0.4137  0.2348
21742SOL    HW167233   7.536   5.615   8.235  0.6460 -0.8698  0.4249
21742SOL    HW267234   7.632   5.662   8.342  0.5124  3.0970 -1.0159
21743SOL     OW67235   9.746   6.157  10.267 -0.5158 -0.1280  0.6516
21743SOL    HW167236   9.655   6.133  10.253  0.2136 -1.3006 -4.3410
21743SOL    HW267237   9.747   6.252  10.263 -1.4870 -0.1430 -0.8028
21744SOL     OW67238   5.574   7.460   3.336 -0.0429  0.4911 -0.1334
21744SOL    HW167239   5.498   7.512   3.309 -0.1604  0.6763  0.5159
21744SOL    HW267240   5.585   7.481   3.429 -0.8196 -1.5410  0.4773
21745SOL     OW67241   8.905   7.195   3.174  0.5489 -0.0974  0.7204
21745SOL    HW167242   8.880   7.104   3.185 -1.1883  0.3601  0.8399
21745SOL    HW267243   8.941   7.221   3.259 -0.1207 -0.3280  1.0795
21746SOL     OW67244   3.199   7.285   2.636 -0.1792 -0.1507 -1.0192
21746SOL    HW167245   3.282   7.265   2.591 -0.1711 -0.5956 -0.8110
21746SOL    HW267246   3.131   7.254   2.576 -0.1967  0.1504 -1.1584
21747SOL     OW67247   5.340  10.272   9.530  0.0114  0.3050  0.0280
21747SOL    HW167248   5.395  10.311   9.463  1.4668 -1.5051  0.0941
21747SOL    HW267249   5.347  10.331   9.605 -0.0204  1.2904 -0.7264
21748SOL     OW67250   3.580   4.496   2.402  0.0824  0.5523 -0.0432
21748SOL    HW167251   3.599   4.423   2.343  0.0467  0.3054  0.2511
21748SOL    HW267252   3.646   4.562   2.381  0.5489  0.1568  0.1746
21749SOL     OW67253   2.754  10.922   7.956  0.8494 -0.4139  0.0737
21749SOL    HW167254   2.811  10.867   8.010  1.4910 -0.1368 -0.3159
21749SOL    HW267255   2.703  10.859   7.904 -0.1157 -0.6998  1.3231
21750SOL     OW67256   5.183   1.134   7.939  0.4231  1.0067 -0.1951
21750SOL    HW167257   5.208   1.226   7.953  2.4019  0.5920 -0.7180
21750SOL    HW267258   5.258   1.084   7.969 -1.0073 -0.5360  1.0167
21751SOL     OW67259   8.373  10.313   7.279 -0.2361  0.0014  0.5535
21751SOL    HW167260   8.297  10.346   7.326  0.0799  0.3594  0.8207
21751SOL    HW267261   8.337  10.268   7.203 -0.6327  2.1327 -0.5691
21752SOL     OW67262   3.911   9.954   5.434  0.5316  0.0181  0.0421
21752SOL    HW167263   3.995   9.908   5.437 -0.4613 -1.8738  1.4100
21752SOL    HW267264   3.865   9.914   5.360 -0.2829 -1.1922  1.1517
21753SOL     OW67265   6.007   7.007   4.314  0.0122  0.5647 -0.0810
21753SOL    HW167266   6.009   7.102   4.324 -3.3811  0.7102  0.4861
21753SOL    HW267267   6.038   6.974   4.399 -2.5726  1.3438  1.2792
21754SOL     OW67268   7.518   9.645   9.848 -0.2774 -0.1354  0.4263
21754SOL    HW167269   7.578   9.622   9.920 -0.7625 -1.2455  0.5042
21754SOL    HW267270   7.431   9.633   9.886 -0.5363 -0.2769 -0.2091
21755SOL     OW67271   9.023   7.626   3.013 -0.3521  0.1003  0.3369
21755SOL    HW167272   9.107   7.586   2.993 -0.7389 -2.0324  2.4323
21755SOL    HW267273   8.961   7.583   2.954 -0.2819  0.0216  0.3207
21756SOL     OW67274  10.287   8.904   3.692 -0.6742 -0.6424  0.0873
21756SOL    HW167275  10.250   8.951   3.767 -0.5352 -2.4064  1.3444
21756SOL    HW267276  10.267   8.812   3.710 -0.4719 -1.1318 -1.9850
21757SOL     OW67277   4.537   6.353   3.109  0.2130  0.8018  0.0648
21757SOL    HW167278   4.497   6.440   3.104 -0.1682  0.6450  0.3961
21757SOL    HW267279   4.530   6.328   3.201  1.5748  1.0043  0.2415
21758SOL     OW67280   9.256   8.338   8.471  0.0613 -0.1448 -0.0781
21758SOL    HW167281   9.221   8.426   8.461  2.8978  1.1836  0.7971
21758SOL    HW267282   9.194   8.294   8.529 -1.3609  1.2784 -0.4567
21759SOL     OW67283  10.716  10.716   3.708  0.1719 -0.2872 -0.4798
21759SOL    HW167284  10.704  10.809   3.726  1.5784  0.1928 -1.7997
21759SOL    HW267285  10.627  10.680   3.708 -0.3499  0.9337  0.5859
21760SOL     OW67286   1.460   7.251   1.468 -0.3802 -0.4233  0.2474
21760SOL    HW167287   1.422   7.210   1.390 -2.1038 -0.8671  1.2497
21760SOL    HW267288   1.384   7.283   1.517  0.5788 -0.8387  2.1061
21761SOL     OW67289   2.806  10.530   1.571 -0.1948  0.4125  0.0858
21761SOL    HW167290   2.816  10.622   1.595 -2.4248  0.4082  1.2473
21761SOL    HW267291   2.842  10.482   1.645 -1.8145  0.3958  0.9026
21762SOL     OW67292   0.544  10.531   7.462  0.3216 -0.0618  0.0025
21762SOL    HW167293   0.499  10.497   7.384 -1.5785  0.7287  0.6809
21762SOL    HW267294   0.626  10.482   7.466 -0.1344 -1.0509 -1.7542
21763SOL     OW67295   6.533   4.502   0.776  0.2416  0.4118  0.5247
21763SOL    HW167296   6.499   4.510   0.865 -1.6310  0.1851 -0.1215
21763SOL    HW267297   6.521   4.410   0.753 -2.2185  1.0190 -0.9898
21764SOL     OW67298   6.271   0.933   7.750  0.5447 -0.4848  0.1298
21764SOL    HW167299   6.199   0.995   7.742  0.0446 -0.9691  0.8267
21764SOL    HW267300   6.250   0.864   7.687  1.2004  0.1203 -0.7892
21765SOL     OW67301   3.753   2.003   6.691  0.1631 -0.1807 -0.3065
21765SOL    HW167302   3.670   1.968   6.659 -1.0641  1.1979  1.1742
21765SOL    HW267303   3.820   1.951   6.646 -1.4815 -1.5304 -1.3317
21766SOL     OW67304   2.103   6.441   8.291 -0.0805 -0.5700 -0.0079
21766SOL    HW167305   2.171   6.482   8.345 -2.7638  0.7869  2.6206
21766SOL    HW267306   2.131   6.458   8.201  2.4113  1.0341  0.9569
21767SOL     OW67307   6.162   7.121   5.266 -0.2527 -0.0866 -0.1092
21767SOL    HW167308   6.198   7.203   5.299  1.3447 -0.8282  0.0757
21767SOL    HW267309   6.225   7.092   5.200 -0.8588 -1.1084 -0.2686
21768SOL     OW67310  10.371   1.462   8.653  0.3236  0.0956  0.2665
21768SOL    HW167311  10.363   1.487   8.561  1.8729 -0.7385 -0.1268
21768SOL    HW267312  10.287   1.424   8.676 -1.2551  3.2287  0.1637
21769SOL     OW67313   8.827   8.576   1.495  0.1994  0.5109 -0.8159
21769SOL    HW167314   8.856   8.485   1.500 -0.4232  0.3617  1.0716
21769SOL    HW267315   8.902   8.627   1.524 -0.3172  0.3607  0.8820
21770SOL     OW67316   4.067   5.326   7.839 -0.4585  0.4714  0.0642
21770SOL    HW167317   4.063   5.361   7.928  0.0669 -1.3631  0.8631
21770SOL    HW267318   3.975   5.317   7.813 -0.7066 -0.8290  1.2399
21771SOL     OW67319   8.418   7.814   2.268 -0.1258 -0.5003 -0.4135
21771SOL    HW167320   8.455   7.800   2.355  0.1426  0.5972 -0.3320
21771SOL    HW267321   8.467   7.888   2.232 -0.3056 -0.8707 -1.4587
21772SOL     OW67322   0.062   4.004   5.741 -0.0550  0.1346 -0.3407
21772SOL    HW167323   0.012   4.058   5.801 -0.1469  0.2841 -0.5524
21772SOL    HW267324   0.006   3.927   5.725 -0.3747  0.4654 -0.8527
21773SOL     OW67325   2.497   4.011   5.240 -0.3336 -0.0456 -0.3459
21773SOL    HW167326   2.430   3.944   5.253  0.3194 -1.0589 -1.9557
21773SOL    HW267327   2.461   4.068   5.172 -1.2478  1.8288  1.5688
21774SOL     OW67328   7.867   4.682   0.259  0.0078 -0.6624  0.1578
21774SOL    HW167329   7.827   4.724   0.182  1.1684  1.3137  0.5625
21774SOL    HW267330   7.817   4.717   0.333  1.1312  0.2117  0.5199
21775SOL     OW67331   8.236   0.911   7.824  0.2842  0.2307  0.4857
21775SOL    HW167332   8.165   0.848   7.836  0.7285 -0.0220  1.9074
21775SOL    HW267333   8.291   0.874   7.755  1.2197 -1.5779  2.1346
21776SOL     OW67334   3.047   2.329   5.264  0.1026 -0.1065  0.5937
21776SOL    HW167335   3.048   2.374   5.179  1.7197 -0.7173  0.2508
21776SOL    HW267336   3.109   2.377   5.318  1.2114 -1.3578  0.4940
21777SOL     OW67337   0.585   6.960   8.694  0.3254 -0.4888  0.1381
21777SOL    HW167338   0.631   6.921   8.620 -0.3498 -2.4082  0.6735
21777SOL    HW267339   0.579   7.053   8.673 -0.1452 -1.0333 -2.3633
21778SOL     OW67340   1.540   3.832   9.192 -0.1937  0.2067  0.3008
21778SOL    HW167341   1.461   3.802   9.238 -0.6649  0.3646 -0.3980
21778SOL    HW267342   1.612   3.801   9.247 -0.7447  1.8405  2.0987
21779SOL     OW67343   5.501   7.260   9.376  0.3368  0.2516  0.2533
21779SOL    HW167344   5.492   7.355   9.373  1.6072  0.4118  0.6275
21779SOL    HW267345   5.556   7.240   9.300 -1.8460 -0.4852 -1.2217
21780SOL     OW67346   2.224   8.564   6.376  0.0054 -0.6059  0.0966
21780SOL    HW167347   2.129   8.558   6.385  0.0477 -1.4740 -0.0449
21780SOL    HW267348   2.248   8.635   6.436 -0.6572 -0.8269  0.6378
21781SOL     OW67349   6.680  10.403   7.753  0.0502 -0.0717 -0.0894
21781SOL    HW167350   6.607  10.342   7.746 -2.1113  2.2110  1.0178
21781SOL    HW267351   6.681  10.448   7.668 -1.0242  1.0910  0.4869
21782SOL     OW67352   3.443   1.232   5.666  0.2399  0.2590 -0.4985
21782SOL    HW167353   3.528   1.249   5.625 -0.0992  0.7920 -0.9885
21782SOL    HW267354   3.397   1.316   5.662 -0.1363  0.0959  0.1884
21783SOL     OW67355   8.601   1.733   9.306  0.1855  0.9136  0.1317
21783SOL    HW167356   8.542   1.806   9.290 -0.3880  0.2718 -0.7639
21783SOL    HW267357   8.603   1.685   9.224  0.0990 -0.4071  0.8694
21784SOL     OW67358   4.232   8.423   1.657 -0.7717  0.6967 -0.1087
21784SOL    HW167359   4.249   8.512   1.627  1.7486  0.1449 -0.6127
21784SOL    HW267360   4.248   8.369   1.579 -2.3753 -0.2208  0.1553
21785SOL     OW67361   5.746   3.722  10.085  0.5051  0.3984  0.1074
21785SOL    HW167362   5.674   3.777  10.055  1.5063  1.2080 -0.8802
21785SOL    HW267363   5.757   3.657  10.015 -0.9078 -1.3515  1.4241
21786SOL     OW67364   3.294   1.609   8.056  0.0298 -0.4780  0.3642
21786SOL    HW167365   3.375   1.659   8.072 -0.6184  0.0202  2.4389
21786SOL    HW267366   3.311   1.561   7.975  2.0315  0.3701  0.2163
21787SOL     OW67367   1.632   7.010  10.685 -0.5391 -0.2966  0.0959
21787SOL    HW167368   1.721   6.976  10.688 -0.6047 -0.4563  0.3331
21787SOL    HW267369   1.580   6.944  10.731 -0.7875 -0.2293 -0.0854
21788SOL     OW67370   2.888   5.596   9.594  0.3060  0.2645 -0.2070
21788SOL    HW167371   2.864   5.504   9.578 -0.8615  0.5405 -0.1722
21788SOL    HW267372   2.979   5.602   9.567  0.5497 -1.0175  0.2132
21789SOL     OW67373   5.756   7.258   8.535  0.2408  0.2779 -0.3662
21789SOL    HW167374   5.751   7.343   8.493  2.2535  0.6878  0.1125
21789SOL    HW267375   5.687   7.260   8.601 -1.8728  0.2465 -2.4557
21790SOL     OW67376  10.826  10.389   5.592 -0.4068  0.0391 -0.0559
21790SOL    HW167377  10.794  10.476   5.616 -0.0795  0.6721 -1.8025
21790SOL    HW267378  10.807  10.335   5.669 -1.7972  1.3466  0.5748
21791SOL     OW67379   2.974   0.376   0.755 -0.1769  0.3771 -0.0192
21791SOL    HW167380   2.902   0.380   0.693 -0.8767  1.2118  0.8174
21791SOL    HW267381   2.936   0.403   0.839  0.4073 -2.0463  1.1176
21792SOL     OW67382  10.684   4.834   5.100  0.2763 -0.5445 -0.2459
21792SOL    HW167383  10.630   4.896   5.052  0.2938  1.3526  2.0083
21792SOL    HW267384  10.625   4.763   5.122 -0.7932  0.5078  0.3794
21793SOL     OW67385   1.318   8.362   7.231 -0.2296  0.2765  0.3351
21793SOL    HW167386   1.291   8.276   7.264  1.3955  0.0706  1.2395
21793SOL    HW267387   1.405   8.348   7.195  0.2898  1.6311  0.9749
21794SOL     OW67388   7.119   2.671   5.066 -0.0984 -0.3488  0.0314
21794SOL    HW167389   7.133   2.597   5.008 -0.7527  0.1347 -0.7625
21794SOL    HW267390   7.206   2.709   5.078  0.8253 -2.8823  2.7929
21795SOL     OW67391   8.399  10.500   0.880 -0.4091  0.1889  0.0876
21795SOL    HW167392   8.440  10.465   0.801  0.2647  0.9462  0.0860
21795SOL    HW267393   8.396  10.595   0.865 -2.4609  0.1435 -0.0350
21796SOL     OW67394   4.259   1.351   5.162  0.3923 -0.1184 -0.3031
21796SOL    HW167395   4.345   1.363   5.202  0.2904  1.5196 -0.5151
21796SOL    HW267396   4.238   1.436   5.123 -0.8260 -0.8144 -1.2471
21797SOL     OW67397  10.563   3.831   9.431 -0.0151  0.4334  0.9587
21797SOL    HW167398  10.625   3.885   9.479 -1.4120  3.2662 -0.1714
21797SOL    HW267399  10.560   3.870   9.343 -0.7697 -1.8408 -0.1233
21798SOL     OW67400   4.192   2.003   9.453 -0.3681  0.8954 -0.6952
21798SOL    HW167401   4.163   2.090   9.481 -0.7370  0.8438 -0.9052
21798SOL    HW267402   4.284   1.999   9.478 -0.2877  1.4314 -0.8923
21799SOL     OW67403   2.014   4.249   8.209  0.1811 -0.4758 -0.0999
21799SOL    HW167404   1.944   4.205   8.257  0.4901  0.6829  1.4836
21799SOL    HW267405   2.020   4.201   8.126 -2.5852 -0.5201 -0.3828
21800SOL     OW67406   4.529   4.344   3.793  0.3284  0.2821 -0.2568
21800SOL    HW167407   4.523   4.417   3.854  0.1715  0.4422 -0.4598
21800SOL    HW267408   4.621   4.318   3.794  0.3356  0.3191  0.0031
21801SOL     OW67409   4.388   0.947   1.615  0.1377 -0.8294  0.2829
21801SOL    HW167410   4.456   0.880   1.609  2.2961  1.2980 -0.5722
21801SOL    HW267411   4.359   0.944   1.706 -0.5528 -3.5048  0.0506
21802SOL     OW67412  10.176   1.143   6.279 -0.1979  0.7643 -0.6096
21802SOL    HW167413  10.213   1.083   6.215  1.8414  0.1873  0.9974
21802SOL    HW267414  10.165   1.090   6.358 -1.0424  1.8586  0.0396
21803SOL     OW67415   9.793   9.639   2.183  0.1695 -0.1274  0.5282
21803SOL    HW167416   9.704   9.667   2.201 -0.1731 -1.1584  0.4723
21803SOL    HW267417   9.842   9.662   2.261 -0.0446  0.8352  0.3903
21804SOL     OW67418   6.064   1.096   5.128 -0.2108  0.8457  0.7775
21804SOL    HW167419   5.982   1.125   5.086  0.1603  1.6502  0.5895
21804SOL    HW267420   6.096   1.174   5.174  0.3429  0.4762  1.0276
21805SOL     OW67421   0.285   8.923   9.410  0.4318 -0.1406 -0.2454
21805SOL    HW167422   0.209   8.970   9.375  0.8931  1.0189  0.2471
21805SOL    HW267423   0.347   8.992   9.433  0.2462 -0.8060  2.6332
21806SOL     OW67424   2.033   0.186   7.447 -0.4916 -0.0438 -0.0846
21806SOL    HW167425   2.017   0.161   7.356 -2.5550 -0.4343  0.3238
21806SOL    HW267426   1.955   0.236   7.472  0.2254  0.4199  1.3532
21807SOL     OW67427   0.701   3.630   8.078 -0.2234  0.2526 -0.3897
21807SOL    HW167428   0.772   3.648   8.017 -0.8326 -0.0407 -1.2096
21807SOL    HW267429   0.626   3.677   8.042 -0.2756  1.1563  0.8589
21808SOL     OW67430   8.311   1.368   7.650 -0.3277  0.2618  0.5659
21808SOL    HW167431   8.287   1.339   7.562 -0.4752  0.9213  0.3788
21808SOL    HW267432   8.237   1.343   7.705  0.3989 -1.5106  0.8135
21809SOL     OW67433   5.659  10.725   5.131  0.7005  0.2402 -0.1168
21809SOL    HW167434   5.586  10.736   5.192 -0.4006 -1.0081 -1.1470
21809SOL    HW267435   5.662  10.807   5.082  0.6169  0.6637  0.5671
21810SOL     OW67436   1.715   8.345   2.597 -0.1544  0.5951  0.0472
21810SOL    HW167437   1.656   8.420   2.610  0.7333  1.2969  0.1106
21810SOL    HW267438   1.775   8.349   2.671  1.1451  1.0135 -1.0010
21811SOL     OW67439  10.808   1.726   6.809 -0.4238  0.3135 -0.3204
21811SOL    HW167440  10.785   1.771   6.727 -0.1341  0.1939 -0.4699
21811SOL    HW267441  10.765   1.777   6.877 -2.4339 -0.7704 -0.6919
21812SOL     OW67442   8.296   6.521   5.226 -0.6234  0.1297  0.1116
21812SOL    HW167443   8.336   6.523   5.139  0.1611  0.1336  0.4588
21812SOL    HW267444   8.367   6.548   5.285 -0.9477 -0.5173  0.8174
21813SOL     OW67445   9.757   1.989   6.725 -0.3663 -0.2535 -0.5849
21813SOL    HW167446   9.835   1.935   6.737  0.7348  0.7635 -2.6180
21813SOL    HW267447   9.735   2.020   6.813  0.5558 -1.8078  0.2451
21814SOL     OW67448   5.898   1.147   4.060 -0.0367  0.1730  0.2939
21814SOL    HW167449   5.951   1.149   3.980 -0.4738 -1.2241 -0.0518
21814SOL    HW267450   5.829   1.084   4.042 -0.1393 -0.1772  1.7812
21815SOL     OW67451   9.252   1.777   2.229 -0.5190  0.2949  0.6029
21815SOL    HW167452   9.313   1.798   2.159 -0.8700  0.4327  0.3325
21815SOL    HW267453   9.280   1.832   2.303 -1.0336  1.2632  0.1083
21816SOL     OW67454   4.568   4.557   5.958  0.1274 -0.1719 -0.0307
21816SOL    HW167455   4.526   4.642   5.951 -0.2103 -0.3695 -0.4356
21816SOL    HW267456   4.661   4.573   5.939 -0.1389 -0.0915 -1.3216
21817SOL     OW67457   9.018   3.215  10.480  0.0275 -0.4397 -0.3013
21817SOL    HW167458   9.104   3.195  10.517  0.8668 -0.1370 -1.9650
21817SOL    HW267459   8.975   3.131  10.472 -0.9016 -0.3848  2.8535
21818SOL     OW67460   5.785   8.939   4.300 -0.1551 -0.0181  0.3229
21818SOL    HW167461   5.701   8.954   4.343 -0.1058  2.3777 -0.3046
21818SOL    HW267462   5.763   8.882   4.226 -1.0574 -0.1460  0.6698
21819SOL     OW67463   1.221   0.105   1.719  0.5043  0.7330  0.1207
21819SOL    HW167464   1.217   0.174   1.785  1.3962  2.1123 -1.2014
21819SOL    HW267465   1.183   0.144   1.641  1.9447  0.0994 -0.9467
21820SOL     OW67466   9.101   1.626   8.643  0.8694 -0.3005 -0.1197
21820SOL    HW167467   9.064   1.714   8.636  0.0085 -0.4156  2.2572
21820SOL    HW267468   9.194   1.641   8.660  1.2064  0.0543 -2.0164
21821SOL     OW67469   4.396   2.044   4.611 -0.3491 -0.4411  0.4704
21821SOL    HW167470   4.390   1.949   4.616  0.9376 -0.4811  2.9589
21821SOL    HW267471   4.327   2.076   4.669 -1.8651  0.2602 -1.6144
21822SOL     OW67472   7.514   3.191   6.858 -0.0487 -0.5517 -0.7262
21822SOL    HW167473   7.419   3.195   6.858 -0.0192  2.3434 -0.4394
21822SOL    HW267474   7.535   3.105   6.822 -2.7351 -0.8540 -1.7723
21823SOL     OW67475   6.168   1.847   8.484 -0.0888 -0.1671  0.0279
21823SOL    HW167476   6.263   1.853   8.478  0.2465 -1.7153  2.3504
21823SOL    HW267477   6.147   1.885   8.569 -1.5098 -0.0847 -0.3427
21824SOL     OW67478   5.381   8.765   8.734 -0.3440 -0.1306  0.2589
21824SOL    HW167479   5.418   8.850   8.710  1.4850 -1.4432 -1.9978
21824SOL    HW267480   5.420   8.744   8.818 -2.0440  1.8584  1.6632
21825SOL     OW67481   4.847   3.705   2.506  0.5666 -0.5361 -0.7146
21825SOL    HW167482   4.826   3.658   2.587 -1.9976  0.8033 -0.4922
21825SOL    HW267483   4.933   3.744   2.522 -0.0082 -0.0527  1.5507
21826SOL     OW67484   8.788   2.390   4.087 -0.2587 -0.8171 -0.2222
21826SOL    HW167485   8.812   2.301   4.111  1.0998 -0.1323  1.1889
21826SOL    HW267486   8.692   2.388   4.080 -0.2556 -2.3606 -0.1828
21827SOL     OW67487   2.494   7.106  10.556  0.5822 -0.5510  0.8388
21827SOL    HW167488   2.513   7.069  10.470  0.5586 -0.7342  0.9127
21827SOL    HW267489   2.442   7.039  10.601 -0.5780  0.0980  0.5079
21828SOL     OW67490   2.743   6.243   6.466 -0.6474 -0.6685  0.1994
21828SOL    HW167491   2.781   6.291   6.392 -2.9105  1.7272  0.4227
21828SOL    HW267492   2.661   6.208   6.432 -1.7011  0.4414  1.4846
21829SOL     OW67493   0.302   5.560   3.318  0.8452  0.1568 -0.1841
21829SOL    HW167494   0.329   5.469   3.317  2.7733  0.6593  1.2732
21829SOL    HW267495   0.305   5.586   3.410 -0.5786  1.4486 -0.4605
21830SOL     OW67496   7.996   9.853   3.663 -0.0613  0.0811 -0.1849
21830SOL    HW167497   8.066   9.805   3.619 -0.8021 -1.4663  0.2588
21830SOL    HW267498   8.030   9.872   3.750 -0.6583 -1.9801  0.5646
21831SOL     OW67499  11.001   1.558   2.919  0.1659  0.2928  0.0811
21831SOL    HW167500  11.042   1.596   2.842  1.0566  0.5587  0.6711
21831SOL    HW267501  10.910   1.585   2.914 -0.4604 -1.8755 -2.2672
21832SOL     OW67502   0.817   7.648   8.700 -0.2715 -0.0439 -0.2800
21832SOL    HW167503   0.792   7.598   8.777  1.2818 -0.4365 -0.0157
21832SOL    HW267504   0.766   7.729   8.707 -0.4830 -0.2592  0.9084
21833SOL     OW67505   6.677   7.042   1.601 -0.2587  0.0280 -0.5413
21833SOL    HW167506   6.619   7.118   1.607 -2.2372 -1.4614  0.1395
21833SOL    HW267507   6.709   7.030   1.691 -0.5329 -0.3471 -0.4896
21834SOL     OW67508   7.971  10.435   7.793 -0.0775 -0.2425 -0.2347
21834SOL    HW167509   8.064  10.436   7.770 -0.1176 -1.9509 -0.5781
21834SOL    HW267510   7.930  10.384   7.723 -1.3536  0.8244 -0.2986
21835SOL     OW67511  11.002  10.252   6.962 -0.4035  0.2680 -0.4044
21835SOL    HW167512  10.980  10.171   6.917 -0.7417 -0.0178  0.2623
21835SOL    HW267513  11.097  10.260   6.954 -0.1202 -1.1321  1.0427
21836SOL     OW67514   7.957   9.151   2.605  0.3227  0.4470 -0.0808
21836SOL    HW167515   8.046   9.128   2.579  1.6079  0.1638  3.9347
21836SOL    HW267516   7.902   9.085   2.562  2.3844 -1.2403 -0.3184
21837SOL     OW67517   5.389   0.699   8.713  0.0743 -0.0849  0.1616
21837SOL    HW167518   5.436   0.710   8.631  0.4999 -0.1270  0.3945
21837SOL    HW267519   5.326   0.629   8.696  0.6833 -0.6167  0.0959
21838SOL     OW67520   0.839   0.331   3.882  0.3148 -0.0636 -0.2646
21838SOL    HW167521   0.801   0.250   3.917  0.4553 -0.3770 -0.8262
21838SOL    HW267522   0.879   0.373   3.958 -1.0738  0.2420  0.3269
21839SOL     OW67523   2.899   6.883   9.123  0.4552  0.2961 -0.1408
21839SOL    HW167524   2.917   6.888   9.029  1.7561 -0.1129  0.0696
21839SOL    HW267525   2.952   6.810   9.154 -0.3511  0.0979  0.8364
21840SOL     OW67526   9.541  10.229   2.662 -0.5393 -0.3211 -0.0492
21840SOL    HW167527   9.532  10.164   2.592 -0.5710 -3.3824  2.5413
21840SOL    HW267528   9.454  10.232   2.703 -0.6972  1.8862 -0.4174
21841SOL     OW67529   5.683   0.971   2.426  0.0124  0.5582 -0.8788
21841SOL    HW167530   5.624   1.042   2.399 -1.3739  0.2125  1.0015
21841SOL    HW267531   5.625   0.898   2.446  0.9791  0.3792  1.6091
21842SOL     OW67532   9.379   0.889   8.652 -0.0713  0.0942  0.0256
21842SOL    HW167533   9.426   0.837   8.586  0.5977 -0.2728  0.7788
21842SOL    HW267534   9.387   0.979   8.621 -0.9135 -0.1893 -1.0937
21843SOL     OW67535   9.779   1.903   4.756 -0.5983  0.2246 -0.6047
21843SOL    HW167536   9.762   1.837   4.822  0.6285  0.0601 -0.4318
21843SOL    HW267537   9.749   1.864   4.674 -0.2342 -0.3924 -0.4462
21844SOL     OW67538   9.674   2.342   9.706 -0.2227  0.2976 -0.2034
21844SOL    HW167539   9.672   2.302   9.619  0.5073 -1.3507  0.4986
21844SOL    HW267540   9.584   2.333   9.739  0.1841 -2.0777  0.4555
21845SOL     OW67541   6.613   7.737   2.661  0.4942  0.0057  0.0169
21845SOL    HW167542   6.709   7.734   2.663  0.5219  0.3253 -0.4740
21845SOL    HW267543   6.585   7.688   2.738  1.0392 -1.1520 -0.5005
21846SOL     OW67544   1.419   5.630  10.637  0.2886  1.0835 -0.0611
21846SOL    HW167545   1.496   5.687  10.647  0.2906  0.8570  1.3447
21846SOL    HW267546   1.370   5.641  10.718  0.2159 -0.8039  0.1794
21847SOL     OW67547   9.310   8.766   9.036 -0.3373 -0.4472  0.4515
21847SOL    HW167548   9.350   8.693   8.988 -0.1219  0.3060 -0.5294
21847SOL    HW267549   9.355   8.844   9.005 -1.3834  0.2403  0.6049
21848SOL     OW67550   4.801  10.374   0.046 -0.3949  0.1741 -0.0570
21848SOL    HW167551   4.768  10.378   0.135  0.3799 -1.3081  0.3224
21848SOL    HW267552   4.895  10.384   0.054 -0.2472 -0.6271 -0.6332
21849SOL     OW67553   6.445   5.713   4.744 -0.2630  0.2434 -0.4178
21849SOL    HW167554   6.445   5.701   4.649  2.1042  0.3854 -0.4929
21849SOL    HW267555   6.498   5.791   4.758 -1.3118  0.7507  1.0052
21850SOL     OW67556   1.615   2.522   7.410  0.8548 -0.5034  0.2748
21850SOL    HW167557   1.553   2.476   7.353 -0.8904  1.8507  0.1079
21850SOL    HW267558   1.606   2.478   7.494  0.6088 -1.5908 -0.2895
21851SOL     OW67559   6.248   7.182   6.554  0.0377  0.1062  0.1691
21851SOL    HW167560   6.326   7.175   6.609 -0.3094 -1.1589  0.5252
21851SOL    HW267561   6.202   7.099   6.566 -1.5877  0.9896  0.2690
21852SOL     OW67562   5.571   0.724   5.157 -0.8015  0.0030 -0.0151
21852SOL    HW167563   5.595   0.802   5.207 -0.5459  0.0330 -0.1813
21852SOL    HW267564   5.544   0.660   5.224 -3.5792  1.0734 -0.0065
21853SOL     OW67565   9.111  10.156   6.420 -0.2634 -0.1522 -0.4093
21853SOL    HW167566   9.091  10.098   6.494  2.1508 -0.7734 -0.1677
21853SOL    HW267567   9.101  10.100   6.343  1.6836 -0.8777 -0.2005
21854SOL     OW67568   3.849   3.605   6.493  0.3161 -0.7669  0.3453
21854SOL    HW167569   3.773   3.659   6.514  0.5401 -0.9530  1.7202
21854SOL    HW267570   3.856   3.610   6.398 -1.3878 -0.7259  0.1912
21855SOL     OW67571  10.320  10.011   4.054  0.1504 -0.2071 -0.3885
21855SOL    HW167572  10.403  10.059   4.053 -0.6665  1.2905 -1.9194
21855SOL    HW267573  10.341   9.927   4.013  0.7418  0.5193 -1.6346
21856SOL     OW67574   7.839   1.638   2.692 -0.3937 -0.0128  1.0075
21856SOL    HW167575   7.887   1.556   2.691 -1.0357 -0.3894  0.8082
21856SOL    HW267576   7.832   1.660   2.785 -1.1194 -0.7253  1.1338
21857SOL     OW67577   4.482   3.626   5.952  0.5681 -0.3690  0.0826
21857SOL    HW167578   4.541   3.589   5.886  1.2774 -0.5324  0.7862
21857SOL    HW267579   4.533   3.698   5.991  1.0504 -1.6428  1.9525
21858SOL     OW67580   7.980   1.066   3.762  1.0847 -0.0625 -0.3022
21858SOL    HW167581   7.965   1.111   3.679 -0.6925  1.5965  0.8135
21858SOL    HW267582   8.069   1.032   3.756  2.0519  2.4796 -1.7888
21859SOL     OW67583   9.297   7.093   5.653 -0.0681 -0.3395 -0.0717
21859SOL    HW167584   9.291   7.188   5.647  0.4311 -0.3618 -1.4893
21859SOL    HW267585   9.207   7.062   5.641 -0.3039 -0.0449  0.8737
21860SOL     OW67586  10.423   4.613   8.515  0.0792 -0.0741 -0.0720
21860SOL    HW167587  10.428   4.607   8.610 -0.9130  1.0009  0.0584
21860SOL    HW267588  10.360   4.546   8.489 -0.3020  0.2173  0.1038
21861SOL     OW67589   1.036   3.620   8.935  0.0061  0.0559  0.9897
21861SOL    HW167590   1.111   3.568   8.963  0.5081  1.3083  2.0919
21861SOL    HW267591   1.068   3.710   8.935 -0.4650  0.3390 -2.0790
21862SOL     OW67592   8.481   4.411   4.583 -0.1071 -0.8569  0.1424
21862SOL    HW167593   8.490   4.479   4.517  0.5301 -1.1554 -0.0878
21862SOL    HW267594   8.447   4.336   4.535 -0.6861 -0.7413  0.3707
21863SOL     OW67595   4.669   3.347   7.177  0.3138  0.2927 -0.6724
21863SOL    HW167596   4.708   3.325   7.261 -0.8220  1.0061  0.0696
21863SOL    HW267597   4.634   3.435   7.189 -2.3382 -0.6324 -0.9571
21864SOL     OW67598   2.464   8.999   3.475  0.3987  0.2859 -0.2124
21864SOL    HW167599   2.552   9.037   3.470  0.4439  0.4613  1.3370
21864SOL    HW267600   2.410   9.068   3.513  0.2146 -0.7196  1.4723
21865SOL     OW67601   5.589   1.902   4.231  0.8602  0.2702 -0.4962
21865SOL    HW167602   5.543   1.971   4.279 -0.0110 -0.4262 -0.3066
21865SOL    HW267603   5.613   1.943   4.148  0.3985  0.8238 -0.3691
21866SOL     OW67604   0.943   7.262   8.883  0.0611 -0.0424 -0.3913
21866SOL    HW167605   0.894   7.343   8.898 -2.0327 -1.5085  1.1974
21866SOL    HW267606   0.952   7.257   8.788  0.4436  2.1224 -0.5277
21867SOL     OW67607   8.322   4.706   4.648 -0.1162 -0.2822  0.2152
21867SOL    HW167608   8.265   4.648   4.598  0.2770 -0.0785 -0.4904
21867SOL    HW267609   8.380   4.647   4.697 -0.1309 -0.4921 -0.0154
21868SOL     OW67610   4.905   8.121   8.840  0.0236  0.3378  0.4649
21868SOL    HW167611   4.919   8.027   8.851 -0.3076  0.1873 -0.3381
21868SOL    HW267612   4.917   8.136   8.746 -4.6743  0.2311 -0.3656
21869SOL     OW67613   2.354   0.002  10.774 -0.1118  0.1949 -0.1670
21869SOL    HW167614   2.446   0.027  10.760 -0.3345  0.0083 -2.2555
21869SOL    HW267615   2.340  -0.073  10.717 -1.7984  0.7846 -0.6004
21870SOL     OW67616  10.667   4.530   6.033  0.5342  0.5725  0.0510
21870SOL    HW167617  10.681   4.625   6.035 -1.0250  0.8764 -1.3909
21870SOL    HW267618  10.611   4.513   6.109  0.7588  0.8140  0.2731
21871SOL     OW67619   8.206   0.958   2.646  0.3272  0.8726 -0.0852
21871SOL    HW167620   8.277   1.011   2.610  1.3535 -0.7953 -0.6458
21871SOL    HW267621   8.193   0.888   2.581 -1.1725  0.5896  0.4753
21872SOL     OW67622   7.921   7.209   4.482 -0.5214  0.0523 -0.0047
21872SOL    HW167623   7.834   7.168   4.489 -1.1272  1.4483  1.1095
21872SOL    HW267624   7.906   7.289   4.433 -0.1820  1.0664  1.4756
21873SOL     OW67625   1.398   1.149   7.543 -0.4723 -0.0724  0.6304
21873SOL    HW167626   1.309   1.146   7.508 -0.6936 -0.6964  1.2079
21873SOL    HW267627   1.385   1.161   7.637  0.1006  1.3306  0.5529
21874SOL     OW67628   9.232   9.970   9.363 -0.3625 -0.4593 -0.2196
21874SOL    HW167629   9.307  10.004   9.316 -0.4897 -0.8859 -0.7383
21874SOL    HW267630   9.269   9.923   9.437 -0.1116 -0.7297 -0.5138
21875SOL     OW67631   1.925   1.290   4.071  0.4241  0.0381 -0.1762
21875SOL    HW167632   1.888   1.361   4.124  0.9653  1.1707 -1.2386
21875SOL    HW267633   1.928   1.327   3.982  1.4498 -1.0445 -0.6145
21876SOL     OW67634   1.677   7.262   3.137 -0.0718 -0.3909 -0.2557
21876SOL    HW167635   1.597   7.211   3.143  0.5233 -1.2603  0.5605
21876SOL    HW267636   1.665   7.333   3.201 -0.7195  0.2689 -1.0844
21877SOL     OW67637   8.756   3.143   4.357  0.0465  0.8004  0.2052
21877SOL    HW167638   8.827   3.205   4.375  1.6605 -1.2772  1.6100
21877SOL    HW267639   8.679   3.182   4.399  1.6154  0.6800  3.6060
21878SOL     OW67640   5.413   6.950   8.834 -0.0983 -0.3227  0.6999
21878SOL    HW167641   5.397   6.997   8.752  1.9314 -1.2761 -0.3152
21878SOL    HW267642   5.363   6.999   8.900 -1.0270  1.0214 -0.9327
21879SOL     OW67643   8.208   0.981   6.127 -0.1251  0.2306  0.0464
21879SOL    HW167644   8.198   0.959   6.034 -2.4795  0.8925  0.0860
21879SOL    HW267645   8.265   1.058   6.128 -1.4863  1.2946 -1.0198
21880SOL     OW67646   3.167   1.775   1.354  0.8863 -0.7247  0.3929
21880SOL    HW167647   3.182   1.839   1.285  1.0404  0.7265  1.7290
21880SOL    HW267648   3.179   1.823   1.435  0.8287 -2.4143  1.4569
21881SOL     OW67649   0.028   8.309   3.025 -0.3459  0.0540  0.7831
21881SOL    HW167650   0.084   8.242   3.064 -0.1164 -1.1728 -1.5054
21881SOL    HW267651   0.055   8.390   3.068  1.2122 -0.9178  1.7598
21882SOL     OW67652   7.848   3.715  10.102  0.3177  0.1418 -0.3817
21882SOL    HW167653   7.777   3.728  10.165  1.5170  0.6369  0.9452
21882SOL    HW267654   7.902   3.793  10.111  1.7396 -0.8062 -0.3753
21883SOL     OW67655   2.809   4.803   5.083  0.3695 -0.5611 -0.3798
21883SOL    HW167656   2.791   4.827   4.992 -1.2308 -2.1561 -0.5487
21883SOL    HW267657   2.763   4.869   5.134 -0.2566 -0.6879 -0.7656
21884SOL     OW67658  10.371   8.105   9.454 -0.3154  0.1204  0.4745
21884SOL    HW167659  10.355   8.111   9.548 -0.9049  0.6168  0.3520
21884SOL    HW267660  10.407   8.190   9.430 -0.8644  0.2647  0.1307
21885SOL     OW67661   2.872   7.551   5.224 -0.2162  0.2460 -0.5921
21885SOL    HW167662   2.935   7.564   5.295 -1.6220  1.1103  0.5639
21885SOL    HW267663   2.797   7.510   5.267 -0.6424 -0.2940 -1.8272
21886SOL     OW67664   5.155   5.876   0.863 -0.2841 -0.3038 -0.3608
21886SOL    HW167665   5.188   5.787   0.854  1.9767  0.5008 -0.7769
21886SOL    HW267666   5.112   5.877   0.949  1.2105 -1.3671  0.4454
21887SOL     OW67667   5.607   1.678   1.800  0.0207  0.1868 -0.4399
21887SOL    HW167668   5.520   1.639   1.806 -0.3074  1.0359  0.8511
21887SOL    HW267669   5.658   1.630   1.866 -0.2928  1.6326  0.9069
21888SOL     OW67670   4.928   8.362   6.346 -0.2916 -0.0066 -0.1889
21888SOL    HW167671   4.977   8.354   6.264 -0.6049 -2.6572 -0.2098
21888SOL    HW267672   4.836   8.352   6.319 -0.4105 -0.7053  0.4519
21889SOL     OW67673   9.898   8.133   9.459 -0.1447 -0.1198  0.0279
21889SOL    HW167674   9.960   8.068   9.494 -0.5823  0.6714  2.5097
21889SOL    HW267675   9.812   8.096   9.478 -0.3903  0.6522  0.4553
21890SOL     OW67676   3.650  10.887   1.597  0.2125  0.3444 -0.5258
21890SOL    HW167677   3.588  10.957   1.577  1.9542  1.9144 -0.6091
21890SOL    HW267678   3.694  10.869   1.513 -0.0409 -0.6950 -0.4511
21891SOL     OW67679   1.824   2.953  10.602  0.1753  0.1089 -0.2464
21891SOL    HW167680   1.868   2.893  10.661  1.7406  1.2211 -0.2072
21891SOL    HW267681   1.730   2.937  10.615  0.5320 -2.1050 -0.0778
21892SOL     OW67682   4.259   8.731   8.270 -0.3557 -0.5187  0.3805
21892SOL    HW167683   4.251   8.718   8.364  0.9116 -0.5207  0.5096
21892SOL    HW267684   4.350   8.759   8.257 -0.8236  0.6080 -0.7217
21893SOL     OW67685   0.073  10.412   0.693 -0.4939  0.9999  0.0001
21893SOL    HW167686   0.076  10.506   0.711 -2.0533  1.1695 -0.5227
21893SOL    HW267687   0.041  10.406   0.603  0.7516 -0.0174 -0.4087
21894SOL     OW67688   9.408   7.294   1.243 -0.4161  0.3689  0.2488
21894SOL    HW167689   9.503   7.304   1.240 -0.4587  0.7217  0.0623
21894SOL    HW267690   9.374   7.372   1.200 -0.7932  0.2947  0.4078
21895SOL     OW67691   6.404   5.011   5.324 -0.3554  0.5866 -0.1369
21895SOL    HW167692   6.390   5.079   5.390  0.5965  0.8394 -0.1799
21895SOL    HW267693   6.321   4.965   5.319 -0.8510  1.4150  0.2775
21896SOL     OW67694   0.964   0.154   6.551  0.2503  0.1930 -0.4718
21896SOL    HW167695   0.933   0.240   6.525 -0.5480  1.2958  3.4479
21896SOL    HW267696   1.059   0.163   6.558  0.1224  1.0081  0.4548
21897SOL     OW67697   5.767  10.069   7.494 -0.6203  0.4649 -0.5145
21897SOL    HW167698   5.779  10.040   7.403  1.3166  2.3000 -0.9372
21897SOL    HW267699   5.827  10.014   7.544  0.3142  1.1962 -0.7862
21898SOL     OW67700   3.049   4.298   9.396  0.0936 -0.6463 -0.3081
21898SOL    HW167701   3.073   4.295   9.303  1.8659 -0.9468  0.1105
21898SOL    HW267702   3.108   4.236   9.437 -1.6361 -1.5908  0.8592
21899SOL     OW67703   5.485  10.536  10.909  0.0599 -0.1624 -0.4104
21899SOL    HW167704   5.447  10.495  10.831  1.0022 -0.5236 -0.6974
21899SOL    HW267705   5.524  10.617  10.876 -0.6435  0.3136 -0.0807
21900SOL     OW67706   0.910   5.639   1.370 -0.3605 -0.7898  0.3733
21900SOL    HW167707   0.927   5.681   1.455 -1.6297  1.4364 -0.4093
21900SOL    HW267708   0.870   5.555   1.393 -1.3402  0.0754  2.0038
21901SOL     OW67709   9.302   2.916   8.084  0.0435 -0.5541 -0.0154
21901SOL    HW167710   9.256   2.957   8.157 -0.1894 -0.1154 -0.4061
21901SOL    HW267711   9.253   2.943   8.006 -1.0956 -2.8398 -0.1964
21902SOL     OW67712   9.403   1.753   6.673  0.0917  0.1073 -0.0309
21902SOL    HW167713   9.456   1.817   6.626  1.8040  0.7698  2.5749
21902SOL    HW267714   9.376   1.798   6.753 -3.2059 -0.7469 -0.4988
21903SOL     OW67715   7.378   6.965   7.244  0.2648 -0.1814 -0.0085
21903SOL    HW167716   7.396   6.932   7.333  1.3271  0.5510  0.0780
21903SOL    HW267717   7.300   7.019   7.254 -0.0026 -0.6240  0.3471
21904SOL     OW67718   5.479   4.051   8.692  0.5676  0.4686 -0.6288
21904SOL    HW167719   5.502   4.116   8.759 -0.8269  0.7702 -0.4252
21904SOL    HW267720   5.556   3.994   8.688  0.3424 -0.1912  2.0076
21905SOL     OW67721   7.189   5.172   0.879 -0.3174  0.4634 -0.0644
21905SOL    HW167722   7.107   5.197   0.922  0.1804  0.5989  0.8168
21905SOL    HW267723   7.176   5.197   0.787 -2.6540 -2.7709 -0.7874
21906SOL     OW67724   5.125   0.170   5.722  0.3590 -0.2815  0.2086
21906SOL    HW167725   5.169   0.244   5.765 -1.0587 -0.1729  1.5460
21906SOL    HW267726   5.088   0.119   5.794 -1.9724 -0.1754 -0.8170
21907SOL     OW67727   6.348   6.074   1.133 -0.0544  0.1780 -0.0231
21907SOL    HW167728   6.360   6.094   1.040  1.3441  0.6889  0.2421
21907SOL    HW267729   6.270   6.124   1.158 -1.5089 -1.3087 -1.2854
21908SOL     OW67730  10.012   1.102   2.106 -0.4272 -0.1540 -0.3936
21908SOL    HW167731   9.955   1.100   2.029 -0.0998 -0.9695 -0.6327
21908SOL    HW267732  10.018   1.010   2.133 -0.2497  0.0881  0.3911
21909SOL     OW67733   5.601   0.802   1.881  0.1540  0.0040  0.1597
21909SOL    HW167734   5.661   0.728   1.887 -0.0015 -0.0845  0.7276
21909SOL    HW267735   5.655   0.879   1.901  0.1488 -0.0398  0.3412
21910SOL     OW67736   8.742   4.630   4.145 -0.4528  0.3455 -0.1041
21910SOL    HW167737   8.794   4.554   4.170 -1.4539 -0.5071 -0.5214
21910SOL    HW267738   8.804   4.689   4.102  0.2305 -0.4566 -0.2395
21911SOL     OW67739   5.193   6.653   0.493  0.2698 -0.4999 -0.1687
21911SOL    HW167740   5.211   6.565   0.459 -0.4209  0.0338 -2.0637
21911SOL    HW267741   5.219   6.649   0.585  0.7823 -2.5156 -0.3473
21912SOL     OW67742   4.220   7.020   6.533 -0.1348 -0.4483 -0.4287
21912SOL    HW167743   4.249   7.110   6.518 -0.7712 -0.1852 -0.1244
21912SOL    HW267744   4.301   6.970   6.543  0.2322  0.3623  0.9460
21913SOL     OW67745  10.800   8.567   7.238 -0.2935 -0.0757 -0.5878
21913SOL    HW167746  10.805   8.615   7.156  0.2284  0.2628 -0.3656
21913SOL    HW267747  10.890   8.563   7.269 -0.4680 -0.3143 -0.1010
21914SOL     OW67748   0.961   2.158  10.016 -0.4724 -0.4649  0.3186
21914SOL    HW167749   0.873   2.183   9.988 -0.5145 -2.2784 -1.4091
21914SOL    HW267750   0.948   2.106  10.095 -0.7101  1.2374  1.4486
21915SOL     OW67751   7.077   9.494   4.390  0.1341 -0.6763 -0.1450
21915SOL    HW167752   7.011   9.434   4.354  1.0814 -0.0346 -3.2188
21915SOL    HW267753   7.026   9.567   4.426 -0.9323 -2.2306  1.7294
21916SOL     OW67754   1.983   7.737  10.827 -0.0030 -0.1029 -0.2447
21916SOL    HW167755   1.947   7.659  10.869  1.4153 -1.6348 -1.6868
21916SOL    HW267756   1.951   7.733  10.737  1.5741 -0.0856 -0.8394
21917SOL     OW67757   8.427   8.427   4.751 -0.1820  0.7422 -0.0420
21917SOL    HW167758   8.334   8.437   4.734 -0.2945 -0.7757 -0.4444
21917SOL    HW267759   8.464   8.397   4.668  0.1917 -1.3068  0.8020
21918SOL     OW67760   6.127   1.338   9.069 -0.4712 -0.1498 -0.7684
21918SOL    HW167761   6.068   1.412   9.054 -1.4796 -0.3340  1.7032
21918SOL    HW267762   6.076   1.278   9.124  1.8010 -0.6152  0.9905
21919SOL     OW67763   1.152   8.780   3.526  0.0405 -0.3140  0.1267
21919SOL    HW167764   1.154   8.782   3.622  0.5499  2.7438  0.1701
21919SOL    HW267765   1.062   8.803   3.504  0.1563 -0.0934 -0.1144
21920SOL     OW67766   2.548   9.657   4.589 -0.0474  0.3338  0.5127
21920SOL    HW167767   2.590   9.581   4.548  1.3424  0.4060  1.6944
21920SOL    HW267768   2.455   9.647   4.570  0.4438  0.2093 -2.3467
21921SOL     OW67769   5.442   6.112   1.848  0.2684 -0.6988 -0.3919
21921SOL    HW167770   5.353   6.147   1.859  0.2811 -0.9374  0.5550
21921SOL    HW267771   5.497   6.173   1.897  0.8052  0.1044 -1.9149
21922SOL     OW67772   0.517   6.257   1.716 -0.2772 -0.4253 -0.0905
21922SOL    HW167773   0.506   6.276   1.809  1.2888 -0.9301  0.2301
21922SOL    HW267774   0.504   6.162   1.709 -3.4857 -0.0393 -0.9416
21923SOL     OW67775   0.824   8.672   8.692 -0.2708 -0.1399 -0.2066
21923SOL    HW167776   0.827   8.601   8.628 -0.5870 -0.6959  0.3813
21923SOL    HW267777   0.913   8.675   8.728 -0.6195 -1.2704  0.8400
21924SOL     OW67778   4.058   1.749  10.879 -0.1591  0.1832 -0.8443
21924SOL    HW167779   4.131   1.707  10.832  1.7843  0.0115  2.0622
21924SOL    HW267780   3.981   1.700  10.851  1.2595 -1.7021 -1.7670
21925SOL     OW67781   3.182   9.426   4.110 -0.5177  0.8295 -0.1141
21925SOL    HW167782   3.155   9.391   4.025 -1.6878 -0.9564  0.9012
21925SOL    HW267783   3.102   9.422   4.163  0.6557 -0.1335  1.6618
21926SOL     OW67784   6.066   3.902   3.365  0.5024  0.2141  0.0089
21926SOL    HW167785   6.115   3.876   3.287  0.3896 -0.3942  0.1334
21926SOL    HW267786   6.017   3.980   3.338  0.6321  0.1359 -0.4642
21927SOL     OW67787   2.937   8.243   8.101  0.3693  0.2346 -0.3421
21927SOL    HW167788   2.917   8.284   8.017 -2.6613 -0.2004  0.0866
21927SOL    HW267789   2.975   8.314   8.153 -0.8780  1.4166 -0.9859
21928SOL     OW67790   8.927   5.588   6.301 -0.0962  0.0415 -0.2324
21928SOL    HW167791   8.844   5.588   6.350  0.1075  0.6645  0.1258
21928SOL    HW267792   8.991   5.556   6.364 -0.1593 -1.0201 -0.6927
21929SOL     OW67793   2.082   2.063   0.044 -0.1229  0.5466  0.3255
21929SOL    HW167794   2.106   2.031   0.131  1.5682 -0.2336 -0.3956
21929SOL    HW267795   2.088   1.986  -0.012  1.1679  1.5229 -0.9267
21930SOL     OW67796   8.929   3.458   1.676 -0.3758 -0.3829 -0.3430
21930SOL    HW167797   8.887   3.377   1.646 -0.6612 -0.1794 -0.4965
21930SOL    HW267798   8.892   3.526   1.620  1.5526 -0.4416 -1.7834
21931SOL     OW67799   7.784  10.376   2.799  0.4495  0.3002 -0.0957
21931SOL    HW167800   7.760  10.459   2.758  1.7641  2.0804  2.4601
21931SOL    HW267801   7.858  10.345   2.747 -0.9639 -0.1063 -1.9648
21932SOL     OW67802   0.929   7.466   4.599 -1.2227  0.3051  0.2268
21932SOL    HW167803   0.888   7.425   4.676 -0.2157 -0.7084  0.2426
21932SOL    HW267804   0.953   7.393   4.543 -0.4422  0.9535 -0.3012
21933SOL     OW67805  10.179   7.727   6.144 -0.0924  0.4436 -0.5998
21933SOL    HW167806  10.193   7.735   6.050  2.4984  1.3453 -0.2097
21933SOL    HW267807  10.145   7.813   6.170 -0.0445  0.4544 -0.5750
21934SOL     OW67808   9.756   3.542   5.682  0.5894 -0.3595 -0.1857
21934SOL    HW167809   9.760   3.621   5.629 -0.0211 -0.6153 -0.6176
21934SOL    HW267810   9.666   3.512   5.675  0.7452 -0.9437  0.1958
21935SOL     OW67811   2.299   0.807   2.350  0.1302  0.3884 -0.5526
21935SOL    HW167812   2.384   0.771   2.377 -0.9546 -1.4074  0.6600
21935SOL    HW267813   2.300   0.897   2.381  0.8944 -0.1588  1.1275
21936SOL     OW67814   5.222   3.038   2.504 -0.1829  0.4501  0.4185
21936SOL    HW167815   5.237   3.121   2.551 -0.4556  0.0921  1.1528
21936SOL    HW267816   5.152   2.995   2.553  0.7257 -0.7306  0.7287
21937SOL     OW67817   2.948   3.623   6.010  0.2368 -0.0529 -0.1243
21937SOL    HW167818   3.034   3.630   5.969  0.5118 -2.8376 -0.2284
21937SOL    HW267819   2.965   3.635   6.103  0.9624 -1.6775 -0.0216
21938SOL     OW67820  11.020   7.602   1.353 -0.1249  0.1021  0.1828
21938SOL    HW167821  11.091   7.623   1.414 -0.0529 -1.0299  0.5196
21938SOL    HW267822  10.965   7.681   1.352  0.6282  0.6496  0.6316
21939SOL     OW67823   9.449   8.894   4.884 -0.2625  0.5740 -0.5222
21939SOL    HW167824   9.360   8.875   4.853  0.5433 -0.0550 -2.5931
21939SOL    HW267825   9.505   8.833   4.837  1.1484 -0.2960  2.0932
21940SOL     OW67826  10.194   5.680   9.786 -0.3177  0.5520 -0.1091
21940SOL    HW167827  10.118   5.644   9.740 -0.4336  1.7428 -0.9021
21940SOL    HW267828  10.183   5.652   9.877 -0.3255 -1.4810 -0.6889
21941SOL     OW67829   7.229  10.886   5.311 -0.4689  0.1425 -0.2903
21941SOL    HW167830   7.204  10.966   5.359 -1.7389  0.0702 -0.8002
21941SOL    HW267831   7.256  10.825   5.379 -1.2497  0.3988  0.2680
21942SOL     OW67832   9.307   1.411   7.774  0.0119 -0.4772 -0.4548
21942SOL    HW167833   9.305   1.490   7.720 -2.0304 -0.1272  0.0561
21942SOL    HW267834   9.380   1.427   7.835 -0.9239  1.4764  0.2506
21943SOL     OW67835   2.247   4.655   1.965  0.1247 -0.5839  0.8198
21943SOL    HW167836   2.211   4.716   2.029 -1.2000 -2.3937  1.8993
21943SOL    HW267837   2.183   4.584   1.961  2.7909 -3.2813  1.7391
21944SOL     OW67838   5.353  11.037   4.376  0.5811  0.1428 -0.1702
21944SOL    HW167839   5.427  11.003   4.326 -2.3851 -0.4690 -4.7487
21944SOL    HW267840   5.316  10.961   4.420  0.9951 -0.0905 -0.2181
21945SOL     OW67841   2.193   6.548   4.467  0.0212 -0.3843  0.0265
21945SOL    HW167842   2.237   6.466   4.443 -0.6226 -0.3706 -1.2650
21945SOL    HW267843   2.246   6.583   4.539 -0.2449 -2.4158  1.2882
21946SOL     OW67844   4.346   5.486   7.041 -0.2618  0.5100 -0.0792
21946SOL    HW167845   4.371   5.436   7.119 -1.2664  1.0201  0.5957
21946SOL    HW267846   4.402   5.452   6.972 -0.2527 -0.8780  0.5698
21947SOL     OW67847   7.747  10.196   5.984  0.3521 -0.3212  0.4112
21947SOL    HW167848   7.718  10.253   6.055  1.2255  0.2974  0.2781
21947SOL    HW267849   7.690  10.119   5.991 -0.7396  0.4798  0.6940
21948SOL     OW67850   9.420   6.801   5.991 -0.0833 -0.4776 -0.3323
21948SOL    HW167851   9.385   6.890   5.993 -1.2342 -0.9137  0.1585
21948SOL    HW267852   9.430   6.777   6.084  2.4516 -0.0590 -0.4239
21949SOL     OW67853   2.188   1.769   0.730  0.2323  0.4799  0.7333
21949SOL    HW167854   2.134   1.711   0.784 -1.3699  0.6299 -0.6406
21949SOL    HW267855   2.258   1.713   0.698 -1.2608 -0.7511 -0.5296
21950SOL     OW67856   7.545   2.330   6.332  0.9493 -0.3979  0.4452
21950SOL    HW167857   7.452   2.311   6.342 -0.2303  3.6322 -0.8155
21950SOL    HW267858   7.555   2.347   6.238  2.8904 -0.3359  0.6269
21951SOL     OW67859   4.490   1.855   0.502  0.4307  0.4666 -0.6206
21951SOL    HW167860   4.432   1.821   0.570  1.6842  0.9990  0.7728
21951SOL    HW267861   4.541   1.779   0.474 -0.2393  0.2011 -1.1449
21952SOL     OW67862   2.339   9.377   3.004  0.0032  0.1778  0.2767
21952SOL    HW167863   2.309   9.304   2.950  2.4357 -1.9490  1.5838
21952SOL    HW267864   2.410   9.417   2.954  0.3207  0.0485  0.6174
21953SOL     OW67865   2.223   3.283   3.462  0.1266  0.5203 -0.1321
21953SOL    HW167866   2.178   3.365   3.440  1.2118  1.7565  1.9378
21953SOL    HW267867   2.157   3.215   3.447 -1.8936  2.0709  1.1486
21954SOL     OW67868   6.454   1.479  10.289  0.4068  0.5614  0.1298
21954SOL    HW167869   6.415   1.497  10.374 -0.2739  1.1081 -0.2935
21954SOL    HW267870   6.385   1.435  10.239  0.2588  1.6867 -0.6860
21955SOL     OW67871   4.984   3.418   3.694 -0.3397  0.0314  0.0741
21955SOL    HW167872   4.891   3.406   3.714 -0.1345 -0.9155  0.5220
21955SOL    HW267873   5.024   3.443   3.777  0.1480 -1.7367  0.4192
21956SOL     OW67874   4.487   1.616  10.669 -0.3791 -0.6621  0.0882
21956SOL    HW167875   4.547   1.562  10.617  0.1427 -0.2023  0.2045
21956SOL    HW267876   4.497   1.705  10.633  0.0486 -0.3216  1.0294
21957SOL     OW67877   5.488   1.932   8.419  0.0160 -0.0172  0.4755
21957SOL    HW167878   5.506   1.979   8.500 -0.3828 -0.1009  0.6148
21957SOL    HW267879   5.426   1.988   8.372  0.4871  0.1818  0.0859
21958SOL     OW67880   7.280   3.324  10.332 -0.0909  0.2045 -0.4322
21958SOL    HW167881   7.267   3.401  10.387  0.0351 -0.6721  0.8701
21958SOL    HW267882   7.341   3.270  10.381  1.0840 -0.0279 -2.0617
21959SOL     OW67883  10.439   9.151   9.112  0.2562 -0.2801 -0.0963
21959SOL    HW167884  10.343   9.150   9.112  0.2127 -2.8745 -0.8540
21959SOL    HW267885  10.464   9.138   9.021  1.3128 -0.6353  0.2242
21960SOL     OW67886  10.434   1.387   4.921  0.5686  0.2529  0.1238
21960SOL    HW167887  10.356   1.433   4.953  0.7792  0.7173 -0.0130
21960SOL    HW267888  10.499   1.457   4.909  0.7214 -0.0091 -0.6154
21961SOL     OW67889   9.721   5.476  10.972  0.0448 -0.2703  0.7225
21961SOL    HW167890   9.649   5.470  11.034 -0.9298  1.0588 -0.2258
21961SOL    HW267891   9.717   5.395  10.921 -2.3583  0.8083 -0.9411
21962SOL     OW67892   3.451   5.162   4.919  0.0239 -0.1542  0.6796
21962SOL    HW167893   3.369   5.207   4.897 -1.3044 -1.8135  1.9460
21962SOL    HW267894   3.506   5.230   4.957 -1.5222  0.6643  1.5800
21963SOL     OW67895   6.036   8.561   1.219 -0.5352 -0.1592 -0.6438
21963SOL    HW167896   6.030   8.480   1.169 -4.0821  0.1711 -0.9961
21963SOL    HW267897   5.955   8.564   1.270  1.5175  1.0119  2.9400
21964SOL     OW67898   2.302   9.347   0.004  0.2341  0.1224 -0.6345
21964SOL    HW167899   2.321   9.423  -0.052  0.1797 -0.8052 -1.9582
21964SOL    HW267900   2.261   9.385   0.082 -0.9750  1.3807 -1.8149
21965SOL     OW67901   1.375   7.355   6.495 -0.1177 -0.1756  0.1660
21965SOL    HW167902   1.410   7.310   6.418 -0.9374 -0.1120 -0.2567
21965SOL    HW267903   1.308   7.413   6.460 -2.0670 -1.7406  1.1432
21966SOL     OW67904   5.927  10.206   4.753  0.4276 -0.1030 -0.8106
21966SOL    HW167905   5.951  10.150   4.680 -0.3885 -0.1017 -1.0921
21966SOL    HW267906   5.960  10.293   4.730  1.1736 -0.3340 -0.6452
21967SOL     OW67907  10.372   2.120   6.985  0.7182  0.2851 -0.5112
21967SOL    HW167908  10.459   2.133   7.024  1.5455 -0.7238 -1.8919
21967SOL    HW267909  10.391   2.093   6.895 -1.0951  2.7496 -1.7400
21968SOL     OW67910   9.814   4.284  10.333 -0.0370  0.6978 -0.3248
21968SOL    HW167911   9.853   4.238  10.258 -3.0637 -1.2569 -0.8827
21968SOL    HW267912   9.887   4.298  10.393  1.6873 -2.0318 -1.5630
21969SOL     OW67913   9.034   2.317   5.558  0.4142  0.6407 -0.1274
21969SOL    HW167914   8.963   2.297   5.498  1.6719  0.4638 -1.6122
21969SOL    HW267915   9.022   2.254   5.630 -0.6243  0.2785 -0.5918
21970SOL     OW67916   0.414   6.829   7.334  0.6753 -0.0858  0.2516
21970SOL    HW167917   0.341   6.773   7.308 -0.0731  1.3049 -0.7187
21970SOL    HW267918   0.485   6.804   7.275  0.9145 -1.1953  0.9699
21971SOL     OW67919   2.778   9.401   6.772 -0.3746 -0.2086 -0.4488
21971SOL    HW167920   2.707   9.448   6.728 -0.6985 -1.2715 -1.0990
21971SOL    HW267921   2.792   9.450   6.853  0.3151  1.8762 -1.7372
21972SOL     OW67922   3.783   9.729   3.893  0.4672  0.0629  0.4634
21972SOL    HW167923   3.713   9.770   3.944  0.3583 -0.2037  0.5305
21972SOL    HW267924   3.842   9.692   3.959 -0.1883 -1.1481  0.4016
21973SOL     OW67925   3.286   4.466   1.230 -0.0536 -0.9094 -0.0359
21973SOL    HW167926   3.242   4.544   1.265 -2.2607 -1.1326 -2.0907
21973SOL    HW267927   3.336   4.432   1.305 -0.5492  1.3742  1.4481
21974SOL     OW67928   0.176   7.448   7.922 -0.4453 -0.0347 -0.3257
21974SOL    HW167929   0.188   7.542   7.912 -2.6450  0.2875 -0.3843
21974SOL    HW267930   0.205   7.429   8.012  1.6412  0.3355 -0.8661
21975SOL     OW67931   6.216  10.860   5.654  0.3464  1.0999  0.3353
21975SOL    HW167932   6.303  10.872   5.615  0.5123  0.6395  0.5582
21975SOL    HW267933   6.157  10.859   5.579  0.6276  0.5693  0.1131
21976SOL     OW67934   9.400   3.312  10.534  0.4179 -0.1306  0.2772
21976SOL    HW167935   9.449   3.338  10.612  0.2364 -1.9608  1.0777
21976SOL    HW267936   9.455   3.246  10.492  0.1213  0.2120 -0.6813
21977SOL     OW67937   1.566   5.522   1.110  0.2021  0.5035  0.6687
21977SOL    HW167938   1.597   5.461   1.044  2.0172  0.7750  1.2153
21977SOL    HW267939   1.536   5.598   1.061  1.3771  0.6319  0.1089
21978SOL     OW67940   7.479   4.824  10.785  0.1903 -0.5269  0.0361
21978SOL    HW167941   7.515   4.834  10.873 -1.7228 -0.6826  0.8925
21978SOL    HW267942   7.459   4.731  10.778 -1.1782 -0.2588  0.0988
21979SOL     OW67943   9.963   7.931   7.688 -0.0985  0.0831 -0.7780
21979SOL    HW167944   9.989   7.840   7.681  0.7699  0.3060 -0.5627
21979SOL    HW267945  10.043   7.977   7.715 -0.9707  0.6429  1.0044
21980SOL     OW67946   0.562   1.474   2.064 -0.3517  0.1280  0.4609
21980SOL    HW167947   0.620   1.470   2.140 -0.1183 -0.6805  0.2472
21980SOL    HW267948   0.594   1.406   2.005 -2.6353 -1.6358  1.1353
21981SOL     OW67949  10.499   1.660   0.394 -0.0014 -0.3495  0.0043
21981SOL    HW167950  10.463   1.748   0.384  0.9920  0.0200 -0.4408
21981SOL    HW267951  10.501   1.645   0.489  1.1573  0.6867  0.1623
21982SOL     OW67952   2.028   0.712   4.752 -0.4821 -0.7325  0.0227
21982SOL    HW167953   2.043   0.674   4.666 -1.4586  1.7669 -1.3661
21982SOL    HW267954   2.105   0.767   4.767 -0.6556 -0.5869  0.3951
21983SOL     OW67955   3.752   4.947   1.410 -0.1326  0.7630 -0.3487
21983SOL    HW167956   3.733   4.923   1.501 -0.1548 -0.2443 -0.6041
21983SOL    HW267957   3.682   5.008   1.387 -0.2995  0.7974  0.2154
21984SOL     OW67958   3.966   4.607  10.794 -0.2164  0.0349 -0.2215
21984SOL    HW167959   4.022   4.539  10.757 -1.1056 -0.1839 -1.2149
21984SOL    HW267960   3.931   4.653  10.718 -2.1855 -0.4949  0.3088
21985SOL     OW67961   3.190   1.867   6.258 -0.1056  0.2860  0.7857
21985SOL    HW167962   3.099   1.874   6.287 -0.3076 -0.6658  0.4266
21985SOL    HW267963   3.235   1.823   6.330 -0.2744 -0.6550  0.3340
21986SOL     OW67964   4.723   4.652   4.591  0.4586  0.5004 -0.1567
21986SOL    HW167965   4.685   4.578   4.543  0.4201  0.8852 -0.7260
21986SOL    HW267966   4.756   4.710   4.523  1.9624  0.2488  0.3103
21987SOL     OW67967   3.176   0.960   9.295 -0.0006 -0.3526 -0.0917
21987SOL    HW167968   3.097   1.009   9.319  0.7295  0.8862 -0.0835
21987SOL    HW267969   3.246   1.026   9.298  0.4092 -0.3074 -4.4109
21988SOL     OW67970  10.205   4.139   1.797 -0.1116 -0.0885  0.7506
21988SOL    HW167971  10.154   4.113   1.720  1.9319 -2.2494 -0.0194
21988SOL    HW267972  10.201   4.234   1.797 -0.5089 -0.0224 -1.8301
21989SOL     OW67973   7.601   0.859   2.276  0.0849 -0.2971  0.0742
21989SOL    HW167974   7.652   0.921   2.223  1.3765 -0.0530  1.5339
21989SOL    HW267975   7.510   0.885   2.263  0.5647  1.5063  0.1492
21990SOL     OW67976   2.182  10.393   3.696  0.1030  0.4189 -0.0931
21990SOL    HW167977   2.263  10.346   3.714  0.0998 -0.8101 -2.8137
21990SOL    HW267978   2.115  10.345   3.745  0.6358 -0.2265  0.0137
21991SOL     OW67979   8.630  10.202   4.546 -0.0463 -0.0792  0.2422
21991SOL    HW167980   8.702  10.176   4.489  0.2344 -0.1387  0.6177
21991SOL    HW267981   8.553  10.160   4.507 -0.2001  1.4734 -1.2060
21992SOL     OW67982   6.166   5.733  10.796  0.7897 -0.4008  0.7824
21992SOL    HW167983   6.216   5.670  10.848 -0.1913 -1.0636  0.9690
21992SOL    HW267984   6.162   5.693  10.709 -0.2032 -0.8369  1.0108
21993SOL     OW67985   8.691   5.896   5.924  0.3019  0.1540 -0.1031
21993SOL    HW167986   8.747   5.858   5.991  0.0368  0.3342  0.2241
21993SOL    HW267987   8.607   5.851   5.935  0.3215  0.0276 -0.4576
21994SOL     OW67988   7.240  10.583   8.079  0.5893  0.7416 -0.2853
21994SOL    HW167989   7.273  10.553   8.163 -0.6888 -2.9795 -0.9237
21994SOL    HW267990   7.148  10.555   8.077  0.0236  2.4638 -2.1545
21995SOL     OW67991   9.712   2.109  10.867  0.6330  0.6734  0.1255
21995SOL    HW167992   9.664   2.037  10.827  0.6669 -0.2701  1.7113
21995SOL    HW267993   9.736   2.166  10.794  0.2296 -0.6977 -1.1057
21996SOL     OW67994   7.538   7.626   8.601 -0.1759  0.5117 -0.1748
21996SOL    HW167995   7.469   7.689   8.581  1.4334  2.2210 -0.5685
21996SOL    HW267996   7.616   7.661   8.558  0.8496 -1.6194 -0.1630
21997SOL     OW67997   3.639   4.683   9.486  0.6021  0.2291 -0.0826
21997SOL    HW167998   3.724   4.700   9.445 -0.5645  0.4737 -2.5907
21997SOL    HW267999   3.650   4.600   9.532  2.0199 -0.0924 -0.9523
21998SOL     OW68000   0.397   1.582   8.408 -0.0299 -0.1542 -1.0218
21998SOL    HW168001   0.449   1.662   8.405 -1.9172  1.1055 -1.9995
21998SOL    HW268002   0.306   1.612   8.407 -0.8014 -2.2876 -0.3448
21999SOL     OW68003   3.162   0.109   4.129  0.3233  0.0330  0.5456
21999SOL    HW168004   3.161   0.203   4.114  0.8348  0.2815  1.8757
21999SOL    HW268005   3.224   0.075   4.065 -0.2272  0.5218 -0.2671
22000SOL     OW68006   6.312   8.840   2.751  0.1376  0.0467 -0.7733
22000SOL    HW168007   6.374   8.881   2.812 -0.5807  1.2472 -0.8309
22000SOL    HW268008   6.316   8.747   2.773  0.1425  0.4054  0.8916
22001SOL     OW68009   5.380   8.429   0.014 -0.0568  0.3040 -0.0984
22001SOL    HW168010   5.362   8.343   0.051  0.4119  0.2639  0.0529
22001SOL    HW268011   5.338   8.490   0.075  0.9783  0.2546  0.7096
22002SOL     OW68012   9.933   7.352   1.381  0.0735 -0.1105  0.1841
22002SOL    HW168013   9.892   7.407   1.447  2.1442 -1.4571  2.7921
22002SOL    HW268014   9.873   7.279   1.368 -0.9479  0.8186 -0.4827
22003SOL     OW68015   1.699  10.297   3.108 -0.4612  0.3683  0.2458
22003SOL    HW168016   1.771  10.335   3.158  0.6181 -0.5268 -0.5855
22003SOL    HW268017   1.692  10.351   3.030  0.8745 -0.8759 -0.7901
22004SOL     OW68018   1.408   7.189   0.886  0.2402 -0.3510  0.0091
22004SOL    HW168019   1.417   7.131   0.810 -0.9962  1.4144 -1.6017
22004SOL    HW268020   1.408   7.130   0.961 -1.3933 -2.4991 -1.5297
22005SOL     OW68021   3.795   4.899   6.636  0.1106 -0.4330  0.2425
22005SOL    HW168022   3.889   4.889   6.620  0.0939  0.7336 -0.7203
22005SOL    HW268023   3.757   4.910   6.549 -0.8076 -0.0624  0.6783
22006SOL     OW68024   4.339   4.015  10.667 -0.0724 -1.0089 -0.5674
22006SOL    HW168025   4.392   3.959  10.610  1.6271  0.5943 -0.6708
22006SOL    HW268026   4.250   4.010  10.631  0.3166 -2.5291 -1.3877
22007SOL     OW68027   3.099   2.603   5.186  0.2226 -0.0307  0.1019
22007SOL    HW168028   3.083   2.641   5.273 -0.5053  0.2492 -0.1466
22007SOL    HW268029   3.194   2.603   5.178  0.2681  0.9967  0.4464
22008SOL     OW68030   5.885   8.146   7.917 -0.1842 -0.0576  0.4321
22008SOL    HW168031   5.902   8.083   7.847  0.8648  0.6758 -0.0096
22008SOL    HW268032   5.805   8.192   7.889 -1.5050 -1.7676  1.2153
22009SOL     OW68033   9.390   2.586   8.406 -0.6129  0.2957  0.1037
22009SOL    HW168034   9.399   2.647   8.333  1.5603  1.2551  1.0672
22009SOL    HW268035   9.446   2.623   8.475 -0.4418 -1.9714  1.2807
22010SOL     OW68036   8.223   7.125   3.297 -0.5962  0.7192  0.1321
22010SOL    HW168037   8.200   7.209   3.256 -0.8561  1.1084  1.0439
22010SOL    HW268038   8.311   7.106   3.264 -0.7048  1.1267 -0.4218
22011SOL     OW68039  10.487   6.107   1.552 -0.1319  0.4830  0.1867
22011SOL    HW168040  10.420   6.039   1.541 -0.8628  1.3860 -1.3063
22011SOL    HW268041  10.464   6.173   1.487  2.7994  0.3988 -1.0755
22012SOL     OW68042  10.896   9.637   6.051  0.3720 -0.2240 -0.2114
22012SOL    HW168043  10.920   9.548   6.076  0.8742 -0.2321 -0.7051
22012SOL    HW268044  10.964   9.692   6.089  0.2777 -0.0884 -0.2376
22013SOL     OW68045   1.794   4.235   6.702 -0.4961 -0.2960 -0.4342
22013SOL    HW168046   1.837   4.308   6.657  0.1759 -1.2638 -1.4125
22013SOL    HW268047   1.819   4.246   6.794 -2.1485  1.8860 -0.1568
22014SOL     OW68048   0.640   0.643   3.416 -0.1167 -0.1171 -0.0338
22014SOL    HW168049   0.648   0.559   3.370 -0.3334  0.5154 -1.2599
22014SOL    HW268050   0.655   0.709   3.348  1.7503  0.8543  1.2194
22015SOL     OW68051   4.286   8.119  10.429 -0.4621  1.0334  0.3111
22015SOL    HW168052   4.248   8.114  10.516  0.6276  0.5867  0.7757
22015SOL    HW268053   4.279   8.211  10.405 -0.4986  1.2154  1.0002
22016SOL     OW68054   7.859   5.679   3.306  0.0758 -0.1917  0.3507
22016SOL    HW168055   7.806   5.720   3.238  1.3443 -0.7379 -1.0304
22016SOL    HW268056   7.943   5.726   3.302 -0.2276  0.6589  2.4795
22017SOL     OW68057   2.994  10.754   8.053  0.2144 -0.3885 -0.4403
22017SOL    HW168058   3.006  10.705   8.135  3.3346 -0.0832 -0.6022
22017SOL    HW268059   3.028  10.695   7.985 -1.0291 -0.0813 -1.3621
22018SOL     OW68060   1.268   1.924   4.782 -0.3211 -0.2407  1.3182
22018SOL    HW168061   1.318   1.885   4.854  1.4174 -1.8867 -0.6445
22018SOL    HW268062   1.222   1.850   4.742  1.9952 -0.2327 -1.7040
22019SOL     OW68063   9.670  10.438   6.978 -0.0089  0.1475  0.2109
22019SOL    HW168064   9.677  10.520   7.026 -2.8379  1.0973 -0.7956
22019SOL    HW268065   9.584  10.441   6.936  0.4118 -2.6582 -1.1544
22020SOL     OW68066   2.091   5.114   1.125  0.3237 -0.2272  0.1194
22020SOL    HW168067   2.089   5.118   1.220 -0.0249 -1.3662  0.1701
22020SOL    HW268068   2.012   5.160   1.097 -0.3169 -1.0896  0.4448
22021SOL     OW68069   9.108   9.752   2.304 -0.0127  0.3220 -0.1156
22021SOL    HW168070   9.177   9.686   2.300 -0.7528 -0.4842 -3.7496
22021SOL    HW268071   9.027   9.702   2.316 -0.2134  1.1346  2.5463
22022SOL     OW68072   3.312   1.419  10.477 -0.3726 -0.3761 -0.0440
22022SOL    HW168073   3.246   1.481  10.447 -1.3653 -1.3323  0.1176
22022SOL    HW268074   3.308   1.424  10.573  1.5644  1.3806  0.0276
22023SOL     OW68075   9.122   8.293   6.648  0.2274  0.6323 -0.2586
22023SOL    HW168076   9.026   8.293   6.647  0.2121  1.6860 -0.1467
22023SOL    HW268077   9.145   8.254   6.732 -0.0992  0.5206 -0.2182
22024SOL     OW68078   8.374   5.029   1.343  0.2689  0.2428 -0.1990
22024SOL    HW168079   8.309   4.975   1.387 -2.4580  0.8103 -3.2108
22024SOL    HW268080   8.332   5.114   1.332  2.7028  1.6180  0.2988
22025SOL     OW68081   2.214   2.901   7.045  0.7128  0.1315 -0.6241
22025SOL    HW168082   2.291   2.855   7.079  0.0843 -0.8938 -0.5509
22025SOL    HW268083   2.188   2.851   6.968 -2.0199 -1.7833  1.3624
22026SOL     OW68084   7.811   5.148   2.245 -0.2310  0.1145 -0.6456
22026SOL    HW168085   7.719   5.175   2.244 -0.5333 -0.8774 -1.3011
22026SOL    HW268086   7.808   5.052   2.251  0.7006 -0.0773 -2.4377
22027SOL     OW68087   1.112   2.116   9.104 -0.5175 -0.5475 -0.1455
22027SOL    HW168088   1.085   2.028   9.129  0.3038 -0.5490  0.7775
22027SOL    HW268089   1.131   2.160   9.186 -3.1028  1.2777 -0.4057
22028SOL     OW68090   3.272  10.544   1.947  0.3642 -0.4052 -0.8634
22028SOL    HW168091   3.327  10.468   1.967 -0.0655 -0.4044  0.4177
22028SOL    HW268092   3.189  10.525   1.991  0.4371  1.0335 -0.0524
22029SOL     OW68093   3.299   4.211   1.737  0.4421 -0.4185  0.0110
22029SOL    HW168094   3.319   4.175   1.824  0.1225 -1.2134 -0.2343
22029SOL    HW268095   3.384   4.215   1.693  0.8472  1.3544  0.8299
22030SOL     OW68096   0.220  10.943   1.530 -0.4157  0.1870  0.5021
22030SOL    HW168097   0.276  10.869   1.551  1.1213  1.0871 -0.2260
22030SOL    HW268098   0.131  10.907   1.529  0.2761 -1.6032  0.2352
22031SOL     OW68099   7.073   5.522   9.510  0.2396  0.1662 -0.1498
22031SOL    HW168100   7.060   5.594   9.572  1.3298 -0.4567  0.8645
22031SOL    HW268101   7.109   5.564   9.432 -1.7658  1.0534 -0.6700
22032SOL     OW68102   3.694   9.906  10.481 -0.1121  0.1398  0.0795
22032SOL    HW168103   3.766   9.856  10.442 -0.7604 -0.2466 -0.6319
22032SOL    HW268104   3.720   9.998  10.470 -0.4984  0.0656 -1.7209
22033SOL     OW68105   1.862   2.803   3.133  0.0725 -0.0233  0.3218
22033SOL    HW168106   1.814   2.723   3.112 -0.4266  0.5553 -0.8490
22033SOL    HW268107   1.897   2.832   3.049 -2.8561  2.9857 -0.0383
22034SOL     OW68108   3.915   0.138   3.888  0.3856 -0.0472  0.4649
22034SOL    HW168109   3.855   0.071   3.919  1.4115 -0.6916  1.1249
22034SOL    HW268110   3.904   0.138   3.793  0.7884 -1.5828  0.3983
22035SOL     OW68111  10.056   9.794  10.596  0.2323 -0.0473 -0.2402
22035SOL    HW168112  10.092   9.870  10.642  1.6230 -1.4668  1.1370
22035SOL    HW268113   9.986   9.830  10.541 -0.6642  1.9201  2.0103
22036SOL     OW68114   1.653   1.375  10.599  0.1823 -0.4567 -0.0723
22036SOL    HW168115   1.734   1.381  10.651 -0.0289 -0.5221  0.2654
22036SOL    HW268116   1.677   1.414  10.515  0.2439  0.5857  0.4048
22037SOL     OW68117   6.615  10.205   1.335 -0.2521  0.0534 -0.6597
22037SOL    HW168118   6.700  10.177   1.301 -0.0639  0.5076 -0.5793
22037SOL    HW268119   6.621  10.191   1.430 -0.3818 -0.2063 -0.6900
22038SOL     OW68120  10.833   2.467   3.463 -0.6873  0.6962 -0.1891
22038SOL    HW168121  10.744   2.431   3.455 -0.4162 -0.0645  0.1706
22038SOL    HW268122  10.869   2.458   3.375 -0.8037  0.5702 -0.2257
22039SOL     OW68123   6.783  10.707   1.510 -0.1472  0.2626 -0.5403
22039SOL    HW168124   6.757  10.648   1.582 -1.1773  0.6201 -0.5954
22039SOL    HW268125   6.707  10.707   1.452 -0.0184  1.3675 -0.7252
22040SOL     OW68126   0.153   0.876   9.483  0.3575 -0.3399  0.4241
22040SOL    HW168127   0.218   0.906   9.546  0.3043 -0.7722  0.6892
22040SOL    HW268128   0.163   0.935   9.409  0.3303  0.2624  0.8889
22041SOL     OW68129   6.574   0.185   0.260 -0.1201  0.0034 -0.4037
22041SOL    HW168130   6.593   0.188   0.166  0.9774  2.3859 -0.1911
22041SOL    HW268131   6.659   0.176   0.302 -0.3311  1.2504  0.3690
22042SOL     OW68132   0.408   1.699   2.984  0.2072 -0.3073  0.0268
22042SOL    HW168133   0.341   1.634   2.962 -0.4336  0.5538 -0.6499
22042SOL    HW268134   0.374   1.781   2.948  1.7782  0.0856 -0.6318
22043SOL     OW68135   9.237   8.292   4.456 -0.1280  0.1644  0.4488
22043SOL    HW168136   9.205   8.307   4.367  1.4197 -2.8162 -0.7125
22043SOL    HW268137   9.182   8.222   4.490 -0.3423  0.9016  1.7083
22044SOL     OW68138   9.068   8.082   1.150 -0.1448  0.3614 -0.0420
22044SOL    HW168139   9.155   8.100   1.186  0.9940  1.3245 -2.9930
22044SOL    HW268140   9.025   8.167   1.147 -0.6833  0.1027  0.1243
22045SOL     OW68141   8.115  10.718   5.761 -0.7360  0.5788 -0.2052
22045SOL    HW168142   8.199  10.676   5.742 -0.9642 -0.1782  0.4123
22045SOL    HW268143   8.104  10.781   5.690 -0.0594  0.0742 -0.7803
22046SOL     OW68144   0.883   7.003   5.702 -0.2520 -0.4050  0.0184
22046SOL    HW168145   0.905   7.048   5.621  0.1439 -0.3577  0.1480
22046SOL    HW268146   0.923   6.916   5.693  0.8151 -0.0121  0.6324
22047SOL     OW68147   8.435   7.530   6.262 -0.4209 -0.7280 -0.4204
22047SOL    HW168148   8.455   7.599   6.325 -1.9295 -0.6982  0.0607
22047SOL    HW268149   8.517   7.481   6.254 -0.1467 -0.6686  1.4855
22048SOL     OW68150   8.339   8.897   2.167 -0.1794  0.1309 -0.4527
22048SOL    HW168151   8.261   8.872   2.216 -0.0360  0.6645  0.0715
22048SOL    HW268152   8.338   8.993   2.168  0.1598  0.1466 -0.9639
22049SOL     OW68153   9.421  10.374   3.821  0.3326  0.0898  0.3759
22049SOL    HW168154   9.444  10.466   3.815 -0.9659  0.5712  1.9294
22049SOL    HW268155   9.490  10.335   3.874  0.1141  0.4924  0.9616
22050SOL     OW68156   0.007   3.964   4.436  0.0001 -0.7608  0.6659
22050SOL    HW168157   0.087   3.934   4.393  0.4954 -1.1682  1.8346
22050SOL    HW268158  -0.048   3.886   4.441  0.0885 -0.7958  1.0891
22051SOL     OW68159   8.780   9.267  10.838  0.8069 -0.0120 -0.0059
22051SOL    HW168160   8.830   9.186  10.854  1.1524  0.3166  0.5800
22051SOL    HW268161   8.691   9.236  10.821  0.4010 -0.4057  2.4966
22052SOL     OW68162   9.969   9.126   0.335 -1.0722  0.1715 -0.3251
22052SOL    HW168163  10.011   9.076   0.265 -0.6780  1.7324 -1.2425
22052SOL    HW268164   9.931   9.059   0.392 -0.0802 -1.1875 -1.1863
22053SOL     OW68165   7.057   8.430   7.911  0.7958 -0.4341 -0.0861
22053SOL    HW168166   6.975   8.440   7.862  1.7409  2.5679 -1.2815
22053SOL    HW268167   7.038   8.362   7.976 -2.0041 -1.2162 -1.5616
22054SOL     OW68168  10.079   3.354   1.131  0.1148  0.3981  0.1690
22054SOL    HW168169  10.101   3.447   1.120 -0.6808  0.5268 -0.3413
22054SOL    HW268170  10.083   3.340   1.226 -2.2967  1.6116  0.5303
22055SOL     OW68171   4.102   4.600   5.199 -0.0349  0.5460 -0.2736
22055SOL    HW168172   4.017   4.582   5.238 -0.7396  0.4985 -1.7797
22055SOL    HW268173   4.140   4.513   5.183  0.8783  0.5610  1.5291
22056SOL     OW68174   2.952   1.095   8.238 -0.0258 -0.8628 -0.0792
22056SOL    HW168175   3.033   1.142   8.256  1.1366 -2.3073 -1.2951
22056SOL    HW268176   2.977   1.002   8.239 -2.3178 -1.5798  2.6774
22057SOL     OW68177   3.614   6.211   0.958 -0.0337  0.4714 -0.2615
22057SOL    HW168178   3.581   6.280   1.016  0.2484  0.5007 -0.1327
22057SOL    HW268179   3.688   6.252   0.913 -0.6077  0.6454 -1.0861
22058SOL     OW68180   2.398   6.101   3.853 -0.3984  0.6634  0.6487
22058SOL    HW168181   2.476   6.147   3.823  0.7651 -1.7582 -0.2420
22058SOL    HW268182   2.418   6.074   3.943 -0.3148  0.2992  0.5231
22059SOL     OW68183   1.722   4.190   0.808  0.0706 -0.2987 -0.3233
22059SOL    HW168184   1.755   4.214   0.895  0.2509  1.2404 -0.7830
22059SOL    HW268185   1.665   4.115   0.824 -0.5863  0.4895  1.2520
22060SOL     OW68186   8.163   9.383   3.056 -0.2923  0.0775 -0.4127
22060SOL    HW168187   8.129   9.314   2.999 -2.1942  0.8112 -0.2340
22060SOL    HW268188   8.249   9.351   3.084 -0.1362 -1.1522 -2.1523
22061SOL     OW68189  10.884   3.330   9.975  0.4745  0.4667  0.3470
22061SOL    HW168190  10.897   3.414   9.931 -0.5306  1.0718  1.1548
22061SOL    HW268191  10.804   3.342  10.026 -0.4819 -1.4549 -0.6141
22062SOL     OW68192   5.909   4.892   7.642 -0.2053  0.2856  0.0186
22062SOL    HW168193   5.950   4.830   7.582 -0.2476 -1.6236  1.8271
22062SOL    HW268194   5.977   4.913   7.705 -0.4731  1.3764 -0.0358
22063SOL     OW68195  10.502   4.296   3.643 -0.1571 -0.1999 -0.2995
22063SOL    HW168196  10.521   4.389   3.637  1.4882 -0.5306 -0.4270
22063SOL    HW268197  10.582   4.252   3.616 -0.5323 -1.6594  0.8118
22064SOL     OW68198   6.228   2.787   5.719 -0.1679  0.0094  0.2346
22064SOL    HW168199   6.307   2.832   5.690 -1.1480  1.5193 -0.1759
22064SOL    HW268200   6.169   2.856   5.748 -1.3615 -1.0786  0.5140
22065SOL     OW68201   8.251   0.993   3.793  0.0633 -0.1283  0.3245
22065SOL    HW168202   8.305   1.006   3.715  1.6657  0.0515  1.4147
22065SOL    HW268203   8.233   0.900   3.794  0.8076 -0.2841  0.1974
22066SOL     OW68204   4.785   8.312   9.188 -0.0897 -0.2639  0.3380
22066SOL    HW168205   4.838   8.255   9.243 -0.1955 -1.1598 -0.4679
22066SOL    HW268206   4.846   8.379   9.156  0.2627 -0.5325  0.4474
22067SOL     OW68207   3.015  10.819   9.063  0.3597 -0.2536  0.1521
22067SOL    HW168208   3.090  10.853   9.014  0.5067  0.1922  0.6729
22067SOL    HW268209   3.001  10.731   9.028  1.4843 -0.5578  0.4288
22068SOL     OW68210   2.958   9.719   0.204 -0.1279 -0.0455 -0.1093
22068SOL    HW168211   3.024   9.739   0.138  0.5552 -0.3790  0.4591
22068SOL    HW268212   2.992   9.760   0.284 -1.4862  1.3322 -0.1881
22069SOL     OW68213  10.976   2.124   8.836  0.4668  0.2397  0.2046
22069SOL    HW168214  10.954   2.139   8.744 -0.7266  0.6698  0.5558
22069SOL    HW268215  10.901   2.157   8.885  0.9245 -0.3356  1.3226
22070SOL     OW68216   9.696  10.304  10.931  0.3361  0.1980  0.1544
22070SOL    HW168217   9.691  10.263  11.017 -2.0086 -0.5243 -0.2423
22070SOL    HW268218   9.727  10.235  10.872  0.7740  0.3428  0.2105
22071SOL     OW68219   0.783   5.854   7.341 -0.1888  0.3056 -0.1745
22071SOL    HW168220   0.700   5.860   7.388 -0.3910  2.2390 -0.6905
22071SOL    HW268221   0.846   5.824   7.407 -0.8369  1.1144  0.8336
22072SOL     OW68222   5.218   9.180   1.533 -0.1555 -0.0206 -0.7513
22072SOL    HW168223   5.213   9.243   1.461  1.0288  2.2735  1.0217
22072SOL    HW268224   5.284   9.117   1.505  0.0229  0.6240 -1.8315
22073SOL     OW68225   3.193   4.768   4.360  0.1648  0.5329  0.3144
22073SOL    HW168226   3.159   4.739   4.445  2.1115 -1.3545  0.5368
22073SOL    HW268227   3.272   4.818   4.381  1.0073 -0.4582 -0.3414
22074SOL     OW68228   1.549   2.751   3.951 -0.1041  0.6350 -0.1504
22074SOL    HW168229   1.511   2.672   3.913 -0.5928  1.1746 -0.8210
22074SOL    HW268230   1.508   2.759   4.037  0.3845 -0.1501  0.1602
22075SOL     OW68231   6.818   4.604   2.538 -0.3257 -0.2359 -0.4209
22075SOL    HW168232   6.851   4.519   2.507 -1.0754 -1.2367  1.3442
22075SOL    HW268233   6.872   4.624   2.614 -1.4331 -0.1352  0.3594
22076SOL     OW68234   8.379   6.020   6.569 -0.3815 -0.3516 -0.3719
22076SOL    HW168235   8.301   6.046   6.619  0.5575  1.7295  0.0935
22076SOL    HW268236   8.408   5.939   6.611 -0.2879  0.7278  1.7372
22077SOL     OW68237   9.119  10.615   1.952 -0.1099 -0.2591 -0.1522
22077SOL    HW168238   9.205  10.655   1.963 -0.7921  1.3745 -0.5213
22077SOL    HW268239   9.126  10.567   1.869 -0.1876  1.7292 -1.3780
22078SOL     OW68240   0.762   7.208   2.879  0.2353 -0.5686 -0.3771
22078SOL    HW168241   0.806   7.124   2.874  0.6740 -0.2940 -1.5417
22078SOL    HW268242   0.686   7.200   2.821  0.3686 -0.1123 -0.6230
22079SOL     OW68243   4.897   2.874   3.300  0.6780 -0.2252  0.0217
22079SOL    HW168244   4.884   2.793   3.250 -0.7573 -0.0745  0.1104
22079SOL    HW268245   4.951   2.929   3.244 -1.1577  0.0676 -1.5637
22080SOL     OW68246   5.261   4.331   3.930  0.2905  0.1854 -0.0545
22080SOL    HW168247   5.291   4.321   3.840  1.0955  1.0309  0.1109
22080SOL    HW268248   5.326   4.387   3.972 -1.2386  1.6656  0.4547
22081SOL     OW68249   2.642   7.646   5.061  0.4256  0.3278  0.0727
22081SOL    HW168250   2.662   7.596   5.141 -0.2926  1.2941  0.8783
22081SOL    HW268251   2.624   7.579   4.995  2.8111 -0.5335  0.2106
22082SOL     OW68252   1.651   8.009   7.934  0.3641  0.1270  0.7629
22082SOL    HW168253   1.567   8.006   7.979  0.9511  2.1169  2.1820
22082SOL    HW268254   1.715   7.990   8.003  1.0997 -2.0233 -0.4329
22083SOL     OW68255   7.938   9.844   9.670  0.3116 -0.1908 -0.4014
22083SOL    HW168256   7.892   9.925   9.694  0.5497 -0.6386  1.8006
22083SOL    HW268257   7.870   9.777   9.669  0.5845 -0.5404  1.1695
22084SOL     OW68258   5.114   6.315   7.010 -0.6002  0.1570  0.0384
22084SOL    HW168259   5.144   6.387   7.065 -0.8641 -0.4147  0.9480
22084SOL    HW268260   5.146   6.236   7.054 -0.3903 -0.2955 -0.8998
22085SOL     OW68261   5.423   7.011   0.249 -0.3635 -0.1438  0.6581
22085SOL    HW168262   5.378   6.982   0.328 -0.9662 -1.6948 -0.2182
22085SOL    HW268263   5.510   6.971   0.255 -0.3357 -0.0867  0.6358
22086SOL     OW68264   1.087   4.323   4.961 -0.4529 -0.4114 -0.0873
22086SOL    HW168265   1.020   4.391   4.972 -1.0734 -1.1256  0.7451
22086SOL    HW268266   1.158   4.350   5.019  0.4393  0.8461 -1.6733
22087SOL     OW68267   7.093  10.539   8.834 -0.2041  0.2379  0.2817
22087SOL    HW168268   7.067  10.454   8.869 -0.3463  1.3179  3.0984
22087SOL    HW268269   7.120  10.589   8.911 -0.2932  2.8243 -1.2442
22088SOL     OW68270   5.789   2.806   5.379  0.2233  0.1026  0.2725
22088SOL    HW168271   5.744   2.873   5.328  1.9793  0.9392 -0.2486
22088SOL    HW268272   5.739   2.726   5.362 -0.0750  0.6429 -1.6306
22089SOL     OW68273   7.154   4.556   0.845 -0.7946 -0.2761  0.1858
22089SOL    HW168274   7.117   4.468   0.844 -2.1384  0.2606  0.2220
22089SOL    HW268275   7.189   4.569   0.757 -0.8621 -0.7265  0.0891
22090SOL     OW68276   8.267  10.662   2.181  0.0930 -0.6988 -0.4659
22090SOL    HW168277   8.240  10.721   2.252 -1.7782  1.0166 -2.4542
22090SOL    HW268278   8.335  10.711   2.134 -0.7778 -0.5057 -1.5562
22091SOL     OW68279   9.752   1.690   0.155  0.4880 -0.0190  0.4204
22091SOL    HW168280   9.690   1.624   0.185  0.8607 -0.3372  0.4956
22091SOL    HW268281   9.732   1.701   0.062  0.6280 -0.4643  0.3361
22092SOL     OW68282   0.671   2.658   0.295 -0.1638  0.5115 -0.1743
22092SOL    HW168283   0.628   2.574   0.307  1.4914 -0.2112  0.8779
22092SOL    HW268284   0.763   2.638   0.285  0.1667  2.1453 -0.8138
22093SOL     OW68285  10.856   0.018   2.652  0.4769 -0.5573  0.7381
22093SOL    HW168286  10.814   0.055   2.730 -0.7727 -0.4067  0.0302
22093SOL    HW268287  10.871   0.094   2.595  1.2912 -0.6786  0.7789
22094SOL     OW68288   6.227   9.207  10.418  0.3868  0.4529 -0.1140
22094SOL    HW168289   6.310   9.251  10.440  0.2890  1.3169 -1.3740
22094SOL    HW268290   6.160   9.273  10.435 -0.0847 -0.2787  0.9974
22095SOL     OW68291   3.691   5.134  10.142  0.4437  0.4480 -0.0392
22095SOL    HW168292   3.649   5.138  10.056  1.1827 -0.1760 -0.4439
22095SOL    HW268293   3.772   5.086  10.127  0.0333 -0.7077  1.2268
22096SOL     OW68294   4.537   0.321   6.870  0.6202 -0.1466 -0.1791
22096SOL    HW168295   4.548   0.279   6.785 -0.1641 -0.2171 -0.2504
22096SOL    HW268296   4.493   0.255   6.924  2.8801 -0.8712  0.9133
22097SOL     OW68297   5.929   6.575   7.568 -0.2073 -0.4395 -0.2317
22097SOL    HW168298   5.980   6.644   7.609  0.4742 -0.7272 -0.5728
22097SOL    HW268299   5.837   6.599   7.583  0.0303  0.1261  0.3164
22098SOL     OW68300   0.024   8.828   5.724 -0.2873  0.1545 -0.2290
22098SOL    HW168301   0.100   8.838   5.667  0.0198  0.2875  0.1973
22098SOL    HW268302  -0.050   8.819   5.664 -0.1844  1.8923 -0.6512
22099SOL     OW68303   6.371   3.217  10.598  0.6922  0.7874  0.1626
22099SOL    HW168304   6.407   3.130  10.582 -1.6549 -0.1387 -0.4392
22099SOL    HW268305   6.377   3.261  10.513 -1.4469 -0.1399 -0.5317
22100SOL     OW68306   8.339   1.061   5.762 -0.3499 -0.5679  0.1290
22100SOL    HW168307   8.405   1.004   5.721 -0.4061 -0.6296  0.1235
22100SOL    HW268308   8.320   1.127   5.695  0.9379  0.4621  0.7268
22101SOL     OW68309   4.990  10.471   3.204 -0.0852  0.5119 -0.1207
22101SOL    HW168310   4.992  10.539   3.272 -0.8909  1.4603 -0.9942
22101SOL    HW268311   4.967  10.519   3.125 -0.6605 -0.8032 -0.7675
22102SOL     OW68312   9.038   2.412   8.759 -0.2881 -0.1449  0.0356
22102SOL    HW168313   9.020   2.440   8.670  0.5859  0.2828 -0.0125
22102SOL    HW268314   9.071   2.490   8.804 -0.7558 -0.3428  0.7457
22103SOL     OW68315   5.663   2.840   8.455  0.3878  0.7607  0.3565
22103SOL    HW168316   5.716   2.771   8.413  1.6711  2.0609 -0.2368
22103SOL    HW268317   5.578   2.833   8.413  0.2141 -0.9763  0.8810
22104SOL     OW68318   7.345  10.004   1.156 -0.2017 -0.2238 -0.5059
22104SOL    HW168319   7.441  10.001   1.149 -0.2212 -0.7594 -0.6066
22104SOL    HW268320   7.315  10.004   1.065 -0.2880  0.3664 -0.4773
22105SOL     OW68321   3.687   1.455   2.923  0.6718  0.1312  0.1261
22105SOL    HW168322   3.748   1.422   2.989  0.9701  1.4995  0.5472
22105SOL    HW268323   3.742   1.475   2.847  0.7775  1.5090  0.5587
22106SOL     OW68324   2.113   7.950   1.460  0.0269  0.2977 -0.1505
22106SOL    HW168325   2.146   7.867   1.494 -2.7985 -0.2129  1.6822
22106SOL    HW268326   2.083   7.928   1.371  2.1891  0.2271 -0.9300
22107SOL     OW68327   3.598   3.118  10.328  0.1355 -0.7133  0.1243
22107SOL    HW168328   3.578   3.188  10.266  0.3110 -1.2344 -0.5411
22107SOL    HW268329   3.598   3.160  10.414  0.5738  0.1661 -0.2946
22108SOL     OW68330   6.021   6.140   3.809  0.2344  0.8810  0.2593
22108SOL    HW168331   6.007   6.129   3.715 -0.8282 -0.8219  0.5795
22108SOL    HW268332   6.028   6.051   3.843 -0.6358  1.4152  1.9654
22109SOL     OW68333   5.636   1.912   3.071  0.2303 -0.0390 -0.2785
22109SOL    HW168334   5.558   1.860   3.089  0.5453  0.2274  2.0963
22109SOL    HW268335   5.708   1.850   3.075  0.2955 -0.0437 -1.1787
22110SOL     OW68336   3.883   4.648   9.345 -0.2090  0.3074 -0.6300
22110SOL    HW168337   3.820   4.647   9.273 -0.1350  0.5448 -0.6982
22110SOL    HW268338   3.965   4.676   9.305  0.4308 -1.7991 -0.9324
22111SOL     OW68339   7.822   7.085   3.918  0.5245 -0.3108  0.1943
22111SOL    HW168340   7.887   7.023   3.883  2.1590 -0.6615  3.4877
22111SOL    HW268341   7.871   7.167   3.929 -0.7644  0.6712 -1.0581
22112SOL     OW68342   4.531   7.028   2.774  0.2884 -0.3034  1.0880
22112SOL    HW168343   4.498   7.024   2.864 -1.5274 -3.5387  0.4227
22112SOL    HW268344   4.498   6.949   2.732  1.8999  0.5688 -2.2044
22113SOL     OW68345   3.841  10.645   1.340 -0.2738 -0.2894  0.5086
22113SOL    HW168346   3.763  10.700   1.355 -0.5776 -0.7894  0.7806
22113SOL    HW268347   3.906  10.706   1.304 -1.5882 -0.3757 -2.1813
22114SOL     OW68348   5.496   9.702   7.549  0.4119 -0.4499 -0.1901
22114SOL    HW168349   5.439   9.690   7.473  0.3873 -1.6791 -0.0040
22114SOL    HW268350   5.578   9.659   7.524  1.2156  1.1074 -0.3736
22115SOL     OW68351  10.886   4.738  10.810  0.2123 -0.1738 -0.2948
22115SOL    HW168352  10.954   4.786  10.858  0.3855  0.0529 -0.7594
22115SOL    HW268353  10.804   4.769  10.848  0.3939 -1.2926  1.0565
22116SOL     OW68354   3.350   6.232   7.762  0.2545  0.2301  0.4922
22116SOL    HW168355   3.361   6.324   7.737 -0.2048  0.3270  0.6400
22116SOL    HW268356   3.321   6.188   7.683 -0.3065  0.3649  0.6198
22117SOL     OW68357   2.279   9.978   5.713  0.2258  0.3950 -0.1516
22117SOL    HW168358   2.312   9.965   5.624 -0.8716 -0.0925 -0.5074
22117SOL    HW268359   2.337  10.044   5.751  0.1605  1.2913 -1.5373
22118SOL     OW68360   9.521   9.204   2.905 -0.5166  0.0986 -0.4948
22118SOL    HW168361   9.567   9.244   2.980 -0.8330  0.6660 -0.5995
22118SOL    HW268362   9.587   9.202   2.835  0.1790 -1.6001  0.1535
22119SOL     OW68363   8.451   1.367   3.755 -0.6540 -0.0623  0.2911
22119SOL    HW168364   8.454   1.272   3.769 -0.1766 -0.2315 -0.8018
22119SOL    HW268365   8.512   1.403   3.819 -1.7412 -0.3693  1.5378
22120SOL     OW68366   1.232   4.226  10.282  0.1372 -0.0658 -0.0033
22120SOL    HW168367   1.167   4.177  10.233 -0.4156  0.0105  0.6331
22120SOL    HW268368   1.182   4.271  10.350  0.9936 -1.0644  1.3519
22121SOL     OW68369   3.517   2.440   6.270 -0.7275 -0.7771  0.1820
22121SOL    HW168370   3.474   2.516   6.230  1.2329  0.0813 -0.4146
22121SOL    HW268371   3.575   2.407   6.202 -2.1726 -3.4258  0.1232
22122SOL     OW68372   7.630   1.389   4.537  0.1540  0.2587  0.1029
22122SOL    HW168373   7.687   1.333   4.590  0.5541  0.0370 -0.5499
22122SOL    HW268374   7.690   1.455   4.500  0.0845 -0.2887 -1.0119
22123SOL     OW68375   4.711   6.845   2.508  0.3268  0.2466 -0.4182
22123SOL    HW168376   4.801   6.826   2.536  0.7270  0.2131 -1.6368
22123SOL    HW268377   4.657   6.818   2.582  1.2797 -0.3056  0.1099
22124SOL     OW68378   2.199   9.581   6.186 -0.3572 -0.0539 -0.1656
22124SOL    HW168379   2.106   9.602   6.173 -0.7812  0.3193  2.7868
22124SOL    HW268380   2.199   9.486   6.203 -0.3935  0.1266  0.9343
22125SOL     OW68381   4.229   1.572   1.988  0.5741 -0.7012  0.5091
22125SOL    HW168382   4.164   1.527   2.041  1.7109 -1.6892  1.1147
22125SOL    HW268383   4.274   1.630   2.050  0.1105  0.1649  0.0463
22126SOL     OW68384   6.827   7.287   8.302 -0.2783  0.1719 -0.5148
22126SOL    HW168385   6.843   7.291   8.208  0.2789 -0.9724 -0.4880
22126SOL    HW268386   6.841   7.195   8.325 -1.7398  0.1565  0.4635
22127SOL     OW68387   1.998  10.292   3.885  0.1556  0.3337 -0.3164
22127SOL    HW168388   2.063  10.298   3.954  1.5933  0.2768 -1.6094
22127SOL    HW268389   1.940  10.367   3.899  0.8978  0.7654  0.4719
22128SOL     OW68390   0.206   7.046   1.121  0.2230 -0.2604  0.1114
22128SOL    HW168391   0.188   7.091   1.039  0.7942 -1.5332 -0.7499
22128SOL    HW268392   0.259   6.971   1.096  0.5586 -0.5842  1.6771
22129SOL     OW68393   2.789   5.335   9.576  0.0343 -0.1009 -0.2141
22129SOL    HW168394   2.722   5.271   9.551  0.5487 -1.4645  1.6106
22129SOL    HW268395   2.789   5.332   9.672  0.4189  2.3499 -0.0894
22130SOL     OW68396   0.399   9.693   1.300 -0.4533 -0.2503  0.2343
22130SOL    HW168397   0.451   9.616   1.320  0.9204  0.4174 -0.6587
22130SOL    HW268398   0.382   9.687   1.206 -1.6998 -0.2533  0.4311
22131SOL     OW68399   6.644   8.543   2.018 -0.4813 -0.1610  0.3893
22131SOL    HW168400   6.568   8.514   1.969  0.8625 -0.6918 -1.5051
22131SOL    HW268401   6.640   8.639   2.013 -1.4084 -0.1584  0.9746
22132SOL     OW68402   5.915   3.845   1.941 -0.3939  0.0024  0.4381
22132SOL    HW168403   5.995   3.871   1.988 -0.5331 -1.3502  1.4817
22132SOL    HW268404   5.934   3.865   1.849  0.7703  0.6019  0.7876
22133SOL     OW68405   5.843   8.760   0.279  0.1015 -0.1694 -0.0381
22133SOL    HW168406   5.836   8.723   0.368 -2.5267 -0.3981 -0.2608
22133SOL    HW268407   5.906   8.832   0.288 -0.5947  0.2515  2.1931
22134SOL     OW68408   2.237   1.889   3.370  0.5213 -0.5411 -0.4130
22134SOL    HW168409   2.314   1.933   3.406  0.6691 -0.7533 -0.4717
22134SOL    HW268410   2.172   1.959   3.361  0.5947 -0.4256 -0.0483
22135SOL     OW68411  10.422   9.181   6.934 -0.1883 -0.0964  0.8397
22135SOL    HW168412  10.336   9.148   6.959 -0.0560 -1.2303 -0.1561
22135SOL    HW268413  10.422   9.179   6.839  0.0786  2.2037  0.7277
22136SOL     OW68414   5.080  10.511   6.545  0.4720 -0.6331  0.0450
22136SOL    HW168415   4.988  10.484   6.538 -0.6761  2.6951  0.4136
22136SOL    HW268416   5.116  10.459   6.616 -1.6311 -0.9211  0.9539
22137SOL     OW68417   1.339   1.359   3.431 -0.4531  0.1105 -0.2325
22137SOL    HW168418   1.395   1.282   3.421  1.3507  0.7359  3.3052
22137SOL    HW268419   1.370   1.420   3.365 -0.6834 -1.4901 -1.8835
22138SOL     OW68420  10.266   6.630   6.947  0.1555  0.1748 -0.7683
22138SOL    HW168421  10.275   6.725   6.950  1.2191  0.0861 -0.5290
22138SOL    HW268422  10.342   6.598   6.996 -0.8479 -0.7754  0.2231
22139SOL     OW68423   8.415   9.013   3.688  0.1327 -0.1289 -0.2367
22139SOL    HW168424   8.334   8.970   3.716 -0.4382  0.5659 -0.7679
22139SOL    HW268425   8.389   9.067   3.613  1.6637 -2.1531 -2.3532
22140SOL     OW68426   3.763  10.818   7.421 -0.3301  0.4310 -0.0611
22140SOL    HW168427   3.788  10.780   7.505  1.1666  0.2702 -0.5478
22140SOL    HW268428   3.667  10.821   7.423 -0.3000  1.9463  2.2886
22141SOL     OW68429  10.792   2.253   9.012 -0.0363 -0.3635  0.1902
22141SOL    HW168430  10.792   2.349   9.008  1.5166 -0.3677 -1.4032
22141SOL    HW268431  10.705   2.228   8.979 -0.4225  0.4853  0.5334
22142SOL     OW68432   1.883   8.053   6.603 -0.2767 -0.0892 -0.3614
22142SOL    HW168433   1.794   8.021   6.586 -0.2644 -0.2021 -0.2204
22142SOL    HW268434   1.873   8.119   6.671 -0.3034  0.2208 -0.6650
22143SOL     OW68435  10.068  10.018   3.232 -0.3219  0.6031 -0.1219
22143SOL    HW168436  10.024   9.977   3.306 -0.5106  0.4984 -0.2894
22143SOL    HW268437  10.083  10.109   3.259 -0.2565  0.5261  0.0999
22144SOL     OW68438   4.019   7.088   9.613  0.5748  0.2911 -0.0860
22144SOL    HW168439   4.063   7.054   9.691  1.5777  0.0765 -0.7198
22144SOL    HW268440   3.980   7.170   9.641 -0.8610 -0.7628  1.1722
22145SOL     OW68441   8.123   2.178   0.453 -0.1741  0.1412 -0.4837
22145SOL    HW168442   8.211   2.180   0.414 -0.2710  0.7304 -0.6711
22145SOL    HW268443   8.064   2.194   0.381 -0.3931  0.5507 -0.2161
22146SOL     OW68444   6.182   7.961   1.540 -0.2847 -0.1762 -0.4676
22146SOL    HW168445   6.115   7.893   1.543  0.7993 -1.2507  0.0687
22146SOL    HW268446   6.235   7.947   1.619  0.6306  0.5872 -0.9246
22147SOL     OW68447  10.183   0.617   6.192  0.2134 -0.2517  0.1814
22147SOL    HW168448  10.146   0.665   6.119  3.3369  0.9514 -0.7899
22147SOL    HW268449  10.165   0.525   6.172 -0.8919  0.1854 -0.9436
22148SOL     OW68450   9.465   5.964   5.882 -0.3812  0.0923  0.5537
22148SOL    HW168451   9.466   5.902   5.955  0.4154  1.7903  2.0689
22148SOL    HW268452   9.460   6.050   5.924  2.8299  1.3136 -1.2007
22149SOL     OW68453   6.930   8.864   9.242 -0.2890 -0.7162 -0.2110
22149SOL    HW168454   7.008   8.814   9.218 -0.1456 -0.1600 -0.9389
22149SOL    HW268455   6.957   8.916   9.317  1.0943  1.9076 -2.3507
22150SOL     OW68456   0.096   1.572   1.259 -0.1770 -0.0970 -0.0177
22150SOL    HW168457   0.083   1.490   1.308  0.2854  0.3434  0.8638
22150SOL    HW268458   0.008   1.608   1.249 -0.2391  0.0097  0.8609
22151SOL     OW68459   2.889   3.201   4.922  0.5725  0.3919 -0.1220
22151SOL    HW168460   2.954   3.137   4.953 -0.4198 -1.2176 -1.2044
22151SOL    HW268461   2.898   3.200   4.827  0.3368  1.6770 -0.1694
22152SOL     OW68462   3.234   9.420   3.623 -0.1605  0.2765 -0.0711
22152SOL    HW168463   3.151   9.424   3.576  0.9475  1.8551 -2.0480
22152SOL    HW268464   3.297   9.389   3.558  0.7390 -1.6938  1.5987
22153SOL     OW68465   5.817  10.784   7.352  0.2851 -0.5687  0.2131
22153SOL    HW168466   5.789  10.836   7.428 -0.6172  1.6075 -1.4893
22153SOL    HW268467   5.901  10.746   7.379  1.0591  1.8608  1.6055
22154SOL     OW68468   6.964   0.085   8.211 -0.0221 -0.7341 -0.2565
22154SOL    HW168469   7.027   0.101   8.140 -0.4178  2.9994  0.0488
22154SOL    HW268470   6.878   0.093   8.168 -0.2706  1.8968  0.5482
22155SOL     OW68471   1.071   1.723  10.125  0.1156 -0.2919  0.1416
22155SOL    HW168472   1.106   1.769  10.202  1.3281  1.0700 -1.1740
22155SOL    HW268473   1.035   1.642  10.161 -1.4056  1.2845  2.4507
22156SOL     OW68474   3.940   3.824   0.681 -0.2300  0.4411 -0.0287
22156SOL    HW168475   3.860   3.824   0.628 -0.9053 -1.1878  0.8859
22156SOL    HW268476   3.914   3.867   0.763 -0.3134 -0.4445  0.4237
22157SOL     OW68477   2.106   8.111   9.116  0.8196 -0.4677 -0.1404
22157SOL    HW168478   2.192   8.097   9.076  0.7080 -0.7020 -0.2986
22157SOL    HW268479   2.044   8.075   9.052  0.5429  0.5478 -0.4609
22158SOL     OW68480   1.806  10.518   3.245 -0.4732  0.0224 -0.2210
22158SOL    HW168481   1.811  10.612   3.257  0.6414 -0.1534  0.7657
22158SOL    HW268482   1.883  10.496   3.192 -1.0077 -0.2863 -0.9016
22159SOL     OW68483   9.909   7.737   0.700  0.2303  0.1254  0.2971
22159SOL    HW168484   9.897   7.749   0.606 -1.2859 -0.1594  0.4251
22159SOL    HW268485   9.966   7.810   0.727  1.2914 -0.2115 -0.9337
22160SOL     OW68486   4.889   0.173   2.215  0.1204 -0.4401  0.6143
22160SOL    HW168487   4.954   0.106   2.194 -1.3598 -2.2153  1.3671
22160SOL    HW268488   4.922   0.216   2.293  1.6943  0.6040 -0.5753
22161SOL     OW68489   8.827  10.015   8.379 -0.1876 -0.1370 -0.2803
22161SOL    HW168490   8.815   9.925   8.409  1.3646 -0.4483 -0.5000
22161SOL    HW268491   8.738  10.046   8.362 -0.8296 -1.2583  0.8114
22162SOL     OW68492   7.178   6.224   2.087 -0.1360 -0.2313 -0.7242
22162SOL    HW168493   7.269   6.242   2.111  0.2944 -0.6387 -2.0128
22162SOL    HW268494   7.183   6.152   2.024 -1.4700 -1.3271  0.3529
22163SOL     OW68495   6.027   5.127   7.482 -0.1544 -0.8095  0.2069
22163SOL    HW168496   6.067   5.071   7.549  0.0526 -1.5936 -0.5436
22163SOL    HW268497   5.953   5.169   7.526  0.2991 -0.8899  1.0671
22164SOL     OW68498  10.804   6.938   1.713  0.0283 -0.3157  0.4170
22164SOL    HW168499  10.734   6.976   1.659 -0.2814  0.9812  1.6619
22164SOL    HW268500  10.758   6.893   1.784  0.3653  1.8834  2.1435
22165SOL     OW68501   0.452  10.147  10.292  0.4136 -0.1077  0.4359
22165SOL    HW168502   0.519  10.079  10.291  1.4719  0.8522  1.6749
22165SOL    HW268503   0.427  10.158  10.201  2.4919 -0.0075 -0.1714
22166SOL     OW68504   7.882   0.585   8.388  0.6626 -0.1239  0.1081
22166SOL    HW168505   7.931   0.635   8.453 -1.5559 -0.8949  2.5165
22166SOL    HW268506   7.919   0.497   8.391  1.2621  0.0879 -0.5307
22167SOL     OW68507   1.737   0.011   6.425  0.0157 -0.6045 -0.8904
22167SOL    HW168508   1.675  -0.051   6.387  0.3036  0.1600 -2.6980
22167SOL    HW268509   1.820  -0.007   6.381  0.4295  0.1474 -0.4528
22168SOL     OW68510   4.635   2.426   5.608 -0.1315  0.8235 -0.2616
22168SOL    HW168511   4.649   2.397   5.698  2.4860  1.2450 -0.4522
22168SOL    HW268512   4.611   2.518   5.616 -3.2431  0.1228  0.0651
22169SOL     OW68513   3.866   6.070   4.558 -0.0544  0.5708 -0.3579
22169SOL    HW168514   3.938   6.036   4.504  2.0980  0.0557  2.6014
22169SOL    HW268515   3.797   6.005   4.549  0.7163 -0.1314 -1.4809
22170SOL     OW68516   1.351   1.280   4.486  0.3770 -0.6385  0.5659
22170SOL    HW168517   1.280   1.222   4.514  0.1036 -0.1663  0.8520
22170SOL    HW268518   1.335   1.295   4.393 -0.7528  0.6550  0.9406
22171SOL     OW68519   3.437  10.320   2.022  0.3262 -0.0994  0.0633
22171SOL    HW168520   3.460  10.339   2.113  0.3780  0.6805 -0.1037
22171SOL    HW268521   3.520  10.295   1.981  0.2625 -0.6813  0.2800
22172SOL     OW68522   9.239   6.842   8.512 -0.3598 -0.2354  0.0124
22172SOL    HW168523   9.153   6.805   8.530 -1.5962  1.6445 -1.6782
22172SOL    HW268524   9.260   6.894   8.590 -1.5209  0.5806 -0.1974
22173SOL     OW68525   9.002   2.580   0.546 -0.2329 -0.2021  0.2287
22173SOL    HW168526   9.064   2.594   0.475  0.0516  0.4002  0.5801
22173SOL    HW268527   9.011   2.658   0.601 -1.1931 -0.1759  0.3661
22174SOL     OW68528   9.711  10.849   7.329  0.2266 -0.2106  0.2387
22174SOL    HW168529   9.695  10.922   7.270  0.2662 -0.4388 -0.0561
22174SOL    HW268530   9.761  10.887   7.401 -0.1680  0.1526  0.3285
22175SOL     OW68531   4.731   9.520   8.229  0.4164 -0.2032  0.7130
22175SOL    HW168532   4.684   9.518   8.145  0.0652  1.8918  0.8080
22175SOL    HW268533   4.821   9.496   8.207  0.5811  1.3720 -0.4988
22176SOL     OW68534   3.253   6.329   2.758  0.2754 -0.0371  0.9041
22176SOL    HW168535   3.295   6.385   2.823  1.2167  0.1719  0.1419
22176SOL    HW268536   3.297   6.351   2.676 -3.5864  2.7323 -0.7301
22177SOL     OW68537   9.191   4.626   8.548 -0.0581  0.0303  0.6759
22177SOL    HW168538   9.106   4.669   8.550  1.2643  2.9621 -0.2324
22177SOL    HW268539   9.203   4.601   8.456  1.3758  2.8326 -0.0237
22178SOL     OW68540   9.304   6.163   9.204 -0.2979 -0.2453  0.3101
22178SOL    HW168541   9.297   6.197   9.115  0.7228  0.6685  0.5616
22178SOL    HW268542   9.271   6.074   9.198 -0.7246 -0.0245 -0.8771
22179SOL     OW68543   3.103   7.687   6.252  0.4584 -0.3956  0.6620
22179SOL    HW168544   3.181   7.721   6.208  0.0006 -0.2791 -0.0703
22179SOL    HW268545   3.122   7.698   6.345  2.7812 -3.4777  0.7279
22180SOL     OW68546   7.557   8.186   8.172 -0.5327 -0.0014 -0.1103
22180SOL    HW168547   7.534   8.191   8.265 -0.4058  1.4330 -0.1294
22180SOL    HW268548   7.572   8.093   8.156 -1.3566 -0.3727  1.1045
22181SOL     OW68549   6.523   9.922   3.340  0.0994 -0.7826 -0.1584
22181SOL    HW168550   6.442   9.953   3.299  0.5478 -1.1756 -1.4026
22181SOL    HW268551   6.593   9.960   3.287  0.7152 -1.0344  0.4587
22182SOL     OW68552   3.931   7.602   4.638  0.0525 -0.0635 -0.0877
22182SOL    HW168553   3.914   7.653   4.559  1.5332 -0.4435 -0.6805
22182SOL    HW268554   3.867   7.634   4.702  1.6731  3.4899  0.0023
22183SOL     OW68555   7.832   3.548   1.964 -0.3966  0.8500 -0.3904
22183SOL    HW168556   7.855   3.589   1.881  0.4112  2.8238  0.7358
22183SOL    HW268557   7.855   3.613   2.030 -0.8922 -0.7044  1.4046
22184SOL     OW68558   0.379   4.626  10.116 -0.1365 -0.3975 -0.3202
22184SOL    HW168559   0.352   4.542  10.152 -0.8343  0.1070  0.3726
22184SOL    HW268560   0.308   4.686  10.139  0.7261  0.5583 -0.0734
22185SOL     OW68561   1.392   7.555   4.159  0.1932  0.1209 -0.7020
22185SOL    HW168562   1.304   7.550   4.196  0.5686 -1.2575  0.0871
22185SOL    HW268563   1.448   7.510   4.222  1.4762  0.9344 -1.2052
22186SOL     OW68564   8.064   3.868   6.496  0.1540 -0.7067  0.1747
22186SOL    HW168565   8.047   3.843   6.405 -1.9315  0.5223  0.1686
22186SOL    HW268566   7.979   3.896   6.530  1.3762  1.6175  1.6128
22187SOL     OW68567   6.217   0.038   0.706 -0.2350 -0.1011 -0.1604
22187SOL    HW168568   6.246  -0.009   0.784  1.5970  0.6015 -0.3609
22187SOL    HW268569   6.256   0.125   0.716 -1.5081  0.5912 -0.9856
22188SOL     OW68570   2.390   0.979   1.011 -0.3666 -0.1527  0.6463
22188SOL    HW168571   2.342   0.896   1.013 -0.3073 -0.3069 -1.4656
22188SOL    HW268572   2.371   1.015   0.924  1.4643  0.9067  0.6344
22189SOL     OW68573   8.463   4.457   1.891  0.0833  0.4822  0.4688
22189SOL    HW168574   8.505   4.538   1.920  0.3593 -0.2705  2.3783
22189SOL    HW268575   8.394   4.441   1.957  0.4882 -1.1630  0.5506
22190SOL     OW68576   3.424   1.543   5.570 -0.0950 -0.4211 -0.2390
22190SOL    HW168577   3.431   1.638   5.582 -2.1384 -0.3286  0.5731
22190SOL    HW268578   3.414   1.531   5.476  1.3955  0.0394 -0.4855
22191SOL     OW68579   7.123   8.374   1.108  0.1376 -0.0913  0.5090
22191SOL    HW168580   7.188   8.369   1.037 -0.5346 -0.4857 -0.0955
22191SOL    HW268581   7.044   8.408   1.065 -0.4238 -0.7919  0.9592
22192SOL     OW68582   6.983   9.312   6.227 -0.0215  0.4432 -0.1516
22192SOL    HW168583   7.019   9.392   6.190  0.8095  0.0310 -0.2626
22192SOL    HW268584   6.914   9.341   6.286  1.1375  1.3235  0.8079
22193SOL     OW68585   7.541   6.668   6.763  0.6009 -0.0099 -0.1653
22193SOL    HW168586   7.478   6.600   6.740 -0.1510 -0.1224  2.0250
22193SOL    HW268587   7.614   6.622   6.803  0.3543  0.3926  0.7839
22194SOL     OW68588   5.563   7.801   4.341 -0.4609  0.1006 -0.0884
22194SOL    HW168589   5.601   7.879   4.382  0.1949 -0.1869 -0.1358
22194SOL    HW268590   5.512   7.761   4.411 -1.6819  1.1219 -0.3477
22195SOL     OW68591   8.177   3.839   2.564 -0.3813  0.1273 -0.1237
22195SOL    HW168592   8.168   3.889   2.483  0.1968 -0.0788 -0.3167
22195SOL    HW268593   8.263   3.796   2.557  0.0249  0.7366  0.9416
22196SOL     OW68594   5.205   7.893   3.833  0.1492  0.3307 -0.2647
22196SOL    HW168595   5.210   7.807   3.876  0.2665  0.6886  0.4589
22196SOL    HW268596   5.147   7.879   3.758  2.0354 -0.9597 -1.5804
22197SOL     OW68597   7.233   4.071   9.854 -0.2200  0.0153 -0.4099
22197SOL    HW168598   7.264   4.105   9.770 -1.8600  0.1359 -1.0024
22197SOL    HW268599   7.138   4.073   9.847 -0.4730  1.5512  2.0343
22198SOL     OW68600   0.546   8.039   8.196  0.4491  0.4430  0.1957
22198SOL    HW168601   0.569   7.947   8.210 -1.2282  0.0716  0.7524
22198SOL    HW268602   0.607   8.088   8.251 -0.1188 -0.4924  1.7267
22199SOL     OW68603   1.669   2.126  10.330  0.3818  0.5543  0.1930
22199SOL    HW168604   1.634   2.144  10.417 -1.1289 -0.3121 -0.1940
22199SOL    HW268605   1.602   2.159  10.270 -0.1044 -1.6282 -0.5692
22200SOL     OW68606   6.650   6.208   4.227 -0.1834 -0.4017  0.1666
22200SOL    HW168607   6.613   6.271   4.288 -0.5645 -0.6848  0.2296
22200SOL    HW268608   6.712   6.258   4.174 -1.1715  0.2288 -0.4181
22201SOL     OW68609   2.976   0.107   7.785  0.0957  0.0419  0.1984
22201SOL    HW168610   2.906   0.045   7.807  0.8387 -0.6877  0.5743
22201SOL    HW268611   2.977   0.169   7.858 -0.0849 -0.0126  0.2479
22202SOL     OW68612   4.442   0.318   7.169 -0.6087 -0.3029 -0.0590
22202SOL    HW168613   4.512   0.260   7.138  0.1318  0.2530  0.5115
22202SOL    HW268614   4.392   0.265   7.230 -0.2661 -0.5115  0.0438
22203SOL     OW68615   0.752   7.170   1.019 -0.7531 -0.1371  0.3877
22203SOL    HW168616   0.755   7.076   1.000 -3.6188 -0.3257  0.5496
22203SOL    HW268617   0.716   7.210   0.940  0.4828  0.8823  0.3011
22204SOL     OW68618   9.158   2.167   1.978  0.6068  0.5313 -0.2548
22204SOL    HW168619   9.249   2.182   1.951  0.3416  1.0130 -0.9300
22204SOL    HW268620   9.116   2.132   1.899  0.2672  0.0542  0.1348
22205SOL     OW68621   6.580   0.548   2.035  0.0189  0.4669  0.0154
22205SOL    HW168622   6.518   0.504   1.977  1.1020 -2.2113  0.7420
22205SOL    HW268623   6.603   0.629   1.989 -1.7551  0.1091 -1.6083
22206SOL     OW68624   0.429  10.251   2.301  0.3414 -0.1663 -0.1959
22206SOL    HW168625   0.357  10.307   2.333  0.3959  0.3019 -0.8850
22206SOL    HW268626   0.475  10.306   2.238  2.2355  0.0877  1.3162
22207SOL     OW68627   3.724   3.183   5.610 -0.2012  0.1414 -0.4210
22207SOL    HW168628   3.703   3.114   5.673 -0.0486 -0.4791 -1.0406
22207SOL    HW268629   3.639   3.210   5.576 -0.4298  1.5202  1.0916
22208SOL     OW68630   3.358   3.850   1.990 -0.4444 -0.0768 -0.1121
22208SOL    HW168631   3.412   3.926   2.013 -0.6486 -0.0643  0.3165
22208SOL    HW268632   3.417   3.775   2.001 -0.5020 -0.0583  0.3082
22209SOL     OW68633  10.811   0.556   8.321 -0.1150 -0.0724  0.0990
22209SOL    HW168634  10.737   0.510   8.282  0.2927 -0.2462 -0.4777
22209SOL    HW268635  10.816   0.638   8.273  0.1880 -0.1479 -0.0008
22210SOL     OW68636  10.055  11.008   3.378  0.2667 -0.6180 -0.3443
22210SOL    HW168637  10.136  11.039   3.338  0.5224 -1.8050 -0.7839
22210SOL    HW268638  10.003  11.087   3.392  1.0915  0.0473 -0.9755
22211SOL     OW68639  10.288   6.896   0.406 -0.5631  0.8242  0.2176
22211SOL    HW168640  10.333   6.895   0.322  0.8402  0.8155  0.9408
22211SOL    HW268641  10.339   6.837   0.461 -1.7481  0.4429  0.9527
22212SOL     OW68642   3.483   5.042   0.808 -0.0900 -0.2278  0.3079
22212SOL    HW168643   3.447   5.026   0.721 -0.1060  0.6494  0.1483
22212SOL    HW268644   3.437   4.979   0.864 -1.3054  0.3190 -0.0347
22213SOL     OW68645   5.717   6.327   2.515 -0.5283 -0.1124  0.2356
22213SOL    HW168646   5.804   6.288   2.505  0.4997  2.0888 -0.1045
22213SOL    HW268647   5.713   6.353   2.607 -0.6788  0.0770  0.1772
22214SOL     OW68648   6.045   8.383   9.134  0.1408  0.6788 -0.7175
22214SOL    HW168649   5.950   8.388   9.145 -0.0292 -0.9675 -1.2510
22214SOL    HW268650   6.076   8.471   9.157 -1.0978  0.2730  3.3678
22215SOL     OW68651   0.043   8.489   5.315 -0.7104  0.0262 -0.1124
22215SOL    HW168652  -0.031   8.538   5.278  0.6071  1.0886 -1.4685
22215SOL    HW268653   0.002   8.421   5.368 -2.6753  0.3456 -1.1050
22216SOL     OW68654   1.788   5.886   4.122 -0.2852 -0.6184  0.0871
22216SOL    HW168655   1.835   5.908   4.203  1.1996  1.4532 -1.2363
22216SOL    HW268656   1.819   5.950   4.058 -2.0501 -1.6482 -1.9294
22217SOL     OW68657   2.819   6.583   6.887 -0.2093  0.4089 -0.3347
22217SOL    HW168658   2.818   6.562   6.980  1.3030  0.5466 -0.2750
22217SOL    HW268659   2.780   6.505   6.845  2.1094 -1.1260  0.1723
22218SOL     OW68660  10.415  10.524  10.565  0.6987 -0.2267 -0.1706
22218SOL    HW168661  10.423  10.455  10.500 -0.0635  0.6654 -1.2636
22218SOL    HW268662  10.420  10.605  10.514 -2.4669  0.5115  0.4841
22219SOL     OW68663   2.629   4.404   8.813  0.1651  0.2803  0.3083
22219SOL    HW168664   2.538   4.377   8.818  1.2510 -4.1010  0.4264
22219SOL    HW268665   2.631   4.471   8.745 -3.1714  1.0895  0.8469
22220SOL     OW68666   3.499  10.544   0.246  0.9078 -0.4591  0.1963
22220SOL    HW168667   3.467  10.617   0.193  2.0374 -0.9554 -1.2586
22220SOL    HW268668   3.590  10.532   0.217  0.9491 -2.0189  0.8571
22221SOL     OW68669   0.435   6.574   8.946  0.1901  0.3478 -0.5299
22221SOL    HW168670   0.490   6.652   8.935  1.0133 -0.1985 -0.4056
22221SOL    HW268671   0.435   6.559   9.041 -0.3225  0.4457 -0.5144
22222SOL     OW68672  10.682   3.750   2.162  0.1218 -0.1005 -0.1378
22222SOL    HW168673  10.685   3.737   2.068  0.8425 -1.4361  0.0459
22222SOL    HW268674  10.771   3.775   2.186  0.1821 -0.6895  0.2899
22223SOL     OW68675   9.260   3.221   6.651 -0.2608 -0.0645 -0.1079
22223SOL    HW168676   9.300   3.143   6.613  1.4520  0.4438  0.5723
22223SOL    HW268677   9.177   3.190   6.688 -0.3260 -1.2425 -1.1606
22224SOL     OW68678   2.681   8.140   9.452  0.2725  0.6756  0.2222
22224SOL    HW168679   2.640   8.120   9.368  0.8296  0.7414 -0.0668
22224SOL    HW268680   2.731   8.220   9.436  2.2235 -0.5264 -0.0047
22225SOL     OW68681   1.014   9.589   9.418  0.1078  0.2903 -0.1177
22225SOL    HW168682   1.039   9.542   9.498 -0.6022  0.0269 -0.0494
22225SOL    HW268683   1.080   9.659   9.410 -0.0750  0.5952  0.9383
22226SOL     OW68684   9.981   4.473   8.313 -0.6773 -0.5430  0.0697
22226SOL    HW168685   9.986   4.509   8.225 -0.3486  0.1225  0.3512
22226SOL    HW268686   9.899   4.506   8.348 -0.8046 -0.8002  0.0146
22227SOL     OW68687   3.895   4.775   3.792 -0.2248  0.8281  0.4605
22227SOL    HW168688   3.804   4.780   3.821 -0.6217  2.8445 -0.8852
22227SOL    HW268689   3.909   4.683   3.771 -1.4326  0.2071  2.1884
22228SOL     OW68690   6.458   9.662   0.000  0.2409  0.4245  0.4403
22228SOL    HW168691   6.375   9.675  -0.045 -0.3908  0.6213  1.6060
22228SOL    HW268692   6.520   9.641  -0.069 -0.9222 -0.4107 -0.3923
22229SOL     OW68693   6.616   5.116   9.269 -0.1053 -0.1722  0.5388
22229SOL    HW168694   6.577   5.084   9.187 -0.7857  0.6730  0.5211
22229SOL    HW268695   6.688   5.172   9.241 -0.2750  0.0367  0.5195
22230SOL     OW68696   6.944   1.557   7.193  0.7886  0.6505  0.1916
22230SOL    HW168697   6.971   1.571   7.284  0.2812  2.8350  0.0621
22230SOL    HW268698   6.849   1.570   7.194  0.6631 -0.1096 -0.5301
22231SOL     OW68699   6.849   8.125  10.688  0.2379  0.7650 -0.4707
22231SOL    HW168700   6.816   8.155  10.773  2.3172  0.5532  0.4743
22231SOL    HW268701   6.772   8.088  10.645 -1.1864  2.1988  0.6946
22232SOL     OW68702   8.574   6.315   7.057 -0.7779  0.4926 -0.7745
22232SOL    HW168703   8.644   6.271   7.106 -2.1255  0.9705  1.7136
22232SOL    HW268704   8.544   6.250   6.994 -0.8795 -1.2112  0.9548
22233SOL     OW68705   7.349   3.213   2.513  0.1096  0.0532 -0.3144
22233SOL    HW168706   7.264   3.170   2.501 -0.7970  1.4292  0.8336
22233SOL    HW268707   7.332   3.305   2.494  0.8345  0.6934  1.8382
22234SOL     OW68708   0.077   4.674  11.037  0.2805 -0.3048 -0.1031
22234SOL    HW168709   0.018   4.674  11.113  1.5295 -1.0950  0.9087
22234SOL    HW268710   0.090   4.581  11.017  0.1077 -0.1057 -1.1869
22235SOL     OW68711   5.983  10.571   0.592 -0.3554 -0.0509  0.4813
22235SOL    HW168712   5.934  10.628   0.532 -0.2771 -0.2048  0.2667
22235SOL    HW268713   5.954  10.482   0.568 -1.2420 -0.0576  1.4843
22236SOL     OW68714   0.974   3.754   4.522  0.4415  0.1929 -0.2624
22236SOL    HW168715   0.912   3.792   4.459  0.9121 -0.8416 -1.3831
22236SOL    HW268716   1.049   3.814   4.520  0.4120  0.2199 -0.6049
22237SOL     OW68717  10.441   6.988   2.574  0.7751  0.1482  0.1735
22237SOL    HW168718  10.368   7.049   2.584  1.1918  0.6978 -0.0511
22237SOL    HW268719  10.515   7.032   2.615  0.8314 -0.7059  1.0271
22238SOL     OW68720   3.841   3.893   9.589  0.1928 -0.1166 -0.2107
22238SOL    HW168721   3.848   3.909   9.683  0.6651  2.7922 -0.6554
22238SOL    HW268722   3.792   3.967   9.555  1.5310 -0.1731 -2.4880
22239SOL     OW68723   1.698   8.025   9.692  0.1868 -0.2071  0.9320
22239SOL    HW168724   1.692   7.930   9.700 -1.0800 -0.1775  0.6660
22239SOL    HW268725   1.636   8.047   9.622  1.2026  0.7301  0.2875
22240SOL     OW68726   2.004   8.205   7.884  0.0310  0.0897  0.4936
22240SOL    HW168727   2.029   8.296   7.866  0.5399  0.0074  0.7358
22240SOL    HW268728   1.992   8.203   7.979 -1.1220  0.1703  0.3543
22241SOL     OW68729  10.212   6.993   4.282  0.8172 -0.3964  0.2524
22241SOL    HW168730  10.295   7.015   4.240  0.5330 -0.6051 -0.4369
22241SOL    HW268731  10.155   7.068   4.262  0.6340 -0.5678  0.1306
22242SOL     OW68732   7.396   0.687  10.117  0.5314  1.0290 -0.3282
22242SOL    HW168733   7.363   0.615  10.064 -0.9467  2.1144 -0.9280
22242SOL    HW268734   7.364   0.669  10.205 -2.9099  2.6809 -1.1028
22243SOL     OW68735   2.222   4.290   4.477  0.0790 -0.1627 -0.2607
22243SOL    HW168736   2.202   4.343   4.555 -0.3405 -0.0352 -0.4528
22243SOL    HW268737   2.310   4.318   4.452  0.3699 -0.4666  0.3821
22244SOL     OW68738   3.829   7.253  10.934  0.6473  0.3913  0.0894
22244SOL    HW168739   3.845   7.186  11.001 -1.1803  1.1923  1.4218
22244SOL    HW268740   3.827   7.335  10.983 -0.6127  1.0219 -0.9676
22245SOL     OW68741   1.642  10.010   6.161  0.2071  0.3027 -0.4885
22245SOL    HW168742   1.643  10.051   6.247  0.4462 -0.4302 -0.1295
22245SOL    HW268743   1.732  10.020   6.129 -0.3838  2.5725 -1.6568
22246SOL     OW68744  10.336   1.631   1.444 -0.0198  0.4656  0.3216
22246SOL    HW168745  10.317   1.545   1.407 -0.6474  0.6724  0.1401
22246SOL    HW268746  10.421   1.655   1.407 -0.1010  0.1662 -0.0700
22247SOL     OW68747  10.973   8.445   2.709 -0.1344  0.5585 -0.0967
22247SOL    HW168748  10.912   8.375   2.735 -1.3945  0.7635 -2.2576
22247SOL    HW268749  10.919   8.523   2.702  0.7661  1.1887 -0.2111
22248SOL     OW68750   4.207   5.179   3.169  0.0979  0.2315  0.0219
22248SOL    HW168751   4.241   5.094   3.144 -0.7135  0.0474 -0.4876
22248SOL    HW268752   4.143   5.201   3.102 -0.9414  0.4706  1.0439
22249SOL     OW68753   3.459   6.783  10.896 -0.3479 -0.5208 -0.2423
22249SOL    HW168754   3.477   6.839  10.821  0.6937 -0.2915  0.1647
22249SOL    HW268755   3.384   6.825  10.939 -0.3724 -0.1445 -0.6416
22250SOL     OW68756   1.109   0.035  10.810 -0.2928 -0.2233  0.0468
22250SOL    HW168757   1.155  -0.021  10.747 -4.2476 -0.9276 -2.6239
22250SOL    HW268758   1.083  -0.024  10.880  0.1767 -0.4948 -0.0042
22251SOL     OW68759   3.756   5.258   2.378  0.1584 -0.0546  0.6126
22251SOL    HW168760   3.778   5.306   2.298  0.8494  0.7391  1.2590
22251SOL    HW268761   3.687   5.197   2.351 -1.6807  2.1557  0.0026
22252SOL     OW68762   4.507   5.073   4.326 -0.0973  0.0593 -0.1935
22252SOL    HW168763   4.516   5.018   4.248  1.1882 -2.9904  1.8691
22252SOL    HW268764   4.422   5.049   4.362  0.3675 -0.4790  0.5918
22253SOL     OW68765   2.433   0.717   4.511 -0.3372  0.2285 -0.5386
22253SOL    HW168766   2.351   0.764   4.524  0.3785  1.5976 -0.7574
22253SOL    HW268767   2.410   0.646   4.451 -1.1553  1.2604 -1.4989
22254SOL     OW68768  10.328   6.927   9.741 -0.3211  0.2429 -0.2394
22254SOL    HW168769  10.410   6.975   9.727 -0.7441  0.8252 -0.7604
22254SOL    HW268770  10.337   6.849   9.687  1.5599 -1.7888  2.7126
22255SOL     OW68771   0.506   0.656   7.955 -0.3309 -0.5967 -0.1690
22255SOL    HW168772   0.458   0.729   7.916  1.0345 -0.8294 -2.4343
22255SOL    HW268773   0.591   0.657   7.912  0.2463 -2.6795  0.7840
22256SOL     OW68774   3.580   0.360   9.930  0.6735 -0.4621 -0.0532
22256SOL    HW168775   3.661   0.310   9.923 -0.9208 -3.3592  0.2361
22256SOL    HW268776   3.580   0.416   9.853  2.8051 -0.5709 -0.2006
22257SOL     OW68777   4.968   4.111   4.598  0.2019 -0.1974 -0.4929
22257SOL    HW168778   4.918   4.098   4.679  0.2954 -0.2671 -0.4465
22257SOL    HW268779   5.033   4.041   4.598 -0.3503 -0.7132 -1.0577
22258SOL     OW68780   3.145   2.088   9.102  0.0244  0.2041 -0.1479
22258SOL    HW168781   3.205   2.014   9.088  1.9378  1.0204  2.6510
22258SOL    HW268782   3.199   2.165   9.086 -1.0935  0.9806 -0.2323
22259SOL     OW68783   1.682   8.904   5.306  0.3306  0.3507  0.0573
22259SOL    HW168784   1.658   8.817   5.276  0.1253 -0.3343  2.0937
22259SOL    HW268785   1.767   8.893   5.349  0.7410  1.3446 -0.4506
22260SOL     OW68786   4.037   3.622   1.651 -0.2943  0.5235  0.7952
22260SOL    HW168787   4.003   3.553   1.708  0.3830 -1.6182 -1.2022
22260SOL    HW268788   3.979   3.621   1.575  1.0246  0.5745 -0.2487
22261SOL     OW68789   2.554   1.549   4.506 -0.1979 -0.7935  0.0784
22261SOL    HW168790   2.495   1.551   4.581  0.4508 -0.8257  0.5959
22261SOL    HW268791   2.572   1.456   4.493  2.0171 -0.6865  1.7654
22262SOL     OW68792   7.198   9.454   9.685  0.3465  0.1560 -0.0789
22262SOL    HW168793   7.156   9.531   9.647 -0.3222 -0.1396  0.0467
22262SOL    HW268794   7.221   9.482   9.774  1.3540  0.6457 -0.4763
22263SOL     OW68795   5.687   8.631   8.661 -0.0883 -0.1267  1.1107
22263SOL    HW168796   5.768   8.654   8.617 -0.5817  0.6325  0.5607
22263SOL    HW268797   5.692   8.675   8.746 -0.9688  2.0593  0.1137
22264SOL     OW68798   1.065   9.369  10.291  0.4590  0.2428 -0.9108
22264SOL    HW168799   1.073   9.333  10.203 -0.2678 -0.0681 -0.8551
22264SOL    HW268800   0.975   9.350  10.317  1.3315 -1.9853  0.8817
22265SOL     OW68801   5.355   1.772   0.186  0.1623 -0.1145  0.7855
22265SOL    HW168802   5.329   1.848   0.237 -0.2600  0.3298 -0.0741
22265SOL    HW268803   5.352   1.699   0.247  0.7736  0.5856  1.6728
22266SOL     OW68804   1.128   1.819   6.313  0.0589 -0.2683 -0.1237
22266SOL    HW168805   1.070   1.746   6.337 -0.5757  0.3902  0.3833
22266SOL    HW268806   1.068   1.889   6.289  0.5881  0.8809  1.7180
22267SOL     OW68807   2.375   2.007   2.319  0.5960  0.3391 -0.0572
22267SOL    HW168808   2.426   2.078   2.358  1.1323 -0.5843  0.9827
22267SOL    HW268809   2.436   1.963   2.260  1.7103 -1.8983  2.5383
22268SOL     OW68810   6.106   2.125   7.972 -0.2210 -0.1635 -0.9443
22268SOL    HW168811   6.117   2.101   8.064 -1.4211  0.9396 -0.4802
22268SOL    HW268812   6.121   2.220   7.970  0.3892 -0.2593 -2.0051
22269SOL     OW68813   4.282   6.860   7.613 -0.2845 -0.5630 -0.0537
22269SOL    HW168814   4.260   6.814   7.532 -0.1867 -0.7243  0.0097
22269SOL    HW268815   4.201   6.860   7.664 -0.3209 -0.5451 -0.1110
22270SOL     OW68816   9.009  10.624   8.034  0.3239 -0.1796 -0.1678
22270SOL    HW168817   9.023  10.551   8.095  1.4985 -0.5966 -0.9007
22270SOL    HW268818   9.093  10.634   7.988  0.4623  2.1888  0.4809
22271SOL     OW68819   8.763   7.487   6.479  0.0843 -0.0004  0.5652
22271SOL    HW168820   8.835   7.449   6.530  1.0001  0.1998 -0.5471
22271SOL    HW268821   8.685   7.469   6.532  1.2397  2.6816  3.4696
22272SOL     OW68822   4.584   5.757  10.670 -0.0447  0.2321  0.8949
22272SOL    HW168823   4.517   5.769  10.737 -2.3162 -1.9320 -0.7617
22272SOL    HW268824   4.658   5.720  10.717 -0.0274  2.4288  2.7655
22273SOL     OW68825   3.050   3.490   7.500  0.2898 -0.7918 -0.3490
22273SOL    HW168826   3.106   3.536   7.564  1.3843 -1.5805 -0.7216
22273SOL    HW268827   3.035   3.404   7.539 -1.9671 -0.1167  0.4627
22274SOL     OW68828   3.773   9.607   2.733  0.8629  0.2529  0.1804
22274SOL    HW168829   3.805   9.663   2.804  2.5544  0.5069 -0.7160
22274SOL    HW268830   3.728   9.535   2.777  0.8733  1.0090  1.4572
22275SOL     OW68831   6.210   3.993   2.672  0.7573 -0.2422 -0.0392
22275SOL    HW168832   6.115   4.003   2.675  0.5719 -0.9883 -2.2247
22275SOL    HW268833   6.224   3.900   2.655  1.9395 -0.3019  1.0235
22276SOL     OW68834   7.215   4.767   8.967  0.4893  0.2009  0.0294
22276SOL    HW168835   7.134   4.738   8.925  0.3808  0.5886 -0.0313
22276SOL    HW268836   7.243   4.844   8.917 -0.0601  1.1377  1.1115
22277SOL     OW68837   9.470   3.344   8.917  0.6667  0.4073  0.0362
22277SOL    HW168838   9.549   3.319   8.869  1.0328 -0.3112  0.9830
22277SOL    HW268839   9.423   3.401   8.856  0.6716 -1.1577 -1.5167
22278SOL     OW68840   5.180   8.681   6.391  0.2505  0.0618 -0.4788
22278SOL    HW168841   5.258   8.660   6.442  0.0343  0.8179  0.1893
22278SOL    HW268842   5.109   8.635   6.437  0.0297  0.8778  0.0201
22279SOL     OW68843   7.577   3.694   3.550 -0.5125 -0.1167  0.2907
22279SOL    HW168844   7.536   3.635   3.613  0.8239  0.0484  1.3656
22279SOL    HW268845   7.530   3.678   3.468 -0.5467 -2.2859  0.6805
22280SOL     OW68846   4.656   8.662   1.610 -0.1843 -0.2579  0.3763
22280SOL    HW168847   4.731   8.722   1.610 -0.5976  0.2866  1.3303
22280SOL    HW268848   4.685   8.587   1.558  0.1474  0.9899 -1.3020
22281SOL     OW68849   8.794  10.581   3.359 -0.0655 -0.2297 -0.2724
22281SOL    HW168850   8.758  10.534   3.434  1.0499  0.0797  0.4866
22281SOL    HW268851   8.821  10.513   3.298 -0.7147 -0.4919 -0.2721
22282SOL     OW68852   0.725   1.111   1.900 -0.4680  0.2952 -0.1843
22282SOL    HW168853   0.755   1.027   1.864  0.7374  0.5161  0.2650
22282SOL    HW268854   0.741   1.103   1.994 -2.3003  0.2504  0.1479
22283SOL     OW68855   2.142   8.174   8.743  0.2336  0.1895 -0.2929
22283SOL    HW168856   2.212   8.171   8.678  0.4452 -1.4858 -0.0167
22283SOL    HW268857   2.175   8.123   8.817 -1.0973 -0.2711  0.0118
22284SOL     OW68858   5.319   8.171   0.070 -0.3947  0.1344 -0.1819
22284SOL    HW168859   5.378   8.103   0.039 -0.2641  0.1567  0.0191
22284SOL    HW268860   5.295   8.143   0.159  3.9658  3.0284  2.2655
22285SOL     OW68861   1.503   9.257  10.674 -0.1418 -0.3453 -0.9109
22285SOL    HW168862   1.478   9.326  10.734  0.7307 -1.0836  0.3419
22285SOL    HW268863   1.428   9.248  10.615 -0.3952  1.4241 -0.9162
22286SOL     OW68864   1.915   1.748   6.812  0.7067 -0.4770  0.0402
22286SOL    HW168865   1.987   1.709   6.762 -0.3375 -2.3513 -0.0977
22286SOL    HW268866   1.936   1.727   6.903  0.5914 -0.5886  0.0415
22287SOL     OW68867   8.776   4.846   3.691  0.2997  0.0629 -0.1163
22287SOL    HW168868   8.811   4.775   3.746 -0.0316  0.6629  0.9000
22287SOL    HW268869   8.763   4.919   3.752  0.7405  1.0452 -1.1658
22288SOL     OW68870   6.743   5.973   3.752  0.0587  0.3022  0.0115
22288SOL    HW168871   6.695   6.045   3.794 -1.2047 -0.9009  0.7122
22288SOL    HW268872   6.818   6.016   3.712 -0.1716  1.9043  1.1527
22289SOL     OW68873   8.549   7.589   8.078 -0.1391 -0.4512 -0.1286
22289SOL    HW168874   8.579   7.499   8.088 -0.8745 -0.6956 -0.0563
22289SOL    HW268875   8.597   7.623   8.002 -2.4075 -2.0239 -2.4008
22290SOL     OW68876   3.362   9.263   1.990 -0.2907  0.0320 -0.0705
22290SOL    HW168877   3.285   9.319   1.979  1.0551  1.5659 -2.7812
22290SOL    HW268878   3.404   9.294   2.070 -1.8141 -0.0301  0.7765
22291SOL     OW68879   5.610   3.523  10.865 -0.0493 -0.0342 -0.1551
22291SOL    HW168880   5.516   3.510  10.867 -0.6950  3.3124 -1.4855
22291SOL    HW268881   5.629   3.547  10.774  2.2866 -1.5098 -0.1535
22292SOL     OW68882   7.779   1.593   8.453 -0.1096  0.0203  0.5075
22292SOL    HW168883   7.761   1.681   8.419  0.3215 -0.0832 -0.0179
22292SOL    HW268884   7.875   1.589   8.457 -0.1471  0.0052  1.7021
22293SOL     OW68885  10.791  10.431   7.950  0.3144  0.4478 -0.2983
22293SOL    HW168886  10.782  10.482   7.869  0.2500 -0.3087 -0.7732
22293SOL    HW268887  10.885  10.423   7.964  0.3284  1.0539  0.0172
22294SOL     OW68888   2.527   6.104   0.841 -0.2633 -0.2884 -0.6418
22294SOL    HW168889   2.486   6.111   0.927 -1.6872 -1.2696 -1.2075
22294SOL    HW268890   2.592   6.175   0.840  1.6750 -1.8475  2.1901
22295SOL     OW68891   7.553   8.423   6.106 -0.3324  0.3857 -0.4207
22295SOL    HW168892   7.491   8.438   6.035 -1.1439 -1.0689 -0.0535
22295SOL    HW268893   7.636   8.408   6.062 -0.5970  0.5911 -1.0032
22296SOL     OW68894   3.518   2.196   4.790 -0.0121 -0.0147  0.1517
22296SOL    HW168895   3.572   2.257   4.840  0.5032 -1.0925  0.9550
22296SOL    HW268896   3.525   2.227   4.700  1.8175  0.0225  0.2529
22297SOL     OW68897  10.579  10.041   0.518 -0.5667 -0.0404  0.2544
22297SOL    HW168898  10.645   9.974   0.537 -1.1760 -0.3738  1.3010
22297SOL    HW268899  10.630  10.121   0.501  0.1610 -0.7555 -1.0084
22298SOL     OW68900   3.573   5.484   7.865  0.0534  0.0161 -0.3985
22298SOL    HW168901   3.579   5.573   7.898  1.1767 -0.9227  2.1997
22298SOL    HW268902   3.487   5.454   7.894  1.1750 -0.9231  2.2576
22299SOL     OW68903   1.816   5.795   9.683 -0.0378 -0.3707  0.1682
22299SOL    HW168904   1.816   5.843   9.766 -1.0412  0.6865 -0.4075
22299SOL    HW268905   1.860   5.713   9.702  0.5420  0.2337  1.5277
22300SOL     OW68906   0.397   5.029   6.677 -0.5621 -0.3358 -0.3712
22300SOL    HW168907   0.468   5.067   6.626  1.1481 -2.9932 -0.1208
22300SOL    HW268908   0.428   5.032   6.768 -1.3093 -0.4517 -0.0999
22301SOL     OW68909   6.917   7.115   4.993  0.0279  0.6253 -0.0619
22301SOL    HW168910   7.009   7.125   5.020 -0.0003 -0.5216  0.5170
22301SOL    HW268911   6.874   7.077   5.069 -0.8657  0.8527 -0.4490
22302SOL     OW68912   2.210   4.139   5.714 -0.9074  0.3230 -0.4251
22302SOL    HW168913   2.154   4.198   5.765 -2.3770 -0.7405 -0.7642
22302SOL    HW268914   2.226   4.186   5.632 -1.0370  0.7616 -0.2039
22303SOL     OW68915   6.311   8.459   9.983 -0.0588  0.2098  0.5646
22303SOL    HW168916   6.272   8.373   9.966 -0.8130  0.8257 -1.0408
22303SOL    HW268917   6.252   8.500  10.047 -0.4891  0.0739  0.2534
22304SOL     OW68918   0.851   6.224   9.492  0.2982 -0.7089  0.5172
22304SOL    HW168919   0.820   6.224   9.402  1.4425  0.9723  0.0798
22304SOL    HW268920   0.804   6.297   9.533 -0.5898 -1.7639  1.4658
22305SOL     OW68921   8.114   5.105   2.169  0.1327 -0.0150  0.0805
22305SOL    HW168922   8.135   5.028   2.116  0.0015  0.5571 -0.8153
22305SOL    HW268923   8.198   5.148   2.184  0.4032 -0.9998  1.6928
22306SOL     OW68924   9.246   2.291   1.649 -0.3852 -0.0519 -0.4519
22306SOL    HW168925   9.324   2.246   1.616  0.6563  2.1642 -1.2255
22306SOL    HW268926   9.272   2.383   1.654 -2.5844  0.5811  0.4682
22307SOL     OW68927   6.907   2.608   1.956  0.6042  0.3079  0.2188
22307SOL    HW168928   6.841   2.541   1.973  1.6709 -0.3658  1.9225
22307SOL    HW268929   6.861   2.673   1.902 -0.4557 -1.7419 -1.4666
22308SOL     OW68930   6.190   0.625   1.995 -0.0562  0.4645  0.3044
22308SOL    HW168931   6.257   0.563   1.966 -0.9428  0.0595 -0.9452
22308SOL    HW268932   6.144   0.579   2.065 -1.7957 -1.0652 -1.7049
22309SOL     OW68933   1.746   6.325   2.598 -0.1240 -0.2248 -0.0277
22309SOL    HW168934   1.766   6.295   2.509 -1.7923 -0.9581 -0.1863
22309SOL    HW268935   1.669   6.274   2.624  0.0759  0.2818  1.6865
22310SOL     OW68936   2.522   5.583   9.113 -0.0582  0.0736  0.1126
22310SOL    HW168937   2.488   5.658   9.163  0.5423  0.9484 -0.7674
22310SOL    HW268938   2.603   5.560   9.157  0.2514  0.5694 -0.1884
22311SOL     OW68939   8.382   7.912   5.982  0.2961 -0.1588 -0.1217
22311SOL    HW168940   8.329   7.948   6.053 -1.1478 -3.5215  0.7278
22311SOL    HW268941   8.340   7.943   5.902 -0.1971  0.8273  0.4982
22312SOL     OW68942   4.733   6.204  10.947  0.1433 -0.3900  0.3785
22312SOL    HW168943   4.723   6.272  11.013 -0.9445  0.0971 -0.2581
22312SOL    HW268944   4.645   6.190  10.913  0.2890 -2.3092  0.6511
22313SOL     OW68945   8.318   4.736   1.792  0.0685  0.3961 -0.1316
22313SOL    HW168946   8.296   4.669   1.727 -0.9221  0.9329 -0.3637
22313SOL    HW268947   8.405   4.767   1.766 -0.1230  0.2814 -0.9245
22314SOL     OW68948   5.776   7.041   5.023  0.2470 -0.0761 -0.9869
22314SOL    HW168949   5.730   7.124   5.015  0.6956  0.3227  0.2494
22314SOL    HW268950   5.813   7.025   4.936 -0.1949  0.8077 -1.3468
22315SOL     OW68951   4.847   2.351   2.417  0.1471 -0.5710 -0.2428
22315SOL    HW168952   4.875   2.407   2.489  0.1544  1.2840 -1.6089
22315SOL    HW268953   4.928   2.309   2.386  0.6295  0.7267 -0.8409
22316SOL     OW68954   0.371   8.205  10.868 -0.0277  0.5215 -0.0212
22316SOL    HW168955   0.344   8.297  10.876  0.2005  0.4491  1.9699
22316SOL    HW268956   0.414   8.201  10.783  1.1234  2.5781  0.3920
22317SOL     OW68957   1.050   6.227   0.507 -0.2880  0.1962 -0.0365
22317SOL    HW168958   1.035   6.225   0.412 -0.8424  0.2389  0.0463
22317SOL    HW268959   1.144   6.239   0.516 -0.1949 -0.0919 -0.5835
22318SOL     OW68960   3.430  10.563   1.152 -0.1021 -0.5208  0.0821
22318SOL    HW168961   3.404  10.642   1.103  1.0579  0.2550  0.6831
22318SOL    HW268962   3.492  10.595   1.217 -0.2557 -1.8236  0.8860
22319SOL     OW68963  10.155   2.002   6.325  0.1621  0.7199  0.5116
22319SOL    HW168964  10.169   2.023   6.418  0.5929 -1.8938  1.1296
22319SOL    HW268965  10.233   1.954   6.300 -0.3556  0.6064 -0.9569
22320SOL     OW68966   4.344  10.013   6.059 -0.0001 -0.1614 -0.0370
22320SOL    HW168967   4.418   9.954   6.070 -1.0485 -1.2563  1.8036
22320SOL    HW268968   4.320  10.038   6.149 -0.7168  1.6476 -0.6769
22321SOL     OW68969   8.495   7.871   6.843  0.4009  0.2735 -0.2940
22321SOL    HW168970   8.533   7.812   6.778 -0.0691  0.6190 -0.8900
22321SOL    HW268971   8.441   7.931   6.792 -1.1128 -0.3289  0.5487
22322SOL     OW68972   6.591  10.678   9.445 -0.2636  0.4319 -0.1905
22322SOL    HW168973   6.653  10.615   9.410 -0.7011 -0.4670  0.5951
22322SOL    HW268974   6.555  10.723   9.368  0.7124  0.3612 -0.6975
22323SOL     OW68975  10.885   6.219   5.177 -0.2504  0.2593 -0.3235
22323SOL    HW168976  10.885   6.129   5.211 -0.0522 -0.4110 -1.9668
22323SOL    HW268977  10.822   6.216   5.104  0.1347  1.3286 -0.7076
22324SOL     OW68978   9.141   1.273  10.742 -0.1458 -0.7063  0.2975
22324SOL    HW168979   9.086   1.196  10.731 -0.9502  0.0018 -0.7329
22324SOL    HW268980   9.155   1.278  10.837  0.5373 -2.5176  0.3410
22325SOL     OW68981   5.480   3.244   5.815  0.6748 -0.2686 -0.6896
22325SOL    HW168982   5.537   3.169   5.829  1.1284 -0.2737 -2.4302
22325SOL    HW268983   5.423   3.219   5.742 -1.1614 -0.0232  0.5784
22326SOL     OW68984   4.895   2.502   2.642  0.3804 -0.0879 -0.3212
22326SOL    HW168985   4.848   2.428   2.680  0.2898 -0.4294 -1.0950
22326SOL    HW268986   4.981   2.500   2.684  0.3212 -0.5306 -0.2170
22327SOL     OW68987   0.276   9.248   8.178  0.6964  0.0975  0.0381
22327SOL    HW168988   0.197   9.301   8.165 -0.5836 -1.1467  2.0950
22327SOL    HW268989   0.256   9.164   8.137  1.7920  0.4135 -1.1965
22328SOL     OW68990   4.049   3.371  10.593 -0.1006  0.2593  0.3921
22328SOL    HW168991   4.135   3.411  10.585  0.1229 -0.2756  0.0618
22328SOL    HW268992   3.993   3.440  10.628  0.1775  0.9674 -0.5501
22329SOL     OW68993   6.859   1.730   8.377 -0.6042  0.3580  0.0003
22329SOL    HW168994   6.946   1.690   8.372  0.4570  2.3705  1.1803
22329SOL    HW268995   6.799   1.656   8.380  1.3118 -1.3132  3.7837
22330SOL     OW68996   5.876   0.744   9.785 -0.0288 -0.4665 -0.2601
22330SOL    HW168997   5.953   0.800   9.794  0.7685 -1.4138 -0.9082
22330SOL    HW268998   5.847   0.757   9.695 -0.3135 -0.5084 -0.1767
22331SOL     OW68999   1.336   5.815   1.243  0.5693 -0.2700 -0.0196
22331SOL    HW169000   1.392   5.769   1.307 -0.7990  0.3361  1.6926
22331SOL    HW269001   1.341   5.907   1.269 -0.3438 -0.0661 -0.5435
22332SOL     OW69002   7.331   3.275   7.918  0.5423  0.8176 -0.0702
22332SOL    HW169003   7.238   3.284   7.940  0.7904  0.9897  0.9970
22332SOL    HW269004   7.336   3.291   7.824 -0.5949  0.1368 -0.2643
22333SOL     OW69005   1.382   9.019   2.530  0.5385 -0.4175 -0.5284
22333SOL    HW169006   1.347   8.934   2.501 -1.2035  0.5833 -1.5760
22333SOL    HW269007   1.424   9.055   2.451 -0.4956  0.5136 -0.6840
22334SOL     OW69008   2.282   7.995   1.019  0.4655 -0.3314  0.1488
22334SOL    HW169009   2.303   7.937   0.946 -1.6227 -0.4951 -0.3933
22334SOL    HW269010   2.348   8.065   1.014  2.9197 -2.4464  0.6950
22335SOL     OW69011   8.731   6.334   0.516 -0.1725 -0.1870  0.1906
22335SOL    HW169012   8.691   6.369   0.436 -0.1266  0.0421  0.2669
22335SOL    HW269013   8.666   6.275   0.552 -0.6681  0.5929  0.6012
22336SOL     OW69014   5.659   4.198   6.541  0.2956 -1.0284  0.2756
22336SOL    HW169015   5.691   4.273   6.591 -0.8453 -0.7532  0.6200
22336SOL    HW269016   5.653   4.230   6.451 -1.7572 -0.1329  0.6651
22337SOL     OW69017   4.117   1.370   7.316 -0.2806  0.2835  0.1416
22337SOL    HW169018   4.189   1.342   7.260 -1.1353 -1.5685 -0.0908
22337SOL    HW269019   4.045   1.310   7.296 -1.0913  0.4874  2.1623
22338SOL     OW69020   8.672   2.168   3.064 -0.1363 -0.4969 -0.5798
22338SOL    HW169021   8.590   2.144   3.021 -0.6464  0.1045  0.0371
22338SOL    HW269022   8.647   2.232   3.130  0.9827  0.6074 -1.1671
22339SOL     OW69023   0.795   9.804   6.399 -0.2750  0.0033 -0.1871
22339SOL    HW169024   0.847   9.735   6.358 -0.1743  0.0679 -0.1683
22339SOL    HW269025   0.857   9.853   6.452 -0.3764  0.0140 -0.0772
22340SOL     OW69026   2.437  10.074  10.860  0.2555 -0.3863  0.0230
22340SOL    HW169027   2.412  10.136  10.928 -1.6903 -0.8226 -0.2365
22340SOL    HW269028   2.438   9.989  10.903 -1.8257 -0.7816 -0.6120
22341SOL     OW69029   0.483   7.254   0.120 -0.7137 -0.3398  0.2872
22341SOL    HW169030   0.524   7.245   0.034 -2.2926 -0.2297 -0.5182
22341SOL    HW269031   0.488   7.347   0.140 -0.7649 -0.2975  0.0995
22342SOL     OW69032   7.373   4.526  10.890  0.6352 -0.8441  0.1812
22342SOL    HW169033   7.406   4.507  10.802  0.2141 -1.6782  0.1886
22342SOL    HW269034   7.297   4.468  10.900 -1.5257  1.6926 -0.2252
22343SOL     OW69035   5.463   9.113  10.552  0.5051 -0.3768  0.4067
22343SOL    HW169036   5.414   9.082  10.628  0.4178 -1.6202 -0.1190
22343SOL    HW269037   5.544   9.148  10.589 -0.4554  1.0703  1.2262
22344SOL     OW69038   3.883   3.696   8.862  0.1308 -0.2815 -0.0705
22344SOL    HW169039   3.882   3.613   8.816 -0.8237 -1.4823  1.9836
22344SOL    HW269040   3.943   3.683   8.935 -1.2239  0.2875  1.1844
22345SOL     OW69041   4.815   3.453   8.996 -0.0667  0.3785 -0.3909
22345SOL    HW169042   4.799   3.459   8.902 -0.8022 -0.3220 -0.3148
22345SOL    HW269043   4.728   3.456   9.036  0.0914 -1.2288  0.1580
22346SOL     OW69044   9.248   2.761   6.463  0.7144 -0.0392  0.1368
22346SOL    HW169045   9.172   2.811   6.433  0.2686 -0.1032  1.1069
22346SOL    HW269046   9.314   2.827   6.485  0.6022  0.0603  0.1713
22347SOL     OW69047   4.544  10.695   9.530 -0.3120  0.1344  0.6156
22347SOL    HW169048   4.601  10.766   9.500  0.2818  1.0995  3.6464
22347SOL    HW269049   4.598  10.617   9.524  0.0453  0.4155  0.0416
22348SOL     OW69050   5.295   9.498   8.920  0.6088 -0.1349 -0.0185
22348SOL    HW169051   5.369   9.546   8.884  0.0351 -0.6932 -2.0576
22348SOL    HW269052   5.233   9.567   8.946  0.9612  0.2875 -0.2731
22349SOL     OW69053   3.555   3.567   4.895 -0.4449  0.0555 -0.4719
22349SOL    HW169054   3.518   3.610   4.972  1.1660 -0.1825  0.4657
22349SOL    HW269055   3.547   3.632   4.825 -1.7402  0.3480 -0.0714
22350SOL     OW69056   5.831   5.711   1.864  0.0895 -0.2340  0.1176
22350SOL    HW169057   5.853   5.747   1.950  1.9405  2.8925 -1.4898
22350SOL    HW269058   5.760   5.766   1.833 -1.4515 -2.1623  0.0800
22351SOL     OW69059   3.053   8.268   3.436  0.0432  0.3916  0.0326
22351SOL    HW169060   2.972   8.319   3.429 -0.7780 -0.4948  2.1360
22351SOL    HW269061   3.116   8.327   3.476 -0.1520  0.5137  0.1640
22352SOL     OW69062   7.680   6.380   7.338  0.2991 -0.3123 -0.3326
22352SOL    HW169063   7.744   6.414   7.276 -0.3842 -0.1949 -0.9798
22352SOL    HW269064   7.668   6.288   7.312  1.8740 -1.0217  1.1876
22353SOL     OW69065   5.579   6.223   8.125  0.1551 -0.0131 -0.1786
22353SOL    HW169066   5.488   6.200   8.111  0.3773 -1.0664  0.0525
22353SOL    HW269067   5.586   6.314   8.095 -1.0191  0.1681  0.0663
22354SOL     OW69068   2.606   5.757   4.052 -0.6944  0.2425  0.6482
22354SOL    HW169069   2.598   5.759   3.956  0.8932 -1.3971  0.4191
22354SOL    HW269070   2.520   5.731   4.083 -1.2010  0.6673 -0.3380
22355SOL     OW69071   3.935   2.178   2.135 -0.1274  0.2786 -0.3482
22355SOL    HW169072   3.991   2.143   2.204 -2.2114  0.3037  1.4873
22355SOL    HW269073   3.901   2.101   2.090 -0.1519  0.1786 -0.1617
22356SOL     OW69074   2.816   5.556   6.942  0.1234  0.3435 -0.5530
22356SOL    HW169075   2.797   5.521   6.855  2.4788 -1.1443 -0.5746
22356SOL    HW269076   2.889   5.616   6.928  0.8632 -0.2964  0.4092
22357SOL     OW69077   8.602   2.388   6.363  0.0768  0.4950  0.3425
22357SOL    HW169078   8.600   2.391   6.267  1.2644 -0.5461  0.2476
22357SOL    HW269079   8.548   2.462   6.391  0.2717  1.2360 -1.1334
22358SOL     OW69080   1.673   1.093  10.532 -0.0723  0.8419 -0.1478
22358SOL    HW169081   1.674   1.188  10.541  1.9841  0.7142  2.0647
22358SOL    HW269082   1.753   1.072  10.484 -0.9239  0.2286 -1.3591
22359SOL     OW69083   3.545   6.939  10.669 -0.4119  0.3045 -0.2271
22359SOL    HW169084   3.556   7.033  10.682 -0.0659  0.4696 -1.6436
22359SOL    HW269085   3.532   6.928  10.575 -2.4389 -0.8834  0.1336
22360SOL     OW69086   7.113   4.091   7.406 -0.3862 -0.0379  0.5211
22360SOL    HW169087   7.206   4.070   7.411 -0.1661  0.3220 -1.2580
22360SOL    HW269088   7.098   4.154   7.476  1.2591  1.7285 -0.6357
22361SOL     OW69089   8.922   4.126   9.486 -0.9051 -0.1696 -0.2591
22361SOL    HW169090   8.945   4.151   9.397  0.6258  0.2292  0.2246
22361SOL    HW269091   8.981   4.053   9.506 -0.7567  0.1952  0.6652
22362SOL     OW69092   5.290   4.818   4.494 -0.2909  0.1766  0.1492
22362SOL    HW169093   5.221   4.754   4.508 -0.0923 -0.0023  0.3176
22362SOL    HW269094   5.245   4.896   4.461 -0.6372  0.2373  0.7570
22363SOL     OW69095   4.771   3.099   5.962  0.2089 -0.0021  0.0669
22363SOL    HW169096   4.838   3.160   5.931  1.0053 -1.5627 -1.4869
22363SOL    HW269097   4.702   3.104   5.895  0.1146 -0.5252  0.1220
22364SOL     OW69098   3.524   7.012   0.871 -0.1756  0.4383  0.1939
22364SOL    HW169099   3.536   6.942   0.807  0.4631 -0.9605  1.7812
22364SOL    HW269100   3.498   7.088   0.818  0.5911 -0.5675 -1.7364
22365SOL     OW69101   2.447   4.445   1.545  0.1822  1.2023 -0.2660
22365SOL    HW169102   2.483   4.408   1.626  1.4318  2.0879 -0.3812
22365SOL    HW269103   2.353   4.449   1.560  0.4205  1.6734  1.2817
22366SOL     OW69104   4.508   7.021   3.674  0.1379 -0.0652 -0.2825
22366SOL    HW169105   4.554   6.947   3.713  0.2854  0.2973  0.2326
22366SOL    HW269106   4.472   7.069   3.748  0.5517  0.7131 -0.5710
22367SOL     OW69107   8.562   3.291   2.756 -0.5599  0.0915 -0.1178
22367SOL    HW169108   8.582   3.382   2.779  2.0325 -0.7584  1.4772
22367SOL    HW269109   8.635   3.264   2.701 -1.8960 -0.7451 -1.5444
22368SOL     OW69110   6.529   9.495  10.641 -0.1915 -0.1422  0.3798
22368SOL    HW169111   6.572   9.580  10.628 -1.1795  0.4882  1.0719
22368SOL    HW269112   6.482   9.480  10.560  1.5909 -1.0335 -0.5486
22369SOL     OW69113   5.689   8.102   6.006  0.1884 -0.1518 -0.0080
22369SOL    HW169114   5.783   8.121   6.001  0.2491  0.4110  2.1536
22369SOL    HW269115   5.659   8.107   5.915  1.5671  3.3537 -0.4450
22370SOL     OW69116   6.140  10.835   0.530  0.1132  0.0221  0.8447
22370SOL    HW169117   6.208  10.779   0.567  0.3585  0.4654  1.0797
22370SOL    HW269118   6.131  10.906   0.594 -1.2220 -0.4988  1.2850
22371SOL     OW69119   2.621   3.079   7.710  0.4884  0.2671 -0.8340
22371SOL    HW169120   2.577   3.044   7.788  3.3768 -0.7627  0.4853
22371SOL    HW269121   2.598   3.171   7.709 -1.5625 -0.1864 -0.1965
22372SOL     OW69122   8.916   4.765   6.925  0.3487 -0.0380  0.3808
22372SOL    HW169123   8.891   4.855   6.944 -1.0206 -0.1551 -0.7248
22372SOL    HW269124   8.998   4.772   6.876  0.2825  0.6030  0.3557
22373SOL     OW69125   6.881  10.811   4.008 -0.6968 -0.1917  0.0079
22373SOL    HW169126   6.788  10.803   3.985 -0.6663 -0.9266  0.1088
22373SOL    HW269127   6.882  10.806   4.103 -0.4412 -1.7787 -0.0378
22374SOL     OW69128   0.495   1.650   1.012 -0.2901 -0.2679  0.5098
22374SOL    HW169129   0.471   1.724   0.956 -0.9579 -1.3270 -0.6589
22374SOL    HW269130   0.564   1.605   0.963 -1.1615 -1.4383  0.3294
22375SOL     OW69131  10.403   8.255   9.949 -0.4518 -0.0985 -0.7252
22375SOL    HW169132  10.323   8.254  10.002 -0.9181 -0.5453 -1.4154
22375SOL    HW269133  10.471   8.221  10.007 -0.8248 -0.0032 -0.2253
22376SOL     OW69134   9.262   3.663   1.389 -0.0491 -0.1259  0.2720
22376SOL    HW169135   9.280   3.571   1.410  1.6719  0.4731  1.6860
22376SOL    HW269136   9.349   3.703   1.384 -0.7327  1.2653 -1.2261
22377SOL     OW69137   8.654   0.745   9.279  0.1419  0.0920 -0.2807
22377SOL    HW169138   8.608   0.693   9.214  0.1438  1.6188 -1.5467
22377SOL    HW269139   8.585   0.773   9.340 -0.0567 -0.3403 -0.3022
22378SOL     OW69140   2.923   4.308   0.701 -0.0066  0.5648  0.2470
22378SOL    HW169141   2.964   4.231   0.664  0.0323  0.9156 -0.4512
22378SOL    HW269142   2.962   4.317   0.788  2.5182  1.7279 -0.9229
22379SOL     OW69143   5.613   4.595   0.970  0.2291  0.2922 -0.1189
22379SOL    HW169144   5.528   4.632   0.994 -1.3607 -3.1848  0.1617
22379SOL    HW269145   5.640   4.543   1.046  0.8272 -1.4886 -1.4784
22380SOL     OW69146   4.325   2.391   8.275 -0.0399 -0.1422  1.0407
22380SOL    HW169147   4.290   2.379   8.187  0.9386 -1.8045  0.8223
22380SOL    HW269148   4.359   2.480   8.276  0.1928 -0.1952 -0.3565
22381SOL     OW69149   5.556   3.360   3.968 -0.0093  0.4021  0.0025
22381SOL    HW169150   5.534   3.410   3.889 -0.9782  1.3199  0.8140
22381SOL    HW269151   5.475   3.313   3.990  0.6570 -0.9326 -0.3036
22382SOL     OW69152   9.041   2.592   2.183  0.4852 -0.5352  0.4407
22382SOL    HW169153   8.957   2.571   2.142  0.5934 -1.7433  0.8147
22382SOL    HW269154   9.017   2.635   2.266  0.2644  1.0066 -0.3876
22383SOL     OW69155   8.495   0.236   2.724  0.0170  0.4810  0.2799
22383SOL    HW169156   8.568   0.195   2.769  0.7795  0.7298 -0.6932
22383SOL    HW269157   8.470   0.174   2.656 -0.3180  0.6376  0.2569
22384SOL     OW69158   3.845   2.122   7.849 -0.4326 -0.0670 -0.2408
22384SOL    HW169159   3.857   2.091   7.759  0.4957 -3.0618  0.7787
22384SOL    HW269160   3.898   2.201   7.855  3.1581 -2.1520 -1.2954
22385SOL     OW69161  10.653   7.153   1.191 -0.2224 -0.7280  0.2938
22385SOL    HW169162  10.735   7.167   1.143 -0.9034  0.1465 -0.6518
22385SOL    HW269163  10.628   7.240   1.221 -0.0072 -1.2112  1.9661
22386SOL     OW69164   4.380   5.476  10.550  0.1436 -0.6563  0.0570
22386SOL    HW169165   4.401   5.550  10.493  1.6986 -1.0312  0.1142
22386SOL    HW269166   4.414   5.501  10.635  0.6342 -1.4187  0.0902
22387SOL     OW69167   3.192   7.515   1.925 -0.7627  0.4220 -0.0940
22387SOL    HW169168   3.147   7.433   1.945  0.4438 -0.9055 -2.3557
22387SOL    HW269169   3.271   7.488   1.878  0.2235  2.8575  0.0168
22388SOL     OW69170   1.339   4.177   4.045 -0.6844  0.1256 -0.1906
22388SOL    HW169171   1.256   4.143   4.079 -0.8594 -0.1926 -0.9265
22388SOL    HW269172   1.337   4.158   3.952  0.6763 -0.8313 -0.0547
22389SOL     OW69173   8.130   8.755   2.506 -0.7720  0.2726 -0.9654
22389SOL    HW169174   8.064   8.722   2.567 -0.6746  0.4310 -0.7731
22389SOL    HW269175   8.153   8.841   2.540  1.3282 -0.7504  0.3767
22390SOL     OW69176   4.320  10.348   5.869  0.4231 -0.0267 -0.0322
22390SOL    HW169177   4.243  10.332   5.924  0.1647 -1.3015 -0.7095
22390SOL    HW269178   4.386  10.288   5.904  1.5404  1.8468  1.2679
22391SOL     OW69179   8.945   4.647   8.640 -0.1229  0.5821  0.3398
22391SOL    HW169180   8.856   4.639   8.604  0.4985 -2.2831 -0.8050
22391SOL    HW269181   8.933   4.633   8.734 -0.8397 -0.6586  0.0915
22392SOL     OW69182   6.894   1.398   1.167  0.0185 -0.0777  0.1564
22392SOL    HW169183   6.844   1.474   1.137 -0.4036 -1.0421 -1.7481
22392SOL    HW269184   6.882   1.397   1.262 -1.8851  0.8856 -0.0371
22393SOL     OW69185   0.525   6.569   3.724 -0.2374  0.3633 -0.4755
22393SOL    HW169186   0.540   6.588   3.817  0.4259  1.1440 -0.7368
22393SOL    HW269187   0.611   6.575   3.684 -0.5500  0.1985 -1.1846
22394SOL     OW69188   1.052  10.484   8.519  0.5953 -0.2148 -0.1396
22394SOL    HW169189   1.121  10.541   8.550  2.5663 -2.8391  0.6264
22394SOL    HW269190   0.995  10.470   8.595 -1.1161  2.2244 -0.8607
22395SOL     OW69191  10.502   0.455   2.312  0.7193  0.0463  0.1833
22395SOL    HW169192  10.597   0.457   2.324  0.9606  3.1842 -1.2669
22395SOL    HW269193  10.468   0.521   2.372 -0.2582  0.6621 -1.0014
22396SOL     OW69194   2.258   2.082   3.864 -0.2363 -0.7968 -0.7540
22396SOL    HW169195   2.182   2.035   3.899  1.6413 -1.6799  2.6705
22396SOL    HW269196   2.327   2.016   3.860  2.1344  1.0860  2.9374
22397SOL     OW69197   8.252   6.940   8.387 -0.0645 -0.2876 -0.2139
22397SOL    HW169198   8.224   6.909   8.473 -0.8061  0.0062 -0.3438
22397SOL    HW269199   8.347   6.950   8.396 -0.2949  1.1965  1.0632
22398SOL     OW69200   8.964   3.233   8.734 -0.0811  0.1381  0.4251
22398SOL    HW169201   8.869   3.248   8.724 -0.3092 -1.4008  0.0014
22398SOL    HW269202   8.973   3.197   8.822 -0.0218 -0.6228  0.1114
22399SOL     OW69203   3.964   1.902   2.758 -0.6873 -0.1721 -0.4565
22399SOL    HW169204   3.941   1.926   2.847  2.6959  1.1010  0.2236
22399SOL    HW269205   3.926   1.971   2.703  0.4905  1.2676  0.4707
22400SOL     OW69206   8.253   9.599  10.027 -0.4467 -0.0359  0.1563
22400SOL    HW169207   8.274   9.692  10.012 -0.1053  0.0266  0.9825
22400SOL    HW269208   8.191   9.578   9.957 -0.4833  0.8011 -0.0835
22401SOL     OW69209   3.258   0.829   6.154 -0.2440 -0.2511 -0.2734
22401SOL    HW169210   3.224   0.748   6.191  0.6570 -0.6165 -0.2281
22401SOL    HW269211   3.222   0.898   6.211 -1.1278 -0.5950 -0.3996
22402SOL     OW69212   5.907   5.756   9.363  0.1768  0.1560 -0.1700
22402SOL    HW169213   5.837   5.698   9.334 -1.1361  2.2792 -1.4811
22402SOL    HW269214   5.883   5.780   9.453  0.4027 -0.7967  0.1576
22403SOL     OW69215   6.737   3.560   9.660  0.2365 -0.2071 -0.3991
22403SOL    HW169216   6.790   3.626   9.615  0.5441 -0.6564 -0.7172
22403SOL    HW269217   6.653   3.602   9.676 -0.0673 -0.1874 -1.8719
22404SOL     OW69218   8.640   4.987   3.330  0.3957  0.0146  0.8775
22404SOL    HW169219   8.704   4.916   3.336 -0.1404 -0.6026 -0.2916
22404SOL    HW269220   8.684   5.063   3.369  0.6210 -1.1691  3.0706
22405SOL     OW69221   5.018   2.674   4.002  0.0723 -0.1910  0.1798
22405SOL    HW169222   5.021   2.578   4.009 -0.1444 -0.1725  0.6120
22405SOL    HW269223   4.926   2.693   3.985  0.0743 -0.0456  0.3333
22406SOL     OW69224   8.896  10.900   0.981 -0.4250 -0.0990 -0.4720
22406SOL    HW169225   8.922  10.890   0.890  0.0011  0.1857 -0.3860
22406SOL    HW269226   8.868  10.812   1.008  0.3859 -0.4001 -0.5890
22407SOL     OW69227   4.387   9.759   7.002 -0.1204  0.3804 -0.3030
22407SOL    HW169228   4.298   9.795   6.993  0.4073  1.3417 -2.1148
22407SOL    HW269229   4.374   9.664   6.996 -1.2184  0.3428  1.6341
22408SOL     OW69230   6.411  10.764   0.628  0.0446  0.1375  0.2927
22408SOL    HW169231   6.394  10.685   0.680  0.5996 -0.6742 -0.7147
22408SOL    HW269232   6.463  10.820   0.685 -0.4430 -0.1669  1.0597
22409SOL     OW69233  10.510   7.757   2.033  0.1382  0.4034 -0.3735
22409SOL    HW169234  10.434   7.702   2.015 -0.0753  0.0327  1.4254
22409SOL    HW269235  10.580   7.694   2.052  0.2020  0.7338  0.5275
22410SOL     OW69236   8.914   8.229   1.481 -0.0097 -0.1262 -0.0951
22410SOL    HW169237   8.968   8.282   1.540 -1.3411  0.1549  0.9330
22410SOL    HW269238   8.975   8.167   1.441  0.7300 -1.6267  3.0376
22411SOL     OW69239   0.467   8.243   5.835  0.8386  0.5765  0.3630
22411SOL    HW169240   0.382   8.208   5.809  0.1517  2.2788  0.1694
22411SOL    HW269241   0.528   8.170   5.823  0.0312  0.3002 -2.9289
22412SOL     OW69242   5.853  10.593   3.964  0.2646 -0.1607  0.7185
22412SOL    HW169243   5.802  10.594   3.884 -0.2752  2.8978  0.9804
22412SOL    HW269244   5.890  10.505   3.968  0.9520 -0.2217 -3.2646
22413SOL     OW69245   6.463  10.398   5.879 -0.5198  0.1321 -0.4790
22413SOL    HW169246   6.520  10.384   5.954 -1.0134  0.1465 -0.0937
22413SOL    HW269247   6.454  10.494   5.873 -1.2060  0.1031  0.0052
22414SOL     OW69248   0.166   4.033   1.359 -0.2606  0.4432 -0.3397
22414SOL    HW169249   0.076   4.031   1.391 -0.0740 -0.0514  0.1670
22414SOL    HW269250   0.208   3.958   1.400  1.1788  2.2908  1.7719
22415SOL     OW69251   0.575   5.798  10.845 -0.2227  0.0940  0.3325
22415SOL    HW169252   0.486   5.829  10.828  0.2385  0.7146 -1.0361
22415SOL    HW269253   0.570   5.703  10.831 -1.3374 -0.3943  3.2970
22416SOL     OW69254   8.717   2.777   1.561 -0.0353 -0.3032 -0.1376
22416SOL    HW169255   8.734   2.798   1.653 -1.8976  1.2835 -0.0896
22416SOL    HW269256   8.768   2.842   1.512 -1.6958  1.1268 -0.0894
22417SOL     OW69257   4.117   5.235   3.793  0.2414 -0.5646 -0.5080
22417SOL    HW169258   4.059   5.214   3.866 -0.0042  1.5714 -0.0100
22417SOL    HW269259   4.057   5.256   3.721  0.2973  1.6824  0.0185
22418SOL     OW69260   9.184   0.857   7.075 -0.2109  0.3470 -0.2609
22418SOL    HW169261   9.245   0.823   7.141 -2.1241  1.1883  2.0730
22418SOL    HW269262   9.099   0.858   7.118 -1.9172 -0.4508 -3.2848
22419SOL     OW69263   9.607   3.268   5.324  0.0264  0.1869 -0.1472
22419SOL    HW169264   9.608   3.293   5.417 -0.9339 -0.3571  0.0266
22419SOL    HW269265   9.530   3.212   5.316 -0.1802  0.6255 -1.3864
22420SOL     OW69266   9.503   0.560   0.112 -0.3264 -0.4109  0.3268
22420SOL    HW169267   9.435   0.550   0.045 -0.2022  0.1408  0.1133
22420SOL    HW269268   9.457   0.603   0.185  0.0042  0.8908 -0.1955
22421SOL     OW69269  10.913   8.007   3.626 -0.0031  0.4330 -0.4154
22421SOL    HW169270  10.866   8.083   3.660 -1.8537 -0.4844 -0.7989
22421SOL    HW269271  10.939   8.032   3.538  1.3165  1.3686  0.2015
22422SOL     OW69272   7.385   8.010  10.330 -0.0575  0.2051 -0.2408
22422SOL    HW169273   7.462   8.067  10.323 -1.8858  2.6226 -3.4025
22422SOL    HW269274   7.400   7.940  10.267 -0.2812  0.5113 -0.6403
22423SOL     OW69275   1.752   4.512   1.750  0.3673 -0.3357  0.1362
22423SOL    HW169276   1.691   4.571   1.794 -0.4512  0.1068 -1.5147
22423SOL    HW269277   1.703   4.430   1.739  0.7153 -0.5858  0.4146
22424SOL     OW69278   9.442   1.873   3.524  0.1252 -0.4814  0.4390
22424SOL    HW169279   9.373   1.931   3.492 -1.2202 -2.6096 -0.6441
22424SOL    HW269280   9.478   1.832   3.446  0.9248 -1.2638  1.1946
22425SOL     OW69281   7.268   4.990   1.067 -0.6536 -0.0293 -0.3132
22425SOL    HW169282   7.235   5.024   0.983 -2.1235  0.1888  0.3091
22425SOL    HW269283   7.236   4.900   1.070 -2.8893  0.7148  1.0853
22426SOL     OW69284   6.768   5.322   1.615 -0.2783 -0.2656 -0.2841
22426SOL    HW169285   6.735   5.411   1.603  0.5958 -0.1724 -2.4043
22426SOL    HW269286   6.852   5.320   1.569  0.8241 -1.6001  1.6166
22427SOL     OW69287   6.974   1.346   9.146 -0.4417 -0.0752  0.0018
22427SOL    HW169288   7.025   1.418   9.110 -1.8733  0.4481 -1.0548
22427SOL    HW269289   6.995   1.271   9.091  0.0908 -0.1632  0.3202
22428SOL     OW69290   0.999   9.809   3.149  0.4309  0.4947  0.1193
22428SOL    HW169291   0.974   9.720   3.172  1.5077  0.6029  1.8037
22428SOL    HW269292   1.047   9.842   3.224  1.4824  1.9492 -1.1162
22429SOL     OW69293   2.210   3.192   8.731  0.4750 -0.1682  0.1193
22429SOL    HW169294   2.277   3.130   8.761  1.7688  0.6017 -1.0598
22429SOL    HW269295   2.170   3.225   8.812  0.4982 -1.7087  0.7987
22430SOL     OW69296   5.731   6.528   3.692  0.0242 -0.4669  0.5179
22430SOL    HW169297   5.804   6.531   3.754  0.0631 -0.0026  0.4572
22430SOL    HW269298   5.721   6.435   3.671 -1.2351 -0.8835  2.6709
22431SOL     OW69299   5.328   5.161   3.002  0.1155  0.4895  0.1475
22431SOL    HW169300   5.325   5.242   2.951 -0.7170  0.4446  0.1206
22431SOL    HW269301   5.266   5.175   3.073 -0.0133 -0.1141  0.1565
22432SOL     OW69302   0.363   6.420   6.159  0.2070  0.0323 -0.3027
22432SOL    HW169303   0.275   6.399   6.127  0.5003 -0.5317 -0.7520
22432SOL    HW269304   0.420   6.404   6.084  0.6479  0.8326 -0.1496
22433SOL     OW69305  10.163   1.974   8.024 -0.1562 -0.6314  0.1347
22433SOL    HW169306  10.078   1.941   7.996  0.7485 -1.0396 -2.3410
22433SOL    HW269307  10.152   2.069   8.029 -0.4631 -0.5577 -1.4555
22434SOL     OW69308   9.398   7.753   9.258 -0.3569  0.0586  0.1676
22434SOL    HW169309   9.418   7.671   9.303 -0.6974 -0.5504 -0.7627
22434SOL    HW269310   9.467   7.813   9.286  1.5197 -1.3197 -1.2016
22435SOL     OW69311   4.767   2.575   7.895 -0.1350 -0.3208  0.2103
22435SOL    HW169312   4.676   2.549   7.910 -0.5258  1.2157  0.6346
22435SOL    HW269313   4.762   2.638   7.823  0.3301  1.2772  1.5296
22436SOL     OW69314   6.244   2.736   2.256 -0.0816 -0.1019  0.1007
22436SOL    HW169315   6.206   2.822   2.237 -0.4316 -0.0984  0.8117
22436SOL    HW269316   6.214   2.715   2.344 -0.0515 -0.9885 -0.0951
22437SOL     OW69317   2.847   2.935   7.717 -0.2693  0.6988 -0.2735
22437SOL    HW169318   2.864   2.947   7.811 -1.7123  0.4242  0.0435
22437SOL    HW269319   2.756   2.960   7.706 -0.4245 -0.2878 -1.4151
22438SOL     OW69320   4.218   7.333   3.995  0.3639 -0.0394 -0.4919
22438SOL    HW169321   4.214   7.427   3.976  1.4437 -0.0947 -1.0817
22438SOL    HW269322   4.155   7.320   4.065  0.4268  1.1902 -0.1821
22439SOL     OW69323   7.022   0.957   7.495  0.3856 -0.0612 -0.2570
22439SOL    HW169324   7.082   0.886   7.475 -0.0448 -0.3835 -0.4311
22439SOL    HW269325   6.985   0.983   7.411 -0.8525 -0.9056 -0.0146
22440SOL     OW69326   9.855   8.217   4.042  0.2156  0.1787  0.0695
22440SOL    HW169327   9.918   8.287   4.024  0.6341 -0.0771  0.5311
22440SOL    HW269328   9.817   8.197   3.957  0.2654  0.8001 -0.1066
22441SOL     OW69329   1.329   4.253   9.515 -0.8192 -0.2008  0.1360
22441SOL    HW169330   1.392   4.313   9.473 -2.2651  0.6493 -0.9124
22441SOL    HW269331   1.364   4.166   9.497  2.0730  0.2065  2.8289
22442SOL     OW69332   8.947   7.957   7.546  0.2621 -0.0318  0.3713
22442SOL    HW169333   8.859   7.981   7.574 -0.6336 -2.9608  0.4898
22442SOL    HW269334   8.954   7.990   7.456 -0.6397  0.8827  0.6234
22443SOL     OW69335   0.679   8.707   9.925 -0.0319  0.2744 -0.5924
22443SOL    HW169336   0.706   8.681  10.013  1.6884  1.4004 -0.7359
22443SOL    HW269337   0.613   8.774   9.939  1.1899  1.4179 -0.1018
22444SOL     OW69338   3.836   3.524   4.228 -0.0053 -0.2198  0.4272
22444SOL    HW169339   3.745   3.552   4.241 -0.1178 -0.2046 -0.3654
22444SOL    HW269340   3.867   3.577   4.154  0.0670 -1.5490 -0.5149
22445SOL     OW69341  10.202   8.483   7.559 -0.1778 -0.1030 -0.2042
22445SOL    HW169342  10.232   8.486   7.468 -1.1239  3.4021 -0.5485
22445SOL    HW269343  10.108   8.498   7.554 -0.4235 -0.8997  1.3442
22446SOL     OW69344   6.535   5.010   8.451 -0.0843 -0.0740  0.0887
22446SOL    HW169345   6.607   4.964   8.493  0.2206 -0.5623 -0.9381
22446SOL    HW269346   6.531   5.095   8.496  0.4650 -0.4314  0.8307
22447SOL     OW69347   6.493   8.587   5.647 -0.2754 -0.5790 -0.1180
22447SOL    HW169348   6.437   8.525   5.694  2.6170 -2.1411  1.5425
22447SOL    HW269349   6.530   8.535   5.575 -2.3683  1.0014 -2.5388
22448SOL     OW69350   3.336   4.405   0.859  0.5156 -0.2253 -0.4907
22448SOL    HW169351   3.262   4.461   0.835 -0.3877 -1.0563  0.3007
22448SOL    HW269352   3.395   4.464   0.906 -0.0606  0.2506 -0.3427
22449SOL     OW69353   4.903   8.443   3.253 -0.8049  0.0036 -0.3656
22449SOL    HW169354   4.878   8.481   3.337 -0.3222 -1.0417  0.2660
22449SOL    HW269355   4.889   8.514   3.190 -2.8916  0.2588  0.3087
22450SOL     OW69356   6.268   3.579   8.135  0.4925 -0.4454 -0.0193
22450SOL    HW169357   6.326   3.546   8.067 -0.4786 -0.0660 -1.0640
22450SOL    HW269358   6.193   3.520   8.134  0.4572 -0.4252  0.7249
22451SOL     OW69359   4.286   4.140   8.483 -0.3064 -0.1697 -0.4353
22451SOL    HW169360   4.350   4.073   8.508 -0.3088 -0.0510 -0.1016
22451SOL    HW269361   4.225   4.095   8.425  0.7976  0.0270 -1.8030
22452SOL     OW69362   6.208  10.896   6.285 -0.3785  0.0258 -0.1841
22452SOL    HW169363   6.301  10.921   6.281 -0.8806  1.8476 -1.8360
22452SOL    HW269364   6.189  10.888   6.378  1.9405 -2.5999  0.2127
22453SOL     OW69365   6.214   5.212   8.265 -0.1237 -0.0784 -0.3793
22453SOL    HW169366   6.188   5.138   8.211  1.5896  0.8352 -2.6166
22453SOL    HW269367   6.256   5.272   8.204  3.3463  0.3932  2.2144
22454SOL     OW69368   3.779   7.291   4.247  0.3923  0.1296  1.0856
22454SOL    HW169369   3.842   7.356   4.276 -0.1408  0.6472  1.1131
22454SOL    HW269370   3.715   7.341   4.196  0.5685 -0.5486  0.1762
22455SOL     OW69371   8.543  10.405   6.224 -0.0851 -0.4687  0.0930
22455SOL    HW169372   8.535  10.433   6.133  1.6563 -1.9697 -0.6105
22455SOL    HW269373   8.612  10.460   6.260  0.4723 -1.0320 -0.0720
22456SOL     OW69374  10.200   6.616  10.573 -0.2126 -0.1997  0.0342
22456SOL    HW169375  10.186   6.673  10.497  0.5984 -0.9351 -0.6822
22456SOL    HW269376  10.289   6.637  10.602  0.4875 -1.7919 -0.8569
22457SOL     OW69377   8.674  10.665   9.141 -0.2489 -0.2955 -0.1220
22457SOL    HW169378   8.657  10.734   9.077 -3.4352  0.2335  1.1390
22457SOL    HW269379   8.607  10.599   9.124  0.1232 -1.1013  1.3464
22458SOL     OW69380   6.813   6.421   8.281 -0.0705  0.2914 -0.7554
22458SOL    HW169381   6.749   6.424   8.211 -1.3114  1.4997  0.3744
22458SOL    HW269382   6.848   6.510   8.287  2.0784 -0.4310 -1.6240
22459SOL     OW69383   0.316  10.801   0.281  0.5729  0.2823  0.5895
22459SOL    HW169384   0.308  10.865   0.352  0.7008  0.2084  0.6707
22459SOL    HW269385   0.285  10.719   0.320  1.6752 -0.0019  0.8990
22460SOL     OW69386   3.785   9.308   8.005 -0.2705 -0.1024  0.2851
22460SOL    HW169387   3.720   9.371   7.972 -0.0139  0.2676  0.4866
22460SOL    HW269388   3.815   9.263   7.926  0.6199  1.0459 -0.0653
22461SOL     OW69389   5.914   7.904   5.143  0.3658  0.6623 -0.2429
22461SOL    HW169390   6.007   7.882   5.140  0.3779  0.2644  1.6312
22461SOL    HW269391   5.869   7.821   5.130  0.2118  1.0018 -2.1580
22462SOL     OW69392   4.887   1.803   7.521  0.4052 -0.0350  0.1834
22462SOL    HW169393   4.805   1.779   7.478  0.3103 -3.0829  1.8170
22462SOL    HW269394   4.955   1.764   7.467  0.7857  1.4913 -0.5156
22463SOL     OW69395   4.455   6.842   7.239 -0.2433  0.1464 -0.3982
22463SOL    HW169396   4.515   6.791   7.294 -0.3024 -1.5096 -1.7890
22463SOL    HW269397   4.368   6.810   7.262 -0.5895  1.9185  0.9768
22464SOL     OW69398   0.020   5.344   6.821  0.1072 -0.3575  0.0723
22464SOL    HW169399   0.050   5.419   6.871  1.9469 -2.7549  2.9380
22464SOL    HW269400  -0.042   5.299   6.878 -1.0554 -1.0186 -1.5984
22465SOL     OW69401   5.853   0.750   6.632 -0.3404  0.2106 -0.8484
22465SOL    HW169402   5.819   0.665   6.660  0.2555  0.3248  0.2545
22465SOL    HW269403   5.774   0.801   6.612 -0.7543 -0.2040 -0.3274
22466SOL     OW69404   8.290   4.042   6.457  0.0581  0.2485 -0.0992
22466SOL    HW169405   8.225   4.030   6.526  0.2148 -0.4981 -0.0770
22466SOL    HW269406   8.334   3.957   6.450  0.5160  0.5240 -0.6346
22467SOL     OW69407   5.163   3.246   2.266  0.1582 -0.4556  0.5207
22467SOL    HW169408   5.209   3.306   2.325  0.6330  0.0148 -0.3098
22467SOL    HW269409   5.100   3.302   2.220 -1.3049 -1.1074  1.6898
22468SOL     OW69410   3.826   7.643   8.783  0.2689 -0.6606  0.1678
22468SOL    HW169411   3.784   7.564   8.815 -0.6254 -0.2355  0.0692
22468SOL    HW269412   3.755   7.707   8.773  1.1282  0.5673  1.4795
22469SOL     OW69413   7.691   2.396  10.621  0.1986  0.1047 -0.5667
22469SOL    HW169414   7.655   2.483  10.609 -1.3674 -0.7834 -3.1252
22469SOL    HW269415   7.761   2.389  10.556 -0.1543 -0.7493 -0.8756
22470SOL     OW69416   4.918   9.645   1.351 -0.2990 -0.0234  0.1898
22470SOL    HW169417   4.898   9.719   1.409  0.9967  0.5727 -0.0939
22470SOL    HW269418   4.974   9.682   1.283 -1.5087 -0.7829 -1.2879
22471SOL     OW69419   5.903   2.510   2.323 -0.1522 -0.0479 -0.1559
22471SOL    HW169420   5.907   2.436   2.382  0.2485 -0.7266 -1.0173
22471SOL    HW269421   5.975   2.497   2.262  1.1135  2.0144  0.7650
22472SOL     OW69422   3.677   3.037   1.912  0.0361 -0.2554 -0.6383
22472SOL    HW169423   3.755   3.089   1.934 -0.2271  0.3606 -1.1306
22472SOL    HW269424   3.711   2.962   1.864  0.5775 -1.3705  1.3909
22473SOL     OW69425   6.107   4.690  10.940  0.4075 -0.0834 -0.2921
22473SOL    HW169426   6.015   4.684  10.914  0.7066  0.8498 -1.6303
22473SOL    HW269427   6.104   4.723  11.030 -0.5370  0.9917 -0.7000
22474SOL     OW69428   2.868   9.006   3.145  0.3442 -0.2846 -0.4074
22474SOL    HW169429   2.801   8.938   3.145 -0.9199  0.9020 -0.9029
22474SOL    HW269430   2.864   9.044   3.232  0.4975 -0.3295 -0.3810
22475SOL     OW69431   2.276   9.924   7.754  0.0825 -0.2497 -0.1004
22475SOL    HW169432   2.190   9.923   7.796 -0.3983  0.4815 -1.0137
22475SOL    HW269433   2.327   9.986   7.804 -0.7964  1.3628 -1.1224
22476SOL     OW69434   2.864   0.357   2.531  0.1055  0.4686 -0.1322
22476SOL    HW169435   2.895   0.342   2.621  1.4448  0.7389 -0.5309
22476SOL    HW269436   2.780   0.311   2.527  1.2084 -1.7688  0.5110
22477SOL     OW69437   4.055  10.219   5.780 -0.5121  0.0412 -0.1205
22477SOL    HW169438   4.021  10.179   5.700 -0.4139 -0.9593  0.3209
22477SOL    HW269439   4.123  10.279   5.750 -1.5467  0.8736 -0.8908
22478SOL     OW69440   1.037  10.198   1.747 -0.7079  0.1500 -0.2280
22478SOL    HW169441   0.973  10.128   1.757 -0.5441  0.2356  1.8306
22478SOL    HW269442   1.097  10.187   1.820  0.9117  0.8382 -1.3875
22479SOL     OW69443  10.704   7.222   6.866  0.5901 -0.0047  0.6308
22479SOL    HW169444  10.660   7.167   6.801  0.8106 -0.4464  0.8523
22479SOL    HW269445  10.756   7.161   6.918  0.3409  0.3341  1.2865
22480SOL     OW69446   1.404  10.702   8.039  0.5793 -1.1384  0.4991
22480SOL    HW169447   1.373  10.612   8.024  1.1480 -1.3823  0.7623
22480SOL    HW269448   1.499  10.694   8.042  0.5778 -1.0992  3.9870
22481SOL     OW69449   1.260   8.868   2.842  1.0938  0.4226 -0.1222
22481SOL    HW169450   1.173   8.879   2.805 -0.0478 -0.8173  1.9834
22481SOL    HW269451   1.300   8.799   2.789  0.2824  0.0760 -0.2948
22482SOL     OW69452   3.365   8.348   3.801 -0.2504  0.1398  0.3513
22482SOL    HW169453   3.310   8.310   3.869  0.1202  1.6424  1.5286
22482SOL    HW269454   3.446   8.297   3.804  0.3125  1.0729  2.0326
22483SOL     OW69455   7.550   1.055   0.304 -0.1482  0.2560  0.1427
22483SOL    HW169456   7.484   1.124   0.313 -1.0919 -0.5294 -0.5375
22483SOL    HW269457   7.502   0.980   0.270  1.1258 -0.3132 -0.4664
22484SOL     OW69458   5.024  10.040   7.556  0.1328 -0.1654  0.1380
22484SOL    HW169459   5.029  10.052   7.461 -2.6060  0.2259 -0.0543
22484SOL    HW269460   5.062  10.120   7.592 -0.0145  0.2883 -0.6722
22485SOL     OW69461   1.707   5.396   0.655 -0.6637  0.1661 -0.2447
22485SOL    HW169462   1.719   5.301   0.657 -0.0133  0.2567  0.4746
22485SOL    HW269463   1.666   5.417   0.739  3.0138  0.9792  1.5300
22486SOL     OW69464   6.767   3.179   4.019  0.1880  0.0106  0.1270
22486SOL    HW169465   6.697   3.159   3.957 -0.0787  2.1519 -0.3449
22486SOL    HW269466   6.791   3.269   3.999  1.7863 -0.0560  1.5531
22487SOL     OW69467   6.295   8.106   5.119 -0.4130  0.8012 -0.3296
22487SOL    HW169468   6.361   8.055   5.166 -0.5153  0.3549 -0.6625
22487SOL    HW269469   6.278   8.056   5.040 -1.3986  0.7343 -0.0909
22488SOL     OW69470   7.148   6.068   4.242  0.5470 -0.3055  0.2852
22488SOL    HW169471   7.231   6.044   4.283  1.1104  0.9152 -0.0746
22488SOL    HW269472   7.104   5.985   4.226  0.8418 -0.8809  2.2241
22489SOL     OW69473   4.477   9.130   7.724  0.1505  0.6042  0.2491
22489SOL    HW169474   4.476   9.123   7.628 -1.1740 -0.5320  0.3172
22489SOL    HW269475   4.566   9.106   7.749 -0.3338 -2.3753 -0.5407
22490SOL     OW69476   2.241   5.069   0.309  0.2948 -0.2137  0.4714
22490SOL    HW169477   2.174   5.116   0.358 -0.2042 -0.1106 -0.2940
22490SOL    HW269478   2.194   4.995   0.269  0.2033  0.8910 -1.5876
22491SOL     OW69479   6.232   6.206   2.687 -0.3081 -0.0933  0.0145
22491SOL    HW169480   6.173   6.249   2.625  1.1970  0.4263 -1.1179
22491SOL    HW269481   6.257   6.276   2.747 -1.4581 -0.5077  1.0168
22492SOL     OW69482   5.911   6.896   4.091 -0.0897  0.3379 -0.5590
22492SOL    HW169483   5.834   6.949   4.073 -0.1168  1.0741  1.5446
22492SOL    HW269484   5.964   6.948   4.151  0.8095 -1.2157  0.0652
22493SOL     OW69485   1.590   6.881   9.164 -0.6093  0.1886  0.3692
22493SOL    HW169486   1.562   6.918   9.247  0.1943  0.3580  0.5714
22493SOL    HW269487   1.591   6.786   9.180 -3.6445 -0.1008 -0.4460
22494SOL     OW69488   7.136   7.549   3.878  0.2197 -0.5527  0.7187
22494SOL    HW169489   7.110   7.471   3.829 -0.4298  0.1617 -0.1033
22494SOL    HW269490   7.223   7.528   3.912  1.1481 -0.7054 -1.5758
22495SOL     OW69491   2.574   1.441   7.503  0.5344  0.3492 -0.2435
22495SOL    HW169492   2.604   1.412   7.417 -0.4583  2.9865 -1.5840
22495SOL    HW269493   2.653   1.466   7.549  0.9043  1.6614 -1.5239
22496SOL     OW69494   6.297   0.696   1.304  0.4835  0.1022 -0.5395
22496SOL    HW169495   6.236   0.763   1.336 -2.4494 -2.3877 -0.4228
22496SOL    HW269496   6.323   0.649   1.383 -0.7044 -1.3297 -0.9652
22497SOL     OW69497   0.711   3.995   1.185  0.2482  0.2914  0.0010
22497SOL    HW169498   0.775   3.924   1.186 -0.2117 -0.1228  0.5971
22497SOL    HW269499   0.636   3.959   1.138  0.8008  1.1021 -1.5546
22498SOL     OW69500   5.852   3.005   4.775  0.0132  0.0463 -0.2446
22498SOL    HW169501   5.781   3.052   4.818  0.3333  0.4327 -0.1339
22498SOL    HW269502   5.851   2.918   4.814  0.2960  0.3897  0.5449
22499SOL     OW69503   3.896   4.211   5.641 -0.6000 -0.3861  0.1498
22499SOL    HW169504   3.988   4.238   5.639 -0.0303 -2.1817  0.3236
22499SOL    HW269505   3.877   4.198   5.734 -0.5602 -1.4666  0.0180
22500SOL     OW69506   4.631   2.913   7.918 -0.0284  0.1349  0.8784
22500SOL    HW169507   4.632   3.003   7.886  0.8216  0.1720  0.9904
22500SOL    HW269508   4.690   2.865   7.859 -1.2326 -0.5758  0.2128
22501SOL     OW69509   0.676   5.032   7.117  0.0608 -0.0209  0.6221
22501SOL    HW169510   0.746   5.068   7.172 -0.5170  0.5770  0.9857
22501SOL    HW269511   0.663   4.943   7.150  1.2064 -0.4366  0.0021
22502SOL     OW69512   2.831  10.283   8.499 -0.0270  0.2237 -0.2060
22502SOL    HW169513   2.753  10.292   8.444 -0.3738  2.0893  0.5165
22502SOL    HW269514   2.798  10.257   8.584  0.5182 -2.7434 -0.7974
22503SOL     OW69515   0.839   6.478   3.374  0.2512 -0.4934  0.1143
22503SOL    HW169516   0.821   6.555   3.321  2.4247  0.0741  0.0822
22503SOL    HW269517   0.906   6.507   3.436  1.0972 -2.3376  0.1268
22504SOL     OW69518   7.374   0.872   3.440 -0.1078  0.0080 -0.1047
22504SOL    HW169519   7.312   0.944   3.437 -1.7478 -1.3106  0.4813
22504SOL    HW269520   7.346   0.812   3.372  0.8800 -0.3640 -0.2096
22505SOL     OW69521  10.640   0.441   2.618 -0.2611  0.2186  0.3346
22505SOL    HW169522  10.577   0.369   2.624 -0.2577  0.2442  0.6992
22505SOL    HW269523  10.587   0.519   2.601 -0.3302  0.2436  0.6636
22506SOL     OW69524   4.361   3.669   3.294  0.2135 -0.2279 -0.4209
22506SOL    HW169525   4.345   3.733   3.225 -1.3289  1.0038  0.9971
22506SOL    HW269526   4.311   3.592   3.267 -0.1085  0.1237 -0.8414
22507SOL     OW69527   9.319   5.161   9.787 -0.2358  0.0447  0.5741
22507SOL    HW169528   9.333   5.254   9.805  0.8043  0.1343 -0.5430
22507SOL    HW269529   9.257   5.160   9.714  2.3053  0.0505 -1.7483
22508SOL     OW69530   9.930   7.437   4.587 -0.1120 -0.0321  0.2145
22508SOL    HW169531   9.916   7.343   4.600  0.4152 -0.1445 -0.0082
22508SOL    HW269532  10.025   7.448   4.594 -0.2102  0.5478  0.6418
22509SOL     OW69533  10.076   9.931   6.699 -0.1536  0.0153  0.8097
22509SOL    HW169534  10.082   9.909   6.792 -0.1027 -1.1265  0.5452
22509SOL    HW269535  10.163   9.913   6.664 -1.0480 -3.0242 -0.1560
22510SOL     OW69536  10.015   5.948   2.232  0.0163  0.1485  0.2775
22510SOL    HW169537  10.098   5.903   2.222 -0.5059 -0.9589  0.7205
22510SOL    HW269538  10.017   6.018   2.167  0.2135 -1.5069 -1.6046
22511SOL     OW69539   9.625   7.713   4.901 -0.4963  0.3576  0.2932
22511SOL    HW169540   9.656   7.718   4.991 -0.3561 -1.2935  0.3689
22511SOL    HW269541   9.704   7.715   4.848 -0.5834  1.4334  0.1674
22512SOL     OW69542   3.336   5.822   5.681  0.0357  0.3954  0.1077
22512SOL    HW169543   3.284   5.832   5.760  0.0310  1.4693 -0.0231
22512SOL    HW269544   3.416   5.778   5.710  0.2806  1.2891  0.8112
22513SOL     OW69545   2.127   5.336   3.605  0.6455  0.5657  0.2167
22513SOL    HW169546   2.094   5.426   3.605  0.8006  0.6364 -0.9564
22513SOL    HW269547   2.217   5.343   3.575  1.1051  0.1574  1.4607
22514SOL     OW69548   3.090  10.170  10.409 -0.3808  0.0844 -0.0140
22514SOL    HW169549   3.006  10.182  10.453 -1.0292 -0.9963 -0.8844
22514SOL    HW269550   3.100  10.248  10.355 -0.9264  0.1292 -0.0550
22515SOL     OW69551   4.529   0.996   2.579 -0.1656 -0.5267 -0.8517
22515SOL    HW169552   4.536   1.014   2.486 -1.7832  1.4668 -0.6651
22515SOL    HW269553   4.490   1.076   2.616 -4.0386 -2.8860  0.8077
22516SOL     OW69554  10.175  10.808   4.254  0.0893  0.7341  0.1423
22516SOL    HW169555  10.103  10.846   4.303 -0.5320 -0.5117  0.2257
22516SOL    HW269556  10.221  10.884   4.217 -0.3862  1.6088  1.2791
22517SOL     OW69557   0.925   3.241   1.637  0.3061  0.1482  0.1812
22517SOL    HW169558   0.951   3.187   1.712  2.8991 -0.2836 -0.9172
22517SOL    HW269559   0.929   3.331   1.671 -0.1866 -0.1286  0.9979
22518SOL     OW69560   5.022   2.486   0.608 -0.3426 -0.0244 -0.2883
22518SOL    HW169561   5.090   2.473   0.541 -0.2126 -0.2717 -0.1102
22518SOL    HW269562   5.055   2.558   0.662  1.6503 -2.5188  2.1177
22519SOL     OW69563   6.259   2.057   1.147 -0.5586 -0.6680  0.2325
22519SOL    HW169564   6.242   1.966   1.127 -1.2853 -0.3119 -0.8598
22519SOL    HW269565   6.234   2.067   1.239 -2.4405 -1.1246 -0.1883
22520SOL     OW69566   8.179   8.283   4.091  0.1960 -0.3103  0.0602
22520SOL    HW169567   8.117   8.217   4.120 -0.7404  1.2013  1.6755
22520SOL    HW269568   8.237   8.296   4.166 -0.3855  1.5277  0.2349
22521SOL     OW69569   1.447   7.118   3.172 -0.3143  0.1629  0.4729
22521SOL    HW169570   1.442   7.047   3.236  3.5849 -0.6752  0.0709
22521SOL    HW269571   1.399   7.190   3.212 -2.6635 -1.9687  1.8151
22522SOL     OW69572   6.877   5.626   1.530 -0.2591  0.2263  0.1522
22522SOL    HW169573   6.898   5.674   1.610  0.3108 -0.0771  0.1862
22522SOL    HW269574   6.934   5.549   1.532 -0.0337  0.3686 -0.6928
22523SOL     OW69575  10.742   6.863   5.716 -0.2800 -0.4319 -0.0631
22523SOL    HW169576  10.785   6.783   5.747  1.0332 -0.2145 -1.2250
22523SOL    HW269577  10.808   6.907   5.663 -1.0480  1.3439  0.3748
22524SOL     OW69578   2.170   0.550   7.213  0.5353 -0.0522  0.0082
22524SOL    HW169579   2.260   0.580   7.205  0.1708  1.2890  0.5301
22524SOL    HW269580   2.175   0.470   7.265  1.5631 -0.9730 -1.4457
22525SOL     OW69581   6.671   8.240   9.401  0.2981  0.2891  0.6187
22525SOL    HW169582   6.678   8.231   9.496 -0.5225  1.6052  0.8360
22525SOL    HW269583   6.745   8.295   9.376  0.7715 -0.4259  0.4213
22526SOL     OW69584   6.990  10.274   9.612  0.0001  0.2943 -0.2845
22526SOL    HW169585   6.932  10.292   9.687  0.7512  0.3819  0.2818
22526SOL    HW269586   7.056  10.343   9.616  0.3046  0.0316 -0.7652
22527SOL     OW69587  10.760   8.421   7.983  0.5136 -0.1715 -0.4981
22527SOL    HW169588  10.673   8.380   7.988  0.5924 -0.3991 -0.9925
22527SOL    HW269589  10.777   8.450   8.073  0.1724 -0.6375 -0.2767
22528SOL     OW69590   5.034   4.559   9.887 -0.4774  0.2156  0.0030
22528SOL    HW169591   4.976   4.552   9.811 -0.4392 -0.5855  0.0326
22528SOL    HW269592   4.979   4.537   9.962 -0.6302  1.4706  0.2695
22529SOL     OW69593   7.542   7.260   6.463 -0.0867 -0.5161  0.1558
22529SOL    HW169594   7.627   7.283   6.424 -1.0863  0.5840 -1.4863
22529SOL    HW269595   7.522   7.333   6.521  0.2753 -1.0048  0.9195
22530SOL     OW69596   6.467   3.716   0.816  0.7856 -0.1160 -0.0362
22530SOL    HW169597   6.520   3.664   0.755 -0.0348 -0.4984 -0.4531
22530SOL    HW269598   6.529   3.773   0.860  1.4411 -0.0180 -1.0530
22531SOL     OW69599   0.511   5.590   3.145 -0.4516 -0.0673  0.3752
22531SOL    HW169600   0.567   5.642   3.203 -0.0073 -1.4708  1.2564
22531SOL    HW269601   0.423   5.601   3.181 -0.6183  1.2798 -0.3730
22532SOL     OW69602  10.650  10.730   0.959  0.3850 -0.7264  0.4752
22532SOL    HW169603  10.555  10.719   0.955  0.5964 -2.5158 -1.1686
22532SOL    HW269604  10.665  10.818   0.928 -0.7445 -0.2707  1.1369
22533SOL     OW69605   6.483   3.683   2.783 -0.1063  0.4901  0.1744
22533SOL    HW169606   6.570   3.646   2.769 -0.1514  0.2166  0.6134
22533SOL    HW269607   6.499   3.775   2.803  0.0602  0.5122 -0.0543
22534SOL     OW69608   1.986   5.779  10.500 -0.1671 -0.5281 -0.3164
22534SOL    HW169609   1.994   5.711  10.566 -1.7071  1.7016  2.3814
22534SOL    HW269610   2.064   5.833  10.511 -1.1437  0.7114  0.8376
22535SOL     OW69611   1.329   9.365   4.160  0.0274 -0.3010 -0.9333
22535SOL    HW169612   1.290   9.453   4.158  0.5321 -0.0848 -2.4870
22535SOL    HW269613   1.421   9.379   4.140  0.1154 -1.1914 -1.1686
22536SOL     OW69614   7.290   5.369  10.953 -0.0627  0.0390  0.9612
22536SOL    HW169615   7.299   5.455  10.912  0.3400  0.5562  2.0985
22536SOL    HW269616   7.258   5.387  11.041 -0.9258 -1.0533  0.8988
22537SOL     OW69617   0.237   4.365   3.050  0.2406 -0.0954 -0.1001
22537SOL    HW169618   0.223   4.324   3.135 -1.6997  0.7996  0.0756
22537SOL    HW269619   0.150   4.366   3.009  0.6433  1.7801 -1.0161
22538SOL     OW69620   1.018   8.896   2.733  0.3665  0.0112 -0.1670
22538SOL    HW169621   0.992   8.819   2.682  0.8817  0.5574 -1.3040
22538SOL    HW269622   0.958   8.897   2.808  0.4708 -1.5820 -0.0317
22539SOL     OW69623   4.084   7.336   8.151 -0.1594 -0.1105  0.0168
22539SOL    HW169624   4.155   7.300   8.097 -0.2517  2.7020 -2.2262
22539SOL    HW269625   4.073   7.426   8.119 -1.3554  1.2560  3.7389
22540SOL     OW69626  10.258   7.649  10.074  0.7993 -0.2301 -0.3159
22540SOL    HW169627  10.195   7.655  10.145 -0.7012 -2.8689 -1.2578
22540SOL    HW269628  10.327   7.592  10.108  0.8619 -0.2309 -0.4417
22541SOL     OW69629   4.126  10.935   2.773  0.2603 -0.3507  0.2572
22541SOL    HW169630   4.213  10.972   2.756  0.1039  0.3281  0.8677
22541SOL    HW269631   4.111  10.953   2.866 -0.6463 -0.2313  0.0937
22542SOL     OW69632   8.678   5.968   7.193  0.3533 -0.4044  0.5811
22542SOL    HW169633   8.590   6.004   7.203  0.2695 -0.0207 -1.2004
22542SOL    HW269634   8.736   6.039   7.218  0.1733 -0.5416  1.4154
22543SOL     OW69635   0.563   7.502   1.533 -0.0433  0.0821 -0.2557
22543SOL    HW169636   0.505   7.517   1.458 -0.0288 -2.0151 -0.7422
22543SOL    HW269637   0.504   7.493   1.608 -0.1059  1.3105 -0.1306
22544SOL     OW69638   6.592   2.918   5.402  0.1274 -0.3588 -0.1243
22544SOL    HW169639   6.595   2.990   5.339 -0.3106 -1.1176 -1.0533
22544SOL    HW269640   6.528   2.857   5.365  0.8458 -1.4516  0.3768
22545SOL     OW69641   8.529   2.428   2.730 -0.0967  0.5672  0.0639
22545SOL    HW169642   8.490   2.425   2.817 -0.0332  1.0085  0.1097
22545SOL    HW269643   8.604   2.487   2.739  1.2960 -1.1379  0.2639
22546SOL     OW69644   5.272   7.539   0.421 -0.0548 -0.2652  0.0919
22546SOL    HW169645   5.305   7.506   0.504  1.6200 -0.8287 -0.7391
22546SOL    HW269646   5.307   7.478   0.356 -2.1797 -0.4286 -0.9542
22547SOL     OW69647   4.953  10.756   7.480  0.1851  0.3929 -0.3870
22547SOL    HW169648   4.988  10.687   7.425 -0.1500  1.2383 -1.7074
22547SOL    HW269649   4.922  10.711   7.559  1.8497 -0.6778 -0.2987
22548SOL     OW69650   0.825   1.814   0.312  0.2607  0.0651  0.4559
22548SOL    HW169651   0.788   1.811   0.224 -1.6361  0.2373  1.1998
22548SOL    HW269652   0.749   1.811   0.370  1.4113  0.9685  2.0838
22549SOL     OW69653  10.863  10.211   3.445 -0.1438  0.3826 -0.8806
22549SOL    HW169654  10.821  10.296   3.439 -1.0709 -0.1513 -2.5532
22549SOL    HW269655  10.914  10.204   3.365  0.8095 -0.2056 -0.2499
22550SOL     OW69656   9.983   2.684   5.328  0.6141  0.5138  0.3130
22550SOL    HW169657  10.010   2.773   5.351  0.3970  1.3999 -2.4532
22550SOL    HW269658  10.064   2.640   5.302  0.4267  0.6668 -0.5459
22551SOL     OW69659   9.713   8.103   9.012 -0.3080  0.5420  0.2039
22551SOL    HW169660   9.626   8.111   9.052 -0.8577  0.3955 -0.9316
22551SOL    HW269661   9.767   8.063   9.081 -1.6897 -1.5200  0.1928
22552SOL     OW69662  10.528   2.949   7.115 -0.9230  0.3052  0.0340
22552SOL    HW169663  10.584   3.010   7.164 -0.7735  0.9626 -0.9374
22552SOL    HW269664  10.465   3.006   7.070 -0.8342 -0.2572 -0.8199
22553SOL     OW69665   4.094   1.599   3.309  0.0779  0.4762  0.8657
22553SOL    HW169666   4.166   1.570   3.253 -0.3945  2.1085 -0.6853
22553SOL    HW269667   4.042   1.520   3.324 -0.0850  0.0820 -1.4956
22554SOL     OW69668  10.481   7.874  10.602  0.0228  0.6466  0.3307
22554SOL    HW169669  10.452   7.809  10.666 -1.8702 -0.0526 -1.1288
22554SOL    HW269670  10.495   7.824  10.522 -3.1572  2.1061 -1.3268
22555SOL     OW69671   3.610   2.450  10.650  0.2044 -0.1872  0.1847
22555SOL    HW169672   3.546   2.466  10.719  0.6818 -0.0198  0.6002
22555SOL    HW269673   3.645   2.537  10.630 -0.0547 -0.2122 -0.3921
22556SOL     OW69674   1.482  10.860   5.218  0.4741  0.0489  0.0228
22556SOL    HW169675   1.563  10.867   5.166 -0.1560 -0.2404 -1.0191
22556SOL    HW269676   1.470  10.948   5.253  0.4839  0.4786 -0.9987
22557SOL     OW69677   9.976   5.191   4.358  0.8991 -0.4631 -0.4378
22557SOL    HW169678   9.990   5.113   4.412 -1.1695 -0.0862  0.7604
22557SOL    HW269679   9.886   5.182   4.326  0.7056  1.3014 -0.4777
22558SOL     OW69680   4.983   8.128   1.642 -0.3819 -0.1347 -0.1343
22558SOL    HW169681   4.939   8.188   1.702  0.3808  1.5186 -1.1395
22558SOL    HW269682   4.991   8.046   1.690 -3.1981 -0.0560  0.5987
22559SOL     OW69683   6.228   4.961   9.184  0.5211 -0.3993 -0.4465
22559SOL    HW169684   6.283   4.883   9.179  1.3821  0.0020  1.7161
22559SOL    HW269685   6.147   4.930   9.226  0.2364 -0.4079 -0.9869
22560SOL     OW69686   6.085   4.390   8.046  0.1329  0.3938 -0.4720
22560SOL    HW169687   6.077   4.316   7.986  1.3361  1.1672 -1.6622
22560SOL    HW269688   6.004   4.391   8.096 -0.0317 -1.5284 -0.6454
22561SOL     OW69689   2.963   2.446   1.641 -0.2506 -0.4017 -0.0117
22561SOL    HW169690   2.884   2.467   1.691 -0.3505 -0.1995 -0.2555
22561SOL    HW269691   3.034   2.491   1.688 -0.4558  0.4701 -0.5057
22562SOL     OW69692   5.254   6.938   4.361 -0.5286 -0.7606 -1.3175
22562SOL    HW169693   5.247   6.873   4.291  2.6211 -0.4822 -2.0685
22562SOL    HW269694   5.307   6.895   4.428  0.2553  0.4344 -1.1253
22563SOL     OW69695   2.161   0.359   5.299 -0.4213  0.2998  0.5434
22563SOL    HW169696   2.158   0.343   5.204  1.6606  1.7698  0.1561
22563SOL    HW269697   2.078   0.325   5.332 -0.8956 -0.9245 -1.6955
22564SOL     OW69698   2.399   8.165   0.630 -0.1612 -0.4031 -0.3948
22564SOL    HW169699   2.314   8.194   0.599  0.4766  0.7212 -1.1595
22564SOL    HW269700   2.437   8.242   0.674 -0.0167 -1.2341  1.0230
22565SOL     OW69701   9.110   5.810   8.875 -0.2414 -0.2186  0.8186
22565SOL    HW169702   9.050   5.819   8.950  0.0278 -0.4753  1.0664
22565SOL    HW269703   9.186   5.765   8.911  1.2670  2.3637  1.1520
22566SOL     OW69704   6.084   0.815   6.752  0.1604 -0.6141 -0.0588
22566SOL    HW169705   6.046   0.903   6.759  1.7378  0.3290 -2.1231
22566SOL    HW269706   6.016   0.763   6.709 -0.8081 -0.4542  1.2294
22567SOL     OW69707   5.150   0.306   1.660  0.5729  0.3501 -0.2989
22567SOL    HW169708   5.086   0.237   1.678  0.4278  0.6367  0.2992
22567SOL    HW269709   5.108   0.360   1.594  0.3309  0.3479 -0.1499
22568SOL     OW69710  10.770   5.384   9.339  0.2747 -0.1663 -0.6712
22568SOL    HW169711  10.755   5.331   9.261  0.6253 -0.5427 -0.4878
22568SOL    HW269712  10.690   5.375   9.391 -0.4629  1.0552 -1.5252
22569SOL     OW69713   7.196   7.338   1.065  0.3446  0.0062  0.5978
22569SOL    HW169714   7.113   7.358   1.109  0.6475  0.4394  0.9734
22569SOL    HW269715   7.255   7.409   1.091  0.6849 -0.0243 -0.0782
22570SOL     OW69716   5.525   4.863   2.008 -0.4135  0.2109  0.3453
22570SOL    HW169717   5.438   4.892   2.036 -0.7745 -0.7249  0.1942
22570SOL    HW269718   5.563   4.941   1.966 -1.2817  0.5376  0.1459
22571SOL     OW69719   5.396   4.783   8.404  0.0612 -0.2382  0.2548
22571SOL    HW169720   5.446   4.706   8.377  2.2244  0.9021  0.8013
22571SOL    HW269721   5.370   4.825   8.322  1.8611  0.2705 -0.0862
22572SOL     OW69722   3.860   3.115   5.385  0.7237 -0.3039 -0.2227
22572SOL    HW169723   3.815   3.140   5.466  2.4993  0.0156  0.7168
22572SOL    HW269724   3.911   3.192   5.361  0.0161 -0.3018 -1.8407
22573SOL     OW69725   1.373   6.851   5.238 -0.1771  0.2452 -0.0397
22573SOL    HW169726   1.434   6.881   5.170  0.5894  0.4091  0.7098
22573SOL    HW269727   1.320   6.784   5.194 -1.3057  1.9753 -1.4896
22574SOL     OW69728   4.039   5.876   6.268 -0.1812  0.3207 -0.3748
22574SOL    HW169729   3.970   5.936   6.297 -0.1408  0.2338 -0.1037
22574SOL    HW269730   4.008   5.789   6.293  0.6749  0.3956  1.0358
22575SOL     OW69731   3.675   4.249   4.203  0.0425 -0.0182 -0.1998
22575SOL    HW169732   3.581   4.232   4.207  0.1499 -0.3546  1.1510
22575SOL    HW269733   3.716   4.164   4.218  0.5636  0.2770  0.0863
22576SOL     OW69734  10.317   8.958   3.062 -0.5931  0.3794 -0.4770
22576SOL    HW169735  10.271   8.902   2.999  2.0202 -1.2106 -1.0829
22576SOL    HW269736  10.371   9.016   3.008 -0.9412  1.4509  0.2700
22577SOL     OW69737   4.672   3.835   8.368 -0.0443  0.6617 -0.1611
22577SOL    HW169738   4.759   3.836   8.407 -0.0220  0.2106 -0.1874
22577SOL    HW269739   4.617   3.882   8.430  0.1653  0.7089 -0.0099
22578SOL     OW69740   5.799   9.921  10.514  0.1538  0.0326 -0.8009
22578SOL    HW169741   5.798   9.878  10.429  0.7869 -2.9688  0.5489
22578SOL    HW269742   5.709   9.914  10.546  0.4621 -1.4650 -0.1364
22579SOL     OW69743   6.943   7.026   4.324 -0.1576  0.1486 -0.4030
22579SOL    HW169744   6.910   6.986   4.244 -0.4474 -0.4658  0.0161
22579SOL    HW269745   6.867   7.031   4.381 -0.3805  2.2316 -0.7854
22580SOL     OW69746  11.028   1.446   5.430 -0.3744  0.4087  0.2087
22580SOL    HW169747  10.996   1.528   5.393 -0.9119  0.6285  1.1185
22580SOL    HW269748  11.088   1.411   5.364 -0.9175  1.0228 -0.6284
22581SOL     OW69749   6.724   2.231   0.251  1.1369  0.0341  0.2600
22581SOL    HW169750   6.705   2.238   0.158  1.3091 -0.6676  0.1628
22581SOL    HW269751   6.662   2.291   0.293  0.1008 -0.6755 -0.2052
22582SOL     OW69752   0.652  10.364   2.833 -0.7965  0.3189  0.1081
22582SOL    HW169753   0.644  10.454   2.866 -2.7266 -0.3889  1.7567
22582SOL    HW269754   0.665  10.311   2.911 -0.2622 -0.9217 -0.7906
22583SOL     OW69755   1.113   1.766   1.302  0.0940 -1.0959 -0.1262
22583SOL    HW169756   1.144   1.839   1.249  0.5790 -0.2237  1.3184
22583SOL    HW269757   1.193   1.726   1.336 -0.2358 -1.3047  0.4010
22584SOL     OW69758   6.038   0.987   1.716  0.0952 -0.3578  0.1739
22584SOL    HW169759   6.134   0.986   1.709  0.1343 -0.4784  0.7002
22584SOL    HW269760   6.017   0.912   1.771 -0.2933 -0.2211  0.2150
22585SOL     OW69761   0.994   1.665   8.977 -0.7765 -0.0295 -0.1784
22585SOL    HW169762   1.029   1.580   8.950  1.6152  0.9268 -0.3756
22585SOL    HW269763   0.965   1.705   8.895 -1.2387 -0.3584 -0.1803
22586SOL     OW69764   1.137   4.760   0.986  0.1505  0.3469  0.0927
22586SOL    HW169765   1.130   4.776   1.080 -0.3757  0.7484 -0.0122
22586SOL    HW269766   1.177   4.673   0.979 -1.2191 -0.3594  0.7000
22587SOL     OW69767   8.116   4.805   7.943  0.3049  0.2923  0.0121
22587SOL    HW169768   8.117   4.893   7.906 -1.0754 -0.6751 -2.5314
22587SOL    HW269769   8.195   4.764   7.908  0.0979  0.0200 -0.1367
22588SOL     OW69770   8.896   6.379  10.042 -0.3274  0.7717 -0.1920
22588SOL    HW169771   8.884   6.461  10.091  1.7251  1.1488 -0.2128
22588SOL    HW269772   8.906   6.312  10.109 -0.4786  0.7927 -0.1489
22589SOL     OW69773   3.540   7.709  10.154  0.0232  0.3130 -0.1110
22589SOL    HW169774   3.623   7.688  10.111 -0.5640  0.1895 -1.2206
22589SOL    HW269775   3.527   7.637  10.217  1.5245  1.1690  1.2539
22590SOL     OW69776   5.360  10.807   4.755  0.0690  0.1988  0.0263
22590SOL    HW169777   5.276  10.813   4.710  0.3102  2.7850 -0.2407
22590SOL    HW269778   5.375  10.895   4.790  3.1077  0.1236 -0.7973
22591SOL     OW69779   9.741   0.591   4.333 -0.1935  0.1792 -0.0658
22591SOL    HW169780   9.674   0.654   4.358 -0.8347 -0.1231 -0.9846
22591SOL    HW269781   9.716   0.510   4.378 -0.1581  0.2007 -0.0070
22592SOL     OW69782   7.363   1.712   8.377  0.0164  0.0122  0.9024
22592SOL    HW169783   7.414   1.643   8.333 -0.5094  0.8508 -1.1242
22592SOL    HW269784   7.401   1.793   8.344 -0.2101  0.6929  2.2836
22593SOL     OW69785   7.156   8.434  10.624  0.6542 -0.2109 -0.0142
22593SOL    HW169786   7.150   8.357  10.568 -0.1781  0.2662 -0.6003
22593SOL    HW269787   7.070   8.441  10.665 -0.1002  1.6775 -1.7128
22594SOL     OW69788   9.913   1.725   6.314  0.4275 -0.1688 -0.1102
22594SOL    HW169789   9.846   1.760   6.256  0.7350 -1.4064 -1.2411
22594SOL    HW269790   9.864   1.680   6.383  0.0580 -1.3448 -1.1045
22595SOL     OW69791  10.077   6.084   2.000 -0.7888 -0.1011  0.4432
22595SOL    HW169792  10.024   6.063   1.923 -1.0074  0.3543  0.4695
22595SOL    HW269793  10.156   6.124   1.964 -0.2044 -1.2804  0.3709
22596SOL     OW69794   3.147   1.110   1.126  0.5860  0.4895 -0.7957
22596SOL    HW169795   3.203   1.132   1.201 -1.3491  0.8211  0.6197
22596SOL    HW269796   3.154   1.015   1.119 -2.2406 -0.1465  2.4825
22597SOL     OW69797   2.297   4.299  10.007 -0.6178 -0.1677 -0.2717
22597SOL    HW169798   2.358   4.335  10.071  0.0510  1.5896 -1.8039
22597SOL    HW269799   2.230   4.366   9.996 -0.5380 -0.2729 -1.6384
22598SOL     OW69800   4.320   3.034   0.411  0.3482  0.0834 -0.1955
22598SOL    HW169801   4.274   3.101   0.361  1.7831  0.4156 -1.1461
22598SOL    HW269802   4.385   3.083   0.463 -1.3428 -0.2012  2.3911
22599SOL     OW69803   1.007   9.675   9.760  0.2696  0.0781 -0.3234
22599SOL    HW169804   1.008   9.600   9.700 -0.0490  1.4233 -2.1118
22599SOL    HW269805   1.081   9.728   9.732  0.0681  0.7743  0.4543
22600SOL     OW69806   8.048   8.537   7.066  0.2647 -0.3150  0.3917
22600SOL    HW169807   7.978   8.537   7.000  0.2497 -1.6774  0.3905
22600SOL    HW269808   8.120   8.490   7.024  0.8568  0.2791  0.7342
22601SOL     OW69809   5.912   9.559   4.324 -0.3100  0.3332 -0.4831
22601SOL    HW169810   5.871   9.588   4.406 -0.4045  0.4141 -0.5592
22601SOL    HW269811   5.867   9.609   4.256 -1.6923 -1.2127 -0.7755
22602SOL     OW69812   5.242   3.317   9.804 -0.0930 -0.3671  0.5660
22602SOL    HW169813   5.324   3.351   9.839  0.8561  0.5982 -2.3565
22602SOL    HW269814   5.183   3.392   9.805 -0.2558 -0.4946  0.6326
22603SOL     OW69815   0.091  11.033   9.043 -0.0829  0.1829  0.4038
22603SOL    HW169816   0.075  11.116   9.089 -0.7044  0.0389  0.4609
22603SOL    HW269817   0.063  10.966   9.105 -1.8811  0.0123 -0.5312
22604SOL     OW69818   7.077   8.566   9.870 -0.1577  0.0369  0.1174
22604SOL    HW169819   7.019   8.511   9.817 -2.1551  1.8193  0.3270
22604SOL    HW269820   7.134   8.609   9.806 -0.5122 -0.1118 -0.3050
22605SOL     OW69821   9.056   3.538   8.138 -0.3874  0.3614  0.6846
22605SOL    HW169822   9.092   3.451   8.155 -0.3214  0.2631  0.0721
22605SOL    HW269823   8.989   3.523   8.071  2.3004  1.2379 -2.4699
22606SOL     OW69824   8.870   5.958   1.462 -0.0800 -0.1470 -0.3735
22606SOL    HW169825   8.845   6.010   1.538 -1.4636 -0.5458 -0.5388
22606SOL    HW269826   8.964   5.945   1.472 -0.1142  0.4413  0.8632
22607SOL     OW69827   0.719   9.000   8.369 -0.4140  0.3861  0.5465
22607SOL    HW169828   0.710   8.998   8.465  1.8502  1.2356  0.8418
22607SOL    HW269829   0.703   9.092   8.346  1.2603  0.6588  0.4101
22608SOL     OW69830   5.555   9.636   8.946  0.5483 -0.4499  0.1853
22608SOL    HW169831   5.644   9.604   8.929  0.4032 -1.2458  0.8551
22608SOL    HW269832   5.541   9.618   9.039 -0.1823  0.0117  0.1698
22609SOL     OW69833   6.275   0.392   9.572 -0.1595 -0.4178 -0.1423
22609SOL    HW169834   6.301   0.386   9.480  0.9371  0.0961  0.1236
22609SOL    HW269835   6.327   0.464   9.607 -0.7145 -0.4810  0.8382
22610SOL     OW69836  10.740   4.853   8.244 -0.2578  0.4566  0.0309
22610SOL    HW169837  10.646   4.872   8.237 -0.7539 -2.0366 -1.3028
22610SOL    HW269838  10.745   4.775   8.299  1.0347  0.5935  0.1365
22611SOL     OW69839  10.663   0.568   9.609  0.4024  0.5856  0.2231
22611SOL    HW169840  10.735   0.510   9.583 -1.4053 -1.3845 -0.7330
22611SOL    HW269841  10.633   0.606   9.526 -0.5607  0.2480  0.4125
22612SOL     OW69842  10.330   9.724   4.946  0.0308 -0.1151  0.2368
22612SOL    HW169843  10.282   9.802   4.974 -0.7542 -1.0652  1.6365
22612SOL    HW269844  10.415   9.731   4.988  0.7144  0.9406 -1.2344
22613SOL     OW69845   3.415   6.015  11.008 -0.1826 -0.7466  0.2635
22613SOL    HW169846   3.393   6.105  10.985  2.0297  0.1206  1.1676
22613SOL    HW269847   3.351   5.990  11.075 -0.3875  0.4296  0.5193
22614SOL     OW69848   3.682   2.856   0.309 -0.0682  0.1063  0.1484
22614SOL    HW169849   3.739   2.882   0.237  0.2997  1.1228  0.7782
22614SOL    HW269850   3.725   2.891   0.387 -1.1216  0.1427  0.7346
22615SOL     OW69851   5.507   4.661   2.856 -0.0892 -0.0074  0.3621
22615SOL    HW169852   5.544   4.614   2.781 -0.6535  0.2302 -0.0735
22615SOL    HW269853   5.582   4.676   2.914  0.0328 -1.7704  0.6899
22616SOL     OW69854   3.390   2.163   3.611  0.2591 -0.3487 -0.6226
22616SOL    HW169855   3.301   2.153   3.646  0.2723 -0.3586 -0.5917
22616SOL    HW269856   3.421   2.074   3.598  0.7070 -0.3768  0.4881
22617SOL     OW69857   1.348   1.652   6.471 -0.5918 -0.3768 -0.3896
22617SOL    HW169858   1.395   1.698   6.541  2.5378 -3.0413 -0.4655
22617SOL    HW269859   1.280   1.713   6.443  1.0507  2.7089  1.7418
22618SOL     OW69860   6.984   0.909   1.724 -0.6397  0.2420 -0.2714
22618SOL    HW169861   6.929   0.844   1.768  0.0306 -0.0009  0.2211
22618SOL    HW269862   6.998   0.977   1.789 -0.9620  0.6714 -0.6416
22619SOL     OW69863   6.634   4.787   4.725 -0.1898 -0.5488  0.3942
22619SOL    HW169864   6.561   4.733   4.695  1.3236 -1.2205 -2.5159
22619SOL    HW269865   6.687   4.728   4.779 -0.8669 -0.5862  1.0280
22620SOL     OW69866   4.030   5.996   9.405 -0.4620  0.2007 -0.4481
22620SOL    HW169867   4.072   6.073   9.444 -0.1451  0.0531 -0.4961
22620SOL    HW269868   4.083   5.922   9.435  0.2320  0.1485 -1.7647
22621SOL     OW69869  10.201   0.553  10.204 -0.0978  0.2249  0.0068
22621SOL    HW169870  10.195   0.646  10.183  0.4661  0.3596  0.4129
22621SOL    HW269871  10.129   0.513  10.155  0.5714  0.6571 -1.4013
22622SOL     OW69872   8.525   5.334   1.378 -0.4976 -0.1762 -0.1785
22622SOL    HW169873   8.468   5.285   1.318 -0.9303 -2.4885  1.9445
22622SOL    HW269874   8.614   5.319   1.344 -0.7622 -1.1462 -0.4885
22623SOL     OW69875   1.951   9.719   9.599  0.4198 -0.0797 -0.4919
22623SOL    HW169876   1.937   9.812   9.581  0.2972 -0.4465 -2.5103
22623SOL    HW269877   1.882   9.695   9.661 -2.0619  0.3204 -2.9268
22624SOL     OW69878   5.534   8.854  10.419 -1.0301 -0.0841  0.6433
22624SOL    HW169879   5.510   8.945  10.401 -1.6071 -0.1374  1.1160
22624SOL    HW269880   5.564   8.820  10.335  1.0264  1.0805  0.8298
22625SOL     OW69881   4.261   7.810   0.858  0.3498 -0.3775 -0.1462
22625SOL    HW169882   4.167   7.807   0.873  0.1709 -1.5281 -1.3114
22625SOL    HW269883   4.300   7.777   0.939 -0.3777 -2.0600 -0.4364
22626SOL     OW69884  10.257   0.364  11.013  0.3672 -0.6818  0.0387
22626SOL    HW169885  10.200   0.408  10.950  1.6057  1.5782  0.3768
22626SOL    HW269886  10.198   0.313  11.068 -1.3056  1.2061  0.1095
22627SOL     OW69887   5.045   3.187   7.081  0.5686  0.1762  0.0735
22627SOL    HW169888   5.009   3.149   7.161  1.0998  1.2898  0.8708
22627SOL    HW269889   5.129   3.144   7.069  0.2003 -0.4699 -0.2787
22628SOL     OW69890   8.748  10.843   2.404  0.1318  0.0518 -0.6424
22628SOL    HW169891   8.752  10.853   2.309 -1.1307  0.9853 -0.6191
22628SOL    HW269892   8.655  10.838   2.424  0.3393  0.8483  0.6284
22629SOL     OW69893  10.211   0.154   6.813  0.6451 -0.2548 -0.3169
22629SOL    HW169894  10.126   0.199   6.806  0.8695 -0.0242 -1.9797
22629SOL    HW269895  10.190   0.068   6.848 -0.4966 -0.7168 -2.0145
22630SOL     OW69896   0.158   8.641   6.898 -0.4650  0.3656  0.4068
22630SOL    HW169897   0.068   8.650   6.866 -1.2085  1.3783  2.5771
22630SOL    HW269898   0.175   8.723   6.945  0.7855 -0.6866  1.9015
22631SOL     OW69899   3.802   6.904  10.766  0.3597  0.2247 -0.0473
22631SOL    HW169900   3.802   6.914  10.861 -2.0453 -1.0046  0.1633
22631SOL    HW269901   3.710   6.890  10.743  0.8024  0.9431 -2.6327
22632SOL     OW69902   5.870   8.477  10.335  0.0090 -0.6094  0.1707
22632SOL    HW169903   5.819   8.402  10.368 -1.7095  0.5411  0.2485
22632SOL    HW269904   5.866   8.541  10.406 -0.9760  0.6436 -0.9695
22633SOL     OW69905   9.744   3.772   4.467  0.0579 -0.0047  0.0043
22633SOL    HW169906   9.833   3.760   4.500  0.0885  1.1588  0.4027
22633SOL    HW269907   9.688   3.731   4.533  0.2688 -0.1805  0.0739
22634SOL     OW69908   1.476   7.931   5.486  0.0372  0.4246 -0.2817
22634SOL    HW169909   1.466   7.949   5.392  0.2148 -0.8255 -0.5624
22634SOL    HW269910   1.494   7.837   5.490  1.4052  0.7106  0.9157
22635SOL     OW69911   4.943   5.290   6.516 -0.1088  0.8623  0.1680
22635SOL    HW169912   5.013   5.311   6.454 -0.2690  0.1792 -0.2521
22635SOL    HW269913   4.959   5.199   6.540  0.5822  1.4071  1.9611
22636SOL     OW69914   3.778   6.000   8.508 -0.2818  0.6846  0.1077
22636SOL    HW169915   3.816   5.994   8.596 -1.4292  1.1827  0.6595
22636SOL    HW269916   3.739   5.915   8.492 -0.3804  0.7058  0.2333
22637SOL     OW69917   3.114   5.524   7.464 -0.2313  0.7147 -0.2722
22637SOL    HW169918   3.085   5.561   7.380 -1.6140  0.5393  0.1105
22637SOL    HW269919   3.143   5.435   7.442 -2.7911 -0.2074 -0.2562
22638SOL     OW69920   7.722   5.766  10.800  0.0528  0.2421 -0.0437
22638SOL    HW169921   7.727   5.804  10.888  0.7373 -0.6032  0.2911
22638SOL    HW269922   7.739   5.673  10.813 -0.3518  0.0200 -1.0163
22639SOL     OW69923   8.468   6.873   0.564 -0.3437 -0.4923 -0.0277
22639SOL    HW169924   8.494   6.789   0.526  0.7906 -0.0446 -0.2762
22639SOL    HW269925   8.443   6.927   0.488  2.0809  0.4581 -0.2501
22640SOL     OW69926   3.188   2.567   5.950 -0.0163 -0.7126 -0.2177
22640SOL    HW169927   3.177   2.477   5.983 -0.4924  0.4082  3.0118
22640SOL    HW269928   3.115   2.578   5.888  0.0580 -2.5145 -0.7017
22641SOL     OW69929   7.624   1.287   5.298  0.3316 -0.1961 -0.2051
22641SOL    HW169930   7.665   1.338   5.228  0.4114 -0.1324 -0.1127
22641SOL    HW269931   7.585   1.212   5.254  0.2787 -0.0953 -0.3343
22642SOL     OW69932   6.008   8.751  10.074 -0.1837  0.0373  0.3521
22642SOL    HW169933   6.034   8.836  10.109  1.0303 -0.0658 -0.2473
22642SOL    HW269934   5.929   8.728  10.123  0.9456  0.3064  2.4334
22643SOL     OW69935   4.236   1.267   7.110  0.0224 -0.0637 -0.3098
22643SOL    HW169936   4.308   1.219   7.068 -0.8161 -1.4772 -0.2035
22643SOL    HW269937   4.206   1.327   7.042 -1.0190 -2.0011 -1.6770
22644SOL     OW69938   9.078   5.138   9.612  0.9449  0.7914 -0.2215
22644SOL    HW169939   8.995   5.103   9.647  1.3828 -0.7348 -0.6278
22644SOL    HW269940   9.091   5.090   9.530  2.9586 -0.0789  0.5621
22645SOL     OW69941   5.650   5.416   8.462 -0.2533 -0.5423  0.3067
22645SOL    HW169942   5.609   5.374   8.537 -0.6215 -0.6015  0.0756
22645SOL    HW269943   5.678   5.343   8.406  0.5575 -0.5098  0.6694
22646SOL     OW69944   6.196   9.959   9.627 -0.0665  0.3249  0.2923
22646SOL    HW169945   6.175   9.969   9.534  1.3022  0.9196  0.0084
22646SOL    HW269946   6.290   9.977   9.631 -0.0984  0.2349  1.7913
22647SOL     OW69947   1.755   4.933   1.328  0.2856 -0.3710 -0.4748
22647SOL    HW169948   1.677   4.898   1.371  1.7656 -1.5024  1.4345
22647SOL    HW269949   1.722   5.006   1.275 -2.2400 -1.6965 -0.8751
22648SOL     OW69950   2.709   2.447   3.415  0.3315 -0.1637  0.4864
22648SOL    HW169951   2.797   2.453   3.378  0.9996 -1.5695  1.7080
22648SOL    HW269952   2.698   2.529   3.463  0.9378  0.0619  0.2580
22649SOL     OW69953   1.574   2.897   2.544  0.0250 -0.0144 -0.6797
22649SOL    HW169954   1.642   2.914   2.609 -0.4506 -1.1682  0.1554
22649SOL    HW269955   1.587   2.964   2.477  0.3681  1.3690  0.7321
22650SOL     OW69956   4.763   0.514   3.385  0.1298  0.2625  0.3108
22650SOL    HW169957   4.794   0.451   3.321  1.2024  0.2620  0.8042
22650SOL    HW269958   4.843   0.546   3.428 -0.5089  0.7511  1.1770
22651SOL     OW69959   5.028   0.086  10.162  0.2810  0.1252 -0.7636
22651SOL    HW169960   4.994   0.100  10.250 -0.4313  0.9759 -1.1678
22651SOL    HW269961   4.968   0.023  10.122  0.7531 -0.4661 -0.5749
22652SOL     OW69962   6.155   9.606   4.235  0.2429 -0.5230  0.1245
22652SOL    HW169963   6.070   9.594   4.277 -0.7595 -0.3062 -1.7598
22652SOL    HW269964   6.179   9.518   4.204 -0.7402 -0.1189 -1.9277
22653SOL     OW69965   0.666   7.759   1.332 -0.4219  0.1799 -0.2023
22653SOL    HW169966   0.668   7.671   1.370  2.3391  0.5098  0.6398
22653SOL    HW269967   0.726   7.754   1.257  1.9408  1.8710  1.4095
22654SOL     OW69968  10.595  10.253   3.257  0.5163  0.5959  0.1614
22654SOL    HW169969  10.520  10.213   3.213  0.5320 -0.6669  1.2229
22654SOL    HW269970  10.664  10.187   3.253  2.5337  2.5975 -2.9795
22655SOL     OW69971   0.273   6.113   0.430  0.4249 -0.3412 -0.7112
22655SOL    HW169972   0.320   6.152   0.504 -1.3358 -0.9727  0.8078
22655SOL    HW269973   0.266   6.184   0.366  5.3971 -0.7802 -2.1482
22656SOL     OW69974   5.507   9.275   9.939  0.1685  0.0365 -0.0314
22656SOL    HW169975   5.501   9.305  10.030  1.8005  1.2167 -0.2816
22656SOL    HW269976   5.530   9.353   9.890  1.3964 -1.0053 -1.1701
22657SOL     OW69977   3.649   8.671   3.265  0.5170 -0.3462  0.2421
22657SOL    HW169978   3.566   8.624   3.275  0.5561 -0.6084 -0.6308
22657SOL    HW269979   3.705   8.610   3.218  0.0125  1.1858 -2.5411
22658SOL     OW69980   5.367   3.949   0.457  0.0186 -0.2366 -0.2160
22658SOL    HW169981   5.454   3.934   0.493  0.0452 -0.2356 -0.2803
22658SOL    HW269982   5.383   3.985   0.370 -0.0396 -1.2920 -0.6817
22659SOL     OW69983  10.869   7.936   3.167  0.1258  0.2657 -0.5513
22659SOL    HW169984  10.961   7.941   3.140  0.0008  0.8267 -0.9052
22659SOL    HW269985  10.864   7.858   3.222  1.3947  1.6620  1.7023
22660SOL     OW69986   7.602   3.429   4.218  0.9932 -0.0016 -0.2040
22660SOL    HW169987   7.605   3.454   4.310  2.6009 -0.1764 -0.1925
22660SOL    HW269988   7.595   3.333   4.219 -0.1336  0.0671 -0.2756
22661SOL     OW69989   6.164   6.913   4.544 -0.1005  0.0313  0.0113
22661SOL    HW169990   6.221   6.841   4.514  0.6338  0.1733  0.9927
22661SOL    HW269991   6.087   6.869   4.580 -0.0574 -0.2242 -0.2030
22662SOL     OW69992   9.299  10.077   7.712 -0.0683  0.2770  0.1686
22662SOL    HW169993   9.389  10.059   7.685 -0.5758 -0.7439 -0.9270
22662SOL    HW269994   9.306  10.092   7.807  0.9099 -2.6727  0.6748
22663SOL     OW69995   2.900   5.161   2.251  0.0580 -0.1715 -0.0317
22663SOL    HW169996   2.846   5.089   2.219  0.7747 -0.2413 -1.1300
22663SOL    HW269997   2.936   5.201   2.172  0.8663  0.4552  0.6363
22664SOL     OW69998   5.038   3.383   0.232 -0.2457 -0.0932 -0.0286
22664SOL    HW169999   5.052   3.303   0.283  0.8273 -0.3104 -0.6217
22664SOL    HW270000   4.967   3.362   0.172 -0.1291 -0.5324 -0.0181
22665SOL     OW70001  10.870  10.669   9.146 -0.2978 -0.0662  0.3515
22665SOL    HW170002  10.891  10.703   9.059  1.3188 -0.1736  0.6770
22665SOL    HW270003  10.939  10.604   9.164 -0.4305  0.1772  1.8378
22666SOL     OW70004   7.635   7.509   8.872 -0.0598 -0.2762 -0.4995
22666SOL    HW170005   7.615   7.561   8.794  1.6063 -0.5740 -1.1609
22666SOL    HW270006   7.690   7.566   8.926 -0.7720 -0.2626  0.2412
22667SOL     OW70007   4.066  10.276   6.610 -0.2507 -0.8238 -0.2099
22667SOL    HW170008   3.992  10.224   6.578 -0.2365 -1.4015  0.6649
22667SOL    HW270009   4.134  10.211   6.628  1.0829 -0.1813 -2.5029
22668SOL     OW70010  10.278   8.524   6.340 -0.0387 -0.4937 -0.0670
22668SOL    HW170011  10.263   8.487   6.253  0.1365  1.4614 -0.9964
22668SOL    HW270012  10.239   8.461   6.400 -2.2797 -0.8204 -1.7248
22669SOL     OW70013   8.536   7.728   8.316 -0.0810  0.2373 -0.2770
22669SOL    HW170014   8.529   7.666   8.243  0.4784 -0.6410  0.3930
22669SOL    HW270015   8.475   7.798   8.294 -0.2167 -0.2131 -1.3932
22670SOL     OW70016   1.329   0.285   8.890 -0.2787 -0.5371  0.4641
22670SOL    HW170017   1.267   0.314   8.957 -0.6041 -1.0579  0.3925
22670SOL    HW270018   1.292   0.203   8.857 -0.3944 -0.0193 -0.7358
22671SOL     OW70019   6.073   8.663   7.297 -0.3424 -0.0648 -0.1184
22671SOL    HW170020   6.113   8.581   7.266  2.4530  1.5056 -1.0217
22671SOL    HW270021   6.105   8.672   7.387  1.0013  0.9487 -0.6724
22672SOL     OW70022   3.780   0.570   9.636  0.2658 -0.0354  0.2762
22672SOL    HW170023   3.692   0.552   9.670 -1.1062 -0.9737 -3.3350
22672SOL    HW270024   3.787   0.665   9.637 -0.2488  0.0078  1.7366
22673SOL     OW70025   5.918   8.256   2.717 -0.3758  0.9116 -0.5221
22673SOL    HW170026   5.838   8.279   2.765  0.4115  2.0290  0.2984
22673SOL    HW270027   5.989   8.274   2.778  0.5807  1.0450 -1.6355
22674SOL     OW70028   4.251   7.454   1.234  0.3507  0.3707 -0.5328
22674SOL    HW170029   4.200   7.485   1.309 -1.6620  0.2503 -1.8106
22674SOL    HW270030   4.187   7.430   1.168  2.0391 -0.5914 -1.9291
22675SOL     OW70031   7.723   5.464   4.207  0.2315  0.8488  0.3008
22675SOL    HW170032   7.654   5.510   4.254 -0.5165 -0.6425  0.7366
22675SOL    HW270033   7.701   5.475   4.115 -0.0694  1.1432  0.4074
22676SOL     OW70034   4.944   2.940   1.107  0.3181  0.5228  0.2665
22676SOL    HW170035   4.866   2.931   1.052  0.9188 -0.2875 -0.4843
22676SOL    HW270036   4.932   3.024   1.152 -0.8244  0.5670 -0.0864
22677SOL     OW70037   4.672   7.720   9.368 -0.3106  0.1596 -0.2007
22677SOL    HW170038   4.761   7.720   9.403  1.3708 -0.5709 -3.9782
22677SOL    HW270039   4.636   7.804   9.395  1.8236  0.8564  0.7304
22678SOL     OW70040   8.008   9.000   5.945  0.2494  0.8604 -0.3329
22678SOL    HW170041   8.060   9.021   6.022 -0.1272  1.8637 -0.3344
22678SOL    HW270042   8.041   8.915   5.916  0.8267  0.7694  0.5553
22679SOL     OW70043   6.850   5.348   9.563  0.2732  0.2106 -0.7037
22679SOL    HW170044   6.860   5.327   9.656 -0.1931  0.6440 -0.5503
22679SOL    HW270045   6.914   5.418   9.548 -0.2580  0.7559 -0.4887
22680SOL     OW70046   5.241   4.117   3.280 -0.0221 -0.3214  0.2822
22680SOL    HW170047   5.214   4.195   3.327  2.1576  0.6914 -0.0345
22680SOL    HW270048   5.228   4.138   3.188  2.5946  0.6250  0.0345
22681SOL     OW70049   5.896   2.011   5.157 -0.2361 -0.1512 -0.2098
22681SOL    HW170050   5.914   2.097   5.195  2.3009 -0.2470 -0.9431
22681SOL    HW270051   5.820   1.979   5.204  0.5618  1.2345  2.2348
22682SOL     OW70052   8.273   1.468   1.542  0.2616 -0.3960 -0.0528
22682SOL    HW170053   8.266   1.379   1.505 -0.1562 -0.3501 -0.0886
22682SOL    HW270054   8.332   1.458   1.617 -1.4492 -1.1266  1.2612
22683SOL     OW70055   2.849   5.862   9.734  0.3947  0.0071  0.4387
22683SOL    HW170056   2.845   5.957   9.730  0.1081 -0.0322 -0.4656
22683SOL    HW270057   2.864   5.835   9.643 -1.4792 -0.8951  0.3413
22684SOL     OW70058   4.461   5.708  10.405 -0.1841  0.1399  0.1851
22684SOL    HW170059   4.369   5.733  10.398 -0.7800 -1.5447  1.1350
22684SOL    HW270060   4.491   5.750  10.486 -0.3084  0.2203  0.1898
22685SOL     OW70061   5.241   0.811   4.088 -0.0424 -0.1189  0.1691
22685SOL    HW170062   5.330   0.776   4.080  0.2615  0.2618  1.5861
22685SOL    HW270063   5.251   0.905   4.071 -0.2740 -0.1576 -0.1980
22686SOL     OW70064   0.747   0.914   6.446 -0.2541 -0.3827  0.1284
22686SOL    HW170065   0.660   0.941   6.473  0.1312  0.2345  0.7820
22686SOL    HW270066   0.741   0.819   6.435 -0.9170 -0.3835  0.5012
22687SOL     OW70067   6.695   4.105   9.850  0.1284 -0.0381 -0.4151
22687SOL    HW170068   6.627   4.168   9.824  1.0939  1.6757  0.9545
22687SOL    HW270069   6.665   4.070   9.934  1.1277  1.1798  0.5037
22688SOL     OW70070   0.300   7.688   3.478 -0.6057  0.0427  0.4710
22688SOL    HW170071   0.329   7.683   3.569 -0.4962  1.6412  0.5420
22688SOL    HW270072   0.276   7.779   3.464 -0.1019 -0.0381 -1.2629
22689SOL     OW70073   9.378   1.969   3.097 -0.0199  0.2249 -0.6063
22689SOL    HW170074   9.410   2.048   3.140 -1.4843 -0.0381  1.0582
22689SOL    HW270075   9.383   1.989   3.003 -0.4372  2.3167 -0.2368
22690SOL     OW70076   5.361   4.350   6.478 -0.3304 -0.1641  0.7731
22690SOL    HW170077   5.325   4.263   6.496  1.6348 -1.0517  0.7206
22690SOL    HW270078   5.405   4.375   6.560 -0.4429  0.5689  0.6199
22691SOL     OW70079   8.169   9.599  10.777 -0.1235  0.1588  0.1553
22691SOL    HW170080   8.264   9.594  10.766 -0.1334 -0.0938  0.1630
22691SOL    HW270081   8.135   9.597  10.688 -0.1626 -0.8358  0.1738
22692SOL     OW70082   8.754   4.940   1.307 -0.4642  0.1447 -0.3715
22692SOL    HW170083   8.687   4.921   1.373 -0.0580  2.1460  0.6822
22692SOL    HW270084   8.831   4.891   1.335 -0.4552  0.5671  0.3584
22693SOL     OW70085   4.903   8.395   1.800  0.0582 -0.1647  0.3335
22693SOL    HW170086   4.896   8.358   1.889 -2.3553  0.7931  0.6066
22693SOL    HW270087   4.813   8.404   1.770  0.8121 -0.5420 -2.3031
22694SOL     OW70088   6.693   5.493   2.107 -0.5264  0.2905  0.0328
22694SOL    HW170089   6.738   5.568   2.147  2.5739 -0.6859 -1.2781
22694SOL    HW270090   6.676   5.520   2.017  0.1389 -0.3356 -0.2991
22695SOL     OW70091   6.602  10.544   1.334 -1.0309 -0.3042  0.0453
22695SOL    HW170092   6.631  10.587   1.254  1.6112  2.2594  2.1602
22695SOL    HW270093   6.669  10.478   1.352  1.1550  2.3157  2.4069
22696SOL     OW70094   4.627   7.487   4.248 -0.2811 -0.6728 -0.4450
22696SOL    HW170095   4.535   7.473   4.228 -0.3027 -1.3273  0.1127
22696SOL    HW270096   4.667   7.400   4.242 -0.3365 -1.0026  2.5642
22697SOL     OW70097   8.549   4.960   1.130 -0.0284 -0.4055 -0.4710
22697SOL    HW170098   8.472   4.972   1.185 -0.0168 -0.6871 -0.3884
22697SOL    HW270099   8.616   4.928   1.191  0.5771  1.1694 -0.2630
22698SOL     OW70100   1.628   6.125   6.562  0.2971  0.2696  0.1737
22698SOL    HW170101   1.699   6.088   6.510 -0.4482 -2.2185  0.7627
22698SOL    HW270102   1.630   6.219   6.544  3.0365  0.1230 -0.6147
22699SOL     OW70103   6.990   5.400   4.006 -0.2214  0.3464 -0.2243
22699SOL    HW170104   7.061   5.375   3.947  0.7929  0.8625  0.7256
22699SOL    HW270105   6.962   5.486   3.974 -1.1150 -0.2908 -1.1994
22700SOL     OW70106   0.510  10.092   0.860 -0.0462 -0.7846  0.5598
22700SOL    HW170107   0.581  10.150   0.830 -0.5160 -1.0939 -1.3095
22700SOL    HW270108   0.431  10.128   0.820 -0.5091 -2.0717  0.2660
22701SOL     OW70109   4.160   2.932   1.635 -0.2563 -0.0638  0.0420
22701SOL    HW170110   4.188   2.964   1.721 -0.0066 -0.4600  0.1122
22701SOL    HW270111   4.075   2.974   1.620 -1.0813 -1.2121  1.2014
22702SOL     OW70112   9.889   9.435   6.600 -0.0466 -0.6075  0.0059
22702SOL    HW170113   9.942   9.456   6.523 -0.4491 -0.3779 -0.2142
22702SOL    HW270114   9.894   9.513   6.655 -1.2791 -0.0185 -0.6610
22703SOL     OW70115   4.800  10.672   9.791 -0.2513 -0.2201 -0.0628
22703SOL    HW170116   4.870  10.720   9.748  0.6208 -1.3430  0.0478
22703SOL    HW270117   4.808  10.583   9.758 -0.0350 -0.9461  1.8089
22704SOL     OW70118   5.452   9.143   6.575 -0.2659 -0.2734  0.2771
22704SOL    HW170119   5.385   9.199   6.615  0.9458  2.4131 -1.2507
22704SOL    HW270120   5.529   9.154   6.631 -0.6907 -2.6093  1.4755
22705SOL     OW70121   4.575   5.419   8.120  0.2638 -0.2480  0.2637
22705SOL    HW170122   4.630   5.468   8.181  0.0262  1.2995 -0.7261
22705SOL    HW270123   4.546   5.483   8.056 -2.5581 -1.0112  0.6133
22706SOL     OW70124   7.452   7.289   7.360 -0.1197 -0.2804 -0.4397
22706SOL    HW170125   7.454   7.207   7.409  0.7128  0.2811  0.4910
22706SOL    HW270126   7.418   7.354   7.422  0.9195  0.4368 -0.5900
22707SOL     OW70127   2.334   3.081  10.390  0.2125  0.3574 -0.0783
22707SOL    HW170128   2.255   3.126  10.419 -1.0433 -0.9123 -1.3767
22707SOL    HW270129   2.308   2.989  10.382  1.1764  0.2349 -2.6537
22708SOL     OW70130   3.377   7.110   5.142 -0.1823  0.0112 -0.7515
22708SOL    HW170131   3.365   7.151   5.056  1.3054  2.1994 -0.0281
22708SOL    HW270132   3.335   7.171   5.203  0.7210 -0.3278  0.2427
22709SOL     OW70133   7.320   9.273   0.053 -0.4126 -0.4052 -0.2564
22709SOL    HW170134   7.301   9.278   0.147 -0.6101  2.1682 -0.3474
22709SOL    HW270135   7.373   9.351   0.035  2.4376 -2.5091 -1.7637
22710SOL     OW70136   5.308   9.527   8.257  0.8264 -0.4668 -0.5470
22710SOL    HW170137   5.358   9.505   8.336  1.0180 -1.4992 -0.9350
22710SOL    HW270138   5.334   9.460   8.193 -1.2166 -1.1934 -0.6988
22711SOL     OW70139   4.324   1.048   6.247 -0.2224 -0.2843  0.2298
22711SOL    HW170140   4.236   1.016   6.231 -0.3682 -0.0405  0.5249
22711SOL    HW270141   4.324   1.136   6.208 -0.1404 -0.2482  0.3113
22712SOL     OW70142   7.545   9.801   2.529 -0.6698 -0.4850 -1.0562
22712SOL    HW170143   7.505   9.867   2.586 -1.9080 -2.2560  0.2536
22712SOL    HW270144   7.563   9.847   2.447 -2.5034  1.1926 -0.5912
22713SOL     OW70145   7.692   6.265   5.579 -0.2612 -0.2556  0.2450
22713SOL    HW170146   7.614   6.291   5.530 -0.0615  1.4847  0.7958
22713SOL    HW270147   7.764   6.284   5.519 -0.1964 -0.9996  0.0821
22714SOL     OW70148   9.249   9.140   9.598 -0.2300  0.0058 -0.0711
22714SOL    HW170149   9.155   9.131   9.583 -0.0786 -0.8475 -0.6233
22714SOL    HW270150   9.285   9.167   9.513 -0.0538  0.9676  0.3078
22715SOL     OW70151   7.803   1.067   2.711 -0.9560  0.3572  0.3150
22715SOL    HW170152   7.842   0.982   2.733  2.2012  1.2992 -1.1186
22715SOL    HW270153   7.766   1.055   2.624 -0.3842  0.4816  0.0535
22716SOL     OW70154   7.179   8.410   4.784 -0.5056 -0.0319  0.5044
22716SOL    HW170155   7.248   8.347   4.764 -0.0953 -0.2582  2.4992
22716SOL    HW270156   7.101   8.374   4.739  0.5370  0.0844 -1.5247
22717SOL     OW70157   7.130   0.881   4.628  0.1191  0.2090  0.0404
22717SOL    HW170158   7.060   0.944   4.640  0.3499  0.5530 -0.3936
22717SOL    HW270159   7.085   0.797   4.614 -0.2962  0.7438 -2.2394
22718SOL     OW70160   6.695  10.250   1.603  0.7144  0.0921  0.5781
22718SOL    HW170161   6.789  10.254   1.619  0.4351  2.0926  2.1364
22718SOL    HW270162   6.656  10.291   1.681 -1.4963 -1.4189  0.3561
22719SOL     OW70163   3.944   6.905   9.135  0.2969  0.0642 -1.3081
22719SOL    HW170164   3.921   6.989   9.096  1.3844  1.2413  0.4585
22719SOL    HW270165   3.923   6.840   9.067 -0.2383  1.7675 -2.8358
22720SOL     OW70166   3.822   7.613   8.139 -0.0566 -0.0894  0.0528
22720SOL    HW170167   3.917   7.625   8.138  0.0360 -0.7565  0.4940
22720SOL    HW270168   3.793   7.650   8.056  0.5673  0.3070  0.0046
22721SOL     OW70169   1.024   8.434   3.511  0.5644 -0.5441 -0.7596
22721SOL    HW170170   1.110   8.471   3.490  1.0158 -1.0199  0.1924
22721SOL    HW270171   1.039   8.340   3.515 -0.0629 -0.6505 -0.8460
22722SOL     OW70172   1.124   2.029   3.478  0.4500 -0.8545 -0.4779
22722SOL    HW170173   1.050   2.051   3.534  0.7210 -0.4357 -0.2772
22722SOL    HW270174   1.100   2.062   3.391  0.7616  0.0511 -0.2250
22723SOL     OW70175   8.043   9.968   9.060  0.3833 -0.0268  0.0156
22723SOL    HW170176   8.104  10.011   9.000  1.4990  1.9005  2.3463
22723SOL    HW270177   8.096   9.903   9.106 -0.5425 -1.7490 -1.2315
22724SOL     OW70178   4.198   7.399   3.164  0.3962 -0.1505  0.0108
22724SOL    HW170179   4.197   7.461   3.091  1.0755 -2.8421 -2.4887
22724SOL    HW270180   4.137   7.330   3.137 -0.2661 -0.6852  2.6141
22725SOL     OW70181   1.473   3.372   8.297 -0.0059 -0.1480 -0.0179
22725SOL    HW170182   1.520   3.340   8.375 -0.5453 -0.7574  0.0633
22725SOL    HW270183   1.412   3.301   8.275  0.1648 -0.0036 -1.0209
22726SOL     OW70184   4.411   5.463   4.242  0.4871 -0.2886 -0.1816
22726SOL    HW170185   4.378   5.446   4.330  0.0674  0.4485 -0.1826
22726SOL    HW270186   4.414   5.378   4.199  4.8870 -1.4675  1.9056
22727SOL     OW70187   6.159   3.373   7.940  0.0580 -0.1158  0.1586
22727SOL    HW170188   6.141   3.303   7.877  1.2318 -0.1539 -0.1557
22727SOL    HW270189   6.251   3.361   7.963  0.5211  1.8329 -0.5406
22728SOL     OW70190   4.327   7.577   9.988  0.0029 -0.1199  0.4392
22728SOL    HW170191   4.352   7.668  10.004  0.6291 -0.3576  0.8581
22728SOL    HW270192   4.352   7.562   9.896  0.5249 -0.0623  0.5661
22729SOL     OW70193   0.320   9.387  10.347 -0.2600  0.0481 -0.3246
22729SOL    HW170194   0.281   9.431  10.423 -0.7355  0.7581 -0.9730
22729SOL    HW270195   0.245   9.365  10.291  0.1958  0.6738 -1.1905
22730SOL     OW70196   7.606   4.424   3.463  0.1534  0.1761  0.2370
22730SOL    HW170197   7.680   4.448   3.407  0.5387 -2.1856 -0.3732
22730SOL    HW270198   7.642   4.360   3.524 -1.7734 -3.0356 -1.6909
22731SOL     OW70199   8.967   5.966   4.894  0.1520  0.1087 -0.4496
22731SOL    HW170200   8.920   5.933   4.817 -1.1497  0.8584 -0.0022
22731SOL    HW270201   8.975   6.060   4.878 -0.9530  0.4265  0.7331
22732SOL     OW70202   5.762   8.133   7.480  0.9838  0.2773 -0.0223
22732SOL    HW170203   5.816   8.165   7.552  2.1794  0.7441 -1.0802
22732SOL    HW270204   5.810   8.059   7.445 -0.0487 -0.5287  0.2185
22733SOL     OW70205   5.556   9.432   7.682 -0.7954  0.5964  0.2070
22733SOL    HW170206   5.535   9.518   7.719 -1.2326 -0.0431  1.5083
22733SOL    HW270207   5.594   9.452   7.596 -1.5205  2.0558  0.1806
22734SOL     OW70208   5.668   3.948  10.570 -0.0732 -0.4068  0.0570
22734SOL    HW170209   5.712   3.879  10.522 -1.5801  0.2917 -2.5105
22734SOL    HW270210   5.585   3.909  10.597 -0.4803  0.0644 -0.4919
22735SOL     OW70211   1.115  10.448  10.413  0.0472  0.0293 -0.1477
22735SOL    HW170212   1.029  10.433  10.451  0.0777 -0.2387 -0.1821
22735SOL    HW270213   1.101  10.516  10.348 -0.2337 -0.3746 -0.5102
22736SOL     OW70214   4.843   2.857   9.293 -0.2891 -0.3218  0.5015
22736SOL    HW170215   4.917   2.812   9.251  0.6093 -0.2318  1.9447
22736SOL    HW270216   4.841   2.943   9.252  0.3438 -0.3571  0.3871
22737SOL     OW70217  10.363   0.543   0.472 -0.0963 -0.4243  0.3421
22737SOL    HW170218  10.417   0.582   0.540  0.3342 -0.7625  0.1961
22737SOL    HW270219  10.364   0.606   0.400  2.5973 -1.7027 -0.8788
22738SOL     OW70220   7.390   0.174   8.342  0.0880 -0.0347 -0.0188
22738SOL    HW170221   7.450   0.242   8.310 -0.1256 -0.1526 -0.6873
22738SOL    HW270222   7.382   0.113   8.269 -2.1494  0.8461 -0.5797
22739SOL     OW70223   6.302   8.989   8.020  0.4822  0.1718  0.1161
22739SOL    HW170224   6.224   8.996   7.964  1.0279 -1.4036 -0.9132
22739SOL    HW270225   6.338   9.078   8.022 -0.9781  0.7978  0.1090
22740SOL     OW70226   0.040   4.465   7.878  0.7423 -0.5834 -0.5445
22740SOL    HW170227   0.048   4.447   7.971 -0.1291 -1.2698 -0.5905
22740SOL    HW270228  -0.032   4.527   7.871  1.9243  0.8256 -0.6322
22741SOL     OW70229   3.203   4.282   3.249 -0.0847 -0.0523  0.2161
22741SOL    HW170230   3.173   4.229   3.175 -0.4217  0.6578 -0.1614
22741SOL    HW270231   3.133   4.275   3.313 -0.3165  0.2638  0.0005
22742SOL     OW70232   3.390   3.880  10.065  0.1693 -0.2918 -0.0434
22742SOL    HW170233   3.454   3.838  10.123  0.8059  1.5932  0.6920
22742SOL    HW270234   3.383   3.969  10.098 -0.9713  0.2665 -1.6833
22743SOL     OW70235   1.862   9.643   6.393  0.1777 -0.0612 -0.2024
22743SOL    HW170236   1.881   9.663   6.302  0.7347  2.8945  0.4323
22743SOL    HW270237   1.892   9.553   6.405 -0.0517 -0.5804 -2.9248
22744SOL     OW70238   0.914   0.549   2.143  0.0472  0.0091  0.2894
22744SOL    HW170239   0.843   0.610   2.121 -1.3317 -2.1961 -2.0064
22744SOL    HW270240   0.894   0.521   2.233 -2.3085 -0.7999 -0.3946
22745SOL     OW70241   8.050   1.731   4.566 -0.0551  0.2553 -0.3377
22745SOL    HW170242   8.056   1.710   4.473 -0.3710 -0.3687 -0.2226
22745SOL    HW270243   8.141   1.737   4.595  0.0492  1.0991 -0.8234
22746SOL     OW70244   8.322   1.483   1.820  0.1657  0.3999 -0.2337
22746SOL    HW170245   8.320   1.546   1.892  2.0586 -1.0435  1.2121
22746SOL    HW270246   8.241   1.432   1.831  0.8812 -0.4643  1.6153
22747SOL     OW70247   7.820   9.597   8.893  0.0581 -0.4740  0.2151
22747SOL    HW170248   7.905   9.581   8.934 -0.4544 -0.4974  1.2828
22747SOL    HW270249   7.793   9.682   8.927 -1.1012 -1.2108  1.1816
22748SOL     OW70250   3.786   0.201   9.330 -0.6895 -0.4034 -0.3155
22748SOL    HW170251   3.863   0.257   9.342 -0.4901 -0.5512 -0.8710
22748SOL    HW270252   3.822   0.113   9.318 -0.9513 -0.4917 -0.4621
22749SOL     OW70253   2.881   4.232  10.490  0.1911 -0.2312 -0.4379
22749SOL    HW170254   2.918   4.204  10.573  1.5160  2.5352 -0.0036
22749SOL    HW270255   2.929   4.180  10.424  1.7033  0.0969  0.3586
22750SOL     OW70256  10.898   1.662   1.178 -0.2606  0.2554 -0.3230
22750SOL    HW170257  10.841   1.734   1.150  0.0152  0.1713 -1.1530
22750SOL    HW270258  10.940   1.633   1.097 -1.2175 -1.5950 -0.2249
22751SOL     OW70259   5.630   0.728   2.684 -0.1773  0.2748 -0.3005
22751SOL    HW170260   5.586   0.797   2.733 -0.0459  0.6975 -0.7705
22751SOL    HW270261   5.579   0.720   2.603  0.5825  0.7515 -0.8399
22752SOL     OW70262   3.872   7.841   6.759 -0.0166 -0.1196 -0.0913
22752SOL    HW170263   3.893   7.800   6.675 -1.9155 -0.2034 -0.5773
22752SOL    HW270264   3.878   7.935   6.742 -0.4527 -0.1356 -0.3569
22753SOL     OW70265   6.739   6.375   1.343 -0.1110  0.0186 -0.6276
22753SOL    HW170266   6.819   6.348   1.298 -0.6905 -0.4800 -1.3910
22753SOL    HW270267   6.675   6.308   1.319 -0.2647 -0.6856  1.5538
22754SOL     OW70268   8.031   1.203   8.055 -0.3289 -0.1011 -0.1210
22754SOL    HW170269   8.002   1.269   7.992  0.2949  0.7907  0.5082
22754SOL    HW270270   7.951   1.170   8.094 -0.6297  0.6251 -0.1126
22755SOL     OW70271   3.983   0.373   9.288 -0.0424  0.0831  0.3692
22755SOL    HW170272   4.066   0.365   9.241 -0.2636  1.1246 -0.2315
22755SOL    HW270273   4.007   0.415   9.371  0.0474  0.3050  0.2325
22756SOL     OW70274   7.727   7.021   8.225  0.1794  0.2864  0.2477
22756SOL    HW170275   7.677   6.976   8.293  0.4747 -0.0751  0.2328
22756SOL    HW270276   7.662   7.069   8.174 -0.2604 -0.8700 -0.3112
22757SOL     OW70277   3.772   4.254   2.901  0.3425  0.3351 -0.4063
22757SOL    HW170278   3.680   4.278   2.907  0.0735 -0.8478  0.4730
22757SOL    HW270279   3.783   4.225   2.810 -0.2982 -0.0725 -0.3583
22758SOL     OW70280   2.400   1.828   5.906  0.3682 -0.3250  0.0574
22758SOL    HW170281   2.429   1.763   5.842 -0.4515 -1.0212  0.3666
22758SOL    HW270282   2.421   1.912   5.866  1.1383 -0.7778 -0.5017
22759SOL     OW70283   3.847   2.103   7.583 -0.4138 -0.5865  0.3154
22759SOL    HW170284   3.777   2.166   7.567 -1.1136 -1.1373  1.1670
22759SOL    HW270285   3.850   2.050   7.503 -0.0679  0.2688 -0.2567
22760SOL     OW70286   5.406  10.416   1.461 -0.2470  0.3684 -0.2253
22760SOL    HW170287   5.430  10.494   1.513  3.8957 -1.8612  1.7719
22760SOL    HW270288   5.349  10.366   1.519 -3.4650  1.9877 -1.7650
22761SOL     OW70289   9.353   7.568   5.209 -0.1386 -0.4770 -0.0127
22761SOL    HW170290   9.423   7.629   5.185 -1.6367  0.9224 -1.0078
22761SOL    HW270291   9.320   7.601   5.292 -0.6171 -0.2176 -0.3025
22762SOL     OW70292   1.083   3.354   1.302 -0.0805  0.1768  0.9286
22762SOL    HW170293   0.995   3.322   1.284  0.4123  0.0013 -1.6319
22762SOL    HW270294   1.070   3.438   1.345 -1.4530 -0.3405  1.5965
22763SOL     OW70295   8.127   2.035   7.318  0.0592 -0.7023  0.2509
22763SOL    HW170296   8.058   2.093   7.285  1.1027  0.2012 -0.4057
22763SOL    HW270297   8.164   2.081   7.393  0.9393 -0.4627 -0.3114
22764SOL     OW70298   3.259   4.290   8.109 -0.2241  0.4115  0.3774
22764SOL    HW170299   3.239   4.350   8.038 -1.4282  1.7334  1.7848
22764SOL    HW270300   3.174   4.269   8.148  0.4401 -0.0699  1.6126
22765SOL     OW70301   1.046   9.149   2.596  0.2262  0.8785 -0.3313
22765SOL    HW170302   1.022   9.137   2.504  2.2232 -0.9274 -0.6880
22765SOL    HW270303   1.041   9.061   2.634  3.4749  0.7797  0.1710
22766SOL     OW70304   5.290   6.886   9.430  0.5330  0.7863 -0.6924
22766SOL    HW170305   5.380   6.858   9.414  0.5035  0.3038 -0.0373
22766SOL    HW270306   5.257   6.910   9.343 -0.3901 -3.9208 -1.8804
22767SOL     OW70307  10.771   4.916   0.120  0.0117  0.1075 -1.1044
22767SOL    HW170308  10.731   4.958   0.197  0.3012  0.6279 -1.2331
22767SOL    HW270309  10.832   4.853   0.157  1.2037  1.3414 -0.8714
22768SOL     OW70310   9.325  10.428   9.238 -0.1722  0.1487  0.1023
22768SOL    HW170311   9.245  10.419   9.290 -0.3176 -0.7556 -0.2559
22768SOL    HW270312   9.295  10.440   9.149  0.0529 -1.8606 -0.2986
22769SOL     OW70313   9.203   1.432   1.553  0.1567  0.0859 -0.6426
22769SOL    HW170314   9.273   1.456   1.493  0.2233 -1.0045 -1.0274
22769SOL    HW270315   9.240   1.361   1.606 -0.6446 -0.4982 -0.8458
22770SOL     OW70316   9.561   8.395   1.562 -0.0861  0.4545  0.1755
22770SOL    HW170317   9.615   8.356   1.493  2.8779 -0.2738  2.6756
22770SOL    HW270318   9.584   8.488   1.561 -1.1858  0.7297 -0.7362
22771SOL     OW70319   9.669   1.576   4.710  0.0330  0.4750  0.3103
22771SOL    HW170320   9.753   1.618   4.689 -0.0544  0.1402 -0.7707
22771SOL    HW270321   9.604   1.645   4.699  0.0888  0.5482  0.4350
22772SOL     OW70322   3.565   6.922   1.143  0.5146 -0.7566 -0.5025
22772SOL    HW170323   3.525   6.836   1.155 -1.9543  0.5180  1.4321
22772SOL    HW270324   3.558   6.940   1.050 -0.3338 -2.0167 -0.6913
22773SOL     OW70325   9.370   9.804  10.760 -0.2490 -0.3045 -0.0341
22773SOL    HW170326   9.290   9.772  10.801 -0.6082  0.7772  0.1414
22773SOL    HW270327   9.369   9.899  10.775  1.7655 -0.4291  1.2265
22774SOL     OW70328   8.991  10.058  10.578  0.3910 -0.1257 -0.0163
22774SOL    HW170329   8.985  10.153  10.588 -0.7029  0.0914 -1.9883
22774SOL    HW270330   8.902  10.032  10.554  0.0318 -2.0607  2.9208
22775SOL     OW70331   7.901   2.535   0.215  0.0923  0.7398  1.0091
22775SOL    HW170332   7.914   2.547   0.121  0.9632  1.4553  1.2014
22775SOL    HW270333   7.811   2.505   0.223 -0.3696  1.7837  0.0297
22776SOL     OW70334   3.745   5.795   4.196  0.5595 -0.6031  0.2145
22776SOL    HW170335   3.689   5.869   4.220  0.0328  0.3779 -3.3984
22776SOL    HW270336   3.686   5.720   4.195 -0.1735 -0.0479 -1.0613
22777SOL     OW70337   5.677   9.594   5.069  0.1420 -0.1412  0.3940
22777SOL    HW170338   5.619   9.620   4.998  1.5537 -0.7428 -1.0203
22777SOL    HW270339   5.617   9.567   5.139 -1.2899  1.6239 -0.0616
22778SOL     OW70340   5.393   2.469   0.098 -0.1010  0.2543 -0.0416
22778SOL    HW170341   5.299   2.452   0.092 -0.3007  1.0282  0.7398
22778SOL    HW270342   5.405   2.553   0.054  0.1309  0.4421  0.3780
22779SOL     OW70343   1.856   2.974   1.762 -0.2646 -0.0657  0.0046
22779SOL    HW170344   1.910   3.030   1.818  0.7902 -1.6236  0.6021
22779SOL    HW270345   1.776   2.959   1.812 -0.8242  1.3530 -0.4142
22780SOL     OW70346   2.072  10.888  10.874 -0.0582 -0.2065  0.5831
22780SOL    HW170347   2.061  10.831  10.950 -1.7543 -1.9141 -0.8649
22780SOL    HW270348   2.139  10.845  10.820  0.7603  0.7276  0.8129
22781SOL     OW70349   8.791   0.974   5.861 -0.2297 -0.1988 -0.3193
22781SOL    HW170350   8.854   0.949   5.929 -0.9280  0.1272  0.4630
22781SOL    HW270351   8.705   0.962   5.901 -0.6318  1.5649 -0.5432
22782SOL     OW70352  10.057   4.956   1.952 -0.0866  0.0573 -0.0817
22782SOL    HW170353  10.061   4.883   1.890 -0.6366  0.8983 -1.1501
22782SOL    HW270354  10.020   5.029   1.901 -1.9166  0.4073  1.5990
22783SOL     OW70355   2.646   1.959   7.381  0.1528  0.2301  0.1995
22783SOL    HW170356   2.611   1.939   7.295 -0.0566 -2.0102  0.7383
22783SOL    HW270357   2.570   1.978   7.435  0.1706  0.2187  0.2292
22784SOL     OW70358   5.460   1.791   1.417 -0.1607 -0.2805  0.7991
22784SOL    HW170359   5.462   1.765   1.325 -2.6055  0.7430  0.3828
22784SOL    HW270360   5.551   1.785   1.446  0.3370 -2.9862 -0.9862
22785SOL     OW70361   0.344  10.900   2.157 -0.3526  0.6095  0.1065
22785SOL    HW170362   0.343  10.880   2.251 -1.0913 -1.4825 -0.2903
22785SOL    HW270363   0.430  10.871   2.127 -0.2275  1.0048  0.0814
22786SOL     OW70364  10.372   4.416   0.341 -0.3556  0.3909 -0.1962
22786SOL    HW170365  10.407   4.376   0.421  0.5081 -1.5641 -1.4821
22786SOL    HW270366  10.388   4.510   0.353  0.2484  0.0941  1.6853
22787SOL     OW70367   2.739  10.282   9.365  0.4759 -0.2554  0.3653
22787SOL    HW170368   2.768  10.207   9.418 -0.1801  0.0429  1.1582
22787SOL    HW270369   2.811  10.295   9.302  1.4228 -0.4074  1.3849
22788SOL     OW70370   4.762  10.328   8.026 -0.0402 -0.1430 -0.4739
22788SOL    HW170371   4.753  10.421   8.046 -0.4746 -0.5338  1.3831
22788SOL    HW270372   4.822  10.295   8.093 -0.2784 -1.2959 -0.8013
22789SOL     OW70373   1.132   6.206   7.977 -0.2439 -0.0039  0.3999
22789SOL    HW170374   1.162   6.230   7.890  2.2889  1.7824  1.6067
22789SOL    HW270375   1.115   6.112   7.972 -0.0030  0.0365 -1.9626
22790SOL     OW70376   8.183   3.205   9.943 -0.6439 -0.0179  0.7444
22790SOL    HW170377   8.088   3.205   9.948 -0.6752 -1.0599  0.4067
22790SOL    HW270378   8.203   3.187   9.851 -0.1254 -0.3521  0.9170
22791SOL     OW70379   2.045   8.744  10.790  0.5990  0.6902  0.4871
22791SOL    HW170380   2.127   8.793  10.780  1.1661 -0.3572 -0.2403
22791SOL    HW270381   2.065   8.677  10.855  0.1501  0.7495  0.6888
22792SOL     OW70382  10.469  10.383   4.466  0.4551 -0.1439  0.1636
22792SOL    HW170383  10.512  10.386   4.552 -1.5417  0.5237  1.2141
22792SOL    HW270384  10.386  10.429   4.480 -0.4845 -1.1454 -1.8160
22793SOL     OW70385   1.883   3.474   3.490  0.4539 -0.5479  0.0118
22793SOL    HW170386   1.958   3.498   3.436 -1.4375  0.3715 -2.4138
22793SOL    HW270387   1.869   3.381   3.470  1.5702 -1.0312  1.3519
22794SOL     OW70388   4.543   0.968   1.888  0.4695 -0.4918 -0.9905
22794SOL    HW170389   4.558   0.876   1.865 -1.7356 -0.9218 -0.9295
22794SOL    HW270390   4.493   0.964   1.970 -1.6941  0.6136 -2.1553
22795SOL     OW70391   6.905   0.367   6.766  0.9725  0.7404  0.5585
22795SOL    HW170392   6.978   0.349   6.707 -0.0384  0.0645 -0.5267
22795SOL    HW270393   6.881   0.282   6.801 -0.9295  0.5479 -1.0927
22796SOL     OW70394  10.989  10.944   8.525  0.4749  0.5191  0.0861
22796SOL    HW170395  11.042  10.949   8.605 -1.8006 -1.0204  1.8125
22796SOL    HW270396  10.975  10.850   8.511  0.1230  0.7965 -1.6853
22797SOL     OW70397   1.365   1.909   9.572  0.5640  0.1128 -0.4660
22797SOL    HW170398   1.327   1.880   9.489  2.8143 -0.3895 -1.3742
22797SOL    HW270399   1.290   1.943   9.621 -0.8641  0.2495 -2.5964
22798SOL     OW70400   3.945   9.777   7.408  0.5687  0.1071  0.1425
22798SOL    HW170401   3.935   9.694   7.361 -0.6700  0.2231  0.1586
22798SOL    HW270402   3.904   9.761   7.493  0.7864  0.5740  0.3347
22799SOL     OW70403   0.916   6.681  10.180  0.1348 -0.1272 -0.3787
22799SOL    HW170404   0.977   6.615  10.149 -0.9994 -1.3612 -0.0587
22799SOL    HW270405   0.867   6.638  10.250  1.2412  1.9061  1.8442
22800SOL     OW70406   1.685   5.587   5.122 -0.2430  0.4229 -0.0871
22800SOL    HW170407   1.692   5.493   5.105 -0.8442  0.5766 -1.2776
22800SOL    HW270408   1.775   5.619   5.116 -0.1568  0.0786 -0.7474
22801SOL     OW70409   7.554  10.937   1.524 -0.0357 -0.1355 -0.0040
22801SOL    HW170410   7.471  10.972   1.494 -0.2313 -0.3296  0.2978
22801SOL    HW270411   7.620  10.996   1.488 -0.4057  1.1153  1.2814
22802SOL     OW70412   6.146   0.538   2.551  0.4264 -0.0350  0.0788
22802SOL    HW170413   6.145   0.550   2.456  0.3584 -3.4883 -0.4687
22802SOL    HW270414   6.059   0.505   2.572  0.3367  0.9932  1.4280
22803SOL     OW70415   1.582   3.359   6.598 -0.1071 -0.5069  0.0279
22803SOL    HW170416   1.565   3.270   6.567  1.1824 -1.5600  2.0891
22803SOL    HW270417   1.676   3.361   6.615 -0.1580  1.1661  0.2754
22804SOL     OW70418   4.207   8.084  10.744  0.0342  0.1859 -1.2175
22804SOL    HW170419   4.244   8.023  10.808 -0.5542 -0.0796 -1.1213
22804SOL    HW270420   4.113   8.065  10.745 -0.2835  1.6667 -0.5767
22805SOL     OW70421   3.767   9.367   9.313  0.2662 -0.0032 -0.2189
22805SOL    HW170422   3.690   9.380   9.258  1.4985  1.1065 -1.7613
22805SOL    HW270423   3.831   9.432   9.282  1.2076  0.3654  2.2148
22806SOL     OW70424   9.370   0.857   2.800 -0.3373  0.0600 -0.0078
22806SOL    HW170425   9.285   0.903   2.805 -0.0596  0.4423  2.7085
22806SOL    HW270426   9.389   0.853   2.707 -1.8105  2.8699 -0.5520
22807SOL     OW70427   2.783   0.655   5.738  0.7139 -0.3011  0.4508
22807SOL    HW170428   2.810   0.630   5.826 -0.0577  0.0718  0.8020
22807SOL    HW270429   2.862   0.690   5.698  0.6909  1.1498  1.5951
22808SOL     OW70430   7.828   5.165   4.097 -0.1316  0.4004  0.1017
22808SOL    HW170431   7.763   5.125   4.039  0.1650 -0.1501  0.1435
22808SOL    HW270432   7.884   5.217   4.038 -1.3896  1.9706  0.2224
22809SOL     OW70433   3.690   1.582   0.679 -0.2420  0.2040  0.3350
22809SOL    HW170434   3.726   1.533   0.605  2.3492 -1.4296  2.5138
22809SOL    HW270435   3.675   1.670   0.644  1.6987 -0.2478 -1.9215
22810SOL     OW70436  10.479   8.254   4.007 -0.0640 -0.1269  0.1482
22810SOL    HW170437  10.411   8.197   4.043  1.6925 -2.6348 -0.2095
22810SOL    HW270438  10.457   8.261   3.914 -0.9190  0.7557  0.4093
22811SOL     OW70439   2.707   3.591  10.457  0.6372 -0.3130 -0.0647
22811SOL    HW170440   2.702   3.684  10.475  0.2781 -0.1467 -0.9573
22811SOL    HW270441   2.639   3.552  10.512  0.6260 -0.0236  0.1274
22812SOL     OW70442  10.021   6.662   6.299 -0.1594  0.6420 -0.1970
22812SOL    HW170443  10.006   6.727   6.230  1.5336  0.6115 -0.6317
22812SOL    HW270444  10.116   6.662   6.312 -0.0544 -2.1082 -0.5376
22813SOL     OW70445   3.209   6.010   3.260  0.2595 -0.1441 -0.1442
22813SOL    HW170446   3.272   6.072   3.225  0.6429 -1.5046 -2.0723
22813SOL    HW270447   3.125   6.038   3.224  0.5850 -1.2676 -1.9045
22814SOL     OW70448   9.064   0.232   5.732  0.2598  0.0071 -0.0499
22814SOL    HW170449   9.038   0.141   5.745  2.5603 -0.5816  0.8473
22814SOL    HW270450   9.039   0.276   5.813  0.1713 -0.0748 -0.0329
22815SOL     OW70451   6.380   3.506   0.224  0.0171 -0.4326  0.5274
22815SOL    HW170452   6.289   3.475   0.223 -0.8226  1.8498 -1.0217
22815SOL    HW270453   6.386   3.559   0.304 -1.4644  3.0189 -1.4370
22816SOL     OW70454   3.279   0.940   3.983 -0.3564 -0.1608  0.0111
22816SOL    HW170455   3.282   1.020   3.930 -1.5059  1.7664  2.5759
22816SOL    HW270456   3.188   0.910   3.975 -0.7932  0.6636  1.4517
22817SOL     OW70457   2.416   8.299   5.095  0.4306 -0.0831  0.2147
22817SOL    HW170458   2.480   8.331   5.158  1.3344  0.8701 -1.1158
22817SOL    HW270459   2.369   8.378   5.068  1.0891 -0.2042 -1.3888
22818SOL     OW70460   4.131   6.454   9.621 -0.1584 -0.4825  0.0179
22818SOL    HW170461   4.059   6.478   9.679 -1.5712 -1.1815 -1.3585
22818SOL    HW270462   4.188   6.531   9.619 -2.2890  1.1753 -0.9367
22819SOL     OW70463   6.364   5.830  10.582  0.5118 -0.3259  0.3698
22819SOL    HW170464   6.315   5.748  10.583 -0.1579  0.0604  0.1136
22819SOL    HW270465   6.429   5.820  10.651 -1.0846 -0.1646  1.9616
22820SOL     OW70466   1.770   7.400   4.610  0.5339  0.3306 -0.2310
22820SOL    HW170467   1.789   7.492   4.592  0.0794  0.7929  1.4922
22820SOL    HW270468   1.821   7.352   4.545  0.8445  1.7934 -1.1043
22821SOL     OW70469   6.414   0.659   6.012 -0.0174  0.3934 -0.4884
22821SOL    HW170470   6.351   0.675   6.082  0.2389  1.5643 -0.5149
22821SOL    HW270471   6.362   0.619   5.942 -0.2117 -1.1269  0.4634
22822SOL     OW70472   7.447   5.496   8.698  0.0523 -0.0630  0.2554
22822SOL    HW170473   7.463   5.402   8.691  2.2565  0.2923 -0.4349
22822SOL    HW270474   7.533   5.533   8.718 -0.8853  1.7601  1.1506
22823SOL     OW70475   1.363   1.043  10.875 -0.0206 -0.1042  0.0596
22823SOL    HW170476   1.358   1.008  10.786  0.5045 -0.4862  0.1773
22823SOL    HW270477   1.290   1.002  10.921  0.7267 -1.2365  0.2586
22824SOL     OW70478   1.448   1.452  10.025  0.2733  0.2944  0.5528
22824SOL    HW170479   1.378   1.396  10.059 -0.9263  0.6766 -1.1445
22824SOL    HW270480   1.406   1.536  10.009  0.8694  0.2904 -1.2849
22825SOL     OW70481   0.275   0.236   5.363 -0.6159  0.0047  0.4412
22825SOL    HW170482   0.287   0.159   5.419  1.5389  0.0270  0.1072
22825SOL    HW270483   0.191   0.273   5.391 -0.8192 -1.4225  1.8788
22826SOL     OW70484   8.145   0.084   1.791  0.0502  0.2517 -0.2637
22826SOL    HW170485   8.107   0.170   1.775 -0.0619  0.0551 -1.0702
22826SOL    HW270486   8.223   0.081   1.736  0.4162  0.0817  0.2569
22827SOL     OW70487   1.146  10.505   9.721  0.1753 -0.8107 -0.1532
22827SOL    HW170488   1.199  10.585   9.728  0.0997 -0.8295  0.6920
22827SOL    HW270489   1.097  10.516   9.640 -0.9859  0.7097  0.7064
22828SOL     OW70490   3.976   9.429   6.115 -0.0057 -0.5434  0.8960
22828SOL    HW170491   3.961   9.503   6.056  0.5113 -0.5792  0.7072
22828SOL    HW270492   3.930   9.356   6.075 -0.5670 -0.3095  1.1140
22829SOL     OW70493   4.545   9.443   6.045 -0.0158  0.1499 -0.3865
22829SOL    HW170494   4.603   9.471   5.974 -0.0720  0.7589 -0.2027
22829SOL    HW270495   4.457   9.461   6.012 -0.0149  1.3277  0.1808
22830SOL     OW70496   0.500   0.703   5.523  0.4245 -0.3187 -0.1641
22830SOL    HW170497   0.500   0.608   5.513 -0.7216 -0.2978 -0.4989
22830SOL    HW270498   0.423   0.732   5.474  0.8641  0.7968 -0.2064
22831SOL     OW70499   2.329  10.066   3.363  0.6818 -0.3735  0.2046
22831SOL    HW170500   2.296  10.058   3.453  0.2262 -0.6953  0.0122
22831SOL    HW270501   2.255  10.040   3.308  1.2511 -1.1052 -0.2322
22832SOL     OW70502   5.288   1.649   2.145 -0.0106  0.1142  0.7740
22832SOL    HW170503   5.250   1.604   2.221 -0.9395 -1.5398 -0.5984
22832SOL    HW270504   5.213   1.688   2.101  0.1376 -1.0489 -0.5989
22833SOL     OW70505   2.421   7.246   4.252 -0.3663  0.0222  0.4444
22833SOL    HW170506   2.470   7.195   4.188 -2.2488  0.6627 -1.6427
22833SOL    HW270507   2.475   7.245   4.331  0.3751 -3.8467  0.0493
22834SOL     OW70508   8.570   7.774   2.480 -0.3851 -0.2587 -0.2380
22834SOL    HW170509   8.644   7.834   2.475  1.0540 -1.7131  1.8230
22834SOL    HW270510   8.543   7.778   2.572 -0.4622 -2.4545 -0.1147
22835SOL     OW70511   7.580   6.805   0.653  0.6963  0.0471  0.3101
22835SOL    HW170512   7.498   6.762   0.677 -0.1643  1.6425  0.3098
22835SOL    HW270513   7.606   6.761   0.572  0.0311 -0.7160  0.4931
22836SOL     OW70514   2.080   1.816   5.671  0.1449 -0.4851  0.9134
22836SOL    HW170515   2.012   1.799   5.605  0.4603  0.3518  0.3483
22836SOL    HW270516   2.085   1.735   5.722 -0.7023 -0.8468  0.4467
22837SOL     OW70517   0.708  10.629   3.395  0.0118  0.1019  0.0695
22837SOL    HW170518   0.643  10.673   3.451 -1.1781 -1.9301  0.4467
22837SOL    HW270519   0.775  10.694   3.379 -1.5185  1.9369  0.7299
22838SOL     OW70520   2.862   4.701   4.328  0.0637 -0.0162  0.2962
22838SOL    HW170521   2.928   4.635   4.305  0.2339  1.0485 -2.6998
22838SOL    HW270522   2.780   4.667   4.293  0.0453  1.0220 -0.7447
22839SOL     OW70523   7.710   7.623   2.474  0.2927 -0.2043 -0.4786
22839SOL    HW170524   7.638   7.565   2.498 -0.1426  0.0560 -1.1489
22839SOL    HW270525   7.720   7.612   2.379 -0.2540  1.3199 -0.7432
22840SOL     OW70526   5.631   4.188  10.473  0.0179 -0.0027  0.3965
22840SOL    HW170527   5.650   4.102  10.511  0.7568  0.3447  0.8405
22840SOL    HW270528   5.703   4.204  10.412 -0.9743 -0.3991 -0.9322
22841SOL     OW70529   7.781  10.069  10.754 -0.0278  0.0116  0.7894
22841SOL    HW170530   7.854  10.008  10.766  0.6736  0.7014  0.1190
22841SOL    HW270531   7.819  10.155  10.770 -1.0220  0.2863  1.7530
22842SOL     OW70532   9.920   0.540   9.708  0.3311  0.3093 -0.2757
22842SOL    HW170533   9.919   0.552   9.613 -0.4448  0.3453 -0.2700
22842SOL    HW270534   9.999   0.488   9.724 -1.6638 -3.4458 -1.4345
22843SOL     OW70535   8.484   4.646   4.016 -0.1468 -0.3247  0.1095
22843SOL    HW170536   8.412   4.692   4.059 -0.1154  1.6633 -1.7608
22843SOL    HW270537   8.556   4.649   4.079  0.3831  3.7976 -0.3967
22844SOL     OW70538   5.216   4.674   3.867 -0.4580 -0.4293 -0.2676
22844SOL    HW170539   5.201   4.699   3.776  0.8766  2.4137  0.1875
22844SOL    HW270540   5.138   4.704   3.914  0.0303  0.6355 -0.1075
22845SOL     OW70541   3.151   1.687   4.928  0.3096 -0.0108 -0.1183
22845SOL    HW170542   3.207   1.671   5.004 -1.6000 -1.2649  1.1158
22845SOL    HW270543   3.064   1.704   4.965 -0.4788  0.3321 -2.0060
22846SOL     OW70544   1.181   8.197   7.590 -0.7476  0.5081 -0.1360
22846SOL    HW170545   1.225   8.147   7.521  0.0676  0.6519  0.2623
22846SOL    HW270546   1.140   8.270   7.544  0.4704  1.0623 -0.4078
22847SOL     OW70547   0.462   1.475   2.551 -0.1790 -0.2159  0.2610
22847SOL    HW170548   0.505   1.525   2.621  0.4410  0.2911 -0.4718
22847SOL    HW270549   0.445   1.539   2.482  1.8921 -1.2037 -1.2920
22848SOL     OW70550   6.776   0.486   9.689 -0.4081  0.3006 -0.1742
22848SOL    HW170551   6.769   0.494   9.784 -0.5321  1.5389 -0.2643
22848SOL    HW270552   6.687   0.499   9.657 -0.5133 -0.9453 -0.4283
22849SOL     OW70553   8.076   0.447   2.437 -0.1165 -0.2444  0.4956
22849SOL    HW170554   8.119   0.362   2.445 -0.9015 -0.5998  1.0450
22849SOL    HW270555   8.012   0.435   2.367  0.3956  0.1708 -0.0539
22850SOL     OW70556   5.837  10.126   7.892  0.2214  0.2099  0.2065
22850SOL    HW170557   5.907  10.175   7.934  1.9380 -1.9297  0.0317
22850SOL    HW270558   5.828  10.167   7.806  0.8776  0.8461  0.4278
22851SOL     OW70559   7.537   9.906  10.734 -0.5921 -0.4159  0.2052
22851SOL    HW170560   7.571   9.824  10.771  0.6672 -0.7252 -1.5375
22851SOL    HW270561   7.601   9.972  10.759  1.2523 -0.9182 -2.6740
22852SOL     OW70562  10.452   9.302   1.954  0.5193  0.4781  0.2218
22852SOL    HW170563  10.417   9.387   1.928  0.4151  0.5130  0.4692
22852SOL    HW270564  10.421   9.242   1.887 -0.6387  0.3775  0.8294
22853SOL     OW70565  10.971   4.478   3.351  0.1710 -0.0665 -0.2773
22853SOL    HW170566  10.947   4.393   3.315 -0.1436  0.8254 -2.3126
22853SOL    HW270567  11.023   4.458   3.429 -0.5940 -2.0906 -0.2398
22854SOL     OW70568   7.852   2.251   6.651  0.1655 -0.2957  0.4862
22854SOL    HW170569   7.770   2.257   6.699 -0.1946 -0.5595 -0.0856
22854SOL    HW270570   7.827   2.219   6.564  0.5003  2.4738 -0.7053
22855SOL     OW70571   4.085   9.648   3.739  0.3099  0.2124  0.2741
22855SOL    HW170572   4.164   9.661   3.688  0.2193 -0.1707  0.0350
22855SOL    HW270573   4.086   9.719   3.803 -0.8330  2.2558 -1.8085
22856SOL     OW70574   2.224   9.234   8.297 -0.1302 -0.5635  0.5270
22856SOL    HW170575   2.149   9.227   8.355 -1.1946 -0.1586 -0.7590
22856SOL    HW270576   2.300   9.232   8.355 -1.1214 -1.1486  1.8318
22857SOL     OW70577   1.122  10.523   8.108  0.2252 -0.4259  0.3631
22857SOL    HW170578   1.210  10.495   8.082  0.1140 -0.6124  0.1848
22857SOL    HW270579   1.075  10.441   8.125 -0.3643 -0.3884 -1.0124
22858SOL     OW70580   7.439   1.414   4.774 -0.1357  0.1771 -0.4245
22858SOL    HW170581   7.364   1.383   4.723 -0.1742  1.4811 -1.1948
22858SOL    HW270582   7.514   1.404   4.714  0.2819 -0.8489  0.2394
22859SOL     OW70583   1.744   4.075   6.488  0.1994 -0.4757  0.6008
22859SOL    HW170584   1.660   4.034   6.508 -2.4367  3.3452 -1.2975
22859SOL    HW270585   1.753   4.145   6.552  1.9625 -0.7888  0.7389
22860SOL     OW70586   7.584   7.391   0.170  0.2698  0.0971  0.0629
22860SOL    HW170587   7.574   7.486   0.175 -0.7464  0.2250 -2.6070
22860SOL    HW270588   7.575   7.371   0.076 -1.9496 -2.8633  0.7439
22861SOL     OW70589   0.415   3.052   0.235  0.3735 -0.2140  0.4344
22861SOL    HW170590   0.474   3.004   0.294  1.5398  1.4040  0.6641
22861SOL    HW270591   0.328   3.017   0.253  1.2155 -2.5969  0.1895
22862SOL     OW70592   1.488   3.761   8.220 -0.1542  0.4275 -0.6550
22862SOL    HW170593   1.402   3.723   8.235  1.2280 -1.8408  3.2404
22862SOL    HW270594   1.529   3.705   8.154 -0.6221 -0.5069 -0.1693
22863SOL     OW70595   4.093  10.260   7.809  0.3367  0.4420  0.0029
22863SOL    HW170596   4.001  10.244   7.789  0.3450  1.1290 -0.6561
22863SOL    HW270597   4.131  10.288   7.725  0.5927  2.5583  0.7550
22864SOL     OW70598   8.012   7.165   5.218 -0.2994 -0.0145  0.2063
22864SOL    HW170599   8.026   7.102   5.147  1.7930  0.1044  0.4450
22864SOL    HW270600   8.100   7.187   5.247 -1.0537  1.7143  1.3019
22865SOL     OW70601   7.158   4.766   5.216  0.0621  0.7916  0.5808
22865SOL    HW170602   7.135   4.851   5.253 -0.4476 -0.0530  2.2964
22865SOL    HW270603   7.074   4.726   5.193  0.3126  0.8197 -0.4554
22866SOL     OW70604   2.799   4.668   9.428 -0.2253  0.5148  0.3028
22866SOL    HW170605   2.754   4.722   9.363 -0.1076  1.1305  0.7187
22866SOL    HW270606   2.730   4.617   9.469 -0.1672 -0.7560 -1.0908
22867SOL     OW70607   2.517   7.168   2.195  0.0956  0.3915  0.6947
22867SOL    HW170608   2.547   7.259   2.204  0.8164  0.1812  0.5007
22867SOL    HW270609   2.424   7.176   2.173 -0.5525  1.0308  3.2267
22868SOL     OW70610   4.894   5.244  10.184  0.0278 -0.1075 -0.5153
22868SOL    HW170611   4.858   5.297  10.113 -2.6416 -0.7604  0.2727
22868SOL    HW270612   4.903   5.157  10.147 -1.3748 -0.4505 -0.0879
22869SOL     OW70613   8.224   2.444   3.442 -0.5015  0.0935 -0.2862
22869SOL    HW170614   8.184   2.531   3.443  0.0488  0.3877 -1.6032
22869SOL    HW270615   8.244   2.426   3.534 -1.4908  0.9352  0.1183
22870SOL     OW70616   0.762   7.528   3.939  0.8073 -0.3233 -0.4971
22870SOL    HW170617   0.788   7.479   3.861 -0.9540 -2.5941  0.2200
22870SOL    HW270618   0.814   7.490   4.010  0.0953 -0.5479 -0.0811
22871SOL     OW70619   8.711   9.429   7.382 -0.3799  0.2326 -0.2067
22871SOL    HW170620   8.734   9.487   7.455  1.1777 -1.3997  0.6736
22871SOL    HW270621   8.715   9.485   7.305 -0.3779  1.6152  0.7631
22872SOL     OW70622   4.682   1.036   6.804  0.3773 -0.0033 -0.4626
22872SOL    HW170623   4.727   1.092   6.740  0.1085  1.7021  0.7762
22872SOL    HW270624   4.596   1.020   6.764  1.5354 -2.2572 -2.2766
22873SOL     OW70625   4.768   6.197   2.238  0.5982 -0.2693  0.4274
22873SOL    HW170626   4.720   6.186   2.156  0.0011 -0.3351  0.7787
22873SOL    HW270627   4.721   6.268   2.284  1.0237 -0.1229  0.6398
22874SOL     OW70628   7.081   3.704   9.954 -0.2453 -0.6762 -0.0416
22874SOL    HW170629   7.101   3.794   9.980  1.4369 -1.5316  1.9715
22874SOL    HW270630   6.995   3.686   9.991  0.5509 -0.6853  1.9281
22875SOL     OW70631   0.384   6.046   4.497 -0.2070  0.0662 -0.4797
22875SOL    HW170632   0.379   6.099   4.418 -0.0343  0.5385 -0.1733
22875SOL    HW270633   0.437   6.097   4.558 -1.8313  0.5410  0.5899
22876SOL     OW70634   0.992   8.341   8.190  0.0481 -0.2061  0.5051
22876SOL    HW170635   0.941   8.337   8.109 -0.4701 -2.6058  0.8773
22876SOL    HW270636   1.058   8.408   8.174 -0.4042 -0.2198 -1.6739
22877SOL     OW70637   1.784   3.907   8.239 -0.1679 -0.4282  0.0151
22877SOL    HW170638   1.776   3.972   8.169  0.1775  1.7581  1.8816
22877SOL    HW270639   1.701   3.858   8.236 -0.1322 -0.4337 -1.9119
22878SOL     OW70640   6.284  10.507   7.180  0.1262  0.4777  0.5380
22878SOL    HW170641   6.253  10.483   7.093 -0.4408  1.7030  0.3885
22878SOL    HW270642   6.380  10.500   7.174  0.0920 -4.3494  1.2953
22879SOL     OW70643  10.151   3.466   8.880 -1.0822 -0.0018 -0.1596
22879SOL    HW170644  10.070   3.418   8.897 -1.3405 -0.2367 -1.8118
22879SOL    HW270645  10.157   3.469   8.784  1.6981 -1.3929 -0.1225
22880SOL     OW70646   7.477   0.160   7.740 -0.0777  0.5034  0.4273
22880SOL    HW170647   7.522   0.242   7.719 -0.4270  0.1408 -2.0436
22880SOL    HW270648   7.495   0.103   7.666  0.5713 -1.8890  2.3013
22881SOL     OW70649  10.268   0.747  10.767 -0.1346 -0.0564  0.0068
22881SOL    HW170650  10.176   0.752  10.794 -0.5972 -3.3053 -0.5928
22881SOL    HW270651  10.275   0.809  10.695 -2.0238 -0.1021 -0.2714
22882SOL     OW70652   2.276   9.875   4.468 -0.8920 -0.1668 -0.1302
22882SOL    HW170653   2.287   9.855   4.561 -0.5139 -1.8173 -0.5140
22882SOL    HW270654   2.269   9.790   4.425 -1.1300  0.5700 -1.6169
22883SOL     OW70655   8.549   0.926   7.713  0.7277 -0.2478 -0.7986
22883SOL    HW170656   8.585   1.006   7.675 -2.1105  1.4705 -0.1487
22883SOL    HW270657   8.561   0.937   7.807  1.8447 -1.4401 -0.7729
22884SOL     OW70658   0.707   2.022   3.866  0.1931  0.7311  0.0243
22884SOL    HW170659   0.698   2.102   3.917 -1.3127  1.1268 -0.8012
22884SOL    HW270660   0.617   1.994   3.849  0.6368  0.4137 -2.0765
22885SOL     OW70661   0.020   8.343   0.905 -0.4432  0.2790  0.6765
22885SOL    HW170662   0.076   8.304   0.973 -0.8560  0.4629  1.1229
22885SOL    HW270663  -0.003   8.269   0.848  0.8282  0.3189  0.0739
22886SOL     OW70664   2.421   9.176   0.837  0.2340 -0.1730 -0.2024
22886SOL    HW170665   2.438   9.082   0.847 -1.6453 -0.7381 -1.7255
22886SOL    HW270666   2.508   9.216   0.838  1.0734 -1.9117  0.5111
22887SOL     OW70667   0.450   8.779   0.624 -0.4347  0.1941 -0.0620
22887SOL    HW170668   0.514   8.739   0.565 -1.0081 -0.8890  0.0309
22887SOL    HW270669   0.383   8.712   0.635 -1.1639  1.0060  0.5127
22888SOL     OW70670   0.041   0.984   7.148  0.0974  0.2836  0.4403
22888SOL    HW170671   0.029   0.891   7.127 -0.3242  0.5117 -0.3774
22888SOL    HW270672   0.100   1.016   7.080  1.8864  0.1837  1.8714
22889SOL     OW70673   0.005   8.022   0.129 -0.5710 -0.1998  0.1541
22889SOL    HW170674   0.031   8.002   0.039 -0.7110  1.0912 -0.1926
22889SOL    HW270675  -0.073   8.077   0.120 -0.8798 -0.4584  1.0819
22890SOL     OW70676   5.209   9.511   9.504  0.1033 -0.1173  0.2641
22890SOL    HW170677   5.114   9.497   9.510 -0.0864  1.5109  2.7399
22890SOL    HW270678   5.247   9.426   9.525 -0.7807 -0.8741 -1.1072
22891SOL     OW70679   9.889   0.878   3.669  0.1992 -0.5896 -0.6569
22891SOL    HW170680   9.901   0.885   3.575  2.8778 -0.5282 -0.3659
22891SOL    HW270681   9.937   0.952   3.706 -0.5684 -0.7699  0.8033
22892SOL     OW70682   4.115   6.647   8.054  0.1619  0.5706 -0.5404
22892SOL    HW170683   4.136   6.719   8.113 -1.1918  1.1324 -0.7224
22892SOL    HW270684   4.022   6.632   8.067  0.6307 -2.0552  0.4932
22893SOL     OW70685   6.207   3.332   3.448 -0.0634 -0.3798 -0.0241
22893SOL    HW170686   6.297   3.319   3.417  0.0716 -3.1852  1.2292
22893SOL    HW270687   6.217   3.351   3.542 -0.7763 -1.7355  0.3493
22894SOL     OW70688   2.014   7.311   2.482 -0.8785  0.1979  0.2396
22894SOL    HW170689   2.004   7.220   2.454  0.1133 -0.1957  1.0915
22894SOL    HW270690   2.048   7.356   2.405  3.4642 -1.2025  1.0497
22895SOL     OW70691   3.600   5.045   7.794 -0.2620  0.1711  0.4157
22895SOL    HW170692   3.545   5.033   7.871  0.2278 -0.5889  0.6574
22895SOL    HW270693   3.586   4.966   7.742  1.8612 -0.8433  1.2917
22896SOL     OW70694   3.779   5.302   7.477  0.2424 -0.4816 -0.1174
22896SOL    HW170695   3.861   5.329   7.436  0.2868 -1.3988 -0.6730
22896SOL    HW270696   3.806   5.252   7.555  0.2191 -0.7669 -0.2896
22897SOL     OW70697   0.018   7.400   3.309  0.1422  0.2989 -0.2129
22897SOL    HW170698   0.020   7.313   3.269  0.8054 -0.7102  1.8347
22897SOL    HW270699  -0.015   7.385   3.398  0.3947  2.1152  0.2367
22898SOL     OW70700   7.190   9.867   0.522 -0.3774  0.1459 -0.3381
22898SOL    HW170701   7.134   9.881   0.598  1.4365 -1.1357  1.3435
22898SOL    HW270702   7.189   9.772   0.508  0.1609  0.2595 -1.2737
22899SOL     OW70703   0.929   4.231   8.327 -0.1497  0.0899 -0.1517
22899SOL    HW170704   1.016   4.198   8.304 -0.3984 -1.1282  0.6196
22899SOL    HW270705   0.912   4.299   8.262  1.7489  0.9849  0.2080
22900SOL     OW70706   7.316   9.302   5.979 -0.0354  0.0540  0.8138
22900SOL    HW170707   7.390   9.302   5.919  0.9252 -2.5696  1.8641
22900SOL    HW270708   7.282   9.391   5.974  0.5395  0.2240 -2.8543
22901SOL     OW70709   9.045   5.010   1.476 -0.3638 -0.3564  0.4082
22901SOL    HW170710   9.070   4.928   1.434 -0.3954 -0.8941  1.3960
22901SOL    HW270711   9.034   5.072   1.404  1.5582 -0.7025 -0.2341
22902SOL     OW70712   7.731   1.821   3.763 -0.6541  0.3293 -0.3322
22902SOL    HW170713   7.819   1.813   3.799 -0.7678 -0.7816 -0.2690
22902SOL    HW270714   7.743   1.863   3.678  0.0585 -0.7552 -0.7836
22903SOL     OW70715   5.048   7.660   1.084  0.0508 -0.5967 -0.2814
22903SOL    HW170716   5.056   7.595   1.154  1.9271  0.3452  0.4421
22903SOL    HW270717   5.137   7.673   1.052 -0.4896  0.5058 -1.4709
22904SOL     OW70718   0.181   0.894   1.505 -0.2980  0.1428 -0.5133
22904SOL    HW170719   0.174   0.979   1.548 -2.4775  0.3904 -1.2429
22904SOL    HW270720   0.175   0.830   1.576  0.8206  0.5569 -0.0200
22905SOL     OW70721   6.109   6.841   0.802 -0.2068 -0.1431 -0.0658
22905SOL    HW170722   6.141   6.925   0.836 -2.0023  0.2404  0.7969
22905SOL    HW270723   6.060   6.864   0.723 -0.6405 -0.3737  0.1301
22906SOL     OW70724   9.725   3.078   6.978 -0.6912  0.3622  0.1404
22906SOL    HW170725   9.669   3.129   7.036 -1.6798 -0.4688 -0.0587
22906SOL    HW270726   9.808   3.125   6.977 -2.5032  3.9956 -2.7624
22907SOL     OW70727   1.005   5.113  10.868 -0.2044  0.1989  0.4430
22907SOL    HW170728   1.098   5.107  10.892 -0.2209  2.0655  1.1286
22907SOL    HW270729   0.962   5.046  10.921  0.3969  1.2216  2.2898
22908SOL     OW70730   5.639   6.556   8.932  0.3004 -0.3691  0.1275
22908SOL    HW170731   5.576   6.511   8.876 -0.9241  2.7932 -1.3042
22908SOL    HW270732   5.719   6.560   8.880  0.8621 -1.9359  0.8094
22909SOL     OW70733   8.960   3.622   6.990 -0.4399  0.0535  0.1968
22909SOL    HW170734   9.038   3.658   6.948 -1.2060  0.1067 -1.2461
22909SOL    HW270735   8.967   3.528   6.976 -0.3287 -0.0002  0.6122
22910SOL     OW70736   4.389   5.265   9.788  0.1895 -0.4101 -0.1977
22910SOL    HW170737   4.321   5.262   9.720 -1.7029 -1.5541  1.5978
22910SOL    HW270738   4.411   5.173   9.803 -0.8125 -0.3649  1.9323
22911SOL     OW70739   6.021   5.481  10.087 -0.5408 -0.3256  0.4821
22911SOL    HW170740   6.003   5.457   9.996 -0.5783 -0.4715  0.5273
22911SOL    HW270741   5.961   5.554  10.104 -1.4285 -1.1028  0.7676
22912SOL     OW70742   7.526   7.181   6.065 -0.2654 -0.5629  0.3092
22912SOL    HW170743   7.474   7.110   6.028 -0.1262 -0.1673 -0.6707
22912SOL    HW270744   7.461   7.241   6.103 -0.6790  0.5715 -2.0139
22913SOL     OW70745   0.915  10.078   6.299  0.2253  0.5503  0.0129
22913SOL    HW170746   0.929  10.008   6.363 -0.3933  0.5200  0.1224
22913SOL    HW270747   0.892  10.154   6.352  2.7078  1.3653  0.0320
22914SOL     OW70748   6.662   4.280   3.870  0.0756 -0.0762  0.0047
22914SOL    HW170749   6.631   4.199   3.830 -1.3621  0.1752  0.5292
22914SOL    HW270750   6.739   4.254   3.921  0.4302 -0.8516 -0.9103
22915SOL     OW70751   3.500   0.961   5.756 -0.1004  0.1537  0.2047
22915SOL    HW170752   3.467   0.938   5.843 -2.5676 -0.9048 -0.9278
22915SOL    HW270753   3.455   1.043   5.734 -2.2977 -1.3703 -1.4082
22916SOL     OW70754   5.110   0.426   6.134  0.1211  0.5010 -0.2071
22916SOL    HW170755   5.075   0.338   6.125  0.7551  0.3500 -1.5119
22916SOL    HW270756   5.143   0.431   6.224 -0.6995 -0.2854  0.1397
22917SOL     OW70757   7.126   2.017   1.667  0.0286  0.7014  0.1107
22917SOL    HW170758   7.073   2.069   1.728 -1.4150  1.9088 -2.0310
22917SOL    HW270759   7.206   1.997   1.715 -0.7768  2.0900  2.1585
22918SOL     OW70760   5.830   7.351   6.548  0.0586 -0.6267 -0.7408
22918SOL    HW170761   5.795   7.421   6.493 -1.8493 -1.2929 -0.4464
22918SOL    HW270762   5.920   7.377   6.565 -0.4076  1.4302 -1.1533
22919SOL     OW70763   9.232  10.780   0.204  0.4807  0.0239 -0.3921
22919SOL    HW170764   9.137  10.790   0.192  0.7571  3.0981 -0.9186
22919SOL    HW270765   9.242  10.765   0.298 -0.4871  0.3161 -0.2245
22920SOL     OW70766   0.646   1.050   8.269 -0.6755 -0.4242 -0.1149
22920SOL    HW170767   0.708   0.978   8.280 -1.0605 -0.5614  1.3319
22920SOL    HW270768   0.575   1.031   8.330 -0.7118  1.2643  0.4360
22921SOL     OW70769   9.550   9.742   7.636 -0.1852  0.2297  0.1918
22921SOL    HW170770   9.483   9.689   7.680  0.5850  0.4681  1.6959
22921SOL    HW270771   9.590   9.682   7.573 -2.3671  0.3163 -1.4102
22922SOL     OW70772   0.755   0.613   2.958  0.0423 -0.1142  0.0133
22922SOL    HW170773   0.710   0.639   2.878  0.9115  0.5647 -0.2710
22922SOL    HW270774   0.700   0.545   2.996  0.1084 -1.1638 -1.6716
22923SOL     OW70775   5.203   7.054   9.644 -0.8513  0.4168  0.1126
22923SOL    HW170776   5.229   6.985   9.583 -0.8973  1.0029 -0.5856
22923SOL    HW270777   5.266   7.047   9.716 -1.1335 -0.6380  0.2676
22924SOL     OW70778   5.406   8.458   7.063 -0.1405 -0.4621 -0.1158
22924SOL    HW170779   5.424   8.467   6.969 -1.2009 -0.3341 -0.3146
22924SOL    HW270780   5.350   8.381   7.070  1.1485 -1.3854  0.5951
22925SOL     OW70781   9.810   2.928   8.211  0.3162  0.2069 -0.4296
22925SOL    HW170782   9.782   2.998   8.269 -0.2409 -1.2304  1.0952
22925SOL    HW270783   9.891   2.960   8.172  0.1260  1.6375  0.2981
22926SOL     OW70784   1.748   9.717   1.657 -0.0044 -0.1898 -0.0017
22926SOL    HW170785   1.777   9.805   1.632  0.3057 -0.4792 -0.6923
22926SOL    HW270786   1.744   9.719   1.753  1.2649  0.1924  0.0643
22927SOL     OW70787   2.753   1.611  10.853  0.4374  0.0859  0.1492
22927SOL    HW170788   2.826   1.651  10.805 -0.6167  1.3420 -0.4481
22927SOL    HW270789   2.739   1.528  10.809  0.7153  0.3820 -0.5184
22928SOL     OW70790   1.846   8.648   1.056 -0.6079 -0.3187  0.1727
22928SOL    HW170791   1.848   8.723   0.997 -0.4853  1.1510  1.9624
22928SOL    HW270792   1.757   8.647   1.091 -0.2721 -0.2490  1.0602
22929SOL     OW70793   8.154   1.165   7.178 -0.5801  0.3120 -0.2028
22929SOL    HW170794   8.159   1.184   7.085 -2.4548 -0.2343 -0.4496
22929SOL    HW270795   8.182   1.074   7.186 -0.0504  0.4730 -0.1626
22930SOL     OW70796   0.802   2.060   8.137 -0.3158 -0.5088 -0.1606
22930SOL    HW170797   0.795   1.967   8.158  0.3738 -0.3132  1.0091
22930SOL    HW270798   0.881   2.067   8.085 -0.7370 -0.6599 -0.8350
22931SOL     OW70799   0.884  10.058   0.545 -0.3657 -0.1346 -0.2867
22931SOL    HW170800   0.815  10.016   0.494  0.1329 -0.6082 -0.5934
22931SOL    HW270801   0.838  10.108   0.612 -0.9855 -1.2749  0.1769
22932SOL     OW70802  10.027   8.231   4.806 -0.1899  0.1448  0.1150
22932SOL    HW170803  10.059   8.232   4.715  0.8566  0.8647  0.4693
22932SOL    HW270804  10.104   8.208   4.858 -0.6181  0.4070  0.8746
22933SOL     OW70805   4.931   2.880   8.858 -0.1624  0.0023  0.0178
22933SOL    HW170806   4.985   2.956   8.836  0.3792 -0.4813 -0.3831
22933SOL    HW270807   4.850   2.917   8.894  0.3649  0.7501  0.4702
22934SOL     OW70808   7.668   5.534   1.729 -0.2460 -0.8159  0.2018
22934SOL    HW170809   7.755   5.546   1.766 -0.0717  0.8395 -0.6484
22934SOL    HW270810   7.612   5.517   1.805  0.4134  0.6270  1.0625
22935SOL     OW70811   7.563   1.782   1.116  0.2786 -0.4683 -0.2068
22935SOL    HW170812   7.507   1.844   1.069  0.1104  0.1429  0.7849
22935SOL    HW270813   7.568   1.816   1.205  0.7162 -1.5306  0.1924
22936SOL     OW70814  10.423   5.627   8.320 -0.2149 -0.0420  0.2576
22936SOL    HW170815  10.328   5.614   8.313 -0.3757  1.5199 -1.1761
22936SOL    HW270816  10.436   5.656   8.410 -1.2898  0.9683  0.1163
22937SOL     OW70817   9.735   5.979   2.545  0.0633 -0.3137 -0.6450
22937SOL    HW170818   9.781   6.004   2.625 -1.0924  0.6395 -0.2479
22937SOL    HW270819   9.741   6.057   2.489  3.1286 -1.7893 -2.6534
22938SOL     OW70820  10.592   0.873   4.233  0.2950  0.6478  0.4277
22938SOL    HW170821  10.502   0.905   4.232  0.8086  2.1779 -0.1460
22938SOL    HW270822  10.609   0.850   4.324 -0.2233  1.7823  0.8312
22939SOL     OW70823   7.815   0.054   0.957 -0.8799  0.5710 -0.0798
22939SOL    HW170824   7.758   0.033   0.883 -1.9546 -1.1914  1.1666
22939SOL    HW270825   7.802   0.148   0.971 -0.1798  1.0846 -2.4656
22940SOL     OW70826   4.810   8.352   8.578  0.2170  0.6527 -0.3727
22940SOL    HW170827   4.852   8.424   8.530 -0.3448  0.8889 -0.5176
22940SOL    HW270828   4.879   8.287   8.587  0.7244  1.1913 -0.2806
22941SOL     OW70829   6.512   8.653   9.899 -0.2578 -0.0267 -0.4522
22941SOL    HW170830   6.449   8.582   9.912 -0.1595 -0.1372 -0.5748
22941SOL    HW270831   6.549   8.668   9.987  1.3504 -1.6670 -0.7787
22942SOL     OW70832   7.601   9.864  10.314 -0.4087  0.1633  0.3270
22942SOL    HW170833   7.652   9.791  10.349  0.1613  1.1368  1.6354
22942SOL    HW270834   7.661   9.939  10.317 -1.5205  1.0662  0.7270
22943SOL     OW70835   2.778   5.207   0.118  0.6083  0.5965  0.0960
22943SOL    HW170836   2.798   5.264   0.044 -0.6532 -0.5043 -1.1396
22943SOL    HW270837   2.729   5.263   0.178  1.7201  1.5220  0.1807
22944SOL     OW70838   7.373   0.145   6.479 -0.3764 -0.4396  0.2611
22944SOL    HW170839   7.357   0.234   6.511 -0.2064  0.0641 -1.0115
22944SOL    HW270840   7.306   0.130   6.413 -0.9151 -1.5872  1.0255
22945SOL     OW70841   4.745   2.002   3.871 -0.0925 -0.2203  0.1848
22945SOL    HW170842   4.744   1.916   3.913 -1.2157 -0.4937 -0.3836
22945SOL    HW270843   4.753   1.983   3.778  0.1393  0.3140  0.0907
22946SOL     OW70844   0.371   5.370   7.030  0.3362  0.0005  0.6124
22946SOL    HW170845   0.416   5.365   7.114  0.5023  0.9932  0.5999
22946SOL    HW270846   0.328   5.456   7.031 -0.1620 -0.2332 -0.0641
22947SOL     OW70847   6.808   5.676  10.229  0.0015  0.1891 -0.1501
22947SOL    HW170848   6.822   5.771  10.225  1.6141 -0.0111  0.1110
22947SOL    HW270849   6.839   5.644  10.144  3.5511 -0.5141  1.2427
22948SOL     OW70850  10.353   2.276   0.129 -0.5459  0.5115  0.2035
22948SOL    HW170851  10.345   2.365   0.097 -1.6485  1.4573  2.8173
22948SOL    HW270852  10.280   2.229   0.088 -1.4128  1.4478  0.6290
22949SOL     OW70853   4.852   0.594   5.986  0.4719  0.2117 -0.0738
22949SOL    HW170854   4.765   0.579   5.950  0.0992 -0.5721  1.1082
22949SOL    HW270855   4.908   0.531   5.940 -0.2288 -1.6672  1.5342
22950SOL     OW70856   4.662   1.040   9.672 -0.3555 -0.2425  0.7247
22950SOL    HW170857   4.689   0.985   9.599 -2.0014  0.9591 -0.8983
22950SOL    HW270858   4.714   1.120   9.662 -0.6013 -0.0666  0.8523
22951SOL     OW70859   6.533   5.625   9.906 -0.4217 -0.4180 -0.4214
22951SOL    HW170860   6.565   5.611   9.817  1.1499 -1.9755  0.3419
22951SOL    HW270861   6.456   5.568   9.913  0.2026 -1.2860 -0.4164
22952SOL     OW70862  10.634   3.029   3.127  0.0019 -0.3457  0.5486
22952SOL    HW170863  10.560   2.986   3.169 -0.5430  1.2364  1.2966
22952SOL    HW270864  10.637   2.992   3.039 -0.7424 -1.5130  0.9954
22953SOL     OW70865   9.914  10.267  10.569 -0.1853  0.2629  0.0214
22953SOL    HW170866   9.853  10.305  10.506  0.9603  2.4740  0.1786
22953SOL    HW270867   9.920  10.332  10.639  2.5340  0.2268 -0.0997
22954SOL     OW70868   3.400   8.485   6.977  0.0811  0.4073 -0.4281
22954SOL    HW170869   3.480   8.442   7.007 -1.3461 -1.0519  1.6122
22954SOL    HW270870   3.376   8.543   7.050 -2.4150 -1.6866  0.6064
22955SOL     OW70871   3.370   6.012   5.103 -0.0923  0.0000 -0.1169
22955SOL    HW170872   3.411   6.083   5.152 -0.5261  0.3162 -0.2013
22955SOL    HW270873   3.439   5.947   5.093  0.8742  1.1758 -1.5934
22956SOL     OW70874   1.992   4.253   8.641 -0.3847  0.2015 -0.4864
22956SOL    HW170875   1.989   4.173   8.589  0.7389 -0.5278  0.5340
22956SOL    HW270876   1.951   4.319   8.585 -1.6239 -1.1368 -1.2200
22957SOL     OW70877  10.215   7.917   1.324 -0.3167 -0.0037 -0.3006
22957SOL    HW170878  10.257   7.843   1.369 -2.0516 -0.8407  0.0314
22957SOL    HW270879  10.286   7.960   1.277  0.8287 -1.6349 -0.1459
22958SOL     OW70880  10.471   0.824   7.132  0.1951 -0.6874 -0.2849
22958SOL    HW170881  10.380   0.819   7.162  0.7203  0.5785  1.7699
22958SOL    HW270882  10.475   0.904   7.079  0.5018  0.5038  1.4397
22959SOL     OW70883   6.782   1.649   5.519  0.2108 -0.4473 -0.3745
22959SOL    HW170884   6.765   1.632   5.427 -0.1301 -1.6873 -0.0923
22959SOL    HW270885   6.723   1.591   5.567 -0.1431  0.7003  0.6428
22960SOL     OW70886   7.056   9.815   4.607  0.1588 -0.1872 -0.1220
22960SOL    HW170887   7.145   9.811   4.571  0.7371 -0.0937  1.2336
22960SOL    HW270888   7.067   9.795   4.700 -1.5456 -2.3689 -0.3370
22961SOL     OW70889   0.320   9.899   0.461 -0.0044 -0.0868 -0.0146
22961SOL    HW170890   0.366   9.983   0.451  0.0318  0.0361  1.1189
22961SOL    HW270891   0.380   9.845   0.512 -1.1595  0.1358  1.6552
22962SOL     OW70892   5.962   7.690   5.902  0.5092  0.6944 -0.5009
22962SOL    HW170893   5.884   7.726   5.944  0.5748  0.5741 -0.2804
22962SOL    HW270894   5.946   7.596   5.897  0.8659  0.6062  0.0103
22963SOL     OW70895   8.158   3.384   6.470 -0.7857 -0.1846 -0.2680
22963SOL    HW170896   8.077   3.332   6.474  0.2175 -1.7554  1.9301
22963SOL    HW270897   8.136   3.466   6.514 -1.5464 -0.0444 -0.8943
22964SOL     OW70898   7.218   0.210   1.205  0.1035  0.1015  0.4488
22964SOL    HW170899   7.293   0.151   1.212  0.6840  0.3938 -2.2178
22964SOL    HW270900   7.254   0.298   1.215  0.4410  0.3268 -2.0554
22965SOL     OW70901   9.239   8.802   4.050 -0.5881  0.4384 -0.3265
22965SOL    HW170902   9.326   8.764   4.063 -0.5077 -0.2330 -2.4916
22965SOL    HW270903   9.186   8.729   4.017 -1.5846  1.1990 -0.4414
22966SOL     OW70904   7.158   3.803   6.921 -0.1092  0.3892  0.5771
22966SOL    HW170905   7.142   3.875   6.982  1.6003  0.1858  1.3256
22966SOL    HW270906   7.253   3.790   6.924 -0.3433 -1.6956  0.2278
22967SOL     OW70907   7.918   2.236   0.283 -0.7615 -0.3087  0.3600
22967SOL    HW170908   7.851   2.268   0.344 -0.5244  0.1679  0.3800
22967SOL    HW270909   7.941   2.313   0.231  0.4999 -0.2041  1.0275
22968SOL     OW70910   2.075   6.204   7.801  0.1822  0.6303  0.1801
22968SOL    HW170911   2.116   6.216   7.886 -0.3322 -0.5675  0.6247
22968SOL    HW270912   1.981   6.203   7.819  0.0882 -0.4087 -0.2652
22969SOL     OW70913   1.960   1.951   1.077  0.1130  0.4847  0.5330
22969SOL    HW170914   1.924   1.980   1.161  0.9660  0.0484  1.0619
22969SOL    HW270915   2.053   1.972   1.081  0.5117 -1.1248  0.4197
22970SOL     OW70916   7.611   8.437   3.649 -0.4554 -0.0359 -0.1382
22970SOL    HW170917   7.672   8.398   3.586  0.6090  1.5626 -0.1578
22970SOL    HW270918   7.633   8.530   3.649 -1.6389  0.2792  1.2786
22971SOL     OW70919   3.471   6.119   0.344 -0.1265 -0.0573  0.0285
22971SOL    HW170920   3.423   6.189   0.298 -0.1863  0.2347  0.5263
22971SOL    HW270921   3.409   6.089   0.410  0.3029  0.1707  0.5326
22972SOL     OW70922   3.523   5.834  10.150  0.3039  0.3774 -0.1391
22972SOL    HW170923   3.539   5.896  10.079 -0.9269  0.4442 -0.3669
22972SOL    HW270924   3.526   5.748  10.108  3.1123  0.1290  0.3548
22973SOL     OW70925   4.652  10.415   1.885  0.0843 -0.3577  0.2000
22973SOL    HW170926   4.650  10.405   1.980 -1.0639  1.7737  0.4545
22973SOL    HW270927   4.710  10.489   1.870 -0.0545 -0.4298 -0.7500
22974SOL     OW70928  10.400  10.045   9.904 -0.1456 -0.6054  0.6270
22974SOL    HW170929  10.428   9.954   9.900 -2.0435 -1.3624  2.3505
22974SOL    HW270930  10.306  10.040   9.921 -0.2169  1.6732  1.2835
22975SOL     OW70931  10.568   9.761   6.549  0.1429 -0.2730  0.6717
22975SOL    HW170932  10.576   9.844   6.502  0.4418 -0.5165  0.2792
22975SOL    HW270933  10.625   9.701   6.500 -1.2693 -1.1271  0.0134
22976SOL     OW70934   0.086   5.942   3.767  0.2315  0.2066 -0.7417
22976SOL    HW170935   0.019   6.004   3.796 -1.4821 -1.7594 -0.3022
22976SOL    HW270936   0.100   5.885   3.842  3.0124  0.9743 -0.5544
22977SOL     OW70937  10.924   5.806   2.605 -0.3132 -0.0518  0.2891
22977SOL    HW170938  10.963   5.834   2.523 -0.5423  1.7588  0.7592
22977SOL    HW270939  10.998   5.802   2.667 -0.4613  0.7962  0.5319
22978SOL     OW70940   0.189   4.859   5.014  0.3249 -0.0660 -0.1264
22978SOL    HW170941   0.162   4.820   4.931  0.2455  0.2036 -0.2298
22978SOL    HW270942   0.273   4.901   4.994  0.2901  0.0269 -0.0805
22979SOL     OW70943   8.270   2.044   0.088 -0.4265 -0.3065 -0.4441
22979SOL    HW170944   8.328   2.008   0.155 -0.7052  1.6827  0.9561
22979SOL    HW270945   8.294   1.998   0.008  0.7057 -1.9649  0.7817
22980SOL     OW70946   7.086   5.803   1.698  0.3483 -0.1495 -0.3591
22980SOL    HW170947   7.032   5.881   1.687  0.1308  0.5034  3.8155
22980SOL    HW270948   7.030   5.742   1.746  2.3115 -0.5421  1.6164
22981SOL     OW70949   0.382   8.732   6.298  0.0606  0.4390  0.1965
22981SOL    HW170950   0.341   8.681   6.228  0.9226  0.6300 -0.4716
22981SOL    HW270951   0.476   8.724   6.281  0.2157  2.2162  0.0817
22982SOL     OW70952   9.240   9.755  10.450 -0.7493  0.6123  0.2765
22982SOL    HW170953   9.274   9.822  10.510 -2.3795  0.8160  1.0177
22982SOL    HW270954   9.259   9.672  10.495 -0.4566  0.6711  0.2676
22983SOL     OW70955  10.689   9.740   2.068  0.3936  0.6647  0.1837
22983SOL    HW170956  10.700   9.648   2.092 -1.4172  0.4645  0.4083
22983SOL    HW270957  10.740   9.788   2.133  1.2981 -0.1719  0.1077
22984SOL     OW70958   9.588   1.505   2.971  0.5099 -0.2107 -0.3830
22984SOL    HW170959   9.524   1.551   3.025  1.2441 -1.0773  1.3099
22984SOL    HW270960   9.664   1.494   3.028  2.4124  1.2298 -2.4767
22985SOL     OW70961   2.860   5.153   2.586  0.2552 -0.1287 -0.2062
22985SOL    HW170962   2.817   5.194   2.661  2.0738  0.9930  0.2757
22985SOL    HW270963   2.816   5.190   2.510  0.0062  0.5780  0.2712
22986SOL     OW70964   4.932   1.375   0.152 -0.3759  0.3185 -0.2952
22986SOL    HW170965   4.936   1.326   0.070 -0.6510 -1.7497  0.8703
22986SOL    HW270966   5.012   1.429   0.151 -0.4025  0.3820 -1.9131
22987SOL     OW70967   7.213   7.903   0.615  0.1295 -0.1324  0.2157
22987SOL    HW170968   7.224   7.844   0.689  0.1632 -2.2852 -1.4043
22987SOL    HW270969   7.301   7.934   0.595  0.3141 -0.6227  0.2578
22988SOL     OW70970   9.956   6.123   5.599 -0.0461 -0.2034 -0.3703
22988SOL    HW170971  10.033   6.079   5.636  0.7440  1.5179  0.1192
22988SOL    HW270972   9.976   6.133   5.506 -1.4524 -3.3113 -1.1280
22989SOL     OW70973   4.202   6.316   1.382  0.2497 -0.3247  0.0501
22989SOL    HW170974   4.171   6.356   1.463  0.5988 -0.6360  0.3386
22989SOL    HW270975   4.149   6.356   1.314  0.7625  0.8270  0.3034
22990SOL     OW70976   4.652   4.200   4.289 -0.1929  1.2558 -0.1029
22990SOL    HW170977   4.706   4.131   4.327  1.8812  2.9558  0.2332
22990SOL    HW270978   4.608   4.158   4.215  0.9805 -0.4285  0.0992
22991SOL     OW70979   9.169   9.727   2.691  0.0426  0.7293  0.2548
22991SOL    HW170980   9.185   9.643   2.648  0.0556 -0.6167  2.6807
22991SOL    HW270981   9.080   9.719   2.725  0.8716  0.6552  2.5677
22992SOL     OW70982   7.582   2.834   1.286 -0.7341 -0.1691 -0.1706
22992SOL    HW170983   7.548   2.916   1.322 -2.7075 -1.5526  1.3326
22992SOL    HW270984   7.597   2.854   1.193  0.1106  2.2175  0.3999
22993SOL     OW70985   9.883   1.400   9.285  0.0172 -0.1576 -0.7734
22993SOL    HW170986   9.840   1.481   9.313  0.0145 -0.2868 -0.4053
22993SOL    HW270987   9.849   1.386   9.196 -1.0458 -0.4830 -0.3360
22994SOL     OW70988   0.887   8.825   0.984  0.5644 -0.2603 -0.1382
22994SOL    HW170989   0.911   8.783   1.067  0.3783 -0.6123 -0.2582
22994SOL    HW270990   0.971   8.840   0.940  0.5915 -1.3799 -0.5065
22995SOL     OW70991   4.083   8.351   0.041 -0.9265 -0.6844 -0.3671
22995SOL    HW170992   3.988   8.348   0.041 -0.9274 -0.7964 -1.1455
22995SOL    HW270993   4.107   8.362   0.133 -1.7935  2.9164 -0.4439
22996SOL     OW70994   0.937   7.684   4.413 -0.4239  0.1139  0.1520
22996SOL    HW170995   0.909   7.620   4.478 -0.0154  0.2449  0.4637
22996SOL    HW270996   0.936   7.768   4.459 -2.3989  0.5884 -0.6615
22997SOL     OW70997   0.842   4.047   0.442 -0.0990 -0.7440  0.5298
22997SOL    HW170998   0.914   4.044   0.379  0.0182  0.2279  0.6084
22997SOL    HW270999   0.764   4.056   0.388 -0.0853 -0.9203  0.4808
22998SOL     OW71000   6.055   2.680   7.101  0.2100  0.0223  0.4905
22998SOL    HW171001   6.053   2.667   7.196  2.0578  1.2664  0.7576
22998SOL    HW271002   6.146   2.665   7.076  0.0616  1.1406 -0.8576
22999SOL     OW71003   3.440   4.242   8.939 -0.2577 -0.4840 -0.1637
22999SOL    HW171004   3.401   4.271   9.022  1.3425 -0.8518  0.7632
22999SOL    HW271005   3.516   4.190   8.965  0.2016 -0.7376 -1.8730
23000SOL     OW71006   4.745   6.220   0.601  0.2176 -0.4272  0.0645
23000SOL    HW171007   4.681   6.155   0.630  1.5367 -1.9022 -0.1969
23000SOL    HW271008   4.775   6.188   0.516 -1.2429  2.1358 -1.5730
23001SOL     OW71009   8.619   3.060   7.623 -0.0652 -0.7699 -0.2808
23001SOL    HW171010   8.559   3.105   7.564  0.7678 -0.3712 -0.8452
23001SOL    HW271011   8.563   3.020   7.689 -0.9444 -0.4169 -0.8025
23002SOL     OW71012   0.421   6.798   4.667 -1.0138  0.0195 -0.2180
23002SOL    HW171013   0.469   6.717   4.680 -2.6567 -0.8486  0.7442
23002SOL    HW271014   0.448   6.855   4.739  0.3965  0.5021 -1.0863
23003SOL     OW71015   5.453   6.211   5.885 -0.7281 -0.0283 -0.1844
23003SOL    HW171016   5.358   6.215   5.900 -0.7748  0.2534 -0.5559
23003SOL    HW271017   5.480   6.302   5.876 -0.6260 -0.1598 -1.3402
23004SOL     OW71018  10.584   3.680   0.674  0.2595  0.2365  0.5273
23004SOL    HW171019  10.550   3.764   0.705  0.7393  0.4073  0.5977
23004SOL    HW271020  10.551   3.616   0.737 -0.8362  0.2447 -0.0122
23005SOL     OW71021   3.884   9.784   9.896  0.0324 -0.3552 -0.2434
23005SOL    HW171022   3.841   9.704   9.865 -0.6333 -0.2878  0.4813
23005SOL    HW271023   3.970   9.782   9.854 -0.8451 -0.2308 -2.1792
23006SOL     OW71024   0.049   0.376   5.439 -0.1950  0.5501 -0.0970
23006SOL    HW171025  -0.023   0.315   5.422 -1.4727  1.6607  1.0547
23006SOL    HW271026   0.024   0.456   5.391  1.0364  0.4732 -0.9006
23007SOL     OW71027   8.457   6.294   5.567 -0.4389  0.1521 -0.0756
23007SOL    HW171028   8.418   6.318   5.483  0.3451  1.5167 -0.0814
23007SOL    HW271029   8.493   6.376   5.601  0.5947 -0.6669  0.8859
23008SOL     OW71030   1.361   6.357   2.632  0.2207 -0.6049 -0.1034
23008SOL    HW171031   1.332   6.266   2.630  0.1613 -0.6072  0.5562
23008SOL    HW271032   1.280   6.409   2.625  0.3959 -0.5424 -3.0126
23009SOL     OW71033   5.686   0.952   9.450  0.7416  0.2296  0.3649
23009SOL    HW171034   5.752   0.893   9.413 -0.0028 -0.3390 -0.0784
23009SOL    HW271035   5.610   0.943   9.392  1.0563  2.6989 -0.5718
23010SOL     OW71036   0.316   8.443   9.497 -0.1606  0.4844  0.2432
23010SOL    HW171037   0.323   8.518   9.438 -0.4855 -0.0179 -0.4468
23010SOL    HW271038   0.395   8.391   9.481  0.8130  1.4017  1.7862
23011SOL     OW71039   0.161   8.299   2.783 -0.1966 -0.7203 -0.3913
23011SOL    HW171040   0.109   8.287   2.863  1.2316  1.5965  1.0097
23011SOL    HW271041   0.100   8.342   2.722 -0.0422  2.2512  1.3320
23012SOL     OW71042   2.598   4.292   5.601  0.3103  0.2814  0.0190
23012SOL    HW171043   2.646   4.239   5.537 -1.2109 -1.9823  0.6297
23012SOL    HW271044   2.509   4.257   5.599 -0.0965  0.9747  2.4564
23013SOL     OW71045   6.424   6.464   5.851  0.3743  0.0952  0.1151
23013SOL    HW171046   6.444   6.464   5.757  0.6730 -1.1495  0.1608
23013SOL    HW271047   6.409   6.372   5.872 -0.8252  0.4755  1.0612
23014SOL     OW71048   0.100   7.963   3.118 -0.0971  0.4874  0.1130
23014SOL    HW171049   0.154   7.889   3.145 -1.7310 -0.7523  0.0674
23014SOL    HW271050   0.160   8.038   3.122  1.0567 -0.4574  2.1864
23015SOL     OW71051   7.279   2.279   4.139  0.8559  0.1412  0.3569
23015SOL    HW171052   7.219   2.329   4.196  1.8233  0.8137  0.8064
23015SOL    HW271053   7.222   2.215   4.096 -0.3012  1.1575  0.3108
23016SOL     OW71054   0.169   4.174   3.266  0.2449  0.0745  0.3102
23016SOL    HW171055   0.215   4.185   3.349 -0.9110  1.0689  0.8597
23016SOL    HW271056   0.078   4.197   3.286  0.2914  2.3357 -1.6509
23017SOL     OW71057   7.547   1.184   3.687  0.4210  0.5672  0.6717
23017SOL    HW171058   7.613   1.196   3.756  1.8281 -2.1520 -0.0305
23017SOL    HW271059   7.525   1.272   3.659  4.3451  1.7110  0.5075
23018SOL     OW71060  10.989   0.799   2.996 -0.2483 -0.1844 -0.2086
23018SOL    HW171061  10.939   0.831   2.921 -0.3460  1.4111  0.5016
23018SOL    HW271062  10.923   0.760   3.053 -0.7101  1.6402  0.5822
23019SOL     OW71063   5.576   0.250   4.685  0.5411  0.0230  0.0029
23019SOL    HW171064   5.542   0.323   4.737  2.8482  0.5056  0.9696
23019SOL    HW271065   5.540   0.263   4.598 -0.4673  1.3192  0.5859
23020SOL     OW71066   3.379   0.460   7.395 -0.1260  0.0199 -0.4162
23020SOL    HW171067   3.292   0.424   7.378  0.1161 -1.1774  0.6847
23020SOL    HW271068   3.365   0.525   7.464 -0.2024  0.1679 -0.5695
23021SOL     OW71069   2.110   8.218   6.013  0.0312  0.6139  0.0471
23021SOL    HW171070   2.031   8.204   5.961  1.5868 -1.4797 -1.9628
23021SOL    HW271071   2.133   8.310   5.998 -0.7847  0.6450 -1.1669
23022SOL     OW71072   4.416   2.824   2.431  0.1720 -0.3165  0.0417
23022SOL    HW171073   4.386   2.841   2.520  1.9373 -0.6156  0.7303
23022SOL    HW271074   4.452   2.735   2.434 -0.1641 -0.5119 -1.0986
23023SOL     OW71075   3.272   0.271   7.858 -0.4497 -0.1317 -0.4112
23023SOL    HW171076   3.322   0.196   7.890 -0.4695  0.0064 -0.0401
23023SOL    HW271077   3.231   0.307   7.937  2.2786  2.3328  0.0473
23024SOL     OW71078   1.837   4.679   6.743  0.2351  0.4181  0.1098
23024SOL    HW171079   1.788   4.754   6.710 -0.5388  0.4626  1.3052
23024SOL    HW271080   1.773   4.608   6.749  0.6491  0.0510  0.3116
23025SOL     OW71081   2.495   9.001   3.165  0.6131  0.1579 -0.6515
23025SOL    HW171082   2.449   9.010   3.248 -0.1755  1.5670 -1.1898
23025SOL    HW271083   2.559   8.932   3.179 -0.7735 -0.9454  0.5424
23026SOL     OW71084   0.947   9.206   0.321  0.1759 -0.1272  0.3467
23026SOL    HW171085   0.902   9.147   0.261  1.8072 -0.4899 -0.5831
23026SOL    HW271086   0.938   9.292   0.282  0.6634 -0.2683 -0.0899
23027SOL     OW71087   9.298   9.080   0.528 -0.0844 -0.3085 -0.1244
23027SOL    HW171088   9.269   9.101   0.617 -0.5580 -0.2920 -0.2805
23027SOL    HW271089   9.252   8.999   0.506  1.5542 -1.4436  0.3917
23028SOL     OW71090   6.485  10.832   1.786  0.4492  0.4506  0.0858
23028SOL    HW171091   6.481  10.794   1.874 -0.2049  0.3335  0.0089
23028SOL    HW271092   6.503  10.757   1.728  1.1571  0.5676  0.1382
23029SOL     OW71093   6.528   6.676  10.730  0.4430  0.0445  0.2056
23029SOL    HW171094   6.487   6.632  10.805  1.4053 -2.3072 -0.5551
23029SOL    HW271095   6.454   6.713  10.681 -0.4360 -0.7852  0.8692
23030SOL     OW71096   0.791   8.994   9.113  0.2653  0.3172  0.3474
23030SOL    HW171097   0.772   8.929   9.045  2.1535  1.3324 -1.2727
23030SOL    HW271098   0.809   8.944   9.192 -0.6024 -0.9782 -0.2525
23031SOL     OW71099   7.471   8.571   8.184  0.3558  0.2596 -0.3808
23031SOL    HW171100   7.530   8.556   8.110  1.0257  0.5724  0.0797
23031SOL    HW271101   7.528   8.599   8.255 -0.3498  0.5564  0.0820
23032SOL     OW71102   5.884   7.267   2.438  0.3456  0.1543  0.6410
23032SOL    HW171103   5.924   7.189   2.399  1.0826  1.3932 -1.2301
23032SOL    HW271104   5.853   7.317   2.363  0.5327  1.9969  1.7455
23033SOL     OW71105   1.535   9.281   2.284 -0.3420  0.4075 -0.2878
23033SOL    HW171106   1.470   9.334   2.330 -1.4794 -1.6300  0.6061
23033SOL    HW271107   1.617   9.297   2.329 -1.2683 -0.8711  2.0017
23034SOL     OW71108   7.442   5.162   6.564 -0.6549 -0.1403 -0.1412
23034SOL    HW171109   7.458   5.114   6.645 -2.4185 -0.3036  0.1387
23034SOL    HW271110   7.409   5.097   6.502  1.1816 -0.1286 -1.2114
23035SOL     OW71111  10.071   8.425   3.988 -0.4056  0.4953  0.3739
23035SOL    HW171112  10.072   8.483   3.912  0.6236  0.3586  0.2690
23035SOL    HW271113  10.101   8.480   4.061  0.4487  0.1526  0.2990
23036SOL     OW71114   2.132   5.644   9.279  0.2250  0.4339  0.4311
23036SOL    HW171115   2.115   5.585   9.205  1.5352  0.0564  0.4015
23036SOL    HW271116   2.047   5.654   9.322 -0.1815 -0.8665 -0.0122
23037SOL     OW71117   4.509   9.121   8.813  0.8378  0.2681  0.4531
23037SOL    HW171118   4.571   9.053   8.839  0.7954 -0.5522 -1.4231
23037SOL    HW271119   4.562   9.200   8.801  1.1541  0.1433  0.9997
23038SOL     OW71120   2.020  10.798   0.759  0.4035 -0.7219  0.0060
23038SOL    HW171121   2.085  10.860   0.792 -0.0450 -0.0222 -0.4133
23038SOL    HW271122   1.935  10.836   0.783  0.1293 -1.5449  0.3979
23039SOL     OW71123   2.517   1.782   2.966  0.2551  0.5776  0.1728
23039SOL    HW171124   2.436   1.763   2.918 -0.2985 -0.4161  1.4609
23039SOL    HW271125   2.512   1.876   2.984 -0.2033  0.6867 -0.4639
23040SOL     OW71126   9.060   0.412   5.947 -0.7970  0.6611 -0.2599
23040SOL    HW171127   9.155   0.415   5.940 -0.7845 -1.5927 -2.7091
23040SOL    HW271128   9.037   0.488   6.000  2.4321  0.4998  1.6260
23041SOL     OW71129   5.209   8.185   0.650 -0.3275  0.3031 -0.2697
23041SOL    HW171130   5.128   8.152   0.690  0.1224 -0.5955 -0.0930
23041SOL    HW271131   5.270   8.111   0.654  0.4506  0.9212 -0.5634
23042SOL     OW71132   2.405   3.745   6.989 -0.4511 -0.4533  1.0454
23042SOL    HW171133   2.398   3.839   6.970  1.9694 -0.1631  1.3315
23042SOL    HW271134   2.349   3.703   6.924  0.9060  1.0227 -1.1833
23043SOL     OW71135   5.095   9.835   0.810 -0.2136 -0.0443 -0.2328
23043SOL    HW171136   5.026   9.789   0.762  0.8085 -1.1844 -0.6648
23043SOL    HW271137   5.159   9.858   0.743  0.3637 -0.0275  0.3167
23044SOL     OW71138   2.762   3.503   6.311  0.2348 -0.4751 -0.6481
23044SOL    HW171139   2.751   3.496   6.217  1.7218  1.5953 -1.0595
23044SOL    HW271140   2.838   3.448   6.331  1.6015  1.1115 -1.1689
23045SOL     OW71141   6.727   4.510   3.280  0.2148  0.0867 -0.1119
23045SOL    HW171142   6.635   4.493   3.299  0.0588 -0.3644 -1.1768
23045SOL    HW271143   6.741   4.600   3.309 -0.5616  0.1555  0.0748
23046SOL     OW71144   5.846   2.408   5.896  0.5549 -0.7192  0.0748
23046SOL    HW171145   5.873   2.332   5.844 -1.5666 -0.9509 -0.7960
23046SOL    HW271146   5.843   2.376   5.986  3.9813 -0.4026  0.4299
23047SOL     OW71147   1.396   1.018   8.150 -0.6888 -0.4906 -0.3874
23047SOL    HW171148   1.381   0.930   8.186 -0.2226 -0.1114  0.7919
23047SOL    HW271149   1.340   1.075   8.202 -0.7790 -0.0560 -0.9599
23048SOL     OW71150   2.513   6.080   7.647 -0.1662  0.0812 -0.6647
23048SOL    HW171151   2.445   6.147   7.641 -1.5657 -1.1014  0.9118
23048SOL    HW271152   2.587   6.124   7.689 -0.8032  0.8200 -0.3088
23049SOL     OW71153   0.817   1.233   5.845 -0.0379 -1.0907  0.0952
23049SOL    HW171154   0.887   1.182   5.804  0.8968  0.7617 -0.7223
23049SOL    HW271155   0.846   1.243   5.936 -0.1684 -1.8775  0.2310
23050SOL     OW71156  10.008   5.456   9.142  0.1095  0.3709  0.8679
23050SOL    HW171157   9.923   5.428   9.174  0.2425 -0.8060  0.2696
23050SOL    HW271158  10.067   5.445   9.216 -0.2548  1.1974  1.2864
23051SOL     OW71159  10.866   6.954   8.000  0.0418  0.0909 -0.7030
23051SOL    HW171160  10.783   6.911   8.018  0.2322 -0.5230 -1.2325
23051SOL    HW271161  10.864   7.034   8.052 -0.9301  0.1431 -0.8141
23052SOL     OW71162   1.785   1.419   7.148  0.2481  0.4491  0.7906
23052SOL    HW171163   1.722   1.474   7.195 -0.9419  1.6393 -1.9868
23052SOL    HW271164   1.737   1.339   7.127  0.8282 -0.1528  1.6904
23053SOL     OW71165   2.654  10.027   8.699 -0.3959  0.7302  0.8154
23053SOL    HW171166   2.615   9.967   8.763 -2.0512 -0.0216 -0.8250
23053SOL    HW271167   2.650  10.113   8.741  1.0985 -0.0821  2.8003
23054SOL     OW71168   8.960   8.740   3.520 -0.1702 -0.5564  0.0192
23054SOL    HW171169   8.980   8.768   3.610  1.5403  0.7994 -0.7170
23054SOL    HW271170   9.040   8.759   3.471 -0.9347 -1.6079 -1.7425
23055SOL     OW71171   0.872   1.708   3.053 -0.0608 -0.9372  0.4449
23055SOL    HW171172   0.867   1.656   2.973  1.4216 -0.7177  0.1839
23055SOL    HW271173   0.918   1.652   3.115  0.9291 -0.2322  0.3758
23056SOL     OW71174   9.004   0.077   3.460  0.0896  0.1577  0.2712
23056SOL    HW171175   8.962   0.049   3.379  0.4198 -0.1131  0.1937
23056SOL    HW271176   9.092   0.041   3.456  0.2904  0.6107  0.4962
23057SOL     OW71177   5.668  10.091   2.921  0.4697 -0.5486  0.4370
23057SOL    HW171178   5.759  10.100   2.949  1.1525 -1.6166 -1.2388
23057SOL    HW271179   5.617  10.101   3.001  2.1387 -1.2526  1.6529
23058SOL     OW71180   2.789   5.400   0.860 -0.2683  0.0666  0.2616
23058SOL    HW171181   2.711   5.349   0.839 -1.6649  2.5694 -1.1344
23058SOL    HW271182   2.858   5.360   0.808 -0.3403 -2.6082  2.0185
23059SOL     OW71183   6.058   9.689   2.237  0.0918 -0.0192 -0.1314
23059SOL    HW171184   6.024   9.634   2.167 -0.3749  1.6033 -1.2517
23059SOL    HW271185   5.980   9.719   2.284  0.3031  0.0964  0.1507
23060SOL     OW71186   1.921   0.400   3.971  0.5725 -0.1311 -0.0835
23060SOL    HW171187   1.858   0.453   3.921 -0.9139  0.0011  1.8040
23060SOL    HW271188   1.881   0.313   3.974  1.8285 -0.7841 -1.1062
23061SOL     OW71189   9.710   1.185  10.963  0.2121  0.3575  0.1742
23061SOL    HW171190   9.704   1.240  11.042  0.3652 -0.5182  0.8111
23061SOL    HW271191   9.691   1.097  10.994 -0.7650  0.1364 -0.9673
23062SOL     OW71192   4.920   9.556   9.896 -0.3590  0.2673 -0.0686
23062SOL    HW171193   4.936   9.598   9.981  0.6789  0.3205 -0.2812
23062SOL    HW271194   5.007   9.539   9.861 -0.7809 -0.4866 -0.7720
23063SOL     OW71195   1.149   2.229   0.150  0.5363 -0.0501 -0.1862
23063SOL    HW171196   1.218   2.276   0.104 -0.2024  1.0528 -0.2073
23063SOL    HW271197   1.194   2.183   0.220  0.9705  3.6233  2.2304
23064SOL     OW71198  10.547   5.222   7.448 -0.0375 -0.7858 -0.1506
23064SOL    HW171199  10.528   5.309   7.413  0.9489 -0.1884  0.7565
23064SOL    HW271200  10.467   5.197   7.494 -0.1509 -0.1542 -0.0040
23065SOL     OW71201   7.087   3.351   0.069 -0.5395  0.6760  0.4104
23065SOL    HW171202   7.057   3.376   0.157  0.1034  1.2955  0.4612
23065SOL    HW271203   7.137   3.426   0.039 -0.3609  0.2747 -0.3053
23066SOL     OW71204   3.046   9.243   5.765 -0.0325  0.1772  0.1209
23066SOL    HW171205   3.123   9.186   5.760  1.1143  1.5832  0.9994
23066SOL    HW271206   3.079   9.324   5.804 -1.8467  1.0393 -0.0547
23067SOL     OW71207   4.055   1.061   2.282 -0.2852 -0.2880  0.2692
23067SOL    HW171208   3.992   1.122   2.321  1.7771  0.8017  2.1521
23067SOL    HW271209   4.058   0.987   2.342  0.5743 -0.0813  0.5040
23068SOL     OW71210   2.403   5.128   4.429  0.3154 -0.2399 -0.2187
23068SOL    HW171211   2.474   5.141   4.491  0.9187  0.7718 -1.0836
23068SOL    HW271212   2.447   5.107   4.346 -0.3978  0.1607 -0.7081
23069SOL     OW71213   1.447   8.776   6.596 -0.1331 -0.3654  0.1456
23069SOL    HW171214   1.521   8.721   6.621  1.3197  1.3524 -0.1401
23069SOL    HW271215   1.394   8.721   6.538  2.2739 -0.8699 -1.7075
23070SOL     OW71216   3.770   3.599   6.215  0.0694 -0.2817 -0.2690
23070SOL    HW171217   3.686   3.559   6.237  1.2344 -2.6552  0.2653
23070SOL    HW271218   3.773   3.599   6.119 -1.0503  1.0447 -0.3182
23071SOL     OW71219   9.558   1.289   6.619 -0.7189  0.2581 -0.0118
23071SOL    HW171220   9.491   1.327   6.675 -1.0681  0.5790 -0.6346
23071SOL    HW271221   9.551   1.337   6.537  0.1650  0.1789 -0.1419
23072SOL     OW71222   2.582   5.940   7.372 -0.8931 -0.6375 -0.3773
23072SOL    HW171223   2.587   5.975   7.283  1.0186 -0.2191 -0.1519
23072SOL    HW271224   2.566   6.016   7.427 -1.4610 -0.8070 -0.3067
23073SOL     OW71225   6.835   5.964   1.615 -0.1740  0.0048  0.3986
23073SOL    HW171226   6.823   6.057   1.595  0.6027 -0.4416 -2.6138
23073SOL    HW271227   6.746   5.928   1.614 -0.3275  0.3506 -0.8091
23074SOL     OW71228   2.307   8.367   6.575  0.5930 -0.3302  0.0063
23074SOL    HW171229   2.371   8.318   6.522  2.9821  2.2487  0.2354
23074SOL    HW271230   2.275   8.435   6.516  1.6776  1.2723  1.2010
23075SOL     OW71231   0.080   9.185  10.564  0.1262  0.1261  0.3084
23075SOL    HW171232   0.095   9.263  10.511 -0.0432  0.3651  0.6094
23075SOL    HW271233   0.074   9.217  10.654  1.4706 -0.3879  0.6163
23076SOL     OW71234   2.816   8.454   3.464 -0.4005  0.4369  0.1754
23076SOL    HW171235   2.763   8.531   3.444 -0.7941  0.1125 -0.0340
23076SOL    HW271236   2.792   8.431   3.554 -0.8733  0.0846 -0.0377
23077SOL     OW71237   0.093   8.934  10.720 -0.2591  0.0575  0.3202
23077SOL    HW171238   0.119   8.863  10.661 -0.8102  0.6572 -0.6650
23077SOL    HW271239   0.095   9.013  10.665  1.7525  1.0813  1.7317
23078SOL     OW71240  10.858   9.175   6.948 -0.1018 -0.2017 -0.7765
23078SOL    HW171241  10.793   9.226   6.996  0.5942 -0.8509  0.9689
23078SOL    HW271242  10.807   9.122   6.887 -1.4211 -1.6533  1.4213
23079SOL     OW71243   6.549   8.080  10.139  0.2600 -0.2766 -0.5374
23079SOL    HW171244   6.469   8.046  10.181  1.0501  1.0641  2.3235
23079SOL    HW271245   6.541   8.175  10.145  2.0089 -0.1137 -0.2707
23080SOL     OW71246   8.360  10.633   2.671 -0.2095  0.0524 -0.4112
23080SOL    HW171247   8.266  10.647   2.659 -0.3613 -1.2752 -0.8563
23080SOL    HW271248   8.368  10.542   2.699  0.8331  0.6035  1.2050
23081SOL     OW71249   8.305   2.839   6.520  0.2558 -0.1535 -0.1664
23081SOL    HW171250   8.364   2.880   6.457  0.6266 -0.3279  0.0692
23081SOL    HW271251   8.267   2.912   6.569 -0.0423 -0.0157 -0.5938
23082SOL     OW71252   7.872   7.380   0.162  0.1138 -0.1118  0.7318
23082SOL    HW171253   7.910   7.318   0.225 -0.1862 -1.9207 -0.7728
23082SOL    HW271254   7.778   7.361   0.164  0.1531 -0.5395 -0.5517
23083SOL     OW71255   5.619   8.491   5.903  0.9088 -0.4058  0.0136
23083SOL    HW171256   5.635   8.585   5.897 -0.2733 -0.2129 -0.4584
23083SOL    HW271257   5.679   8.452   5.839  1.1145  0.0655 -0.0849
23084SOL     OW71258   3.513   7.914   4.703 -0.2079 -0.1282  0.4215
23084SOL    HW171259   3.498   7.923   4.797 -0.4844  0.0124  0.3654
23084SOL    HW271260   3.478   7.827   4.682 -0.2539 -0.1111  0.4272
23085SOL     OW71261   0.812  11.012   9.065  0.5337 -0.4745 -0.0721
23085SOL    HW171262   0.818  11.087   9.005 -0.5712 -0.2453  0.0737
23085SOL    HW271263   0.884  10.955   9.039  1.1975  0.4843 -0.4032
23086SOL     OW71264   6.156   2.707   8.326 -0.1445 -0.2919 -0.0173
23086SOL    HW171265   6.251   2.707   8.338 -0.1915 -0.3797  0.3634
23086SOL    HW271266   6.124   2.777   8.383 -0.5298 -1.8088  1.7299
23087SOL     OW71267   1.415   7.820   4.842  0.4075 -0.5199 -0.1885
23087SOL    HW171268   1.470   7.891   4.877 -2.7772  1.6659  0.8812
23087SOL    HW271269   1.349   7.806   4.910 -1.8826 -1.1117 -2.4252
23088SOL     OW71270   6.853   4.556   1.653  0.4918  0.2125  0.4630
23088SOL    HW171271   6.935   4.518   1.624  0.3151 -0.0402  0.2876
23088SOL    HW271272   6.853   4.544   1.748 -0.0286 -1.1851  0.3139
23089SOL     OW71273   8.885   8.426   3.386 -0.4087 -0.0023 -0.5556
23089SOL    HW171274   8.796   8.420   3.353  0.1468 -2.3427 -1.8220
23089SOL    HW271275   8.889   8.512   3.428 -3.3653 -0.0270 -0.0245
23090SOL     OW71276  11.006   6.725   4.905 -1.0062  0.1218 -0.1971
23090SOL    HW171277  11.018   6.669   4.981  0.0650 -0.5674 -0.8579
23090SOL    HW271278  11.094   6.752   4.881 -1.2860 -0.0604 -1.4799
23091SOL     OW71279  10.427   9.789   3.938  0.3937 -0.2807 -0.5029
23091SOL    HW171280  10.517   9.756   3.947  0.1741 -0.9240 -0.5671
23091SOL    HW271281  10.395   9.749   3.857 -0.4037 -1.1814  0.2254
23092SOL     OW71282  10.007   9.388   9.141 -0.1198  0.3982 -0.0761
23092SOL    HW171283  10.056   9.470   9.146  0.5531  0.2630 -2.9779
23092SOL    HW271284   9.929   9.410   9.089 -2.1028  0.0705  2.5453
23093SOL     OW71285   9.054   7.152   7.223  0.7187  0.3111 -0.5156
23093SOL    HW171286   9.061   7.061   7.194 -0.6661 -0.6148  1.7715
23093SOL    HW271287   8.985   7.189   7.168 -2.0198 -1.4731  1.4161
23094SOL     OW71288   0.472   9.310   4.304  0.0351  0.4208 -0.6573
23094SOL    HW171289   0.470   9.244   4.234 -0.3463  1.1451 -1.3373
23094SOL    HW271290   0.557   9.353   4.294 -0.7387  1.7333 -1.8260
23095SOL     OW71291   9.856  10.433   1.145 -0.1704 -0.2160  0.2060
23095SOL    HW171292   9.780  10.445   1.201 -0.1577  0.1999  0.1361
23095SOL    HW271293   9.897  10.352   1.177 -1.3347 -1.1373 -0.5503
23096SOL     OW71294   2.719   2.885   0.507  0.3512  0.3507 -0.3450
23096SOL    HW171295   2.690   2.969   0.471 -1.2135 -1.0286 -2.4759
23096SOL    HW271296   2.712   2.823   0.435  2.5155 -1.4550  0.8634
23097SOL     OW71297   9.895   0.331   0.706 -0.3859 -0.2640 -0.6817
23097SOL    HW171298   9.843   0.369   0.636 -0.6936  1.1655  0.2954
23097SOL    HW271299   9.907   0.239   0.680 -3.1413 -0.5893 -1.0664
23098SOL     OW71300   1.690   9.613   2.920  0.2805 -0.0800  0.2722
23098SOL    HW171301   1.710   9.550   2.850  0.3529  0.8148 -0.5241
23098SOL    HW271302   1.752   9.590   2.990  1.1893 -0.0810 -0.5075
23099SOL     OW71303   6.656   8.051   7.452 -0.3325  0.1848  0.2378
23099SOL    HW171304   6.644   8.059   7.547  1.5293 -0.0815  0.5494
23099SOL    HW271305   6.675   7.959   7.438  0.6235  0.4362 -0.2115
23100SOL     OW71306   3.448   6.994   3.096  0.0969  0.2744 -0.2522
23100SOL    HW171307   3.355   6.988   3.074 -0.3173 -2.1689  1.7660
23100SOL    HW271308   3.473   6.906   3.123  2.6611  1.1701  0.6162
23101SOL     OW71309   8.226   3.149   1.509 -0.6249  0.0694  0.5138
23101SOL    HW171310   8.157   3.211   1.485 -0.0115  0.0769 -1.4767
23101SOL    HW271311   8.307   3.199   1.498 -0.1103 -1.0332 -1.2060
23102SOL     OW71312   5.061   2.995   6.350  0.4899  0.3544 -0.9666
23102SOL    HW171313   5.144   3.008   6.304  0.5061 -1.3428 -1.5061
23102SOL    HW271314   4.998   2.976   6.280  0.3067 -1.3184 -0.3865
23103SOL     OW71315  10.662   9.830   4.098 -0.4150  0.4819  0.1042
23103SOL    HW171316  10.639   9.922   4.104  0.6683  0.6756  2.8606
23103SOL    HW271317  10.741   9.829   4.043  0.2474  1.4000  0.9860
23104SOL     OW71318   8.629   1.901   7.176 -0.8119 -0.6764  0.6781
23104SOL    HW171319   8.662   1.987   7.203 -0.3869 -1.1821  1.8279
23104SOL    HW271320   8.562   1.879   7.241 -2.0333 -0.5475 -0.4942
23105SOL     OW71321   8.421   6.744   6.169  0.1387  0.0219  0.0887
23105SOL    HW171322   8.512   6.747   6.139 -0.4783  1.4030 -1.8199
23105SOL    HW271323   8.426   6.763   6.263  1.7163  2.2479 -0.3600
23106SOL     OW71324  10.013   1.326   4.984  0.0072 -0.2959  0.3611
23106SOL    HW171325  10.068   1.356   4.911  1.1595  2.6247  2.2250
23106SOL    HW271326   9.925   1.358   4.962 -1.0667 -4.2593 -2.2269
23107SOL     OW71327   3.994   8.457   9.438 -0.0141  0.5643 -0.1856
23107SOL    HW171328   4.022   8.378   9.392 -0.4892  1.1866 -1.5904
23107SOL    HW271329   4.040   8.528   9.393 -1.7956  1.3463 -0.8485
23108SOL     OW71330   6.608   1.240   2.346  0.2621  0.3436  0.0322
23108SOL    HW171331   6.568   1.299   2.411  0.8567  0.2604  0.4817
23108SOL    HW271332   6.538   1.224   2.283 -0.3807  0.3088  0.7311
23109SOL     OW71333   4.479   2.524   1.834 -0.1486  0.1801 -0.5978
23109SOL    HW171334   4.469   2.512   1.739 -1.8737  0.1913 -0.4407
23109SOL    HW271335   4.421   2.597   1.856  0.1815  0.1353  0.4831
23110SOL     OW71336   5.143   6.081   4.174 -0.4427 -0.9996  0.0044
23110SOL    HW171337   5.063   6.117   4.213  0.1020  0.5787 -0.2672
23110SOL    HW271338   5.141   6.113   4.084  1.8357  1.5426  0.7041
23111SOL     OW71339   0.854   7.962   7.641 -0.2448 -0.1264 -0.0174
23111SOL    HW171340   0.877   8.050   7.611  0.4739  1.1402  3.6861
23111SOL    HW271341   0.921   7.906   7.602 -0.2919  1.0232 -1.8942
23112SOL     OW71342   4.204  11.032  10.785 -0.2459 -0.1661  0.3556
23112SOL    HW171343   4.190  11.101  10.851  0.7693 -1.0594  1.5622
23112SOL    HW271344   4.278  11.064  10.733  2.1782 -1.4795  2.7156
23113SOL     OW71345  10.708  10.634   2.084  0.0742  0.4866 -0.2064
23113SOL    HW171346  10.766  10.700   2.121  1.5087 -1.1221  0.5613
23113SOL    HW271347  10.692  10.573   2.156 -0.1633 -0.6896 -1.2170
23114SOL     OW71348   6.537  11.020   4.425 -0.4849 -0.7137 -0.2901
23114SOL    HW171349   6.601  10.957   4.392  2.0203  0.5126  1.8695
23114SOL    HW271350   6.539  11.092   4.362  1.1076 -0.2271  0.2736
23115SOL     OW71351   6.176  10.341   6.966  0.1518  0.7451  0.3209
23115SOL    HW171352   6.089  10.338   7.006  0.5514  0.2614  1.2088
23115SOL    HW271353   6.217  10.259   6.994  0.4233  0.3202 -1.2151
23116SOL     OW71354  10.967   0.449   4.974 -0.2954 -0.5632  0.2008
23116SOL    HW171355  10.908   0.471   5.046 -0.5673 -2.7587  0.7311
23116SOL    HW271356  10.930   0.368   4.938  1.0724 -0.6828 -1.0024
23117SOL     OW71357   4.215   0.016   4.834 -0.0291 -0.1798 -0.4359
23117SOL    HW171358   4.142  -0.039   4.864  0.3082 -0.8433 -0.8166
23117SOL    HW271359   4.242   0.065   4.912 -0.0411 -0.8927  0.0249
23118SOL     OW71360   1.007   8.139   9.043  0.2160  0.0761  0.4684
23118SOL    HW171361   1.032   8.065   8.989 -0.0951  0.4387 -0.1885
23118SOL    HW271362   0.925   8.112   9.085 -0.1756  0.2436 -0.1805
23119SOL     OW71363   7.562  10.874   7.860 -0.2149 -0.2526 -0.1346
23119SOL    HW171364   7.620  10.877   7.784  0.6854  1.3008  0.5602
23119SOL    HW271365   7.532  10.965   7.871 -0.1307 -0.3917  1.4916
23120SOL     OW71366   8.629   7.921   3.074 -0.1688 -0.3137  0.5785
23120SOL    HW171367   8.643   7.826   3.068  2.0843 -0.0067 -0.0561
23120SOL    HW271368   8.597   7.946   2.987 -0.7786 -0.4814  0.7506
23121SOL     OW71369   8.544   8.990   6.465 -0.4402  0.2832  0.1043
23121SOL    HW171370   8.553   8.969   6.372 -1.6180  1.1991 -0.2336
23121SOL    HW271371   8.468   8.939   6.493  0.0841 -0.2141  0.6520
23122SOL     OW71372   7.242   9.261   2.916 -0.2189 -0.0076  0.1474
23122SOL    HW171373   7.254   9.355   2.931  1.9285 -0.1968 -0.1031
23122SOL    HW271374   7.274   9.247   2.827 -1.7842 -0.7888 -0.3187
23123SOL     OW71375  10.208   5.995   7.196 -0.2952  0.2056 -0.2706
23123SOL    HW171376  10.275   6.061   7.215 -0.5994  0.3301  0.4309
23123SOL    HW271377  10.223   5.927   7.262 -0.8472  0.2308 -0.1159
23124SOL     OW71378   6.250   8.312  10.356  0.0171  0.0437 -0.0466
23124SOL    HW171379   6.186   8.352  10.298 -0.9851 -1.5142 -0.0834
23124SOL    HW271380   6.220   8.335  10.444  0.7589  1.2670 -0.1036
23125SOL     OW71381  10.378  10.564   0.143  0.2105 -0.1745 -0.0018
23125SOL    HW171382  10.404  10.585   0.053  0.9996  0.8710  0.4557
23125SOL    HW271383  10.460  10.543   0.188  0.2320  2.1769  1.2010
23126SOL     OW71384   2.474   5.736   3.244  0.4367  0.0677  0.3851
23126SOL    HW171385   2.473   5.739   3.340  4.1167  1.2269  0.5099
23126SOL    HW271386   2.406   5.799   3.219  0.2706  0.7115  2.2313
23127SOL     OW71387   4.696   1.421   8.992  0.6183 -0.5357  0.5754
23127SOL    HW171388   4.702   1.439   8.898  1.0661  1.0476  0.8796
23127SOL    HW271389   4.622   1.474   9.021 -0.5627 -2.2384  0.8863
23128SOL     OW71390   0.463   4.390   9.087  0.0816  0.3857  0.6364
23128SOL    HW171391   0.394   4.418   9.147 -0.2071 -0.5343  0.7364
23128SOL    HW271392   0.541   4.381   9.142  0.0455  0.4478  0.6985
23129SOL     OW71393  11.012   4.027  10.619 -0.3393  0.4190 -0.3033
23129SOL    HW171394  11.030   4.007  10.710 -1.6362  0.2276 -0.0771
23129SOL    HW271395  10.930   3.982  10.600 -0.6068  1.2807 -1.2708
23130SOL     OW71396   9.926   0.205   9.633 -0.7085  0.1661  0.7135
23130SOL    HW171397   9.945   0.113   9.613  1.2414  0.7287 -0.3157
23130SOL    HW271398   9.924   0.247   9.547 -0.2023  1.3159  1.2561
23131SOL     OW71399   6.314   8.023   2.381 -0.3289 -0.2494  0.0404
23131SOL    HW171400   6.384   8.087   2.393  0.9787 -1.0992 -2.4400
23131SOL    HW271401   6.330   7.957   2.449 -0.2918  0.8441  1.1231
23132SOL     OW71402   2.726   2.544   0.504  0.3225 -0.0562 -0.1555
23132SOL    HW171403   2.725   2.463   0.452  0.7364 -1.4439  1.8870
23132SOL    HW271404   2.816   2.551   0.535  0.4630  1.6141 -0.8619
23133SOL     OW71405   0.971   5.434   0.872  0.2723 -0.2247 -0.4922
23133SOL    HW171406   1.029   5.413   0.799  0.6965 -1.1315  0.0904
23133SOL    HW271407   0.983   5.362   0.934 -2.2922 -1.0033 -0.8189
23134SOL     OW71408   7.782  10.387   8.908 -0.3141  0.5191  0.1844
23134SOL    HW171409   7.808  10.310   8.959  0.0212  0.7248  0.3257
23134SOL    HW271410   7.745  10.350   8.828  0.0762  0.2093  0.1398
23135SOL     OW71411   8.613   4.666   1.960 -0.0343 -0.0223  0.3058
23135SOL    HW171412   8.605   4.652   2.054  1.3650  1.2464  0.6442
23135SOL    HW271413   8.633   4.759   1.950  0.6367 -0.2836 -1.1933
23136SOL     OW71414   1.290   6.012   5.008  0.3872  0.0187  0.6134
23136SOL    HW171415   1.352   6.028   5.079  1.8461 -3.1287  0.2092
23136SOL    HW271416   1.307   5.921   4.981 -1.6758  0.3457 -2.2372
23137SOL     OW71417   9.040  11.000   5.768 -0.4865 -0.9735 -0.2711
23137SOL    HW171418   9.066  10.944   5.841  0.0520 -0.9956 -0.4737
23137SOL    HW271419   9.081  10.961   5.691  0.6619  0.2002 -0.2849
23138SOL     OW71420   2.709   1.039   9.970 -0.3666 -1.0746 -0.1858
23138SOL    HW171421   2.755   0.959   9.995  0.4216 -0.8751 -0.9820
23138SOL    HW271422   2.728   1.100  10.042  0.7505 -0.9472 -0.5690
23139SOL     OW71423   8.605   1.661   0.148 -0.2553 -0.0083 -0.4336
23139SOL    HW171424   8.564   1.602   0.085  0.6910  1.0776 -2.1313
23139SOL    HW271425   8.690   1.682   0.110  1.1879 -0.7474  2.1188
23140SOL     OW71426   3.640   9.245   9.893  0.2433 -0.2080 -0.0382
23140SOL    HW171427   3.666   9.315   9.953  1.8345 -1.1977  0.4780
23140SOL    HW271428   3.671   9.275   9.807 -0.8861  0.6081 -0.1958
23141SOL     OW71429   8.361   0.425   9.291 -0.4087 -0.0094 -0.0746
23141SOL    HW171430   8.353   0.490   9.222 -0.2678 -0.4800 -0.5458
23141SOL    HW271431   8.300   0.355   9.265 -2.1709  0.8514  1.4992
23142SOL     OW71432   7.740  10.298   9.925  0.3396 -0.0192 -0.2228
23142SOL    HW171433   7.695  10.370   9.882  0.1785 -1.0952 -1.9470
23142SOL    HW271434   7.782  10.338  10.002  0.1658  1.8653 -1.0638
23143SOL     OW71435   9.431   6.566   4.763  0.9311 -0.2288  0.3203
23143SOL    HW171436   9.412   6.607   4.847 -1.3325 -2.1420  0.8347
23143SOL    HW271437   9.525   6.581   4.749  0.6425  3.4781  1.2618
23144SOL     OW71438   1.293   1.964   8.349  0.1722 -0.1152 -0.0467
23144SOL    HW171439   1.294   1.991   8.258 -1.5684 -0.3995 -0.1905
23144SOL    HW271440   1.252   1.877   8.348  2.0141 -1.0658  0.8176
23145SOL     OW71441   5.814   0.745  10.076 -0.1230  0.3009 -0.0963
23145SOL    HW171442   5.894   0.762  10.027 -0.5639  1.3012 -0.4899
23145SOL    HW271443   5.748   0.801  10.035 -1.3320 -1.3833 -0.5753
23146SOL     OW71444   5.689   8.706   4.827  0.3899 -0.0807  0.0609
23146SOL    HW171445   5.782   8.683   4.823  0.4620  0.3277 -0.9079
23146SOL    HW271446   5.683   8.789   4.779 -0.6299 -0.6210 -0.7935
23147SOL     OW71447   3.856   4.894   7.853  0.8722  0.2038 -0.1012
23147SOL    HW171448   3.809   4.953   7.912  0.7291  0.2793 -0.2914
23147SOL    HW271449   3.947   4.899   7.882  0.3782 -2.3402  2.3638
23148SOL     OW71450   6.862  10.336   2.114  0.5501  0.2686  0.0687
23148SOL    HW171451   6.786  10.280   2.132  1.0146 -0.0253  1.1497
23148SOL    HW271452   6.847  10.414   2.167  0.4817  0.6732 -0.5412
23149SOL     OW71453   9.385   6.258   2.448 -0.7554  0.5514  0.0085
23149SOL    HW171454   9.419   6.306   2.524  0.1908 -2.0620  1.3818
23149SOL    HW271455   9.298   6.229   2.475 -0.9643  0.7344 -0.4559
23150SOL     OW71456   7.363   1.767   0.314 -0.4847 -0.4391 -0.4761
23150SOL    HW171457   7.385   1.812   0.233  1.6261  0.0135  0.2797
23150SOL    HW271458   7.382   1.675   0.297  0.8820 -0.2232 -0.2488
23151SOL     OW71459   1.273   2.254   1.755  0.1164  0.2153 -0.2890
23151SOL    HW171460   1.229   2.315   1.696 -0.8040 -0.4048 -0.2631
23151SOL    HW271461   1.230   2.266   1.839  0.2733 -0.1173 -0.1582
23152SOL     OW71462   8.230   5.987   4.666 -0.0051  0.6062 -0.2091
23152SOL    HW171463   8.309   6.039   4.684  1.2554 -1.1491 -0.4024
23152SOL    HW271464   8.185   6.035   4.597  1.9882  0.6203 -1.5733
23153SOL     OW71465   7.223   9.072   0.333 -0.1241 -0.0554 -0.1266
23153SOL    HW171466   7.313   9.104   0.345  0.1142 -0.6686 -0.2393
23153SOL    HW271467   7.226   8.981   0.361 -0.5881 -0.2297 -0.6261
23154SOL     OW71468   0.340  11.023   6.627  0.1487 -0.3579 -0.0473
23154SOL    HW171469   0.342  11.059   6.715 -1.0169 -0.0202 -0.1409
23154SOL    HW271470   0.281  10.948   6.633 -0.8524  0.3489 -0.7653
23155SOL     OW71471  10.883   5.689   3.262 -0.3672  0.1774  0.7563
23155SOL    HW171472  10.923   5.650   3.340  0.4969 -0.1536  0.1621
23155SOL    HW271473  10.853   5.615   3.211 -0.3198  0.3673  0.4513
23156SOL     OW71474   5.743   1.267   9.752  0.0774  0.1845  0.1233
23156SOL    HW171475   5.680   1.326   9.711 -0.7085 -1.0907 -0.6005
23156SOL    HW271476   5.826   1.287   9.710  0.0680  1.5740  0.7458
23157SOL     OW71477  11.023   3.915   7.371  0.2789  0.5675 -0.1696
23157SOL    HW171478  10.962   3.849   7.337 -0.2293  0.7231  0.4107
23157SOL    HW271479  11.108   3.871   7.373  0.0623  0.1346 -0.3776
23158SOL     OW71480   6.611   2.759   4.861  0.2561  0.9064  0.4298
23158SOL    HW171481   6.565   2.720   4.936 -0.1391 -1.4120 -0.9156
23158SOL    HW271482   6.704   2.751   4.884  0.1697 -0.5050  0.3868
23159SOL     OW71483   6.236   2.362   8.212  0.8169 -0.0354  0.5067
23159SOL    HW171484   6.214   2.371   8.119  0.1365 -2.0761  0.4124
23159SOL    HW271485   6.273   2.446   8.237 -1.6198  1.5737 -0.9101
23160SOL     OW71486   4.393   5.378   7.296 -0.1993  0.4520 -0.7345
23160SOL    HW171487   4.331   5.312   7.325  0.3462  0.7903  1.3940
23160SOL    HW271488   4.367   5.458   7.343  1.5630  0.6988 -0.0998
23161SOL     OW71489   2.142   1.078   3.535  0.5453  0.0940 -0.4312
23161SOL    HW171490   2.181   1.010   3.590  1.0871 -0.0519 -0.9795
23161SOL    HW271491   2.054   1.090   3.570  1.1915  0.6684  1.0522
23162SOL     OW71492   7.638  10.472   1.843  0.3639 -0.3393  0.3789
23162SOL    HW171493   7.703  10.541   1.857 -0.2947  0.4422 -0.2433
23162SOL    HW271494   7.672  10.421   1.770 -0.3598  0.9549 -0.9365
23163SOL     OW71495   8.959   0.395   1.180  0.2818 -0.2102 -0.4667
23163SOL    HW171496   8.989   0.309   1.209 -1.0402 -0.8886 -1.0073
23163SOL    HW271497   9.013   0.414   1.104  1.3996  0.0037  0.3540
23164SOL     OW71498   3.201  10.133   0.684  0.1403 -0.0469  0.1793
23164SOL    HW171499   3.241  10.184   0.614  1.3464  0.3944  1.1464
23164SOL    HW271500   3.132  10.189   0.719 -0.3883 -0.2233 -0.5509
23165SOL     OW71501   3.528   6.716   4.152  0.0651  0.2565  0.2773
23165SOL    HW171502   3.476   6.794   4.170 -1.3375 -0.0006 -2.2788
23165SOL    HW271503   3.484   6.646   4.201 -1.6239  0.1982 -1.2238
23166SOL     OW71504   9.635   0.484   9.304 -0.5562 -0.2909 -0.3806
23166SOL    HW171505   9.698   0.555   9.288 -1.0062  0.2039  0.0186
23166SOL    HW271506   9.623   0.483   9.399 -1.9829  0.3464 -0.5299
23167SOL     OW71507   3.273  10.328   9.036 -0.2074  0.2456  0.6019
23167SOL    HW171508   3.283  10.415   9.074  0.9305  0.3543  0.1300
23167SOL    HW271509   3.363  10.295   9.029 -0.6015 -0.8638  0.5296
23168SOL     OW71510  10.482   1.010   8.333  0.2695 -0.3252 -0.2801
23168SOL    HW171511  10.553   1.053   8.381  0.5763  2.1798 -2.7222
23168SOL    HW271512  10.513   0.921   8.319  2.8349  0.5900 -0.9471
23169SOL     OW71513   8.101   6.874  10.764 -0.0397 -0.0683  0.2705
23169SOL    HW171514   8.072   6.953  10.810  1.8564  0.6136  0.4086
23169SOL    HW271515   8.158   6.830  10.827  0.4433 -0.5392 -0.4835
23170SOL     OW71516   5.029   2.972   2.786 -0.3766 -0.3293  0.1856
23170SOL    HW171517   5.094   2.949   2.852  0.1853 -1.1735 -0.6445
23170SOL    HW271518   5.026   3.068   2.788 -0.2569 -0.3331  1.3067
23171SOL     OW71519   1.921   6.232   5.683  0.4602  0.1700  0.5585
23171SOL    HW171520   1.949   6.271   5.766 -1.3242  0.7837  0.9057
23171SOL    HW271521   1.896   6.307   5.628  0.2074 -0.3114  0.0060
23172SOL     OW71522   4.915   7.788  10.448 -0.2120  0.2891 -0.2584
23172SOL    HW171523   4.871   7.729  10.386 -1.3169  1.1692 -0.3405
23172SOL    HW271524   4.986   7.735  10.485 -0.4566 -0.7232 -1.1737
23173SOL     OW71525   5.322   2.789   3.205  0.4788  0.1879 -0.0888
23173SOL    HW171526   5.321   2.694   3.197  3.1625  0.2691 -2.6512
23173SOL    HW271527   5.375   2.806   3.283  2.1226 -0.4320 -1.0439
23174SOL     OW71528   3.438   2.428   0.742 -0.1678  0.1272  0.2665
23174SOL    HW171529   3.455   2.415   0.649  2.1394 -0.5284  0.7062
23174SOL    HW271530   3.366   2.490   0.745  0.3366  0.9189 -1.9596
23175SOL     OW71531   3.146  10.993  10.454  0.5466 -0.7857 -0.1800
23175SOL    HW171532   3.192  11.027  10.532 -0.1035 -0.5851  0.1257
23175SOL    HW271533   3.192  10.913  10.432  1.0711 -0.5644  0.0964
23176SOL     OW71534   5.150   4.664   3.428  0.5888  0.2906 -0.0124
23176SOL    HW171535   5.082   4.650   3.494  0.1053 -1.0619 -0.7594
23176SOL    HW271536   5.130   4.749   3.390  0.6531  0.9194  1.2887
23177SOL     OW71537   4.475   3.176   6.315 -0.6860  0.1586  0.0898
23177SOL    HW171538   4.385   3.153   6.292 -0.4291 -1.0887  0.2816
23177SOL    HW271539   4.499   3.246   6.254 -2.3602  1.7443  1.1377
23178SOL     OW71540   7.910   8.930   4.627 -0.5463 -0.5356 -0.4946
23178SOL    HW171541   7.875   9.017   4.607  1.0522  0.5556  1.1716
23178SOL    HW271542   7.856   8.899   4.701  0.1904 -0.0437  0.2635
23179SOL     OW71543   8.702   0.240   6.047 -0.2322 -0.0975 -0.1782
23179SOL    HW171544   8.694   0.177   5.975  0.5670 -1.1662  0.6404
23179SOL    HW271545   8.611   0.261   6.071 -0.5106 -0.9426 -0.4560
23180SOL     OW71546   6.339   7.395   0.130  0.7276  0.2038  0.1131
23180SOL    HW171547   6.313   7.379   0.221  1.5161  1.2029  0.5319
23180SOL    HW271548   6.351   7.307   0.093 -1.7710 -0.2861  0.2808
23181SOL     OW71549   9.787   6.679   2.522  0.4858  0.2876 -0.0959
23181SOL    HW171550   9.697   6.654   2.503  0.2556  0.3674  0.8550
23181SOL    HW271551   9.780   6.754   2.580  1.1567 -0.3634  0.8515
23182SOL     OW71552   9.230   2.605   0.060  0.2767 -0.9201  0.4888
23182SOL    HW171553   9.150   2.654   0.077 -0.1500 -0.5484 -2.2267
23182SOL    HW271554   9.202   2.528   0.011  1.5360 -0.9555 -0.2253
23183SOL     OW71555   1.228   6.322   4.565 -0.3889  0.6100  0.0363
23183SOL    HW171556   1.249   6.390   4.629 -1.3022  0.5392  0.4330
23183SOL    HW271557   1.283   6.342   4.489  1.8390 -0.1619  1.3466
23184SOL     OW71558  10.922   1.621   3.723  0.1012 -0.4694  0.2032
23184SOL    HW171559  10.928   1.525   3.718 -0.4703 -0.5253  0.4226
23184SOL    HW271560  10.972   1.653   3.648  1.6932 -0.8893  1.0549
23185SOL     OW71561  10.109   9.700   1.996 -0.0758  0.1710  0.4361
23185SOL    HW171562  10.202   9.723   1.996 -0.0884  0.2893  1.8288
23185SOL    HW271563  10.064   9.781   2.020 -0.5125  0.0157  0.1536
23186SOL     OW71564   1.885   0.723  10.732  0.6538  0.1616  0.6578
23186SOL    HW171565   1.974   0.751  10.713  1.0308 -1.0413  0.5449
23186SOL    HW271566   1.836   0.804  10.742  1.2870  0.8908 -1.4522
23187SOL     OW71567   6.009   7.645   5.599  0.2294 -0.5840 -0.2853
23187SOL    HW171568   6.098   7.636   5.566  0.0532 -0.6547 -0.7496
23187SOL    HW271569   6.019   7.655   5.694  0.7502 -0.2071 -0.3775
23188SOL     OW71570   5.400   2.416   4.050  0.5583  0.0292 -0.4753
23188SOL    HW171571   5.379   2.469   3.973 -1.7622  0.3368  0.2979
23188SOL    HW271572   5.457   2.473   4.102  0.9700  0.3655 -1.2645
23189SOL     OW71573   8.651   2.643   8.809 -0.8587 -0.2389  0.4877
23189SOL    HW171574   8.565   2.605   8.824 -1.2479  0.6406  0.5298
23189SOL    HW271575   8.633   2.732   8.780  0.0576  0.4430  1.8887
23190SOL     OW71576   2.696   3.094   4.295  0.3726 -0.2523 -0.3115
23190SOL    HW171577   2.631   3.164   4.303  2.0830  1.3981 -0.0169
23190SOL    HW271578   2.773   3.138   4.257  1.9241 -1.6965  1.0383
23191SOL     OW71579   5.368  10.457   0.459  0.3235 -0.3353 -0.2871
23191SOL    HW171580   5.281  10.452   0.419 -0.3917  1.7340  0.8466
23191SOL    HW271581   5.423  10.497   0.391 -0.2589  0.7741 -0.1261
23192SOL     OW71582   7.913   4.890   0.052  0.3744  0.5040  0.0225
23192SOL    HW171583   7.922   4.980   0.022  0.2237  1.1703  1.8774
23192SOL    HW271584   7.965   4.885   0.132 -1.5976 -0.3499  1.3307
23193SOL     OW71585   0.341   5.616   3.911  0.4581 -0.5769 -0.4556
23193SOL    HW171586   0.383   5.683   3.856  0.1913 -0.6579 -0.7653
23193SOL    HW271587   0.401   5.542   3.909  0.8820 -0.2551  0.1034
23194SOL     OW71588   9.471   7.110   8.950 -0.6810 -0.2421  0.2846
23194SOL    HW171589   9.541   7.075   8.896  0.5553  1.4926  0.6825
23194SOL    HW271590   9.450   7.039   9.011  0.7553 -0.7905  0.1867
23195SOL     OW71591   8.192   8.328   1.329  0.1967 -0.1261 -0.3152
23195SOL    HW171592   8.243   8.397   1.372  0.2480 -0.3360 -0.0377
23195SOL    HW271593   8.243   8.249   1.342 -0.5289 -0.4595  0.5555
23196SOL     OW71594   8.673   7.006   1.481 -0.2564 -0.0503 -0.3724
23196SOL    HW171595   8.659   7.049   1.566 -0.0020 -1.6814  0.5553
23196SOL    HW271596   8.611   7.048   1.422 -0.6515  0.9370  0.7102
23197SOL     OW71597  10.071   0.580  10.503  0.2446  0.0213  0.3198
23197SOL    HW171598  10.128   0.628  10.563 -0.7391  1.4086  0.1827
23197SOL    HW271599  10.022   0.648  10.456  0.3767 -1.0523 -1.4591
23198SOL     OW71600   2.029   8.997   0.231  0.1500 -0.3218 -0.8262
23198SOL    HW171601   2.059   9.080   0.268  2.7295 -2.0238  1.2982
23198SOL    HW271602   2.089   8.981   0.158  0.9192 -1.1613 -0.0323
23199SOL     OW71603   4.967   5.112   0.993 -0.6333 -0.2044 -0.0249
23199SOL    HW171604   5.026   5.089   0.921 -1.6504 -1.0020 -0.6298
23199SOL    HW271605   4.940   5.202   0.974  2.8363  1.4875  1.9907
23200SOL     OW71606   2.557   4.954   0.715  0.7561 -0.0063  0.0523
23200SOL    HW171607   2.614   5.019   0.674  0.9762 -0.4154 -0.3044
23200SOL    HW271608   2.512   4.912   0.642  0.9286 -0.5376  0.2460
23201SOL     OW71609   5.189   4.152   2.984 -0.1947 -0.3623 -0.9278
23201SOL    HW171610   5.150   4.239   2.993  2.1587  0.5764  1.7206
23201SOL    HW271611   5.238   4.156   2.902 -1.3189  0.2208 -1.6013
23202SOL     OW71612   6.383   7.106   7.389  0.6114 -0.1098 -0.0135
23202SOL    HW171613   6.441   7.129   7.462  0.8124 -1.2454  0.1909
23202SOL    HW271614   6.397   7.013   7.374  1.2013  0.2557 -2.0738
23203SOL     OW71615   4.669   8.102   8.994  0.2680 -0.6374  0.1677
23203SOL    HW171616   4.695   8.175   9.051  1.1882 -0.1951 -0.7903
23203SOL    HW271617   4.726   8.110   8.917 -2.9740  0.7268 -2.3412
23204SOL     OW71618   2.423   4.842   6.597 -0.5531  0.5547 -0.6188
23204SOL    HW171619   2.440   4.934   6.616 -0.9891  0.5036  0.0396
23204SOL    HW271620   2.507   4.807   6.568 -0.2462  1.0106 -0.2739
23205SOL     OW71621  10.547   4.774   9.424 -0.5791 -0.0261  0.3828
23205SOL    HW171622  10.575   4.744   9.338  0.2236 -0.8096  0.8984
23205SOL    HW271623  10.578   4.707   9.485  0.4411  1.3472  1.4724
23206SOL     OW71624   8.897  10.800   8.496  0.0172  0.5893  0.4897
23206SOL    HW171625   8.894  10.750   8.414  0.2418  1.6495 -0.1795
23206SOL    HW271626   8.846  10.878   8.478 -0.5407  0.5005  1.6133
23207SOL     OW71627   0.174   8.163   5.743  0.2068  0.4166 -0.3320
23207SOL    HW171628   0.131   8.247   5.756 -1.4983 -0.4863  0.2232
23207SOL    HW271629   0.185   8.127   5.831  0.5078 -0.1150 -0.5785
23208SOL     OW71630   2.847   0.300   8.302 -0.2088 -0.1052 -0.5115
23208SOL    HW171631   2.756   0.291   8.329  0.4170  0.2401  2.0591
23208SOL    HW271632   2.885   0.214   8.317  0.2387  0.1815  0.0431
23209SOL     OW71633   2.877   0.708   3.631 -0.2751  0.4833  0.1136
23209SOL    HW171634   2.845   0.771   3.695  0.4870  1.3446 -0.3363
23209SOL    HW271635   2.805   0.646   3.620 -0.5744  0.5719  1.4723
23210SOL     OW71636   4.579   2.676   4.084 -0.1450 -0.2967 -0.2421
23210SOL    HW171637   4.665   2.691   4.045 -0.8068  0.8762 -1.3444
23210SOL    HW271638   4.545   2.599   4.038  0.7642 -1.5199  1.0489
23211SOL     OW71639   4.133   2.017   5.558  0.4022  0.2324 -0.0980
23211SOL    HW171640   4.055   2.044   5.606 -0.8266  0.0760 -1.8956
23211SOL    HW271641   4.174   2.099   5.530  1.7051  0.3592  1.9906
23212SOL     OW71642   9.082   4.589   4.958 -0.3468  0.3271  0.0067
23212SOL    HW171643   9.158   4.542   4.993 -0.7322 -0.3593 -0.0579
23212SOL    HW271644   9.095   4.587   4.863 -1.1935 -1.1291 -0.1052
23213SOL     OW71645   1.617   4.703  10.450 -0.6900  0.1078 -0.2406
23213SOL    HW171646   1.667   4.758  10.511  1.3133 -0.2367 -1.4671
23213SOL    HW271647   1.587   4.763  10.382 -1.8559  0.2892  0.4196
23214SOL     OW71648   8.214   5.368   8.605 -0.1277 -0.1224 -0.1608
23214SOL    HW171649   8.285   5.413   8.560  0.4699 -1.1767 -0.3138
23214SOL    HW271650   8.222   5.277   8.577 -2.4394 -0.0362 -1.3059
23215SOL     OW71651   3.340   5.268   5.508 -0.5797  0.4026  0.1008
23215SOL    HW171652   3.258   5.222   5.525  0.7472 -1.6240  1.5978
23215SOL    HW271653   3.382   5.274   5.594  0.1393  2.8755 -0.3602
23216SOL     OW71654   1.158   7.834   7.213 -0.4619  0.4417  0.0107
23216SOL    HW171655   1.155   7.895   7.139 -2.3270  0.3266 -0.0663
23216SOL    HW271656   1.251   7.814   7.224  0.0170  1.8237 -1.1669
23217SOL     OW71657  10.422   9.227   1.242 -0.2756  0.3740  0.6065
23217SOL    HW171658  10.424   9.132   1.226  0.7478  0.3657  0.7022
23217SOL    HW271659  10.378   9.236   1.326  1.5194 -0.2057  1.6640
23218SOL     OW71660   2.242   9.759   0.389  0.5541 -0.1856 -0.0905
23218SOL    HW171661   2.314   9.736   0.330  0.6124 -0.0337 -0.0805
23218SOL    HW271662   2.191   9.823   0.340  1.7045  1.4444  0.7611
23219SOL     OW71663   9.633   7.977   2.741  0.0060 -0.1708 -0.3608
23219SOL    HW171664   9.723   8.007   2.731 -0.1987 -0.0681 -2.3299
23219SOL    HW271665   9.639   7.882   2.734  0.2472 -0.4414  2.4273
23220SOL     OW71666   8.252   1.680   2.457  0.8316  0.3694 -0.5229
23220SOL    HW171667   8.263   1.610   2.521  0.4754  0.6095 -0.1985
23220SOL    HW271668   8.342   1.703   2.432  0.9454 -0.5748 -1.0474
23221SOL     OW71669   3.009   3.766   5.407 -0.3386 -0.1332 -0.0903
23221SOL    HW171670   2.936   3.719   5.367 -0.4790  0.5131 -0.6154
23221SOL    HW271671   3.086   3.733   5.360 -0.5290  0.8133 -1.1037
23222SOL     OW71672   2.840   6.699   7.620 -0.2894  0.3134  0.4610
23222SOL    HW171673   2.882   6.615   7.642 -0.8413  0.3880  1.8835
23222SOL    HW271674   2.879   6.762   7.681 -0.4920  0.9244 -0.0331
23223SOL     OW71675   6.433   1.208   2.155  0.0760  0.2701 -0.0243
23223SOL    HW171676   6.417   1.301   2.142 -0.1170  0.4039  1.0686
23223SOL    HW271677   6.380   1.184   2.231  1.8638 -0.1993  1.1595
23224SOL     OW71678   4.514   1.312   4.736  0.6196  0.0868 -0.9018
23224SOL    HW171679   4.425   1.333   4.764  1.1650  0.1313  0.9724
23224SOL    HW271680   4.562   1.394   4.746  0.9062  0.0372 -1.7988
23225SOL     OW71681  10.489   5.312  10.385  0.5791 -0.3804 -0.0551
23225SOL    HW171682  10.584   5.305  10.396  0.4512 -1.8421  0.2464
23225SOL    HW271683  10.473   5.282  10.296  0.3154 -1.0222  0.2059
23226SOL     OW71684   4.500   1.024   3.402  0.1708 -0.1796  0.0101
23226SOL    HW171685   4.585   0.983   3.414  0.1025 -0.0496  1.0344
23226SOL    HW271686   4.439   0.952   3.388  0.1857 -0.3835  0.9629
23227SOL     OW71687   1.973   4.910   0.692 -0.2194  0.1019 -0.1989
23227SOL    HW171688   1.921   4.969   0.638 -0.0848 -1.0613 -1.6657
23227SOL    HW271689   2.042   4.965   0.729  0.3346  0.7713 -2.1088
23228SOL     OW71690  10.652   0.452   7.631  0.0692  0.1180  0.1816
23228SOL    HW171691  10.654   0.367   7.674 -0.9614  0.5570  1.1477
23228SOL    HW271692  10.636   0.432   7.538  0.3158 -0.7572  0.3262
23229SOL     OW71693  10.399   9.140   0.548  0.3301 -0.4565 -0.2783
23229SOL    HW171694  10.387   9.223   0.502 -0.4773 -0.4355 -0.0547
23229SOL    HW271695  10.375   9.159   0.639 -1.0254 -1.1893 -0.4502
23230SOL     OW71696   5.615   2.273   4.180 -0.1066 -0.4257  0.5006
23230SOL    HW171697   5.594   2.360   4.213  0.1810 -1.0208  2.3526
23230SOL    HW271698   5.539   2.249   4.127 -0.8691  0.3397  1.2119
23231SOL     OW71699   2.699   8.124   2.605  0.5645 -0.1567 -0.0986
23231SOL    HW171700   2.608   8.135   2.576  0.2441 -0.0892  0.8832
23231SOL    HW271701   2.691   8.095   2.696  1.5288 -0.6165 -0.1551
23232SOL     OW71702  10.443   7.704   8.239  0.0169  0.0994 -0.4427
23232SOL    HW171703  10.440   7.704   8.334  1.7264  0.1136 -0.3571
23232SOL    HW271704  10.351   7.703   8.212 -0.6047  2.5573  1.1867
23233SOL     OW71705  10.954   4.135   3.326  0.2236  0.9372  0.5468
23233SOL    HW171706  10.908   4.051   3.328  0.5922  0.6754 -0.8276
23233SOL    HW271707  10.901   4.190   3.269  0.4815  1.3307  0.6802
23234SOL     OW71708   8.889   1.625   8.248 -0.0734 -0.4800 -0.0852
23234SOL    HW171709   8.973   1.644   8.290 -0.9016  1.3667  0.8590
23234SOL    HW271710   8.875   1.698   8.188 -1.7571  0.1582  1.0206
23235SOL     OW71711   3.163   0.497   9.187  0.2416  0.5649 -0.0536
23235SOL    HW171712   3.227   0.443   9.139 -0.2826  0.7026 -0.9423
23235SOL    HW271713   3.200   0.507   9.274 -0.2097 -2.2500  0.5523
23236SOL     OW71714   1.305   8.615   9.327  0.4049 -0.6824  0.9964
23236SOL    HW171715   1.315   8.705   9.296 -0.0487 -0.5156  1.3187
23236SOL    HW271716   1.394   8.580   9.330  0.4837 -0.6478 -0.3144
23237SOL     OW71717   0.903   2.379   7.131 -0.0619 -0.6456  0.0482
23237SOL    HW171718   0.938   2.466   7.113 -0.4525 -0.3253  0.7771
23237SOL    HW271719   0.873   2.347   7.046 -0.3880  0.1509 -0.1474
23238SOL     OW71720   9.553   8.807   6.072  0.2876 -0.2363  0.5940
23238SOL    HW171721   9.504   8.726   6.069  0.3862 -0.3654  1.9310
23238SOL    HW271722   9.491   8.874   6.045  0.9205 -0.9771 -3.3724
23239SOL     OW71723   4.838   7.500   2.229 -0.1156  0.0628  0.4396
23239SOL    HW171724   4.781   7.572   2.256 -0.8740 -0.2578 -0.2836
23239SOL    HW271725   4.925   7.527   2.258 -0.3597  1.3431  0.0404
23240SOL     OW71726   3.102   5.714   2.163  0.2443 -0.7101  0.2378
23240SOL    HW171727   3.159   5.661   2.107  0.3026 -1.2699  0.8234
23240SOL    HW271728   3.162   5.768   2.215  0.1775  0.2112 -0.6108
23241SOL     OW71729   7.993   0.919  10.503 -0.3695 -0.5416 -0.1485
23241SOL    HW171730   7.971   0.950  10.415  1.7806 -0.4548 -0.6985
23241SOL    HW271731   7.912   0.877  10.533 -1.3031 -0.2005 -1.9754
23242SOL     OW71732   7.815   1.095   0.386 -0.5141 -0.2318  0.0341
23242SOL    HW171733   7.734   1.060   0.350 -0.3483  0.0789 -0.6451
23242SOL    HW271734   7.794   1.185   0.410 -0.4164 -0.2077  0.0293
23243SOL     OW71735   5.362   5.805   6.925 -0.2109 -0.3349 -0.7676
23243SOL    HW171736   5.272   5.799   6.956 -0.1533 -1.2782 -0.7508
23243SOL    HW271737   5.365   5.747   6.849  0.4266 -0.4636 -0.6503
23244SOL     OW71738   9.992   4.816   6.723  0.9202  0.4124  0.1948
23244SOL    HW171739  10.025   4.868   6.797 -0.0012 -0.0373  0.9358
23244SOL    HW271740  10.019   4.727   6.742 -1.0208 -0.0410  1.0332
23245SOL     OW71741   3.642   5.952   0.895 -0.1198 -0.0287  0.3579
23245SOL    HW171742   3.624   5.982   0.806  1.6005 -0.7300 -0.2778
23245SOL    HW271743   3.657   6.033   0.944 -0.6890  0.3543 -0.0853
23246SOL     OW71744   8.957   0.609   8.325  0.0384 -0.3634  0.7138
23246SOL    HW171745   9.021   0.574   8.262 -0.9432 -0.1308 -0.4551
23246SOL    HW271746   9.004   0.679   8.370  0.8565 -0.7272  0.4494
23247SOL     OW71747   0.763   9.001   0.218  0.0868 -0.4644  0.5391
23247SOL    HW171748   0.759   9.014   0.313  0.3347 -0.6149  0.5729
23247SOL    HW271749   0.679   8.960   0.196 -0.7204  1.1839  0.4211
23248SOL     OW71750  10.083   3.716   7.608  0.3889  0.0911 -1.0507
23248SOL    HW171751  10.106   3.645   7.667 -0.9863 -0.7994 -1.5364
23248SOL    HW271752  10.024   3.772   7.658  1.1836  0.7304 -0.7909
23249SOL     OW71753   4.203   4.194   6.754  0.3636  0.0794  0.8417
23249SOL    HW171754   4.139   4.173   6.686  1.1392  1.9876 -0.5784
23249SOL    HW271755   4.214   4.113   6.803 -0.5187 -1.2807 -1.0720
23250SOL     OW71756   6.232   4.984   8.782 -0.4559  0.1892  0.1235
23250SOL    HW171757   6.151   4.975   8.831 -1.0041  0.4912 -0.7049
23250SOL    HW271758   6.242   5.078   8.768 -0.2235  0.1187 -0.1997
23251SOL     OW71759   9.530  10.399   8.604 -0.1771 -0.0212 -0.0313
23251SOL    HW171760   9.570  10.330   8.658  1.5941  0.6492 -0.4002
23251SOL    HW271761   9.589  10.406   8.529 -0.9041  1.1911 -0.5066
23252SOL     OW71762   6.629   0.795   1.926 -0.5441  0.5876 -0.2649
23252SOL    HW171763   6.716   0.774   1.891 -0.9767  2.5731 -2.8560
23252SOL    HW271764   6.647   0.857   1.997  0.2347 -1.6064  1.5739
23253SOL     OW71765   8.084   0.954   8.796  0.3984  0.1137 -0.0119
23253SOL    HW171766   8.017   0.888   8.811  1.1882 -0.7810 -0.3272
23253SOL    HW271767   8.035   1.036   8.788 -0.5258 -0.2934  1.1974
23254SOL     OW71768   4.077   6.397   5.064 -0.1489 -0.1895 -0.4490
23254SOL    HW171769   4.099   6.482   5.026  0.0997  0.1017  0.3190
23254SOL    HW271770   4.161   6.358   5.088 -0.1614 -1.2335 -1.9602
23255SOL     OW71771   0.030   3.196   4.885 -0.4116 -0.2510 -0.2877
23255SOL    HW171772   0.024   3.276   4.832  0.8977  0.2535  0.2724
23255SOL    HW271773   0.123   3.174   4.883 -0.1110  0.3463  2.5727
23256SOL     OW71774   3.743   8.551  10.921  0.2485 -0.7585  0.6808
23256SOL    HW171775   3.826   8.597  10.935 -2.0607  3.7709  1.2115
23256SOL    HW271776   3.730   8.500  11.001  0.8390  1.5330  2.3439
23257SOL     OW71777   8.024   4.202   5.091  0.3204 -0.6750 -0.6563
23257SOL    HW171778   8.010   4.285   5.045 -1.6166 -1.2906 -1.3036
23257SOL    HW271779   7.992   4.136   5.029  2.1182 -1.9535 -0.2879
23258SOL     OW71780   0.797   6.496  10.363  0.0624  0.0328  0.4090
23258SOL    HW171781   0.774   6.453  10.445  2.7342 -1.5454  0.4679
23258SOL    HW271782   0.845   6.429  10.314  3.3458  2.4440 -0.0568
23259SOL     OW71783   8.138   6.021   9.299 -0.4691  0.3210  0.3008
23259SOL    HW171784   8.224   6.055   9.272 -0.1663 -1.2474 -0.8606
23259SOL    HW271785   8.091   6.098   9.331  0.9599  1.4176 -0.1248
23260SOL     OW71786  11.025   6.939   3.000 -0.1221  0.5691  0.0635
23260SOL    HW171787  10.982   6.866   3.045  0.4671  0.7236  0.8788
23260SOL    HW271788  11.118   6.928   3.018 -0.1695  2.7797  2.1345
23261SOL     OW71789   9.151   8.919   2.517  0.0473  0.0011  0.2876
23261SOL    HW171790   9.093   8.910   2.593 -0.0793  2.0899  0.4787
23261SOL    HW271791   9.230   8.870   2.542 -0.3825 -0.1919  1.3381
23262SOL     OW71792  10.511   5.005   7.290 -0.0410  0.2112  0.1982
23262SOL    HW171793  10.488   5.018   7.198  1.2317 -0.6366 -0.2542
23262SOL    HW271794  10.544   5.091   7.318 -0.1821  0.4024 -0.2057
23263SOL     OW71795  10.401   2.248   2.761  0.4619  0.3495  0.0273
23263SOL    HW171796  10.480   2.224   2.811 -0.0520 -0.8085  0.3267
23263SOL    HW271797  10.413   2.205   2.676 -0.1472 -0.4046  0.3139
23264SOL     OW71798   3.914   5.166   1.089  0.2848  0.1281  0.2257
23264SOL    HW171799   3.878   5.078   1.081 -0.3762  0.2964  1.1875
23264SOL    HW271800   3.856   5.221   1.036  0.5629  0.0190 -0.1907
23265SOL     OW71801  10.013   6.511   2.197  0.6467  0.0822 -0.0283
23265SOL    HW171802  10.002   6.506   2.292 -1.1038  0.3042 -0.1800
23265SOL    HW271803  10.103   6.484   2.181  1.0121  0.1894  1.7039
23266SOL     OW71804   7.260   3.727   8.414 -0.1199  0.1072  0.3684
23266SOL    HW171805   7.297   3.781   8.484  0.9637  1.2330 -0.9925
23266SOL    HW271806   7.306   3.756   8.335  0.3522 -2.6942 -0.4953
23267SOL     OW71807   4.022   9.435   9.443 -0.4038 -0.1422 -0.3420
23267SOL    HW171808   4.051   9.379   9.371 -3.0255 -3.1871  0.6776
23267SOL    HW271809   3.965   9.500   9.402 -0.9711 -1.1422 -1.1943
23268SOL     OW71810   9.569   6.559   5.583 -1.0137 -0.0042 -0.2531
23268SOL    HW171811   9.591   6.622   5.652  0.7469 -0.5642 -0.2388
23268SOL    HW271812   9.474   6.556   5.583 -1.1024  1.4517  0.8358
23269SOL     OW71813   9.991   5.960   6.534  0.0341 -0.1881  0.0072
23269SOL    HW171814   9.983   6.055   6.525 -2.2394 -0.0920  2.1048
23269SOL    HW271815  10.050   5.935   6.463 -1.4369  2.4576 -2.4068
23270SOL     OW71816   0.520   2.811   0.686  0.2447 -0.3473  0.4748
23270SOL    HW171817   0.501   2.717   0.681  3.0844 -1.1239  1.9631
23270SOL    HW271818   0.463   2.843   0.756  1.7637 -1.8448  2.5414
23271SOL     OW71819   6.783   3.195   8.472  0.1321  0.1076  0.6120
23271SOL    HW171820   6.763   3.275   8.424  0.7919 -0.9238 -1.5183
23271SOL    HW271821   6.861   3.217   8.523 -0.6229  1.2580  1.3047
23272SOL     OW71822   3.539   0.185   0.400  0.0425 -0.5906 -0.0897
23272SOL    HW171823   3.471   0.121   0.422 -1.8196  1.4981  0.6166
23272SOL    HW271824   3.557   0.168   0.307  0.2369 -2.6331  0.2621
23273SOL     OW71825   4.715   1.377   8.687  0.4076 -0.5904  0.2216
23273SOL    HW171826   4.636   1.432   8.683  0.0900 -1.0957 -0.6621
23273SOL    HW271827   4.713   1.326   8.606 -0.4040 -3.4160  1.8782
23274SOL     OW71828  10.435   7.847   3.197 -0.1249 -0.2800  0.1035
23274SOL    HW171829  10.477   7.914   3.142 -1.1488  0.2591 -0.0320
23274SOL    HW271830  10.447   7.766   3.148  1.8514 -0.3735  0.6529
23275SOL     OW71831   6.443   6.266  10.890 -0.5536 -0.0272 -0.3330
23275SOL    HW171832   6.414   6.179  10.918 -0.6359 -0.1714 -0.8465
23275SOL    HW271833   6.510   6.248  10.824  1.0803  0.3030  1.1742
23276SOL     OW71834   8.515   0.126   9.947 -0.0015 -0.9357 -0.3311
23276SOL    HW171835   8.471   0.091  10.024 -0.9013 -1.1051 -0.9043
23276SOL    HW271836   8.607   0.100   9.957 -0.1315 -1.0555  0.6122
23277SOL     OW71837   3.567   0.906   4.470  0.0693 -0.5015 -0.4933
23277SOL    HW171838   3.639   0.845   4.483 -0.9123 -1.5400  0.2814
23277SOL    HW271839   3.540   0.892   4.379 -0.6455 -1.8419 -0.1102
23278SOL     OW71840   0.304   0.545   0.514 -0.0652 -0.4708 -0.1117
23278SOL    HW171841   0.212   0.571   0.512  0.4426  1.5500 -2.6623
23278SOL    HW271842   0.303   0.451   0.496 -1.6412 -0.9716  2.0792
23279SOL     OW71843   6.394   0.020   8.275 -0.3311  0.2202 -0.7246
23279SOL    HW171844   6.438   0.018   8.190  0.4504  1.8644 -0.3896
23279SOL    HW271845   6.329  -0.050   8.270  0.3043 -0.2927 -2.3377
23280SOL     OW71846   9.550  10.416   2.474  0.0057 -0.0039 -0.0138
23280SOL    HW171847   9.550  10.351   2.544  0.6948 -0.6760 -0.6357
23280SOL    HW271848   9.536  10.499   2.520 -0.2219 -0.5056  0.8518
23281SOL     OW71849   4.936   1.170   4.825 -0.1610  0.1609 -0.5687
23281SOL    HW171850   5.026   1.187   4.853 -0.5743  0.0652  0.9357
23281SOL    HW271851   4.891   1.143   4.906 -0.9842 -2.0984 -1.6872
23282SOL     OW71852   8.503   8.097   5.262 -0.1283 -0.1500 -0.4588
23282SOL    HW171853   8.466   8.067   5.345 -0.3117  0.5343 -0.2854
23282SOL    HW271854   8.581   8.043   5.249 -1.0095 -1.3898 -0.6667
23283SOL     OW71855   8.739   6.100   3.670 -0.4419 -0.0866 -0.7515
23283SOL    HW171856   8.825   6.142   3.665  0.9128 -2.3602  1.5056
23283SOL    HW271857   8.684   6.152   3.611  2.3365  1.7039 -1.9662
23284SOL     OW71858   6.150   4.297   6.541  0.3285 -0.8096  0.2561
23284SOL    HW171859   6.097   4.333   6.470 -1.3361  0.1039  1.8780
23284SOL    HW271860   6.118   4.207   6.550  0.7302 -1.0171 -0.2776
23285SOL     OW71861   6.823   8.767   2.187  0.5942 -0.1327  0.4939
23285SOL    HW171862   6.863   8.692   2.142  2.0217  0.6032  0.4701
23285SOL    HW271863   6.804   8.735   2.275  1.4672 -0.4523  0.5749
23286SOL     OW71864   7.158   0.916   5.665 -0.2106  0.3336 -0.0180
23286SOL    HW171865   7.138   0.905   5.572 -1.8488 -1.0526  0.4331
23286SOL    HW271866   7.137   1.008   5.683 -1.3242  0.2377 -0.7223
23287SOL     OW71867   1.555   2.608   1.944  0.4735 -0.1304  0.1780
23287SOL    HW171868   1.462   2.585   1.940 -0.0645  2.0296 -1.9677
23287SOL    HW271869   1.600   2.523   1.950 -1.5889 -1.2318  1.0990
23288SOL     OW71870   8.122   1.910   7.030 -0.0069 -0.2214  0.5480
23288SOL    HW171871   8.036   1.869   7.025  0.8252 -1.9730 -1.2169
23288SOL    HW271872   8.140   1.919   7.123 -1.4924 -1.1768  0.9540
23289SOL     OW71873   0.759   9.775   3.588  0.6916 -0.4381 -0.5545
23289SOL    HW171874   0.834   9.820   3.626  0.1331 -0.7005  0.9340
23289SOL    HW271875   0.786   9.683   3.583 -0.0794 -0.8414  1.6098
23290SOL     OW71876   8.531   2.820   2.979 -0.1759  0.1186 -0.0962
23290SOL    HW171877   8.492   2.880   2.914 -0.9729 -1.1540 -0.8302
23290SOL    HW271878   8.456   2.775   3.018  0.4269 -0.6903  0.1532
23291SOL     OW71879   0.915   0.121   1.018  0.2100 -0.5698 -0.3603
23291SOL    HW171880   0.981   0.151   1.081 -0.7148  0.0994  0.3201
23291SOL    HW271881   0.877   0.202   0.984 -0.1342 -0.9454 -0.8690
23292SOL     OW71882   5.115   3.996   3.622  0.0860  0.0879  0.6917
23292SOL    HW171883   5.207   4.020   3.629  0.3762 -0.5558 -0.5091
23292SOL    HW271884   5.115   3.901   3.610 -0.4527  0.3812 -2.5981
23293SOL     OW71885   7.549   9.573   3.895 -0.0394 -0.0127 -0.0853
23293SOL    HW171886   7.607   9.531   3.959  1.1072 -1.4082 -1.9330
23293SOL    HW271887   7.608   9.605   3.827 -1.1650  2.0349 -0.1720
23294SOL     OW71888   6.148   1.385   4.325 -0.2420  0.4908  0.4407
23294SOL    HW171889   6.124   1.378   4.417  0.9713  1.2033  0.8419
23294SOL    HW271890   6.192   1.470   4.318 -1.1391  0.8732 -0.9938
23295SOL     OW71891   5.108   8.950   8.466 -0.3802 -0.5318  0.0884
23295SOL    HW171892   5.013   8.960   8.457 -0.2844 -0.3074 -0.7050
23295SOL    HW271893   5.137   8.914   8.382  0.2712 -0.3690  0.2358
23296SOL     OW71894   7.284   3.108   9.436 -0.0689  0.3464 -0.2464
23296SOL    HW171895   7.272   3.017   9.410  0.3914  0.0094  0.6738
23296SOL    HW271896   7.379   3.120   9.438 -0.1306  0.8966 -0.5278
23297SOL     OW71897   2.556   7.789  10.247  0.4592 -0.4783 -0.0637
23297SOL    HW171898   2.515   7.836  10.174  0.7405 -0.3192 -0.1206
23297SOL    HW271899   2.515   7.825  10.325 -0.8494 -1.6200 -0.1938
23298SOL     OW71900   1.212   2.635   4.761  0.1267 -0.6406 -0.3971
23298SOL    HW171901   1.299   2.600   4.747 -0.2286 -0.7163 -2.8290
23298SOL    HW271902   1.153   2.563   4.742 -0.5160 -0.2356 -0.0133
23299SOL     OW71903   3.954   9.578  10.160  0.2179  0.1507 -0.4673
23299SOL    HW171904   4.044   9.556  10.136  0.1288  0.4654 -1.1263
23299SOL    HW271905   3.902   9.507  10.123  0.1537  0.2395 -0.5510
23300SOL     OW71906   5.199  10.346   5.858 -0.0561  0.0542 -0.8284
23300SOL    HW171907   5.185  10.414   5.924  0.5558  1.1862 -1.8397
23300SOL    HW271908   5.111  10.322   5.829 -0.3081 -0.1394  0.0662
23301SOL     OW71909   4.031   3.547  10.998 -0.1710 -0.5101 -0.2622
23301SOL    HW171910   3.980   3.516  10.923  1.1314 -1.8491 -0.6396
23301SOL    HW271911   4.115   3.501  10.991  0.8805  1.1534  0.6732
23302SOL     OW71912   0.324   9.840   2.765 -0.5430 -0.4233 -0.4100
23302SOL    HW171913   0.247   9.834   2.821 -0.6264 -0.2827 -0.5083
23302SOL    HW271914   0.289   9.861   2.678 -0.4945 -1.5235 -0.7116
23303SOL     OW71915   1.989   1.036   2.556 -0.5834 -0.4782  0.4829
23303SOL    HW171916   2.074   1.024   2.513 -0.0034  1.5194  0.9710
23303SOL    HW271917   1.926   0.995   2.496  0.4326  0.3728 -1.2604
23304SOL     OW71918   0.223   7.021   1.646  0.3156  0.4356 -0.4504
23304SOL    HW171919   0.138   7.052   1.676  0.0720  0.0629 -0.7421
23304SOL    HW271920   0.205   6.979   1.562  0.6834 -0.1779 -0.2298
23305SOL     OW71921   4.372   7.827   8.805 -0.1445  0.0130  0.5750
23305SOL    HW171922   4.464   7.853   8.795 -0.0539 -0.6585 -0.5617
23305SOL    HW271923   4.325   7.879   8.740 -0.5839  0.3924  1.1909
23306SOL     OW71924   8.915   6.402   3.740 -0.1232  0.1821 -0.5263
23306SOL    HW171925   8.874   6.424   3.824  0.2287  0.6022 -0.4629
23306SOL    HW271926   8.961   6.320   3.757  1.1179  0.9677  0.0954
23307SOL     OW71927   3.885   9.357   8.446  0.1588  0.0907  0.2162
23307SOL    HW171928   3.840   9.391   8.369 -0.3423 -1.9724 -0.4410
23307SOL    HW271929   3.975   9.344   8.418 -0.2771 -1.7587 -0.4150
23308SOL     OW71930   5.976   5.985   1.250  0.0687  0.7870  0.7622
23308SOL    HW171931   6.044   6.048   1.229  0.6430  0.1053  0.5264
23308SOL    HW271932   6.014   5.930   1.318  0.7591 -1.1993 -1.1253
23309SOL     OW71933   7.368   8.944   1.864  0.7205 -0.0399 -0.4121
23309SOL    HW171934   7.278   8.913   1.858  1.2507 -1.6345 -0.4584
23309SOL    HW271935   7.372   8.991   1.947 -0.2149  0.3287 -0.5614
23310SOL     OW71936   6.613  10.987   1.135 -0.4547 -0.1627  0.2726
23310SOL    HW171937   6.548  10.949   1.194 -0.8278 -0.9797 -0.6487
23310SOL    HW271938   6.698  10.956   1.169 -0.5903  0.1536  0.9284
23311SOL     OW71939   1.158   8.345   4.606 -0.1154  0.5876  0.2207
23311SOL    HW171940   1.207   8.265   4.588 -0.8185  0.2765 -0.3452
23311SOL    HW271941   1.208   8.414   4.564 -0.2382  0.2557 -0.4760
23312SOL     OW71942   3.359   1.128   9.744  0.0341 -0.5625  0.0150
23312SOL    HW171943   3.454   1.116   9.742  0.4306  1.5849  2.1039
23312SOL    HW271944   3.345   1.204   9.800 -2.8567  0.2932 -1.6667
23313SOL     OW71945   4.986   3.901   8.412 -0.1035  0.4454 -0.6890
23313SOL    HW171946   5.057   3.877   8.471 -0.0967  1.3149 -0.3190
23313SOL    HW271947   4.964   3.991   8.436 -1.6353  0.0562 -0.4864
23314SOL     OW71948   3.909   1.366   4.693  0.2304 -0.2793 -0.2729
23314SOL    HW171949   3.865   1.398   4.615  0.5287 -0.0081 -0.3337
23314SOL    HW271950   3.844   1.375   4.763 -0.0941 -0.6896 -0.5200
23315SOL     OW71951   2.667   4.275   9.052  0.2324 -0.6038 -0.2345
23315SOL    HW171952   2.671   4.321   8.968  0.9628 -1.0531 -0.4520
23315SOL    HW271953   2.624   4.192   9.031 -0.1501 -0.4553 -0.0420
23316SOL     OW71954  10.461   4.346  10.136 -0.0923  0.1762 -0.5485
23316SOL    HW171955  10.402   4.370  10.064 -0.9567  1.9023  0.6879
23316SOL    HW271956  10.403   4.323  10.208  0.7152  1.5822  0.5931
23317SOL     OW71957  10.120   8.548   1.722  0.0332 -0.0519  0.0174
23317SOL    HW171958  10.125   8.635   1.684 -0.0492  0.2559  0.6890
23317SOL    HW271959  10.202   8.506   1.697  0.4087  0.4892  0.3301
23318SOL     OW71960   2.956   0.373   1.744 -0.1589  0.0125  0.4761
23318SOL    HW171961   2.979   0.281   1.751 -0.5569  0.0239  2.2897
23318SOL    HW271962   3.038   0.417   1.721  0.4890 -0.5596  1.6425
23319SOL     OW71963   0.141   6.439  10.056  0.4549 -0.2102 -0.2605
23319SOL    HW171964   0.071   6.379  10.081  1.9043 -2.4091 -1.1434
23319SOL    HW271965   0.160   6.488  10.136 -0.3133 -1.4323  0.7130
23320SOL     OW71966   5.089   1.492   3.893 -0.0363 -0.1572  0.6538
23320SOL    HW171967   5.044   1.475   3.976 -2.2140  0.2157 -0.3821
23320SOL    HW271968   5.065   1.582   3.871 -0.0356 -0.4594 -0.6753
23321SOL     OW71969   8.844  11.035   9.166  0.3320  0.3729 -0.1198
23321SOL    HW171970   8.810  11.120   9.137 -3.1250 -0.2908  1.3534
23321SOL    HW271971   8.790  10.971   9.120  0.9343 -0.9206  0.9092
23322SOL     OW71972   8.090   8.623   8.009 -0.2085 -0.0189 -0.5563
23322SOL    HW171973   8.006   8.646   8.049 -0.9403 -1.2255 -1.3164
23322SOL    HW271974   8.121   8.548   8.059  0.6146  0.6376 -0.0554
23323SOL     OW71975   4.952   2.081   8.740  0.3320 -0.0351 -0.0522
23323SOL    HW171976   4.935   1.998   8.696 -0.2323 -0.3518  0.7244
23323SOL    HW271977   5.044   2.101   8.720  0.0870 -0.1361 -1.3708
23324SOL     OW71978   5.445   0.388   3.328 -0.3460 -0.0088  0.3063
23324SOL    HW171979   5.405   0.411   3.244  0.2807 -1.5998 -0.4543
23324SOL    HW271980   5.426   0.464   3.384 -3.7997 -0.3171 -0.1856
23325SOL     OW71981  10.224   0.469   3.155 -0.1645  0.6258 -0.3286
23325SOL    HW171982  10.293   0.460   3.089 -0.3470 -1.4550 -0.2770
23325SOL    HW271983  10.266   0.448   3.238 -0.5048  0.8593 -0.0952
23326SOL     OW71984   3.863   2.150  10.249  0.5203  0.0121  0.5332
23326SOL    HW171985   3.880   2.145  10.155 -0.3847  0.8628  0.3001
23326SOL    HW271986   3.867   2.244  10.269  0.5893 -0.1521  1.3208
23327SOL     OW71987   1.011   6.023   2.540 -0.4902  0.0601  0.4073
23327SOL    HW171988   1.020   5.983   2.454 -0.6422 -0.9413  0.8402
23327SOL    HW271989   1.101   6.037   2.571 -0.4087 -1.1822  0.7918
23328SOL     OW71990  10.172   7.893   2.795  0.2730  0.4492 -0.0269
23328SOL    HW171991  10.137   7.878   2.882  1.4355  0.7139  0.5100
23328SOL    HW271992  10.207   7.982   2.798  0.4116  0.4301 -0.7364
23329SOL     OW71993   8.718   3.208   2.356  0.4505  0.0873 -0.2375
23329SOL    HW171994   8.750   3.160   2.280  1.6185 -0.8039  0.7693
23329SOL    HW271995   8.732   3.300   2.334 -0.3997 -0.0684 -1.5766
23330SOL     OW71996   1.249   6.786   9.946 -0.0096  0.4297  0.4007
23330SOL    HW171997   1.259   6.859  10.007 -1.6046 -1.2763  2.9111
23330SOL    HW271998   1.290   6.712   9.990  0.7676 -0.4406 -1.6600
23331SOL     OW71999  10.005   8.017   1.472 -0.5843  0.3204 -0.8477
23331SOL    HW172000  10.027   8.109   1.484  2.2886 -0.6047  2.5935
23331SOL    HW272001  10.063   7.987   1.403 -0.8894  0.8559 -1.3496
23332SOL     OW72002   1.235   0.057   8.798  0.2001  0.0491 -0.5175
23332SOL    HW172003   1.241   0.036   8.704  1.3923  0.1113 -0.4761
23332SOL    HW272004   1.169  -0.002   8.832  0.6945 -0.9042 -1.1667
23333SOL     OW72005   4.273   8.885   6.554  0.2766 -0.3204  0.0620
23333SOL    HW172006   4.272   8.963   6.610  1.2255  0.0092 -0.3615
23333SOL    HW272007   4.362   8.852   6.560 -0.2449 -1.6788  0.6294
23334SOL     OW72008   5.401   4.787   9.973 -0.0700 -0.6353  0.4197
23334SOL    HW172009   5.346   4.799  10.051 -1.4651 -1.8955 -0.3267
23334SOL    HW272010   5.397   4.871   9.928 -0.7681 -0.4679  0.7768
23335SOL     OW72011   5.803  10.257  10.885 -0.2116  0.1569  0.2710
23335SOL    HW172012   5.884  10.271  10.836  0.2359 -1.5886  0.4498
23335SOL    HW272013   5.831  10.238  10.974 -0.9385  1.5711  0.8213
23336SOL     OW72014   5.182  11.017  10.635 -0.0958  0.1173 -0.0544
23336SOL    HW172015   5.165  11.055  10.549 -1.8023  1.1490  0.6775
23336SOL    HW272016   5.187  11.093  10.694  1.8564 -0.5168  0.6636
23337SOL     OW72017   1.905   9.086   1.650 -0.4288 -0.6392 -0.2820
23337SOL    HW172018   1.929   9.014   1.708  0.9143 -1.1935 -1.4882
23337SOL    HW272019   1.911   9.050   1.562  2.1173  1.3751 -1.0701
23338SOL     OW72020   3.844   3.741   1.189  0.0268  0.0624 -0.4346
23338SOL    HW172021   3.853   3.836   1.182  1.2600 -0.0032  0.0111
23338SOL    HW272022   3.913   3.706   1.133  0.7175 -0.5367  0.7407
23339SOL     OW72023   2.533  10.660   9.803 -0.3875  0.1751 -0.2611
23339SOL    HW172024   2.621  10.644   9.837  0.3503  1.7589 -1.2785
23339SOL    HW272025   2.502  10.573   9.775  0.6266 -0.4864  0.5834
23340SOL     OW72026  10.269   3.870   2.203  0.0356 -0.0101 -0.4482
23340SOL    HW172027  10.213   3.897   2.277  0.5631 -0.5758  0.1702
23340SOL    HW272028  10.312   3.790   2.234 -0.3831 -0.7410 -1.7010
23341SOL     OW72029   0.678   4.571   5.718 -0.2224  0.2684  0.2596
23341SOL    HW172030   0.774   4.572   5.722  0.0589  1.6796 -3.1848
23341SOL    HW272031   0.655   4.658   5.683 -2.7395 -0.1911  0.6160
23342SOL     OW72032   8.696   1.943   2.176  0.4277 -0.1463 -0.6750
23342SOL    HW172033   8.710   2.038   2.167  0.3236 -0.3072 -2.9413
23342SOL    HW272034   8.781   1.910   2.206  0.9565  0.4923 -1.4022
23343SOL     OW72035   3.411   5.486   5.915  0.0765 -0.4948  0.2883
23343SOL    HW172036   3.318   5.509   5.918  0.0733 -0.5083  0.2923
23343SOL    HW272037   3.441   5.497   6.005  0.5843  1.6048 -0.0871
23344SOL     OW72038   5.784   4.773   1.855 -0.2145 -0.1781 -0.1881
23344SOL    HW172039   5.800   4.686   1.892  1.0762  0.6678  1.3751
23344SOL    HW272040   5.719   4.812   1.914  1.8310  1.1710  1.3426
23345SOL     OW72041   3.050   2.163   8.412 -0.2567  0.1099  0.1280
23345SOL    HW172042   3.039   2.247   8.457 -0.9138 -0.2628  0.6875
23345SOL    HW272043   3.083   2.104   8.480  1.3384  0.1884 -0.5413
23346SOL     OW72044   5.084   9.089   7.277  0.3537  1.0347  0.3024
23346SOL    HW172045   5.164   9.052   7.314 -0.1038  1.4293  1.7303
23346SOL    HW272046   5.061   9.162   7.335  0.5538  2.8221 -1.7321
23347SOL     OW72047   3.073   8.424   8.284  0.1202 -0.0908 -0.3290
23347SOL    HW172048   3.028   8.448   8.366  0.9496  0.7993 -0.1071
23347SOL    HW272049   3.166   8.440   8.303  0.3882 -0.5505 -1.2249
23348SOL     OW72050   7.560   4.359   0.790  0.1397 -0.3513  0.1141
23348SOL    HW172051   7.655   4.356   0.774  0.0642 -0.5044 -0.3376
23348SOL    HW272052   7.539   4.452   0.795  0.3668 -0.3225  0.5511
23349SOL     OW72053   1.856   8.557   1.865 -0.1488 -0.2677 -0.4699
23349SOL    HW172054   1.942   8.558   1.906 -0.4125  2.5247  0.2053
23349SOL    HW272055   1.794   8.564   1.939 -0.6893  3.0237 -1.0965
23350SOL     OW72056   2.084   7.007   5.422  0.0716  0.3582 -0.5252
23350SOL    HW172057   2.155   6.999   5.487 -0.8462 -0.4518  0.4208
23350SOL    HW272058   2.005   6.987   5.471 -0.9175  1.9190 -1.4066
23351SOL     OW72059  10.157   3.631   7.967  0.2989  0.1663 -0.4378
23351SOL    HW172060  10.230   3.577   7.937 -0.0878 -0.1565 -0.8046
23351SOL    HW272061  10.178   3.719   7.932  1.0245  0.3140  0.3275
23352SOL     OW72062  10.897   3.810  10.864  0.1080 -0.1384 -0.1559
23352SOL    HW172063  10.949   3.785  10.941  0.2433  1.5068  0.3504
23352SOL    HW272064  10.957   3.802  10.790  0.1627 -1.1605 -0.0065
23353SOL     OW72065   2.650   0.999   7.678 -0.4447  0.0214  0.0187
23353SOL    HW172066   2.722   0.936   7.675  0.0190  0.4613  1.1167
23353SOL    HW272067   2.683   1.075   7.630 -0.2624  0.1348  0.3205
23354SOL     OW72068   6.803  10.531   8.367  0.7365  0.3470  0.0623
23354SOL    HW172069   6.853  10.451   8.353  1.6395  0.6629  1.3299
23354SOL    HW272070   6.869  10.599   8.383 -0.0542  0.8249  1.5159
23355SOL     OW72071   0.267   4.572   4.859  0.0341  0.3710  0.0136
23355SOL    HW172072   0.292   4.657   4.823 -2.2896  1.3368  0.5205
23355SOL    HW272073   0.172   4.575   4.865 -0.0981 -2.1701  0.3572
23356SOL     OW72074   3.734   7.460   1.574  0.2913  0.9556 -0.0538
23356SOL    HW172075   3.699   7.504   1.652 -0.0270  0.3164  0.1681
23356SOL    HW272076   3.674   7.387   1.559 -0.3261  1.7217 -1.5696
23357SOL     OW72077   6.257   2.607   8.607 -0.2934 -0.2888  0.0310
23357SOL    HW172078   6.321   2.666   8.567  0.2236 -0.7885  0.1222
23357SOL    HW272079   6.239   2.645   8.693 -1.3071  0.7181 -0.5938
23358SOL     OW72080   0.167  10.936   4.199  0.4786 -0.8466 -0.2221
23358SOL    HW172081   0.150  10.890   4.116  0.1685 -1.3505  0.1095
23358SOL    HW272082   0.213  10.871   4.253 -0.0740 -0.8163  0.2983
23359SOL     OW72083   0.722   1.536   3.962  0.1428 -0.3138 -1.0338
23359SOL    HW172084   0.761   1.599   3.902  1.5817  0.1157  0.3007
23359SOL    HW272085   0.724   1.453   3.914  0.6501  0.1468 -1.8279
23360SOL     OW72086   8.389   6.998   6.873  0.0873  0.2184 -0.3796
23360SOL    HW172087   8.312   6.988   6.929 -1.1878  2.3193 -1.6538
23360SOL    HW272088   8.461   6.963   6.926 -1.7783 -2.5851  0.5362
23361SOL     OW72089   4.138   5.377   5.236 -0.6714 -0.2839  0.3440
23361SOL    HW172090   4.066   5.440   5.241 -1.1398 -0.7789  0.0418
23361SOL    HW272091   4.113   5.308   5.299  0.2266  0.2085  1.2689
23362SOL     OW72092   8.811   5.730   5.382 -0.0942  0.0741 -0.1284
23362SOL    HW172093   8.887   5.707   5.434 -0.7813 -2.1233  0.0126
23362SOL    HW272094   8.823   5.822   5.360  2.2136 -0.0335  0.4932
23363SOL     OW72095   2.441  10.034   0.402 -0.5075  0.2784  0.0512
23363SOL    HW172096   2.363   9.978   0.397 -1.2528  1.1535  1.3174
23363SOL    HW272097   2.504   9.982   0.451 -1.4592  0.7407  1.8964
23364SOL     OW72098   4.147  10.716   5.257  0.4210  0.2381 -0.7230
23364SOL    HW172099   4.077  10.704   5.322  0.3401  2.4744 -0.3040
23364SOL    HW272100   4.221  10.747   5.309  0.1938  2.5844 -1.7013
23365SOL     OW72101   3.542   9.741   1.230  0.9527 -0.3185 -0.4921
23365SOL    HW172102   3.582   9.715   1.147  2.3816  0.1116  0.0496
23365SOL    HW272103   3.610   9.790   1.276  0.6061 -1.6001  1.4711
23366SOL     OW72104   6.070   9.465   8.649 -0.3737 -0.1816  0.5679
23366SOL    HW172105   6.124   9.535   8.614 -0.4389 -0.6026 -0.4136
23366SOL    HW272106   5.996   9.460   8.589 -0.5297 -0.8711  0.8086
23367SOL     OW72107   4.259   3.545   4.450  0.2353 -0.4148  0.6025
23367SOL    HW172108   4.268   3.569   4.542 -2.3233  0.3720  0.7446
23367SOL    HW272109   4.178   3.495   4.446 -1.0574  1.6062 -1.4839
23368SOL     OW72110   4.595   1.654   6.399 -0.0037 -0.7327  0.2269
23368SOL    HW172111   4.585   1.612   6.484 -1.4418 -0.6718  0.1111
23368SOL    HW272112   4.507   1.653   6.361  0.3851  0.2914 -0.7649
23369SOL     OW72113   7.309   4.733   5.446 -0.1474 -0.1232  0.0674
23369SOL    HW172114   7.266   4.729   5.360 -1.1057 -1.5787  0.5872
23369SOL    HW272115   7.236   4.735   5.508  0.5156 -1.6593  0.9320
23370SOL     OW72116   3.788   0.469   8.736 -0.4726  0.0124  0.3379
23370SOL    HW172117   3.739   0.475   8.818  1.1178  0.1434  1.3273
23370SOL    HW272118   3.782   0.556   8.697  1.2276  0.8822  1.8501
23371SOL     OW72119   8.665   8.092   9.285  0.4668 -0.0791  0.3871
23371SOL    HW172120   8.618   8.175   9.289  0.5591 -0.0555  1.0189
23371SOL    HW272121   8.717   8.090   9.365 -0.3060 -1.2137  0.8692
23372SOL     OW72122   6.717   4.257   1.466 -0.5229 -0.2491 -0.5393
23372SOL    HW172123   6.676   4.302   1.540  1.3374  1.3730 -0.4252
23372SOL    HW272124   6.763   4.325   1.419  0.1592 -1.6263 -1.9575
23373SOL     OW72125   7.279   8.148  10.929  0.0951 -0.0027  0.8737
23373SOL    HW172126   7.305   8.059  10.905 -1.1509 -0.1532 -0.0089
23373SOL    HW272127   7.314   8.203  10.858 -0.7104 -0.0316  0.4431
23374SOL     OW72128   2.186   2.240   0.946  0.7211 -0.2122  0.4098
23374SOL    HW172129   2.178   2.192   0.864  1.1103  2.2308 -1.1449
23374SOL    HW272130   2.205   2.172   1.011 -1.0512 -2.3956 -1.2074
23375SOL     OW72131   4.915   9.009   3.627  0.5711  0.0727 -0.0877
23375SOL    HW172132   4.835   8.977   3.670  0.1346  2.3121  0.9110
23375SOL    HW272133   4.972   9.033   3.700  0.6533  1.9881 -0.7428
23376SOL     OW72134   8.125   3.995   0.202 -0.5804 -0.7568 -0.1960
23376SOL    HW172135   8.063   3.946   0.148  0.3169 -1.4092 -0.6746
23376SOL    HW272136   8.209   3.983   0.158  0.0761 -0.8140  1.0295
23377SOL     OW72137   4.545   6.694   9.993  0.3246 -0.2977  0.2499
23377SOL    HW172138   4.573   6.682  10.084 -0.4955 -1.8652  0.3243
23377SOL    HW272139   4.607   6.643   9.941 -0.1512 -0.7264  0.0897
23378SOL     OW72140   5.458   3.315   6.996 -0.0403 -0.1622 -0.1779
23378SOL    HW172141   5.428   3.376   7.064  0.3750  0.6536 -0.7110
23378SOL    HW272142   5.425   3.352   6.914  3.0385  1.2799 -0.9178
23379SOL     OW72143   4.359   5.389   1.789 -0.3157  0.1873 -0.1440
23379SOL    HW172144   4.306   5.312   1.772 -1.4713  0.9178  0.0328
23379SOL    HW272145   4.445   5.367   1.755 -1.8781  0.7682 -5.3874
23380SOL     OW72146   3.831   0.628   6.643  0.2634  0.1361 -0.4840
23380SOL    HW172147   3.866   0.694   6.583  1.4194  0.2128  0.2418
23380SOL    HW272148   3.897   0.558   6.641  0.5166  0.3079  0.9648
23381SOL     OW72149   8.195   5.181  11.004  0.2383 -0.0206  0.5479
23381SOL    HW172150   8.102   5.159  11.004  0.4499 -1.0181  1.1145
23381SOL    HW272151   8.229   5.143  10.923  0.0785  0.7317  0.1207
23382SOL     OW72152   5.326   2.288   4.584  0.2831  0.2079 -0.1794
23382SOL    HW172153   5.235   2.298   4.555  0.2173  1.4020  0.3559
23382SOL    HW272154   5.325   2.212   4.642 -0.5369  0.6382  0.3877
23383SOL     OW72155   5.622   1.249   4.288  0.3768  0.1898  0.1415
23383SOL    HW172156   5.718   1.255   4.280  0.3382  2.6603  0.8904
23383SOL    HW272157   5.589   1.307   4.219 -0.4623  1.6988  1.7314
23384SOL     OW72158   4.526   8.836   0.439 -0.1547  0.0547 -0.2036
23384SOL    HW172159   4.525   8.892   0.361  1.6395  0.0920 -0.2387
23384SOL    HW272160   4.563   8.753   0.408 -1.5789 -0.7462  0.1335
23385SOL     OW72161  10.335   2.305  10.333 -0.1464 -0.9229 -0.0127
23385SOL    HW172162  10.426   2.278  10.322  0.1058 -0.2073  0.2445
23385SOL    HW272163  10.340   2.400  10.348 -1.0011 -0.6896 -1.0707
23386SOL     OW72164  10.234   7.310   7.574  0.3042  0.6148  0.0618
23386SOL    HW172165  10.195   7.379   7.627 -1.4321 -0.7953  0.7005
23386SOL    HW272166  10.193   7.318   7.488 -0.1009  0.2150  0.2163
23387SOL     OW72167   0.860   9.657   7.264 -0.1658 -0.3117 -0.2249
23387SOL    HW172168   0.793   9.721   7.290  0.5378  0.8353 -1.1050
23387SOL    HW272169   0.937   9.680   7.315 -0.2658 -1.2852  0.3864
23388SOL     OW72170   1.527   3.754  11.009 -0.3325 -0.0536 -0.1341
23388SOL    HW172171   1.549   3.689  10.942 -0.8448  0.2022 -0.5605
23388SOL    HW272172   1.581   3.830  10.988  2.0383 -1.1036  1.7471
23389SOL     OW72173   8.715   0.584   6.783  0.3197 -0.6430 -0.5414
23389SOL    HW172174   8.699   0.593   6.689 -0.3601  0.2383 -0.3528
23389SOL    HW272175   8.706   0.673   6.818  1.0980 -0.8685  0.2852
23390SOL     OW72176   2.780   7.986   3.237  0.3303 -0.4505  0.4975
23390SOL    HW172177   2.721   7.949   3.303  0.2759 -0.2135  0.5835
23390SOL    HW272178   2.776   8.081   3.252 -0.6902 -0.2749 -0.6602
23391SOL     OW72179   1.323   6.086   1.279 -0.0892 -0.1038  0.0088
23391SOL    HW172180   1.324   6.179   1.302 -0.5487  0.0908 -0.7239
23391SOL    HW272181   1.247   6.076   1.222 -0.2558 -1.0080  0.3826
23392SOL     OW72182   5.762   4.325   4.517 -0.1252 -0.0768  0.2786
23392SOL    HW172183   5.807   4.250   4.554 -0.5501 -0.3550  0.2425
23392SOL    HW272184   5.792   4.329   4.426 -2.1904 -1.9311 -0.5883
23393SOL     OW72185   1.994   7.672   6.678 -0.1378  0.2796 -0.6611
23393SOL    HW172186   1.930   7.685   6.608 -0.5625  2.5453  0.0663
23393SOL    HW272187   2.073   7.715   6.647 -0.4095  1.5398  0.3128
23394SOL     OW72188   0.746   2.190   9.119 -0.3370  0.3408 -0.0335
23394SOL    HW172189   0.732   2.119   9.056 -0.5571  0.2211  0.1458
23394SOL    HW272190   0.732   2.149   9.204 -1.1792  0.7551  0.0411
23395SOL     OW72191   0.085   1.159  10.038  0.0805 -0.3108 -0.8451
23395SOL    HW172192   0.131   1.153   9.954  0.1978 -0.9288 -0.7411
23395SOL    HW272193   0.014   1.095  10.030  0.1867 -0.4834 -0.4130
23396SOL     OW72194   0.647   6.035   4.645 -0.1999 -0.2635 -0.1237
23396SOL    HW172195   0.704   5.958   4.641 -0.7873 -0.7743  0.8100
23396SOL    HW272196   0.600   6.024   4.728 -1.0880  0.5433 -0.5158
23397SOL     OW72197   4.283   9.699   5.280  0.3303 -0.0019  0.1179
23397SOL    HW172198   4.336   9.716   5.203 -1.1269 -0.0607 -0.9421
23397SOL    HW272199   4.346   9.683   5.350  1.6820  0.0146 -1.0619
23398SOL     OW72200   1.083   5.277   6.130 -0.0713 -0.4423  0.1116
23398SOL    HW172201   1.054   5.318   6.049 -1.0409 -0.8135  0.2563
23398SOL    HW272202   1.170   5.314   6.146  0.1367 -0.3647 -1.0889
23399SOL     OW72203   1.200   3.186   3.427  0.1615 -0.0889  0.7592
23399SOL    HW172204   1.116   3.227   3.408  0.7310  1.3426  1.1618
23399SOL    HW272205   1.242   3.176   3.342  1.1483  2.8123  0.7892
23400SOL     OW72206   8.513   6.161   1.462  0.1618  0.2375  0.0434
23400SOL    HW172207   8.546   6.220   1.529  0.9679  0.8801 -0.8715
23400SOL    HW272208   8.440   6.208   1.422  0.6543  0.5370 -0.5275
23401SOL     OW72209   9.576  10.514   6.291 -0.4013 -0.0717  0.4950
23401SOL    HW172210   9.519  10.445   6.326 -0.9706  0.7197  1.1557
23401SOL    HW272211   9.599  10.482   6.203  0.8567 -1.9640  1.4453
23402SOL     OW72212   7.089   0.024   6.702  0.0847 -0.3428 -0.0824
23402SOL    HW172213   7.008   0.011   6.751  0.2933 -0.1870  0.3067
23402SOL    HW272214   7.158  -0.003   6.762  0.5125  2.0701  0.5879
23403SOL     OW72215   3.762   9.885  10.884  0.1853  0.0557  0.6804
23403SOL    HW172216   3.685   9.891  10.941 -0.5907  0.1745 -0.3623
23403SOL    HW272217   3.768   9.970  10.841  0.5949 -0.1361  0.3504
23404SOL     OW72218   6.326   1.305   0.078  0.2046 -0.1494  0.4130
23404SOL    HW172219   6.342   1.273  -0.010  1.3045  2.4307 -0.4124
23404SOL    HW272220   6.407   1.349   0.103 -0.2667 -0.3540  2.5324
23405SOL     OW72221   0.678  10.307   4.291  0.7105  0.1754 -0.3962
23405SOL    HW172222   0.713  10.382   4.243  1.6527  1.5217  2.2022
23405SOL    HW272223   0.751  10.276   4.344 -0.4028 -0.8929  0.5767
23406SOL     OW72224   2.190   0.851   9.514 -0.1376  0.2685  0.2306
23406SOL    HW172225   2.216   0.825   9.425  1.3795 -1.2035  1.0274
23406SOL    HW272226   2.257   0.915   9.540 -0.3975  0.4630  0.4155
23407SOL     OW72227   5.003  10.597   8.457  0.1551 -0.4108  0.0618
23407SOL    HW172228   5.035  10.610   8.546 -0.5139  0.9286  0.1233
23407SOL    HW272229   4.913  10.629   8.459 -0.0035 -0.7636 -0.9985
23408SOL     OW72230   6.186   5.228   6.389 -0.7322 -0.1318 -0.2466
23408SOL    HW172231   6.181   5.179   6.471 -1.7204  1.1791  0.5197
23408SOL    HW272232   6.103   5.213   6.346 -0.8180  0.3907 -0.2758
23409SOL     OW72233   7.673   3.918   1.951 -0.3447 -0.2155 -0.0743
23409SOL    HW172234   7.642   3.868   1.876 -1.0142 -0.6141  0.4577
23409SOL    HW272235   7.764   3.891   1.962 -0.1060  0.1591 -0.9860
23410SOL     OW72236  10.875   6.287   4.655 -0.4634 -0.1763 -0.3030
23410SOL    HW172237  10.820   6.225   4.606 -0.2252 -0.5847 -0.0521
23410SOL    HW272238  10.813   6.355   4.685 -1.1911 -1.5693  1.5478
23411SOL     OW72239   7.243   7.804   4.989  0.0675  0.3128 -0.3499
23411SOL    HW172240   7.333   7.795   5.021 -0.8051  2.4560  3.1687
23411SOL    HW272241   7.190   7.760   5.055 -1.5630 -1.0815 -2.4649
23412SOL     OW72242   5.778   7.390  10.668  0.4535 -0.3149  0.4097
23412SOL    HW172243   5.710   7.456  10.684  1.3044  0.1887  2.0510
23412SOL    HW272244   5.755   7.354  10.582 -0.7279  1.2531  0.0201
23413SOL     OW72245   3.270   5.639  10.039  0.4605  0.6656 -0.4472
23413SOL    HW172246   3.356   5.611  10.009  0.3203 -1.3011  0.8519
23413SOL    HW272247   3.269   5.619  10.132 -2.5645 -2.6512 -0.9783
23414SOL     OW72248   0.563   8.795   5.790 -0.2671  0.0858  0.1676
23414SOL    HW172249   0.606   8.727   5.842 -0.9289 -0.3260  0.1898
23414SOL    HW272250   0.504   8.748   5.732 -0.8894  0.6554  0.3277
23415SOL     OW72251  10.269   9.114  10.400 -0.4830 -0.2446 -0.1732
23415SOL    HW172252  10.333   9.093  10.469  1.9984  1.8846 -1.6237
23415SOL    HW272253  10.207   9.173  10.442  0.1845 -0.0615  0.5867
23416SOL     OW72254   5.423   2.160  10.885 -0.0162 -0.5148  0.4029
23416SOL    HW172255   5.442   2.135  10.975  2.9150  0.3253  0.1302
23416SOL    HW272256   5.496   2.124  10.834 -1.3075 -0.5034 -1.5598
23417SOL     OW72257   5.809   4.168   8.851 -0.3454  0.5633  0.2010
23417SOL    HW172258   5.833   4.257   8.877 -0.2130  0.4698  0.4039
23417SOL    HW272259   5.864   4.149   8.775  0.4326  0.2428  0.8408
23418SOL     OW72260  10.469   9.255   3.527 -0.0007  0.2121  0.1745
23418SOL    HW172261  10.417   9.226   3.451  1.7320 -1.4676 -0.4695
23418SOL    HW272262  10.487   9.174   3.575 -0.9152  1.2367  2.3190
23419SOL     OW72263   3.320   8.817   5.407 -0.3471  0.2576  0.2342
23419SOL    HW172264   3.310   8.749   5.342 -0.2168 -0.1685  0.6545
23419SOL    HW272265   3.261   8.792   5.478 -0.8269  0.9548  0.0938
23420SOL     OW72266   8.153   0.989   2.904  0.8759  0.2436  0.4173
23420SOL    HW172267   8.155   0.959   2.813  1.0261 -1.3966  0.9365
23420SOL    HW272268   8.236   1.036   2.915  0.1405  1.8957 -0.7271
23421SOL     OW72269   8.781   4.709   4.492  0.0751  0.5613  0.3159
23421SOL    HW172270   8.779   4.613   4.500 -1.7174  0.4025 -1.2587
23421SOL    HW272271   8.690   4.732   4.472  0.9470  2.3083 -2.0389
23422SOL     OW72272   5.737   1.921   9.084  0.0626 -0.1596  0.4262
23422SOL    HW172273   5.728   1.992   9.020  0.7659 -0.2755  0.1880
23422SOL    HW272274   5.678   1.852   9.052  1.1013 -0.5884 -0.6370
23423SOL     OW72275   8.277   4.933  10.423 -0.0198 -0.1259  0.6345
23423SOL    HW172276   8.212   4.963  10.487 -0.6878 -0.1541 -0.0208
23423SOL    HW272277   8.355   4.914  10.476 -0.0027  1.4558  1.2379
23424SOL     OW72278   3.021   4.215   7.177  0.2001 -0.6156  0.4637
23424SOL    HW172279   2.928   4.199   7.163  0.2765 -1.5657  0.9279
23424SOL    HW272280   3.031   4.221   7.272  0.9345 -2.9376  0.6052
23425SOL     OW72281   2.655   7.457   5.986 -0.0799 -0.1837  0.3728
23425SOL    HW172282   2.748   7.449   6.005 -0.0095  1.4707  0.8859
23425SOL    HW272283   2.644   7.413   5.901  1.5970  1.4368 -0.7661
23426SOL     OW72284   0.645   7.951   5.320 -0.2423 -0.3955  0.8976
23426SOL    HW172285   0.650   7.880   5.384  0.0890 -1.4923 -0.3233
23426SOL    HW272286   0.586   7.918   5.252  1.2227 -0.1971 -0.5210
23427SOL     OW72287   5.993   1.940  10.964 -0.1012  0.2447 -0.2330
23427SOL    HW172288   6.040   1.865  11.001  0.2770  1.1894  1.2880
23427SOL    HW272289   6.058   2.011  10.963 -0.2835  0.4334 -2.1931
23428SOL     OW72290   6.153   7.257  10.919  0.0674  0.5324 -0.0803
23428SOL    HW172291   6.068   7.240  10.879  1.1422 -2.4029 -1.4227
23428SOL    HW272292   6.193   7.324  10.863 -0.7114  0.7169 -0.4213
23429SOL     OW72293   2.151   0.346  10.886  0.4438  0.2187 -0.3190
23429SOL    HW172294   2.201   0.327  10.965  0.8809 -0.4792 -0.7531
23429SOL    HW272295   2.176   0.277  10.825 -0.0592  0.6213 -0.9903
23430SOL     OW72296   9.105   7.282   4.561 -0.1383  0.5194 -0.2199
23430SOL    HW172297   9.118   7.187   4.556 -2.1183  0.0934  1.2419
23430SOL    HW272298   9.181   7.319   4.518  1.5812 -1.6979  0.7063
23431SOL     OW72299   0.671  10.715   1.669  0.3737 -0.5305  0.1733
23431SOL    HW172300   0.739  10.711   1.602 -1.1023  0.2526 -1.4392
23431SOL    HW272301   0.589  10.714   1.620 -0.8030 -1.1187  2.0446
23432SOL     OW72302   6.143   0.104   9.302 -0.0856  0.0787  0.3018
23432SOL    HW172303   6.238   0.102   9.316  0.1227 -2.0131 -0.9205
23432SOL    HW272304   6.130   0.053   9.222 -2.1598  1.4073 -0.2983
23433SOL     OW72305  10.854   9.752   1.821  0.1129 -0.1989  0.2037
23433SOL    HW172306  10.772   9.794   1.847  0.5272  0.6856  0.1226
23433SOL    HW272307  10.894   9.725   1.904 -0.0539 -0.2483  0.2695
23434SOL     OW72308   0.805   2.481   7.370  0.0851 -0.7909  0.4830
23434SOL    HW172309   0.785   2.403   7.422 -0.2559 -1.7056 -0.9678
23434SOL    HW272310   0.836   2.447   7.286  1.4036  0.6410  0.3356
23435SOL     OW72311   1.194  10.127   5.896 -0.1503 -0.0634  0.0052
23435SOL    HW172312   1.185  10.183   5.818 -0.9603  0.6819  0.6181
23435SOL    HW272313   1.286  10.136   5.921  0.1812 -0.5032 -0.9969
23436SOL     OW72314   7.662   9.291   2.600  0.3903  0.3230  0.0175
23436SOL    HW172315   7.626   9.239   2.528  0.5475 -0.3135  0.3886
23436SOL    HW272316   7.751   9.312   2.572  1.6982 -2.7750  1.3770
23437SOL     OW72317  10.816   0.453  11.016 -0.2112  0.4191 -0.1221
23437SOL    HW172318  10.785   0.543  11.021 -0.1023  0.4648 -0.2570
23437SOL    HW272319  10.887   0.455  10.951  0.2450  0.3643  0.3625
23438SOL     OW72320   4.596  10.074   6.302 -0.0862  0.5925  0.5211
23438SOL    HW172321   4.616  10.140   6.368 -1.7876 -0.6010  2.3658
23438SOL    HW272322   4.584   9.993   6.352  1.6641 -1.1315 -1.6180
23439SOL     OW72323   2.198   0.047   6.113  0.0561  0.0705 -0.1782
23439SOL    HW172324   2.197   0.085   6.025  2.5857  2.2822  0.6521
23439SOL    HW272325   2.287   0.014   6.124  0.1180  0.8006  1.9174
23440SOL     OW72326   6.831   8.759   4.191 -0.2869  0.1110 -0.1517
23440SOL    HW172327   6.872   8.674   4.176 -1.1403 -0.4561  0.6057
23440SOL    HW272328   6.751   8.739   4.239 -0.1318  1.3984  0.7225
23441SOL     OW72329   6.953   8.974   2.094 -0.3591  0.0853 -0.1467
23441SOL    HW172330   6.897   8.905   2.129  0.3410 -0.0144  0.8044
23441SOL    HW272331   6.985   9.021   2.171  0.4637  0.4546 -0.6919
23442SOL     OW72332   0.678   5.939   4.948  0.5626 -0.0332 -0.2948
23442SOL    HW172333   0.759   5.953   4.997  0.7369 -2.9321  0.4494
23442SOL    HW272334   0.682   5.847   4.922 -2.3675 -0.1872 -0.4750
23443SOL     OW72335   0.167   2.101  10.029 -0.7638  0.4493  0.5428
23443SOL    HW172336   0.211   2.167  10.082  0.3344 -0.6875  1.1141
23443SOL    HW272337   0.213   2.102   9.945  0.0529 -0.3594  0.9532
23444SOL     OW72338   9.686   8.218   3.817  0.2974  0.0305  0.6081
23444SOL    HW172339   9.699   8.217   3.722  0.5682 -0.5768  0.6447
23444SOL    HW272340   9.593   8.234   3.828  0.2335 -0.0723  0.2328
23445SOL     OW72341   2.288   9.628   1.176 -0.5998 -0.6039 -0.5575
23445SOL    HW172342   2.371   9.644   1.221 -1.3817 -0.3910  0.8757
23445SOL    HW272343   2.313   9.609   1.086  1.0601 -1.2243 -0.0136
23446SOL     OW72344   3.883   2.472   6.128 -0.6777  0.0668  0.1120
23446SOL    HW172345   3.840   2.553   6.101 -1.6118  0.0638  1.4509
23446SOL    HW272346   3.811   2.411   6.142 -0.0922 -0.5426  0.5132
23447SOL     OW72347   6.859   4.398   9.780  0.0855 -0.2048  0.2274
23447SOL    HW172348   6.939   4.381   9.829  0.0695 -0.8974  0.0240
23447SOL    HW272349   6.884   4.390   9.688  0.0715  0.8950  0.1227
23448SOL     OW72350   0.970   4.909   5.735  0.3430 -0.3396  0.3707
23448SOL    HW172351   1.045   4.966   5.753  1.1766 -0.9108 -1.0795
23448SOL    HW272352   0.991   4.827   5.779  0.5281 -0.4636  0.0551
23449SOL     OW72353   7.825   2.870   8.687  0.3028  0.1106  0.3891
23449SOL    HW172354   7.730   2.878   8.687  0.2539 -0.1843 -0.8565
23449SOL    HW272355   7.842   2.782   8.720  0.2941  0.9496  2.8675
23450SOL     OW72356   8.645   9.595   1.517 -0.5430 -0.0897 -0.7216
23450SOL    HW172357   8.615   9.532   1.451  0.6632 -1.3412 -0.1438
23450SOL    HW272358   8.611   9.679   1.487 -3.0164 -1.1170 -1.0317
23451SOL     OW72359  10.982   5.772   7.855  0.4181 -0.0687  0.2058
23451SOL    HW172360  10.888   5.765   7.839 -0.0535  1.0899  2.1175
23451SOL    HW272361  11.021   5.776   7.767 -1.5138  1.6569 -0.6697
23452SOL     OW72362   0.363   3.540   8.719  0.1873  0.2810  0.4403
23452SOL    HW172363   0.454   3.532   8.691  0.1112  2.7970 -0.8274
23452SOL    HW272364   0.368   3.582   8.805  0.2297  1.0587  0.0644
23453SOL     OW72365   9.002   0.115   9.816 -0.2798  0.1730 -0.0704
23453SOL    HW172366   9.082   0.159   9.847 -0.4601  0.0568  0.5898
23453SOL    HW272367   9.033   0.046   9.758  0.0834  0.3516 -0.0914
23454SOL     OW72368   7.012   2.102   1.919  0.5869  0.2805  0.0165
23454SOL    HW172369   7.031   2.171   1.982  1.6013  0.9144 -0.9591
23454SOL    HW272370   6.972   2.032   1.972 -1.1670  1.8639  0.9012
23455SOL     OW72371   7.594   5.422   4.524 -0.6182 -0.3698 -0.1127
23455SOL    HW172372   7.633   5.370   4.454  0.5996  0.2356  0.0816
23455SOL    HW272373   7.640   5.394   4.603  0.0035  0.9074  0.0078
23456SOL     OW72374   9.901   2.368   4.141 -0.7190 -0.2757 -0.3877
23456SOL    HW172375   9.950   2.300   4.188 -2.9964 -1.2573  0.7254
23456SOL    HW272376   9.949   2.379   4.059  1.2274 -1.2895  0.5352
23457SOL     OW72377   5.512   8.332   4.845 -0.1173 -0.7321 -0.3288
23457SOL    HW172378   5.431   8.292   4.814 -0.5117 -2.2621  2.3953
23457SOL    HW272379   5.485   8.419   4.877 -0.1273 -0.1320 -1.8825
23458SOL     OW72380   5.408  10.070   6.786 -0.3551 -0.8648 -0.4157
23458SOL    HW172381   5.404   9.982   6.749  0.6777 -1.2564  0.3620
23458SOL    HW272382   5.486  10.109   6.746 -1.4597  0.1814 -1.7032
23459SOL     OW72383   3.285   6.692   0.775 -0.7647 -0.0047 -0.1026
23459SOL    HW172384   3.298   6.625   0.708  1.0512  1.3274 -1.1716
23459SOL    HW272385   3.354   6.676   0.839 -1.2064 -0.0063  0.3778
23460SOL     OW72386   6.784   0.447   9.116 -0.2418 -0.0801  0.5410
23460SOL    HW172387   6.764   0.472   9.206 -1.4626 -1.9740  0.8501
23460SOL    HW272388   6.855   0.383   9.124 -3.3227 -3.7972  0.6966
23461SOL     OW72389   7.678   9.896   6.524  0.0277 -0.2371  0.7591
23461SOL    HW172390   7.594   9.876   6.483  0.6123 -1.2868  0.0319
23461SOL    HW272391   7.677   9.846   6.605  0.1533 -0.6718  0.4981
23462SOL     OW72392   9.005   7.716   8.518 -0.3214 -0.3100  0.0019
23462SOL    HW172393   9.094   7.690   8.542 -0.4710 -1.2714 -0.4405
23462SOL    HW272394   8.989   7.796   8.569  0.2453 -0.9605  1.2399
23463SOL     OW72395  11.019   8.864   2.826 -0.4220 -0.1919 -0.0816
23463SOL    HW172396  11.064   8.805   2.885 -0.7399  0.2161  0.5812
23463SOL    HW272397  10.926   8.845   2.838 -0.4542 -1.2948 -1.7187
23464SOL     OW72398   8.494   9.261   2.592 -0.5304  0.5981  0.2792
23464SOL    HW172399   8.418   9.311   2.621 -1.7309 -0.5487 -0.7631
23464SOL    HW272400   8.514   9.202   2.664 -1.7270 -0.2858 -0.0865
23465SOL     OW72401   8.592   9.149   0.089  0.1969  0.4979  0.3919
23465SOL    HW172402   8.501   9.163   0.061  0.2207 -0.3025 -0.1373
23465SOL    HW272403   8.635   9.233   0.073 -0.2814  0.6651 -0.0698
23466SOL     OW72404   2.038   8.227   2.260 -0.7003  0.0070  0.3157
23466SOL    HW172405   2.094   8.304   2.247 -0.0204 -0.6187 -0.5755
23466SOL    HW272406   2.036   8.215   2.355 -0.5266  0.9092  0.4439
23467SOL     OW72407   2.824   9.517   7.903 -0.5753  0.4725  0.0316
23467SOL    HW172408   2.842   9.608   7.881 -0.5213  0.5572  0.4215
23467SOL    HW272409   2.730   9.515   7.922 -0.0292  1.2257  3.5639
23468SOL     OW72410   0.678   5.561   8.594 -0.7794  0.0943 -0.4285
23468SOL    HW172411   0.701   5.504   8.520  0.1969  0.0809 -0.1293
23468SOL    HW272412   0.758   5.566   8.646 -1.1860  0.8526  0.1407
23469SOL     OW72413   7.959   4.044   8.438 -0.1763 -0.3573 -0.3976
23469SOL    HW172414   7.868   4.073   8.425  0.3522  1.6246  0.0441
23469SOL    HW272415   7.952   3.971   8.500 -1.4397 -0.0246 -0.1196
23470SOL     OW72416   5.987   7.461   3.110  0.1840  0.9917  0.2789
23470SOL    HW172417   6.038   7.491   3.034 -1.3640  2.1734 -0.3475
23470SOL    HW272418   6.046   7.402   3.157  1.4955  0.9210 -1.3666
23471SOL     OW72419   9.445   8.189   4.331 -0.3628  0.0827 -0.0577
23471SOL    HW172420   9.479   8.103   4.356  0.0027  0.4106  0.6128
23471SOL    HW272421   9.360   8.194   4.375 -0.4654 -0.0037 -0.2442
23472SOL     OW72422   6.299  10.617   3.466  0.1537 -0.6633  0.2702
23472SOL    HW172423   6.361  10.603   3.394  1.5325 -0.3769  1.3684
23472SOL    HW272424   6.283  10.529   3.501 -1.1006 -0.8958 -0.8197
23473SOL     OW72425   2.688   6.396   0.686 -0.0884  0.5305 -1.1580
23473SOL    HW172426   2.636   6.476   0.680  1.2440  1.3221 -2.9690
23473SOL    HW272427   2.742   6.396   0.607  1.5952 -1.0145 -0.0877
23474SOL     OW72428   4.259   6.934   9.460 -0.0213  0.5776  0.5640
23474SOL    HW172429   4.341   6.904   9.421 -0.0341  1.8267 -0.4936
23474SOL    HW272430   4.193   6.919   9.391 -0.4999  0.5408  1.0205
23475SOL     OW72431   3.125   2.647   7.183  0.1636 -0.3539  0.0187
23475SOL    HW172432   3.123   2.621   7.275 -2.4273  0.3635  0.2471
23475SOL    HW272433   3.176   2.728   7.183  0.7941 -0.7335  0.6960
23476SOL     OW72434   2.407   9.486   7.647 -0.2658  0.3375 -0.0308
23476SOL    HW172435   2.382   9.579   7.644  0.9773  0.6851 -0.3464
23476SOL    HW272436   2.478   9.483   7.711 -2.6572 -1.0435  2.7499
23477SOL     OW72437   7.264   4.465   4.560  0.7534 -0.5701  0.6392
23477SOL    HW172438   7.255   4.549   4.606 -2.8915 -0.5185  0.1194
23477SOL    HW272439   7.279   4.489   4.469 -0.3779 -0.4257  0.4755
23478SOL     OW72440   6.695   6.490   0.197  0.0444 -0.1394  0.3665
23478SOL    HW172441   6.778   6.455   0.231 -0.1694  0.6152  1.7492
23478SOL    HW272442   6.628   6.431   0.232 -0.1534  0.4524  1.0085
23479SOL     OW72443   8.851   0.260   4.507  0.0551 -0.2350  0.1644
23479SOL    HW172444   8.882   0.315   4.578  0.4346 -0.3561  0.0922
23479SOL    HW272445   8.917   0.268   4.439  0.0041 -0.6055  0.0661
23480SOL     OW72446   3.919   5.714   3.883 -0.9274 -0.3073 -0.0965
23480SOL    HW172447   3.903   5.636   3.937 -2.4353 -0.1087 -0.2249
23480SOL    HW272448   3.840   5.723   3.830  0.9126 -1.1670 -3.2261
23481SOL     OW72449   7.431  10.155   7.814 -0.9462  0.2589  0.2043
23481SOL    HW172450   7.441  10.177   7.721 -0.8283  0.0053  0.1543
23481SOL    HW272451   7.414  10.238   7.857 -0.6342  0.4289  0.0024
23482SOL     OW72452   7.087   3.899   5.140  0.2076  0.4637  0.2339
23482SOL    HW172453   7.021   3.840   5.175  1.2319 -1.2658 -0.6358
23482SOL    HW272454   7.112   3.953   5.215 -0.5585 -0.3845  1.1374
23483SOL     OW72455   6.323   3.410   5.654 -0.0001 -0.0443 -0.8047
23483SOL    HW172456   6.393   3.471   5.677 -0.3606 -0.1047  0.5725
23483SOL    HW272457   6.365   3.345   5.597  0.5925  0.9702 -1.5567
23484SOL     OW72458   8.325  10.344   2.184  0.5612  0.2400  0.4059
23484SOL    HW172459   8.311  10.439   2.187 -1.5368 -0.0272  0.2591
23484SOL    HW272460   8.399  10.333   2.124  0.2919  1.7321 -0.2445
23485SOL     OW72461   3.062   4.716   2.760 -0.3713 -0.5663  0.0185
23485SOL    HW172462   3.150   4.699   2.794 -0.1712 -2.2879 -1.1812
23485SOL    HW272463   3.040   4.636   2.712 -1.4151  0.9171 -2.1464
23486SOL     OW72464   2.458   3.718   8.422 -0.2151  0.1628 -0.2447
23486SOL    HW172465   2.532   3.661   8.403  0.6113  0.8513  0.8187
23486SOL    HW272466   2.473   3.797   8.370 -0.3696  0.1763 -0.2713
23487SOL     OW72467  10.279   6.551   8.952 -0.0848 -0.0525  0.2141
23487SOL    HW172468  10.346   6.487   8.979 -1.7550 -2.6530 -1.3182
23487SOL    HW272469  10.199   6.499   8.943 -1.9707  2.6084  0.3265
23488SOL     OW72470   9.257   5.790   0.172 -0.0949  0.0491  0.5107
23488SOL    HW172471   9.352   5.782   0.174 -0.0293 -3.3880 -3.6515
23488SOL    HW272472   9.226   5.724   0.235  0.1553  1.1000  1.7909
23489SOL     OW72473   1.390   4.429   2.603 -0.3268  0.7038  0.4597
23489SOL    HW172474   1.447   4.353   2.597 -1.6518 -0.2666 -0.4090
23489SOL    HW272475   1.309   4.402   2.559 -1.1069  2.3548  0.7996
23490SOL     OW72476  10.780  10.658  11.038  0.4994 -0.2759  0.0208
23490SOL    HW172477  10.875  10.661  11.031  0.3878  2.5795 -1.4631
23490SOL    HW272478  10.757  10.733  11.092 -0.9699  0.0787 -1.0249
23491SOL     OW72479   8.070   5.615   6.655  0.7494 -0.1105  0.7099
23491SOL    HW172480   8.007   5.585   6.720 -0.8075 -0.3342 -0.8377
23491SOL    HW272481   8.074   5.710   6.667 -1.0635  0.1145 -0.1103
23492SOL     OW72482   0.097   9.897   7.450  0.0058 -0.1759  0.1356
23492SOL    HW172483   0.036   9.923   7.381 -0.5274 -0.4894  0.4734
23492SOL    HW272484   0.169   9.853   7.405  0.1551  0.5039 -0.2999
23493SOL     OW72485   3.543   5.815   5.509  0.2342  0.2369 -0.1885
23493SOL    HW172486   3.503   5.772   5.433 -1.1667  0.5305  0.3617
23493SOL    HW272487   3.471   5.863   5.551  0.8769 -0.2687  1.5832
23494SOL     OW72488   5.014   0.980   8.120 -0.2262 -0.1424 -0.1971
23494SOL    HW172489   5.094   0.949   8.163  0.0216  0.8250  0.0568
23494SOL    HW272490   5.045   1.037   8.050 -0.6227 -1.6556 -1.6659
23495SOL     OW72491   4.090   6.330   2.957 -0.2443 -0.9235 -0.2532
23495SOL    HW172492   4.154   6.319   2.887 -1.4000 -0.6306 -1.3871
23495SOL    HW272493   4.029   6.258   2.945 -0.2863 -1.0486  0.6565
23496SOL     OW72494  10.180   0.578   3.626  0.1120 -0.3089  0.4390
23496SOL    HW172495  10.183   0.583   3.722 -0.1800 -1.6744  0.5334
23496SOL    HW272496  10.237   0.650   3.597  1.2201 -0.6548  1.6446
23497SOL     OW72497  10.595   9.487   9.866  0.3858 -0.2916  0.1501
23497SOL    HW172498  10.564   9.413   9.813  1.4851 -0.7122  0.0798
23497SOL    HW272499  10.601   9.560   9.803  1.5932 -0.7634 -0.3159
23498SOL     OW72500   9.956   0.678   5.679  0.1259 -0.1908 -0.0944
23498SOL    HW172501   9.959   0.712   5.589  1.0081  0.1165  0.0439
23498SOL    HW272502   9.884   0.614   5.678  1.0499 -1.2649 -1.4002
23499SOL     OW72503   6.489  10.945   0.889  0.1852 -0.0856 -0.0522
23499SOL    HW172504   6.403  10.984   0.902  0.0349 -0.4285 -0.0188
23499SOL    HW272505   6.527  10.941   0.977 -0.7202 -2.1496  0.2909
23500SOL     OW72506   5.510  10.736   8.194  0.4588 -0.4546 -0.6873
23500SOL    HW172507   5.539  10.649   8.222 -0.6193 -0.9064 -0.9211
23500SOL    HW272508   5.515  10.734   8.099  0.7189 -0.1589 -0.6792
23501SOL     OW72509   2.574   1.617   6.627 -0.1648  0.0485 -0.3332
23501SOL    HW172510   2.651   1.610   6.570  1.2761  2.2128  1.1706
23501SOL    HW272511   2.510   1.557   6.589  2.0799 -1.4877 -1.9323
23502SOL     OW72512   0.309   1.424  10.572 -0.1847 -0.5751  0.2220
23502SOL    HW172513   0.371   1.364  10.530 -2.0002 -1.8694 -0.7618
23502SOL    HW272514   0.337   1.511  10.543 -0.2868 -1.2939 -2.3409
23503SOL     OW72515   4.562   5.589   7.915 -0.2983  0.1662  0.5881
23503SOL    HW172516   4.486   5.575   7.859  0.5436  1.3997 -0.9600
23503SOL    HW272517   4.637   5.563   7.860  0.4646 -0.0115  1.6862
23504SOL     OW72518   7.931   3.029   1.255 -0.2334 -0.6475 -1.0549
23504SOL    HW172519   7.994   3.067   1.195 -0.2897 -0.2244 -0.8437
23504SOL    HW272520   7.864   3.096   1.266  1.1482  0.3876  1.6328
23505SOL     OW72521   8.223   2.006   2.655  0.0968  0.4507  0.3320
23505SOL    HW172522   8.148   1.956   2.623  0.5693  2.1846 -4.2569
23505SOL    HW272523   8.195   2.097   2.649  2.2153  1.0925 -0.5190
23506SOL     OW72524   1.631   1.007   7.481  0.1473  0.2248 -0.4914
23506SOL    HW172525   1.639   1.015   7.386 -2.9776 -0.4031 -0.9047
23506SOL    HW272526   1.559   1.064   7.505  1.6545  1.3662  1.7696
23507SOL     OW72527   6.312   5.642   5.593 -0.7520 -0.0261  0.0642
23507SOL    HW172528   6.226   5.669   5.625 -0.5352 -0.6129  1.1794
23507SOL    HW272529   6.335   5.566   5.646 -0.0660 -0.6179 -1.0336
23508SOL     OW72530   8.311   0.261   5.575 -0.0048 -0.1954 -0.1714
23508SOL    HW172531   8.335   0.173   5.544 -1.2293 -0.4837 -0.3188
23508SOL    HW272532   8.307   0.314   5.496 -1.1835 -0.4738 -0.3158
23509SOL     OW72533   4.550   7.064   7.123  0.4219  0.4101  0.0779
23509SOL    HW172534   4.535   7.134   7.187 -0.0367 -0.9515  1.5161
23509SOL    HW272535   4.502   6.989   7.157 -1.4890  0.1171 -2.8645
23510SOL     OW72536   3.369   6.384   4.086  0.1480  0.2365 -0.0924
23510SOL    HW172537   3.344   6.458   4.142 -0.0619 -0.4574  0.7479
23510SOL    HW272538   3.342   6.306   4.135 -3.3726 -0.4192 -2.6561
23511SOL     OW72539  10.755   6.885   4.387 -0.2542  0.4660 -0.0528
23511SOL    HW172540  10.756   6.978   4.364 -1.7645  0.6331  0.4365
23511SOL    HW272541  10.681   6.876   4.448  0.2947 -0.9341  0.4519
23512SOL     OW72542   0.291   9.444   7.699 -0.2084  0.2160 -0.2877
23512SOL    HW172543   0.222   9.510   7.697 -0.9290 -0.5528 -1.1984
23512SOL    HW272544   0.372   9.494   7.681 -0.4163  1.1987  1.2620
23513SOL     OW72545   4.067   3.000   6.894 -0.2932  0.0278 -0.0215
23513SOL    HW172546   4.035   2.992   6.804  0.8050 -0.0591 -0.4184
23513SOL    HW272547   4.156   3.034   6.885 -0.2977  0.3645  1.0557
23514SOL     OW72548   1.045  10.454   9.351 -0.2373 -0.3659  0.1944
23514SOL    HW172549   1.100  10.382   9.383  0.2580  0.1036  0.4106
23514SOL    HW272550   0.957  10.418   9.351  0.0700 -1.1381 -0.1707
23515SOL     OW72551   9.856   8.080   3.229 -0.3288  0.5711  0.4157
23515SOL    HW172552   9.908   8.030   3.292 -1.5156 -2.0628 -0.5774
23515SOL    HW272553   9.765   8.061   3.253 -0.8107  1.4557 -0.6482
23516SOL     OW72554   5.444   7.182   8.103 -0.1234 -0.1814  0.2997
23516SOL    HW172555   5.443   7.157   8.011  2.4129 -0.2726  0.2427
23516SOL    HW272556   5.354   7.212   8.120 -1.5839 -3.1023 -1.3171
23517SOL     OW72557   5.920   2.125   5.851  0.0111  0.4023  0.2047
23517SOL    HW172558   5.896   2.073   5.927 -1.8489  0.7534 -0.1034
23517SOL    HW272559   5.940   2.061   5.782  1.9132  0.0800  0.9901
23518SOL     OW72560   6.067   7.097   0.082 -0.7133 -0.7945  0.0391
23518SOL    HW172561   6.116   7.129   0.006 -0.3982 -1.6558 -0.1361
23518SOL    HW272562   6.010   7.170   0.106 -0.9903 -0.5868 -1.1714
23519SOL     OW72563   7.053   4.658  10.783 -0.3940 -0.0272 -0.2453
23519SOL    HW172564   7.013   4.572  10.796 -0.7024  0.3033  1.0629
23519SOL    HW272565   7.024   4.684  10.695 -0.6896 -1.0394 -0.4648
23520SOL     OW72566   8.283   9.458   6.002 -0.7862 -0.1145 -0.7045
23520SOL    HW172567   8.196   9.456   5.962 -1.8534 -1.7799  1.4871
23520SOL    HW272568   8.283   9.540   6.052 -1.0329 -0.0357 -0.8283
23521SOL     OW72569   1.133   3.094   8.156  0.2969  0.4238  0.0575
23521SOL    HW172570   1.101   3.098   8.066 -1.0810  0.6536  0.5447
23521SOL    HW272571   1.172   3.007   8.164  0.3026  0.3477 -0.7131
23522SOL     OW72572  10.850   4.380   3.976 -0.6383  0.1607  0.1373
23522SOL    HW172573  10.817   4.413   4.060  0.4317 -1.5527  1.2965
23522SOL    HW272574  10.943   4.364   3.992 -0.9398 -2.7453 -0.4751
23523SOL     OW72575   1.456   4.273   2.175 -0.2766  0.3257  0.3140
23523SOL    HW172576   1.473   4.278   2.269  0.7226 -0.3442  0.1828
23523SOL    HW272577   1.542   4.283   2.134 -0.4895 -0.8648 -0.4729
23524SOL     OW72578   8.583   5.050   8.149 -0.3522 -0.6606 -0.6647
23524SOL    HW172579   8.536   4.969   8.130  0.8101 -1.1331 -1.6869
23524SOL    HW272580   8.640   5.062   8.073  1.0820 -0.0546  0.4782
23525SOL     OW72581   1.215   4.006   5.771  0.1847 -0.2278  0.1424
23525SOL    HW172582   1.186   3.981   5.858  2.3134  0.3136  1.0661
23525SOL    HW272583   1.173   3.942   5.713 -0.5655 -1.1532  1.6396
23526SOL     OW72584   5.612   0.069   1.212 -0.3182 -0.2260 -0.1802
23526SOL    HW172585   5.692   0.098   1.254 -1.6805  4.7131 -0.3830
23526SOL    HW272586   5.554   0.043   1.284  0.0148  0.4850  0.3531
23527SOL     OW72587   9.438   7.743   8.422 -0.2977 -0.5804  0.7267
23527SOL    HW172588   9.376   7.708   8.486 -0.9156  0.3241  0.6433
23527SOL    HW272589   9.426   7.838   8.427 -0.4757 -0.5021 -0.8302
23528SOL     OW72590  10.689   3.404  10.213  0.3690 -0.0811 -0.1680
23528SOL    HW172591  10.700   3.444  10.299  0.6793 -0.8786  0.1758
23528SOL    HW272592  10.662   3.314  10.232  1.4328 -0.5647 -0.8807
23529SOL     OW72593   9.082   6.640   8.914  0.6955 -0.3523 -0.0379
23529SOL    HW172594   9.083   6.733   8.936  0.7495 -0.8439  2.3418
23529SOL    HW272595   8.989   6.619   8.907  0.5957 -0.4804  1.3607
23530SOL     OW72596  10.312   2.629   7.425  0.1423 -0.1732  1.0217
23530SOL    HW172597  10.307   2.542   7.385  0.9558 -0.8100  2.2703
23530SOL    HW272598  10.323   2.688   7.350  1.4920 -1.3182  0.2526
23531SOL     OW72599   0.312   7.676   1.160  0.0479 -0.4813 -0.3899
23531SOL    HW172600   0.327   7.618   1.235 -1.4275 -1.2487 -0.6487
23531SOL    HW272601   0.326   7.764   1.194 -0.9133 -0.7904  0.8945
23532SOL     OW72602   8.798   1.780   4.464  0.2527 -0.9101  0.0168
23532SOL    HW172603   8.800   1.875   4.470  1.4847 -0.7614 -1.8721
23532SOL    HW272604   8.794   1.761   4.370 -0.1586 -2.7331  0.3504
23533SOL     OW72605   9.529   5.571   9.406 -0.5654 -0.4773 -0.2046
23533SOL    HW172606   9.507   5.615   9.488 -1.3512 -1.2230 -0.0026
23533SOL    HW272607   9.614   5.607   9.382  1.5563 -2.8990  2.8856
23534SOL     OW72608   1.611   6.506   7.874 -0.4344  0.2412 -0.3939
23534SOL    HW172609   1.691   6.522   7.823  0.5921 -0.8045  0.8179
23534SOL    HW272610   1.642   6.496   7.964 -1.7391 -1.7322 -0.1034
23535SOL     OW72611   1.701   0.204   8.484  0.1868  0.0176  0.4238
23535SOL    HW172612   1.776   0.256   8.510  0.2083  0.8674 -1.2366
23535SOL    HW272613   1.631   0.267   8.467  0.3266 -0.3670 -2.0230
23536SOL     OW72614   6.981   8.063   1.868  0.0086 -0.4270  0.3628
23536SOL    HW172615   7.034   8.143   1.864 -0.4196 -0.1679 -0.1595
23536SOL    HW272616   6.933   8.070   1.950 -0.3639  0.0726  0.1092
23537SOL     OW72617  10.540   9.130   8.880  0.2335 -0.0057  0.3266
23537SOL    HW172618  10.635   9.143   8.882  0.4840 -1.6142  1.0503
23537SOL    HW272619  10.510   9.181   8.806  1.8612 -0.5180 -0.7553
23538SOL     OW72620   8.545   6.779   2.345  0.5094 -0.0051  0.0694
23538SOL    HW172621   8.589   6.701   2.312  1.1566  0.5495 -0.3926
23538SOL    HW272622   8.579   6.851   2.292 -0.0627  0.6006  0.5017
23539SOL     OW72623   8.852   0.119   1.045  0.4440 -0.8024 -0.1553
23539SOL    HW172624   8.853   0.028   1.015 -2.5363 -1.5646  1.5906
23539SOL    HW272625   8.904   0.118   1.125 -1.4718 -1.6015  1.1477
23540SOL     OW72626   9.096   1.767   9.277 -0.2009  0.3905  0.5675
23540SOL    HW172627   9.135   1.683   9.254  0.0125  1.2304 -2.6630
23540SOL    HW272628   9.009   1.765   9.236  0.4650  2.3029 -1.1549
23541SOL     OW72629   0.845  10.531  10.485  0.7929  0.2573 -0.5089
23541SOL    HW172630   0.766  10.572  10.449  0.2532  0.1803  0.5506
23541SOL    HW272631   0.829  10.525  10.579  2.0993  0.2936 -0.2629
23542SOL     OW72632   1.072   7.497   6.848 -0.4671 -0.6117  0.1964
23542SOL    HW172633   1.052   7.451   6.767  0.8829  1.0994 -1.1927
23542SOL    HW272634   1.167   7.498   6.853 -0.3391  2.4906 -0.2689
23543SOL     OW72635   7.198   8.862   0.859  0.0943  0.0444 -0.4070
23543SOL    HW172636   7.131   8.819   0.806  0.2628 -0.3572 -0.2970
23543SOL    HW272637   7.186   8.825   0.946  0.2868  0.1756 -0.3246
23544SOL     OW72638   1.985  10.792   5.645  0.7933 -0.0017  0.2876
23544SOL    HW172639   2.030  10.731   5.704  2.1231 -0.4132 -1.1099
23544SOL    HW272640   2.054  10.829   5.592 -0.2804  1.0782 -0.3923
23545SOL     OW72641   4.851   2.650  10.847  0.2365  0.0931 -0.2735
23545SOL    HW172642   4.893   2.631  10.931  0.1645  2.3237  0.3206
23545SOL    HW272643   4.913   2.706  10.801 -0.3915  0.1603 -1.0573
23546SOL     OW72644   9.711   9.865  10.600  0.0225 -0.4583  0.0346
23546SOL    HW172645   9.724   9.810  10.523 -0.4528 -1.1486  0.4337
23546SOL    HW272646   9.629   9.912  10.582  0.7749  0.6650 -0.6053
23547SOL     OW72647   6.927  10.230   0.122 -0.0110  0.5807  0.6963
23547SOL    HW172648   6.864  10.296   0.094  1.0807  1.2857 -0.1788
23547SOL    HW272649   6.983  10.275   0.185  0.7558  0.5222  0.0737
23548SOL     OW72650   2.278   7.754   5.692  0.1844  0.5043 -0.3254
23548SOL    HW172651   2.296   7.841   5.728 -0.0528 -0.2669  1.7853
23548SOL    HW272652   2.347   7.698   5.727 -0.6063 -0.4946 -0.3047
23549SOL     OW72653   0.075   1.243   2.831  0.2020 -0.3401 -0.0116
23549SOL    HW172654  -0.018   1.242   2.851 -0.3053  2.2614 -1.6938
23549SOL    HW272655   0.117   1.206   2.908 -2.1355 -0.2531  1.3983
23550SOL     OW72656   6.336   3.916   9.603  0.0091  0.1579  0.2227
23550SOL    HW172657   6.379   3.963   9.532  0.8708 -2.5946 -1.2406
23550SOL    HW272658   6.245   3.909   9.576 -0.8017  3.0920  1.7354
23551SOL     OW72659   5.435   4.331   1.009  0.1736 -0.0248 -0.1618
23551SOL    HW172660   5.400   4.292   1.089 -0.4091 -0.9730 -0.8610
23551SOL    HW272661   5.528   4.307   1.009 -0.2562 -1.8574 -0.7910
23552SOL     OW72662   4.229   8.095   4.885 -0.2726  0.8068  0.1459
23552SOL    HW172663   4.202   8.007   4.858  0.7602  0.4132  0.3430
23552SOL    HW272664   4.183   8.154   4.825 -0.2969  0.0878 -0.5602
23553SOL     OW72665   8.394   5.045   4.430 -0.0771 -0.3756 -0.5160
23553SOL    HW172666   8.347   4.992   4.365 -0.1351 -0.1904 -0.6285
23553SOL    HW272667   8.483   5.011   4.429  0.2593  0.4480 -1.6282
23554SOL     OW72668   6.198   6.804   4.017 -0.2108  0.3438  0.1754
23554SOL    HW172669   6.111   6.830   3.989  0.2617  1.9499  0.1023
23554SOL    HW272670   6.243   6.886   4.037  1.5329 -0.3865 -0.4960
23555SOL     OW72671   6.046   9.225   2.189 -0.0240 -0.1866 -0.0606
23555SOL    HW172672   6.125   9.200   2.140  0.1789 -0.2687  0.3113
23555SOL    HW272673   5.990   9.266   2.123  1.3911  2.2661  0.1695
23556SOL     OW72674   0.688   0.548   7.145  0.1643  0.4560  0.3848
23556SOL    HW172675   0.724   0.485   7.083 -0.5669  1.1793 -0.8068
23556SOL    HW272676   0.755   0.616   7.152  0.3342  0.2734  0.5660
23557SOL     OW72677   6.880   1.860   7.260  0.2961  0.2471  0.2665
23557SOL    HW172678   6.887   1.776   7.306 -0.1043  0.2232  0.2877
23557SOL    HW272679   6.924   1.923   7.317 -1.0300  0.4013  1.1526
23558SOL     OW72680   5.730   5.064   3.451  0.5159  0.4474  0.4226
23558SOL    HW172681   5.683   5.121   3.512 -0.6319  0.8157 -0.7511
23558SOL    HW272682   5.810   5.112   3.430  1.1468  0.1207  1.9317
23559SOL     OW72683  10.197   5.048   5.902 -0.0203  0.0695  0.2468
23559SOL    HW172684  10.120   4.998   5.874 -0.0470  0.0472  0.3566
23559SOL    HW272685  10.256   5.045   5.827  0.5108 -1.2080  0.6871
23560SOL     OW72686   1.607   8.473   3.432  0.4356  0.6400 -0.0414
23560SOL    HW172687   1.558   8.425   3.365 -0.5988 -0.0971  1.2122
23560SOL    HW272688   1.672   8.523   3.382  1.6103 -2.0479 -1.4311
23561SOL     OW72689   2.994   5.985   3.795 -0.0516 -0.1484  0.4872
23561SOL    HW172690   3.064   6.039   3.758 -0.7266  0.4416  0.0386
23561SOL    HW272691   2.919   6.002   3.738 -0.1602 -1.9369  0.0558
23562SOL     OW72692   7.255   0.997   0.174 -0.3011 -0.3315 -0.4314
23562SOL    HW172693   7.268   1.075   0.228  0.3338 -0.1619 -0.8249
23562SOL    HW272694   7.286   1.022   0.087 -0.1342 -1.0125 -0.5733
23563SOL     OW72695   1.102   7.503   3.406 -0.3932  0.3515  0.0335
23563SOL    HW172696   1.097   7.598   3.405  3.3327  0.7333  1.3231
23563SOL    HW272697   1.115   7.480   3.499  0.8805 -1.2022 -0.4811
23564SOL     OW72698   2.108   4.328   5.467 -0.6092 -0.1444 -0.3083
23564SOL    HW172699   2.104   4.414   5.509  0.2752 -0.0605 -0.3606
23564SOL    HW272700   2.019   4.312   5.436 -0.2667  2.0342 -2.8008
23565SOL     OW72701   4.808  10.228   7.164 -0.4777  0.1920 -0.4153
23565SOL    HW172702   4.864  10.168   7.214 -0.0506  0.7014 -0.2622
23565SOL    HW272703   4.723  10.185   7.161 -0.2348 -0.3237 -0.1336
23566SOL     OW72704   5.219   2.693   0.740 -0.0298  0.4097 -0.1134
23566SOL    HW172705   5.178   2.770   0.781 -0.7677  1.2215 -2.2233
23566SOL    HW272706   5.285   2.665   0.802  0.5072  2.9880  0.5920
23567SOL     OW72707   8.935   9.304   1.594 -0.1063  0.3364 -0.2315
23567SOL    HW172708   8.971   9.386   1.628  2.5365 -0.6583 -0.4145
23567SOL    HW272709   8.951   9.240   1.663  0.5470 -0.6095 -1.2192
23568SOL     OW72710   2.356   2.458   8.276 -0.3457  0.0326  0.6149
23568SOL    HW172711   2.266   2.490   8.266  0.4095  1.6725 -1.6298
23568SOL    HW272712   2.369   2.400   8.201  1.6344  2.9462 -1.4947
23569SOL     OW72713   6.065   7.489   0.035 -0.1327 -0.1811  0.6174
23569SOL    HW172714   6.118   7.410   0.024 -0.3469 -0.2624  0.1443
23569SOL    HW272715   6.110   7.556  -0.016  0.8417  0.3998  2.1590
23570SOL     OW72716   0.783   6.228   9.227  0.1692 -0.6230 -0.3536
23570SOL    HW172717   0.827   6.173   9.162  0.2003 -0.8705 -0.1209
23570SOL    HW272718   0.718   6.277   9.177  0.7971 -0.1588 -0.7270
23571SOL     OW72719   4.980   8.784   2.460  0.5733 -0.6900 -0.4605
23571SOL    HW172720   4.971   8.745   2.547 -0.9217  0.8682  0.1361
23571SOL    HW272721   4.890   8.792   2.428  1.0580 -0.4892 -1.8116
23572SOL     OW72722   5.854   6.810   5.426  0.4004 -0.2202 -0.2302
23572SOL    HW172723   5.793   6.836   5.357  0.9359 -1.2789 -1.1468
23572SOL    HW272724   5.806   6.823   5.508 -1.0421 -0.9548 -0.9192
23573SOL     OW72725   5.793   2.522   9.132 -0.8702  0.6280  0.4395
23573SOL    HW172726   5.761   2.438   9.166  1.3063  0.7967  3.2998
23573SOL    HW272727   5.758   2.587   9.192  0.2357  1.3614  0.3285
23574SOL     OW72728   6.197   5.196   5.017 -0.6479 -0.7742 -0.2300
23574SOL    HW172729   6.117   5.158   5.054  0.8354 -0.9504  3.2010
23574SOL    HW272730   6.167   5.252   4.946 -3.7869 -1.0093  0.7797
23575SOL     OW72731   4.761   2.302   1.572 -0.4736 -0.1978  0.1930
23575SOL    HW172732   4.801   2.344   1.648 -0.5770 -0.2581  0.2806
23575SOL    HW272733   4.730   2.218   1.605 -1.9826  0.4525  0.4739
23576SOL     OW72734   0.649   1.700   7.493  0.0433  0.2460  0.4275
23576SOL    HW172735   0.681   1.610   7.489  1.8432  0.8863 -1.0399
23576SOL    HW272736   0.648   1.721   7.586  0.3749 -1.0128  0.7364
23577SOL     OW72737   0.908   2.984   5.691  0.4403 -0.1640 -0.4270
23577SOL    HW172738   0.903   2.890   5.709  0.7064 -0.0529  0.2531
23577SOL    HW272739   0.988   2.994   5.639  0.3945 -0.3106 -0.5283
23578SOL     OW72740   1.919   4.995   5.024 -0.3672 -0.4170  0.1315
23578SOL    HW172741   1.988   4.994   5.090 -0.0340 -1.5406 -0.2057
23578SOL    HW272742   1.965   4.985   4.941 -0.9184 -0.9871 -0.1130
23579SOL     OW72743   3.557  10.367   4.014  0.2609  0.4139  0.4930
23579SOL    HW172744   3.476  10.336   3.973 -0.3598  1.1124  1.1693
23579SOL    HW272745   3.610  10.398   3.941 -0.7511  1.4531  0.1827
23580SOL     OW72746   3.778   2.190   5.863  0.1050 -0.0614 -0.4150
23580SOL    HW172747   3.708   2.224   5.807 -1.7459  2.6317  3.1412
23580SOL    HW272748   3.737   2.120   5.914  1.2671 -1.2747 -1.0710
23581SOL     OW72749   9.638   5.909   5.193 -0.2378  0.3457 -0.0283
23581SOL    HW172750   9.646   5.815   5.177  1.8581  0.5270 -0.2964
23581SOL    HW272751   9.645   5.949   5.106  1.1322  0.8263  0.2703
23582SOL     OW72752   6.307   7.004   5.066 -0.5053  0.0072 -0.4417
23582SOL    HW172753   6.277   7.020   4.977  0.9192 -0.2589 -0.9876
23582SOL    HW272754   6.398   6.976   5.057 -1.1054 -2.7527  0.8476
23583SOL     OW72755   0.381   1.887   5.478 -0.0131 -0.5183 -0.0327
23583SOL    HW172756   0.403   1.968   5.526 -1.1718  0.3528 -0.9316
23583SOL    HW272757   0.311   1.848   5.530 -0.0658 -0.4857 -0.0799
23584SOL     OW72758   0.874   7.613   3.085  0.2975 -0.1470 -0.4075
23584SOL    HW172759   0.863   7.701   3.122  0.9183  0.3062 -1.2707
23584SOL    HW272760   0.804   7.605   3.020  1.1954  0.3340 -1.4576
23585SOL     OW72761   8.375   1.249   9.027  0.1924 -0.1676 -0.0391
23585SOL    HW172762   8.425   1.207   8.957 -1.8832 -0.7098 -1.2863
23585SOL    HW272763   8.356   1.178   9.089  2.6635  0.4525  1.5877
23586SOL     OW72764   2.542   9.367   2.599  0.0440 -0.6284  0.2289
23586SOL    HW172765   2.631   9.373   2.633  0.3618 -2.0305 -0.2924
23586SOL    HW272766   2.499   9.447   2.631  1.2026 -0.3862  1.2835
23587SOL     OW72767   6.280   2.164   7.301 -0.4874 -0.4153  0.2078
23587SOL    HW172768   6.275   2.076   7.265 -0.2666  0.2922 -1.6849
23587SOL    HW272769   6.371   2.191   7.286 -0.2524 -0.2280  1.7544
23588SOL     OW72770   6.074   4.989   3.763  0.5531  0.1347  0.3050
23588SOL    HW172771   5.998   4.951   3.718 -0.3922  1.1615  0.9916
23588SOL    HW272772   6.037   5.037   3.837  1.6843  2.2352 -0.3956
23589SOL     OW72773  10.064   8.942   7.458  0.0299  0.1023  0.0900
23589SOL    HW172774   9.972   8.969   7.467 -0.1813 -0.9990  1.7104
23589SOL    HW272775  10.104   8.966   7.542  1.0527 -0.1173 -0.3221
23590SOL     OW72776   4.316   4.652   4.450 -0.1949  0.1734  0.0189
23590SOL    HW172777   4.356   4.654   4.537  0.0621  3.3777 -0.0368
23590SOL    HW272778   4.224   4.633   4.466  0.1120 -0.6723  0.8344
23591SOL     OW72779   4.842   5.188   5.926 -0.6027 -0.2378 -0.3093
23591SOL    HW172780   4.757   5.174   5.884 -0.8417  1.0175 -0.2815
23591SOL    HW272781   4.822   5.210   6.016 -0.3262  1.0701 -0.5468
23592SOL     OW72782  10.575   4.594   5.185 -0.0159 -0.1685  0.5110
23592SOL    HW172783  10.509   4.526   5.198  1.0205 -1.9285 -2.3875
23592SOL    HW272784  10.658   4.550   5.199  0.6444  1.1839  1.0036
23593SOL     OW72785   6.723   4.407   8.510  0.3593  0.3102  0.1642
23593SOL    HW172786   6.739   4.423   8.603  1.1483  0.5678 -0.0045
23593SOL    HW272787   6.629   4.422   8.498  0.1637 -0.2049  1.0116
23594SOL     OW72788   3.197   7.100  10.580 -0.4651  0.1277  0.2421
23594SOL    HW172789   3.209   7.144  10.663  2.9925  0.7978 -0.4588
23594SOL    HW272790   3.173   7.010  10.603 -1.5229  0.7899  1.8460
23595SOL     OW72791   5.953   8.964   6.487 -0.5591  0.3036  0.3076
23595SOL    HW172792   5.869   8.951   6.444 -0.1820 -0.2347 -0.2857
23595SOL    HW272793   5.957   9.058   6.505 -1.1678  0.3708  0.1052
23596SOL     OW72794   7.150   2.221   7.696  0.3425 -0.2566 -0.4548
23596SOL    HW172795   7.212   2.176   7.639  0.7878 -0.3616  0.0941
23596SOL    HW272796   7.180   2.199   7.785 -0.9364 -0.9361 -0.1794
23597SOL     OW72797   7.377   8.715   7.262  0.0103  1.0586 -0.0077
23597SOL    HW172798   7.308   8.721   7.329  1.1086  2.0014  1.1012
23597SOL    HW272799   7.369   8.627   7.227 -1.8455  1.1885 -0.0102
23598SOL     OW72800   6.490   5.081   8.117  0.6794  0.3510 -0.8944
23598SOL    HW172801   6.519   5.145   8.051  0.6701  1.0075 -0.2747
23598SOL    HW272802   6.562   5.077   8.180  0.3929  0.2544 -0.5719
23599SOL     OW72803   1.294   1.647  10.834  0.6785 -0.0416  0.0817
23599SOL    HW172804   1.243   1.623  10.911  0.3570  1.4748  0.3861
23599SOL    HW272805   1.375   1.685  10.870  0.7106  0.2901 -0.3320
23600SOL     OW72806   8.521   1.944   0.191 -0.1186  0.0830  0.1388
23600SOL    HW172807   8.563   1.967   0.109 -2.3092 -0.6727 -1.2866
23600SOL    HW272808   8.531   1.849   0.198  0.2536  0.1690  0.8768
23601SOL     OW72809   2.756   1.767   8.154  0.5474  0.4840 -0.1092
23601SOL    HW172810   2.784   1.841   8.208  2.9223  0.1215 -0.7246
23601SOL    HW272811   2.716   1.706   8.216 -0.2715  1.6763  0.6001
23602SOL     OW72812   9.164   7.759   1.490  0.6868 -0.7169  0.3712
23602SOL    HW172813   9.188   7.704   1.565  2.3780 -0.2440  0.2158
23602SOL    HW272814   9.211   7.841   1.505  0.9558 -0.5750 -1.1574
23603SOL     OW72815   7.062   8.082   2.193  0.3014 -0.2670  0.3520
23603SOL    HW172816   7.130   8.051   2.134  1.8013  2.6622  0.3570
23603SOL    HW272817   7.072   8.030   2.273  0.3101 -2.1012 -0.7904
23604SOL     OW72818   2.459   3.969   0.190  0.1689 -0.2611 -0.4584
23604SOL    HW172819   2.428   4.056   0.165 -2.4392 -1.1786 -0.7056
23604SOL    HW272820   2.419   3.952   0.275  0.6920 -1.1876 -0.3799
23605SOL     OW72821  10.927   5.385   2.223 -0.3152  0.0049  0.2496
23605SOL    HW172822  10.993   5.351   2.163  0.0872  0.4018  0.4619
23605SOL    HW272823  10.935   5.480   2.217 -0.1877  0.0481  1.0199
23606SOL     OW72824   9.980  10.154   0.307  0.8138 -0.2208  0.3032
23606SOL    HW172825  10.070  10.177   0.285  0.4570  1.5189  0.5043
23606SOL    HW272826   9.958  10.210   0.381 -0.4906 -0.5022  0.1585
23607SOL     OW72827   2.191   0.945   4.754  0.0203 -0.0870  0.3603
23607SOL    HW172828   2.228   1.032   4.766 -1.4099  0.5934  0.0588
23607SOL    HW272829   2.200   0.927   4.660  0.4663 -0.3429  0.4499
23608SOL     OW72830   8.798   8.186   9.943  0.2736  0.3081 -0.6412
23608SOL    HW172831   8.823   8.278   9.943  1.1722  0.0729 -0.3768
23608SOL    HW272832   8.710   8.185   9.981  0.4154  1.0149 -0.2768
23609SOL     OW72833   6.871   2.948   5.440  0.1521 -0.2440 -0.5344
23609SOL    HW172834   6.785   2.913   5.417 -0.7493  0.3182  1.7269
23609SOL    HW272835   6.920   2.872   5.473 -0.3061 -0.1700  0.3444
23610SOL     OW72836  10.719   9.149   1.850  0.1971  0.3492 -0.3422
23610SOL    HW172837  10.639   9.176   1.895 -0.9872  1.8920 -3.1517
23610SOL    HW272838  10.776   9.225   1.855  0.9507 -0.2496  0.4129
23611SOL     OW72839   1.550   9.213  10.202  0.4266  0.7793  0.0450
23611SOL    HW172840   1.485   9.199  10.133  0.6749  0.0023 -0.0401
23611SOL    HW272841   1.507   9.273  10.263 -0.4562  0.1277  0.0888
23612SOL     OW72842   0.649   0.503   5.796 -0.3549 -0.4579  0.3778
23612SOL    HW172843   0.713   0.540   5.856 -1.0601  1.0179  0.2489
23612SOL    HW272844   0.595   0.577   5.768  0.2047 -0.9728 -2.4113
23613SOL     OW72845   9.763   1.464   1.745 -0.1594  0.5246 -0.1997
23613SOL    HW172846   9.839   1.506   1.705  0.1887 -0.9288 -1.1338
23613SOL    HW272847   9.754   1.506   1.831  0.8826  1.6311 -0.6139
23614SOL     OW72848   7.142   9.401  10.130  0.0876 -0.0097 -0.4214
23614SOL    HW172849   7.193   9.392  10.210  1.6561 -1.6073 -1.5224
23614SOL    HW272850   7.059   9.356  10.149  0.9638 -1.5658 -0.0739
23615SOL     OW72851   0.525   9.840   6.304 -0.3099  0.6788  0.6113
23615SOL    HW172852   0.475   9.763   6.278  0.4166  0.2025  0.5843
23615SOL    HW272853   0.607   9.805   6.338  1.6840  1.5290 -2.8868
23616SOL     OW72854   0.010   5.514   7.367 -0.4252 -0.4915  0.3187
23616SOL    HW172855  -0.079   5.479   7.370 -0.8177  0.3655 -0.6090
23616SOL    HW272856   0.043   5.504   7.456 -1.3988 -0.9437  0.6408
23617SOL     OW72857   6.451   4.574   3.300 -0.2334 -0.0344 -0.2303
23617SOL    HW172858   6.382   4.511   3.279  0.4843 -1.0569  0.3793
23617SOL    HW272859   6.428   4.653   3.251 -1.9883 -0.2443  0.1883
23618SOL     OW72860   5.092   4.340   7.062 -0.0622  0.1252 -0.0776
23618SOL    HW172861   5.124   4.250   7.065 -2.2026 -0.7261 -1.3048
23618SOL    HW272862   5.124   4.379   7.144 -0.2609 -2.1590  1.1660
23619SOL     OW72863   9.175   9.211   0.176 -0.2522  0.7477 -0.9083
23619SOL    HW172864   9.099   9.153   0.172 -0.5358  1.1347 -1.2444
23619SOL    HW272865   9.138   9.299   0.172  0.0670  1.0138  1.1113
23620SOL     OW72866   5.518  10.467   5.412  0.8375  0.2180 -0.3235
23620SOL    HW172867   5.509  10.443   5.319  1.2218  0.6360 -0.4706
23620SOL    HW272868   5.440  10.430   5.453  0.6068  0.1204 -0.8324
23621SOL     OW72869   6.688   1.899   9.024 -0.0374  0.0263  0.7517
23621SOL    HW172870   6.713   1.990   9.009  1.4250 -0.6433 -1.3836
23621SOL    HW272871   6.626   1.902   9.096 -0.1264  2.7141  0.6389
23622SOL     OW72872   3.553   0.201   0.135 -0.8098  0.7383 -0.2185
23622SOL    HW172873   3.589   0.266   0.075 -2.4373 -0.4636 -2.6288
23622SOL    HW272874   3.464   0.231   0.152 -0.2353  1.3527  2.1687
23623SOL     OW72875   4.652   2.959   1.069 -0.0039  0.0581 -0.1640
23623SOL    HW172876   4.629   2.963   0.976  0.2372 -1.1122 -0.2911
23623SOL    HW272877   4.591   3.019   1.112 -0.3263  0.3692 -1.0374
23624SOL     OW72878   3.429   9.724   1.636 -0.0193 -0.3747 -0.4965
23624SOL    HW172879   3.443   9.818   1.648  2.9741 -0.7419 -0.4009
23624SOL    HW272880   3.511   9.692   1.599 -0.0385 -3.2980  1.6106
23625SOL     OW72881   8.193   1.343   3.679 -0.0830  0.4098 -0.4421
23625SOL    HW172882   8.285   1.336   3.656 -0.2687  1.4933 -1.5599
23625SOL    HW272883   8.149   1.283   3.619 -0.3035  1.3791 -1.2670
23626SOL     OW72884   8.660   7.309   7.599  0.3959  0.2014 -0.6078
23626SOL    HW172885   8.651   7.398   7.564  0.0053 -0.1412 -1.3998
23626SOL    HW272886   8.696   7.258   7.527  0.7778 -0.2555 -0.1026
23627SOL     OW72887   0.019   5.590   8.823  0.2167 -0.2620 -0.2801
23627SOL    HW172888  -0.018   5.509   8.857  0.5575  0.4614  2.0098
23627SOL    HW272889   0.068   5.627   8.897  0.3317  1.8699 -1.3340
23628SOL     OW72890   6.102   8.438   1.464 -0.0438  0.6821 -0.3762
23628SOL    HW172891   6.105   8.480   1.549 -0.2825  0.3517 -0.2045
23628SOL    HW272892   6.117   8.510   1.401  1.7297  0.6905 -0.0061
23629SOL     OW72893   2.062   6.855   0.708  0.1714  0.3480  0.0621
23629SOL    HW172894   2.108   6.914   0.766 -2.2378  1.1342  1.2781
23629SOL    HW272895   2.053   6.774   0.758 -1.5220  0.8849  0.7094
23630SOL     OW72896   3.343   2.647   5.606 -0.2831 -0.0890  0.2090
23630SOL    HW172897   3.287   2.704   5.553  2.2245  0.2642 -2.3551
23630SOL    HW272898   3.317   2.558   5.581 -2.2032 -0.1192  2.0051
23631SOL     OW72899   4.373   5.473   4.526  0.0003  0.6381 -0.1615
23631SOL    HW172900   4.447   5.516   4.569  0.1050  0.4221 -0.1245
23631SOL    HW272901   4.354   5.396   4.581  0.2971  0.2202 -0.6338
23632SOL     OW72902   3.780   5.345   0.318 -0.1732 -0.2487 -0.0299
23632SOL    HW172903   3.735   5.423   0.350 -0.2850 -0.5039  0.4399
23632SOL    HW272904   3.873   5.364   0.330 -0.1823 -0.0190 -0.3137
23633SOL     OW72905   0.139   1.297  10.944  0.0585  0.8581 -0.1159
23633SOL    HW172906   0.073   1.325  10.880 -1.1660  0.4377  0.9128
23633SOL    HW272907   0.189   1.376  10.964 -0.7912  1.4162 -0.1685
23634SOL     OW72908   9.775   3.410   6.585 -0.2077  0.1090  0.2121
23634SOL    HW172909   9.712   3.440   6.651  0.7881  0.1299  1.1687
23634SOL    HW272910   9.764   3.315   6.583 -1.7376  0.2601 -1.1692
23635SOL     OW72911   4.513   5.152   7.666  0.1487 -0.4479 -0.2200
23635SOL    HW172912   4.498   5.179   7.757 -0.2034  1.3147 -0.7701
23635SOL    HW272913   4.429   5.113   7.639 -0.1744  0.2125 -0.1856
23636SOL     OW72914   6.962   4.633   4.846  0.4329  0.0676 -0.7272
23636SOL    HW172915   7.034   4.572   4.865 -0.4988 -1.0753 -0.7563
23636SOL    HW272916   6.922   4.650   4.931 -1.0272 -1.5981 -1.0256
23637SOL     OW72917   8.389   6.088   7.209  1.1234  0.2018 -0.2513
23637SOL    HW172918   8.379   6.045   7.294  1.3182  2.4914  1.0110
23637SOL    HW272919   8.310   6.141   7.199  0.8018 -0.5188 -1.8487
23638SOL     OW72920   8.492   5.149   3.137 -0.0251 -0.0374 -0.1109
23638SOL    HW172921   8.548   5.098   3.196 -0.7253  0.3215  0.8923
23638SOL    HW272922   8.509   5.113   3.050  0.3131 -1.2242  0.4292
23639SOL     OW72923   6.715   0.793   1.008  0.2558 -0.1462  0.2588
23639SOL    HW172924   6.716   0.848   1.086  0.1110 -0.1621  0.2721
23639SOL    HW272925   6.627   0.756   1.005  0.5435 -0.8811  0.6016
23640SOL     OW72926   3.131   3.514   3.389  0.6324 -0.3416 -0.1394
23640SOL    HW172927   3.192   3.506   3.316 -1.0547 -1.3564 -1.4947
23640SOL    HW272928   3.079   3.434   3.387 -0.9306  0.5876  0.7940
23641SOL     OW72929   9.266   9.922   0.627 -0.4383 -0.1206 -0.0453
23641SOL    HW172930   9.291   9.945   0.538 -0.3013 -0.2112 -0.0307
23641SOL    HW272931   9.328   9.968   0.683  0.9119 -1.8345 -0.0636
23642SOL     OW72932   4.151   0.615   3.668 -0.1922 -0.1200 -0.1699
23642SOL    HW172933   4.200   0.534   3.685  2.5673  0.7510 -3.0099
23642SOL    HW272934   4.217   0.684   3.669 -2.2324  1.9510  0.6493
23643SOL     OW72935   2.520   8.072  10.065  0.2803  0.4962  0.3172
23643SOL    HW172936   2.431   8.062  10.099 -0.4257  1.5385 -1.1053
23643SOL    HW272937   2.543   8.163  10.082  1.4128  0.0410  1.3759
23644SOL     OW72938  10.585   8.065   3.333  0.0820 -0.2177  0.1458
23644SOL    HW172939  10.559   8.090   3.245 -1.4622 -2.8395 -0.2444
23644SOL    HW272940  10.632   7.982   3.321 -0.4367 -0.7866  1.7924
23645SOL     OW72941   1.030   4.169  10.140  0.1384  0.3776  0.2091
23645SOL    HW172942   0.980   4.250  10.135 -0.1134  0.1966 -0.2025
23645SOL    HW272943   0.964   4.100  10.151  0.1610 -0.0377 -1.8557
23646SOL     OW72944   9.955   3.509  10.967  0.1852  0.4078 -0.0075
23646SOL    HW172945  10.012   3.581  10.941 -0.1536  0.6792 -0.0126
23646SOL    HW272946  10.013   3.444  11.006  0.3042  1.3662  1.4852
23647SOL     OW72947   8.903   7.051   8.383 -0.1927  0.5149 -0.1758
23647SOL    HW172948   8.931   7.080   8.470 -0.9145 -0.2509  0.3254
23647SOL    HW272949   8.840   6.981   8.400  0.4433 -0.3775 -1.3300
23648SOL     OW72950   7.531   1.668   3.676  0.3452 -0.4847 -0.5201
23648SOL    HW172951   7.461   1.714   3.723  0.5186 -3.2116  2.7781
23648SOL    HW272952   7.612   1.698   3.716  0.7752 -0.5701 -1.2927
23649SOL     OW72953   1.217   7.619   8.405  0.3658 -0.3087 -0.1043
23649SOL    HW172954   1.299   7.602   8.450 -1.0270 -1.8531  2.0977
23649SOL    HW272955   1.166   7.671   8.467  0.0852  1.7304 -1.9378
23650SOL     OW72956   0.246   5.190   0.462 -0.3420 -0.4026  0.1319
23650SOL    HW172957   0.306   5.116   0.466  0.3735  0.2266  3.3757
23650SOL    HW272958   0.160   5.154   0.486 -0.5641 -0.6236 -0.9352
23651SOL     OW72959   8.723   6.873   8.759  0.0742  0.0169  0.1929
23651SOL    HW172960   8.631   6.900   8.764 -0.2379 -1.0273  0.3098
23651SOL    HW272961   8.769   6.952   8.730 -1.1980 -0.0447 -2.3648
23652SOL     OW72962   0.176   6.887   6.452 -0.0493  0.2395  0.3463
23652SOL    HW172963   0.120   6.964   6.458 -1.5463 -0.8424  0.7609
23652SOL    HW272964   0.116   6.814   6.438  1.1224 -1.1201  1.9320
23653SOL     OW72965   6.821   4.616   0.456  0.3148  0.2189  0.1110
23653SOL    HW172966   6.897   4.673   0.455  1.6160 -1.4411 -0.8488
23653SOL    HW272967   6.763   4.654   0.523  2.1095  1.3262  1.1159
23654SOL     OW72968   9.647   8.974   5.157 -0.1663  0.4263  0.1489
23654SOL    HW172969   9.646   8.918   5.079 -0.9210  1.7092 -0.8099
23654SOL    HW272970   9.731   8.954   5.199  0.2042 -0.4013 -0.9136
23655SOL     OW72971  10.994   5.558   0.541 -0.8869  0.3961 -0.2369
23655SOL    HW172972  11.073   5.522   0.583 -0.1117  0.9056 -1.2175
23655SOL    HW272973  10.981   5.503   0.463 -1.1813  0.6574 -0.3760
23656SOL     OW72974   5.003   8.225   4.008 -0.6847 -0.1905 -0.1629
23656SOL    HW172975   4.979   8.135   3.987 -1.9507 -0.0520  0.5786
23656SOL    HW272976   5.068   8.217   4.078 -0.9999 -0.5277  0.0919
23657SOL     OW72977   9.842  10.288   3.019 -0.2711  0.3723  0.3035
23657SOL    HW172978   9.915  10.321   2.967 -0.7115 -0.5003 -0.9000
23657SOL    HW272979   9.787  10.241   2.957 -0.3342 -1.5311  1.6875
23658SOL     OW72980   2.913   4.321   4.069 -0.1594  0.2129  0.1435
23658SOL    HW172981   2.957   4.382   4.129 -0.5242  0.5421  0.0765
23658SOL    HW272982   2.984   4.265   4.038  0.4156  1.3903 -0.7656
23659SOL     OW72983   1.999   1.758   7.770 -0.5467 -0.9603  0.3953
23659SOL    HW172984   2.080   1.739   7.722  0.2371 -0.9218  1.6538
23659SOL    HW272985   1.947   1.810   7.709  1.5233  1.3846  0.4516
23660SOL     OW72986   9.989   1.146   9.344 -0.3449 -0.7017 -0.1955
23660SOL    HW172987   9.936   1.225   9.340 -0.8525 -1.0078  0.4206
23660SOL    HW272988  10.028   1.139   9.257 -1.2319 -0.4161 -0.6208
23661SOL     OW72989   8.544   8.272   7.147 -0.1009  0.2589 -0.0004
23661SOL    HW172990   8.576   8.358   7.120 -0.0891  0.1048 -0.4831
23661SOL    HW272991   8.536   8.222   7.065  0.6521 -0.4633  0.3519
23662SOL     OW72992   3.029  10.276  10.996  0.5824 -0.7529  0.7815
23662SOL    HW172993   2.943  10.278  10.953 -0.1805  1.2840  2.2389
23662SOL    HW272994   3.023  10.204  11.058  0.5560 -1.6777 -0.2546
23663SOL     OW72995   6.301   7.587  10.976  0.7015 -0.2239  0.0161
23663SOL    HW172996   6.391   7.588  10.945  1.3942 -0.5821  1.8767
23663SOL    HW272997   6.304   7.535  11.056 -1.2011 -0.3780  0.0365
23664SOL     OW72998   8.192   8.888   4.961 -0.2833  0.5921 -0.0307
23664SOL    HW172999   8.137   8.809   4.954  0.7353  0.0064 -2.2400
23664SOL    HW273000   8.276   8.856   4.994 -0.4603  1.1033  0.9675
23665SOL     OW73001   7.376   6.372   5.047 -0.4177  0.0245  0.4046
23665SOL    HW173002   7.323   6.292   5.050 -1.8087  0.9133  0.6193
23665SOL    HW273003   7.312   6.443   5.052  0.7024  1.1721 -0.8036
23666SOL     OW73004   1.419   8.586   7.751 -0.3750 -0.0519  0.3229
23666SOL    HW173005   1.442   8.521   7.685 -0.9462  0.0892 -0.0309
23666SOL    HW273006   1.468   8.561   7.829  0.5124 -0.0784 -0.2250
23667SOL     OW73007   7.735   3.456   8.520  0.0763  0.4189 -0.0730
23667SOL    HW173008   7.757   3.448   8.612 -1.4984  0.8816  0.3783
23667SOL    HW273009   7.746   3.368   8.484  1.4424  0.4005  0.3636
23668SOL     OW73010   3.532   2.478   2.664 -0.2589 -0.1765  0.0367
23668SOL    HW173011   3.625   2.469   2.682  0.0360 -0.2865 -1.4191
23668SOL    HW273012   3.489   2.460   2.747  1.0673  1.0119  1.0041
23669SOL     OW73013   9.582   0.923   2.958  0.1599 -0.6531  0.0132
23669SOL    HW173014   9.539   0.994   3.005 -0.5932 -0.4436 -0.9504
23669SOL    HW273015   9.522   0.903   2.886  1.1890 -1.0831 -0.7400
23670SOL     OW73016   8.160   2.539   7.406 -0.7052 -0.7083 -0.5689
23670SOL    HW173017   8.099   2.572   7.340  0.0545 -0.0064 -0.9388
23670SOL    HW273018   8.113   2.468   7.449 -1.5778 -0.5312 -1.2098
23671SOL     OW73019   3.365   2.861   7.255  0.5448 -0.4087 -0.4925
23671SOL    HW173020   3.357   2.956   7.264  1.2736 -0.3850 -0.0753
23671SOL    HW273021   3.459   2.843   7.258  0.3880 -1.2183  0.2296
23672SOL     OW73022   0.363   3.521   2.587  0.2340  0.3968 -0.3275
23672SOL    HW173023   0.330   3.562   2.507 -0.3254  0.6788  0.0419
23672SOL    HW273024   0.290   3.526   2.648 -0.0626 -1.6650 -0.4375
23673SOL     OW73025   6.729   2.469   1.343  0.4359  0.7763  0.4539
23673SOL    HW173026   6.783   2.448   1.266  1.3971  1.2228  0.9880
23673SOL    HW273027   6.654   2.411   1.336  0.3595  1.0053 -0.9851
23674SOL     OW73028   4.241   9.710   1.264 -0.2685  0.1072  0.4582
23674SOL    HW173029   4.186   9.786   1.283  0.1760  0.6817 -0.4841
23674SOL    HW273030   4.304   9.707   1.336 -0.0155  0.8963  0.2756
23675SOL     OW73031   4.504   0.145  10.940 -0.6052  0.4773 -0.1661
23675SOL    HW173032   4.574   0.178  10.883 -0.0791 -1.4180 -0.6851
23675SOL    HW273033   4.549   0.098  11.009 -1.3291 -1.2888 -0.8346
23676SOL     OW73034   7.149   1.261  10.937  0.0272  0.0299 -0.0040
23676SOL    HW173035   7.241   1.285  10.949  1.0851 -1.8675 -3.1548
23676SOL    HW273036   7.132   1.279  10.845 -2.2435 -1.2943  0.0913
23677SOL     OW73037   7.383   0.376   6.703  0.0658  0.1608  0.1550
23677SOL    HW173038   7.339   0.456   6.674  1.4872  0.5405 -1.1181
23677SOL    HW273039   7.381   0.382   6.799 -0.2302  1.5267  0.0940
23678SOL     OW73040   9.051   9.672  10.670  0.6145 -0.2830  0.0259
23678SOL    HW173041   9.086   9.749  10.625 -0.9192  1.6085  1.8720
23678SOL    HW273042   9.103   9.664  10.749 -0.1919 -0.1846  0.5811
23679SOL     OW73043   8.579   4.591  10.212  0.3419 -0.2614 -0.2641
23679SOL    HW173044   8.603   4.568  10.302 -0.4389 -0.9311 -0.2154
23679SOL    HW273045   8.488   4.619  10.218 -0.0877 -1.4235 -1.0062
23680SOL     OW73046   5.971   2.767   3.412  0.0609 -0.6406  0.5533
23680SOL    HW173047   6.037   2.741   3.477  2.0176 -0.4854 -1.2543
23680SOL    HW273048   5.898   2.708   3.427  1.4800 -2.3049  1.2835
23681SOL     OW73049   3.077   2.424   6.960  0.4782  0.2938  0.7841
23681SOL    HW173050   3.019   2.373   7.017 -0.0187  0.3713  0.3547
23681SOL    HW273051   3.099   2.364   6.888  0.8080  0.3151  0.8662
23682SOL     OW73052   1.583   4.623   4.337 -0.1593  0.1397 -0.6766
23682SOL    HW173053   1.495   4.590   4.355  0.3231  0.0994  2.0695
23682SOL    HW273054   1.598   4.603   4.245 -2.8438 -0.2252 -1.1218
23683SOL     OW73055   2.981   0.631   6.969  0.3134  0.1769  0.0238
23683SOL    HW173056   3.061   0.646   7.019  0.4590 -0.1522 -0.1020
23683SOL    HW273057   2.911   0.665   7.023  0.6339  1.3827 -0.2947
23684SOL     OW73058   0.749   5.045   2.170 -0.0288 -0.1270  0.2177
23684SOL    HW173059   0.661   5.038   2.135 -0.1650 -2.2511  0.8338
23684SOL    HW273060   0.793   4.966   2.139  1.4575  0.5595  0.4895
23685SOL     OW73061   5.536   5.816   5.669  0.4817  0.3170 -0.1579
23685SOL    HW173062   5.631   5.825   5.676  0.6128 -1.6974  2.9829
23685SOL    HW273063   5.521   5.721   5.675 -1.7646  0.7131  1.9740
23686SOL     OW73064   9.249   7.366   7.525  0.5764 -0.0019 -0.2725
23686SOL    HW173065   9.163   7.371   7.567  1.7779  1.4850  2.2776
23686SOL    HW273066   9.235   7.399   7.436 -1.6646 -0.8626 -0.2991
23687SOL     OW73067   7.411   6.260  10.099 -0.1015 -0.2268  0.3745
23687SOL    HW173068   7.321   6.237  10.074 -0.1608 -1.4488  1.6161
23687SOL    HW273069   7.418   6.354  10.078 -1.2708 -0.3717 -0.8116
23688SOL     OW73070  10.458   7.337  10.439 -0.5168  0.5014 -0.1547
23688SOL    HW173071  10.531   7.306  10.492 -0.8892  1.2926  0.8812
23688SOL    HW273072  10.394   7.266  10.441  0.7375 -0.7671 -2.2254
23689SOL     OW73073   3.260   7.168   7.147  0.0841 -0.2103 -0.4610
23689SOL    HW173074   3.327   7.204   7.204  0.0668  0.3645 -0.8023
23689SOL    HW273075   3.305   7.150   7.065 -0.3667  1.0673 -1.0128
23690SOL     OW73076   5.986   7.935   4.855  0.4083 -0.1266  0.5980
23690SOL    HW173077   5.962   7.852   4.813 -0.2448 -0.2925  1.2782
23690SOL    HW273078   5.949   7.929   4.943  0.6369  0.7536  0.7655
23691SOL     OW73079   9.200   3.678   6.854 -0.1114  0.4160  0.2122
23691SOL    HW173080   9.244   3.594   6.866  0.5483  0.6809 -0.3277
23691SOL    HW273081   9.235   3.712   6.772 -1.0756  0.7892 -0.0594
23692SOL     OW73082   0.173   1.573   8.659 -0.5066 -0.1760  0.6843
23692SOL    HW173083   0.265   1.593   8.674 -0.4215 -1.2087  1.6926
23692SOL    HW273084   0.166   1.561   8.565  0.9390 -2.4881  0.8080
23693SOL     OW73085   3.322   0.897   3.610 -0.5998 -0.0733  0.1949
23693SOL    HW173086   3.356   0.928   3.526 -0.4173  0.6778  0.5374
23693SOL    HW273087   3.313   0.977   3.663 -0.9255 -0.5139  0.8091
23694SOL     OW73088   8.636   1.982   1.547  0.2170 -0.0176 -0.5577
23694SOL    HW173089   8.655   2.071   1.575  2.0612 -0.2248 -1.0618
23694SOL    HW273090   8.708   1.929   1.582 -1.3417 -1.5049  0.5690
23695SOL     OW73091   9.567   9.802   0.332  0.2881  0.5604  0.2067
23695SOL    HW173092   9.537   9.718   0.366 -0.9716  1.9253  2.7514
23695SOL    HW273093   9.544   9.800   0.239  0.0908 -1.7871  0.2625
23696SOL     OW73094   5.273   6.339   2.613  0.1734 -0.4637  0.7045
23696SOL    HW173095   5.262   6.424   2.655  1.8189  0.0998  0.0729
23696SOL    HW273096   5.220   6.344   2.534 -1.6167 -0.9292  1.8154
23697SOL     OW73097   5.347   1.508   9.116  0.1323  0.3601 -0.1733
23697SOL    HW173098   5.348   1.550   9.202 -1.2758  0.4844 -0.2058
23697SOL    HW273099   5.255   1.493   9.097  0.3856  0.7827 -1.8902
23698SOL     OW73100   4.883   5.179   4.614  0.1464 -0.1130  0.7449
23698SOL    HW173101   4.818   5.163   4.545 -0.1297  0.5644  0.8373
23698SOL    HW273102   4.961   5.133   4.585 -0.2100 -0.4924  0.3660
23699SOL     OW73103   8.841   0.763   9.016 -0.6992 -0.1578 -0.1411
23699SOL    HW173104   8.838   0.766   9.112 -1.7579 -1.7067 -0.0727
23699SOL    HW273105   8.752   0.786   8.989 -0.4996 -0.0716 -0.7296
23700SOL     OW73106  10.332   3.190   2.636 -0.1396  0.0417  0.1599
23700SOL    HW173107  10.301   3.279   2.620 -1.8311 -0.3715  0.8936
23700SOL    HW273108  10.261   3.133   2.605  0.9318 -1.0687 -0.3511
23701SOL     OW73109  10.972   9.374   7.703  0.2168  0.9868 -0.2531
23701SOL    HW173110  10.992   9.282   7.685  1.7720  1.4488 -1.0629
23701SOL    HW273111  10.883   9.386   7.670 -0.2168 -0.3386  0.3373
23702SOL     OW73112   8.263   0.981   8.561  0.1884 -0.0794  0.5949
23702SOL    HW173113   8.260   1.065   8.607  0.0550  0.4333 -0.3308
23702SOL    HW273114   8.182   0.936   8.589  0.3059  0.0503  1.1606
23703SOL     OW73115   8.655   7.963   5.879 -0.7782  0.0496  0.4010
23703SOL    HW173116   8.575   7.978   5.928 -0.7993 -1.8930  1.0173
23703SOL    HW273117   8.633   7.894   5.816  0.0213  0.5237 -0.4259
23704SOL     OW73118   1.689   3.897   8.762  0.1017 -0.5645 -0.7149
23704SOL    HW173119   1.779   3.865   8.764  0.6464  0.6451 -3.2260
23704SOL    HW273120   1.666   3.902   8.670 -2.0666  0.5246 -0.2022
23705SOL     OW73121   3.819   8.836   1.436  1.0031  0.1575  0.1680
23705SOL    HW173122   3.746   8.820   1.376 -0.1112 -0.6684  1.6544
23705SOL    HW273123   3.860   8.916   1.403  0.2100 -0.0495 -1.4449
23706SOL     OW73124  10.594   9.496   0.023  0.1465 -0.0537  0.5695
23706SOL    HW173125  10.577   9.427   0.087  1.0287 -1.6810 -0.8471
23706SOL    HW273126  10.540   9.472  -0.053  0.0220  1.1662  0.2460
23707SOL     OW73127   2.844   4.763   6.122  0.4276 -0.2023 -0.1944
23707SOL    HW173128   2.771   4.701   6.117  0.2930 -0.0496 -0.1309
23707SOL    HW273129   2.846   4.803   6.035  0.0933  0.1808 -0.0271
23708SOL     OW73130   7.432   8.015   6.263  0.0335 -0.0130 -0.0549
23708SOL    HW173131   7.484   8.030   6.184 -0.0385 -0.0033 -0.1000
23708SOL    HW273132   7.357   8.073   6.254  0.0693  0.0535  0.0619
23709SOL     OW73133  10.315   6.832   7.675 -0.2501  0.6736 -0.0326
23709SOL    HW173134  10.297   6.926   7.670 -0.1303  0.6733 -0.4338
23709SOL    HW273135  10.233   6.794   7.708 -0.0206  1.0153  0.9746
23710SOL     OW73136   8.308   0.957   5.058 -0.2951 -0.5106 -0.9151
23710SOL    HW173137   8.368   0.915   4.997  0.8162 -0.7147  0.2705
23710SOL    HW273138   8.281   0.886   5.117  0.0364  0.0202 -0.1047
23711SOL     OW73139   8.127   8.450   1.974  0.4276  0.1709 -0.2501
23711SOL    HW173140   8.091   8.425   2.059 -1.2184 -0.4101 -1.0896
23711SOL    HW273141   8.187   8.522   1.994 -0.4943  0.5476  1.3029
23712SOL     OW73142   7.190   7.638   2.795 -0.0649 -0.7377 -0.8056
23712SOL    HW173143   7.221   7.599   2.876 -0.2257 -0.4486 -0.6007
23712SOL    HW273144   7.095   7.624   2.796 -0.0088 -1.1766 -1.1864
23713SOL     OW73145   4.574   0.724   1.606 -0.3865 -0.4859  0.6350
23713SOL    HW173146   4.526   0.664   1.549 -0.4822 -0.0198  0.2197
23713SOL    HW273147   4.666   0.715   1.580 -0.2073 -1.4992  1.5403
23714SOL     OW73148   3.459   5.031   0.192 -0.0089  0.2327 -0.4496
23714SOL    HW173149   3.472   4.964   0.125  1.5506  0.9465 -0.9235
23714SOL    HW273150   3.444   4.983   0.273  3.9140 -0.8736 -0.1712
23715SOL     OW73151   7.222   9.507  10.830 -0.5323  0.1493 -0.6776
23715SOL    HW173152   7.285   9.526  10.900 -1.1057 -0.1479 -0.0681
23715SOL    HW273153   7.277   9.486  10.754  0.1010  0.9907 -0.4745
23716SOL     OW73154   8.699   8.399   0.421  0.1388  0.6142 -0.3388
23716SOL    HW173155   8.787   8.435   0.410  1.3374 -1.5650  1.1880
23716SOL    HW273156   8.674   8.370   0.334  1.4965  0.1583 -0.6144
23717SOL     OW73157   2.737   8.948   7.215 -0.5391  0.1848  0.2364
23717SOL    HW173158   2.662   9.002   7.189 -0.6944 -1.0915 -2.2016
23717SOL    HW273159   2.788   8.937   7.135 -0.5469 -3.3525  0.5757
23718SOL     OW73160   6.409   8.319   5.543 -0.9143  0.1424 -0.1206
23718SOL    HW173161   6.401   8.233   5.584 -1.5475  0.0569 -0.4188
23718SOL    HW273162   6.350   8.316   5.467  0.1656  0.3225 -1.0018
23719SOL     OW73163   0.068   8.115  10.674 -0.0081 -0.6145  0.2008
23719SOL    HW173164   0.133   8.136  10.607 -0.5083 -0.7244 -0.3236
23719SOL    HW273165   0.037   8.200  10.705  0.1135 -0.5644  0.1864
23720SOL     OW73166  11.005   8.286   9.923 -0.5028 -0.3036  0.8007
23720SOL    HW173167  11.001   8.361   9.982  1.3488  1.6824 -1.3646
23720SOL    HW273168  11.093   8.250   9.937  0.0283  0.3071 -0.7906
23721SOL     OW73169   5.343   0.248   6.397 -0.7916  0.2689  0.1951
23721SOL    HW173170   5.295   0.195   6.460  0.9743 -0.3275  1.1229
23721SOL    HW273171   5.319   0.338   6.419 -1.3854 -0.0065  0.7144
23722SOL     OW73172   4.037   1.749   1.218  0.5221 -0.4312 -0.6083
23722SOL    HW173173   4.057   1.696   1.294  1.0576  0.0084 -0.4381
23722SOL    HW273174   4.106   1.815   1.215  1.5576 -1.5225 -2.5217
23723SOL     OW73175   3.681   8.069   8.102  0.3089 -0.7188 -0.1900
23723SOL    HW173176   3.658   7.988   8.055  0.7147 -0.4712 -0.8307
23723SOL    HW273177   3.633   8.063   8.184 -1.5430 -0.5060 -1.2037
23724SOL     OW73178   5.997  11.025   6.970  0.0092  0.5712  0.0919
23724SOL    HW173179   5.923  11.024   7.031 -0.8382  0.3851 -0.9153
23724SOL    HW273180   6.061  11.082   7.012  0.9043 -2.1277  2.7845
23725SOL     OW73181   8.365   9.830   6.023  0.4554  0.7836  0.6944
23725SOL    HW173182   8.379   9.773   5.947  0.5817  0.3798  1.0191
23725SOL    HW273183   8.299   9.785   6.075  0.2276  1.1543  0.7374
23726SOL     OW73184   3.101   2.805   4.611  0.7231 -0.0071 -0.0668
23726SOL    HW173185   3.087   2.758   4.529 -0.7409 -2.5195  1.4739
23726SOL    HW273186   3.025   2.863   4.619 -0.1233 -1.1431  0.3518
23727SOL     OW73187  10.972  10.861   2.508 -0.2067 -0.4128  0.2707
23727SOL    HW173188  11.048  10.895   2.461 -0.5233 -0.4614 -0.2799
23727SOL    HW273189  10.938  10.937   2.556 -0.7634  0.0129 -0.7583
23728SOL     OW73190   1.801  10.330   2.060 -0.2050  0.2230 -0.6399
23728SOL    HW173191   1.745  10.321   2.137 -2.5079 -0.2396 -2.2620
23728SOL    HW273192   1.776  10.415   2.022  1.5396  0.8661 -0.4445
23729SOL     OW73193   9.915   5.126   9.901 -0.2468 -0.1324  0.3081
23729SOL    HW173194   9.919   5.091   9.813  1.8853  0.6374  0.0262
23729SOL    HW273195   9.905   5.050   9.958  0.9884 -0.9042 -0.4708
23730SOL     OW73196   4.532   9.417   8.501 -0.1225 -0.3079 -0.1510
23730SOL    HW173197   4.455   9.363   8.486 -0.1471 -0.7910  1.6118
23730SOL    HW273198   4.497   9.503   8.526 -0.0927  0.7553 -3.2985
23731SOL     OW73199   4.757   6.623   0.687  0.0333  0.2722  0.1380
23731SOL    HW173200   4.798   6.542   0.659  0.6252 -0.0228  1.7468
23731SOL    HW273201   4.823   6.691   0.673  0.8075 -0.0665  1.8929
23732SOL     OW73202   7.932   0.579   7.091 -0.3526 -0.2507  0.0465
23732SOL    HW173203   7.992   0.507   7.072 -1.6840 -1.4157  0.1740
23732SOL    HW273204   7.987   0.645   7.133  0.8272 -1.3192  0.2416
23733SOL     OW73205   7.064   4.751   6.954  0.6972  0.7311 -0.3068
23733SOL    HW173206   7.055   4.720   6.864  1.4671  0.0060 -0.1479
23733SOL    HW273207   7.152   4.725   6.979 -0.4031 -1.5813  1.5912
23734SOL     OW73208  10.006   5.087   8.175 -0.0805  0.0759 -0.4771
23734SOL    HW173209   9.951   5.166   8.171 -1.4459 -0.8026  0.4225
23734SOL    HW273210   9.986   5.040   8.095 -2.3553 -1.2922  0.7907
23735SOL     OW73211   6.485   7.062   5.450  0.1632  0.1213  0.3040
23735SOL    HW173212   6.568   7.039   5.491 -0.3129 -0.5393  0.9124
23735SOL    HW273213   6.431   6.983   5.458 -0.8266  0.8160  0.7103
23736SOL     OW73214   2.437   0.152  10.364  0.4126  0.2490  0.3915
23736SOL    HW173215   2.448   0.208  10.287  1.6428 -1.5819 -0.8453
23736SOL    HW273216   2.524   0.116  10.380  0.0125 -0.0161  2.2077
23737SOL     OW73217   4.209   3.908   2.868 -0.3289  0.1758  0.2000
23737SOL    HW173218   4.209   3.996   2.831  2.7131 -0.4202 -1.5065
23737SOL    HW273219   4.177   3.852   2.798  0.4744 -0.3770  0.2589
23738SOL     OW73220   0.359   4.643  10.866  0.0281  0.0185 -0.0161
23738SOL    HW173221   0.377   4.700  10.941 -0.4205  0.1084  0.0246
23738SOL    HW273222   0.300   4.576  10.900  2.2401 -1.8173  0.5325
23739SOL     OW73223  10.702   3.512   8.251  0.5559 -0.0843 -0.1676
23739SOL    HW173224  10.689   3.446   8.319 -0.9431 -1.6864 -1.8791
23739SOL    HW273225  10.701   3.462   8.169  1.3251  1.8672 -1.4400
23740SOL     OW73226   1.070   2.817   5.975 -0.5780  0.0549 -0.5008
23740SOL    HW173227   1.043   2.761   6.048  1.7019 -2.3789 -1.3719
23740SOL    HW273228   1.038   2.772   5.897  1.1245 -0.0050 -1.2081
23741SOL     OW73229  10.558   1.344   0.616 -0.0286 -0.3508 -0.6551
23741SOL    HW173230  10.643   1.339   0.659 -0.0825  0.9781 -0.3472
23741SOL    HW273231  10.499   1.294   0.674  0.7064 -2.2107 -1.4239
23742SOL     OW73232   7.381  10.518   1.982 -0.0271 -0.7826  0.1569
23742SOL    HW173233   7.321  10.537   1.910 -0.2094 -0.6436  0.3458
23742SOL    HW273234   7.458  10.479   1.939 -0.1220 -0.6739 -0.1161
23743SOL     OW73235   8.414  10.123   1.590 -0.0528 -0.0534 -0.3173
23743SOL    HW173236   8.393  10.168   1.508  1.4232 -0.6547 -1.0667
23743SOL    HW273237   8.333  10.079   1.615 -0.8783  1.1696 -0.7738
23744SOL     OW73238  10.080   0.249   5.356 -0.0298  0.3028  0.5151
23744SOL    HW173239  10.087   0.309   5.281 -1.4195  0.1493  0.2237
23744SOL    HW273240  10.084   0.162   5.317  0.1463  0.2175  0.7264
23745SOL     OW73241   8.091   4.488   3.368 -0.0568  0.3023  0.0969
23745SOL    HW173242   8.111   4.447   3.284  0.1513 -0.1443  0.3598
23745SOL    HW273243   8.164   4.462   3.425  0.1431  1.1367  0.2341
23746SOL     OW73244   1.870   3.391   5.960 -0.1303  0.5004  0.0938
23746SOL    HW173245   1.893   3.350   6.044 -0.8799  0.0905  0.1028
23746SOL    HW273246   1.788   3.349   5.934  1.3927 -1.3479 -2.1818
23747SOL     OW73247   2.207   9.151   5.467  0.0030  0.0133  0.2949
23747SOL    HW173248   2.173   9.088   5.531  1.2373 -1.4544 -0.4085
23747SOL    HW273249   2.189   9.111   5.382  2.0559 -0.1420 -0.1342
23748SOL     OW73250   9.880   5.503   3.706 -0.4323  0.3992 -0.0382
23748SOL    HW173251   9.895   5.467   3.618 -1.6584 -1.4831  0.4684
23748SOL    HW273252   9.931   5.446   3.764 -0.2272  1.1836  0.5709
23749SOL     OW73253   7.705   0.582   3.298  0.3764 -0.2923 -0.0867
23749SOL    HW173254   7.749   0.515   3.349 -1.1290 -1.2024  0.0613
23749SOL    HW273255   7.749   0.664   3.323  2.5878 -1.2125 -0.6526
23750SOL     OW73256   8.472   3.824   6.440  0.6376  0.1138  0.1927
23750SOL    HW173257   8.564   3.798   6.439  0.7565  0.4525  1.1896
23750SOL    HW273258   8.428   3.756   6.389  1.3827 -0.2885  0.0627
23751SOL     OW73259   1.465   7.708   1.685 -0.0877 -0.2367 -0.5200
23751SOL    HW173260   1.430   7.700   1.596 -0.0199 -2.4536 -0.4223
23751SOL    HW273261   1.387   7.704   1.741 -0.0895  0.5781 -0.4661
23752SOL     OW73262   8.464   6.253   9.464  0.1739  0.2766 -0.3696
23752SOL    HW173263   8.539   6.235   9.521 -0.6595 -0.5617  0.4862
23752SOL    HW273264   8.390   6.262   9.523 -0.8292 -1.1941 -1.3323
23753SOL     OW73265  10.498   5.471   5.035 -0.5880 -0.4404 -0.4699
23753SOL    HW173266  10.438   5.479   4.961 -1.4106 -1.8049  0.0197
23753SOL    HW273267  10.544   5.388   5.020  0.8104  0.3202 -0.5479
23754SOL     OW73268   8.116  10.979   8.273 -0.0816  0.1461  0.1272
23754SOL    HW173269   8.081  10.912   8.214  1.8088 -0.9598  0.1848
23754SOL    HW273270   8.057  10.977   8.348 -0.3940 -1.0667 -0.1152
23755SOL     OW73271   4.555   2.871   1.849  0.4612  0.0406 -0.0390
23755SOL    HW173272   4.600   2.816   1.785 -0.9415 -0.4494 -0.6519
23755SOL    HW273273   4.568   2.827   1.933  0.0768 -0.7806 -0.3983
23756SOL     OW73274   7.963   0.660   3.723  0.5270  0.0227  0.3222
23756SOL    HW173275   7.909   0.589   3.758 -1.2629  1.4394  0.5405
23756SOL    HW273276   7.934   0.670   3.632  1.9536 -0.5919 -0.2354
23757SOL     OW73277   6.264   3.685   6.178  0.1139  0.1340 -0.3478
23757SOL    HW173278   6.358   3.669   6.190  0.1117  0.6838  0.5369
23757SOL    HW273279   6.236   3.617   6.117  1.1257  0.0958 -0.7958
23758SOL     OW73280   6.989   8.111   3.098  0.4643 -0.1234 -0.0467
23758SOL    HW173281   6.993   8.172   3.170 -3.6405  0.7005 -0.2778
23758SOL    HW273282   6.985   8.024   3.139 -1.6628  0.3284  0.8086
23759SOL     OW73283   4.981   7.226   0.441  0.2877  0.7133 -0.5629
23759SOL    HW173284   4.982   7.264   0.353  0.6191  1.9196 -0.0625
23759SOL    HW273285   5.070   7.241   0.475 -0.6563  3.2022  1.1330
23760SOL     OW73286   9.433   6.234   2.172  0.0724  0.0457 -0.0081
23760SOL    HW173287   9.338   6.236   2.161 -0.1567 -0.6710  1.5960
23760SOL    HW273288   9.447   6.253   2.265  1.5870  1.4314 -0.4618
23761SOL     OW73289   3.432   2.949   2.272 -0.3890  0.4608 -0.3921
23761SOL    HW173290   3.371   2.939   2.346  2.9405  0.1142  2.6119
23761SOL    HW273291   3.460   3.040   2.277  0.8190  0.1065 -0.3475
23762SOL     OW73292   9.516   3.589   5.280  0.7587 -0.2476 -0.3243
23762SOL    HW173293   9.520   3.564   5.188  1.1070 -2.1350  0.1496
23762SOL    HW273294   9.602   3.627   5.299  1.2319 -1.2316 -0.4371
23763SOL     OW73295   6.470   2.953   2.449 -0.6714 -0.1038 -0.3142
23763SOL    HW173296   6.448   2.872   2.402 -0.5681 -0.3778  0.1004
23763SOL    HW273297   6.502   2.923   2.534  0.4497  0.3078 -0.5608
23764SOL     OW73298   8.206   2.414   9.382 -0.4789 -0.1544 -0.1649
23764SOL    HW173299   8.204   2.506   9.411  0.2086 -0.4550  0.8668
23764SOL    HW273300   8.193   2.364   9.462  0.1387 -0.9877 -0.5813
23765SOL     OW73301   9.340   2.915  10.820 -0.7320  0.0848 -0.0149
23765SOL    HW173302   9.354   2.927  10.914  0.4532  0.9772 -0.2777
23765SOL    HW273303   9.345   2.820  10.807  0.8036  0.0552  0.6062
23766SOL     OW73304   5.170   7.230   9.901 -0.2220  0.0359 -0.1224
23766SOL    HW173305   5.248   7.175   9.908 -1.3336 -1.4661  1.3076
23766SOL    HW273306   5.097   7.170   9.914 -1.5609  1.6125 -0.0555
23767SOL     OW73307   7.292   2.865   0.252  0.3525 -0.4186  0.2022
23767SOL    HW173308   7.366   2.810   0.277  0.6616 -0.1182 -0.0385
23767SOL    HW273309   7.255   2.895   0.335  1.1635  0.2995  0.3189
23768SOL     OW73310   8.304   8.185  10.736  0.5567 -0.3328 -0.4996
23768SOL    HW173311   8.376   8.245  10.758 -0.5933  1.0285 -0.3260
23768SOL    HW273312   8.311   8.173  10.642 -0.9721  2.5723 -1.0944
23769SOL     OW73313   8.384  10.755  10.370  0.3405  0.3816 -0.6797
23769SOL    HW173314   8.426  10.840  10.355  2.6037 -0.5859 -0.1814
23769SOL    HW273315   8.452  10.701  10.409 -1.1792 -1.5575 -0.5713
23770SOL     OW73316   1.703   2.321  10.616  0.4061 -0.1583 -0.0665
23770SOL    HW173317   1.799   2.322  10.618  0.5031 -2.2681 -0.6184
23770SOL    HW273318   1.681   2.228  10.610 -1.6330  0.3447 -1.3567
23771SOL     OW73319   4.387  10.548   1.048  0.0719  0.1273 -0.7322
23771SOL    HW173320   4.408  10.642   1.054 -0.1818  0.1377  0.1971
23771SOL    HW273321   4.459  10.511   0.996  0.8269  0.6413 -0.0865
23772SOL     OW73322   8.415   4.077   9.241 -0.3190  0.0771 -0.3352
23772SOL    HW173323   8.433   3.993   9.200 -0.6615 -0.4218  0.4993
23772SOL    HW273324   8.326   4.067   9.276 -0.6555  1.0526 -0.8820
23773SOL     OW73325   4.333   2.127   9.758  0.0594 -0.1443  0.1170
23773SOL    HW173326   4.364   2.207   9.800 -0.4976  0.0616  0.1511
23773SOL    HW273327   4.362   2.056   9.814  2.4937 -0.1548 -1.0343
23774SOL     OW73328   6.070   8.708   6.268 -0.4044 -0.7467  0.0891
23774SOL    HW173329   6.020   8.659   6.203 -2.8564  1.7605 -0.1115
23774SOL    HW273330   6.067   8.798   6.236  2.5405 -0.1377  1.2194
23775SOL     OW73331  10.019  10.016   7.085 -0.1333 -0.8881  0.8127
23775SOL    HW173332  10.025  10.061   7.001  2.7374 -1.5121  0.5925
23775SOL    HW273333   9.929  10.030   7.113 -0.9051  0.1537 -1.8909
23776SOL     OW73334   1.260  10.708   9.003 -0.1991  0.0484  0.2651
23776SOL    HW173335   1.330  10.661   9.048 -2.0715 -1.6899  1.5098
23776SOL    HW273336   1.289  10.712   8.911  1.8843  0.1777  0.8761
23777SOL     OW73337  10.488   5.768   3.985 -0.6783  0.0850  0.2010
23777SOL    HW173338  10.440   5.835   3.936 -0.4195  0.7453  0.8355
23777SOL    HW273339  10.449   5.770   4.073  1.0259  1.2039  0.9736
23778SOL     OW73340   2.162   8.124   5.617  0.3171 -0.2790 -0.4455
23778SOL    HW173341   2.208   8.199   5.579  1.2745  0.0945  1.3077
23778SOL    HW273342   2.212   8.104   5.697 -0.2985 -2.3895 -0.5356
23779SOL     OW73343   2.048  10.609   8.902 -0.1978 -0.2208  0.6499
23779SOL    HW173344   2.091  10.589   8.819  2.3519 -1.5070  2.1620
23779SOL    HW273345   2.017  10.524   8.934  0.8502 -0.1380  2.0013
23780SOL     OW73346   4.998   0.925   9.735  0.3526 -0.1601  0.9465
23780SOL    HW173347   4.937   0.999   9.731 -0.2092 -0.6645 -0.4726
23780SOL    HW273348   5.084   0.966   9.735  0.1858  0.5964 -2.6990
23781SOL     OW73349   3.117   0.715   2.736 -0.3361  0.1323  0.0777
23781SOL    HW173350   3.142   0.642   2.680 -1.3511 -0.7330  0.7311
23781SOL    HW273351   3.194   0.730   2.791  0.6470  0.9461 -1.4366
23782SOL     OW73352   2.773   2.698   0.045 -0.2030  0.6309 -0.2654
23782SOL    HW173353   2.736   2.765  -0.013 -0.8875  1.7359  1.3951
23782SOL    HW273354   2.742   2.615   0.007 -1.0151  1.3473 -1.2255
23783SOL     OW73355   1.701   6.261   9.444  0.1564  0.5749  0.0944
23783SOL    HW173356   1.655   6.334   9.487  2.9999  2.3287  0.3812
23783SOL    HW273357   1.735   6.208   9.516 -0.0615  0.1457 -0.1092
23784SOL     OW73358   1.743  10.879   3.809 -0.0860 -0.0270  0.3892
23784SOL    HW173359   1.767  10.804   3.755 -0.1752  1.0880 -1.2700
23784SOL    HW273360   1.791  10.952   3.771 -0.0625  0.7951  1.9216
23785SOL     OW73361   2.145   1.447   1.392  0.6374  0.0053  0.0872
23785SOL    HW173362   2.105   1.382   1.449 -0.7473  0.5805 -0.1996
23785SOL    HW273363   2.236   1.452   1.422 -0.1354  0.6237  2.5514
23786SOL     OW73364   5.475   1.252  10.317  0.3183 -0.2282 -0.0402
23786SOL    HW173365   5.567   1.276  10.323  0.3002 -0.4046  1.3906
23786SOL    HW273366   5.476   1.163  10.283  0.6994 -0.3262  0.2162
23787SOL     OW73367   8.369   4.337   6.516 -0.2569 -0.7120 -0.1416
23787SOL    HW173368   8.368   4.265   6.580 -1.2246 -0.6147 -0.0283
23787SOL    HW273369   8.346   4.296   6.433 -3.8365 -0.1502  0.4200
23788SOL     OW73370   7.602  10.526   6.342  0.0921  0.2058 -0.1103
23788SOL    HW173371   7.557  10.592   6.289 -1.1398  0.3553  1.0650
23788SOL    HW273372   7.608  10.566   6.429  1.9533 -0.0833 -0.0704
23789SOL     OW73373   5.243   3.385  10.744  0.3082 -0.4395 -0.8844
23789SOL    HW173374   5.200   3.426  10.819 -1.2373 -1.6164 -1.0808
23789SOL    HW273375   5.173   3.338  10.698  1.5465 -1.2318 -2.0603
23790SOL     OW73376   2.235   8.302   3.058  0.3150 -0.1745  0.0789
23790SOL    HW173377   2.160   8.301   2.999  1.0408 -2.0051 -0.8936
23790SOL    HW273378   2.198   8.292   3.145 -0.6687  0.9602 -0.1832
23791SOL     OW73379  10.808   7.344   5.784 -0.3686 -0.2446 -0.2246
23791SOL    HW173380  10.757   7.394   5.847  0.5424 -0.1619  0.4698
23791SOL    HW273381  10.820   7.404   5.710  0.0502  0.3048  0.2730
23792SOL     OW73382   6.509   9.545   3.898 -0.3102 -0.1673 -0.0974
23792SOL    HW173383   6.602   9.521   3.904  0.2592  2.1837  1.8804
23792SOL    HW273384   6.465   9.481   3.953  0.2568 -0.6777 -0.2196
23793SOL     OW73385   8.691   3.149   0.620  0.2979  0.1307 -0.4010
23793SOL    HW173386   8.781   3.119   0.632  0.7948  1.6246 -0.0760
23793SOL    HW273387   8.687   3.231   0.669 -1.5866 -0.4614  0.5137
23794SOL     OW73388   6.878   3.422   2.955 -0.3262  0.3549 -0.5100
23794SOL    HW173389   6.910   3.511   2.969 -0.8420  0.7350 -1.5993
23794SOL    HW273390   6.801   3.433   2.899 -2.1485 -0.5373  1.6417
23795SOL     OW73391   7.627   0.617  10.007 -0.4726  0.0849 -0.0891
23795SOL    HW173392   7.552   0.628  10.066 -1.3089  0.7614 -1.2475
23795SOL    HW273393   7.702   0.649  10.057 -1.4767  2.7293 -0.1005
23796SOL     OW73394   4.410   1.342   1.187  0.1666 -0.4462  0.0135
23796SOL    HW173395   4.375   1.422   1.148  1.9953  1.2978  1.6913
23796SOL    HW273396   4.446   1.293   1.114 -0.8363  0.3228 -1.0363
23797SOL     OW73397   3.480   4.772   5.493 -0.5500  0.5021  0.2132
23797SOL    HW173398   3.467   4.677   5.497  0.5526  0.2365 -1.5088
23797SOL    HW273399   3.471   4.793   5.401  1.1269  1.7646  0.3023
23798SOL     OW73400   9.919   4.545   2.543  0.0967  0.1643  0.2031
23798SOL    HW173401   9.991   4.505   2.592 -0.4247 -1.2051 -0.1035
23798SOL    HW273402   9.903   4.485   2.470 -2.6586 -0.6763  1.3759
23799SOL     OW73403   7.288   0.579   7.658  0.0901  0.1658  0.7859
23799SOL    HW173404   7.367   0.527   7.673  0.4167  0.8421  1.4803
23799SOL    HW273405   7.309   0.665   7.695 -0.5239  0.7236 -0.1214
23800SOL     OW73406   0.330   0.385   3.750 -0.1852  0.0950  0.3183
23800SOL    HW173407   0.282   0.333   3.686  0.3688 -0.5400  0.4126
23800SOL    HW273408   0.325   0.336   3.832  0.3058  0.1966  0.4184
23801SOL     OW73409   9.688   6.599   0.196  0.1320  0.0854 -0.2981
23801SOL    HW173410   9.659   6.686   0.167 -2.2525 -0.5819 -0.1106
23801SOL    HW273411   9.647   6.538   0.134 -2.3011 -1.1519  2.2988
23802SOL     OW73412   7.114   6.246   7.944  0.3233 -0.0685 -0.0655
23802SOL    HW173413   7.196   6.296   7.942  0.6452 -0.4571  1.6584
23802SOL    HW273414   7.064   6.279   7.869  0.4225  3.0457  1.0668
23803SOL     OW73415   9.842   1.365   3.990 -0.1126  0.0960 -0.6937
23803SOL    HW173416   9.824   1.331   3.902 -0.0480  1.0533 -1.0934
23803SOL    HW273417   9.777   1.322   4.046 -0.4220 -0.2147 -1.2779
23804SOL     OW73418   8.015   8.632   2.925 -0.3072 -0.0787  0.3458
23804SOL    HW173419   8.062   8.715   2.919 -0.3348 -0.1011 -0.2664
23804SOL    HW273420   7.930   8.655   2.963  0.0985 -0.0029  1.2324
23805SOL     OW73421   0.795   3.872   4.346  0.8510 -0.3304  0.3256
23805SOL    HW173422   0.722   3.871   4.407  1.2315  0.0216  0.7984
23805SOL    HW273423   0.755   3.864   4.260  0.2666 -0.2295  0.5844
23806SOL     OW73424   2.634   3.967   3.267 -0.4165  0.3104  0.2283
23806SOL    HW173425   2.540   3.985   3.268 -0.3304  1.4042 -2.4177
23806SOL    HW273426   2.674   4.051   3.290 -0.1178  0.5332 -1.0041
23807SOL     OW73427   8.717   9.141   4.985 -0.2397 -0.4462  0.0836
23807SOL    HW173428   8.638   9.126   4.932 -1.3232  1.4169  1.0771
23807SOL    HW273429   8.686   9.189   5.061  1.8291  0.0356  0.6857
23808SOL     OW73430   5.808   5.289   4.739 -0.4860  0.0662 -0.1991
23808SOL    HW173431   5.772   5.340   4.666  1.0365 -1.6066 -2.2807
23808SOL    HW273432   5.750   5.213   4.745  0.3135 -0.6134 -0.8232
23809SOL     OW73433  10.368   0.345   3.790 -0.2394  0.0895  0.3239
23809SOL    HW173434  10.451   0.361   3.745  0.1480 -0.1541  0.9318
23809SOL    HW273435  10.339   0.432   3.818 -0.1441  0.1653  0.1884
23810SOL     OW73436   6.152   3.598   0.061  0.8939 -0.3662  0.2017
23810SOL    HW173437   6.245   3.622   0.063  0.4715  1.4365  0.5918
23810SOL    HW273438   6.114   3.647   0.134 -0.1588 -2.1353  0.8764
23811SOL     OW73439   0.922   4.859   6.088 -0.7263  0.0514 -0.2708
23811SOL    HW173440   1.000   4.878   6.139 -0.4612 -0.2596 -0.5470
23811SOL    HW273441   0.854   4.841   6.152 -0.0166 -1.8945  0.0135
23812SOL     OW73442  10.475   7.588   9.193  0.0473 -0.1083 -0.6278
23812SOL    HW173443  10.556   7.623   9.231 -0.7242  0.2647  0.7436
23812SOL    HW273444  10.495   7.496   9.177  0.4712 -0.2417  0.5531
23813SOL     OW73445   3.872  10.030   7.317  0.4859  0.1965 -0.3487
23813SOL    HW173446   3.914   9.946   7.337 -0.5524 -0.8912 -2.4153
23813SOL    HW273447   3.780  10.016   7.339  0.2075  0.5962 -1.2349
23814SOL     OW73448   4.971   2.546   1.173  0.1878 -0.0493  0.2773
23814SOL    HW173449   5.010   2.632   1.159 -2.2464  1.0947  0.0821
23814SOL    HW273450   4.926   2.526   1.091 -0.1748 -1.0197  0.6946
23815SOL     OW73451   8.410   4.735   7.833  0.0951  0.9181  0.0126
23815SOL    HW173452   8.404   4.649   7.874 -0.5601  1.2606  0.6416
23815SOL    HW273453   8.432   4.716   7.741 -0.1902  0.0810  0.1119
23816SOL     OW73454   3.036   2.604  10.582  0.1168  0.4716 -0.2210
23816SOL    HW173455   3.096   2.678  10.588 -1.0072  1.3894  0.0767
23816SOL    HW273456   3.083   2.531  10.623  0.8709  1.2514  0.3277
23817SOL     OW73457   4.024   8.369   2.631  0.0085  0.7892 -0.1206
23817SOL    HW173458   3.963   8.440   2.613 -0.5634  0.3653  0.0944
23817SOL    HW273459   4.056   8.341   2.545 -0.4067  0.7533 -0.2645
23818SOL     OW73460   6.034   4.537   6.812  0.2841  0.9294  0.0907
23818SOL    HW173461   5.999   4.596   6.879  1.2271  0.2449  1.2417
23818SOL    HW273462   6.094   4.592   6.761  0.9495  1.0572  0.9811
23819SOL     OW73463   8.084   3.225   0.217  0.0643 -0.0849 -0.3695
23819SOL    HW173464   8.156   3.186   0.266  0.6932 -0.0707 -1.2740
23819SOL    HW273465   8.017   3.156   0.214  0.1838 -0.2265  0.1441
23820SOL     OW73466  10.391   1.870   3.397  0.2413 -0.2873 -0.6176
23820SOL    HW173467  10.430   1.793   3.438  0.3583  0.4915  0.8246
23820SOL    HW273468  10.348   1.837   3.318  0.1870 -1.8421  0.0246
23821SOL     OW73469   1.318   6.577  10.563 -0.0835 -0.1737 -0.2508
23821SOL    HW173470   1.308   6.644  10.495  0.9156 -0.3138 -0.5572
23821SOL    HW273471   1.233   6.574  10.607  0.4363  2.9333  1.2577
23822SOL     OW73472   0.266   4.790   9.863 -0.2692  0.5262  0.0588
23822SOL    HW173473   0.182   4.796   9.909  0.9894  0.3949  2.5100
23822SOL    HW273474   0.321   4.856   9.905  1.7880 -1.4399  0.6124
23823SOL     OW73475   1.254   0.104   0.524 -0.1132  0.4361  0.0594
23823SOL    HW173476   1.185   0.068   0.468  0.3698  0.6681 -0.7034
23823SOL    HW273477   1.207   0.154   0.591 -0.6789  0.8586 -0.6390
23824SOL     OW73478   5.487   2.455   6.650 -0.0087 -0.2234  0.3503
23824SOL    HW173479   5.417   2.494   6.703  1.0363  1.5690  0.4723
23824SOL    HW273480   5.493   2.512   6.573  0.7028 -0.9081 -0.1170
23825SOL     OW73481   1.318   5.233   0.181 -0.2026 -0.2242 -0.0967
23825SOL    HW173482   1.245   5.173   0.163  0.3559 -1.0829  0.4526
23825SOL    HW273483   1.282   5.296   0.243 -0.5504 -0.4893 -0.0229
23826SOL     OW73484   8.011   3.885   1.916 -0.0778  0.4242 -0.2375
23826SOL    HW173485   8.019   3.978   1.937  0.9628  0.4750 -0.7993
23826SOL    HW273486   8.062   3.840   1.984 -0.8096  0.2291  0.1989
23827SOL     OW73487   0.763   3.941  10.835  0.0803 -0.5940 -0.4354
23827SOL    HW173488   0.761   3.930  10.930  2.9055  0.7537 -0.1353
23827SOL    HW273489   0.757   4.036  10.822  0.7422 -0.6910 -1.5512
23828SOL     OW73490   5.641   6.202   9.037 -0.6488  0.1598 -0.3639
23828SOL    HW173491   5.561   6.211   8.986 -0.8051 -0.3391 -0.2174
23828SOL    HW273492   5.633   6.268   9.106 -0.7594  0.3670 -0.5774
23829SOL     OW73493   1.045   4.813   8.993  0.0510 -0.1118 -0.3855
23829SOL    HW173494   1.096   4.735   9.015  1.0533  0.1763 -1.5962
23829SOL    HW273495   0.982   4.820   9.065 -0.4591 -2.3608 -0.5195
23830SOL     OW73496   4.927  10.182  10.591 -0.6241 -0.3767 -0.2079
23830SOL    HW173497   4.899  10.214  10.676 -2.5347  0.0642 -0.9557
23830SOL    HW273498   4.866  10.111  10.570 -0.5469 -0.0966 -1.4517
23831SOL     OW73499   1.798  10.556   7.547  0.6286 -0.3457  0.2707
23831SOL    HW173500   1.782  10.649   7.560 -1.3232 -0.3751 -1.4628
23831SOL    HW273501   1.883  10.552   7.504  0.4872  0.6764 -0.1200
23832SOL     OW73502   0.511   6.843   8.929  0.0917  0.0601 -0.2039
23832SOL    HW173503   0.516   6.881   8.841  0.7670  1.7591  0.5451
23832SOL    HW273504   0.601   6.848   8.962 -0.1894 -0.4301  0.6551
23833SOL     OW73505   8.576   9.648   5.007 -0.4908  0.0110 -0.4843
23833SOL    HW173506   8.608   9.592   4.936  1.3272  0.0363  0.2551
23833SOL    HW273507   8.581   9.737   4.971 -0.8081 -0.0767 -0.7503
23834SOL     OW73508   8.214   3.854   9.772 -0.0330 -0.7005  0.2744
23834SOL    HW173509   8.218   3.801   9.852  2.1808  0.0794  0.7516
23834SOL    HW273510   8.283   3.817   9.717  2.1522  2.0579  0.9390
23835SOL     OW73511   4.248   4.857  10.461 -0.1731  0.5381  0.5018
23835SOL    HW173512   4.169   4.811  10.491  0.5376 -0.3735  1.0475
23835SOL    HW273513   4.251   4.842  10.367  0.5196 -1.3556  0.7861
23836SOL     OW73514   5.337   2.937   8.533 -0.6427 -0.2286 -0.7689
23836SOL    HW173515   5.320   2.907   8.622 -0.1300 -1.6138 -1.1082
23836SOL    HW273516   5.395   3.013   8.543 -0.4383 -0.4867  0.0647
23837SOL     OW73517   1.792   1.209   5.251 -0.1950 -0.3524  0.3204
23837SOL    HW173518   1.830   1.121   5.255 -1.1373 -0.7732  0.1723
23837SOL    HW273519   1.831   1.255   5.326  1.2996 -0.4755 -0.3433
23838SOL     OW73520   2.060   3.925   0.063  0.0189 -0.3399  1.0584
23838SOL    HW173521   2.075   3.889   0.150  1.4191  0.3385  1.1309
23838SOL    HW273522   2.101   3.862   0.003 -0.4985 -0.5538  0.9276
23839SOL     OW73523   2.431   2.711   7.884  0.0562  0.1088  0.1153
23839SOL    HW173524   2.503   2.696   7.946 -0.9641 -0.4926  1.1904
23839SOL    HW273525   2.386   2.627   7.878  1.4577 -0.5554 -3.2860
23840SOL     OW73526   8.112   0.618   1.961  0.0204  0.3021  0.0878
23840SOL    HW173527   8.175   0.621   1.889  0.8223 -0.9480  0.6935
23840SOL    HW273528   8.033   0.581   1.922  0.1291  0.5310 -0.3575
23841SOL     OW73529   5.095   6.020   4.960 -0.4714 -0.0681 -0.4900
23841SOL    HW173530   5.098   5.978   5.047 -0.6049 -0.4497 -0.6669
23841SOL    HW273531   5.072   6.111   4.978 -0.2380 -0.0837 -0.1016
23842SOL     OW73532   5.357   4.328   3.609 -0.2680 -0.3193  0.0324
23842SOL    HW173533   5.372   4.422   3.618 -0.5315 -0.3985  1.4532
23842SOL    HW273534   5.285   4.322   3.546  1.4186  0.2807 -2.1093
23843SOL     OW73535   5.785  10.626   6.591 -1.2287 -0.1527  0.3991
23843SOL    HW173536   5.789  10.533   6.615  1.2843  0.2741  1.9602
23843SOL    HW273537   5.822  10.630   6.503  0.1121 -0.4867  0.9304
23844SOL     OW73538   4.849   1.577   5.232 -0.1473 -0.1133 -0.3009
23844SOL    HW173539   4.906   1.612   5.164 -0.1330  1.1312  0.3152
23844SOL    HW273540   4.765   1.623   5.219  0.0804  0.6989  0.9447
23845SOL     OW73541   7.967   9.570   4.948 -0.2450 -0.5419  0.1505
23845SOL    HW173542   7.876   9.561   4.921 -0.1602 -1.2506  0.0960
23845SOL    HW273543   7.983   9.665   4.947 -0.4480 -0.4980 -1.5787
23846SOL     OW73544   6.815   6.795   3.519 -0.1594  0.1838  0.3428
23846SOL    HW173545   6.734   6.754   3.547  0.2309 -0.7954  0.0963
23846SOL    HW273546   6.811   6.794   3.423 -0.0736  0.5759  0.3325
23847SOL     OW73547   6.903  10.716   1.114 -1.0529 -0.0330  0.4589
23847SOL    HW173548   6.874  10.795   1.159 -0.2985  0.7416 -0.3765
23847SOL    HW273549   6.825  10.681   1.072 -1.0945  1.1405 -0.4616
23848SOL     OW73550   3.014   6.154   7.623  0.1299 -0.1091  0.3237
23848SOL    HW173551   3.078   6.084   7.616  0.7491  0.6031 -2.4457
23848SOL    HW273552   2.932   6.111   7.648  0.5219 -1.8273 -1.1831
23849SOL     OW73553   3.423  10.720   7.964 -0.4448 -0.8347 -0.6657
23849SOL    HW173554   3.509  10.757   7.941 -1.8742  2.2149 -1.6449
23849SOL    HW273555   3.363  10.758   7.901 -3.0644 -0.0641  2.0667
23850SOL     OW73556   6.402   4.412   6.535  0.0666  0.5854  0.3597
23850SOL    HW173557   6.309   4.388   6.540 -0.0150  1.0669  2.0545
23850SOL    HW273558   6.447   4.330   6.517 -0.7051  0.4374 -1.0518
23851SOL     OW73559   1.542   6.629   2.756  0.0158  0.1514 -0.3149
23851SOL    HW173560   1.491   6.695   2.710 -1.1686 -1.3203 -1.1831
23851SOL    HW273561   1.565   6.564   2.689  0.9811 -0.4307  0.5449
23852SOL     OW73562   6.103   0.372   1.463  0.2381 -0.5372  0.7483
23852SOL    HW173563   6.076   0.429   1.536  1.4306 -0.0704  0.8587
23852SOL    HW273564   6.145   0.297   1.505 -1.3451 -1.5330  0.6011
23853SOL     OW73565   2.550   3.366   4.345  0.1282  0.7574 -0.5055
23853SOL    HW173566   2.550   3.400   4.434  0.0612 -0.6610  0.0674
23853SOL    HW273567   2.621   3.413   4.301  2.1212 -0.5226  1.1281
23854SOL     OW73568   5.068   4.393   1.024  0.1834 -0.0501 -0.0788
23854SOL    HW173569   4.998   4.363   0.966 -0.2120 -1.5091  1.0724
23854SOL    HW273570   5.146   4.347   0.993 -0.0361 -0.8608  0.5314
23855SOL     OW73571   6.059  10.511   0.860  0.3779  0.0729 -0.1098
23855SOL    HW173572   6.041  10.420   0.837 -0.4449  0.1467  0.1954
23855SOL    HW273573   6.038  10.560   0.781  0.6018  0.0140 -0.2041
23856SOL     OW73574   3.746   8.917  11.018 -0.1738  0.2958 -0.2560
23856SOL    HW173575   3.837   8.943  11.031  1.0096 -3.7743  1.4310
23856SOL    HW273576   3.745   8.876  10.932 -0.0486 -0.7585  0.2311
23857SOL     OW73577   6.534   9.974   7.421  0.7171 -0.0261  0.0271
23857SOL    HW173578   6.507  10.025   7.498 -0.1015 -1.5353  0.7751
23857SOL    HW273579   6.493  10.018   7.347 -0.8733 -0.1920  0.7715
23858SOL     OW73580   8.038   2.631   0.641  0.5405 -0.0720  0.0325
23858SOL    HW173581   8.021   2.713   0.688 -1.7792 -0.1919 -0.4727
23858SOL    HW273582   8.049   2.566   0.711  3.8536  0.8103  0.4825
23859SOL     OW73583   2.397  10.171   2.290  0.3001 -0.6581 -0.2253
23859SOL    HW173584   2.409  10.232   2.363 -1.3111 -0.9868  0.3448
23859SOL    HW273585   2.326  10.209   2.239 -0.1058 -1.5957 -0.3666
23860SOL     OW73586   5.050   9.911   7.960  0.0342 -0.3813  0.0437
23860SOL    HW173587   5.084   9.856   7.889  1.0510 -2.2787  1.8866
23860SOL    HW273588   5.123   9.969   7.983 -0.8110  1.3576 -1.4323
23861SOL     OW73589   1.334   5.016   7.730 -0.3428  0.0459 -0.1023
23861SOL    HW173590   1.407   5.077   7.733 -1.3607  1.2647  0.9562
23861SOL    HW273591   1.291   5.026   7.815 -1.1387 -1.4060 -0.3034
23862SOL     OW73592   5.806  10.507   5.272 -0.0910  0.1450  0.0368
23862SOL    HW173593   5.760  10.586   5.243  0.6117  0.1466 -1.1428
23862SOL    HW273594   5.766  10.486   5.357 -2.7853 -0.2741 -1.2275
23863SOL     OW73595   2.422   8.485   9.067 -0.2715  0.3400 -0.2122
23863SOL    HW173596   2.350   8.433   9.031 -0.4486 -0.2282  0.9262
23863SOL    HW273597   2.495   8.471   9.007 -0.5809 -0.5099 -0.3965
23864SOL     OW73598   6.650   2.071   0.579  0.0105 -0.3605 -0.6118
23864SOL    HW173599   6.670   2.028   0.496 -3.1581 -0.1059 -1.6463
23864SOL    HW273600   6.628   2.000   0.639  2.0486 -0.5288 -0.0111
23865SOL     OW73601  10.352   7.235   3.619 -0.3704 -0.4727  0.2821
23865SOL    HW173602  10.445   7.237   3.642 -0.3165 -0.0742  0.0351
23865SOL    HW273603  10.337   7.146   3.588 -0.4520 -1.0646  1.8948
23866SOL     OW73604   4.188   8.684   1.153  0.1033 -0.1190 -0.3054
23866SOL    HW173605   4.112   8.702   1.097 -1.5753 -0.3391  1.7754
23866SOL    HW273606   4.156   8.698   1.242  2.3039 -0.9903  0.6916
23867SOL     OW73607   3.652   5.954   7.480  0.0537 -0.1889 -0.2465
23867SOL    HW173608   3.621   5.989   7.397  0.2010  0.3186 -0.0932
23867SOL    HW273609   3.573   5.942   7.532  0.0334  0.3659 -0.1366
23868SOL     OW73610   9.219   3.974   6.726 -0.5952  0.1713 -0.7194
23868SOL    HW173611   9.206   4.066   6.749 -1.1263  0.4962 -2.1673
23868SOL    HW273612   9.138   3.931   6.752 -0.2930  0.0666  0.0862
23869SOL     OW73613   1.935   9.401   6.664 -0.4441 -0.2205  0.8065
23869SOL    HW173614   1.878   9.441   6.729 -0.0245  0.5919  0.6920
23869SOL    HW273615   2.024   9.419   6.696 -0.2413 -0.5520  0.4448
23870SOL     OW73616   6.015   7.574   7.853 -0.4731  0.0369  0.2011
23870SOL    HW173617   6.021   7.484   7.884 -3.5525 -0.8874 -1.3960
23870SOL    HW273618   5.968   7.568   7.770 -1.3939  3.1398  0.3357
23871SOL     OW73619   6.492   3.740   9.408  0.5192 -0.5076  0.2284
23871SOL    HW173620   6.563   3.733   9.345  1.5777  0.1893  1.2921
23871SOL    HW273621   6.484   3.834   9.425 -0.8222 -0.5559 -0.0409
23872SOL     OW73622  10.216   5.316   4.927  0.5259 -0.4252  0.4738
23872SOL    HW173623  10.276   5.349   4.859  0.3870 -1.2900 -0.0767
23872SOL    HW273624  10.169   5.394   4.956  0.6790 -0.0175 -0.3280
23873SOL     OW73625   4.020   9.469   3.528  0.1890 -0.1704  0.2905
23873SOL    HW173626   4.033   9.481   3.622 -0.2216 -0.6146  0.4084
23873SOL    HW273627   3.988   9.553   3.496 -1.7613 -0.6299  0.9289
23874SOL     OW73628   0.984   4.995   2.706 -0.8464 -0.1308  0.8310
23874SOL    HW173629   1.015   5.011   2.795 -0.0855  1.5758  0.2909
23874SOL    HW273630   1.063   4.981   2.655 -1.2638 -0.7858  0.3415
23875SOL     OW73631   4.014   2.939   5.235 -0.0496 -0.2674 -0.0529
23875SOL    HW173632   3.952   2.990   5.287 -0.1158 -1.9015  1.5883
23875SOL    HW273633   3.962   2.867   5.199  0.6065 -0.8710  0.1774
23876SOL     OW73634   1.707  10.049   7.727 -0.9874  0.0407 -0.1207
23876SOL    HW173635   1.699   9.990   7.802 -0.0968  0.8625  0.6420
23876SOL    HW273636   1.801  10.055   7.711 -1.1020  0.8024 -0.5608
23877SOL     OW73637   6.387   2.436   9.987 -0.1656  0.2534  1.1815
23877SOL    HW173638   6.379   2.532   9.987 -2.1576  0.1216  2.0173
23877SOL    HW273639   6.417   2.416   9.898  2.0401  1.7227  1.4941
23878SOL     OW73640   1.948   9.399   6.404  0.1211 -0.6892 -0.4320
23878SOL    HW173641   2.032   9.357   6.388 -0.1071 -2.1722  1.8404
23878SOL    HW273642   1.938   9.398   6.499 -3.8921 -3.6546 -0.6303
23879SOL     OW73643  10.777   5.131   1.034  0.2277  0.0412  0.1683
23879SOL    HW173644  10.783   5.226   1.036  2.9116 -0.0725  0.9966
23879SOL    HW273645  10.756   5.106   1.124 -1.3111 -0.1594 -0.2178
23880SOL     OW73646   8.097   0.346   1.666 -0.4344 -0.2244 -0.0820
23880SOL    HW173647   8.175   0.394   1.694 -0.3723 -0.7355  0.6215
23880SOL    HW273648   8.069   0.391   1.586  1.2742 -0.7766 -1.0189
23881SOL     OW73649   9.579   1.567   6.408  0.2753 -0.2279  0.2332
23881SOL    HW173650   9.590   1.646   6.355  0.8698 -1.4940 -1.6221
23881SOL    HW273651   9.633   1.501   6.365 -0.3251 -1.7093  1.6326
23882SOL     OW73652   4.969   2.401   5.023  0.1361 -0.0417 -0.4465
23882SOL    HW173653   4.974   2.410   4.928 -1.3466 -0.6720 -0.6205
23882SOL    HW273654   4.876   2.416   5.043 -0.0067 -2.0937  0.6375
23883SOL     OW73655   0.350   7.579   4.556  0.2681 -0.3966 -0.4671
23883SOL    HW173656   0.334   7.486   4.570  1.4891 -0.1305  3.8971
23883SOL    HW273657   0.435   7.596   4.596 -0.1177  2.7227 -0.6847
23884SOL     OW73658   1.641   6.526  10.818 -0.2301  0.5367  0.3542
23884SOL    HW173659   1.626   6.511  10.725 -3.1549  1.6234  0.5390
23884SOL    HW273660   1.578   6.470  10.862 -0.5920  1.8386  1.5662
23885SOL     OW73661  10.959   3.203  10.258  0.0959 -0.6040  0.1165
23885SOL    HW173662  10.951   3.149  10.180 -0.5654 -0.7562  0.2837
23885SOL    HW273663  10.905   3.158  10.324  0.7837 -0.5772  0.7115
23886SOL     OW73664   8.976   4.237  10.981 -0.0481 -0.2047  0.2207
23886SOL    HW173665   8.967   4.142  10.969 -0.1409 -0.1107 -0.5220
23886SOL    HW273666   8.903   4.261  11.039 -0.4254 -0.4884 -0.1294
23887SOL     OW73667   8.643   9.220   7.562  0.2049  0.1648  0.0013
23887SOL    HW173668   8.735   9.206   7.542  0.5575  0.0047  1.5574
23887SOL    HW273669   8.643   9.293   7.623 -0.5960 -0.4159  0.7268
23888SOL     OW73670   3.726   8.561   4.156 -0.0059  0.3580 -0.0807
23888SOL    HW173671   3.782   8.554   4.232 -0.5497 -0.9429  0.2149
23888SOL    HW273672   3.652   8.503   4.174  0.4822 -1.0160 -2.1456
23889SOL     OW73673   1.928   3.115   5.149 -0.3296  0.4241  0.0405
23889SOL    HW173674   1.984   3.103   5.072  0.8881  0.5071  0.8736
23889SOL    HW273675   1.841   3.131   5.113 -0.6154 -3.1054 -1.3067
23890SOL     OW73676   6.718   1.016   0.123 -0.3292  0.5382 -0.3697
23890SOL    HW173677   6.732   0.925   0.150  0.0054  0.1260 -1.8703
23890SOL    HW273678   6.667   1.054   0.195 -2.0164 -1.3012 -0.4969
23891SOL     OW73679   7.747   0.579   2.541  0.2850 -0.0590  0.1925
23891SOL    HW173680   7.804   0.502   2.548  1.7805  1.1092  1.2454
23891SOL    HW273681   7.754   0.605   2.449  1.8633  0.3399  0.3954
23892SOL     OW73682   3.293   4.824   2.609 -0.1582 -0.7359 -1.0148
23892SOL    HW173683   3.315   4.731   2.612 -1.8236 -1.1697  1.9536
23892SOL    HW273684   3.242   4.834   2.529 -1.5308 -2.8416 -0.4857
23893SOL     OW73685   1.703   2.582   5.908 -0.1570 -0.2819 -1.0293
23893SOL    HW173686   1.707   2.670   5.870  1.2664 -0.4505 -1.3333
23893SOL    HW273687   1.625   2.543   5.869 -0.7350  0.7837 -0.9953
23894SOL     OW73688   1.463   1.583   1.716 -0.3994  0.3275  0.1050
23894SOL    HW173689   1.404   1.532   1.660 -0.1400 -1.9612  1.7912
23894SOL    HW273690   1.409   1.657   1.744 -1.5154 -0.1429 -0.6935
23895SOL     OW73691   1.704   4.189  10.502 -0.2507 -0.1702 -0.0247
23895SOL    HW173692   1.649   4.201  10.425 -2.5767 -1.3330  1.3511
23895SOL    HW273693   1.773   4.129  10.472 -0.5585  0.1181 -1.4076
23896SOL     OW73694   7.433  10.060   0.646 -0.0845 -0.0586  0.8844
23896SOL    HW173695   7.516  10.109   0.645 -0.2562  0.2228  0.2363
23896SOL    HW273696   7.450   9.982   0.593 -0.1806 -0.0867  0.8956
23897SOL     OW73697   2.074   3.214   5.352 -0.5518  0.5866 -0.4705
23897SOL    HW173698   2.003   3.191   5.293 -0.2639  0.7799 -0.8919
23897SOL    HW273699   2.148   3.161   5.322 -0.8503 -0.5634  0.7407
23898SOL     OW73700   3.176   6.295   3.897  0.1177  0.1608 -0.3647
23898SOL    HW173701   3.243   6.313   3.963 -0.0146 -0.2535 -0.1197
23898SOL    HW273702   3.200   6.210   3.860  0.7679  0.8316 -1.5602
23899SOL     OW73703   9.822  10.664   6.703 -0.2470  0.2956  0.3202
23899SOL    HW173704   9.796  10.618   6.623  0.1274  1.4714 -0.5062
23899SOL    HW273705   9.845  10.594   6.764  2.2711 -0.6730 -1.5452
23900SOL     OW73706   1.144   6.111   7.233 -0.5338  0.0811  0.4427
23900SOL    HW173707   1.168   6.161   7.154 -2.6978 -0.7034 -0.7932
23900SOL    HW273708   1.206   6.038   7.234 -0.8546 -0.2357 -0.8983
23901SOL     OW73709   8.795   2.908   7.023  0.3407 -0.2173 -0.4229
23901SOL    HW173710   8.852   2.963   7.076 -1.3010  3.1720 -1.8390
23901SOL    HW273711   8.736   2.867   7.085  2.4500 -1.5965  0.7984
23902SOL     OW73712   4.079   2.446   0.404 -0.3363 -0.2515 -0.1412
23902SOL    HW173713   4.133   2.447   0.483 -1.6215 -1.8173  0.8025
23902SOL    HW273714   4.003   2.500   0.427 -0.3137  0.0008 -0.6395
23903SOL     OW73715   4.136  10.230   0.292 -0.2137  0.0822  0.9098
23903SOL    HW173716   4.191  10.297   0.332  2.5265 -1.3397 -0.1901
23903SOL    HW273717   4.083  10.276   0.227 -0.0897  1.4612  1.7576
23904SOL     OW73718   7.357   5.525   6.899 -0.1423  0.0811 -0.1506
23904SOL    HW173719   7.315   5.455   6.948  1.0943 -1.7461 -1.5888
23904SOL    HW273720   7.284   5.573   6.859 -1.0928  0.8198  2.2711
23905SOL     OW73721   3.902  10.773   3.683 -0.1359 -0.0602 -0.6213
23905SOL    HW173722   3.883  10.767   3.589 -0.3648 -0.4451 -0.5569
23905SOL    HW273723   3.997  10.771   3.689 -0.0122  2.3013 -0.9847
23906SOL     OW73724   7.507   2.849   1.698 -0.5963  0.5488  0.1281
23906SOL    HW173725   7.599   2.858   1.673 -0.7424 -0.2046 -0.7086
23906SOL    HW273726   7.508   2.859   1.793  0.3317  0.7157  0.1151
23907SOL     OW73727  10.287  10.734   1.108 -0.1546 -0.3041  0.1064
23907SOL    HW173728  10.302  10.754   1.015 -0.5963 -2.3018 -0.4502
23907SOL    HW273729  10.243  10.812   1.142 -2.0651 -0.3497 -1.9554
23908SOL     OW73730   5.885   7.588   0.721  0.1726  0.2124 -0.2947
23908SOL    HW173731   5.953   7.653   0.705 -1.0821  1.3031 -1.4781
23908SOL    HW273732   5.901   7.519   0.656  0.9172 -0.1976  0.3107
23909SOL     OW73733   3.797   5.817   6.481  0.1000 -0.1865 -0.4552
23909SOL    HW173734   3.778   5.911   6.487 -0.3636 -0.2962 -0.1051
23909SOL    HW273735   3.802   5.789   6.573 -1.8525 -0.9072 -0.5260
23910SOL     OW73736   1.958   1.595   7.060  0.0622  0.3226 -0.2247
23910SOL    HW173737   1.905   1.518   7.082  1.1977 -0.9974 -1.8740
23910SOL    HW273738   2.019   1.604   7.133 -0.3428 -0.0714  0.1715
23911SOL     OW73739   2.599   5.417   7.429 -0.2986 -0.1691  0.7084
23911SOL    HW173740   2.518   5.385   7.469  0.5660 -2.5075  0.7639
23911SOL    HW273741   2.663   5.416   7.501  0.0506  0.5339  0.4109
23912SOL     OW73742   1.208  10.476   3.259 -0.2686 -0.2423 -0.1635
23912SOL    HW173743   1.226  10.421   3.183 -1.9439 -0.8915 -0.1424
23912SOL    HW273744   1.279  10.457   3.320  1.3285  0.6074 -1.7006
23913SOL     OW73745   6.388   9.383   4.088  0.0276  0.1612  0.4969
23913SOL    HW173746   6.446   9.344   4.153  0.1482  1.3533  1.1261
23913SOL    HW273747   6.300   9.353   4.113  0.3215 -1.6712 -0.4793
23914SOL     OW73748   6.222   3.709   2.678  0.8567 -0.1393 -0.5789
23914SOL    HW173749   6.224   3.656   2.598 -0.5592 -0.7488 -0.2426
23914SOL    HW273750   6.300   3.682   2.727  3.1799  1.9994 -2.7803
23915SOL     OW73751   9.512   0.170   6.212  0.4031 -0.0651 -0.1566
23915SOL    HW173752   9.584   0.110   6.188 -1.4698 -2.4130 -0.2939
23915SOL    HW273753   9.511   0.169   6.307  0.2077 -0.5202 -0.1576
23916SOL     OW73754   9.908   3.492   7.287  0.6234 -0.5811  0.3012
23916SOL    HW173755   9.903   3.460   7.377  1.3465 -1.2943  0.1003
23916SOL    HW273756   9.983   3.445   7.249  0.0113 -0.6860 -0.8220
23917SOL     OW73757   4.660   4.696   0.327 -0.3289  0.3228 -0.0303
23917SOL    HW173758   4.721   4.680   0.399 -0.5382  0.4108  0.1678
23917SOL    HW273759   4.708   4.753   0.267 -0.3370  0.6691  0.2897
23918SOL     OW73760   9.435   5.503   6.412 -0.1792  0.3052  0.1559
23918SOL    HW173761   9.467   5.422   6.452  1.0776  0.9006  0.3904
23918SOL    HW273762   9.400   5.476   6.327  2.5210 -0.1792 -0.8838
23919SOL     OW73763   9.555   3.698   2.181 -0.0015  0.5235  0.4017
23919SOL    HW173764   9.640   3.739   2.193 -0.1327  0.9869 -0.2000
23919SOL    HW273765   9.561   3.653   2.097  0.1618 -0.7676  1.0805
23920SOL     OW73766   8.676   0.728   2.345  0.7858  0.3775 -0.2058
23920SOL    HW173767   8.748   0.761   2.398 -0.4015 -0.4060  2.0494
23920SOL    HW273768   8.629   0.807   2.317  0.9918  0.8035  0.6051
23921SOL     OW73769  10.840   9.867   5.630  0.2648  0.1642  0.2146
23921SOL    HW173770  10.753   9.893   5.659  0.6959  0.4741  1.2823
23921SOL    HW273771  10.848   9.903   5.541  0.1364  2.0657  0.9420
23922SOL     OW73772   2.499   8.987  10.678  0.7355 -0.0292 -0.2899
23922SOL    HW173773   2.425   8.975  10.618  1.9501  0.7196 -2.0101
23922SOL    HW273774   2.480   9.069  10.724  0.8648  0.5955 -1.3233
23923SOL     OW73775   0.334   5.930   1.144  0.1111  0.1546 -0.6591
23923SOL    HW173776   0.282   5.850   1.134  0.1447  0.3025 -2.2018
23923SOL    HW273777   0.295   5.992   1.082  0.8385  0.9535 -0.3437
23924SOL     OW73778   9.010   5.886   5.876  0.5632  0.1297 -0.0801
23924SOL    HW173779   9.084   5.827   5.886  0.3507 -0.2985 -0.8894
23924SOL    HW273780   8.951   5.864   5.948  0.7528 -0.2506 -0.0400
23925SOL     OW73781   0.308   9.156   1.952 -0.1166 -1.0875  0.2526
23925SOL    HW173782   0.274   9.171   1.864 -0.3826 -2.7454  0.0558
23925SOL    HW273783   0.322   9.244   1.987 -0.5229 -0.4026 -1.2361
23926SOL     OW73784  10.526  10.885   2.217 -0.1841 -0.7022  0.0190
23926SOL    HW173785  10.573  10.966   2.196 -0.4710 -0.7439 -0.8205
23926SOL    HW273786  10.545  10.870   2.310  0.8850 -0.3411 -0.1212
23927SOL     OW73787  10.904   7.300   6.113 -0.7882  0.4886  0.2705
23927SOL    HW173788  10.964   7.361   6.070  1.4327  0.0468  2.4918
23927SOL    HW273789  10.950   7.216   6.111 -2.8258 -0.6674 -0.7735
23928SOL     OW73790   4.911   1.293  10.662  0.1993 -0.6302  0.0780
23928SOL    HW173791   4.845   1.325  10.723  0.0615  1.6226 -1.1419
23928SOL    HW273792   4.991   1.288  10.713  0.0454  1.0007  0.5315
23929SOL     OW73793   8.481   3.998   4.809  0.2894  0.8371  0.1139
23929SOL    HW173794   8.447   4.044   4.732 -2.5191 -1.4083 -0.1585
23929SOL    HW273795   8.423   4.025   4.880  0.0443 -0.4668  0.4309
23930SOL     OW73796   1.361   8.887   5.099  0.1294  0.2708 -0.1046
23930SOL    HW173797   1.303   8.877   5.175  0.3417 -0.2110 -0.0004
23930SOL    HW273798   1.350   8.978   5.072 -0.7007  0.1875 -0.1027
23931SOL     OW73799   4.372  10.282   6.944  0.1475  0.1358  0.4573
23931SOL    HW173800   4.388  10.188   6.943 -0.5082 -0.0092  1.5860
23931SOL    HW273801   4.285  10.291   6.983 -0.1400  1.1762 -0.3560
23932SOL     OW73802   3.623   0.575   0.182 -0.1657  0.6765 -0.2044
23932SOL    HW173803   3.576   0.504   0.138 -1.9129  1.4255  0.3709
23932SOL    HW273804   3.708   0.577   0.139  0.0277 -1.8996 -0.1014
23933SOL     OW73805   2.752   4.538   5.044 -0.2115 -0.2266 -0.5785
23933SOL    HW173806   2.750   4.556   4.950  2.7871 -1.6797 -1.0641
23933SOL    HW273807   2.801   4.612   5.081  1.8295 -1.3621 -0.8194
23934SOL     OW73808   5.005   9.932   2.347 -0.0324  0.1351  0.1791
23934SOL    HW173809   5.029   9.840   2.351  0.7854  0.3778  1.0616
23934SOL    HW273810   4.916   9.935   2.383 -0.3639 -0.3918 -0.5640
23935SOL     OW73811  10.262   3.120   9.201  0.1843  0.6947  0.2662
23935SOL    HW173812  10.250   3.194   9.261  0.3407  0.2072  0.9031
23935SOL    HW273813  10.332   3.149   9.142  0.7253  0.7839  0.9434
23936SOL     OW73814   1.007   2.386   9.320  0.2975  0.5375  0.0158
23936SOL    HW173815   0.944   2.381   9.393  0.8368 -1.6544  0.3910
23936SOL    HW273816   0.979   2.317   9.260  3.0516 -1.4627  0.8340
23937SOL     OW73817   7.895   8.268   1.503  0.1396  0.3887  0.0798
23937SOL    HW173818   7.956   8.342   1.503  1.9936 -1.0355 -1.2343
23937SOL    HW273819   7.939   8.201   1.554 -1.0936 -0.1412  0.4811
23938SOL     OW73820  10.117   7.066   4.750  0.2268  0.0343  0.8325
23938SOL    HW173821  10.059   7.012   4.803  0.5726 -1.2270 -0.0180
23938SOL    HW273822  10.061   7.105   4.683 -0.0282  0.7705  1.4634
23939SOL     OW73823   7.076   4.884   1.968 -0.1277 -0.3666 -0.0515
23939SOL    HW173824   7.027   4.892   1.886 -0.8451  0.0631  0.4195
23939SOL    HW273825   7.157   4.932   1.952 -1.3312  1.9243  0.3212
23940SOL     OW73826  10.992  10.017  10.043 -0.0963 -0.3966  0.2505
23940SOL    HW173827  10.983  10.015  10.139 -1.0649 -0.2490  0.1754
23940SOL    HW273828  11.078  10.057  10.028 -1.0783  2.2006  1.0374
23941SOL     OW73829   5.930   5.175   5.102 -0.3059 -0.0756 -0.0482
23941SOL    HW173830   5.878   5.116   5.047 -0.8505 -0.6872  1.0798
23941SOL    HW273831   5.902   5.262   5.076 -2.6177 -0.3762  1.0890
23942SOL     OW73832   9.152   7.854   8.083 -0.4139 -0.4340 -0.3310
23942SOL    HW173833   9.221   7.918   8.100  0.4191 -1.0951 -1.1336
23942SOL    HW273834   9.074   7.892   8.123  0.3133  0.5343  0.2114
23943SOL     OW73835   3.432   4.024   3.130 -0.0145 -0.6970 -0.1804
23943SOL    HW173836   3.473   4.018   3.043 -0.0491 -0.8669 -0.1859
23943SOL    HW273837   3.344   4.056   3.113 -0.1526 -1.1006 -0.2482
23944SOL     OW73838   8.860  10.348   0.979 -0.4314  0.3631  0.1668
23944SOL    HW173839   8.941  10.377   1.021 -0.4188 -0.3977  0.7017
23944SOL    HW273840   8.881  10.261   0.945 -1.2542 -0.2071  1.0604
23945SOL     OW73841   2.248   2.496   2.666 -0.8088 -0.4236  0.2979
23945SOL    HW173842   2.329   2.481   2.616 -0.5262  1.0988  0.2440
23945SOL    HW273843   2.223   2.409   2.698  1.2008 -0.8481  0.8596
23946SOL     OW73844   3.080   7.463   9.321 -0.3737  0.3012  0.0812
23946SOL    HW173845   3.060   7.469   9.414 -1.4502 -1.0395 -0.0324
23946SOL    HW273846   3.095   7.554   9.294  1.0740  0.6198  1.7612
23947SOL     OW73847   7.433   3.514   6.641 -0.3481 -0.2258 -0.3728
23947SOL    HW173848   7.370   3.580   6.613  0.5416  0.9429  0.2825
23947SOL    HW273849   7.407   3.491   6.730  1.4823  2.0723  0.8596
23948SOL     OW73850   3.491   9.741  10.599 -0.0054 -0.2367  0.3399
23948SOL    HW173851   3.401   9.773  10.592 -0.4395 -1.2355  1.1491
23948SOL    HW273852   3.544   9.808  10.553 -1.2877 -0.3409 -1.3910
23949SOL     OW73853   3.932   5.225   6.160 -0.1066 -0.1277  0.2854
23949SOL    HW173854   3.893   5.139   6.174  0.8508 -0.8313 -1.1287
23949SOL    HW273855   3.935   5.235   6.065  1.6846  0.5545  0.3749
23950SOL     OW73856   3.655   0.158   1.975  0.3165  0.4491  0.0540
23950SOL    HW173857   3.699   0.076   1.998  0.4382  0.4731 -0.0906
23950SOL    HW273858   3.705   0.192   1.901  0.1765  0.5795  0.0186
23951SOL     OW73859   2.434  10.283  10.643  0.5268 -0.0823 -0.1748
23951SOL    HW173860   2.437  10.327  10.728  0.5390 -0.4002 -0.0065
23951SOL    HW273861   2.372  10.211  10.656  1.2335 -0.7026 -0.1516
23952SOL     OW73862   6.646   5.238   3.336 -0.2241  0.6685  0.3547
23952SOL    HW173863   6.555   5.241   3.363 -0.6291  0.2786 -0.9066
23952SOL    HW273864   6.676   5.329   3.341 -0.9841  0.9578 -0.1750
23953SOL     OW73865   0.828   8.506   8.958  0.1143  0.1872 -0.6976
23953SOL    HW173866   0.857   8.584   8.910  0.0366  0.3288 -0.5208
23953SOL    HW273867   0.733   8.509   8.953  0.1344 -0.3336 -1.3648
23954SOL     OW73868   7.787   1.143   7.439  0.3598  0.7461  0.3490
23954SOL    HW173869   7.740   1.225   7.453 -0.9333  0.1502 -0.3053
23954SOL    HW273870   7.788   1.102   7.526  1.5515  1.7028  0.8097
23955SOL     OW73871   3.248   6.373   9.550 -0.4324 -0.3187  0.5810
23955SOL    HW173872   3.226   6.458   9.587  0.9268  0.4404 -0.2837
23955SOL    HW273873   3.312   6.336   9.612  1.8305  0.9450 -0.8676
23956SOL     OW73874   2.535   2.975   5.013  0.3648  0.1916  0.3118
23956SOL    HW173875   2.527   2.880   5.011 -0.4358  0.2704 -0.6965
23956SOL    HW273876   2.534   3.002   4.922  1.1360  1.1354  0.5673
23957SOL     OW73877   0.352   0.800   0.170  0.3336  0.3705 -0.5361
23957SOL    HW173878   0.295   0.831   0.241  0.8399 -0.5125  0.2809
23957SOL    HW273879   0.304   0.726   0.132  0.8402 -0.2751  0.0519
23958SOL     OW73880   2.573   4.629   3.278  0.1103 -0.3526 -0.0488
23958SOL    HW173881   2.602   4.709   3.320 -0.3175 -0.8102  1.1824
23958SOL    HW273882   2.642   4.607   3.216  1.0559  0.0413  0.8419
23959SOL     OW73883   6.995   1.609   8.135  0.1518  0.3048  0.0363
23959SOL    HW173884   6.948   1.530   8.161  0.0434  0.0439 -0.9426
23959SOL    HW273885   6.926   1.674   8.122  0.3136  1.0599  2.3552
23960SOL     OW73886   9.544   3.795   7.051  0.1472 -0.4938  0.4425
23960SOL    HW173887   9.499   3.770   7.131  0.4189 -0.1572  0.7053
23960SOL    HW273888   9.582   3.714   7.018 -0.7079 -0.7871  0.1787
23961SOL     OW73889   2.532   6.399   7.906  0.3792  0.0959  0.0229
23961SOL    HW173890   2.579   6.478   7.878 -2.2339  1.5722 -0.5930
23961SOL    HW273891   2.511   6.415   7.998 -0.0348  0.0880 -0.0663
23962SOL     OW73892  10.700   4.920   0.868 -0.0281  0.0376 -0.1935
23962SOL    HW173893  10.783   4.884   0.900 -0.3725 -0.6315 -0.0490
23962SOL    HW273894  10.688   5.000   0.919 -0.4980 -0.9387  1.2779
23963SOL     OW73895   7.138   6.171   3.975  0.3902 -0.3173  0.0033
23963SOL    HW173896   7.162   6.094   3.924 -1.1482 -0.1323 -1.0843
23963SOL    HW273897   7.136   6.140   4.066 -1.2288 -1.8880 -0.5062
23964SOL     OW73898   9.582   9.761   6.892 -0.6232 -0.4824 -0.2051
23964SOL    HW173899   9.585   9.778   6.798 -2.5675 -1.4077 -0.4810
23964SOL    HW273900   9.550   9.843   6.930  1.7768  0.4860 -0.0949
23965SOL     OW73901   2.440   2.920   2.389  0.4919  0.2283  0.4520
23965SOL    HW173902   2.443   2.848   2.451  0.3610 -0.3199 -0.1738
23965SOL    HW273903   2.517   2.907   2.333  1.1732  1.2842  1.1156
23966SOL     OW73904   1.224   0.707   6.630 -0.6034 -0.2748 -0.4333
23966SOL    HW173905   1.305   0.742   6.668 -0.2986  0.2116 -1.4920
23966SOL    HW273906   1.173   0.678   6.705  1.6004 -2.9635  0.2309
23967SOL     OW73907  10.888   2.580  10.691 -0.8599  0.4242  0.5791
23967SOL    HW173908  10.822   2.512  10.700 -0.5722  0.0793  0.1224
23967SOL    HW273909  10.971   2.534  10.703 -0.3920 -0.1050 -3.3597
23968SOL     OW73910   2.467   2.083   0.774  0.5120 -0.2112  0.5911
23968SOL    HW173911   2.372   2.087   0.784  0.4714  0.2559  0.0805
23968SOL    HW273912   2.488   2.157   0.717  1.0406 -1.0803 -0.3783
23969SOL     OW73913   3.443   0.158  10.901 -0.7927 -0.6721  0.6867
23969SOL    HW173914   3.462   0.113  10.984  2.0477 -0.4656  0.2632
23969SOL    HW273915   3.440   0.250  10.924 -0.6147 -0.6633  0.6819
23970SOL     OW73916  10.789  10.580   7.193  0.2435 -0.0615  1.1615
23970SOL    HW173917  10.874  10.614   7.220  1.5644 -2.1735 -0.0419
23970SOL    HW273918  10.769  10.513   7.258 -0.1318 -0.0895  1.0176
23971SOL     OW73919   8.647   7.983   1.826 -0.0552  0.3170 -0.0548
23971SOL    HW173920   8.667   8.031   1.746 -0.0312  1.6069  0.6881
23971SOL    HW273921   8.731   7.973   1.870 -0.2766  1.0404  0.5556
23972SOL     OW73922   6.200   0.372   5.732  0.0048 -0.4653 -0.0537
23972SOL    HW173923   6.272   0.405   5.785 -0.9337 -0.3876  1.2250
23972SOL    HW273924   6.157   0.306   5.787 -2.1594  0.9790  0.1037
23973SOL     OW73925   1.573   0.014   0.334  0.3887 -0.3644  0.3656
23973SOL    HW173926   1.660   0.022   0.297 -0.5088 -2.0205 -2.3993
23973SOL    HW273927   1.569  -0.076   0.369 -0.1516 -0.2478  0.6285
23974SOL     OW73928   1.997   8.259   0.711  0.0161 -0.4924 -0.0123
23974SOL    HW173929   1.905   8.280   0.696 -0.0239 -0.1909  0.6219
23974SOL    HW273930   1.995   8.169   0.745  0.0303 -0.8049 -0.8132
23975SOL     OW73931   4.068   2.323   2.966  0.0927 -0.1590  0.2837
23975SOL    HW173932   4.135   2.254   2.961  0.5147  0.2578  0.0727
23975SOL    HW273933   3.990   2.279   3.000  0.5050 -0.6314  0.6314
23976SOL     OW73934   8.321   8.603   2.366 -0.2370  0.2160  0.0409
23976SOL    HW173935   8.260   8.640   2.429  1.6810 -0.0979  2.2226
23976SOL    HW273936   8.318   8.509   2.381  0.4965  0.1648 -0.0835
23977SOL     OW73937   8.430  10.419   8.058 -0.0352  0.6199  0.6231
23977SOL    HW173938   8.483  10.497   8.075  0.1658  0.4717  0.6880
23977SOL    HW273939   8.344  10.453   8.032  0.1912  0.8685  0.1835
23978SOL     OW73940   1.628   4.062   7.490  0.1387 -0.4219  0.9853
23978SOL    HW173941   1.611   3.995   7.556  0.1324 -0.9280  0.4765
23978SOL    HW273942   1.573   4.037   7.416 -2.2315  1.7952  1.8365
23979SOL     OW73943   6.873   9.448   2.522 -0.5777  0.4108  0.0229
23979SOL    HW173944   6.834   9.518   2.575 -1.1666  0.1002  0.0079
23979SOL    HW273945   6.826   9.369   2.548  0.4248 -0.0746  0.3956
23980SOL     OW73946   5.707  11.014   7.943 -0.5569  0.7335  0.1578
23980SOL    HW173947   5.772  11.007   8.013 -0.4095 -0.7376 -0.1045
23980SOL    HW273948   5.756  10.996   7.863 -1.3613 -0.9270  0.0010
23981SOL     OW73949   7.463   3.047   5.611  0.1137  0.1911  0.6749
23981SOL    HW173950   7.558   3.038   5.602  0.0771  0.6680 -0.5043
23981SOL    HW273951   7.448   3.057   5.705  1.1164 -0.9980  0.9892
23982SOL     OW73952   8.653   8.996   5.359  0.1768 -0.3903  0.3496
23982SOL    HW173953   8.603   8.935   5.305  2.8101 -1.5023 -1.0153
23982SOL    HW273954   8.669   8.949   5.441 -1.4257  0.2020  1.0345
23983SOL     OW73955   6.083   6.331   5.543 -0.6466  0.6996  0.7559
23983SOL    HW173956   6.130   6.386   5.480 -0.0876 -1.3710 -0.7377
23983SOL    HW273957   5.991   6.355   5.531 -0.3514  1.9598  0.8430
23984SOL     OW73958   6.603   1.245   1.588  0.2220 -0.6802  0.2264
23984SOL    HW173959   6.691   1.264   1.556  1.0712 -2.0162  1.6440
23984SOL    HW273960   6.612   1.243   1.684 -1.0379 -2.1325  0.3583
23985SOL     OW73961   3.808   6.198   8.339 -0.4580 -0.0995 -0.4918
23985SOL    HW173962   3.837   6.265   8.400 -0.4724  0.7931 -1.4351
23985SOL    HW273963   3.816   6.116   8.388  0.9560  0.4181  0.2118
23986SOL     OW73964   6.499   0.955   2.563 -0.4194 -0.4771 -0.1616
23986SOL    HW173965   6.414   0.929   2.599 -0.2493  0.5386  1.0266
23986SOL    HW273966   6.478   1.008   2.486 -0.8369 -0.8178 -0.2872
23987SOL     OW73967   1.043   6.957   3.589  0.2776  0.1856  0.0360
23987SOL    HW173968   1.093   6.928   3.513  0.3589  2.7077 -0.9921
23987SOL    HW273969   1.091   7.033   3.621 -1.2595  0.8530  0.8728
23988SOL     OW73970   6.929   8.398   9.718  0.1342 -0.5251 -0.0469
23988SOL    HW173971   6.849   8.418   9.669  0.0091  0.5025  0.5502
23988SOL    HW273972   6.986   8.356   9.654 -0.5911 -0.5734 -0.6792
23989SOL     OW73973   6.507   6.068  10.393  0.1912  0.6756  0.0568
23989SOL    HW173974   6.529   5.975  10.390  0.1096  0.6546  0.1011
23989SOL    HW273975   6.569   6.109  10.332  0.1643  0.5794 -0.0369
23990SOL     OW73976   0.404   4.380   1.148 -0.0884 -0.0803 -0.2488
23990SOL    HW173977   0.349   4.306   1.124  0.0830 -0.0926 -0.6119
23990SOL    HW273978   0.492   4.356   1.119 -0.0888  0.3932 -0.6683
23991SOL     OW73979   6.298   9.032   1.822  0.1512  0.3423  0.3523
23991SOL    HW173980   6.379   8.992   1.790  0.8177 -0.1720  2.4957
23991SOL    HW273981   6.232   9.009   1.757  1.1682 -1.6289 -0.0465
23992SOL     OW73982  10.838   4.492   7.000  0.3416  0.0019  0.6504
23992SOL    HW173983  10.786   4.566   7.032 -0.9794 -0.3958 -0.4832
23992SOL    HW273984  10.884   4.527   6.923 -0.8543 -0.5101 -0.3294
23993SOL     OW73985   4.498   4.805   4.216  0.3160 -0.0752 -0.1140
23993SOL    HW173986   4.430   4.749   4.253  0.2661 -0.9960 -1.5194
23993SOL    HW273987   4.453   4.856   4.148  1.4859 -3.1031 -3.4917
23994SOL     OW73988   4.053   9.106   8.343  0.0332 -0.0220  0.1875
23994SOL    HW173989   3.991   9.086   8.272  0.2105 -1.2663  0.3511
23994SOL    HW273990   4.086   9.193   8.322 -3.1054  1.5618  1.0867
23995SOL     OW73991   3.162   1.198   4.436 -0.0595  0.1803 -0.3349
23995SOL    HW173992   3.153   1.203   4.531  0.4573 -1.2364 -0.1832
23995SOL    HW273993   3.229   1.262   4.415  0.0979  0.2364  0.3124
23996SOL     OW73994   3.653   7.571   1.803  0.0795  0.3428  0.4825
23996SOL    HW173995   3.582   7.634   1.795 -1.0711 -1.0704 -1.2250
23996SOL    HW273996   3.715   7.612   1.863 -1.3346  2.3874  0.6434
23997SOL     OW73997   4.238   6.221   4.742  0.1180 -0.0130 -0.2324
23997SOL    HW173998   4.163   6.280   4.740  0.2100  0.1757  0.9005
23997SOL    HW273999   4.298   6.262   4.804  0.5391 -0.8830 -0.0593
23998SOL     OW74000   0.837   0.668   6.370  0.3561  0.2958 -0.2081
23998SOL    HW174001   0.913   0.723   6.390 -0.1761  1.2248 -0.6399
23998SOL    HW274002   0.868   0.578   6.381  1.9999  0.5662 -2.0025
23999SOL     OW74003   1.861   1.483   3.337 -0.7390  0.3521 -0.3667
23999SOL    HW174004   1.836   1.562   3.385  0.0785  0.3933  0.0042
23999SOL    HW274005   1.847   1.505   3.245  0.8594  1.4697 -0.3915
24000SOL     OW74006   4.477   6.378   5.543 -0.0658 -0.3491 -0.1809
24000SOL    HW174007   4.424   6.441   5.494 -0.6407 -0.2365  0.5699
24000SOL    HW274008   4.548   6.431   5.581 -0.6957 -0.0949  0.6651
24001SOL     OW74009   8.548   5.349   2.883  0.3621  0.4294  0.1558
24001SOL    HW174010   8.532   5.256   2.895 -1.6158  0.8056  0.7506
24001SOL    HW274011   8.542   5.362   2.788 -0.6223  0.1592  0.1784
24002SOL     OW74012   1.953   9.739   4.857 -0.1773  0.4807  0.1759
24002SOL    HW174013   1.899   9.808   4.896 -1.0036  0.1344 -0.3308
24002SOL    HW274014   2.033   9.738   4.911 -0.5975  1.1125  0.8333
24003SOL     OW74015   0.558  10.645   0.211 -0.2355 -0.1855 -0.2246
24003SOL    HW174016   0.477  10.696   0.205 -0.9577 -1.1361  0.7898
24003SOL    HW274017   0.530  10.561   0.250  1.2596 -0.4837  0.2802
24004SOL     OW74018   3.865   5.260   5.901 -0.0230  0.2046 -0.4208
24004SOL    HW174019   3.792   5.313   5.932 -0.1714  0.1845 -0.7401
24004SOL    HW274020   3.826   5.193   5.845 -0.0974 -1.5819  1.6171
24005SOL     OW74021   4.912   4.675   5.490 -0.2071  0.3438 -0.2186
24005SOL    HW174022   4.985   4.737   5.491 -0.0795  0.2003 -0.6123
24005SOL    HW274023   4.954   4.589   5.501 -0.4366  0.3738  1.0077
24006SOL     OW74024   4.445   3.734   0.157  0.3095 -0.0585  0.5340
24006SOL    HW174025   4.419   3.677   0.229  0.6547  1.3970  1.8531
24006SOL    HW274026   4.438   3.822   0.192 -0.2070  0.7357 -1.4665
24007SOL     OW74027   4.636   9.436   1.923 -0.0313 -0.1864 -0.2994
24007SOL    HW174028   4.590   9.477   1.996 -1.0651  0.0519 -1.0558
24007SOL    HW274029   4.597   9.349   1.916 -0.8576  0.2434 -1.3468
24008SOL     OW74030   9.338   8.521   7.770 -0.0800  0.7978 -0.0064
24008SOL    HW174031   9.415   8.533   7.825  1.5797  1.2500 -2.2593
24008SOL    HW274032   9.317   8.609   7.739 -0.6424  0.5043 -0.4818
24009SOL     OW74033   2.612   7.985   5.749 -0.1183 -0.6185  0.0928
24009SOL    HW174034   2.602   7.906   5.697  0.7844 -0.5918 -0.1407
24009SOL    HW274035   2.611   8.056   5.685 -1.3326 -0.4000  0.3384
24010SOL     OW74036   9.870   6.004   0.197  1.0514 -0.1016 -0.2060
24010SOL    HW174037   9.951   5.993   0.246  0.7525  0.5648  0.4592
24010SOL    HW274038   9.870   6.096   0.171  0.9579 -0.3273 -1.0173
24011SOL     OW74039   7.028   5.061   3.601  0.1499  0.2521 -0.1960
24011SOL    HW174040   7.018   5.154   3.623 -0.4208  0.7793 -2.4790
24011SOL    HW274041   6.950   5.019   3.639 -0.5012  1.0045 -0.6693
24012SOL     OW74042   2.436   7.041   1.371  0.1483 -0.2000 -0.0761
24012SOL    HW174043   2.521   6.997   1.378  1.3719  2.1465  1.3780
24012SOL    HW274044   2.455   7.117   1.316 -1.1495  0.0931 -0.1314
24013SOL     OW74045   1.042   1.438  10.998  0.7322  0.2931  0.4911
24013SOL    HW174046   1.009   1.371  10.938  0.7739  1.1757 -0.5655
24013SOL    HW274047   1.133   1.413  11.013  0.4626 -0.4560  0.9630
24014SOL     OW74048   3.151   7.959   0.383 -0.2819 -0.2661  0.2054
24014SOL    HW174049   3.086   7.890   0.383 -0.1430 -0.4463 -1.7527
24014SOL    HW274050   3.215   7.933   0.317  0.7079  0.8798  0.6584
24015SOL     OW74051   5.843   1.885   3.408  0.1964 -0.4076 -0.1549
24015SOL    HW174052   5.751   1.906   3.394  0.3059  0.6971  0.6608
24015SOL    HW274053   5.889   1.934   3.340  0.5149  2.9034  2.1757
24016SOL     OW74054   6.284   0.759   8.980 -0.1162 -0.0862 -0.3159
24016SOL    HW174055   6.355   0.737   9.040  0.5593 -1.0597 -1.4209
24016SOL    HW274056   6.211   0.785   9.036  1.2371  1.3872  0.8331
24017SOL     OW74057   1.786   2.358   3.680 -0.4860 -0.1305  0.6015
24017SOL    HW174058   1.807   2.374   3.772  0.8003  1.0400  0.1409
24017SOL    HW274059   1.758   2.443   3.647  1.6212  0.1254 -0.7009
24018SOL     OW74060   3.890   5.256   5.138 -0.0438 -0.5496 -0.1755
24018SOL    HW174061   3.943   5.188   5.180  1.9510 -0.9699 -3.1033
24018SOL    HW274062   3.844   5.211   5.067 -0.0737  0.8063 -1.0694
24019SOL     OW74063   3.784   1.794   7.713 -0.2225  0.3008 -0.1934
24019SOL    HW174064   3.738   1.876   7.730 -0.5827  0.1431 -0.3946
24019SOL    HW274065   3.821   1.769   7.797  1.0087  1.3519 -0.3997
24020SOL     OW74066   5.238   1.852   4.454 -0.0318  0.1427  0.2715
24020SOL    HW174067   5.309   1.791   4.472  1.1593  1.7957  1.4282
24020SOL    HW274068   5.167   1.823   4.512 -0.3872 -1.5413 -0.9234
24021SOL     OW74069   8.862   7.541   9.759  0.0520 -0.1767  0.3502
24021SOL    HW174070   8.932   7.482   9.788 -0.1309 -0.5483  0.0455
24021SOL    HW274071   8.866   7.615   9.819 -0.3764 -0.9651  1.3811
24022SOL     OW74072   5.750   5.810   0.094  0.0965  0.2988  0.0286
24022SOL    HW174073   5.709   5.763   0.021 -0.4336  1.3139 -0.3442
24022SOL    HW274074   5.826   5.852   0.054  1.3821 -1.3129  0.6487
24023SOL     OW74075   1.696   8.686   1.610  0.5085 -0.4859  0.2738
24023SOL    HW174076   1.757   8.753   1.640 -0.2630  0.9813 -1.2276
24023SOL    HW274077   1.751   8.614   1.582  1.4206 -0.1179  1.0514
24024SOL     OW74078   9.241   4.010  10.041 -0.4256 -0.0832  0.5236
24024SOL    HW174079   9.234   3.965  10.126  1.3788  0.8664  1.2272
24024SOL    HW274080   9.330   3.992  10.012 -0.9133 -0.0947 -1.0247
24025SOL     OW74081   3.449   8.084   1.133  0.5351 -0.4482  0.4455
24025SOL    HW174082   3.461   8.070   1.039 -0.4180  1.3244  0.0300
24025SOL    HW274083   3.373   8.030   1.156 -0.8522  1.0777 -0.3753
24026SOL     OW74084   7.552   4.773   2.202 -0.7296  0.2237 -0.4098
24026SOL    HW174085   7.489   4.837   2.170 -1.5541 -1.0107 -1.3213
24026SOL    HW274086   7.555   4.705   2.135 -1.3831 -1.7096  1.3886
24027SOL     OW74087   0.128   8.406   6.201  0.1483 -0.3321  0.2292
24027SOL    HW174088   0.165   8.480   6.152 -0.8683  0.6195  0.8411
24027SOL    HW274089   0.201   8.370   6.249  0.5302  0.7752  0.5174
24028SOL     OW74090   2.011  10.266   7.447 -0.0946  0.5739 -0.3537
24028SOL    HW174091   1.950  10.287   7.377  0.3096 -0.1030 -0.9260
24028SOL    HW274092   2.072  10.339   7.449  0.3899  0.2047 -1.2872
24029SOL     OW74093   4.548   1.945   6.393  0.4442 -0.2158  0.0442
24029SOL    HW174094   4.558   1.851   6.411 -0.7239 -0.1105  1.4433
24029SOL    HW274095   4.502   1.949   6.309  1.5536 -0.8488 -0.6213
24030SOL     OW74096   4.137   2.727   4.243  0.3317  0.0582  0.1298
24030SOL    HW174097   4.166   2.636   4.244  0.9917  0.2581 -0.0944
24030SOL    HW274098   4.058   2.729   4.297 -0.0850 -0.7789 -0.4344
24031SOL     OW74099   9.250   9.459   9.225  0.2393 -0.2433 -0.0960
24031SOL    HW174100   9.248   9.551   9.249  0.3554 -0.3765  0.4334
24031SOL    HW274101   9.343   9.437   9.219  0.2191 -0.4835  0.4102
24032SOL     OW74102   3.031   6.276   3.659 -0.1008  0.5228  0.7833
24032SOL    HW174103   3.108   6.274   3.603  0.6177 -1.4305  1.7375
24032SOL    HW274104   3.066   6.291   3.747 -0.7500 -0.5978  1.2567
24033SOL     OW74105   5.521   6.089   7.194 -0.4589  0.2976 -0.0999
24033SOL    HW174106   5.533   5.994   7.185 -0.7413  0.2820 -0.3521
24033SOL    HW274107   5.553   6.125   7.111 -0.2539  0.4309  0.0379
24034SOL     OW74108   9.272   4.939   4.735 -0.4262  0.7462  0.1469
24034SOL    HW174109   9.243   4.883   4.663  0.7048  0.0968  0.1705
24034SOL    HW274110   9.203   5.004   4.744 -2.0040 -0.9109  0.4271
24035SOL     OW74111   6.696   1.344  10.818  0.4719  0.9015 -0.2319
24035SOL    HW174112   6.757   1.389  10.760  2.4516 -0.2492  0.8305
24035SOL    HW274113   6.729   1.362  10.906 -1.0409  0.6572  0.4188
24036SOL     OW74114   3.920   1.712   7.934  0.3899  0.5169  0.8125
24036SOL    HW174115   3.929   1.763   8.015  0.7439 -0.6784  1.5556
24036SOL    HW274116   4.008   1.712   7.897  0.3656  0.5454  0.7553
24037SOL     OW74117   9.851  10.421  10.200  0.1221  0.2651 -0.1065
24037SOL    HW174118   9.803  10.455  10.276  1.3224  1.0467  0.3469
24037SOL    HW274119   9.832  10.483  10.130  0.6256  0.7108  0.1384
24038SOL     OW74120   0.215   4.297  10.658  0.5985 -0.9582 -0.5017
24038SOL    HW174121   0.199   4.329  10.746  1.3067 -0.8339 -0.4164
24038SOL    HW274122   0.129   4.301  10.615  0.5816  0.6866 -0.3811
24039SOL     OW74123   7.242  10.337  10.032  0.2629  0.4784 -0.0550
24039SOL    HW174124   7.156  10.354  10.071  0.4124  1.0914  0.0221
24039SOL    HW274125   7.265  10.418   9.988  0.3123 -0.0539 -1.0298
24040SOL     OW74126   8.813   1.325   1.546  0.0405 -0.2709  0.3811
24040SOL    HW174127   8.763   1.336   1.627 -0.6617  0.6272 -0.1516
24040SOL    HW274128   8.845   1.414   1.526  1.1073 -0.6728  0.2352
24041SOL     OW74129   1.853   2.803   5.186  0.3758  0.8000 -0.2660
24041SOL    HW174130   1.815   2.827   5.271  1.2691  0.6082  0.2029
24041SOL    HW274131   1.933   2.856   5.180  0.2099  0.9635 -1.0852
24042SOL     OW74132   1.756   2.960   6.733  0.1664  0.4088 -0.6155
24042SOL    HW174133   1.799   2.877   6.713  0.9637  0.7559 -0.3737
24042SOL    HW274134   1.664   2.945   6.712 -0.0408 -1.1193  1.1269
24043SOL     OW74135  10.002   9.455   6.362  0.0581 -0.1055  0.2428
24043SOL    HW174136  10.025   9.535   6.314 -1.7819  0.6880  0.6276
24043SOL    HW274137   9.977   9.393   6.294  0.0562  0.1247  0.0321
24044SOL     OW74138   6.211   1.999   4.785 -0.6715  0.1762  0.1097
24044SOL    HW174139   6.150   2.071   4.769 -0.9754  0.2084  1.3070
24044SOL    HW274140   6.178   1.956   4.864  0.4406 -0.2571  0.3691
24045SOL     OW74141   4.294   8.307   9.150 -0.3764  0.3208  0.4904
24045SOL    HW174142   4.244   8.271   9.222 -0.7832  0.3878  0.2412
24045SOL    HW274143   4.260   8.396   9.138  0.8662  0.9464  1.3476
24046SOL     OW74144   4.965  10.446   9.178  0.3908  0.2184  0.2189
24046SOL    HW174145   5.012  10.495   9.111 -0.3931 -0.9607 -1.2444
24046SOL    HW274146   5.033  10.413   9.236  1.1566  0.5905 -0.4462
24047SOL     OW74147   9.930   1.626   4.639  0.0141  0.4579  0.2905
24047SOL    HW174148   9.951   1.602   4.549 -0.1245 -1.5751  0.7540
24047SOL    HW274149  10.009   1.669   4.671 -0.1167  1.6641 -0.9254
24048SOL     OW74150   1.997   5.401   1.231  0.3063  0.0434 -0.9294
24048SOL    HW174151   1.940   5.331   1.199 -0.8666  0.4365  0.2135
24048SOL    HW274152   1.985   5.472   1.168 -1.2819  0.4833 -0.1972
24049SOL     OW74153   5.441   1.589  10.737 -0.4348  0.0258  0.6303
24049SOL    HW174154   5.355   1.578  10.780 -0.6945  0.9182  0.3655
24049SOL    HW274155   5.479   1.501  10.738 -0.6048 -0.0720  2.3290
24050SOL     OW74156   2.653   4.033   8.503  0.0784 -0.2096 -0.6613
24050SOL    HW174157   2.580   4.020   8.563 -0.5942  0.7788 -1.2320
24050SOL    HW274158   2.729   4.046   8.560 -0.5560  0.7558 -0.0014
24051SOL     OW74159   0.499  10.849   8.081  0.3999 -0.2387 -0.7971
24051SOL    HW174160   0.405  10.852   8.060  0.0953 -0.4904  0.4860
24051SOL    HW274161   0.533  10.932   8.046 -0.7729  0.9741  0.8233
24052SOL     OW74162   4.385   0.332  10.387 -0.0396 -0.5310 -0.2268
24052SOL    HW174163   4.464   0.299  10.431  0.3606 -0.0292 -0.5542
24052SOL    HW274164   4.419   0.381  10.312 -0.6435  0.0531 -0.1270
24053SOL     OW74165  10.051   0.580   6.431  0.0151 -0.5395 -0.0696
24053SOL    HW174166  10.134   0.583   6.383  0.2374 -3.4874 -0.0434
24053SOL    HW274167  10.040   0.670   6.464  4.4190 -0.4334  1.9562
24054SOL     OW74168   1.257   2.008   1.201  0.3105 -0.4387  0.2397
24054SOL    HW174169   1.251   2.019   1.106  1.8593  0.0579  0.1616
24054SOL    HW274170   1.189   2.065   1.236 -0.8514 -1.2846 -0.5824
24055SOL     OW74171   9.549   6.337   8.604  0.9429  0.4045 -0.4386
24055SOL    HW174172   9.505   6.369   8.525 -0.3004 -2.4776 -1.0444
24055SOL    HW274173   9.519   6.395   8.673  0.4864  1.7991 -1.7553
24056SOL     OW74174   1.320   4.119   7.150 -0.3106  0.5736  0.6864
24056SOL    HW174175   1.316   4.211   7.176  2.3566  0.3041  2.4241
24056SOL    HW274176   1.381   4.117   7.076  0.9080  0.0585  1.6783
24057SOL     OW74177   3.226   2.302   4.190 -0.3553  0.4047  0.0804
24057SOL    HW174178   3.224   2.279   4.097 -0.1645 -1.5207  0.4943
24057SOL    HW274179   3.212   2.396   4.192 -0.2886  0.5043 -1.9009
24058SOL     OW74180   0.530   2.585   8.654 -0.2580 -0.5260  0.3596
24058SOL    HW174181   0.605   2.642   8.669 -1.1520  0.6613  0.5116
24058SOL    HW274182   0.529   2.525   8.728 -0.5281  0.6704  1.3516
24059SOL     OW74183   8.523   9.183   3.886  0.2417  0.1951  0.3203
24059SOL    HW174184   8.440   9.157   3.926  0.5597 -0.0511  0.8472
24059SOL    HW274185   8.534   9.122   3.813 -1.1693  1.7279 -1.2552
24060SOL     OW74186  10.321   5.505   9.599 -0.1228  0.5890  0.0178
24060SOL    HW174187  10.390   5.475   9.658  0.8247  2.6898  0.0543
24060SOL    HW274188  10.269   5.567   9.651  0.8052  2.5754 -1.2948
24061SOL     OW74189  10.192   1.282   3.484  0.7653 -0.0205 -0.3723
24061SOL    HW174190  10.109   1.308   3.445  1.1383  0.9877 -0.5311
24061SOL    HW274191  10.257   1.295   3.414  1.0398 -1.0100 -0.3256
24062SOL     OW74192   7.264   6.965   0.814  0.3320  0.3351  0.8117
24062SOL    HW174193   7.263   6.923   0.728  1.6010  0.7064  0.5976
24062SOL    HW274194   7.185   6.932   0.858  0.0880 -0.4650 -0.1963
24063SOL     OW74195  10.983   3.493  10.276  0.0196  0.4520 -0.1897
24063SOL    HW174196  10.967   3.531  10.189  1.2974 -0.4431 -0.8570
24063SOL    HW274197  10.987   3.398  10.260  0.6641  0.3002  0.7824
24064SOL     OW74198   4.444   9.262   4.299  0.1329  0.2897 -0.0238
24064SOL    HW174199   4.508   9.313   4.249  0.6201 -1.8929 -1.8271
24064SOL    HW274200   4.492   9.234   4.377  0.9793 -0.1516 -0.6723
24065SOL     OW74201   3.415   8.768   7.641  0.4190 -0.0827 -0.5762
24065SOL    HW174202   3.358   8.727   7.707 -0.9878  0.9415 -1.1031
24065SOL    HW274203   3.409   8.710   7.565 -0.8320  0.5509 -0.9996
24066SOL     OW74204   3.931   5.932   7.098 -0.4452  0.5719  0.0726
24066SOL    HW174205   3.960   5.997   7.161 -0.8799  2.7741 -1.8499
24066SOL    HW274206   4.005   5.922   7.038 -0.8881  0.3506 -0.4428
24067SOL     OW74207   9.749  10.091   1.979 -0.6441 -0.1045  0.1594
24067SOL    HW174208   9.700  10.077   1.898  0.2613 -0.6759 -0.2983
24067SOL    HW274209   9.752  10.187   1.989  1.0876  0.1010 -1.6749
24068SOL     OW74210   0.036   3.458   4.396 -0.4832 -0.5422 -0.1104
24068SOL    HW174211   0.117   3.412   4.416  0.4496  1.6367  1.4360
24068SOL    HW274212  -0.026   3.428   4.463  0.0267  0.2092  0.7034
24069SOL     OW74213   0.832   6.157   7.356 -0.0894  0.3095  0.4018
24069SOL    HW174214   0.889   6.082   7.339  1.0282  0.6986  2.1730
24069SOL    HW274215   0.743   6.122   7.350  0.3900 -1.6483  2.8719
24070SOL     OW74216   9.894   0.126   4.526 -0.0241  0.1835 -0.0447
24070SOL    HW174217   9.799   0.122   4.534  0.0013 -1.7657 -0.3547
24070SOL    HW274218   9.919   0.203   4.577 -1.7343  0.5353  0.3032
24071SOL     OW74219   0.464   6.336   2.232 -0.6913 -0.0530  0.0619
24071SOL    HW174220   0.547   6.290   2.241 -0.6779 -0.0204  0.1086
24071SOL    HW274221   0.401   6.281   2.278 -0.3761  0.7857  1.5682
24072SOL     OW74222   4.270   9.911  11.020  0.4799  0.0588  0.3023
24072SOL    HW174223   4.313   9.931  10.937  1.6617 -2.1179  0.3374
24072SOL    HW274224   4.193   9.968  11.021  0.6552  0.4282 -2.0897
24073SOL     OW74225   1.257   4.598   9.415  0.4593  0.1764 -0.1442
24073SOL    HW174226   1.205   4.600   9.496  1.9052 -2.3463  0.9679
24073SOL    HW274227   1.194   4.574   9.347 -0.0362 -2.3431  1.0834
24074SOL     OW74228  10.916   5.032   2.578 -0.4102  0.6158 -0.3164
24074SOL    HW174229  10.983   5.070   2.520  1.1306 -1.6760 -0.1859
24074SOL    HW274230  10.833   5.068   2.546  0.7151  2.2820 -1.5550
24075SOL     OW74231   4.264   9.722   9.327  0.0580 -0.0920 -0.6182
24075SOL    HW174232   4.310   9.797   9.289 -0.4896  0.0496 -1.0198
24075SOL    HW274233   4.207   9.761   9.394 -2.1570  0.2204 -2.5533
24076SOL     OW74234   8.108  10.447   9.477  0.3817  0.0128 -0.0319
24076SOL    HW174235   8.029  10.427   9.426 -0.0215 -1.0196  0.9431
24076SOL    HW274236   8.078  10.444   9.568  1.9489 -2.5195  0.4932
24077SOL     OW74237   4.742   2.849  10.106  0.1514  0.8215  0.3777
24077SOL    HW174238   4.686   2.771  10.099 -0.6530  1.3773  0.5153
24077SOL    HW274239   4.710   2.908  10.037  1.0031  0.8873  0.0265
24078SOL     OW74240   8.126   8.296   6.439 -0.1800 -0.2879  0.7204
24078SOL    HW174241   8.102   8.215   6.483 -0.9113  0.1342  1.1145
24078SOL    HW274242   8.140   8.359   6.511  0.4866 -0.0954  0.4256
24079SOL     OW74243   9.841   0.880   4.560 -0.1236  0.1905 -0.9438
24079SOL    HW174244   9.906   0.892   4.629 -1.0679 -0.3575  0.0679
24079SOL    HW274245   9.847   0.787   4.538  1.0133  0.5899 -2.4902
24080SOL     OW74246   6.774   7.879   2.967 -0.1444 -0.9072 -0.0370
24080SOL    HW174247   6.759   7.972   2.985  0.6060 -0.6051 -0.9371
24080SOL    HW274248   6.769   7.838   3.053 -0.8624 -0.0921  0.3295
24081SOL     OW74249   2.906   2.142   8.025 -0.9631 -0.1108  0.3602
24081SOL    HW174250   2.982   2.166   8.078 -0.5848  0.9028 -0.6035
24081SOL    HW274251   2.852   2.221   8.022  0.3435  0.8267 -2.9245
24082SOL     OW74252   7.466   0.430   8.682 -0.2544 -0.0054 -0.2817
24082SOL    HW174253   7.497   0.407   8.770  2.1785  2.2351 -0.4258
24082SOL    HW274254   7.534   0.400   8.623  0.3613  2.4075 -0.9253
24083SOL     OW74255   1.450   1.705   0.041  0.3607  0.3636 -0.0686
24083SOL    HW174256   1.489   1.621   0.017  1.0723 -0.3811  3.2408
24083SOL    HW274257   1.525   1.760   0.064 -0.1085  1.9019 -1.9522
24084SOL     OW74258   5.391   4.628   3.142 -0.4250 -0.3339 -0.6677
24084SOL    HW174259   5.413   4.539   3.113 -0.5055  0.0915 -2.1596
24084SOL    HW274260   5.474   4.666   3.168  0.1634  0.1096 -2.9333
24085SOL     OW74261   5.742   6.794   6.678 -0.7357 -0.3731 -0.1856
24085SOL    HW174262   5.792   6.804   6.597 -0.5441 -3.3804 -0.5412
24085SOL    HW274263   5.652   6.817   6.655 -0.3681  0.5692 -0.7301
24086SOL     OW74264   2.810   3.629   0.086 -0.6142 -0.3916 -0.1311
24086SOL    HW174265   2.870   3.701   0.068  0.2782 -0.8107  1.0647
24086SOL    HW274266   2.779   3.646   0.175 -0.5936 -1.3496  0.0617
24087SOL     OW74267  10.119   6.943   1.150 -0.2362  0.0822  0.4826
24087SOL    HW174268  10.026   6.935   1.131 -0.6826 -0.8228  2.7989
24087SOL    HW274269  10.126   6.930   1.244  2.3726 -0.9272  0.2240
24088SOL     OW74270   9.280   9.088   4.060  0.1773  0.3726  0.0184
24088SOL    HW174271   9.236   9.004   4.044  1.7581 -0.3634 -0.6925
24088SOL    HW274272   9.345   9.068   4.128 -0.1342  1.2916  0.6072
24089SOL     OW74273   3.264   3.223   4.814 -0.3795  0.2303 -0.0093
24089SOL    HW174274   3.238   3.315   4.807  1.4578  0.6810 -1.9207
24089SOL    HW274275   3.274   3.208   4.908 -0.8860  1.9246  0.3560
24090SOL     OW74276  10.340   8.345   8.467 -0.6588 -0.1916  0.1092
24090SOL    HW174277  10.316   8.398   8.543 -2.1776  1.1664 -1.2525
24090SOL    HW274278  10.278   8.272   8.469 -0.9402  0.0448 -0.0410
24091SOL     OW74279   2.825   4.910   7.933  0.5527 -0.0270 -0.5436
24091SOL    HW174280   2.870   4.976   7.880  2.7365 -2.2955 -1.7291
24091SOL    HW274281   2.732   4.930   7.922  1.0505  1.5388 -2.6323
24092SOL     OW74282   6.760   0.011   7.815  0.2703 -0.1471  0.2185
24092SOL    HW174283   6.817  -0.049   7.767 -0.9609 -0.1722 -1.2667
24092SOL    HW274284   6.801   0.097   7.805  0.1107 -0.1795 -0.7452
24093SOL     OW74285   0.492   8.541  10.220  0.1451  0.1698 -0.5107
24093SOL    HW174286   0.578   8.501  10.234  0.7305  1.4665 -0.2485
24093SOL    HW274287   0.499   8.628  10.261 -0.2144  1.5873 -3.1930
24094SOL     OW74288   0.329   0.528   2.844 -0.1649  0.5318 -0.4920
24094SOL    HW174289   0.357   0.527   2.935 -0.7680 -2.1144 -0.2528
24094SOL    HW274290   0.381   0.596   2.803  2.3606 -0.2698  1.1873
24095SOL     OW74291   1.304   8.776   6.839  0.0095  0.1605 -0.1800
24095SOL    HW174292   1.356   8.747   6.763  0.0627  0.6455 -0.3338
24095SOL    HW274293   1.365   8.770   6.913  0.8150  2.2116 -0.5964
24096SOL     OW74294   9.375  10.922   9.077  0.3670  1.1468 -0.6005
24096SOL    HW174295   9.347  10.868   9.003  2.3699 -0.8419 -0.0201
24096SOL    HW274296   9.317  10.895   9.149  1.6169 -0.6665 -0.2020
24097SOL     OW74297   2.359   8.657  11.033 -0.2866 -0.2363 -0.3215
24097SOL    HW174298   2.311   8.638  11.113 -2.5402  1.5340 -1.1324
24097SOL    HW274299   2.376   8.571  10.994  1.3297 -1.1763  2.1923
24098SOL     OW74300   3.292  10.387   1.317 -0.4391  0.0897 -0.3099
24098SOL    HW174301   3.362  10.444   1.286 -0.2141 -0.1224 -0.1974
24098SOL    HW274302   3.298  10.391   1.412 -0.3636 -0.1916 -0.3025
24099SOL     OW74303   9.430   2.194   1.912  0.2001  0.3234 -0.1619
24099SOL    HW174304   9.521   2.206   1.938 -0.2004  2.2146  0.5224
24099SOL    HW274305   9.431   2.197   1.816  0.7597  1.1119 -0.1363
24100SOL     OW74306  10.923  10.812   0.356 -0.4962 -0.5634  0.0375
24100SOL    HW174307  10.923  10.754   0.280 -0.6197  0.5896 -0.8739
24100SOL    HW274308  10.872  10.888   0.328  1.6646  1.0817  0.3245
24101SOL     OW74309   4.830   0.468   3.737  0.3598  0.1248 -0.0274
24101SOL    HW174310   4.736   0.453   3.736  0.3786  0.0196 -0.3533
24101SOL    HW274311   4.849   0.499   3.826 -0.3512  2.5965 -0.6698
24102SOL     OW74312   9.810   2.178   1.025 -0.0021  0.2061  0.0291
24102SOL    HW174313   9.737   2.215   1.074 -0.6244 -0.6545 -0.2383
24102SOL    HW274314   9.778   2.170   0.935  0.6985  0.5577 -0.2690
24103SOL     OW74315   5.290   8.258   8.313  0.2448  0.3649  0.0250
24103SOL    HW174316   5.338   8.194   8.365 -0.8528 -1.2098 -0.8126
24103SOL    HW274317   5.357   8.309   8.269  1.2665 -2.5078 -2.0318
24104SOL     OW74318   4.469   4.312   1.027 -0.0396  0.3764 -0.6552
24104SOL    HW174319   4.469   4.220   1.000 -0.5599  0.6567 -1.6822
24104SOL    HW274320   4.410   4.355   0.965 -0.6462  1.2233  0.4701
24105SOL     OW74321   1.863   0.541   7.495  0.2364 -0.2499 -0.6010
24105SOL    HW174322   1.942   0.518   7.544  1.0005 -1.3817 -2.2892
24105SOL    HW274323   1.860   0.636   7.497  1.2400 -0.2220  0.0799
24106SOL     OW74324   4.583   8.656   9.580  0.0086  0.0552  0.0346
24106SOL    HW174325   4.628   8.590   9.527  1.3395 -0.5880  1.8588
24106SOL    HW274326   4.619   8.739   9.550  0.0192 -0.2132 -0.7212
24107SOL     OW74327   2.714   8.709   7.335 -0.1173  0.5753  0.0615
24107SOL    HW174328   2.778   8.652   7.292 -1.2646 -0.4190 -0.3873
24107SOL    HW274329   2.734   8.797   7.303  0.7125  0.2128 -0.4439
24108SOL     OW74330   3.954   7.702   8.546 -0.0548 -0.3583  0.4090
24108SOL    HW174331   3.992   7.628   8.499 -0.0476 -0.4658  0.5834
24108SOL    HW274332   3.902   7.662   8.616  0.4499 -0.1837  0.8896
24109SOL     OW74333   0.561   5.634   6.002 -0.2196  0.1991 -0.8011
24109SOL    HW174334   0.611   5.712   5.977 -0.2484  0.5852  0.3063
24109SOL    HW274335   0.497   5.665   6.066  0.9582 -1.0038  1.0636
24110SOL     OW74336   1.022   5.346   2.404  0.1319  0.1029  0.0109
24110SOL    HW174337   1.089   5.281   2.383 -0.1430 -0.5646  1.1640
24110SOL    HW274338   0.951   5.328   2.343 -0.3933 -1.4030  1.0336
24111SOL     OW74339   0.396   6.851   1.081 -0.4054  0.1227  0.2195
24111SOL    HW174340   0.464   6.788   1.105 -0.3157 -0.1624 -0.7564
24111SOL    HW274341   0.437   6.908   1.017 -1.2964 -0.5258 -0.9559
24112SOL     OW74342   1.093   7.384   0.407 -0.3005 -0.1571 -0.3591
24112SOL    HW174343   1.096   7.455   0.343  0.8293  0.5845  0.4695
24112SOL    HW274344   1.175   7.337   0.393 -0.1792 -0.1617  0.3367
24113SOL     OW74345   3.707   8.265   0.609  0.0822  0.1389  0.1730
24113SOL    HW174346   3.732   8.247   0.699 -2.8900 -0.5571  0.9557
24113SOL    HW274347   3.688   8.179   0.571 -2.6709  0.6258  0.2437
24114SOL     OW74348   7.567   5.898   9.348 -0.4346 -0.4391 -0.0412
24114SOL    HW174349   7.607   5.974   9.305 -0.9496 -0.1906 -0.0944
24114SOL    HW274350   7.637   5.862   9.403 -0.0269 -0.2465 -0.4292
24115SOL     OW74351   5.871   3.076   6.655 -0.3102  0.7162  0.0268
24115SOL    HW174352   5.900   2.985   6.642  0.6338  1.2508 -2.1534
24115SOL    HW274353   5.884   3.092   6.748  0.6407 -1.0171  0.2447
24116SOL     OW74354   2.889   3.373  10.343 -0.3380  0.0571  0.4631
24116SOL    HW174355   2.806   3.410  10.375 -0.2490 -1.5777  2.8484
24116SOL    HW274356   2.954   3.442  10.359 -0.8987  0.5803  0.5286
24117SOL     OW74357   3.744   3.763   8.087  0.0362 -0.0049 -0.4847
24117SOL    HW174358   3.689   3.728   8.157 -1.6280  0.5770 -1.4546
24117SOL    HW274359   3.826   3.715   8.095 -1.2169 -2.2157 -0.1098
24118SOL     OW74360   7.990   1.937   0.531  0.0304  0.1380  0.4877
24118SOL    HW174361   8.042   2.015   0.512  1.4143 -0.6669  0.8200
24118SOL    HW274362   8.034   1.897   0.605 -0.0360 -1.5179 -0.3326
24119SOL     OW74363   9.228   8.081  10.996  0.0752 -0.4989  0.4136
24119SOL    HW174364   9.317   8.081  11.032 -0.1233 -0.1801  0.9118
24119SOL    HW274365   9.226   8.157  10.938  0.1944 -0.6370  0.2255
24120SOL     OW74366   1.814   3.395   0.710 -0.2728  0.6172 -0.3050
24120SOL    HW174367   1.761   3.325   0.749 -0.4525  1.0351  0.2124
24120SOL    HW274368   1.789   3.395   0.617 -1.0640  0.7089 -0.0953
24121SOL     OW74369   5.590   3.088   6.690 -0.2388  0.0133  0.1026
24121SOL    HW174370   5.679   3.082   6.656  0.3012 -0.9867  1.6230
24121SOL    HW274371   5.546   3.148   6.629  1.0613 -0.5443 -1.4732
24122SOL     OW74372   0.429   5.490   7.740  0.4057 -0.2470  0.0344
24122SOL    HW174373   0.387   5.524   7.819 -0.7558 -1.4393 -0.0278
24122SOL    HW274374   0.522   5.512   7.751 -0.0018  1.1648  0.8790
24123SOL     OW74375   1.955   1.796   5.209 -0.5799 -0.2427 -0.3427
24123SOL    HW174376   2.009   1.719   5.226  0.7966  0.9874  1.1664
24123SOL    HW274377   2.016   1.862   5.177 -1.6625  0.3991 -1.1603
24124SOL     OW74378   9.600   1.321   5.354 -0.5703 -0.1827  0.0654
24124SOL    HW174379   9.513   1.297   5.387 -0.9525  1.7199  0.5688
24124SOL    HW274380   9.627   1.394   5.410  0.8414  0.0363 -0.8615
24125SOL     OW74381   9.778   9.407   2.489 -0.3202 -0.5976  0.0503
24125SOL    HW174382   9.747   9.401   2.579 -0.5699 -2.9474 -0.1331
24125SOL    HW274383   9.850   9.470   2.492 -1.6078  0.9025  1.4720
24126SOL     OW74384   7.396   8.252   7.087 -0.1747 -0.0713  0.5933
24126SOL    HW174385   7.461   8.305   7.041  0.8262 -0.5370  1.4168
24126SOL    HW274386   7.343   8.214   7.018  0.8233 -0.1696 -0.1464
24127SOL     OW74387  10.469   9.734  10.563 -0.3612  0.2165  0.0176
24127SOL    HW174388  10.450   9.807  10.622 -1.4512  1.0455 -1.3008
24127SOL    HW274389  10.564   9.736  10.552 -0.5282  2.9995 -1.8399
24128SOL     OW74390   3.758   2.597   2.260  0.3674  0.3813 -0.1989
24128SOL    HW174391   3.757   2.652   2.338  0.9386  0.6666 -0.3890
24128SOL    HW274392   3.673   2.552   2.261 -1.0249  2.7701 -1.0992
24129SOL     OW74393  10.762   5.044   3.065  0.0079  0.0282 -0.4143
24129SOL    HW174394  10.836   5.084   3.111  0.6165 -1.0250 -0.4497
24129SOL    HW274395  10.802   4.984   3.002 -0.8646  0.1303 -1.0818
24130SOL     OW74396   4.155   8.558   9.089  0.4082 -0.1291  0.1252
24130SOL    HW174397   4.076   8.509   9.111  0.7819 -2.1243 -2.4718
24130SOL    HW274398   4.174   8.609   9.167 -0.8764 -3.0510  2.5568
24131SOL     OW74399   7.816   8.477   3.223  0.2894 -0.1123 -0.2917
24131SOL    HW174400   7.737   8.518   3.189  0.0746  0.0230  0.3494
24131SOL    HW274401   7.835   8.524   3.304  0.2226 -1.0515  0.2959
24132SOL     OW74402   6.475   7.870   9.139 -0.1584 -0.4600 -0.2963
24132SOL    HW174403   6.544   7.929   9.110  0.2211  0.5919  2.4392
24132SOL    HW274404   6.520   7.789   9.161 -0.4156 -1.1746 -2.1862
24133SOL     OW74405   3.172   3.933   2.574 -0.2514 -0.5088  0.1090
24133SOL    HW174406   3.130   4.016   2.554  1.7625  0.4221 -0.5065
24133SOL    HW274407   3.104   3.881   2.617 -1.4826  1.5351  0.7575
24134SOL     OW74408  10.602   8.520   4.711  0.0655 -0.4380 -0.0546
24134SOL    HW174409  10.542   8.589   4.684 -1.3597 -1.0978  1.2512
24134SOL    HW274410  10.567   8.440   4.671 -0.0660 -0.8547  0.8577
24135SOL     OW74411   1.133  10.179   3.371  0.1841  0.0381 -0.0401
24135SOL    HW174412   1.100  10.170   3.461 -0.7642  0.6106 -0.3231
24135SOL    HW274413   1.219  10.220   3.382  0.3713 -0.5138  0.6437
24136SOL     OW74414   0.115   6.284   9.583  0.3538 -0.0489 -0.0990
24136SOL    HW174415   0.098   6.199   9.544  0.0275  0.1126 -0.3116
24136SOL    HW274416   0.138   6.341   9.510  1.7595 -0.2403  0.1726
24137SOL     OW74417   0.612  10.184   4.582 -0.3541 -0.3709 -0.7317
24137SOL    HW174418   0.609  10.239   4.660 -1.3840 -0.9235 -0.3526
24137SOL    HW274419   0.700  10.195   4.548 -0.0432  0.2713  0.2344
24138SOL     OW74420   0.238   2.333   3.421  0.2696  0.2626 -0.2741
24138SOL    HW174421   0.189   2.314   3.501 -1.6536  0.4690 -1.3433
24138SOL    HW274422   0.226   2.428   3.409  0.0209  0.1259 -1.1247
24139SOL     OW74423   3.247   7.369   9.630  0.0307 -0.4840 -0.0064
24139SOL    HW174424   3.266   7.304   9.698 -0.5333 -0.9701 -0.3016
24139SOL    HW274425   3.206   7.319   9.560  1.2015 -0.0964 -0.9969
24140SOL     OW74426   6.643   1.190   5.490 -1.1484 -0.3469 -0.0508
24140SOL    HW174427   6.613   1.119   5.546 -0.3382 -1.3110 -0.8185
24140SOL    HW274428   6.574   1.200   5.424 -1.8819  0.4788  0.8141
24141SOL     OW74429   7.603   5.072   9.370  0.1061  0.1004 -0.4980
24141SOL    HW174430   7.603   4.990   9.420  0.7698 -1.1676 -2.4627
24141SOL    HW274431   7.692   5.079   9.335 -0.0006  1.5673 -0.5467
24142SOL     OW74432   4.226   7.350   7.024  0.1521  0.1565  0.5776
24142SOL    HW174433   4.312   7.391   7.038  0.7056 -0.8465  0.2181
24142SOL    HW274434   4.238   7.259   7.053 -0.6160 -0.1474 -0.0369
24143SOL     OW74435   1.742   4.010   0.255 -0.1658  0.1412 -0.0142
24143SOL    HW174436   1.779   3.935   0.209 -0.7492  0.5907 -1.2382
24143SOL    HW274437   1.667   4.037   0.202  1.6340  3.3551 -1.2197
24144SOL     OW74438   7.873   6.348   6.441  0.5752 -0.0099  0.1848
24144SOL    HW174439   7.936   6.379   6.376 -0.5425 -0.3076 -1.0729
24144SOL    HW274440   7.837   6.267   6.404  0.8199 -0.8805  1.7607
24145SOL     OW74441   3.909   0.457  10.172 -0.0500 -0.1278 -0.0327
24145SOL    HW174442   3.883   0.547  10.153  0.1918 -0.2514 -1.0116
24145SOL    HW274443   3.827   0.412  10.194 -0.6818 -0.3859 -2.5685
24146SOL     OW74444   2.461   0.213   8.653 -0.4610  0.6398  0.0925
24146SOL    HW174445   2.442   0.199   8.746 -0.5256 -0.7073 -0.1109
24146SOL    HW274446   2.391   0.270   8.623 -1.2754 -0.0988  0.5460
24147SOL     OW74447   9.786  10.751   1.174  0.1659 -0.2275 -0.3259
24147SOL    HW174448   9.837  10.785   1.248 -1.0119 -0.9489  0.8626
24147SOL    HW274449   9.852  10.730   1.107  1.1645  1.6261 -0.0097
24148SOL     OW74450   7.369   2.890   0.906 -0.4157 -0.2182  0.0639
24148SOL    HW174451   7.324   2.862   0.986 -0.2288 -0.2457  0.1599
24148SOL    HW274452   7.460   2.901   0.933 -0.1947 -1.0241 -0.3346
24149SOL     OW74453   1.393   9.813   2.043 -0.1580  0.7726 -0.4053
24149SOL    HW174454   1.303   9.788   2.062  0.0419 -0.8089 -1.3666
24149SOL    HW274455   1.446   9.763   2.105  0.1532  0.0990 -1.1953
24150SOL     OW74456   6.107   0.719   5.462 -0.4264  0.2598 -0.3379
24150SOL    HW174457   6.083   0.721   5.369 -0.1503 -0.4272 -0.4245
24150SOL    HW274458   6.088   0.808   5.493  0.2688  0.7458 -1.2441
24151SOL     OW74459  10.943   6.163   7.097 -0.1033  0.5472 -0.0175
24151SOL    HW174460  11.034   6.134   7.111 -0.0709  0.9033  0.5357
24151SOL    HW274461  10.951   6.249   7.056 -0.1833  0.7340  0.3511
24152SOL     OW74462   1.743   9.745   3.525 -0.0354  0.1683 -0.0470
24152SOL    HW174463   1.706   9.812   3.583 -1.9319 -0.3790 -0.5843
24152SOL    HW274464   1.774   9.794   3.449 -1.8059  0.4337 -0.6342
24153SOL     OW74465   9.685   8.224   7.667  1.1016 -0.5883  0.0496
24153SOL    HW174466   9.750   8.240   7.735 -0.8240 -0.9105  2.0865
24153SOL    HW274467   9.694   8.297   7.606  1.2488  1.1336  2.0223
24154SOL     OW74468   5.107   7.774   2.575  0.2974 -0.3299  0.1889
24154SOL    HW174469   5.151   7.769   2.661 -0.7212  1.5372  0.8726
24154SOL    HW274470   5.160   7.836   2.526 -0.1448 -0.0188  0.1080
24155SOL     OW74471   1.357   4.406  10.811 -0.1231 -0.0192 -0.4296
24155SOL    HW174472   1.389   4.487  10.773  0.5518  0.3141  0.7774
24155SOL    HW274473   1.386   4.337  10.751 -0.6776  0.6210 -1.4419
24156SOL     OW74474   7.975   2.112   3.528  0.2952  0.4897  1.1086
24156SOL    HW174475   8.050   2.062   3.560  0.9093  1.3903  1.1278
24156SOL    HW274476   8.009   2.162   3.453 -0.8589 -0.7735 -0.3166
24157SOL     OW74477   7.436   9.538   7.912  0.1447 -0.6875  0.6872
24157SOL    HW174478   7.409   9.596   7.841 -0.1944 -0.6207  0.8676
24157SOL    HW274479   7.395   9.454   7.891 -1.6268 -0.1547  1.8303
24158SOL     OW74480   7.980   1.781   7.554 -0.0631  0.2083 -0.1124
24158SOL    HW174481   8.073   1.796   7.539 -0.2461  0.7141 -0.8020
24158SOL    HW274482   7.977   1.719   7.627  0.8189 -0.0781 -0.3056
24159SOL     OW74483   1.649   6.764   7.282  0.5273  0.3385  0.4341
24159SOL    HW174484   1.555   6.749   7.290  0.3032  0.6321 -1.2094
24159SOL    HW274485   1.659   6.859   7.288  1.1813  0.1881  4.0959
24160SOL     OW74486   3.831   8.944   1.668 -0.4971 -0.2049 -0.4716
24160SOL    HW174487   3.782   8.887   1.727  0.2259 -0.1260  0.2187
24160SOL    HW274488   3.836   8.894   1.586 -1.8506 -0.1416 -0.6094
24161SOL     OW74489  10.824   9.912   0.483  0.0149  0.0320 -0.2822
24161SOL    HW174490  10.900   9.967   0.501 -0.4794  0.7377 -0.3150
24161SOL    HW274491  10.830   9.841   0.547 -0.1462  0.9369  0.7806
24162SOL     OW74492   5.666  11.017   3.573  0.9394  0.4568 -0.4002
24162SOL    HW174493   5.705  10.940   3.531  1.1440  0.0782  0.4503
24162SOL    HW274494   5.700  11.091   3.524  1.5022  0.0531 -0.6361
24163SOL     OW74495   9.340  10.226   9.620  0.3620  0.2640 -0.1410
24163SOL    HW174496   9.268  10.288   9.608  0.9693  1.2393  1.0066
24163SOL    HW274497   9.419  10.279   9.614  0.9052 -0.4203  0.6730
24164SOL     OW74498   7.250   4.355   8.357  0.0663 -0.1450 -0.6369
24164SOL    HW174499   7.190   4.287   8.390  1.4366 -2.0234 -1.7978
24164SOL    HW274500   7.194   4.413   8.306 -1.2534 -0.0151  0.8703
24165SOL     OW74501   5.628   1.712   6.288  0.0490 -0.6837 -0.0006
24165SOL    HW174502   5.579   1.769   6.348  2.8264  1.7478  0.1828
24165SOL    HW274503   5.679   1.655   6.346  1.3021  0.3797 -0.0076
24166SOL     OW74504  10.840   8.320   3.978  0.7475 -0.6223  0.2860
24166SOL    HW174505  10.907   8.310   4.046  0.1698 -1.4576  0.7580
24166SOL    HW274506  10.832   8.233   3.939  0.7036 -0.2677 -0.5140
24167SOL     OW74507   5.881   1.535   7.562 -0.2146 -0.1075  0.1693
24167SOL    HW174508   5.899   1.558   7.653 -1.8864  0.1943  0.4556
24167SOL    HW274509   5.882   1.618   7.515  0.6038 -0.2576 -0.1022
24168SOL     OW74510  10.231   5.822   2.924  0.1680 -0.1365 -0.1153
24168SOL    HW174511  10.255   5.860   3.009  1.9065 -1.8998  0.2629
24168SOL    HW274512  10.174   5.749   2.946 -0.7076  0.3974 -0.6013
24169SOL     OW74513   0.309   0.089   3.039 -0.3527  0.0477  0.2714
24169SOL    HW174514   0.330   0.148   2.967  0.2055  0.2948  0.6335
24169SOL    HW274515   0.358   0.009   3.021 -0.7580 -0.1488  0.0173
24170SOL     OW74516   4.565   0.360   1.103  0.0266 -0.1405 -0.2246
24170SOL    HW174517   4.612   0.412   1.038 -0.6917 -0.5004 -1.0403
24170SOL    HW274518   4.634   0.313   1.150  0.4270 -1.8828 -2.4458
24171SOL     OW74519   1.473   4.037   8.269  1.0004  0.6357 -0.0132
24171SOL    HW174520   1.470   3.949   8.233  0.1547  0.6539 -0.0111
24171SOL    HW274521   1.488   4.094   8.194  0.2986  0.5863 -0.1983
24172SOL     OW74522   3.435   5.181   9.334 -0.2019  0.6252  0.3101
24172SOL    HW174523   3.519   5.214   9.366  0.9909 -1.1083 -0.8246
24172SOL    HW274524   3.453   5.091   9.309 -3.0841 -0.7168  2.5116
24173SOL     OW74525   2.491   2.773   6.261  0.0151 -0.2527 -0.2379
24173SOL    HW174526   2.505   2.845   6.323 -0.1833  0.5179 -1.0677
24173SOL    HW274527   2.398   2.751   6.271  0.0687 -0.3703 -0.0025
24174SOL     OW74528   2.896   1.966   0.580  0.7760  0.3601 -0.3879
24174SOL    HW174529   2.897   2.000   0.670  3.4003 -0.2085 -0.1271
24174SOL    HW274530   2.834   2.023   0.534 -0.2900  0.9481  1.6495
24175SOL     OW74531   5.262   1.510   1.291  0.1486  0.0818 -0.2912
24175SOL    HW174532   5.329   1.451   1.326  0.2685 -0.8331 -1.9618
24175SOL    HW274533   5.312   1.582   1.253 -0.0282  2.0472  2.8845
24176SOL     OW74534   4.853   9.912   1.428 -0.1625  0.3210 -0.1499
24176SOL    HW174535   4.868  10.006   1.445 -0.5184  0.2507  0.6108
24176SOL    HW274536   4.788   9.911   1.359  0.4947  0.6287 -0.7932
24177SOL     OW74537   9.315   7.273   0.220 -0.1797  0.6173  0.0729
24177SOL    HW174538   9.321   7.228   0.136 -0.3290 -0.1203  0.4468
24177SOL    HW274539   9.406   7.276   0.251 -0.2457 -0.0712  0.3644
24178SOL     OW74540   2.679   9.269   0.667 -0.0460  0.6150 -0.0847
24178SOL    HW174541   2.656   9.179   0.642  1.9948 -0.3090  1.0299
24178SOL    HW274542   2.737   9.299   0.597 -0.5278  0.9743 -0.3314
24179SOL     OW74543   2.953   6.992   1.559 -0.1230  0.5958  0.4877
24179SOL    HW174544   2.894   7.037   1.620  0.5119  0.7099  1.0299
24179SOL    HW274545   2.980   6.913   1.605  0.5887  0.8251  0.4836
24180SOL     OW74546   7.529   4.835   6.455  0.2125 -0.4678 -0.4328
24180SOL    HW174547   7.445   4.814   6.495 -0.4629 -0.5835 -1.8664
24180SOL    HW274548   7.559   4.753   6.416 -0.0243  0.0115 -1.6944
24181SOL     OW74549   1.297   1.119   7.812 -0.1021  0.0168  0.0110
24181SOL    HW174550   1.314   1.200   7.860  0.5192 -0.2626  0.2694
24181SOL    HW274551   1.280   1.054   7.881 -0.2232 -0.1591 -0.1833
24182SOL     OW74552  10.503   7.570   0.167  0.9660  0.0135 -0.1622
24182SOL    HW174553  10.528   7.662   0.165  1.9111 -0.2304 -0.5902
24182SOL    HW274554  10.448   7.561   0.244  0.4904  1.0196 -0.3683
24183SOL     OW74555   6.088   5.341   2.662 -0.0799 -0.1545 -0.0850
24183SOL    HW174556   6.027   5.294   2.719 -0.6937  0.9163  0.1726
24183SOL    HW274557   6.175   5.318   2.696 -0.4325  1.1916  1.9503
24184SOL     OW74558   2.431   2.171   8.622  0.1618 -0.3349 -0.7671
24184SOL    HW174559   2.468   2.191   8.708 -0.1833 -0.6086 -0.5518
24184SOL    HW274560   2.356   2.231   8.614  1.1534  0.8563 -1.5817
24185SOL     OW74561   6.244   8.956   3.339 -0.3984 -0.3169  0.6217
24185SOL    HW174562   6.262   8.931   3.249  0.2638  0.1412  0.6243
24185SOL    HW274563   6.283   9.042   3.349 -1.2626  0.0422  1.0822
24186SOL     OW74564   4.560   6.606   8.243 -0.4397 -0.1128 -0.1582
24186SOL    HW174565   4.506   6.527   8.245  0.1053 -0.4739  0.7708
24186SOL    HW274566   4.630   6.586   8.182 -1.8025  0.6889 -2.0907
24187SOL     OW74567   3.926   4.482   3.778 -0.1410  0.6469 -0.3283
24187SOL    HW174568   3.996   4.430   3.738  0.1212  1.7830 -1.4192
24187SOL    HW274569   3.917   4.446   3.866  1.8962  0.5141 -0.1091
24188SOL     OW74570   3.368  10.344   7.445  0.0706  0.1148  0.6739
24188SOL    HW174571   3.313  10.333   7.367  3.0767 -0.4656 -1.5182
24188SOL    HW274572   3.368  10.258   7.486  2.9818 -1.3437 -2.0236
24189SOL     OW74573   1.186   3.727   6.483 -0.2978  0.2136 -0.2834
24189SOL    HW174574   1.225   3.783   6.416  2.1248  1.2153  1.7980
24189SOL    HW274575   1.092   3.733   6.467  0.1466 -0.1236 -3.8996
24190SOL     OW74576   1.797   4.305   5.655  0.0077  0.7455  0.0883
24190SOL    HW174577   1.728   4.331   5.594 -0.5709  0.5017  0.6324
24190SOL    HW274578   1.781   4.212   5.670  1.8926  0.0659 -1.6401
24191SOL     OW74579   6.818   7.483   1.411 -0.0732 -0.1987  0.3900
24191SOL    HW174580   6.739   7.512   1.456 -0.1238  1.0924 -0.4700
24191SOL    HW274581   6.787   7.447   1.328  0.0929 -1.7539  0.9579
24192SOL     OW74582   6.052   1.682   5.514 -0.4721  0.1225  0.3926
24192SOL    HW174583   6.086   1.765   5.546  0.4346 -0.0652 -0.0735
24192SOL    HW274584   6.065   1.685   5.420 -0.4659 -0.5365  0.3693
24193SOL     OW74585   4.617   9.797   7.118  0.3289  0.2914  0.1442
24193SOL    HW174586   4.595   9.813   7.209  0.3316 -1.7401  0.5297
24193SOL    HW274587   4.532   9.795   7.073  0.2037 -0.4437  0.4070
24194SOL     OW74588   2.219   9.524   3.798 -0.6051  0.0837  0.3612
24194SOL    HW174589   2.288   9.505   3.734  0.1674 -0.0092  1.1995
24194SOL    HW274590   2.163   9.588   3.755 -0.5976 -0.6275 -0.7389
24195SOL     OW74591   4.212   2.460   4.277  0.5260  0.2604 -0.0763
24195SOL    HW174592   4.130   2.441   4.323  0.9532 -0.2358  0.5030
24195SOL    HW274593   4.210   2.403   4.200 -0.2568  1.1946 -0.7715
24196SOL     OW74594   2.472   2.915   5.267 -0.1192 -0.3555 -0.5251
24196SOL    HW174595   2.395   2.860   5.259  0.0907 -0.6585 -0.4859
24196SOL    HW274596   2.499   2.933   5.177 -1.9215  2.1793 -0.6660
24197SOL     OW74597   4.117   1.168   0.280 -0.0348 -0.0896  0.2011
24197SOL    HW174598   4.090   1.170   0.188  2.1474  1.6814 -0.4825
24197SOL    HW274599   4.186   1.102   0.284 -0.5505 -0.6101  0.7264
24198SOL     OW74600   5.221   1.841   5.883 -0.1735  0.1310  0.3404
24198SOL    HW174601   5.257   1.796   5.806  0.8138 -0.5866  1.1765
24198SOL    HW274602   5.160   1.778   5.921 -0.0847  0.1679  0.5492
24199SOL     OW74603   0.781   7.740   7.315  0.2315 -0.6847  0.5009
24199SOL    HW174604   0.716   7.688   7.362 -0.3049 -0.6848 -0.2182
24199SOL    HW274605   0.843   7.768   7.382 -0.8850 -0.0988  1.3162
24200SOL     OW74606   4.942   2.934   7.565 -0.7559 -0.0835 -0.2620
24200SOL    HW174607   5.002   3.003   7.590 -1.8960  0.8480  0.0088
24200SOL    HW274608   4.998   2.861   7.539  0.4746  0.3420  1.0822
24201SOL     OW74609   2.655   3.154   1.290  0.1185  0.1773  0.4357
24201SOL    HW174610   2.650   3.142   1.385  1.2830  0.2824  0.5268
24201SOL    HW274611   2.745   3.131   1.268 -0.1841  0.0077 -0.6726
24202SOL     OW74612  10.735   4.239   4.461 -0.3445  0.0939  0.4479
24202SOL    HW174613  10.668   4.258   4.527 -2.0220 -1.3444 -0.7452
24202SOL    HW274614  10.709   4.155   4.424  2.7217 -1.0841  0.6150
24203SOL     OW74615   1.812  10.007   2.364  0.6907  0.7792  0.0659
24203SOL    HW174616   1.751   9.934   2.358  0.2183  1.1392  0.3904
24203SOL    HW274617   1.852   9.999   2.451 -1.2802  2.3646  1.1977
24204SOL     OW74618   2.690   7.284   2.519 -0.5843 -0.1699  0.0215
24204SOL    HW174619   2.758   7.348   2.540 -0.9733  0.6906 -1.2254
24204SOL    HW274620   2.665   7.305   2.429 -1.7646 -1.1448  0.1052
24205SOL     OW74621   8.111   5.089   5.268  0.0413 -0.0477 -0.6796
24205SOL    HW174622   8.171   5.018   5.247 -0.3081 -0.2814 -0.8914
24205SOL    HW274623   8.168   5.165   5.280  0.4145 -0.3527 -0.4757
24206SOL     OW74624   1.671   2.125   8.385  0.1061 -0.2307 -0.1198
24206SOL    HW174625   1.736   2.154   8.449  0.3097 -1.9800  0.5291
24206SOL    HW274626   1.594   2.103   8.438 -0.3669  0.0674 -0.6802
24207SOL     OW74627  10.380   1.016   8.072 -0.2330 -0.4933  0.3651
24207SOL    HW174628  10.401   1.010   8.165  0.1591 -0.7334  0.2649
24207SOL    HW274629  10.461   1.048   8.031 -0.5154 -0.0361  0.1503
24208SOL     OW74630   2.213   1.504   9.877  0.4443 -0.1882 -0.3303
24208SOL    HW174631   2.247   1.437   9.936  0.3660  0.0469 -0.0124
24208SOL    HW274632   2.279   1.513   9.809  0.6386 -0.3138 -0.1591
24209SOL     OW74633   7.909   2.833   2.339 -0.1840  0.1126 -0.6013
24209SOL    HW174634   7.866   2.749   2.325 -3.9703  1.7818 -0.0771
24209SOL    HW274635   7.893   2.883   2.259  1.5574  0.5868 -0.7094
24210SOL     OW74636   9.987   9.056   2.598 -0.0441 -0.4436 -0.4775
24210SOL    HW174637   9.945   9.093   2.521 -1.1726 -1.4490 -0.3699
24210SOL    HW274638   9.964   8.964   2.596  0.8989 -0.7192  0.4348
24211SOL     OW74639   8.201   9.399  10.967 -0.1395  0.3636  0.5256
24211SOL    HW174640   8.123   9.380  10.915  0.9255  0.8695 -1.3427
24211SOL    HW274641   8.234   9.481  10.932  1.8457 -0.3825  0.4888
24212SOL     OW74642   9.565   7.627   0.121 -0.2767  0.5219  0.3607
24212SOL    HW174643   9.518   7.669   0.192  0.5639 -0.8453  1.8142
24212SOL    HW274644   9.578   7.537   0.151  1.6103  0.3540 -0.7630
24213SOL     OW74645   0.087   4.858   0.791  0.1245  0.1226  0.3235
24213SOL    HW174646   0.177   4.859   0.823  0.0164 -2.5803  0.9681
24213SOL    HW274647   0.049   4.940   0.822  1.7335  0.2884  2.0049
24214SOL     OW74648   3.693   8.205   3.055 -0.0468  0.2394  0.2781
24214SOL    HW174649   3.645   8.247   3.127 -1.3370 -2.0590  0.8795
24214SOL    HW274650   3.780   8.187   3.092 -0.7320 -1.0275  1.3693
24215SOL     OW74651   0.454   7.356   0.989 -0.9191  0.0076 -0.0436
24215SOL    HW174652   0.361   7.335   0.990 -0.8105 -0.8833 -2.1579
24215SOL    HW274653   0.470   7.387   0.900  1.1626 -1.8234 -0.4000
24216SOL     OW74654  10.837   6.343   0.044 -0.1046  0.1316  0.3046
24216SOL    HW174655  10.749   6.345   0.005 -0.0707 -1.1415  0.1222
24216SOL    HW274656  10.831   6.401   0.120 -0.6369  1.3441 -0.6252
24217SOL     OW74657   2.331   7.497   4.849  0.2935 -0.3689 -0.0927
24217SOL    HW174658   2.291   7.445   4.780 -1.2245 -0.4649  0.7982
24217SOL    HW274659   2.286   7.469   4.929  0.9604  0.7741  0.7175
24218SOL     OW74660   1.297   9.251  10.088 -0.1143 -0.0643 -0.4294
24218SOL    HW174661   1.231   9.246  10.019 -0.6859 -0.2935  0.1328
24218SOL    HW274662   1.292   9.167  10.133 -0.8470  0.6553  0.8982
24219SOL     OW74663   8.025   9.352   5.111 -0.4363  0.6184 -0.4752
24219SOL    HW174664   7.999   9.278   5.056 -2.7473  0.9179  0.1043
24219SOL    HW274665   8.005   9.429   5.057  0.9340  0.8821 -0.6520
24220SOL     OW74666   6.075   0.537  11.023  0.3041  0.5289 -0.0127
24220SOL    HW174667   6.005   0.496  10.972  0.4132 -1.7496  1.5329
24220SOL    HW274668   6.044   0.626  11.039 -1.1480  0.3040 -1.3483
24221SOL     OW74669   9.409  10.080  10.549  0.1141  0.2274 -0.1828
24221SOL    HW174670   9.400  10.055  10.457  1.5407  2.1456 -0.9203
24221SOL    HW274671   9.443  10.169  10.546  3.4001 -0.7325  2.1057
24222SOL     OW74672   5.064   1.781   4.661 -0.4223  0.3804 -0.3107
24222SOL    HW174673   4.969   1.773   4.648 -0.6120 -0.2199  1.2385
24222SOL    HW274674   5.094   1.691   4.675  0.2347  0.6449  0.0309
24223SOL     OW74675  10.876   4.836   5.309  0.3415  0.4991  0.5599
24223SOL    HW174676  10.863   4.868   5.220 -0.0308  1.2404  0.8704
24223SOL    HW274677  10.806   4.773   5.323 -0.8301  1.8505  0.9990
24224SOL     OW74678   1.714   6.718   2.464  0.5336 -0.2614 -0.0345
24224SOL    HW174679   1.645   6.730   2.530 -0.1550  0.6601 -0.8791
24224SOL    HW274680   1.671   6.740   2.381  1.8109  0.1841 -0.6032
24225SOL     OW74681   9.857   9.522   7.870  0.1282 -0.0885  0.0609
24225SOL    HW174682   9.902   9.539   7.788 -0.1805 -1.5754 -0.4432
24225SOL    HW274683   9.909   9.568   7.936  0.9946  0.2238 -0.8162
24226SOL     OW74684   8.185   7.459   5.211 -0.1780  0.0252  0.4345
24226SOL    HW174685   8.204   7.389   5.149 -0.1124  0.4362 -0.0136
24226SOL    HW274686   8.232   7.434   5.291 -1.5418 -1.3153  0.8711
24227SOL     OW74687  10.694   6.148   7.573 -0.1656 -0.0796  0.1856
24227SOL    HW174688  10.716   6.212   7.641 -3.3423  1.5219 -0.1273
24227SOL    HW274689  10.723   6.189   7.491  0.3152 -0.3377  0.2217
24228SOL     OW74690   0.206   9.944  10.984  0.3344  0.6511 -0.2183
24228SOL    HW174691   0.243   9.888  10.916  2.5991  2.3332 -0.4710
24228SOL    HW274692   0.129   9.896  11.015  0.3903 -1.1105 -2.5405
24229SOL     OW74693   4.327   1.312   6.158  0.3303  0.2138  0.2122
24229SOL    HW174694   4.318   1.396   6.203 -0.3490  0.5583 -0.5361
24229SOL    HW274695   4.343   1.336   6.066 -1.0362 -0.4557 -0.2253
24230SOL     OW74696   3.702   8.860   4.287  0.1549  0.2656 -0.3431
24230SOL    HW174697   3.693   8.793   4.220  2.9070 -0.7472  0.1707
24230SOL    HW274698   3.705   8.811   4.369 -0.3930  1.2620  0.2928
24231SOL     OW74699   5.493   7.592   3.885 -0.0405 -0.0858 -0.7696
24231SOL    HW174700   5.401   7.586   3.910 -0.8216  2.5943 -2.5986
24231SOL    HW274701   5.528   7.664   3.938  0.3354  0.4952 -1.7758
24232SOL     OW74702   2.751   0.180  10.195  0.0596  0.4054 -0.4332
24232SOL    HW174703   2.795   0.131  10.265  0.6110  1.4838 -0.0148
24232SOL    HW274704   2.800   0.156  10.116  0.0527 -0.0570 -0.3029
24233SOL     OW74705  10.190   9.919   6.043  0.2609  0.2899  0.3436
24233SOL    HW174706  10.213   9.948   6.132  1.0009  0.5363  0.0755
24233SOL    HW274707  10.243   9.841   6.028 -0.8468 -0.5376  0.6056
24234SOL     OW74708   4.130  10.702   8.739 -0.5429 -0.1727  0.1257
24234SOL    HW174709   4.104  10.625   8.790  1.0800 -2.9702 -2.9015
24234SOL    HW274710   4.049  10.730   8.695 -0.8241 -1.2318 -0.0561
24235SOL     OW74711   3.514   9.093   9.266 -0.0322  0.3200  0.1294
24235SOL    HW174712   3.601   9.057   9.284 -1.4445 -2.7242  1.7024
24235SOL    HW274713   3.488   9.137   9.347 -0.4702  0.0279  0.1527
24236SOL     OW74714   9.337   2.362   4.312  0.1808  0.1041 -0.1837
24236SOL    HW174715   9.423   2.322   4.327  0.2847  0.2886 -0.2935
24236SOL    HW274716   9.352   2.456   4.323 -0.2294  0.0653  0.9248
24237SOL     OW74717   1.687   6.766   1.057  0.1804 -0.0295 -0.1597
24237SOL    HW174718   1.735   6.781   1.139  0.9009  0.7363 -0.7070
24237SOL    HW274719   1.690   6.671   1.045 -2.7211 -0.5936  2.3398
24238SOL     OW74720   8.087   4.163   7.115  0.1320  0.2435  0.1241
24238SOL    HW174721   8.084   4.068   7.113 -0.7774  0.2218  1.0680
24238SOL    HW274722   8.057   4.191   7.028 -0.7889 -0.3368  0.2436
24239SOL     OW74723   9.085   3.151   7.511 -0.1290  0.3240  0.1026
24239SOL    HW174724   9.068   3.129   7.420  3.1000 -1.2782 -0.2356
24239SOL    HW274725   9.031   3.089   7.561 -2.7969  1.9374 -0.5462
24240SOL     OW74726   3.314   3.185   0.763 -0.3911  0.0100 -0.0764
24240SOL    HW174727   3.320   3.155   0.673 -0.3273  0.8671 -0.3659
24240SOL    HW274728   3.237   3.140   0.799 -0.9169  0.3116 -0.8090
24241SOL     OW74729   4.015   6.509   0.517 -0.7818 -0.0365  0.7498
24241SOL    HW174730   4.091   6.455   0.539 -0.3789 -0.0530 -0.5901
24241SOL    HW274731   4.036   6.596   0.551  0.2555  0.1813 -0.3856
24242SOL     OW74732   0.026   5.148   2.404  0.3148  0.3081  0.0547
24242SOL    HW174733   0.095   5.209   2.377  0.7080 -1.0138 -2.2171
24242SOL    HW274734  -0.023   5.130   2.323 -0.2637 -1.7600  0.8041
24243SOL     OW74735   4.212   1.595  10.690 -0.3063  0.0741 -0.3649
24243SOL    HW174736   4.305   1.608  10.710 -0.1233  0.2396 -1.3173
24243SOL    HW274737   4.210   1.563  10.600 -1.1634 -0.1889 -0.2694
24244SOL     OW74738  10.832   5.991  10.512 -0.3200  0.0464 -0.4702
24244SOL    HW174739  10.783   6.036  10.444 -0.3846 -0.7015 -0.9365
24244SOL    HW274740  10.788   5.906  10.521  1.0387 -0.7636 -1.1039
24245SOL     OW74741   2.399   3.650   1.001 -0.1073 -0.1879 -0.2159
24245SOL    HW174742   2.468   3.710   0.974  0.0738 -0.5441 -0.5501
24245SOL    HW274743   2.382   3.672   1.093  0.6466 -0.2918 -0.0490
24246SOL     OW74744   0.965   6.977   9.295 -0.1126  0.0388  0.0007
24246SOL    HW174745   1.023   7.053   9.300 -1.2061  0.9478 -0.6254
24246SOL    HW274746   0.887   7.010   9.251 -1.3599 -1.0072  1.3399
24247SOL     OW74747   3.319   9.922   7.553 -0.1396 -0.2719  1.0895
24247SOL    HW174748   3.283   9.983   7.489  0.4511 -1.2882 -0.2672
24247SOL    HW274749   3.352   9.977   7.624  1.7478  1.1213 -0.7677
24248SOL     OW74750   4.685   4.560   8.978  0.7983  0.6035 -0.4145
24248SOL    HW174751   4.771   4.524   8.956 -0.3595 -1.8720 -1.2657
24248SOL    HW274752   4.671   4.535   9.069 -0.0759 -1.3873 -1.0551
24249SOL     OW74753   5.682   6.875   5.233  0.1061 -0.0952 -0.1990
24249SOL    HW174754   5.701   6.946   5.172  0.1633  0.3649  0.3528
24249SOL    HW274755   5.704   6.795   5.184  2.6501  0.3519  0.0973
24250SOL     OW74756   9.648   2.665   1.146  0.1681 -0.3199 -0.4071
24250SOL    HW174757   9.612   2.603   1.083 -0.0087  0.0071 -0.6279
24250SOL    HW274758   9.651   2.749   1.100 -0.2555 -0.0075  0.1066
24251SOL     OW74759   6.566   5.719   2.478  0.0727 -0.1695  0.5867
24251SOL    HW174760   6.547   5.798   2.530 -0.6668 -0.3982  0.6843
24251SOL    HW274761   6.655   5.694   2.504 -0.2393 -0.2187  1.6845
24252SOL     OW74762  10.695   9.819  10.904 -0.3302 -1.0078  0.0815
24252SOL    HW174763  10.616   9.871  10.919 -0.8403 -1.6782 -0.2616
24252SOL    HW274764  10.669   9.729  10.922  1.0419 -1.0091  2.6185
24253SOL     OW74765   7.896   5.588   2.482 -0.2282  0.2479 -0.5754
24253SOL    HW174766   7.944   5.668   2.459 -0.5361  0.8956  0.8922
24253SOL    HW274767   7.878   5.598   2.576 -1.7122 -0.7889 -0.7282
24254SOL     OW74768   5.803   9.514   3.235  0.7407  0.4245  0.0959
24254SOL    HW174769   5.728   9.537   3.180 -1.3934 -2.2515  1.6882
24254SOL    HW274770   5.859   9.461   3.178  0.0212  0.0903 -0.3060
24255SOL     OW74771   4.831   1.745   6.301  0.0509  0.3754  0.1725
24255SOL    HW174772   4.757   1.712   6.352 -1.4387 -1.1429 -2.7753
24255SOL    HW274773   4.862   1.821   6.351 -3.8857  1.4963  1.2450
24256SOL     OW74774   9.350   3.875   1.863 -0.3291 -0.2342 -0.2979
24256SOL    HW174775   9.417   3.817   1.827  0.9735 -1.0336  3.0237
24256SOL    HW274776   9.388   3.962   1.856  1.2655 -0.6890  1.6699
24257SOL     OW74777   2.771   6.314   7.365 -0.1606  0.0017 -0.1958
24257SOL    HW174778   2.768   6.330   7.459 -0.7360 -0.5524 -0.1142
24257SOL    HW274779   2.691   6.266   7.346  0.4451 -0.8206 -0.7881
24258SOL     OW74780  10.935   5.946   4.058  0.5662  0.0886  0.2815
24258SOL    HW174781  10.988   5.867   4.059  0.2666 -0.1181  1.3295
24258SOL    HW274782  10.995   6.016   4.032  0.9416 -0.4036 -0.1804
24259SOL     OW74783   7.336   6.300   3.280 -0.0246 -0.2618  0.5218
24259SOL    HW174784   7.280   6.257   3.344 -0.5381  2.1173  1.7967
24259SOL    HW274785   7.275   6.346   3.222  0.5240  0.9360  0.8621
24260SOL     OW74786   2.231   5.815   6.922  0.1249 -0.4144  0.9415
24260SOL    HW174787   2.153   5.810   6.978  0.5488  1.5922  1.7737
24260SOL    HW274788   2.298   5.766   6.970 -0.7990 -3.0265 -0.2455
24261SOL     OW74789   3.660   5.221   4.709  0.4334  0.9578  0.1477
24261SOL    HW174790   3.577   5.182   4.733  0.7956  1.2573  2.0774
24261SOL    HW274791   3.700   5.159   4.648 -1.2708  0.9268 -0.9817
24262SOL     OW74792   7.484   7.223   2.206 -0.7934 -0.5164  0.2371
24262SOL    HW174793   7.490   7.217   2.301 -2.3556 -0.6466  0.3529
24262SOL    HW274794   7.392   7.205   2.187 -0.2435 -1.7368 -1.4014
24263SOL     OW74795  10.654   3.648   1.315  0.4316 -0.5275 -0.7560
24263SOL    HW174796  10.727   3.645   1.253 -0.7270 -1.1665 -2.1356
24263SOL    HW274797  10.623   3.557   1.319 -0.0852 -0.3243  0.0832
24264SOL     OW74798   1.128   4.116   2.817 -0.3909  0.0444  0.7108
24264SOL    HW174799   1.155   4.207   2.803 -0.3934  0.0718  0.8852
24264SOL    HW274800   1.201   4.076   2.864  0.9801 -0.8503 -1.9490
24265SOL     OW74801   3.214   9.453   5.829 -0.1938  0.6044 -0.8461
24265SOL    HW174802   3.280   9.513   5.863  2.4270 -0.7929 -3.0882
24265SOL    HW274803   3.196   9.485   5.740 -3.1337  1.3122 -0.0994
24266SOL     OW74804   7.750   4.096   2.692  0.4552  0.8556  0.7240
24266SOL    HW174805   7.816   4.090   2.761  0.4173  2.5017  0.9406
24266SOL    HW274806   7.687   4.160   2.725 -0.6533  0.1456  0.0306
24267SOL     OW74807   9.979   0.283   6.820 -0.0833  0.2037  0.1148
24267SOL    HW174808   9.906   0.222   6.821 -1.4567  1.7860  0.2506
24267SOL    HW274809   9.954   0.350   6.757  1.0191  1.0670  0.5598
24268SOL     OW74810  10.199  10.456   0.382  0.1063  0.5151 -0.0467
24268SOL    HW174811  10.121  10.451   0.437  0.6085 -1.0543  0.5853
24268SOL    HW274812  10.202  10.547   0.353 -1.2342  0.9184  0.9593
24269SOL     OW74813   3.362   8.672   0.869  0.2310  0.2197  0.2181
24269SOL    HW174814   3.281   8.625   0.890  1.1427 -0.2856  2.9427
24269SOL    HW274815   3.404   8.618   0.802 -0.8384 -0.4814  0.0893
24270SOL     OW74816   5.194   1.070  11.031  0.3923  0.2190 -0.1202
24270SOL    HW174817   5.268   1.011  11.022 -0.6852 -1.2499  0.2260
24270SOL    HW274818   5.193   1.093  11.124  0.7097  0.6578 -0.2224
24271SOL     OW74819  10.910   3.197   6.749 -0.0367  0.8928  0.8000
24271SOL    HW174820  10.913   3.135   6.677 -2.0457  1.2015  0.3739
24271SOL    HW274821  10.999   3.199   6.784  0.9518  0.6178 -1.5489
24272SOL     OW74822  10.862   3.855   9.758 -0.1361  0.5034 -0.3155
24272SOL    HW174823  10.956   3.847   9.745 -0.4925  0.0538 -3.2136
24272SOL    HW274824  10.843   3.947   9.743 -0.0236  0.9236  1.8233
24273SOL     OW74825   3.259   1.902   7.723  0.5898 -0.1471  0.0906
24273SOL    HW174826   3.342   1.937   7.692  0.7053 -0.5442 -0.0544
24273SOL    HW274827   3.257   1.924   7.816 -0.1131  1.7505 -0.3185
24274SOL     OW74828   9.062  10.632   5.861 -0.3008 -0.1534 -0.3529
24274SOL    HW174829   8.973  10.658   5.837 -0.6910 -1.7162 -0.6794
24274SOL    HW274830   9.097  10.592   5.781  0.3953 -0.3305  0.0384
24275SOL     OW74831   8.412   2.434   2.045  0.6470 -0.4549 -0.6222
24275SOL    HW174832   8.372   2.408   1.962 -1.4525 -0.2829  0.2551
24275SOL    HW274833   8.402   2.358   2.103 -0.3658  0.3024  0.2468
24276SOL     OW74834   4.665  10.210   0.976  0.0369 -0.1554 -0.4245
24276SOL    HW174835   4.734  10.147   0.954  1.1642  1.2953 -1.1702
24276SOL    HW274836   4.687  10.240   1.064 -0.5830 -0.8769 -0.0100
24277SOL     OW74837   3.690   4.458   3.615  0.2403 -0.1169  0.2322
24277SOL    HW174838   3.772   4.467   3.663  0.1030 -1.9946  0.9046
24277SOL    HW274839   3.716   4.438   3.525  0.6212 -2.6455  0.8217
24278SOL     OW74840   5.064   3.144   9.403  0.2336 -0.1057  0.0877
24278SOL    HW174841   5.145   3.148   9.452  0.4308  0.2916 -0.2647
24278SOL    HW274842   4.996   3.127   9.468  0.4344  0.8277  0.5504
24279SOL     OW74843   9.463   5.170   1.303 -0.2480  0.4832 -0.5816
24279SOL    HW174844   9.443   5.263   1.309  2.3343  1.1355 -1.0839
24279SOL    HW274845   9.471   5.153   1.209  0.8902  0.1752 -0.4484
24280SOL     OW74846  10.165   2.428  10.865 -0.1107 -0.1677 -0.2914
24280SOL    HW174847  10.197   2.458  10.950 -0.9857 -1.8408  0.6750
24280SOL    HW274848  10.243   2.398  10.819  0.1280 -1.2807  0.8029
24281SOL     OW74849   0.804   4.006  10.230  0.2409 -0.0853 -0.5244
24281SOL    HW174850   0.723   4.053  10.249  0.4928  0.5134 -0.8676
24281SOL    HW274851   0.844   3.991  10.315 -0.8644 -1.5928 -0.2301
24282SOL     OW74852   5.624   1.313   6.516 -0.0794  0.2674 -0.1166
24282SOL    HW174853   5.590   1.283   6.432 -0.5620  1.0753 -0.2226
24282SOL    HW274854   5.557   1.290   6.580 -2.5781  4.6488 -0.7200
24283SOL     OW74855   5.757   8.224   4.870  0.1287 -0.0376  0.2424
24283SOL    HW174856   5.665   8.252   4.870 -0.1154 -0.8112 -0.1517
24283SOL    HW274857   5.769   8.179   4.954  0.1197 -0.0484  0.2376
24284SOL     OW74858   4.587   5.824   6.913  0.3239 -0.1645  0.0829
24284SOL    HW174859   4.494   5.834   6.890 -0.0329 -0.3176  1.4076
24284SOL    HW274860   4.597   5.732   6.935  0.6207 -0.0048  0.6367
24285SOL     OW74861   5.551   1.754  11.030 -0.0847  0.6130 -1.0323
24285SOL    HW174862   5.622   1.812  11.056  1.1968 -1.4515  0.4413
24285SOL    HW274863   5.479   1.776  11.089 -0.0771  1.5351 -1.3512
24286SOL     OW74864   1.376   6.813   5.664  0.9278  0.2147 -0.1717
24286SOL    HW174865   1.304   6.837   5.605 -1.7650 -3.7285  1.0479
24286SOL    HW274866   1.429   6.751   5.612  0.0035 -1.3039  0.6108
24287SOL     OW74867   2.552   3.013   1.519  0.0967 -0.0144  0.5632
24287SOL    HW174868   2.482   3.078   1.532  0.3164  0.0455  1.5612
24287SOL    HW274869   2.511   2.943   1.468 -0.6460  0.1074  0.9824
24288SOL     OW74870   9.817   8.437   7.829  0.8671 -0.6197 -0.2266
24288SOL    HW174871   9.850   8.522   7.800  0.6960 -0.4963 -0.0574
24288SOL    HW274872   9.895   8.381   7.830  0.9681 -0.4863 -0.4086
24289SOL     OW74873   5.325   3.593   2.722  0.0396  0.4380 -0.3985
24289SOL    HW174874   5.398   3.532   2.717 -0.1564  0.2767 -2.0221
24289SOL    HW274875   5.354   3.669   2.671 -1.1540  0.0685 -1.7163
24290SOL     OW74876  10.481   1.266   1.686 -0.2759  0.4335 -0.2889
24290SOL    HW174877  10.562   1.289   1.641 -1.3064  0.7914 -2.0324
24290SOL    HW274878  10.444   1.350   1.712 -0.2608  0.2863  0.2204
24291SOL     OW74879   6.040   9.753   6.845 -0.5423  0.2969 -0.0415
24291SOL    HW174880   6.120   9.802   6.826 -0.4481  0.8794  1.6399
24291SOL    HW274881   6.070   9.663   6.859 -0.2520  0.3963 -0.0159
24292SOL     OW74882   6.433   0.149   4.951  0.6360  0.0285 -0.4450
24292SOL    HW174883   6.440   0.097   4.870 -1.5271  0.8863 -1.2452
24292SOL    HW274884   6.378   0.224   4.927  0.5326  0.6911  1.6588
24293SOL     OW74885   0.179   3.295   1.611  0.0766  0.0373  0.0462
24293SOL    HW174886   0.232   3.365   1.573  0.4469 -0.8279 -1.0977
24293SOL    HW274887   0.186   3.223   1.548  0.1963 -1.2444  1.4489
24294SOL     OW74888   8.161   2.783   2.441 -0.1304 -0.0699 -0.6975
24294SOL    HW174889   8.081   2.821   2.406  0.5003  2.0420  0.0276
24294SOL    HW274890   8.167   2.697   2.399 -3.2530 -0.7325 -0.0590
24295SOL     OW74891   8.642   0.125  10.994  0.0953 -0.4438 -0.1796
24295SOL    HW174892   8.678   0.071  11.064  0.6038 -0.5580 -0.5207
24295SOL    HW274893   8.570   0.073  10.959 -0.7751  0.0245  0.8664
24296SOL     OW74894   2.833   3.918   1.133  0.4212  0.3269  0.0692
24296SOL    HW174895   2.834   3.919   1.038 -0.7505  1.3728  0.0419
24296SOL    HW274896   2.922   3.895   1.158  0.1036 -2.8886 -1.2498
24297SOL     OW74897   2.406   5.405   9.356  0.0614 -0.7115  0.3424
24297SOL    HW174898   2.450   5.438   9.435  1.5080  0.5371 -0.9223
24297SOL    HW274899   2.336   5.468   9.341  0.0240 -0.7344  0.4166
24298SOL     OW74900   6.192  10.390   9.551  0.1569 -0.9151  0.4180
24298SOL    HW174901   6.116  10.343   9.585 -1.1923  1.2769  0.5993
24298SOL    HW274902   6.191  10.474   9.598  0.4129  0.7280 -2.3268
24299SOL     OW74903   1.259   4.667   4.399  0.2092 -0.6694  0.0199
24299SOL    HW174904   1.275   4.753   4.438 -1.3756 -1.0583  1.7111
24299SOL    HW274905   1.206   4.685   4.322 -1.5793 -0.1414  1.2890
24300SOL     OW74906   8.816  10.774   3.543  0.9488  0.0937 -0.3415
24300SOL    HW174907   8.879  10.729   3.599 -0.1745 -0.4613  0.5047
24300SOL    HW274908   8.813  10.723   3.463  2.7127  0.9998 -1.0401
24301SOL     OW74909   8.637   7.325   7.263 -0.1980  0.4755 -0.1860
24301SOL    HW174910   8.715   7.346   7.212 -0.7968  1.6488 -0.6426
24301SOL    HW274911   8.569   7.384   7.229 -1.0620  0.0737  0.7911
24302SOL     OW74912   7.865   8.482   9.212  0.3969  0.6530  0.7540
24302SOL    HW174913   7.924   8.467   9.138 -0.8916  0.9737 -0.3860
24302SOL    HW274914   7.856   8.395   9.252  0.4195  0.2811 -0.0159
24303SOL     OW74915   2.343   8.576   5.776  0.4373 -0.0053  0.1221
24303SOL    HW174916   2.403   8.531   5.717  0.2763  1.3638 -1.1519
24303SOL    HW274917   2.393   8.650   5.809 -0.5987  1.3395 -1.2147
24304SOL     OW74918   0.039   1.194   2.189  0.6977 -0.3764 -0.0374
24304SOL    HW174919  -0.016   1.149   2.253 -0.3835  1.2288  0.2150
24304SOL    HW274920   0.127   1.191   2.227  0.2259 -0.2329  1.1002
24305SOL     OW74921   1.701   6.106   0.018  0.1414  0.4644 -0.2819
24305SOL    HW174922   1.677   6.025   0.063 -1.4121  0.7881 -0.4908
24305SOL    HW274923   1.711   6.171   0.089 -0.6571  0.5785 -0.2715
24306SOL     OW74924   3.479   7.555   6.102 -1.2040  0.3699 -0.1311
24306SOL    HW174925   3.465   7.538   6.008 -0.6340 -0.4635 -0.0784
24306SOL    HW274926   3.415   7.623   6.124 -1.3297  0.5888 -1.1286
24307SOL     OW74927   7.607   3.084   5.349  0.2832  0.4575 -0.5170
24307SOL    HW174928   7.578   3.148   5.283  0.1775 -0.5784 -1.5098
24307SOL    HW274929   7.662   3.023   5.300 -0.3098 -0.7046  0.2339
24308SOL     OW74930   4.458   9.903   4.750 -0.0718 -0.3048 -0.1452
24308SOL    HW174931   4.423   9.833   4.695  1.1753  0.0206 -1.4263
24308SOL    HW274932   4.422   9.983   4.712  0.5817 -0.0981 -0.3527
24309SOL     OW74933   1.815   2.276   0.143  0.0646  0.0551 -0.4039
24309SOL    HW174934   1.847   2.242   0.059  1.3522  0.7864 -0.2395
24309SOL    HW274935   1.801   2.369   0.126  0.6181  0.2633  0.2725
24310SOL     OW74936   5.688   9.300   0.275 -0.6105 -0.2224 -0.2283
24310SOL    HW174937   5.688   9.380   0.223  0.5593 -0.3106 -0.3946
24310SOL    HW274938   5.641   9.323   0.355 -1.0841  0.3578 -0.6669
24311SOL     OW74939   0.945   1.376   0.772 -0.3210  0.2868 -0.2465
24311SOL    HW174940   0.925   1.433   0.698 -1.7343  1.4049  0.9205
24311SOL    HW274941   0.901   1.294   0.753 -0.6884  0.5709 -0.6319
24312SOL     OW74942   3.430   4.054   8.126 -0.1380  0.2780  0.5690
24312SOL    HW174943   3.509   4.077   8.078  0.2402 -1.6558  0.2008
24312SOL    HW274944   3.392   4.138   8.152  2.2039  1.2323  1.0618
24313SOL     OW74945   2.852   9.075  10.760  0.1553  0.0190 -0.5610
24313SOL    HW174946   2.940   9.101  10.733  1.3156 -1.9761  1.0424
24313SOL    HW274947   2.825   9.011  10.694  0.2943 -0.0831 -0.5177
24314SOL     OW74948   9.718   9.980   2.215  0.7341 -0.6327 -0.4975
24314SOL    HW174949   9.706  10.024   2.132 -1.9798  1.0191  0.6244
24314SOL    HW274950   9.767  10.042   2.269 -0.7040 -0.0513  0.2144
24315SOL     OW74951   9.597   3.020   7.991  0.0997  0.3076 -0.0142
24315SOL    HW174952   9.510   2.981   8.006  1.0594 -1.3237  1.7198
24315SOL    HW274953   9.654   2.976   8.053  2.9245 -1.1766 -3.3173
24316SOL     OW74954   9.292   2.214   2.239 -0.0322  0.0306  0.0207
24316SOL    HW174955   9.208   2.205   2.285 -0.8248  2.6389 -0.6864
24316SOL    HW274956   9.276   2.177   2.153  0.2990 -1.5371  0.6075
24317SOL     OW74957   5.026   8.026   5.951 -0.2208 -0.1576 -0.2963
24317SOL    HW174958   5.073   8.077   5.885 -1.0344  0.9613 -0.0198
24317SOL    HW274959   4.935   8.052   5.941 -0.1922  1.1372  2.2144
24318SOL     OW74960   2.048   7.828   2.600 -0.1114  0.0202 -0.2621
24318SOL    HW174961   2.102   7.750   2.596  0.2551  0.3251 -2.8022
24318SOL    HW274962   1.958   7.795   2.592 -0.3518 -0.3973  2.9249
24319SOL     OW74963   0.227   4.549   7.145  0.6164  0.0890 -0.1300
24319SOL    HW174964   0.217   4.641   7.169 -0.9969 -0.0689 -0.0581
24319SOL    HW274965   0.162   4.535   7.075  1.3396 -0.8198 -0.6524
24320SOL     OW74966   3.318   9.577   9.067 -0.1510  0.3987  0.4494
24320SOL    HW174967   3.412   9.571   9.052  0.0932  0.4018  1.9040
24320SOL    HW274968   3.299   9.671   9.062 -0.0074  0.4354  0.5938
24321SOL     OW74969   2.935   2.165   2.936  0.0204  0.0262 -0.2011
24321SOL    HW174970   2.972   2.249   2.960 -0.0740  0.6492 -2.1173
24321SOL    HW274971   3.008   2.115   2.899 -0.2861 -0.0628 -0.7060
24322SOL     OW74972   8.896   7.729   7.320  0.4232  0.0695  0.7283
24322SOL    HW174973   8.870   7.690   7.236  1.6778  0.8217 -0.0463
24322SOL    HW274974   8.819   7.720   7.376 -1.2677  1.5677 -1.1986
24323SOL     OW74975   5.880   2.782   3.782 -0.2360  0.2718  0.0773
24323SOL    HW174976   5.810   2.729   3.744  1.4144 -2.0709  0.0791
24323SOL    HW274977   5.836   2.861   3.812 -2.8533 -0.9946 -0.0783
24324SOL     OW74978   7.674   7.425   2.182  0.1478  0.9044  0.0902
24324SOL    HW174979   7.750   7.385   2.140  0.6863 -0.3387  2.1099
24324SOL    HW274980   7.609   7.355   2.186  0.0439  1.0380  1.1029
24325SOL     OW74981   5.021   0.807   0.093 -0.1178  0.9328 -0.4993
24325SOL    HW174982   5.014   0.810  -0.003  0.1470  1.1567 -0.5118
24325SOL    HW274983   4.936   0.839   0.124 -0.4225  0.2995 -0.6582
24326SOL     OW74984   3.610   2.047   9.130 -0.1325 -0.5398  0.0485
24326SOL    HW174985   3.646   2.075   9.045 -1.6870  1.8728  0.0582
24326SOL    HW274986   3.545   1.981   9.108 -0.3078 -0.1484 -0.6491
24327SOL     OW74987   2.879   9.855   0.512 -0.5512  0.8080  0.1587
24327SOL    HW174988   2.797   9.888   0.547 -1.2698 -2.2074  1.6398
24327SOL    HW274989   2.871   9.759   0.516  3.0450  0.3542  0.4390
24328SOL     OW74990   9.891   4.125   5.104 -0.1599  0.3329 -0.2302
24328SOL    HW174991   9.843   4.103   5.184 -0.8815  1.2254 -0.3948
24328SOL    HW274992   9.869   4.217   5.087  0.2191  0.2472 -1.2821
24329SOL     OW74993   5.689   8.398   7.470 -0.0860 -0.4070 -0.5192
24329SOL    HW174994   5.611   8.384   7.416  0.4149 -0.1793 -1.3001
24329SOL    HW274995   5.714   8.310   7.499  0.4774 -0.6919 -1.8227
24330SOL     OW74996   4.563   2.912   6.199 -0.4330 -0.3743  0.9686
24330SOL    HW174997   4.507   2.926   6.122  0.8704 -0.4932 -0.0296
24330SOL    HW274998   4.569   2.998   6.240  0.0248  0.0233  0.1023
24331SOL     OW74999   6.905   7.900   0.895  0.3827 -0.8599  0.4898
24331SOL    HW175000   6.876   7.985   0.862 -0.5762 -1.3898 -0.0941
24331SOL    HW275001   6.862   7.891   0.980 -2.0439 -2.0138 -0.7369
24332SOL     OW75002   3.771   1.589   7.203 -0.3066  0.3067 -0.2406
24332SOL    HW175003   3.710   1.662   7.211 -0.6482 -0.1655  2.1902
24332SOL    HW275004   3.731   1.518   7.253  0.1609 -1.4981 -2.2825
24333SOL     OW75005   7.227   9.582   6.961  0.3064  0.6420 -0.0689
24333SOL    HW175006   7.304   9.525   6.958 -0.0970  0.1069 -0.2992
24333SOL    HW275007   7.215   9.600   7.054  1.0670  1.2242 -0.0739
24334SOL     OW75008   2.764   2.127   0.151  0.3615  0.8169 -0.2471
24334SOL    HW175009   2.827   2.184   0.109  1.0202  0.2965  0.0175
24334SOL    HW275010   2.696   2.186   0.184 -0.3820  1.2122 -2.3448
24335SOL     OW75011   7.322   2.345  10.336 -0.1293 -0.1515 -0.2459
24335SOL    HW175012   7.342   2.432  10.302 -2.1378  0.4093 -0.1263
24335SOL    HW275013   7.331   2.287  10.261  1.0792  0.1681 -0.3640
24336SOL     OW75014   8.748   1.903   5.165 -0.3708 -0.4701  0.2330
24336SOL    HW175015   8.695   1.918   5.244 -0.6272  0.3895 -0.0947
24336SOL    HW275016   8.706   1.828   5.123 -0.8743 -0.2689  0.3681
24337SOL     OW75017   5.163   1.940   6.493 -0.1752 -0.0868 -0.3598
24337SOL    HW175018   5.076   1.969   6.464 -1.4212  0.7178  3.5660
24337SOL    HW275019   5.152   1.847   6.511  0.0729 -0.1839 -0.6986
24338SOL     OW75020   7.440   6.491   3.470  0.0786  0.1133 -0.1913
24338SOL    HW175021   7.377   6.563   3.464  0.3191  0.2456 -1.4313
24338SOL    HW275022   7.390   6.414   3.444 -0.1596 -0.1855  1.0677
24339SOL     OW75023   7.332   8.340  10.129  0.2865 -0.3067  0.0073
24339SOL    HW175024   7.346   8.275  10.060  0.6651 -0.2171 -0.0016
24339SOL    HW275025   7.246   8.318  10.164 -0.0918 -0.1009 -0.7635
24340SOL     OW75026   7.677   5.699   2.263  0.2656  0.2306  0.1920
24340SOL    HW175027   7.716   5.777   2.300  0.6759  0.1645 -0.0944
24340SOL    HW275028   7.750   5.638   2.250 -0.0982 -0.3434  0.7668
24341SOL     OW75029   0.502   7.230   7.466 -0.1209 -0.0308 -0.0851
24341SOL    HW175030   0.540   7.317   7.454  1.1523 -0.0772  2.7028
24341SOL    HW275031   0.496   7.194   7.378 -0.4952  2.7485 -1.3328
24342SOL     OW75032   4.297   4.988   2.131  0.1600  0.3068  0.2041
24342SOL    HW175033   4.378   5.020   2.092  0.9168  0.0180  1.4912
24342SOL    HW275034   4.323   4.951   2.215 -1.1540 -0.8055  0.1625
24343SOL     OW75035   9.098   2.156   4.348 -0.4120 -0.3092  0.6879
24343SOL    HW175036   9.119   2.072   4.388 -0.3809 -1.6068 -1.8452
24343SOL    HW275037   9.008   2.147   4.319 -0.7063  0.8996  1.1723
24344SOL     OW75038   3.045   1.031   7.465 -0.0687 -0.6612 -0.1031
24344SOL    HW175039   3.087   0.954   7.428  1.3744  1.3413 -2.9581
24344SOL    HW275040   3.105   1.103   7.447 -2.1615  1.4445  0.7961
24345SOL     OW75041   6.547   9.459   1.159  0.2112 -0.1368  0.2528
24345SOL    HW175042   6.636   9.452   1.124  0.7265  0.8778  1.2930
24345SOL    HW275043   6.504   9.523   1.103  0.5519  0.3244  0.5066
24346SOL     OW75044   8.413   9.483  10.210  0.8550 -0.1107 -0.3769
24346SOL    HW175045   8.349   9.510  10.143  1.1465 -0.7679 -0.9251
24346SOL    HW275046   8.361   9.475  10.290  0.5828  1.1538 -0.3924
24347SOL     OW75047   7.257   4.731   4.003 -0.4123  0.0167  0.6381
24347SOL    HW175048   7.163   4.746   4.011 -0.4487 -0.2819  0.7904
24347SOL    HW275049   7.281   4.685   4.084 -0.3853 -1.1390 -0.0037
24348SOL     OW75050   0.199   1.728   2.244  0.0590  0.3874 -0.1390
24348SOL    HW175051   0.237   1.764   2.324 -1.2327  1.3912  0.0490
24348SOL    HW275052   0.259   1.755   2.174  0.5614  0.5277  0.3406
24349SOL     OW75053   9.564   9.739   2.247  0.4026 -0.8212  0.0774
24349SOL    HW175054   9.477   9.742   2.207 -0.6327  0.5481  2.2341
24349SOL    HW275055   9.604   9.823   2.223 -0.1585 -0.0669  1.6276
24350SOL     OW75056   2.359   2.576   6.828  0.1545 -0.7980  0.9847
24350SOL    HW175057   2.442   2.533   6.806  0.9195  0.9150  0.3602
24350SOL    HW275058   2.338   2.628   6.750 -1.2072 -0.7408  1.3730
24351SOL     OW75059   4.465   8.796  10.007 -0.0687 -0.3202  0.0384
24351SOL    HW175060   4.478   8.754   9.923 -0.9828  0.0986 -0.3316
24351SOL    HW275061   4.553   8.812  10.041  0.2951 -0.8826 -0.6357
24352SOL     OW75062   8.988   7.218   6.714 -0.1724 -0.1200  0.3467
24352SOL    HW175063   9.044   7.221   6.637  1.5129 -1.0589  1.4763
24352SOL    HW275064   9.001   7.130   6.750 -1.0863  0.2111  1.5718
24353SOL     OW75065   1.776  10.236   5.903 -0.2526 -0.0573 -0.3126
24353SOL    HW175066   1.846  10.214   5.841 -0.1392  1.0153 -0.5960
24353SOL    HW275067   1.764  10.157   5.955  2.9254  0.4562  1.4530
24354SOL     OW75068   4.570   1.132  10.408  0.2756 -0.1924  0.1261
24354SOL    HW175069   4.628   1.177  10.346  0.6259  1.1962  1.3759
24354SOL    HW275070   4.599   1.164  10.494 -1.6568 -0.2983  0.8582
24355SOL     OW75071   0.882   5.782   6.777 -0.3237 -0.1947  0.5119
24355SOL    HW175072   0.943   5.806   6.847 -0.1725  0.5400  0.1402
24355SOL    HW275073   0.938   5.744   6.709 -0.3374  0.0329  0.3718
24356SOL     OW75074   6.598   3.388   3.263  0.2084 -0.0239 -0.1662
24356SOL    HW175075   6.680   3.340   3.249  0.9162  1.1179 -0.1640
24356SOL    HW275076   6.606   3.424   3.351 -1.4285 -1.9472  0.8400
24357SOL     OW75077   5.983   2.302   9.702  0.0069  0.0863 -0.6041
24357SOL    HW175078   6.051   2.269   9.760 -0.5486  0.7275  0.4442
24357SOL    HW275079   5.940   2.223   9.668  1.2423 -0.3192 -1.2679
24358SOL     OW75080   5.321   9.044   6.329 -0.3663  0.0461 -0.0172
24358SOL    HW175081   5.389   9.074   6.388  0.5294  0.8070 -1.3686
24358SOL    HW275082   5.334   8.949   6.323  0.6949  0.1997 -0.3751
24359SOL     OW75083   7.498   7.005   3.234  0.1111 -0.0906  0.1281
24359SOL    HW175084   7.578   7.036   3.277  0.2479  0.4888 -0.5364
24359SOL    HW275085   7.526   6.929   3.183 -0.0081 -0.6400  0.8597
24360SOL     OW75086   3.528   3.685   0.291 -0.1077 -0.8111  0.3343
24360SOL    HW175087   3.522   3.589   0.288  1.2735 -0.8949 -1.5241
24360SOL    HW275088   3.618   3.704   0.266 -0.7365  0.9959 -0.7436
24361SOL     OW75089   5.494   9.702   0.716  0.0534 -0.2642 -0.4054
24361SOL    HW175090   5.554   9.715   0.789 -0.9606  0.5628  0.3033
24361SOL    HW275091   5.447   9.622   0.738 -0.5947  0.2479  0.1073
24362SOL     OW75092   1.895   3.081   0.986  0.2122  0.0241 -0.4752
24362SOL    HW175093   1.877   3.018   1.055 -0.9906  0.5882 -0.2537
24362SOL    HW275094   1.991   3.085   0.981  0.3352  0.2587  1.4324
24363SOL     OW75095   5.521   2.374  10.749  0.3155  0.0424 -0.1189
24363SOL    HW175096   5.467   2.312  10.798  1.9694 -0.7818  0.7426
24363SOL    HW275097   5.591   2.398  10.810 -0.0432  2.4868 -0.5585
24364SOL     OW75098   8.226   5.196   2.969  0.7306  0.0166  0.4661
24364SOL    HW175099   8.319   5.211   2.984  1.0457 -1.3365 -0.0350
24364SOL    HW275100   8.192   5.170   3.055  1.2000 -1.2680  0.2833
24365SOL     OW75101   8.192   5.535   2.544  0.6554  0.1522  0.1473
24365SOL    HW175102   8.104   5.506   2.521  0.4783  0.8108 -0.0342
24365SOL    HW275103   8.229   5.463   2.594 -0.7274  0.6659  2.0362
24366SOL     OW75104   7.900   9.427   6.285  0.6058  0.2696 -0.0803
24366SOL    HW175105   7.970   9.387   6.336 -0.0810  0.2712  0.9074
24366SOL    HW275106   7.839   9.354   6.268  0.4444  0.4327 -0.1996
24367SOL     OW75107  10.105   2.325   4.495  0.1247  0.0286 -0.2007
24367SOL    HW175108  10.024   2.371   4.472  0.5211  0.2384 -1.2300
24367SOL    HW275109  10.172   2.393   4.490  0.3631 -0.1231  0.7407
24368SOL     OW75110   1.314   2.567   5.728 -0.4054  0.2765  0.3073
24368SOL    HW175111   1.341   2.639   5.671  0.4210  0.0631  0.4115
24368SOL    HW275112   1.240   2.527   5.683  0.0888  0.2560 -0.5074
24369SOL     OW75113   3.153   0.196   0.638 -0.6517 -0.5153  0.2688
24369SOL    HW175114   3.138   0.104   0.660  0.8520 -0.7054  0.6274
24369SOL    HW275115   3.093   0.244   0.695 -0.1836 -1.2174  1.3853
24370SOL     OW75116   2.869   6.793   0.649 -0.1819  1.0439 -0.0050
24370SOL    HW175117   2.858   6.868   0.591 -0.8258  1.2478  0.3603
24370SOL    HW275118   2.868   6.831   0.737 -0.5128  0.6099  0.1825
24371SOL     OW75119   9.360   0.251   5.705 -0.0315  0.1022  0.0297
24371SOL    HW175120   9.399   0.255   5.618  1.8607 -3.2162  0.6022
24371SOL    HW275121   9.267   0.232   5.688  0.2793 -0.3675 -1.2750
24372SOL     OW75122   7.326  10.131   8.827  0.6960  0.6092  0.7872
24372SOL    HW175123   7.329  10.200   8.894  2.1336  1.1221  0.2356
24372SOL    HW275124   7.375  10.167   8.753  0.6296 -0.6264  0.1116
24373SOL     OW75125   5.745   3.564   8.585  0.2913  0.0549  0.3822
24373SOL    HW175126   5.679   3.495   8.593  0.2206  0.3347  3.6009
24373SOL    HW275127   5.700   3.644   8.614  1.3622  0.7374  0.2126
24374SOL     OW75128   3.108   5.915   9.466  0.4454  0.1186 -0.4387
24374SOL    HW175129   3.041   5.983   9.474  0.8842  0.4244  0.8164
24374SOL    HW275130   3.167   5.948   9.398 -0.5412 -0.0592 -1.4100
24375SOL     OW75131   5.780   8.042   4.657  0.7955  0.1049 -0.7887
24375SOL    HW175132   5.745   8.119   4.700 -0.8131 -0.7215 -0.5327
24375SOL    HW275133   5.859   8.020   4.708  0.2241  0.4892  0.3051
24376SOL     OW75134   4.411   1.583   5.511 -0.2352 -0.5012 -0.0793
24376SOL    HW175135   4.481   1.648   5.507 -0.7661  0.1406  0.6226
24376SOL    HW275136   4.345   1.623   5.568 -1.3853 -0.8871 -1.1057
24377SOL     OW75137   6.951   0.849   4.960 -0.6300 -0.1187  0.2586
24377SOL    HW175138   6.906   0.796   5.026 -0.8228 -0.3016 -0.0161
24377SOL    HW275139   6.962   0.935   5.001 -0.2935 -0.3808  0.7166
24378SOL     OW75140   5.800   7.281   5.299 -0.5084  0.3105  0.1187
24378SOL    HW175141   5.859   7.253   5.228  1.8307  0.8181  1.7547
24378SOL    HW275142   5.764   7.365   5.268 -0.2540  0.0794 -0.8365
24379SOL     OW75143   0.837  10.004   1.753  0.1226  0.0478 -0.1581
24379SOL    HW175144   0.854   9.994   1.659  0.9816  0.4596 -0.0498
24379SOL    HW275145   0.747  10.038   1.757 -0.3795 -1.1552 -0.7716
24380SOL     OW75146   1.438   3.084   1.621 -0.8206  0.3589  0.4749
24380SOL    HW175147   1.478   3.126   1.545 -1.5229 -0.7182 -0.5303
24380SOL    HW275148   1.346   3.073   1.596 -1.2759  0.8134  1.8559
24381SOL     OW75149   8.396   7.072   2.594 -0.5139  0.1116  0.1244
24381SOL    HW175150   8.478   7.105   2.633 -0.9551  0.9717  0.3532
24381SOL    HW275151   8.388   6.983   2.626  1.6627 -0.9564 -1.9426
24382SOL     OW75152   6.327   6.797  10.633 -0.4778 -0.4812  0.5262
24382SOL    HW175153   6.277   6.785  10.553 -0.5097  0.6180  0.3637
24382SOL    HW275154   6.354   6.889  10.631  1.4761 -0.9989  0.6356
24383SOL     OW75155   8.944   6.350   8.739 -0.4152  0.0930  0.5474
24383SOL    HW175156   8.919   6.351   8.831  1.6389  1.5052  1.1314
24383SOL    HW275157   9.015   6.286   8.733 -1.1831 -0.7350 -0.2946
24384SOL     OW75158   6.826   8.573   8.679  0.3420 -0.1301 -0.5743
24384SOL    HW175159   6.742   8.611   8.703  0.0219 -0.7002 -0.7935
24384SOL    HW275160   6.827   8.487   8.720  1.0788  0.1048 -0.0607
24385SOL     OW75161   7.051   0.565   1.413  0.6183 -0.3633 -0.4948
24385SOL    HW175162   7.036   0.639   1.354 -0.9233 -0.6236 -0.4758
24385SOL    HW275163   6.970   0.559   1.464  1.5904 -0.6755  1.0738
24386SOL     OW75164   1.066   7.451   6.164  0.2950  0.2371  0.1016
24386SOL    HW175165   1.110   7.486   6.242 -0.2069  0.7049  0.1785
24386SOL    HW275166   0.974   7.449   6.187 -0.0897  1.9453 -1.0341
24387SOL     OW75167   1.115   0.618   9.420  0.0993  0.3606 -0.2799
24387SOL    HW175168   1.045   0.642   9.360  0.6481  1.2813 -0.5759
24387SOL    HW275169   1.173   0.694   9.421  1.3353 -0.5461 -0.4021
24388SOL     OW75170   6.058   4.952   6.184 -0.2163 -0.4831 -0.1376
24388SOL    HW175171   5.983   4.978   6.238  0.3084 -0.0665  0.4058
24388SOL    HW275172   6.028   4.874   6.137 -1.8300  1.0661 -1.8037
24389SOL     OW75173   9.224   5.418   7.893  0.1148  0.1935 -0.7107
24389SOL    HW175174   9.144   5.365   7.892  1.0694 -1.3174 -0.8912
24389SOL    HW275175   9.279   5.379   7.825  0.4569  2.1212 -1.6021
24390SOL     OW75176   4.500   9.544   1.689  0.0319 -0.0611 -0.1698
24390SOL    HW175177   4.525   9.616   1.631  0.2681  0.8922  1.0612
24390SOL    HW275178   4.513   9.579   1.777 -2.0319 -0.8246  0.5013
24391SOL     OW75179   7.191   3.580   0.580  0.1567 -0.2538  0.5596
24391SOL    HW175180   7.135   3.576   0.657 -2.5988 -0.2564 -1.3141
24391SOL    HW275181   7.239   3.663   0.589 -1.7552  0.8233  1.2470
24392SOL     OW75182   1.850   8.595   4.501  0.0228 -0.1208 -0.5112
24392SOL    HW175183   1.842   8.543   4.421  1.0544 -0.9393 -0.1030
24392SOL    HW275184   1.789   8.668   4.489 -0.9093 -1.0263 -1.4095
24393SOL     OW75185   1.902   2.064   3.694 -0.0499 -0.1219  0.3621
24393SOL    HW175186   1.810   2.085   3.680 -0.1498  0.7978  2.0292
24393SOL    HW275187   1.943   2.148   3.718  0.8667 -0.7636  1.1811
24394SOL     OW75188   5.328   1.839   3.952  0.2299  0.1387 -0.9946
24394SOL    HW175189   5.306   1.929   3.975  1.5354  0.5066 -1.1204
24394SOL    HW275190   5.301   1.788   4.029  0.7447  0.8208 -0.3404
24395SOL     OW75191   9.795   6.302   5.316  0.3710 -0.4345  0.1154
24395SOL    HW175192   9.865   6.248   5.280  0.0682 -0.3398 -0.6241
24395SOL    HW275193   9.800   6.384   5.268 -0.7090 -0.6941 -0.4702
24396SOL     OW75194   1.362   8.923  10.580 -0.0255  0.4043  0.1382
24396SOL    HW175195   1.453   8.936  10.553  0.7962  0.4682  2.6405
24396SOL    HW275196   1.326   9.012  10.585 -0.1355  0.4006 -0.5604
24397SOL     OW75197   0.503   5.905   9.687 -0.0319  0.4576 -0.3386
24397SOL    HW175198   0.583   5.862   9.657 -0.4807  0.1439 -1.1058
24397SOL    HW275199   0.435   5.838   9.679 -0.2586  0.5164  0.9334
24398SOL     OW75200   8.382   4.257  10.575 -0.2518 -0.3267  0.9231
24398SOL    HW175201   8.460   4.201  10.569 -0.2503 -0.1864 -0.8528
24398SOL    HW275202   8.413   4.345  10.555 -0.7227 -0.1317  1.0274
24399SOL     OW75203   9.202   6.294   9.632 -0.0800 -0.5228  0.0598
24399SOL    HW175204   9.116   6.264   9.603 -0.7103  0.8856  0.3507
24399SOL    HW275205   9.183   6.356   9.703  1.2043 -0.5856  0.4881
24400SOL     OW75206   4.318   7.018   8.878  0.6812  0.1018 -0.3141
24400SOL    HW175207   4.261   6.941   8.887  1.2473 -0.1144  1.9800
24400SOL    HW275208   4.392   6.987   8.825  0.6003 -0.7577  0.0600
24401SOL     OW75209   4.050   0.172   0.275  0.6180  0.3456  0.9242
24401SOL    HW175210   4.006   0.147   0.356  1.5424 -2.3758  0.6833
24401SOL    HW275211   4.084   0.090   0.240  1.5007  1.6500 -1.4946
24402SOL     OW75212   6.081   2.258   3.000  0.3247 -0.2694 -0.0180
24402SOL    HW175213   6.047   2.345   2.978 -0.4834 -0.9540 -1.7099
24402SOL    HW275214   6.176   2.268   2.992  0.3274  0.7532  1.0512
24403SOL     OW75215   1.116   2.932   7.910 -0.8301 -0.1183 -0.3183
24403SOL    HW175216   1.164   3.012   7.892  0.8067 -1.0561 -0.3733
24403SOL    HW275217   1.184   2.865   7.921 -2.0881 -1.2636  0.9317
24404SOL     OW75218   3.022   6.609   3.300  0.4674  0.3321  1.0502
24404SOL    HW175219   2.961   6.537   3.284  0.8668 -0.5100  3.0123
24404SOL    HW275220   3.108   6.572   3.281  0.6957  0.1816  2.2951
24405SOL     OW75221   0.487   8.936   2.165  0.0766  0.1249  0.2407
24405SOL    HW175222   0.455   8.926   2.076  0.9980 -0.5692 -0.0244
24405SOL    HW275223   0.437   8.872   2.216  0.8550 -0.8016 -0.1330
24406SOL     OW75224   4.643   5.204   1.050  0.0093  0.4109 -0.0282
24406SOL    HW175225   4.663   5.117   1.084  2.0627  0.8795  0.1443
24406SOL    HW275226   4.638   5.193   0.955  1.9802  0.3333 -0.1653
24407SOL     OW75227   3.622   1.594  10.652  0.1405  0.3171  0.0896
24407SOL    HW175228   3.563   1.668  10.667  0.7491  0.7230  0.4963
24407SOL    HW275229   3.580   1.521  10.698 -0.8495  0.2020 -0.9297
24408SOL     OW75230   0.559   1.870  10.191 -0.2820 -0.1421  0.2612
24408SOL    HW175231   0.592   1.849  10.278  0.8554 -0.0630 -0.1331
24408SOL    HW275232   0.571   1.964  10.183 -2.0877  0.1474  0.6944
24409SOL     OW75233   3.340   6.477   6.663  0.2533 -0.2955 -0.3497
24409SOL    HW175234   3.416   6.533   6.668  0.8569 -1.1366  0.2501
24409SOL    HW275235   3.343   6.425   6.743 -1.2442  0.0166 -0.0563
24410SOL     OW75236   0.167   4.561   5.987 -0.0015 -1.2587 -0.1840
24410SOL    HW175237   0.248   4.529   6.025 -0.3631  0.5799  2.4077
24410SOL    HW275238   0.098   4.513   6.033 -0.4221 -0.6500 -0.1654
24411SOL     OW75239   3.960   5.569   0.232 -0.3342  0.6411  0.1765
24411SOL    HW175240   4.026   5.637   0.223 -1.1834  1.1703 -4.9156
24411SOL    HW275241   3.881   5.615   0.262  0.1600  1.0028  0.9531
24412SOL     OW75242   2.093  10.185   9.437  0.0454 -0.6843 -0.4402
24412SOL    HW175243   2.016  10.180   9.493  0.2460 -1.1494 -0.2010
24412SOL    HW275244   2.135  10.268   9.461  1.4666 -1.9631  1.8776
24413SOL     OW75245   7.030   3.902   2.870 -0.3351 -0.1415  0.1688
24413SOL    HW175246   7.068   3.974   2.820  1.9192 -0.9726  0.5458
24413SOL    HW275247   6.952   3.939   2.911  0.1226  1.7333 -0.5671
24414SOL     OW75248   5.024   1.402   3.366  0.5782  0.1916  0.6744
24414SOL    HW175249   4.987   1.319   3.396  0.8988  0.0499  0.6849
24414SOL    HW275250   5.055   1.444   3.445  0.2245  0.4178  0.6930
24415SOL     OW75251   3.042   4.152   2.539  0.0580 -0.5261  0.0889
24415SOL    HW175252   3.004   4.190   2.618  0.7431  2.3447 -0.8565
24415SOL    HW275253   2.985   4.180   2.468  1.6861  0.4735 -0.8861
24416SOL     OW75254   0.117   5.151   9.880  0.0071 -0.3223  0.3839
24416SOL    HW175255   0.171   5.099   9.820  0.2469 -0.9791  1.1477
24416SOL    HW275256   0.135   5.113   9.966 -3.3046 -2.0655  0.4573
24417SOL     OW75257   3.150   9.125   6.544  0.3641 -0.2430  0.0477
24417SOL    HW175258   3.224   9.169   6.586  2.5705 -1.3417 -2.3375
24417SOL    HW275259   3.171   9.032   6.553 -0.8841 -0.5864 -0.4870
24418SOL     OW75260   4.458  10.693   5.067  0.2768  0.9922 -0.1736
24418SOL    HW175261   4.370  10.731   5.065  0.2459  0.9640  0.3809
24418SOL    HW275262   4.516  10.767   5.082  0.5919  1.3592 -2.7757
24419SOL     OW75263   9.041   4.413   3.726 -0.2982 -0.5203 -0.0322
24419SOL    HW175264   9.088   4.344   3.679 -0.6624 -1.6544  1.2061
24419SOL    HW275265   9.031   4.379   3.814 -0.3879  1.1901  0.6558
24420SOL     OW75266   2.873   4.624   5.522 -0.0234 -0.2570 -0.5835
24420SOL    HW175267   2.914   4.557   5.576  1.7200  0.3955 -1.0189
24420SOL    HW275268   2.848   4.578   5.441  2.1040 -0.2645 -1.3216
24421SOL     OW75269   1.100   7.082   6.777  0.1819 -0.2028 -1.1568
24421SOL    HW175270   1.171   7.126   6.730 -0.1815 -2.2934 -3.9758
24421SOL    HW275271   1.028   7.145   6.778  1.6729  1.5923  0.8843
24422SOL     OW75272   5.296   0.704   2.919 -0.3398  0.0117  0.0889
24422SOL    HW175273   5.282   0.678   2.828 -2.8923  0.6500  0.2330
24422SOL    HW275274   5.363   0.773   2.914 -1.1615  0.7506 -1.4437
24423SOL     OW75275   1.942   5.183   6.205 -0.7981  0.3350  0.0321
24423SOL    HW175276   2.015   5.123   6.221 -0.3281  0.5097 -1.3610
24423SOL    HW275277   1.864   5.132   6.228 -0.2785  0.0065  1.1291
24424SOL     OW75278   3.614   5.810  10.826 -0.0633 -0.2790 -0.2091
24424SOL    HW175279   3.675   5.746  10.788 -1.1330 -1.0046 -0.7675
24424SOL    HW275280   3.539   5.809  10.767 -0.4959  0.8114  0.3052
24425SOL     OW75281   3.569   6.245   8.211 -0.3855  0.0870  0.0458
24425SOL    HW175282   3.648   6.224   8.261 -0.9944 -0.8937  0.6318
24425SOL    HW275283   3.600   6.303   8.142  0.7570  0.1643  0.5867
24426SOL     OW75284   2.973  10.637   7.217 -0.1862  0.1575  0.0276
24426SOL    HW175285   2.964  10.732   7.222  0.7198  0.2075  1.2850
24426SOL    HW275286   2.906  10.603   7.276 -0.2194  0.0337 -0.0810
24427SOL     OW75287   1.941   4.260   6.228 -0.4813  0.0745 -0.1715
24427SOL    HW175288   1.967   4.311   6.151  0.0708  0.1011  0.0325
24427SOL    HW275289   1.888   4.321   6.281 -0.5922  0.1524 -0.3695
24428SOL     OW75290   3.893  10.200   6.228 -0.5473  0.5176 -0.2528
24428SOL    HW175291   3.835  10.157   6.291 -1.2172  0.3915 -0.9406
24428SOL    HW275292   3.840  10.208   6.149  0.0028  1.4391 -0.5380
24429SOL     OW75293  10.198  10.646   8.661  0.3602 -0.2957 -0.0161
24429SOL    HW175294  10.274  10.587   8.664  1.2655  0.8790  0.9464
24429SOL    HW275295  10.199  10.682   8.572 -0.7059 -2.3093 -0.9091
24430SOL     OW75296   4.552   4.968   8.678 -0.1318  0.3362  0.0560
24430SOL    HW175297   4.595   4.903   8.734 -1.3792 -0.8773 -0.3408
24430SOL    HW275298   4.460   4.962   8.700 -0.4034  1.2214 -0.7645
24431SOL     OW75299   2.135   7.223   8.575  0.1347 -0.2017  0.1468
24431SOL    HW175300   2.089   7.163   8.634 -0.8429  1.0262  0.6876
24431SOL    HW275301   2.214   7.176   8.549 -0.3618 -1.5188  0.9376
24432SOL     OW75302   4.121   4.936   8.302 -0.5708 -0.1466  0.3809
24432SOL    HW175303   4.115   5.020   8.257  1.4359 -0.1146  0.0822
24432SOL    HW275304   4.215   4.916   8.305 -0.9782 -2.4072  0.4019
24433SOL     OW75305   8.610   9.888   9.962  0.1690  0.0349 -0.1112
24433SOL    HW175306   8.643   9.808   9.921 -1.8990  0.0054 -1.8418
24433SOL    HW275307   8.689   9.938   9.983  1.5444 -2.5300  1.3064
24434SOL     OW75308   0.206   4.622   2.399  0.0487 -0.0538  0.2166
24434SOL    HW175309   0.166   4.552   2.451  0.8990 -0.9279 -0.2945
24434SOL    HW275310   0.132   4.676   2.372 -0.8870 -1.8724 -1.0658
24435SOL     OW75311   5.259   6.941   5.437  0.4955 -0.3421  0.6678
24435SOL    HW175312   5.208   6.936   5.357 -0.5456 -1.2280  1.3519
24435SOL    HW275313   5.260   7.034   5.460 -1.1441 -0.3442  0.8374
24436SOL     OW75314   6.088   6.671  10.116  0.2366  0.1912 -0.3320
24436SOL    HW175315   6.015   6.631  10.164 -0.5205  0.7257 -1.0126
24436SOL    HW275316   6.103   6.611  10.043  0.0523  0.4082 -0.5484
24437SOL     OW75317   7.693   5.705   3.520  0.2221 -0.1925 -0.6516
24437SOL    HW175318   7.743   5.663   3.590 -0.1716  0.4624  0.0316
24437SOL    HW275319   7.738   5.679   3.440  0.3091 -1.4663 -0.2065
24438SOL     OW75320   7.863   7.321   5.832  0.3747  0.1402 -0.0753
24438SOL    HW175321   7.840   7.311   5.740 -0.7661 -0.8874  0.2874
24438SOL    HW275322   7.812   7.396   5.862 -2.5261 -1.9175  0.6402
24439SOL     OW75323  10.779   8.148   0.150 -0.1004 -0.0379  0.1006
24439SOL    HW175324  10.696   8.176   0.187 -0.1778  0.9911 -0.7952
24439SOL    HW275325  10.824   8.229   0.126  2.3969 -0.3520  3.0188
24440SOL     OW75326   4.524   6.073   6.325 -0.3416 -0.1408  0.1632
24440SOL    HW175327   4.596   6.045   6.382 -0.9718 -0.4718  0.8180
24440SOL    HW275328   4.475   6.138   6.376 -0.5506  0.0274 -0.2422
24441SOL     OW75329   6.161   1.938   5.464  0.4759 -0.0310 -0.7727
24441SOL    HW175330   6.182   2.020   5.421  0.6856  1.0705  1.3227
24441SOL    HW275331   6.092   1.960   5.526  0.6658 -1.4018 -0.0229
24442SOL     OW75332   5.177   1.639   0.434  0.3300  0.0498  0.0427
24442SOL    HW175333   5.105   1.678   0.484 -1.0606  0.1513 -1.9100
24442SOL    HW275334   5.204   1.563   0.485 -2.0865 -0.7644  0.2335
24443SOL     OW75335   7.064   4.318   4.430  0.2083 -0.0198  0.0914
24443SOL    HW175336   7.142   4.372   4.442 -0.7751  1.3997  0.4202
24443SOL    HW275337   7.026   4.349   4.348  1.1008 -2.1849 -1.1932
24444SOL     OW75338   1.896   2.921   9.044  0.2149  0.8059  0.2939
24444SOL    HW175339   1.830   2.908   8.976  0.5718  0.8329 -0.0568
24444SOL    HW275340   1.851   2.898   9.125 -0.2465  0.8856  0.0635
24445SOL     OW75341   8.750  10.645   1.062 -0.4234 -0.5440  0.4269
24445SOL    HW175342   8.810  10.581   1.101 -0.6639 -0.7037  0.5372
24445SOL    HW275343   8.672  10.595   1.041 -0.4363 -0.3791  0.0827
24446SOL     OW75344   2.660  10.742   5.276  0.2005 -0.2181  0.2703
24446SOL    HW175345   2.727  10.683   5.242 -0.0373 -1.1831  1.4201
24446SOL    HW275346   2.709  10.814   5.316  0.5000  1.3218 -2.5649
24447SOL     OW75347   3.746   5.821   4.487  0.8809  0.1693  0.7203
24447SOL    HW175348   3.667   5.767   4.479  0.8677  0.1776  0.7993
24447SOL    HW275349   3.793   5.806   4.405 -0.3432  2.0033 -0.3838
24448SOL     OW75350   0.968   9.777   0.339  0.2783  0.4398 -0.0341
24448SOL    HW175351   0.916   9.834   0.282  1.7314  1.5081 -0.3366
24448SOL    HW275352   0.944   9.805   0.428 -0.4110  0.2120 -0.1373
24449SOL     OW75353   2.569   2.203   5.909 -0.2409 -0.5183 -0.0114
24449SOL    HW175354   2.507   2.276   5.909 -0.5796 -0.7981  0.8305
24449SOL    HW275355   2.632   2.226   5.841  0.0679  0.9106  0.7197
24450SOL     OW75356   0.660  10.938   6.743  0.5793  0.1572 -0.3028
24450SOL    HW175357   0.665  10.998   6.818  0.0710 -0.7865  0.5100
24450SOL    HW275358   0.731  10.965   6.686  2.3241 -0.3921  1.5085
24451SOL     OW75359   0.352   7.906   7.545 -1.2428  0.1040  0.3556
24451SOL    HW175360   0.427   7.962   7.527 -1.0540  0.2675  1.5694
24451SOL    HW275361   0.320   7.935   7.630 -1.3020 -1.4517  0.9078
24452SOL     OW75362   8.412   8.671   3.561  0.1643 -0.5566  0.0753
24452SOL    HW175363   8.322   8.640   3.556  0.0119  0.0592 -1.9582
24452SOL    HW275364   8.457   8.604   3.614 -1.6989 -0.1768  2.3086
24453SOL     OW75365  10.555   1.595   3.129 -0.2378  0.3180  0.3389
24453SOL    HW175366  10.618   1.625   3.194  0.6638 -0.8646  0.0382
24453SOL    HW275367  10.601   1.605   3.045  0.3902 -2.4330  0.2572
24454SOL     OW75368   5.089   3.822   5.809  0.7571  0.6039 -0.9221
24454SOL    HW175369   5.146   3.853   5.879 -0.1947 -0.3048  0.2911
24454SOL    HW275370   5.134   3.746   5.773  1.6406  1.5466 -1.8879
24455SOL     OW75371   7.531  10.052   3.026  0.1656 -0.2066  0.0916
24455SOL    HW175372   7.612  10.072   2.979  0.4079  0.5679  0.8103
24455SOL    HW275373   7.542   9.962   3.055  0.3208 -0.4478 -0.7042
24456SOL     OW75374  10.588  11.019   9.568 -0.4360  0.5445 -0.5851
24456SOL    HW175375  10.635  10.980   9.495  1.9435 -0.6924  1.4463
24456SOL    HW275376  10.585  11.112   9.549  0.2379  0.2598 -2.1580
24457SOL     OW75377   4.667   4.608   9.898 -0.0644  0.2875  0.2720
24457SOL    HW175378   4.601   4.670   9.867  0.2717  0.1777 -0.6887
24457SOL    HW275379   4.616   4.537   9.938 -0.5644 -0.0294 -0.8831
24458SOL     OW75380   7.306  10.189   6.079 -0.1274  0.2622 -0.3125
24458SOL    HW175381   7.399  10.212   6.076  0.2433 -1.0161  0.6085
24458SOL    HW275382   7.260  10.272   6.068  1.1246  0.9585 -0.4363
24459SOL     OW75383   5.885   1.239   4.304  0.1658  0.2977  0.3242
24459SOL    HW175384   5.882   1.192   4.220 -1.3930  0.3760  0.2940
24459SOL    HW275385   5.963   1.294   4.298  0.5104 -0.2790 -0.7658
24460SOL     OW75386   2.797  11.030   9.215 -0.0187 -0.5499  0.2370
24460SOL    HW175387   2.789  11.121   9.187 -0.0249 -0.3635  0.8198
24460SOL    HW275388   2.765  10.979   9.142 -2.6867  0.0142  0.9216
24461SOL     OW75389   1.366   1.334   0.193  0.0618 -0.2727 -0.0479
24461SOL    HW175390   1.287   1.321   0.246  0.5689  1.3325  1.2142
24461SOL    HW275391   1.394   1.423   0.216  1.6085 -0.4063 -1.3238
24462SOL     OW75392   3.914   0.602   3.555 -0.0759  0.1421  0.5144
24462SOL    HW175393   3.999   0.577   3.592 -0.1569  0.5086  0.9678
24462SOL    HW275394   3.870   0.649   3.626  0.2154  1.8873 -0.3991
24463SOL     OW75395   0.017   3.388   4.688  0.8107  0.0701 -0.1943
24463SOL    HW175396  -0.049   3.458   4.683  1.0332  0.5003  2.0462
24463SOL    HW275397  -0.016   3.320   4.629 -0.5110  1.1756 -0.7990
24464SOL     OW75398   1.383   2.047   7.736 -0.0600 -0.2231  0.3684
24464SOL    HW175399   1.342   1.993   7.804 -0.4997  0.4135  0.6201
24464SOL    HW275400   1.416   1.984   7.672 -0.7000 -0.7864  0.5785
24465SOL     OW75401   9.583   2.462   6.217 -0.0597  0.3790  0.0644
24465SOL    HW175402   9.586   2.531   6.285 -0.7195 -0.5931  1.1255
24465SOL    HW275403   9.640   2.393   6.251  2.3325  1.2022 -2.0047
24466SOL     OW75404   6.948   8.984   8.000 -0.3338 -0.2939 -0.2048
24466SOL    HW175405   7.033   8.974   8.042 -0.5204  0.6935  0.4338
24466SOL    HW275406   6.885   8.977   8.071 -0.6955  0.6598 -0.4181
24467SOL     OW75407  10.284   1.515  10.881  0.0368 -0.3963 -0.6039
24467SOL    HW175408  10.324   1.593  10.920  0.4658 -0.1803 -1.4610
24467SOL    HW275409  10.191   1.522  10.903 -0.2543  1.3136 -2.2057
24468SOL     OW75410   6.169   7.812   3.783  0.3058  0.1207 -0.3114
24468SOL    HW175411   6.129   7.829   3.698 -0.4358 -0.4070 -0.0787
24468SOL    HW275412   6.141   7.723   3.806  0.5138  0.2461  0.4698
24469SOL     OW75413   0.436   9.137   9.865 -0.4908  0.3774  0.6331
24469SOL    HW175414   0.452   9.217   9.815  0.9397 -1.3425 -1.8754
24469SOL    HW275415   0.474   9.155   9.951  1.0887  1.9219 -0.3154
24470SOL     OW75416   1.231   7.813  10.021  0.2253 -0.0926 -0.1716
24470SOL    HW175417   1.306   7.833   9.964  0.4738 -2.3780 -0.7677
24470SOL    HW275418   1.154   7.840   9.970  0.5606  0.7199 -0.2641
24471SOL     OW75419   6.934   9.571   2.938  0.6212 -0.1396  0.1279
24471SOL    HW175420   6.884   9.593   2.859  1.3046 -0.1693 -0.3251
24471SOL    HW275421   6.873   9.586   3.010  0.1306  0.3363 -0.3763
24472SOL     OW75422   2.029   0.706   2.133  0.3560 -0.1255 -0.2349
24472SOL    HW175423   2.023   0.625   2.184  2.7505 -2.0913 -2.8317
24472SOL    HW275424   1.987   0.685   2.050 -0.6204  1.9731 -0.3345
24473SOL     OW75425   7.810   3.676   0.867  0.7004  0.0574 -0.4744
24473SOL    HW175426   7.879   3.628   0.914 -0.2813 -0.0413  0.9030
24473SOL    HW275427   7.850   3.762   0.848  0.5759  0.7716  2.1218
24474SOL     OW75428   6.304   1.593  10.528  0.1207  0.0759 -0.5105
24474SOL    HW175429   6.312   1.688  10.535  0.0644  0.1598 -1.4395
24474SOL    HW275430   6.365   1.559  10.594  0.0163  0.7527 -0.0562
24475SOL     OW75431  10.325   9.696   1.128 -0.2107  0.2147  0.0086
24475SOL    HW175432  10.408   9.733   1.099  0.5991 -0.0972  1.7632
24475SOL    HW275433  10.334   9.690   1.223 -1.9859 -0.4767  0.1704
24476SOL     OW75434   6.779   8.896   3.910  0.1087  0.2239  0.0280
24476SOL    HW175435   6.827   8.968   3.869 -1.2531  0.8756 -0.4951
24476SOL    HW275436   6.833   8.870   3.985  0.1504  2.4762  0.8416
24477SOL     OW75437   9.419   0.770   4.147 -0.1892  0.1700  0.2640
24477SOL    HW175438   9.465   0.850   4.172  0.2072  0.3698 -1.0456
24477SOL    HW275439   9.479   0.725   4.088 -0.0949 -1.4827  1.5411
24478SOL     OW75440   9.370  10.243   9.967 -0.3313 -0.4000 -0.4908
24478SOL    HW175441   9.278  10.264   9.950  0.1735  0.8317 -2.0088
24478SOL    HW275442   9.409  10.235   9.880  1.2879  0.5467  0.0912
24479SOL     OW75443   4.266   7.561   5.750  0.4884  0.1901 -0.1021
24479SOL    HW175444   4.176   7.539   5.728  0.1638  1.6605 -0.3525
24479SOL    HW275445   4.294   7.619   5.679  1.6151 -0.1941  0.0108
24480SOL     OW75446   8.174   6.584   0.334  0.4894  0.4731  0.3460
24480SOL    HW175447   8.256   6.631   0.320  0.3526  1.6132  2.7924
24480SOL    HW275448   8.113   6.652   0.365 -1.4554 -0.3203 -1.5197
24481SOL     OW75449   1.881   5.156   4.276  0.2694  0.4189  0.2058
24481SOL    HW175450   1.911   5.229   4.221 -0.7601 -0.2403 -1.3039
24481SOL    HW275451   1.825   5.104   4.218  0.5258 -1.2741  1.3940
24482SOL     OW75452   2.095   9.938  10.820  0.1276  0.0824 -0.1452
24482SOL    HW175453   2.098   9.865  10.882 -0.0982  0.4162  0.2607
24482SOL    HW275454   2.004   9.968  10.823  0.3822  0.8168  0.1870
24483SOL     OW75455   6.623   3.651   2.188  0.4162 -0.0321 -0.5786
24483SOL    HW175456   6.704   3.603   2.205  0.0572 -0.5123 -0.1773
24483SOL    HW275457   6.580   3.602   2.119  2.9085  3.1179 -4.8230
24484SOL     OW75458   3.333   2.137   6.154  0.2075 -0.0310  0.0480
24484SOL    HW175459   3.366   2.171   6.237 -1.6620  0.1654  0.7646
24484SOL    HW275460   3.312   2.045   6.173  2.7740 -0.9611 -1.1516
24485SOL     OW75461  10.994   4.377   3.034 -0.2094 -0.0925 -0.4967
24485SOL    HW175462  10.922   4.370   3.097 -0.4161  2.4186 -0.3344
24485SOL    HW275463  11.012   4.471   3.029  3.3114 -0.6218 -0.2902
24486SOL     OW75464   0.064   2.273   8.051 -0.2693  0.1029  0.0029
24486SOL    HW175465   0.021   2.326   7.983 -0.2638  1.1845  0.8303
24486SOL    HW275466   0.156   2.299   8.047 -0.0153 -0.8038 -0.4486
24487SOL     OW75467   7.704   7.009   8.879  0.4434  0.4659 -0.1123
24487SOL    HW175468   7.614   6.997   8.847  0.0882  0.6878  0.7922
24487SOL    HW275469   7.758   6.995   8.801 -0.3490 -0.0024 -0.6011
24488SOL     OW75470   0.248   0.311  10.628 -0.6273 -0.2446  0.1816
24488SOL    HW175471   0.217   0.308  10.537 -1.1841 -0.8743  0.3890
24488SOL    HW275472   0.322   0.250  10.630 -0.1039  0.3689 -0.0297
24489SOL     OW75473   8.268  10.666   7.013 -0.3935 -0.1996 -0.0035
24489SOL    HW175474   8.190  10.620   7.045 -0.0146  0.8497  2.7302
24489SOL    HW275475   8.338  10.634   7.070  0.3525  1.8848  0.3075
24490SOL     OW75476   6.602   8.640   0.381 -0.4438 -0.2011  0.6188
24490SOL    HW175477   6.586   8.570   0.444 -1.4206  1.5314  2.4049
24490SOL    HW275478   6.519   8.651   0.335  0.1146 -1.1048 -0.6561
24491SOL     OW75479   6.948   0.802   8.395 -0.1620 -0.0171  0.3562
24491SOL    HW175480   6.992   0.718   8.383 -1.9947 -1.1193  0.8213
24491SOL    HW275481   6.948   0.842   8.308  0.0695 -0.8522 -0.0345
24492SOL     OW75482   1.645   1.203   7.138  0.2243  0.0116 -0.2487
24492SOL    HW175483   1.574   1.218   7.075  0.7153  0.4881 -0.7023
24492SOL    HW275484   1.687   1.122   7.109  0.9860  0.6742 -1.0669
24493SOL     OW75485   6.415   8.355   8.308 -0.1859 -0.3061  0.0353
24493SOL    HW175486   6.389   8.275   8.262 -2.0748 -1.0207  2.1200
24493SOL    HW275487   6.480   8.327   8.371 -0.0283  0.0188  0.0193
24494SOL     OW75488   7.543   0.922  10.736 -0.3759  0.2771 -0.1930
24494SOL    HW175489   7.542   0.841  10.786 -1.4000 -0.0824 -0.7724
24494SOL    HW275490   7.596   0.982  10.789  1.2792 -1.0542 -0.2447
24495SOL     OW75491  10.219   8.833   4.330 -0.1852  0.3725 -0.7658
24495SOL    HW175492  10.229   8.890   4.254  0.1426  1.5401  0.1302
24495SOL    HW275493  10.216   8.893   4.405  1.2474 -0.8305  0.3074
24496SOL     OW75494   9.181   5.594   1.083  0.1737 -0.5451 -0.2942
24496SOL    HW175495   9.210   5.648   1.156  0.0998  0.3148 -0.8783
24496SOL    HW275496   9.159   5.510   1.122 -0.2009  0.0063  0.7342
24497SOL     OW75497   7.750   1.909   3.532  0.1432  0.5934  0.8131
24497SOL    HW175498   7.806   1.973   3.487 -0.2527 -0.1993 -0.9212
24497SOL    HW275499   7.712   1.858   3.461  0.7434 -1.8482  2.1518
24498SOL     OW75500   5.345   5.027   1.747  0.0027 -0.1943  0.2019
24498SOL    HW175501   5.406   5.100   1.752 -1.8302  1.5371 -1.3292
24498SOL    HW275502   5.329   5.015   1.653 -1.5598 -0.9688  0.5319
24499SOL     OW75503   5.794  10.461   5.675 -0.3055  0.9201  0.1651
24499SOL    HW175504   5.713  10.454   5.726  0.4489 -1.7991  1.2181
24499SOL    HW275505   5.863  10.444   5.739  0.7455 -1.7927 -1.5037
24500SOL     OW75506   2.527   0.311   7.856 -0.3067 -0.2727  0.2194
24500SOL    HW175507   2.597   0.367   7.823 -0.9826  0.3213 -0.2492
24500SOL    HW275508   2.572   0.239   7.899  0.5832  0.7147  0.9909
24501SOL     OW75509   6.512  10.939   2.782 -0.3660 -0.0439 -0.0975
24501SOL    HW175510   6.603  10.945   2.811 -0.2745 -2.4392  0.3095
24501SOL    HW275511   6.515  10.880   2.707 -1.5190  0.3993 -0.5160
24502SOL     OW75512   7.958  10.587   3.228 -0.3532  0.4577 -0.0815
24502SOL    HW175513   7.928  10.598   3.318 -1.1472 -1.1791 -0.1187
24502SOL    HW275514   7.931  10.499   3.204  1.4624  0.1827 -1.3122
24503SOL     OW75515   9.263   0.421   5.162  0.1985  0.1247 -0.3512
24503SOL    HW175516   9.175   0.436   5.197  1.1347 -0.4350  2.5003
24503SOL    HW275517   9.315   0.493   5.197  0.8178  0.8315 -2.5470
24504SOL     OW75518   2.420   7.570   1.320 -0.0023  0.1207  0.2321
24504SOL    HW175519   2.370   7.637   1.272 -0.2292 -0.9812 -1.1218
24504SOL    HW275520   2.499   7.616   1.349 -0.8775  1.3840  0.7286
24505SOL     OW75521   6.378   4.743   8.513 -0.0304 -0.1316 -0.0984
24505SOL    HW175522   6.306   4.772   8.457 -1.2845 -2.2090  0.3653
24505SOL    HW275523   6.416   4.825   8.546 -2.2648  1.0315 -0.2240
24506SOL     OW75524   0.548   9.061   5.901  0.1055  0.2538  0.1696
24506SOL    HW175525   0.552   8.977   5.855  2.7530 -0.3016  1.2351
24506SOL    HW275526   0.631   9.103   5.881 -1.2591  2.8085 -0.5439
24507SOL     OW75527   0.325  10.965   6.049  0.2011  0.1396 -0.4018
24507SOL    HW175528   0.294  10.902   5.983 -1.5344 -0.1795  0.6542
24507SOL    HW275529   0.287  10.933   6.131 -1.4896  3.0147  0.0622
24508SOL     OW75530   3.876  11.035   6.371 -0.2152  0.1136  0.2996
24508SOL    HW175531   3.931  10.984   6.430  1.2805  1.2394 -0.0721
24508SOL    HW275532   3.905  11.011   6.283  1.0858  2.1100  0.1157
24509SOL     OW75533   8.147   5.105   9.222  0.0218  0.6763  0.0820
24509SOL    HW175534   8.207   5.154   9.279  0.5265  0.2865 -0.0996
24509SOL    HW275535   8.151   5.016   9.256  0.3897  0.4236 -0.6078
24510SOL     OW75536   3.950   1.745   8.671  0.2585  0.2579  0.3470
24510SOL    HW175537   4.025   1.686   8.680  0.8906  0.2758 -3.4093
24510SOL    HW275538   3.988   1.826   8.636 -1.1227  1.6212  1.8199
24511SOL     OW75539   8.265   9.423   2.696 -0.4591 -0.8844 -0.0532
24511SOL    HW175540   8.260   9.348   2.756 -1.2880 -1.3084 -0.6422
24511SOL    HW275541   8.180   9.426   2.653  0.4198 -1.1829 -1.9105
24512SOL     OW75542   4.714   6.197  10.337  0.0024  0.5240  0.0842
24512SOL    HW175543   4.792   6.165  10.293  0.4597  0.8901  0.6161
24512SOL    HW275544   4.654   6.121  10.338  0.3356  0.2516 -0.3406
24513SOL     OW75545   6.352   2.785   5.311  0.5682 -0.2164  0.1009
24513SOL    HW175546   6.301   2.715   5.352  1.4561 -1.2770 -0.5287
24513SOL    HW275547   6.360   2.758   5.220 -0.0181  1.2911 -0.4313
24514SOL     OW75548   4.887   9.876   1.751 -0.0294  0.6689 -0.2093
24514SOL    HW175549   4.821   9.920   1.698  0.2747  0.0314 -1.1272
24514SOL    HW275550   4.842   9.800   1.788 -0.4528  1.5068  1.0869
24515SOL     OW75551  10.927   0.350   3.071 -0.2971  0.2849  0.1458
24515SOL    HW175552  10.906   0.347   2.978 -0.5020 -1.9233  0.1971
24515SOL    HW275553  10.843   0.357   3.115 -0.2104  1.1851  0.1740
24516SOL     OW75554   1.820   0.561   2.606 -0.1109 -0.2740  0.0755
24516SOL    HW175555   1.805   0.467   2.605 -1.0305 -0.1644  1.4482
24516SOL    HW275556   1.845   0.582   2.516  1.5679 -2.0449  0.0545
24517SOL     OW75557   5.130   7.094   5.771  0.4790 -0.1188  0.3477
24517SOL    HW175558   5.085   7.111   5.854 -0.0189  0.4835 -0.0340
24517SOL    HW275559   5.078   7.025   5.729 -0.3523  0.8555 -0.2729
24518SOL     OW75560   2.619   0.300   4.665  0.5494 -0.5573  0.1811
24518SOL    HW175561   2.643   0.285   4.757  0.2436 -1.4192  0.1288
24518SOL    HW275562   2.695   0.269   4.615  1.4377  1.4905  0.1772
24519SOL     OW75563   3.861  10.867   4.944  0.2320  0.2679  0.1739
24519SOL    HW175564   3.853  10.846   4.851 -1.4120 -0.2487  0.4112
24519SOL    HW275565   3.852  10.782   4.988  0.1331  0.6257  0.8417
24520SOL     OW75566   6.421   3.850  10.582  0.6745 -0.4349 -0.0196
24520SOL    HW175567   6.386   3.827  10.667 -0.7143 -3.1430 -1.2233
24520SOL    HW275568   6.366   3.804  10.519 -0.0318  3.4664 -2.6341
24521SOL     OW75569   2.897   0.464   7.617 -0.5042  0.0093  0.6758
24521SOL    HW175570   2.959   0.492   7.685 -1.2449 -0.4747  1.5825
24521SOL    HW275571   2.940   0.487   7.535  0.7312 -0.0034  1.2820
24522SOL     OW75572   2.987   2.597   3.897 -0.1066 -0.0423  0.1760
24522SOL    HW175573   3.065   2.542   3.892  0.5020  0.6260  1.7753
24522SOL    HW275574   2.993   2.654   3.820  1.0848  0.1244  0.3759
24523SOL     OW75575   3.513   0.672   0.416 -0.0540  0.3514  0.0401
24523SOL    HW175576   3.579   0.738   0.436 -0.6470  0.8333  0.4231
24523SOL    HW275577   3.541   0.635   0.332  0.0292  1.4166 -0.4170
24524SOL     OW75578   5.257   4.630   9.747  0.2899 -0.1149  0.0968
24524SOL    HW175579   5.179   4.585   9.781  0.4770 -0.2904  0.2896
24524SOL    HW275580   5.306   4.656   9.825  0.4702 -0.0830 -0.0275
24525SOL     OW75581   7.218   2.118   9.568  0.8819  0.1388  0.4337
24525SOL    HW175582   7.179   2.203   9.590  0.5720  0.1672 -0.1975
24525SOL    HW275583   7.278   2.137   9.496  1.4095 -0.0553  0.8109
24526SOL     OW75584   1.855   4.761   8.995 -0.1798 -0.2996 -0.6050
24526SOL    HW175585   1.767   4.726   9.003  0.3157 -1.8896 -1.5931
24526SOL    HW275586   1.849   4.826   8.924 -0.7898  0.5623  0.2076
24527SOL     OW75587   1.347   4.708   2.500  0.7172  0.3866 -0.2668
24527SOL    HW175588   1.361   4.616   2.521 -0.5236 -0.0182 -1.0769
24527SOL    HW275589   1.268   4.732   2.548  2.0688  1.6261  1.4934
24528SOL     OW75590   3.419   5.440   2.446  0.1365  0.1984  0.3747
24528SOL    HW175591   3.328   5.468   2.456  0.3842  0.3316  3.2214
24528SOL    HW275592   3.466   5.520   2.420 -0.2326  0.7189  1.2631
24529SOL     OW75593   4.158   3.375   9.008 -0.1814  0.0551 -0.4040
24529SOL    HW175594   4.184   3.414   8.924  0.0712 -0.0009 -0.3535
24529SOL    HW275595   4.128   3.287   8.985  0.0057 -0.0049 -0.4219
24530SOL     OW75596   2.356   5.977  10.175 -0.5345  0.5145  0.2419
24530SOL    HW175597   2.350   6.040  10.103 -0.6450 -0.0695 -0.2675
24530SOL    HW275598   2.299   6.013  10.242  0.0362  1.3832  0.2857
24531SOL     OW75599  10.799   8.928   0.903  0.0549 -0.0852  0.0657
24531SOL    HW175600  10.848   8.851   0.875  0.0662  0.8414 -2.7835
24531SOL    HW275601  10.711   8.915   0.869  0.1918  1.3347 -0.9462
24532SOL     OW75602   6.091   9.026   8.575 -0.0970  0.3410  0.0676
24532SOL    HW175603   6.042   9.071   8.644 -0.9858 -0.6734  0.1270
24532SOL    HW275604   6.178   9.010   8.613 -0.1202  1.0387  0.4250
24533SOL     OW75605  10.006   3.061   5.960 -0.2048 -0.4099  0.6998
24533SOL    HW175606   9.996   3.065   5.865  1.4910  2.4584  0.5302
24533SOL    HW275607  10.081   3.004   5.975 -1.1306 -1.7452  0.4502
24534SOL     OW75608   4.075   2.446   9.937 -0.1506  0.6700  0.1414
24534SOL    HW175609   4.003   2.509   9.944 -2.0308 -1.4129  0.7444
24534SOL    HW275610   4.058   2.399   9.856 -1.2007 -1.7416  1.6515
24535SOL     OW75611  10.739   2.930   9.283  0.2996  0.2506 -0.7140
24535SOL    HW175612  10.712   3.013   9.320  1.6867 -0.3199  1.7843
24535SOL    HW275613  10.659   2.877   9.281 -0.2128  1.0021 -0.5135
24536SOL     OW75614   2.911   1.229   9.145  0.2496  0.2317  0.4853
24536SOL    HW175615   2.932   1.186   9.062 -1.4071 -0.0109  0.1522
24536SOL    HW275616   2.968   1.305   9.148  1.8379 -0.8915  0.1463
24537SOL     OW75617   9.515   8.776   1.082 -0.3418  0.2395 -0.6648
24537SOL    HW175618   9.501   8.869   1.104  1.2689  0.6268 -1.1395
24537SOL    HW275619   9.508   8.730   1.166  0.3088  1.0007 -0.1749
24538SOL     OW75620   5.345   7.834   1.779  0.1250 -0.0210 -0.5812
24538SOL    HW175621   5.343   7.873   1.692 -1.0041 -1.5052 -1.2545
24538SOL    HW275622   5.279   7.765   1.776  0.4807 -0.4909  1.2758
24539SOL     OW75623  11.030   6.534   0.850  0.2591  0.2643 -0.0401
24539SOL    HW175624  10.953   6.504   0.802  0.1760  0.3779  0.0240
24539SOL    HW275625  11.097   6.544   0.783 -0.4093  2.3556 -0.4508
24540SOL     OW75626   7.730   0.466   5.026 -0.1610  0.4297  0.3430
24540SOL    HW175627   7.767   0.383   4.994  0.8106 -0.7823  4.0502
24540SOL    HW275628   7.788   0.533   4.991  2.1401 -0.9669  1.2305
24541SOL     OW75629  10.185   1.675   2.908  0.0958 -0.4852  0.2286
24541SOL    HW175630  10.212   1.755   2.864  0.6925 -0.8912 -0.1556
24541SOL    HW275631  10.200   1.606   2.844 -1.5147 -0.7763  0.1432
24542SOL     OW75632   3.043   6.739   6.770  0.5908  0.6522  0.2188
24542SOL    HW175633   3.096   6.791   6.830  0.5941 -0.0561  0.8408
24542SOL    HW275634   2.978   6.696   6.826 -0.4092  1.2095 -0.4812
24543SOL     OW75635   0.109   3.790   6.015 -0.1037  0.1316  0.1801
24543SOL    HW175636   0.080   3.744   6.094 -0.1180 -0.0640  0.0642
24543SOL    HW275637   0.096   3.725   5.945 -2.1512  1.0112 -0.3343
24544SOL     OW75638   3.246   8.033   3.842  0.0479  0.0078  0.3826
24544SOL    HW175639   3.338   8.057   3.847  0.2149 -0.6505  0.5011
24544SOL    HW275640   3.202   8.096   3.900  0.2423  1.1624 -0.6881
24545SOL     OW75641   2.827   8.704  10.046 -0.2564 -0.0300 -0.0681
24545SOL    HW175642   2.833   8.788  10.000 -0.0451  1.2824  2.1872
24545SOL    HW275643   2.918   8.678  10.061 -0.3264 -0.3965 -0.2559
24546SOL     OW75644   8.828   9.518   4.448  0.2156 -0.5901  0.3193
24546SOL    HW175645   8.915   9.510   4.486  0.4174 -0.6290 -0.1464
24546SOL    HW275646   8.829   9.460   4.372 -0.4635 -1.1810  0.7479
24547SOL     OW75647   6.334   3.798   3.484  0.4576 -0.0235  0.3603
24547SOL    HW175648   6.412   3.763   3.526 -0.4329 -1.1213  1.1681
24547SOL    HW275649   6.268   3.729   3.494 -0.8320  1.1577  0.3314
24548SOL     OW75650   3.976   9.238   7.326 -0.8874 -0.2281  1.4453
24548SOL    HW175651   4.002   9.151   7.295  0.3394  0.9116 -1.0067
24548SOL    HW275652   3.882   9.242   7.310 -0.6105 -0.3986 -0.4935
24549SOL     OW75653   1.450   0.349   6.131 -0.2114  0.6855  0.0691
24549SOL    HW175654   1.473   0.412   6.062  0.9966  0.7775  0.5332
24549SOL    HW275655   1.410   0.276   6.083 -1.4978  1.7143 -0.4891
24550SOL     OW75656  10.532   8.130   8.643  0.3624 -0.5631 -0.5060
24550SOL    HW175657  10.572   8.197   8.700 -0.9970  1.2240 -1.5461
24550SOL    HW275658  10.438   8.140   8.658  0.0897 -1.3660 -1.6566
24551SOL     OW75659   9.697   6.068   6.788  0.0149  0.3792  0.9260
24551SOL    HW175660   9.619   6.095   6.837  0.2286 -1.0190  2.0828
24551SOL    HW275661   9.662   6.023   6.711 -0.3127  2.0122  0.0750
24552SOL     OW75662   3.304   0.126   5.277 -0.0203  0.3134  0.2246
24552SOL    HW175663   3.274   0.200   5.330  3.1453  0.9434  1.3622
24552SOL    HW275664   3.240   0.120   5.206 -1.5475  2.7875  1.2509
24553SOL     OW75665   0.448   7.920   7.966  0.0894  0.3438 -0.1034
24553SOL    HW175666   0.524   7.900   7.912 -0.5372  1.5341 -1.4874
24553SOL    HW275667   0.482   7.972   8.038  0.4462  2.0618 -1.4540
24554SOL     OW75668   2.036   9.836   8.926  0.1703 -0.2226 -0.7675
24554SOL    HW175669   2.086   9.765   8.885  0.9080 -0.6692  0.8362
24554SOL    HW275670   2.072   9.843   9.014 -0.9296  1.1438 -0.3912
24555SOL     OW75671   6.819   0.776   5.768  0.4916  0.2554 -0.1834
24555SOL    HW175672   6.764   0.756   5.693 -0.7360  1.1371  0.4399
24555SOL    HW275673   6.899   0.725   5.754  0.0403 -0.0727 -1.7526
24556SOL     OW75674   2.875   6.908   5.190  0.2462  0.4168 -0.5974
24556SOL    HW175675   2.841   6.819   5.200 -0.0745  0.4362 -1.4281
24556SOL    HW275676   2.947   6.913   5.252  1.3753 -0.9991 -1.7357
24557SOL     OW75677  10.382   0.177   1.449 -0.1244 -0.3625 -0.1865
24557SOL    HW175678  10.352   0.089   1.472 -1.2633  0.0642 -0.0000
24557SOL    HW275679  10.302   0.228   1.437  0.5112  0.5663 -0.6580
24558SOL     OW75680   2.017  10.628   7.045 -0.1888  0.0726 -0.5504
24558SOL    HW175681   2.020  10.706   7.101 -0.5859  0.0285 -0.4667
24558SOL    HW275682   1.954  10.650   6.977 -3.0820 -1.4596  1.4369
24559SOL     OW75683   5.569   7.391   9.714 -0.0457  0.4453  0.6054
24559SOL    HW175684   5.589   7.332   9.643 -1.1868 -0.2796  0.8550
24559SOL    HW275685   5.626   7.363   9.786 -0.3048 -0.1014  0.6001
24560SOL     OW75686   3.543   9.559   0.259 -0.1300 -0.4256 -0.1366
24560SOL    HW175687   3.462   9.544   0.210  0.0527  1.2759 -1.0683
24560SOL    HW275688   3.607   9.584   0.192  0.0667  2.2864  0.9061
24561SOL     OW75689   0.338   5.103   3.098 -1.1548  0.4022 -0.4577
24561SOL    HW175690   0.269   5.082   3.036 -0.4274  1.2899 -1.6126
24561SOL    HW275691   0.415   5.119   3.044 -0.3849  0.7521  0.7040
24562SOL     OW75692   9.407   4.868   6.762 -0.0106  0.3680  0.1373
24562SOL    HW175693   9.418   4.816   6.682  2.8236  0.3083  0.4722
24562SOL    HW275694   9.380   4.954   6.730 -3.8530 -0.8838 -0.4705
24563SOL     OW75695  10.882   8.608   4.392 -0.0020  0.1667 -0.3876
24563SOL    HW175696  10.958   8.645   4.437 -0.8466 -0.2095  1.4168
24563SOL    HW275697  10.892   8.638   4.301  0.2515  3.4178  0.5936
24564SOL     OW75698   8.944   9.128   7.026 -0.5281  0.7765  0.1172
24564SOL    HW175699   9.019   9.088   7.072 -1.3596  0.4907  1.2720
24564SOL    HW275700   8.899   9.179   7.093 -1.7634  0.3926 -0.3907
24565SOL     OW75701   0.881   7.756   4.049 -0.3320 -0.0690 -0.4470
24565SOL    HW175702   0.842   7.693   3.989 -1.6217  1.5497 -1.3739
24565SOL    HW275703   0.808   7.785   4.104  0.7899 -1.4759  1.9937
24566SOL     OW75704   3.471   5.358   6.483  0.2355 -0.8315  0.1811
24566SOL    HW175705   3.454   5.360   6.577  0.4569 -0.7770  0.2211
24566SOL    HW275706   3.492   5.449   6.461 -1.4397 -0.5180 -0.2284
24567SOL     OW75707   2.550   3.315  10.436 -0.3850  0.4767 -0.0701
24567SOL    HW175708   2.545   3.276  10.524  0.8913  2.2824  0.8564
24567SOL    HW275709   2.464   3.356  10.424 -0.3296  0.8259  0.6404
24568SOL     OW75710   0.098   9.290   5.842 -0.0197 -0.4355  0.1570
24568SOL    HW175711   0.063   9.201   5.843  0.8627 -0.8034 -0.5226
24568SOL    HW275712   0.189   9.281   5.871  0.0363  0.2723  0.2328
24569SOL     OW75713   5.150   7.867   1.437  0.1925  0.0001  0.3764
24569SOL    HW175714   5.220   7.918   1.478  1.0114 -1.1869  0.5123
24569SOL    HW275715   5.174   7.861   1.345 -0.8013  1.2798 -0.0002
24570SOL     OW75716  10.970   3.153   4.531  0.2234  0.1901  0.3084
24570SOL    HW175717  10.921   3.079   4.567 -1.1292  1.0499  0.3227
24570SOL    HW275718  10.981   3.132   4.438  0.1459 -0.1985  0.3882
24571SOL     OW75719   0.478   2.099   2.665  0.3272 -0.5375 -0.3330
24571SOL    HW175720   0.450   2.053   2.744  0.4889 -1.1834 -0.6490
24571SOL    HW275721   0.475   2.192   2.689 -0.2254 -0.6952  0.2358
24572SOL     OW75722   0.865   9.471   2.348  0.0937  0.4111  0.0728
24572SOL    HW175723   0.787   9.434   2.307  1.5917 -1.2077 -1.4808
24572SOL    HW275724   0.854   9.454   2.441 -1.4016  0.2576 -0.1077
24573SOL     OW75725   6.247   8.716   8.619  0.9377 -0.1143  0.0171
24573SOL    HW175726   6.196   8.648   8.575 -1.2202  1.6060 -0.3226
24573SOL    HW275727   6.312   8.743   8.553  0.1532 -0.1216 -0.7805
24574SOL     OW75728   1.648   4.016   2.301 -0.2483 -0.3575 -0.5016
24574SOL    HW175729   1.693   4.091   2.260  1.4422 -1.2092 -0.2912
24574SOL    HW275730   1.680   3.940   2.252 -0.4723 -1.1174  0.5066
24575SOL     OW75731  10.945   4.756   0.252 -0.0216  0.5132 -0.6315
24575SOL    HW175732  10.970   4.705   0.329 -0.1606  0.8362 -0.3702
24575SOL    HW275733  11.005   4.831   0.253 -1.1885  1.4738  0.1853
24576SOL     OW75734   4.292   2.810   0.906  0.9114  0.2384  0.1578
24576SOL    HW175735   4.358   2.802   0.838  1.1175 -1.0886  0.4925
24576SOL    HW275736   4.298   2.729   0.956 -2.7417 -1.2230 -1.3995
24577SOL     OW75737   7.328   8.867   2.703  0.5065 -0.0303  0.2408
24577SOL    HW175738   7.387   8.870   2.778 -0.7885 -0.3530  1.3054
24577SOL    HW275739   7.264   8.800   2.726 -0.2718  0.2982 -0.8939
24578SOL     OW75740   7.873  10.390   0.672 -0.2756 -0.8539 -0.0565
24578SOL    HW175741   7.952  10.350   0.709 -0.9260 -0.9188  1.3285
24578SOL    HW275742   7.896  10.407   0.581  1.5089 -0.4062  0.4309
24579SOL     OW75743   6.344   3.844   8.076  0.0754 -0.3452  0.0144
24579SOL    HW175744   6.267   3.891   8.047 -0.4352 -0.6455  0.8370
24579SOL    HW275745   6.310   3.762   8.112  0.5930  0.2234  1.9344
24580SOL     OW75746   2.957   6.151   8.664  0.0838  0.0922  0.5979
24580SOL    HW175747   3.021   6.150   8.593  0.3202  1.5082  0.7573
24580SOL    HW275748   2.877   6.114   8.626  0.2488  0.7031 -0.3709
24581SOL     OW75749   7.659   0.667  10.312 -0.5972 -0.3032  0.2307
24581SOL    HW175750   7.678   0.573  10.303  1.8865  0.1526  0.0042
24581SOL    HW275751   7.730   0.710  10.264 -1.5397  1.7128  0.5542
24582SOL     OW75752   0.759  10.412   6.186  0.1231 -0.4795 -0.1706
24582SOL    HW175753   0.705  10.490   6.199  1.2135  0.1019  1.1187
24582SOL    HW275754   0.842  10.445   6.152  1.3952 -0.7331  2.3868
24583SOL     OW75755   3.976   7.424   2.375  0.0540  0.4432 -0.0755
24583SOL    HW175756   3.937   7.448   2.291 -0.4494  0.5419  0.1856
24583SOL    HW275757   3.981   7.506   2.423 -1.3296  0.1053  0.6786
24584SOL     OW75758   9.917   6.071   7.515 -0.7306 -0.1501 -0.2375
24584SOL    HW175759   9.964   6.153   7.530 -2.3286  0.5074  1.5249
24584SOL    HW275760   9.898   6.071   7.421 -0.6663  1.4784 -0.2741
24585SOL     OW75761   1.203   7.930  10.726 -0.1097  0.5366  0.2665
24585SOL    HW175762   1.212   8.020  10.695  0.9130 -0.3213 -2.1654
24585SOL    HW275763   1.270   7.921  10.794  0.7330  1.2331 -0.4477
24586SOL     OW75764   1.183   9.756   1.288 -0.0923 -0.7234  0.0287
24586SOL    HW175765   1.094   9.720   1.281 -0.9592  1.4978 -1.2963
24586SOL    HW275766   1.170   9.850   1.295  2.1765 -0.3896  0.3613
24587SOL     OW75767   0.824   4.075   3.570  0.2856 -0.3050  0.8039
24587SOL    HW175768   0.916   4.100   3.579  0.8898 -1.5384 -1.3734
24587SOL    HW275769   0.826   3.981   3.554 -1.2163 -0.0980 -0.9219
24588SOL     OW75770  10.875  10.104   8.521  0.1027 -0.2439  0.1556
24588SOL    HW175771  10.861  10.029   8.578  0.2304 -1.7514 -1.7153
24588SOL    HW275772  10.945  10.076   8.461 -0.7265  0.8644 -1.3993
24589SOL     OW75773   8.713   5.611   4.837  0.3763  0.0533 -0.2435
24589SOL    HW175774   8.655   5.546   4.876 -1.6950  1.0226 -1.5436
24589SOL    HW275775   8.779   5.628   4.904  0.4448 -2.6528  0.4766
24590SOL     OW75776   5.810   9.585   8.878 -0.0404 -0.4735  0.6582
24590SOL    HW175777   5.855   9.549   8.954  2.0927  0.4756 -0.0728
24590SOL    HW275778   5.849   9.672   8.866 -0.4276 -0.5309 -1.4197
24591SOL     OW75779   2.483   3.634   8.946  0.6457  0.3917 -0.2984
24591SOL    HW175780   2.462   3.541   8.942 -1.2180  0.7055  0.9668
24591SOL    HW275781   2.515   3.648   9.035  0.6129  1.0260 -0.3795
24592SOL     OW75782   6.032   3.462   7.174 -0.0516 -0.2693 -0.2415
24592SOL    HW175783   6.120   3.453   7.138 -0.7194 -1.1356 -1.8020
24592SOL    HW275784   6.044   3.502   7.260  1.9379 -1.3619  0.0420
24593SOL     OW75785   5.194   5.561  10.944 -0.2739 -0.9351  0.6943
24593SOL    HW175786   5.223   5.625  10.880  0.9606  0.1986  2.2902
24593SOL    HW275787   5.263   5.494  10.944  1.0170  0.2980  2.4578
24594SOL     OW75788   3.832   6.979   7.874 -0.1651  0.1250 -0.2674
24594SOL    HW175789   3.761   6.948   7.930  0.0440  1.6115  0.8993
24594SOL    HW275790   3.831   7.074   7.885  0.3457  0.3977 -2.2831
24595SOL     OW75791   3.847   0.212  10.008  0.1522 -1.1743  0.5256
24595SOL    HW175792   3.910   0.195   9.939  0.7274 -0.7738  0.9447
24595SOL    HW275793   3.868   0.300  10.040 -2.8488  0.5289 -1.6821
24596SOL     OW75794   0.512   9.567   9.628  0.0074 -0.9244  0.0242
24596SOL    HW175795   0.564   9.612   9.695  0.2033 -0.3940 -0.4698
24596SOL    HW275796   0.578   9.527   9.571 -0.1634 -2.4859  0.8538
24597SOL     OW75797   1.889   6.162   1.647  0.4314  0.1827  0.3320
24597SOL    HW175798   1.982   6.163   1.669  0.2323 -2.2497  1.5408
24597SOL    HW275799   1.886   6.197   1.558  2.2677  1.9206  0.8774
24598SOL     OW75800   8.471   3.434   8.486  0.3397 -0.4843 -0.5346
24598SOL    HW175801   8.471   3.481   8.569  0.7553 -0.0259 -0.7950
24598SOL    HW275802   8.383   3.450   8.450  0.0144 -1.0161 -0.0068
24599SOL     OW75803   4.348  10.454   4.911  0.3389 -0.2873 -0.1053
24599SOL    HW175804   4.382  10.535   4.948 -0.7489  0.3931 -0.5518
24599SOL    HW275805   4.254  10.456   4.931  0.1548 -1.0219 -0.8450
24600SOL     OW75806   3.569   0.597   6.719  0.1073 -0.3182  0.3411
24600SOL    HW175807   3.574   0.522   6.778 -0.0207 -1.1842 -0.7217
24600SOL    HW275808   3.657   0.604   6.682 -0.0229 -0.2845  0.0347
24601SOL     OW75809   2.080   3.029   4.941  0.1444  0.4189 -0.0850
24601SOL    HW175810   2.134   3.073   4.876 -1.1655  0.6257 -1.0685
24601SOL    HW275811   2.005   2.996   4.892 -0.2242 -0.5837  1.0998
24602SOL     OW75812   5.594   5.330   4.124 -0.3855 -0.5132  0.6508
24602SOL    HW175813   5.530   5.385   4.078  1.8158  1.3502 -0.3952
24602SOL    HW275814   5.573   5.341   4.217 -1.8017 -0.2901  0.3303
24603SOL     OW75815   3.819  10.080   3.943  0.3603  0.4229 -0.2352
24603SOL    HW175816   3.862  10.164   3.955  1.0636  0.1510 -0.7883
24603SOL    HW275817   3.842  10.054   3.854 -0.9015  0.2340 -0.5248
24604SOL     OW75818  10.565   9.352   3.214  0.7449 -0.2270  0.4610
24604SOL    HW175819  10.503   9.280   3.221  1.6282 -1.0741 -0.1609
24604SOL    HW275820  10.578   9.382   3.304  0.6875 -1.1151  0.7672
24605SOL     OW75821   3.686   5.193   9.134  0.1106  0.1821  0.3882
24605SOL    HW175822   3.724   5.230   9.213 -1.6611  0.6372  1.0815
24605SOL    HW275823   3.638   5.266   9.093  0.0498 -0.3257 -0.4859
24606SOL     OW75824   0.756   9.844   8.292  0.3372  0.0730  0.1720
24606SOL    HW175825   0.672   9.825   8.334 -0.2985 -0.6764 -1.3775
24606SOL    HW275826   0.774   9.936   8.314 -0.8023  0.1885  0.6650
24607SOL     OW75827   8.977   4.950   5.896 -0.2015  0.3954 -0.1466
24607SOL    HW175828   9.062   4.916   5.925 -0.7609 -1.8198 -0.9052
24607SOL    HW275829   8.917   4.927   5.967 -0.4129  0.7736 -0.2014
24608SOL     OW75830   6.902   7.887   3.347  0.1592 -0.3062 -0.1248
24608SOL    HW175831   6.847   7.831   3.292  0.0362  0.0714 -0.3939
24608SOL    HW275832   6.913   7.838   3.428  0.7384 -1.0841 -0.6579
24609SOL     OW75833   1.593   2.218   0.660  0.2195  0.4132  0.6407
24609SOL    HW175834   1.634   2.304   0.662  2.6124 -0.5325 -1.4521
24609SOL    HW275835   1.517   2.229   0.604  0.3474  1.2411  0.6180
24610SOL     OW75836   4.244  10.082   9.990  0.1031  0.0561 -0.1617
24610SOL    HW175837   4.337  10.102  10.001 -0.0862  0.4497  0.7782
24610SOL    HW275838   4.210  10.076  10.079 -0.6798 -0.5699 -0.4905
24611SOL     OW75839  10.500   4.933  10.024  0.6203 -0.0931 -0.3536
24611SOL    HW175840  10.575   4.899   9.975  0.1947  0.0292 -1.1052
24611SOL    HW275841  10.460   4.997   9.965 -1.0658 -1.3697 -0.6968
24612SOL     OW75842   2.336   1.321   0.986 -0.1716 -0.2962 -0.3850
24612SOL    HW175843   2.376   1.392   1.036 -0.3939 -1.1835  1.0959
24612SOL    HW275844   2.256   1.299   1.034 -0.6451 -0.8646 -1.3986
24613SOL     OW75845   0.366   2.933   4.351 -0.1248 -0.2529 -0.0723
24613SOL    HW175846   0.375   3.006   4.290  0.4646 -0.7568 -0.6183
24613SOL    HW275847   0.272   2.917   4.356 -0.1847 -0.2085 -0.8754
24614SOL     OW75848   5.881   6.174   9.707 -0.5539  0.3267  0.7717
24614SOL    HW175849   5.958   6.118   9.698  0.3814  1.8072 -1.1994
24614SOL    HW275850   5.917   6.263   9.715 -2.0416  0.9088  1.3231
24615SOL     OW75851   6.543   7.920   2.115  0.1090  0.3692  0.2720
24615SOL    HW175852   6.554   7.896   2.207 -0.9186  0.5996  0.4698
24615SOL    HW275853   6.624   7.891   2.073 -0.1875 -1.5105  0.8961
24616SOL     OW75854   2.135   5.088   0.816  0.0504  0.0188  0.0732
24616SOL    HW175855   2.090   5.111   0.897 -0.3894  1.9910 -0.6799
24616SOL    HW275856   2.214   5.041   0.845  0.0793  0.9769  1.6630
24617SOL     OW75857  10.881  10.526   0.841  0.1822 -0.5780 -0.5785
24617SOL    HW175858  10.943  10.591   0.809 -0.7579  0.5055 -0.2810
24617SOL    HW275859  10.807  10.578   0.874 -1.1297 -1.8327 -1.4461
24618SOL     OW75860   5.404   5.567   0.637 -0.0197  0.2346  0.1560
24618SOL    HW175861   5.342   5.567   0.710 -0.7879 -0.0528 -0.4843
24618SOL    HW275862   5.484   5.605   0.674 -0.6084  0.7310  0.9642
24619SOL     OW75863  10.217   4.656   9.466 -0.1569  0.1746 -0.6867
24619SOL    HW175864  10.231   4.733   9.411 -0.1350  0.4728 -0.2727
24619SOL    HW275865  10.306   4.626   9.488 -0.1661  0.0722 -0.7894
24620SOL     OW75866   2.786  10.435   4.767 -0.2177  0.3819  0.1343
24620SOL    HW175867   2.796  10.509   4.828  0.8668  1.7113 -1.5532
24620SOL    HW275868   2.843  10.367   4.803 -0.6995  0.5943  1.3495
24621SOL     OW75869   1.090   5.898   2.309  0.5660  0.2037  0.1415
24621SOL    HW175870   1.104   5.891   2.215  2.4087 -0.8448  0.4388
24621SOL    HW275871   1.105   5.809   2.342  3.2183  1.1308  1.7483
24622SOL     OW75872   3.180   7.848   6.487  0.3413 -0.4677  0.2405
24622SOL    HW175873   3.156   7.796   6.564  2.6906 -2.0919 -0.0221
24622SOL    HW275874   3.262   7.891   6.512 -0.6624  1.8620 -0.1797
24623SOL     OW75875   7.414   2.893   8.585 -0.6679  0.1721 -0.4266
24623SOL    HW175876   7.466   2.966   8.619  0.2696 -0.7497  0.1583
24623SOL    HW275877   7.328   2.932   8.567 -0.3317  1.3164  0.3201
24624SOL     OW75878   4.722   8.507   2.622 -0.7571 -0.4042 -0.6012
24624SOL    HW175879   4.666   8.472   2.553  1.4803 -1.1911 -2.1495
24624SOL    HW275880   4.661   8.537   2.689 -2.9681 -3.8704 -0.8043
24625SOL     OW75881   6.049   2.731   3.968 -0.1798  0.1322 -0.6283
24625SOL    HW175882   6.000   2.747   3.888 -0.1747  1.2160 -0.4264
24625SOL    HW275883   5.996   2.667   4.017 -1.6879  1.6615 -0.1708
24626SOL     OW75884   1.214   7.672   7.635 -0.2175  0.8193 -0.5382
24626SOL    HW175885   1.261   7.599   7.595  0.0219  0.3817  0.5208
24626SOL    HW275886   1.246   7.676   7.725 -1.1401  1.4399 -0.2172
24627SOL     OW75887   3.845   8.112   5.836 -0.5308  0.6159  0.5769
24627SOL    HW175888   3.901   8.131   5.912  1.1535 -1.7821  0.0685
24627SOL    HW275889   3.896   8.141   5.761 -1.6861  1.9053  0.2618
24628SOL     OW75890   4.132   4.390   0.193 -0.3170 -0.1549  0.3668
24628SOL    HW175891   4.208   4.375   0.249 -0.4406 -2.1995  0.0387
24628SOL    HW275892   4.164   4.449   0.125  0.8731 -0.6862  0.4453
24629SOL     OW75893   2.259   1.426   4.096 -0.0900  0.4773 -0.0928
24629SOL    HW175894   2.260   1.472   4.012 -0.3952 -0.8109 -0.8270
24629SOL    HW275895   2.174   1.448   4.134  0.1927  1.3518  0.0602
24630SOL     OW75896   6.829   6.942   4.059  0.1316 -0.4429 -0.0642
24630SOL    HW175897   6.887   6.867   4.050  0.5804 -0.1156  0.0518
24630SOL    HW275898   6.748   6.907   4.096 -0.0518 -1.0419 -1.0092
24631SOL     OW75899  10.726   0.582  10.685  0.3149  0.5072 -0.2869
24631SOL    HW175900  10.660   0.626  10.738 -0.6919 -0.5575 -0.6224
24631SOL    HW275901  10.684   0.567  10.600 -0.3664 -3.3073  0.5499
24632SOL     OW75902   1.656   8.041   5.998  0.2542 -0.0315 -0.4314
24632SOL    HW175903   1.572   8.001   5.976 -0.5670  1.3255  0.1535
24632SOL    HW275904   1.681   8.089   5.919 -0.6823  1.4581  0.1346
24633SOL     OW75905   7.698  10.424   6.683  0.4568  0.6555  0.1556
24633SOL    HW175906   7.781  10.388   6.714  0.8730  1.3833 -0.1096
24633SOL    HW275907   7.642  10.347   6.670  0.6640  0.2366  1.5257
24634SOL     OW75908   2.574   4.326   7.552 -0.4525  0.1848 -0.1831
24634SOL    HW175909   2.546   4.417   7.540  2.2102  1.1282  0.0477
24634SOL    HW275910   2.649   4.332   7.611  0.6271 -2.0016 -1.2257
24635SOL     OW75911   1.389  10.236   9.936  0.0488  0.2248  0.1025
24635SOL    HW175912   1.456  10.213  10.000  0.8140 -1.1380 -1.1515
24635SOL    HW275913   1.309  10.196   9.969  0.8111 -2.0494 -0.6652
24636SOL     OW75914   7.257   9.562   2.902 -0.2830  0.7539 -0.7906
24636SOL    HW175915   7.170   9.602   2.899  0.0540  1.4962 -0.7943
24636SOL    HW275916   7.303   9.610   2.971  0.2676  0.6562 -1.0869
24637SOL     OW75917   4.827   2.263  10.858  0.4952 -0.2773 -0.2945
24637SOL    HW175918   4.889   2.213  10.911 -0.1651  0.6747  1.4613
24637SOL    HW275919   4.754   2.280  10.917 -0.9378 -0.3543 -1.9535
24638SOL     OW75920   6.326   0.370   3.742 -1.0137  0.4307 -0.1478
24638SOL    HW175921   6.272   0.295   3.718 -1.5348  0.6680  0.2687
24638SOL    HW275922   6.264   0.441   3.756 -0.5042  1.0688 -0.9681
24639SOL     OW75923   8.132   9.750   2.391  0.3252  0.0719 -0.0782
24639SOL    HW175924   8.087   9.702   2.460 -0.1065  1.1366  0.4065
24639SOL    HW275925   8.185   9.684   2.346 -1.4211 -1.1513 -0.4366
24640SOL     OW75926   5.571   5.109   0.418  0.5148  0.7632  0.0319
24640SOL    HW175927   5.618   5.165   0.480  0.4199  0.6659  0.1898
24640SOL    HW275928   5.480   5.114   0.445  0.8586 -2.3013  2.3326
24641SOL     OW75929   4.201   7.393   7.808 -0.4667 -0.1709 -0.4004
24641SOL    HW175930   4.222   7.396   7.715 -1.1913  1.7565 -0.5459
24641SOL    HW275931   4.106   7.385   7.812 -0.5809  1.1487  0.1264
24642SOL     OW75932   6.196   4.301  10.322  0.5928  0.5770 -0.2123
24642SOL    HW175933   6.137   4.292  10.396 -0.2352 -0.5906 -0.9812
24642SOL    HW275934   6.282   4.315  10.361 -0.1347  2.1556  0.9259
24643SOL     OW75935   8.938   7.562   9.467  0.2438 -0.0970 -0.2343
24643SOL    HW175936   8.986   7.618   9.527  0.6404  0.0098 -0.6485
24643SOL    HW275937   8.950   7.473   9.502  0.0331  0.0206  0.1376
24644SOL     OW75938   8.047   5.610   5.007 -0.4095 -0.3772  0.1939
24644SOL    HW175939   8.127   5.647   4.971  0.3130  0.7128  2.6817
24644SOL    HW275940   8.067   5.517   5.021 -0.0367 -0.3866 -0.3870
24645SOL     OW75941   9.912   1.452   0.381  0.2930 -0.4018 -0.1484
24645SOL    HW175942  10.002   1.454   0.414 -0.0494 -0.5137  0.8088
24645SOL    HW275943   9.868   1.386   0.435 -0.4162 -0.2181 -0.4903
24646SOL     OW75944   5.452   0.200   9.323  0.0111 -0.1661  1.0212
24646SOL    HW175945   5.528   0.168   9.276 -0.4727 -0.1301  0.1991
24646SOL    HW275946   5.400   0.122   9.341 -0.4248 -0.0355  0.3606
24647SOL     OW75947   6.419  10.559   2.856 -0.6451 -0.5017  0.2134
24647SOL    HW175948   6.428  10.466   2.836 -1.8334 -0.2986 -1.5499
24647SOL    HW275949   6.508  10.590   2.871 -0.0178 -1.5341 -1.1831
24648SOL     OW75950   8.222   1.917   3.290  0.1675 -0.3180 -0.5454
24648SOL    HW175951   8.194   1.959   3.371 -1.0158 -0.1547 -1.0191
24648SOL    HW275952   8.235   1.989   3.228  0.9387 -0.4515 -0.5483
24649SOL     OW75953   1.920   2.296   1.165 -0.6952  0.2463  0.1948
24649SOL    HW175954   1.827   2.275   1.177 -0.8548  1.9197  2.7358
24649SOL    HW275955   1.966   2.227   1.214 -0.7577  0.6895  0.8995
24650SOL     OW75956   1.347   9.467   2.375 -0.1525 -0.3844  0.0238
24650SOL    HW175957   1.282   9.461   2.305  0.5084  2.0119 -0.8981
24650SOL    HW275958   1.301   9.515   2.445  0.5405  1.2998 -0.6236
24651SOL     OW75959   2.670   0.090   5.311  0.7936  0.4743  0.1663
24651SOL    HW175960   2.603   0.127   5.253  0.9057 -0.2611 -0.4402
24651SOL    HW275961   2.634   0.100   5.399 -1.0692 -1.7842 -0.2646
24652SOL     OW75962   8.289  10.251   2.481 -0.5466  0.3274 -0.2131
24652SOL    HW175963   8.255  10.168   2.514 -1.1337  0.3918 -0.6308
24652SOL    HW275964   8.258  10.255   2.391 -1.1534  1.3401  0.0278
24653SOL     OW75965  10.695   1.585   1.876 -0.3152  0.1033  0.0165
24653SOL    HW175966  10.732   1.497   1.878 -0.3262  0.1040  0.4517
24653SOL    HW275967  10.736   1.628   1.801  0.2342 -0.0343  0.2419
24654SOL     OW75968   0.838   5.443   0.407 -0.0412  0.8365  0.1001
24654SOL    HW175969   0.862   5.518   0.461  1.4295  0.2391  0.3480
24654SOL    HW275970   0.904   5.376   0.429 -1.9049 -0.9189  0.6856
24655SOL     OW75971   4.061   1.006   5.831 -0.4678  0.4185 -0.4751
24655SOL    HW175972   4.090   1.001   5.740 -1.8418 -2.8954 -0.8645
24655SOL    HW275973   3.971   1.038   5.826 -0.7426 -0.3161 -0.3692
24656SOL     OW75974   0.738   1.022   9.839 -0.1491 -0.7271 -0.4170
24656SOL    HW175975   0.762   1.077   9.914 -2.9293  0.9380 -0.6484
24656SOL    HW275976   0.656   0.980   9.865 -0.3775 -1.3033 -1.9551
24657SOL     OW75977   1.871   1.499   8.770 -0.3453 -0.2941 -0.0069
24657SOL    HW175978   1.896   1.433   8.835  2.0074  0.4335 -0.0731
24657SOL    HW275979   1.916   1.472   8.690 -0.1527  0.8303 -0.2961
24658SOL     OW75980   4.547   5.515   3.872 -0.0177  0.0969 -0.2003
24658SOL    HW175981   4.454   5.517   3.896  0.2328  0.5875  0.7752
24658SOL    HW275982   4.579   5.602   3.894  0.4554  0.2623 -1.4839
24659SOL     OW75983   7.279   4.734   6.593 -0.6488  0.4755 -0.3143
24659SOL    HW175984   7.222   4.745   6.517  0.3017 -1.5065 -1.3825
24659SOL    HW275985   7.225   4.690   6.658 -0.6248 -0.5936 -0.9967
24660SOL     OW75986   3.921   7.954   2.589  0.0964  0.1782  0.4302
24660SOL    HW175987   3.846   7.904   2.557 -0.2266 -0.9252  2.7412
24660SOL    HW275988   3.993   7.929   2.530 -0.7206 -0.8586 -0.1574
24661SOL     OW75989   5.624   7.558   5.318 -0.2682 -0.2019 -0.8411
24661SOL    HW175990   5.545   7.536   5.368 -0.8106  0.1948 -1.5129
24661SOL    HW275991   5.676   7.611   5.379 -0.7451 -0.0468 -0.5595
24662SOL     OW75992   8.373   8.253   5.577 -0.2998 -0.3514  0.3401
24662SOL    HW175993   8.452   8.282   5.623  0.1944 -1.6872  0.3724
24662SOL    HW275994   8.301   8.273   5.637  0.3712 -2.5325  1.9838
24663SOL     OW75995  10.991   2.010   0.628 -0.0094  0.4756  0.5445
24663SOL    HW175996  10.910   2.061   0.626 -1.6677 -1.9411  0.4520
24663SOL    HW275997  10.986   1.962   0.712 -0.6518 -2.4726 -1.0315
24664SOL     OW75998  10.490   6.041   9.511 -0.1910  0.5507  0.3321
24664SOL    HW175999  10.408   6.076   9.546  0.0490  0.7151  0.7399
24664SOL    HW276000  10.471   6.023   9.419 -1.0322 -0.4890  0.6863
24665SOL     OW76001   1.637   7.495   7.944 -0.3736 -0.3241 -0.1178
24665SOL    HW176002   1.607   7.558   8.010 -1.2404  0.2647 -1.0451
24665SOL    HW276003   1.721   7.462   7.978 -0.1151  1.0093  0.5904
24666SOL     OW76004  10.112   4.995  10.780  0.0656  0.3420 -0.1802
24666SOL    HW176005  10.192   4.983  10.729  0.2703  0.8055  0.0249
24666SOL    HW276006  10.052   5.039  10.720 -0.4257 -0.9676 -0.6901
24667SOL     OW76007   1.242   4.931   4.481  0.2933  0.5060 -0.1540
24667SOL    HW176008   1.285   5.015   4.463 -1.5304  1.7677  0.9741
24667SOL    HW276009   1.235   4.928   4.577  2.2451 -2.0170  0.0238
24668SOL     OW76010   9.869   2.572   9.628 -0.0269  0.2445 -0.2445
24668SOL    HW176011   9.900   2.652   9.670  0.6926 -0.0020 -0.2856
24668SOL    HW276012   9.789   2.549   9.675  2.1508 -1.5661  2.9965
24669SOL     OW76013   4.243  10.637   1.988 -0.1616 -0.0993  0.6508
24669SOL    HW176014   4.301  10.586   1.931  0.4977 -0.2590  1.4423
24669SOL    HW276015   4.267  10.611   2.076 -0.4896  0.8632  1.0409
24670SOL     OW76016   8.923   5.041   7.627 -0.4292 -0.4446 -0.0912
24670SOL    HW176017   8.948   4.959   7.670 -0.5861 -0.2195  0.4303
24670SOL    HW276018   8.844   5.069   7.673  0.9927  1.3020  1.4298
24671SOL     OW76019   2.500   4.598   7.572 -0.4222  0.1488 -0.1732
24671SOL    HW176020   2.520   4.689   7.553  0.0878  0.1020  0.1427
24671SOL    HW276021   2.425   4.578   7.515 -1.2915  1.1047  0.6061
24672SOL     OW76022   0.964   1.648   6.044  0.0845 -0.3480  0.2586
24672SOL    HW176023   0.986   1.723   5.989  0.0636 -0.1009  0.5845
24672SOL    HW276024   0.881   1.617   6.010 -0.2052  0.1458  0.4969
24673SOL     OW76025   5.877   3.057   4.533 -0.3374 -0.4192  0.3553
24673SOL    HW176026   5.869   3.042   4.627 -1.1302  0.6979  0.4854
24673SOL    HW276027   5.791   3.038   4.498 -0.4463  0.5471  0.0695
24674SOL     OW76028   8.575   9.466   4.667  0.3794 -0.4516 -0.5322
24674SOL    HW176029   8.570   9.400   4.598  0.7945 -2.1153  0.9538
24674SOL    HW276030   8.668   9.489   4.671  0.6337 -1.5301  0.4605
24675SOL     OW76031   2.685   2.900   5.483  0.4734  0.2649  0.0413
24675SOL    HW176032   2.660   2.985   5.518  0.8009  0.4521 -0.1695
24675SOL    HW276033   2.617   2.879   5.419 -0.3993 -0.3084  1.1203
24676SOL     OW76034   0.769   0.314   6.197 -0.3202  0.3645  0.0828
24676SOL    HW176035   0.777   0.274   6.110  0.5629 -0.1912  0.4049
24676SOL    HW276036   0.685   0.282   6.230  0.7934 -2.1194  0.7325
24677SOL     OW76037   2.924   2.194   9.040  0.3667 -0.5143 -0.2549
24677SOL    HW176038   2.958   2.199   8.951 -0.7102  0.6724 -0.6237
24677SOL    HW276039   2.991   2.146   9.088  1.6014  0.0038 -1.3943
24678SOL     OW76040   6.122  10.079   1.301 -0.5858 -0.0818  0.0379
24678SOL    HW176041   6.200  10.029   1.276 -0.7993  0.0017 -0.8381
24678SOL    HW276042   6.140  10.168   1.268 -1.2843 -0.1975 -0.6813
24679SOL     OW76043   9.080   0.803   1.487  0.7352  0.0746  0.0435
24679SOL    HW176044   9.006   0.753   1.451  0.6552  0.4780 -0.3542
24679SOL    HW276045   9.155   0.777   1.434  1.2302 -1.5314  1.4359
24680SOL     OW76046   2.390   4.074   8.667  0.4825  0.2033  0.4109
24680SOL    HW176047   2.335   4.051   8.592  0.2275  0.1801  0.6031
24680SOL    HW276048   2.420   3.990   8.702 -1.1203  0.0991  1.6135
24681SOL     OW76049   2.210   4.779   6.106  0.5443  0.2186 -0.0027
24681SOL    HW176050   2.160   4.751   6.029 -0.6429 -0.6785  1.0654
24681SOL    HW276051   2.299   4.792   6.072  0.0269 -0.0314 -1.5545
24682SOL     OW76052   6.752   3.732   6.396  0.6607  0.2666 -0.0141
24682SOL    HW176053   6.843   3.762   6.395  0.8354 -0.1837  1.1014
24682SOL    HW276054   6.758   3.638   6.412  0.0604 -0.1424 -1.9085
24683SOL     OW76055   4.215   6.073   5.689  0.0872  0.4356 -0.1538
24683SOL    HW176056   4.297   6.107   5.726  0.0234 -1.1344  1.5928
24683SOL    HW276057   4.244   6.011   5.622  0.2766  1.1230 -0.7173
24684SOL     OW76058   1.637   2.620   7.841 -0.2684 -0.0605 -0.0558
24684SOL    HW176059   1.714   2.653   7.795 -1.8994  1.3590 -1.9000
24684SOL    HW276060   1.606   2.694   7.892 -1.5445  0.0240 -0.9167
24685SOL     OW76061   9.235   7.016   3.632  0.1746 -0.8269 -0.0958
24685SOL    HW176062   9.303   7.076   3.663 -1.6828  2.4001 -1.6110
24685SOL    HW276063   9.179   7.002   3.709  0.3443 -0.0892  0.1754
24686SOL     OW76064   3.644  10.362   4.682  0.0482  0.6278  0.1131
24686SOL    HW176065   3.723  10.311   4.664 -0.9880 -1.2109  0.4466
24686SOL    HW276066   3.630  10.353   4.777 -1.1890 -0.1004 -0.1139
24687SOL     OW76067   6.348   4.022   5.323  0.3105 -0.6051  0.8784
24687SOL    HW176068   6.287   4.083   5.364 -0.2380 -0.7698  0.3281
24687SOL    HW276069   6.407   3.996   5.393 -0.1099 -0.2609  1.3674
24688SOL     OW76070   2.696   8.736   2.649  0.7023  0.0696 -0.5252
24688SOL    HW176071   2.715   8.693   2.566  1.4298 -2.4382  0.8389
24688SOL    HW276072   2.660   8.667   2.704  1.3615  1.3379  1.6326
24689SOL     OW76073  10.457   4.985   0.378  0.4444  0.2068 -0.4759
24689SOL    HW176074  10.362   4.984   0.364  0.1179  1.8416  1.2333
24689SOL    HW276075  10.487   5.063   0.332  0.7386  0.4289  0.0783
24690SOL     OW76076   6.203   3.433   0.587  0.5004 -0.2162  0.1793
24690SOL    HW176077   6.265   3.469   0.524  1.9843 -2.8374  0.0151
24690SOL    HW276078   6.157   3.364   0.540  1.6706 -2.2649  1.8740
24691SOL     OW76079   2.646   7.547  10.578 -0.5674  0.1111 -0.2255
24691SOL    HW176080   2.604   7.616  10.527  1.6980  1.1078 -0.8593
24691SOL    HW276081   2.724   7.524  10.528  0.8378 -0.0934  1.9283
24692SOL     OW76082   4.856   8.015   0.294 -0.8878  0.1855  0.2761
24692SOL    HW176083   4.863   8.019   0.389 -2.5281  0.8236  0.3988
24692SOL    HW276084   4.764   7.998   0.277 -0.4592 -0.9058 -1.2026
24693SOL     OW76085   3.273   6.152   4.170  0.1923 -0.0691 -0.1060
24693SOL    HW176086   3.277   6.069   4.120  0.5022  0.4625 -0.9967
24693SOL    HW276087   3.277   6.125   4.261 -4.4128 -1.3837 -0.0683
24694SOL     OW76088   8.828   8.552   6.156  0.3146  0.2259  0.4373
24694SOL    HW176089   8.791   8.570   6.070 -0.9428  0.1039  0.9327
24694SOL    HW276090   8.892   8.622   6.170 -0.9297  1.4315  0.2562
24695SOL     OW76091   2.317   5.598   0.047 -0.0434  0.8948 -0.2315
24695SOL    HW176092   2.288   5.685   0.020 -1.1267  0.3376 -0.9747
24695SOL    HW276093   2.350   5.609   0.136  1.6076  2.4038 -0.9799
24696SOL     OW76094   8.836   6.435   7.373  0.4334 -0.2980 -0.2064
24696SOL    HW176095   8.855   6.527   7.390  1.0853 -0.9907  3.5706
24696SOL    HW276096   8.922   6.393   7.367  0.1360 -0.8140 -1.0111
24697SOL     OW76097   1.737   6.924   3.548 -0.1144  0.3481  0.0555
24697SOL    HW176098   1.710   7.008   3.586  0.3107  0.7642 -0.5365
24697SOL    HW276099   1.805   6.892   3.608 -0.9617 -0.0710  0.8265
24698SOL     OW76100   5.611  10.395   0.059  0.4442  0.6360 -0.2502
24698SOL    HW176101   5.554  10.470   0.042  0.9558  0.8021 -1.3482
24698SOL    HW276102   5.673  10.395  -0.014  1.0757 -0.2724  0.2606
24699SOL     OW76103   5.178   9.275   0.433  0.0962  0.2066 -0.4456
24699SOL    HW176104   5.200   9.228   0.353  0.3250  0.3065 -0.4420
24699SOL    HW276105   5.168   9.366   0.406 -0.6241  0.1189 -0.5037
24700SOL     OW76106   2.952   8.169   2.812 -0.6051 -0.3650  1.1623
24700SOL    HW176107   3.040   8.207   2.802 -1.0696  1.0571  2.0605
24700SOL    HW276108   2.928   8.189   2.903 -1.2863 -2.0546  1.3902
24701SOL     OW76109   1.232   0.061   2.081  0.5600  0.0195 -0.0014
24701SOL    HW176110   1.200   0.136   2.031 -0.1781  0.1636  0.6707
24701SOL    HW276111   1.225  -0.013   2.021 -0.1778  0.2148 -0.1594
24702SOL     OW76112   9.704   8.932  10.696 -0.7045 -0.0899 -0.3316
24702SOL    HW176113   9.680   8.974  10.779 -0.1290  0.2806 -0.3425
24702SOL    HW276114   9.754   9.000  10.649  0.5252 -0.8898 -0.2191
24703SOL     OW76115   3.342  10.252   3.897 -0.5179  0.6613 -0.1209
24703SOL    HW176116   3.256  10.278   3.931 -0.7210  1.0835 -0.9115
24703SOL    HW276117   3.338  10.275   3.804  0.7333  1.4283 -0.0130
24704SOL     OW76118   1.169   3.207   9.078 -0.4740  0.0133 -0.3847
24704SOL    HW176119   1.203   3.288   9.041 -1.6189 -0.2709 -2.1898
24704SOL    HW276120   1.145   3.153   9.002 -2.9007 -0.6207  0.7025
24705SOL     OW76121   7.750   5.294   1.611  0.4747  0.3273  0.2819
24705SOL    HW176122   7.727   5.380   1.645  0.3634 -0.2434  1.6847
24705SOL    HW276123   7.668   5.261   1.573  0.1209  0.1914  1.1564
24706SOL     OW76124   7.724  10.308   3.472 -0.0297 -0.4278 -0.1817
24706SOL    HW176125   7.716  10.367   3.547 -1.2433  0.5585 -1.0354
24706SOL    HW276126   7.783  10.239   3.501 -2.9859 -1.9447  2.8839
24707SOL     OW76127   8.031   7.044   2.808  0.0044 -0.0014  0.8130
24707SOL    HW176128   8.107   7.047   2.867  0.9639 -0.1814 -0.3820
24707SOL    HW276129   8.061   7.088   2.728 -0.8662 -0.8509 -0.0027
24708SOL     OW76130   2.603   6.600   8.551  0.0337 -0.4553 -0.2569
24708SOL    HW176131   2.656   6.634   8.479  1.0715  0.4078  0.8811
24708SOL    HW276132   2.626   6.655   8.626 -1.3397 -1.0576  0.6450
24709SOL     OW76133   2.999   2.688   4.383 -0.9687  0.0535 -0.0661
24709SOL    HW176134   2.949   2.615   4.420  0.6144 -1.1228 -0.1334
24709SOL    HW276135   2.961   2.702   4.297  1.2621 -3.5550 -1.8494
24710SOL     OW76136   7.557   5.658   5.919 -0.3336  0.0869 -0.1836
24710SOL    HW176137   7.572   5.653   6.013 -1.7515 -0.8375  0.0212
24710SOL    HW276138   7.565   5.751   5.898  0.4943  0.2398  0.7458
24711SOL     OW76139   6.240   9.431   9.535  0.5939  0.0002 -0.3413
24711SOL    HW176140   6.319   9.441   9.481  1.6216 -2.0199  0.6903
24711SOL    HW276141   6.219   9.520   9.563  2.5935  0.5929 -0.5468
24712SOL     OW76142  10.166   7.704   6.408  0.1978 -0.2119  0.4121
24712SOL    HW176143  10.082   7.664   6.386  1.1896 -2.7385  0.8241
24712SOL    HW276144  10.207   7.724   6.324 -0.7368  0.9204  0.2098
24713SOL     OW76145   8.695   5.557   0.611 -0.1919 -0.4045  0.6754
24713SOL    HW176146   8.771   5.501   0.600 -0.1371 -0.4944  1.4938
24713SOL    HW276147   8.700   5.619   0.538  0.7472 -0.3081  0.8132
24714SOL     OW76148   6.931   3.485   6.757  0.4586  0.2995 -0.1336
24714SOL    HW176149   6.880   3.555   6.798  2.6743  1.4577  0.8044
24714SOL    HW276150   6.878   3.457   6.683 -2.2852  0.2583  1.6995
24715SOL     OW76151   7.124   4.795   5.656 -0.6818  0.0214 -0.2365
24715SOL    HW176152   7.069   4.717   5.659 -2.6637  1.3587  1.0580
24715SOL    HW276153   7.119   4.830   5.745  0.8602  1.1723 -0.5636
24716SOL     OW76154   0.660   2.108  10.569 -0.2211 -0.1319 -0.1479
24716SOL    HW176155   0.740   2.143  10.608 -0.6467  1.0976 -0.3381
24716SOL    HW276156   0.596   2.178  10.578 -0.5287 -0.0640 -2.4491
24717SOL     OW76157   8.119   0.270   8.582 -0.5367 -0.3896 -0.0984
24717SOL    HW176158   8.163   0.355   8.583  0.1436 -0.7094 -1.1619
24717SOL    HW276159   8.188   0.207   8.601 -0.5692 -0.8766 -1.4928
24718SOL     OW76160  10.675   5.428   2.829  0.3805 -0.1637  0.0797
24718SOL    HW176161  10.666   5.523   2.840 -0.4985 -0.1839 -0.3947
24718SOL    HW276162  10.770   5.413   2.834  0.5659  0.7884 -0.2204
24719SOL     OW76163   0.254   0.912   9.920  0.4438 -1.1541  0.5369
24719SOL    HW176164   0.162   0.935   9.929  0.8380  0.9903 -0.3525
24719SOL    HW276165   0.259   0.821   9.950 -1.6556 -0.8287  2.0992
24720SOL     OW76166   6.558   3.060   2.893  0.1031  0.0729 -0.1265
24720SOL    HW176167   6.543   3.154   2.900 -1.5615 -0.1613 -0.0310
24720SOL    HW276168   6.512   3.023   2.968  0.8307 -0.8069 -0.1048
24721SOL     OW76169   9.323   6.996   3.181 -0.3257 -0.2701 -0.0788
24721SOL    HW176170   9.240   6.952   3.199  0.1596 -1.0941  0.2062
24721SOL    HW276171   9.329   7.064   3.248 -0.0910 -1.1639  0.8344
24722SOL     OW76172   1.510   5.514   3.538  0.1290  0.2920  0.0022
24722SOL    HW176173   1.426   5.472   3.557 -0.4084  1.4584  0.3388
24722SOL    HW276174   1.539   5.476   3.455  0.7891 -2.3628  1.3285
24723SOL     OW76175   0.826   7.322   2.493 -0.1017  0.7171  0.4230
24723SOL    HW176176   0.864   7.245   2.452 -0.3391 -0.2512  1.9608
24723SOL    HW276177   0.823   7.387   2.423  1.1765 -0.2806 -0.6095
24724SOL     OW76178   2.480   9.624   6.409  0.7444 -0.2249  0.1463
24724SOL    HW176179   2.445   9.547   6.363  0.3919 -0.4455  0.7665
24724SOL    HW276180   2.430   9.698   6.374  0.3071 -0.4227  0.3344
24725SOL     OW76181  10.940   5.050   2.190 -0.0682 -0.8084 -0.5356
24725SOL    HW176182  10.912   4.979   2.133 -0.9718 -0.1508 -0.9344
24725SOL    HW276183  10.946   5.127   2.133  2.0158 -0.7804 -0.3487
24726SOL     OW76184   2.141   2.112  10.736 -0.3805 -0.1064  0.1003
24726SOL    HW176185   2.163   2.189  10.787 -1.0724  1.0679 -1.2832
24726SOL    HW276186   2.222   2.062  10.731  0.7386  1.6898 -0.8781
24727SOL     OW76187   5.127   5.715   5.732  0.3725 -0.0390  0.4052
24727SOL    HW176188   5.218   5.743   5.730  0.3754 -0.0298 -1.9299
24727SOL    HW276189   5.078   5.794   5.752  0.8028  0.2019  0.5150
24728SOL     OW76190   3.838   3.920   1.564 -0.5554 -0.3518  0.0872
24728SOL    HW176191   3.839   4.012   1.592 -0.1809 -0.9082  2.0786
24728SOL    HW276192   3.906   3.914   1.497 -0.3344  0.7437  0.1938
24729SOL     OW76193   4.877   5.747   6.352 -0.0459 -0.6745  0.2465
24729SOL    HW176194   4.950   5.693   6.324 -0.3888 -1.4509  0.8120
24729SOL    HW276195   4.815   5.745   6.279  0.4242 -0.1297 -0.1764
24730SOL     OW76196   6.485   6.298   4.725 -0.0982  0.1172 -0.7545
24730SOL    HW176197   6.399   6.257   4.734 -0.3003  0.3515 -1.5277
24730SOL    HW276198   6.492   6.357   4.800  0.0683 -1.0798  0.2038
24731SOL     OW76199   3.746   6.891   2.128 -0.4475 -0.2938 -0.0886
24731SOL    HW176200   3.805   6.867   2.057 -0.4168  3.1264 -1.4261
24731SOL    HW276201   3.804   6.905   2.204 -0.2175 -1.7994  0.0434
24732SOL     OW76202   9.674   5.697   8.627  0.5079  1.1884 -0.8215
24732SOL    HW176203   9.633   5.672   8.544 -0.8818  1.4770 -0.2573
24732SOL    HW276204   9.745   5.634   8.640 -1.4028 -1.0378 -0.5622
24733SOL     OW76205   9.829   7.600   7.033 -0.0905 -0.0628  0.2368
24733SOL    HW176206   9.762   7.532   7.031 -1.5163  1.2448  1.2867
24733SOL    HW276207   9.912   7.551   7.038 -0.9361 -1.7096 -0.7490
24734SOL     OW76208   4.781   2.069   2.506 -0.2430 -0.2343  0.4511
24734SOL    HW176209   4.808   2.156   2.535  2.0611 -0.4514 -0.7610
24734SOL    HW276210   4.851   2.011   2.538 -1.2534 -1.5232  0.4313
24735SOL     OW76211   7.600   3.749   2.237  0.6211 -0.1674 -0.5660
24735SOL    HW176212   7.536   3.756   2.166 -0.7552  0.0948  0.6313
24735SOL    HW276213   7.614   3.655   2.248  1.3095 -0.1883 -1.5649
24736SOL     OW76214   4.062   8.710   5.379  0.6093 -0.0652 -0.1905
24736SOL    HW176215   4.034   8.620   5.396 -0.0383  0.0514 -0.6063
24736SOL    HW276216   3.981   8.761   5.379  0.8100  0.2788 -1.4254
24737SOL     OW76217   4.483   3.781   1.600  0.3002 -0.9235 -0.0099
24737SOL    HW176218   4.469   3.742   1.513  1.9626 -1.5397 -0.0324
24737SOL    HW276219   4.395   3.784   1.638 -0.3838 -1.2424 -1.4572
24738SOL     OW76220   9.317   1.887   1.511  0.7006 -0.2510 -0.8155
24738SOL    HW176221   9.408   1.885   1.540  0.5854 -0.9768 -0.4891
24738SOL    HW276222   9.323   1.901   1.416  1.2268 -1.9334 -1.0718
24739SOL     OW76223   8.225   0.446   4.694  0.3065  0.1343 -0.2504
24739SOL    HW176224   8.315   0.422   4.715  0.7014  0.1211 -1.8147
24739SOL    HW276225   8.226   0.463   4.600 -1.0933  1.2125 -0.1087
24740SOL     OW76226   4.561   4.298   9.723  0.6334  0.3941  0.2437
24740SOL    HW176227   4.568   4.318   9.816  0.9086  0.1063  0.2873
24740SOL    HW276228   4.474   4.328   9.698  1.0055  1.5756  0.3215
24741SOL     OW76229   6.210   8.719   1.084  0.1204 -0.2197 -0.5524
24741SOL    HW176230   6.271   8.773   1.134 -0.0557 -1.1403  0.7049
24741SOL    HW276231   6.155   8.676   1.150 -1.0850 -0.3730 -1.5983
24742SOL     OW76232  10.623  10.852   3.032 -0.1103  0.1873 -0.2818
24742SOL    HW176233  10.680  10.805   3.093 -1.1295 -1.3295 -0.4527
24742SOL    HW276234  10.561  10.898   3.088  0.6490  1.0469 -0.1241
24743SOL     OW76235   6.838   2.172   1.715  0.2707 -0.6514  0.3509
24743SOL    HW176236   6.770   2.239   1.720  0.1709 -0.7471  0.2798
24743SOL    HW276237   6.887   2.181   1.797  0.8173  0.1030 -0.0438
24744SOL     OW76238   5.334   6.182   5.377 -0.3047  0.1286 -0.2912
24744SOL    HW176239   5.382   6.106   5.411 -0.3368 -0.2526 -1.0946
24744SOL    HW276240   5.243   6.166   5.403 -0.0902  0.6346  0.8430
24745SOL     OW76241   2.204   2.645   3.371  0.5272 -0.2709 -0.2506
24745SOL    HW176242   2.189   2.711   3.303  1.2139  0.7270  0.5356
24745SOL    HW276243   2.237   2.569   3.324 -1.1443 -0.3965 -1.2863
24746SOL     OW76244   0.930   1.999   5.501 -0.4026 -0.0412 -0.4374
24746SOL    HW176245   0.969   2.079   5.536  0.6950 -1.3504  1.4617
24746SOL    HW276246   0.836   2.011   5.514 -0.2796  1.0170 -0.4046
24747SOL     OW76247   5.572   4.309   1.455 -0.7403 -0.0102  0.3749
24747SOL    HW176248   5.601   4.385   1.405 -1.8541  0.4145  0.3590
24747SOL    HW276249   5.532   4.345   1.533  0.8829 -0.6672  1.5689
24748SOL     OW76250   2.292   3.171   1.593  0.0441 -0.4698  0.0634
24748SOL    HW176251   2.317   3.104   1.657 -0.7118 -0.8795 -0.0506
24748SOL    HW276252   2.254   3.242   1.645  1.6227  0.2739  0.2606
24749SOL     OW76253  10.920   1.827   0.041 -0.8033  0.2021  1.0178
24749SOL    HW176254  10.862   1.783   0.104  0.1698 -1.9387  0.5007
24749SOL    HW276255  10.868   1.831  -0.040 -0.6561 -0.7015  0.8666
24750SOL     OW76256   9.182   4.126   8.064 -0.3161  0.0890 -0.0136
24750SOL    HW176257   9.146   4.052   8.015  0.9874 -0.7998  0.3154
24750SOL    HW276258   9.203   4.191   7.997 -0.8685 -0.0966 -0.3741
24751SOL     OW76259   7.512   9.444   5.338  0.0548 -0.1436  0.1077
24751SOL    HW176260   7.542   9.455   5.248 -0.9059  0.5036 -0.1504
24751SOL    HW276261   7.590   9.418   5.387  0.5035 -0.8547 -0.9750
24752SOL     OW76262   5.020   4.604   6.404 -0.0359 -0.3435 -0.1396
24752SOL    HW176263   5.077   4.645   6.338  1.6543 -2.1905  0.0903
24752SOL    HW276264   5.017   4.667   6.476  1.1935  0.0759 -0.4385
24753SOL     OW76265   1.728   9.272   3.315  1.0929 -0.1064 -0.0072
24753SOL    HW176266   1.760   9.306   3.231  2.7921  0.4775  0.8185
24753SOL    HW276267   1.673   9.343   3.350  0.9669 -0.0544 -0.3079
24754SOL     OW76268   3.039   9.168   0.513 -0.5523 -0.1875  0.2048
24754SOL    HW176269   3.011   9.247   0.467  0.6227  0.1180 -0.0152
24754SOL    HW276270   3.095   9.123   0.450  0.7806  0.0526  1.1927
24755SOL     OW76271   7.242   8.234   7.430 -0.7638 -0.2538 -0.2786
24755SOL    HW176272   7.267   8.217   7.521 -1.2347 -1.2502 -0.3260
24755SOL    HW276273   7.200   8.320   7.432 -1.9714 -0.8377  0.6796
24756SOL     OW76274   2.702   8.473  10.992  0.5693  0.0122 -0.1483
24756SOL    HW176275   2.754   8.410  11.043 -1.5791 -0.9416  0.9661
24756SOL    HW276276   2.631   8.421  10.955  0.9260  1.0896 -2.5378
24757SOL     OW76277   1.527   5.399   7.099  0.9053 -0.2129 -0.6087
24757SOL    HW176278   1.587   5.472   7.115  0.3754  0.3351 -1.0591
24757SOL    HW276279   1.510   5.404   7.004  1.5857 -1.4852 -0.8141
24758SOL     OW76280   1.940   4.167   1.494 -0.3068  0.0137 -0.6153
24758SOL    HW176281   1.988   4.170   1.411 -1.2553  1.2460 -1.1649
24758SOL    HW276282   1.990   4.107   1.549  1.6668  0.9484 -1.2693
24759SOL     OW76283   2.517   1.526   3.486 -0.1028  0.2853  0.3131
24759SOL    HW176284   2.437   1.479   3.460  0.3980 -0.0341 -0.6989
24759SOL    HW276285   2.571   1.459   3.527 -0.8061  0.7439  2.1291
24760SOL     OW76286   0.759   4.450   3.418  0.2485 -0.1780 -0.5676
24760SOL    HW176287   0.735   4.364   3.384 -0.8629 -0.1812  0.1459
24760SOL    HW276288   0.800   4.495   3.344 -2.5163  0.0072 -2.1427
24761SOL     OW76289   8.154   4.112   2.646  0.2514 -0.0254 -0.2774
24761SOL    HW176290   8.109   4.195   2.630 -1.6451 -1.1623 -1.2608
24761SOL    HW276291   8.083   4.048   2.654  1.5526 -1.2809  2.4636
24762SOL     OW76292   4.523   4.763   9.072 -0.0389 -0.2511 -0.4764
24762SOL    HW176293   4.572   4.713   9.137 -1.2499  0.5440  1.0997
24762SOL    HW276294   4.571   4.750   8.990  1.9382 -0.6859  0.7055
24763SOL     OW76295   3.780   6.492   7.634 -0.2580 -0.5552 -0.0409
24763SOL    HW176296   3.724   6.454   7.566 -1.0163 -0.8365  0.7256
24763SOL    HW276297   3.739   6.576   7.654  0.3543 -0.1614 -0.4072
24764SOL     OW76298   6.774   9.231   8.270  0.1417 -0.1432 -0.0164
24764SOL    HW176299   6.794   9.145   8.307  0.6827  0.2340  0.5800
24764SOL    HW276300   6.858   9.265   8.240  0.1997  0.8258  1.1605
24765SOL     OW76301   3.056   2.297  10.191 -0.4741  0.4852  0.6237
24765SOL    HW176302   3.001   2.259  10.123 -0.0723  1.6908 -0.4220
24765SOL    HW276303   2.994   2.332  10.255 -0.8511 -1.2160  1.2532
24766SOL     OW76304   4.419   6.221  10.085 -0.3137  0.6096 -0.1416
24766SOL    HW176305   4.371   6.224  10.002  1.8884 -1.9817 -1.6695
24766SOL    HW276306   4.509   6.242  10.060  1.1451 -3.6013  0.7677
24767SOL     OW76307   0.692   4.183   9.783 -0.3816 -0.4020  0.1780
24767SOL    HW176308   0.636   4.220   9.850 -0.2915  0.6298 -0.2995
24767SOL    HW276309   0.636   4.175   9.706 -0.1590 -0.3792  0.0112
24768SOL     OW76310   1.528   8.378   4.981 -0.6287  0.2529  0.3720
24768SOL    HW176311   1.522   8.471   4.957 -0.7137  0.5787  1.6001
24768SOL    HW276312   1.448   8.339   4.945  0.4740  0.1544 -2.1448
24769SOL     OW76313   3.056   7.030   3.855  0.5551 -0.1194  0.4424
24769SOL    HW176314   3.035   7.043   3.948  0.9588 -1.7762  0.7851
24769SOL    HW276315   3.139   6.982   3.855  0.4803 -0.2754 -0.7715
24770SOL     OW76316   2.636   7.023   6.861 -0.1247  0.1666  0.4486
24770SOL    HW176317   2.715   7.068   6.891 -0.2249  0.2296  0.6235
24770SOL    HW276318   2.564   7.068   6.906 -0.1348 -0.9806  1.6478
24771SOL     OW76319   9.459   4.425   3.637 -0.5797  0.3487  0.3611
24771SOL    HW176320   9.519   4.384   3.699 -0.9487 -0.3235  0.2826
24771SOL    HW276321   9.468   4.374   3.557  0.5089  1.7235 -0.4306
24772SOL     OW76322   3.394   2.786   8.616  0.0993 -0.4599  0.1378
24772SOL    HW176323   3.383   2.713   8.554  0.4431 -0.8713  0.5529
24772SOL    HW276324   3.424   2.859   8.561  1.1232 -1.0274 -0.0796
24773SOL     OW76325   3.767   6.234   2.705  0.2291  0.3847 -0.4270
24773SOL    HW176326   3.736   6.190   2.784  1.5229  1.3793  0.6832
24773SOL    HW276327   3.836   6.176   2.671  1.6866  1.2701  0.8392
24774SOL     OW76328   4.608   1.772   5.512  0.6251 -0.0547 -0.4468
24774SOL    HW176329   4.649   1.825   5.580  0.2154  0.3566 -0.5151
24774SOL    HW276330   4.578   1.836   5.447  1.3827 -0.4691 -1.2165
24775SOL     OW76331   3.385   4.219   6.353 -0.0403  0.1215  0.1388
24775SOL    HW176332   3.454   4.234   6.289 -1.4274 -0.9610 -1.7177
24775SOL    HW276333   3.364   4.307   6.387  0.7706  0.7222 -0.8553
24776SOL     OW76334   4.227   9.008   9.162  0.0366 -0.1118  0.4513
24776SOL    HW176335   4.254   9.072   9.097  0.9475  0.1390  1.0586
24776SOL    HW276336   4.147   8.970   9.127  0.5051  0.0272 -0.8038
24777SOL     OW76337   3.864   2.628   2.817  0.3448 -0.0263 -0.3874
24777SOL    HW176338   3.899   2.570   2.750 -0.0868  0.4892 -1.0610
24777SOL    HW276339   3.801   2.574   2.864  2.4963 -1.2183  1.3416
24778SOL     OW76340   3.825   4.585   8.453  0.2991 -0.2774  0.4249
24778SOL    HW176341   3.883   4.517   8.487  0.6612  0.2902  0.9608
24778SOL    HW276342   3.749   4.583   8.511 -0.3189 -1.1385 -0.3813
24779SOL     OW76343   7.286   5.869   2.857  0.1426 -0.0531 -0.2179
24779SOL    HW176344   7.339   5.804   2.902 -0.1952  0.0225  0.3086
24779SOL    HW276345   7.217   5.818   2.814  0.7358 -0.1665 -1.0512
24780SOL     OW76346   0.910   2.260   5.372  0.4349  0.6110 -0.5251
24780SOL    HW176347   0.993   2.283   5.330  1.3865 -1.1274  0.3140
24780SOL    HW276348   0.878   2.185   5.322 -0.5775  1.1895 -0.7626
24781SOL     OW76349   0.406   8.762   4.081 -0.3674 -0.1367  0.0822
24781SOL    HW176350   0.429   8.717   4.162 -0.7518 -0.4369  0.0292
24781SOL    HW276351   0.398   8.854   4.105  0.0880 -0.1419  0.2647
24782SOL     OW76352  10.382  10.805   6.002  0.0331  0.2994 -0.3673
24782SOL    HW176353  10.419  10.717   6.012 -2.0246 -0.5950 -0.0660
24782SOL    HW276354  10.425  10.841   5.924 -0.7557 -1.9040 -1.9127
24783SOL     OW76355   0.011   0.812   8.012 -0.1008 -0.4706  0.1738
24783SOL    HW176356  -0.005   0.718   8.000  2.5953 -0.9310 -0.5427
24783SOL    HW276357  -0.069   0.845   8.051 -0.7568 -3.2850  1.4983
24784SOL     OW76358   9.713  10.464   8.331  0.7203  0.5123  0.4322
24784SOL    HW176359   9.774  10.409   8.282 -0.4905  0.7863 -1.5476
24784SOL    HW276360   9.648  10.491   8.265 -1.4860  0.2907  2.3699
24785SOL     OW76361   6.662   6.969   7.550 -0.8048  0.0544  0.1944
24785SOL    HW176362   6.681   7.017   7.469 -0.6776  1.1981  0.8735
24785SOL    HW276363   6.676   6.877   7.528  2.0772  0.5284 -0.3333
24786SOL     OW76364   0.940   8.010   0.803  0.2825  0.1826  0.3102
24786SOL    HW176365   0.890   8.086   0.773 -1.2370 -0.9450 -0.1343
24786SOL    HW276366   1.031   8.037   0.795 -0.2065  1.7953 -0.2514
24787SOL     OW76367  11.028   4.517   1.211  0.0926  0.2733  0.1871
24787SOL    HW176368  11.042   4.468   1.292  1.1281  0.0434 -0.1054
24787SOL    HW276369  11.000   4.451   1.147 -1.6166  0.5963  0.5533
24788SOL     OW76370   0.321   0.012  10.372 -0.4722 -0.2764  0.4623
24788SOL    HW176371   0.415  -0.003  10.376 -0.4226  0.2029  1.6943
24788SOL    HW276372   0.310   0.106  10.384 -1.0370 -0.0373 -1.6598
24789SOL     OW76373  10.487  10.329  10.359 -0.2488  0.4258 -0.5741
24789SOL    HW176374  10.479  10.236  10.380 -1.8700  0.3766 -1.2877
24789SOL    HW276375  10.473  10.334  10.265 -1.1118  1.4810 -0.4041
24790SOL     OW76376   3.409   2.240   2.139 -0.1990  0.2231 -0.3637
24790SOL    HW176377   3.479   2.281   2.189  0.5269 -0.8460 -0.4660
24790SOL    HW276378   3.337   2.231   2.201  0.1843  0.2190  0.0811
24791SOL     OW76379   2.680   1.948   3.319  0.0536  0.2096 -0.2320
24791SOL    HW176380   2.706   1.937   3.228  0.6750  0.1452 -0.0476
24791SOL    HW276381   2.762   1.960   3.367 -0.2732  0.3455  0.3061
24792SOL     OW76382   7.917   4.188   9.367 -0.0701 -0.1673  0.2029
24792SOL    HW176383   7.845   4.248   9.344  1.1136  0.6878 -1.5182
24792SOL    HW276384   7.904   4.170   9.460 -1.5384  1.3100  0.3394
24793SOL     OW76385  10.470   5.601   2.660 -0.4749 -0.3118 -0.2978
24793SOL    HW176386  10.479   5.671   2.724  1.3179 -0.9361  0.1797
24793SOL    HW276387  10.546   5.611   2.603 -1.3752 -0.5390 -1.5873
24794SOL     OW76388   4.100  10.011  10.252  0.2927 -0.3204  0.1032
24794SOL    HW176389   4.148   9.928  10.262 -1.0843 -1.2531 -0.8041
24794SOL    HW276390   4.008   9.986  10.253 -0.1977  1.3661  1.1004
24795SOL     OW76391   2.471   4.452   4.762 -0.9198 -0.0245  0.2966
24795SOL    HW176392   2.384   4.427   4.732 -1.0050  0.2927  0.2727
24795SOL    HW276393   2.457   4.493   4.847 -0.7984  0.0735  0.2702
24796SOL     OW76394   4.114   3.974   7.062 -0.3303  0.2018  0.6897
24796SOL    HW176395   4.118   3.910   7.134 -0.5888  1.6365  2.0249
24796SOL    HW276396   4.061   4.046   7.097  2.0477  2.3151  0.1771
24797SOL     OW76397   5.313   5.606   3.838 -0.8125  0.4482  0.0200
24797SOL    HW176398   5.380   5.675   3.846 -1.1870  0.8544 -0.2870
24797SOL    HW276399   5.357   5.527   3.868 -0.6245  0.9691  1.1581
24798SOL     OW76400   6.938   7.959   7.123 -0.4583  0.6756 -0.0113
24798SOL    HW176401   6.845   7.943   7.140 -0.2832  0.1063  0.4665
24798SOL    HW276402   6.977   7.872   7.125  0.5720  1.1073  2.8574
24799SOL     OW76403   8.605  10.412   8.512  0.3908  0.2724 -0.1576
24799SOL    HW176404   8.523  10.455   8.490 -0.5484 -1.4958 -0.3375
24799SOL    HW276405   8.634  10.454   8.593 -0.5384  1.1065 -0.2398
24800SOL     OW76406   3.293   9.086   3.818  0.6463  0.2677 -0.2230
24800SOL    HW176407   3.308   9.130   3.901 -0.9081 -0.9734  0.7718
24800SOL    HW276408   3.204   9.110   3.794  1.0999  0.6842 -1.6120
24801SOL     OW76409   7.243   5.410   7.805 -0.3304 -0.2089  0.4818
24801SOL    HW176410   7.276   5.391   7.893 -0.1349 -1.2894  0.1831
24801SOL    HW276411   7.154   5.375   7.804  0.5640 -2.6989 -0.5698
24802SOL     OW76412   3.003   0.926   8.574  0.5772  0.2692  0.3434
24802SOL    HW176413   3.005   0.890   8.486 -0.5252  0.3491  0.2732
24802SOL    HW276414   3.092   0.959   8.588  0.5817  0.8770 -0.9855
24803SOL     OW76415   9.521   8.295   4.999 -0.2485 -0.3021  0.1429
24803SOL    HW176416   9.560   8.359   4.940 -1.0780  0.0924  0.0035
24803SOL    HW276417   9.454   8.344   5.047 -1.4457 -1.2149 -0.5277
24804SOL     OW76418   5.189   5.505   7.638 -0.3301 -0.2735 -0.2657
24804SOL    HW176419   5.176   5.558   7.560 -1.8536 -0.8883 -0.4587
24804SOL    HW276420   5.191   5.568   7.710  1.0832  0.2986 -0.7525
24805SOL     OW76421   8.119   7.488   3.107  0.2866 -0.3278  0.2815
24805SOL    HW176422   8.127   7.580   3.083 -1.3714 -0.4847 -1.0455
24805SOL    HW276423   8.204   7.466   3.146  0.8705  1.6256  0.2329
24806SOL     OW76424   8.277   4.746   3.801 -0.6830 -0.0730 -0.5587
24806SOL    HW176425   8.307   4.816   3.742 -2.5743 -0.7643 -2.4485
24806SOL    HW276426   8.187   4.771   3.824 -0.6464 -0.8389  0.4861
24807SOL     OW76427   1.914   3.692   4.197 -0.3022  0.2866  0.0230
24807SOL    HW176428   1.969   3.743   4.138  0.0161  1.2042  1.0738
24807SOL    HW276429   1.975   3.645   4.253 -0.5864  0.4200  0.4510
24808SOL     OW76430   5.300   2.997   1.686 -0.1776  0.1294  0.0141
24808SOL    HW176431   5.233   2.929   1.688  1.0156 -1.0924  0.0732
24808SOL    HW276432   5.310   3.018   1.594 -0.2393 -0.1072 -0.0480
24809SOL     OW76433   0.049   0.828   7.453  0.2826 -0.0137  0.2180
24809SOL    HW176434   0.009   0.767   7.391  0.9973 -1.6547  1.3056
24809SOL    HW276435  -0.025   0.863   7.504 -0.0458 -0.7820  0.2753
24810SOL     OW76436   0.229   5.683   0.438  0.0416  0.1501  0.0717
24810SOL    HW176437   0.234   5.605   0.382  3.1952  1.4662 -1.7529
24810SOL    HW276438   0.235   5.756   0.376  1.1205  1.7466  1.9619
24811SOL     OW76439   8.627   2.855   3.239  0.0561 -0.2885 -0.1688
24811SOL    HW176440   8.721   2.860   3.222  0.2884  0.7247  1.2845
24811SOL    HW276441   8.588   2.839   3.152  1.6314 -2.2327 -0.6048
24812SOL     OW76442   6.261  10.822  10.428  0.1002  0.2661  0.1981
24812SOL    HW176443   6.296  10.910  10.418 -0.6029  0.7505  1.7792
24812SOL    HW276444   6.172  10.827  10.394  0.5636 -0.2682 -1.1891
24813SOL     OW76445   0.920   4.547   4.572 -0.0983  0.5100 -0.0876
24813SOL    HW176446   0.868   4.561   4.492  1.0805  0.5074 -0.8727
24813SOL    HW276447   0.869   4.482   4.621 -1.4273  1.3565 -0.2721
24814SOL     OW76448   4.215   3.038   6.160 -0.4779  0.3542  0.1802
24814SOL    HW176449   4.200   3.127   6.129  2.5638  0.9959  0.3103
24814SOL    HW276450   4.173   3.036   6.246 -0.6410  1.6473  0.1528
24815SOL     OW76451   0.833   6.375   3.748  0.3113 -0.3115  0.3124
24815SOL    HW176452   0.858   6.358   3.838  0.6589 -1.4310  0.0224
24815SOL    HW276453   0.760   6.315   3.731 -1.7976  1.9859  0.7432
24816SOL     OW76454   5.385   0.458   3.051 -0.4662  1.3199 -0.3931
24816SOL    HW176455   5.337   0.534   3.018 -0.5908  1.0414 -0.8523
24816SOL    HW276456   5.363   0.387   2.991 -1.4852  0.5448  0.8330
24817SOL     OW76457   0.439   2.540   7.188 -0.4642 -0.2409  0.6056
24817SOL    HW176458   0.522   2.581   7.162 -1.4178  1.2458 -0.3116
24817SOL    HW276459   0.462   2.449   7.206  1.1942 -0.1387 -0.6413
24818SOL     OW76460   6.663   0.235  10.130  0.0183 -0.3367 -0.5685
24818SOL    HW176461   6.736   0.201  10.182  0.3862 -0.5306 -1.1991
24818SOL    HW276462   6.585   0.207  10.177  0.3462  0.5807  0.5715
24819SOL     OW76463   8.699   5.770   6.654 -0.1760 -0.3003  0.3046
24819SOL    HW176464   8.759   5.843   6.641  0.3312 -0.8218 -0.3515
24819SOL    HW276465   8.659   5.787   6.739  0.4827  0.3466  0.4984
24820SOL     OW76466   0.257   6.288   6.909  0.3162 -0.1767  0.0877
24820SOL    HW176467   0.239   6.328   6.994 -0.7842  0.3334 -0.3633
24820SOL    HW276468   0.321   6.346   6.868 -2.4613  2.1905 -1.2384
24821SOL     OW76469   0.622   5.896  10.587 -0.5442 -0.1880 -0.3408
24821SOL    HW176470   0.715   5.904  10.567 -0.5307 -0.5835 -0.4318
24821SOL    HW276471   0.618   5.851  10.671 -0.6452  0.0792 -0.2012
24822SOL     OW76472   9.760   3.603   9.833  0.1420 -0.7132  0.2692
24822SOL    HW176473   9.691   3.664   9.858 -1.3831 -1.8461 -1.0092
24822SOL    HW276474   9.759   3.535   9.900  1.0154 -0.0263  1.0171
24823SOL     OW76475   2.520   3.747   9.216 -0.0701  0.1660  0.1251
24823SOL    HW176476   2.564   3.709   9.292 -0.7214 -0.7023  0.0905
24823SOL    HW276477   2.448   3.798   9.253  0.6116  1.1333  0.1558
24824SOL     OW76478   4.960   4.213   9.751  0.1923  0.0422 -0.0349
24824SOL    HW176479   4.889   4.244   9.807 -1.2261 -1.1716 -1.0744
24824SOL    HW276480   4.919   4.196   9.667  1.9151  0.1279 -0.9489
24825SOL     OW76481   5.547   9.508   6.128  0.2335  0.1706 -0.0559
24825SOL    HW176482   5.567   9.429   6.177 -1.3065 -1.4400 -1.8588
24825SOL    HW276483   5.503   9.566   6.191  0.8407 -0.6399  1.1351
24826SOL     OW76484   7.755  10.856   7.644 -0.3041  0.3881  0.0249
24826SOL    HW176485   7.821  10.789   7.630 -0.6413 -0.0005  0.2673
24826SOL    HW276486   7.788  10.933   7.598  0.4775  0.3020  0.4344
24827SOL     OW76487   6.336  10.340   4.227 -0.2803 -0.0541 -0.1172
24827SOL    HW176488   6.329  10.315   4.319  0.8120  1.4015  0.3982
24827SOL    HW276489   6.430  10.358   4.214 -0.6580  1.4724 -1.0145
24828SOL     OW76490   3.576   3.489   6.743 -0.1264  0.5551 -0.7698
24828SOL    HW176491   3.634   3.464   6.671  2.0922 -0.2547  1.1716
24828SOL    HW276492   3.600   3.579   6.763 -0.1655  0.5171 -0.5473
24829SOL     OW76493   8.055   4.243   5.711  0.3232  0.4366 -0.2285
24829SOL    HW176494   7.980   4.210   5.761 -0.8715  0.5928 -1.8327
24829SOL    HW276495   8.023   4.324   5.671  0.8215 -0.2678 -2.1628
24830SOL     OW76496   7.700   7.759   9.033 -0.2109  0.6702 -0.8041
24830SOL    HW176497   7.724   7.806   9.113 -0.8928 -0.1552 -0.0896
24830SOL    HW276498   7.613   7.723   9.051 -0.3058  0.3280 -1.8578
24831SOL     OW76499   4.928   2.567   1.608  0.5236  0.5762  0.2500
24831SOL    HW176500   4.866   2.552   1.679  0.1502 -2.3546 -0.5683
24831SOL    HW276501   4.873   2.586   1.532  0.6467 -0.8229 -0.2111
24832SOL     OW76502   2.463   6.341   2.545  0.3216 -0.0197  0.4736
24832SOL    HW176503   2.549   6.372   2.573  0.7848  0.1921 -1.0817
24832SOL    HW276504   2.422   6.418   2.504 -0.9914  0.1264  1.9714
24833SOL     OW76505   3.188   9.844   2.505  1.4687  0.3750 -0.7826
24833SOL    HW176506   3.131   9.906   2.550  0.4530 -0.8006 -0.3739
24833SOL    HW276507   3.136   9.815   2.429  1.6523 -0.4198 -0.6197
24834SOL     OW76508   4.077   3.934  10.585  0.0437  0.1771  0.0964
24834SOL    HW176509   4.014   3.892  10.527 -0.0054  0.2274  0.1143
24834SOL    HW276510   4.053   3.906  10.673 -0.0035  0.2612  0.1099
24835SOL     OW76511   4.852   1.964   1.347 -0.3753 -0.3553 -0.0624
24835SOL    HW176512   4.881   1.878   1.314  0.2469  1.0294 -3.5728
24835SOL    HW276513   4.909   1.980   1.423  3.3512 -0.8791 -2.4610
24836SOL     OW76514   7.288   9.615   3.781  0.7282  0.3637 -0.8003
24836SOL    HW176515   7.353   9.574   3.838 -0.6796 -1.1809 -0.2218
24836SOL    HW276516   7.337   9.642   3.703  1.7293 -2.7570 -1.3661
24837SOL     OW76517   4.753   0.186   3.815  0.0450 -0.6782 -0.2337
24837SOL    HW176518   4.817   0.187   3.886  0.7203 -0.4225 -0.8390
24837SOL    HW276519   4.769   0.267   3.767 -0.0136 -1.1287 -1.0245
24838SOL     OW76520   6.564  10.755   4.214 -0.4333 -0.0707 -0.0485
24838SOL    HW176521   6.572  10.847   4.188 -0.0687  0.3617  1.4643
24838SOL    HW276522   6.472  10.746   4.239 -0.1339  0.3358  1.2867
24839SOL     OW76523   5.652   5.528   7.360  0.2204 -0.5042  0.1702
24839SOL    HW176524   5.569   5.549   7.403 -0.1470 -0.6481 -0.4637
24839SOL    HW276525   5.673   5.440   7.392 -0.6676 -1.1095 -0.8636
24840SOL     OW76526  10.712   1.784   5.166  0.9498 -0.4617 -0.0177
24840SOL    HW176527  10.750   1.864   5.202  1.6302 -1.2483  1.0789
24840SOL    HW276528  10.769   1.714   5.198 -0.5780 -1.5427  0.4255
24841SOL     OW76529   9.028   9.126   1.781 -0.5777 -0.2334 -0.1466
24841SOL    HW176530   8.996   9.051   1.831  0.1516  0.5629  1.6156
24841SOL    HW276531   9.104   9.158   1.831 -0.5329  1.3441 -1.1318
24842SOL     OW76532   2.135  10.024   6.378  0.2611  0.5838 -0.4863
24842SOL    HW176533   2.143  10.055   6.287 -2.3460  2.3079 -0.2334
24842SOL    HW276534   2.181  10.091   6.429 -0.2715  0.8693 -0.3776
24843SOL     OW76535  10.678   3.152   0.691 -0.4641  0.1743  0.1145
24843SOL    HW176536  10.661   3.080   0.751 -2.3458  0.8541  0.4667
24843SOL    HW276537  10.642   3.121   0.607 -0.5877  0.3970  0.0855
24844SOL     OW76538   3.871   3.839   2.840  0.0605 -0.3083 -0.9047
24844SOL    HW176539   3.818   3.759   2.831 -0.4672  0.0292 -0.8423
24844SOL    HW276540   3.952   3.819   2.792 -0.2402 -0.7289 -1.2551
24845SOL     OW76541   6.518   5.524   6.247  0.5852 -0.1954 -0.1844
24845SOL    HW176542   6.585   5.527   6.316  1.6638  2.0080 -1.2088
24845SOL    HW276543   6.568   5.533   6.166 -0.8379 -0.3285 -1.1023
24846SOL     OW76544   1.211   8.081   3.794 -0.2868 -0.0970 -0.0007
24846SOL    HW176545   1.306   8.072   3.798 -0.3934 -0.7743  1.6926
24846SOL    HW276546   1.190   8.142   3.865 -1.0647  0.7206 -0.8983
24847SOL     OW76547  10.510  10.381   5.000  0.2923  0.2966 -1.0366
24847SOL    HW176548  10.475  10.428   5.076 -0.8298  1.3732 -2.1565
24847SOL    HW276549  10.605  10.385   5.011  0.1581 -0.4083  0.7716
24848SOL     OW76550   4.770   9.750   3.344  0.5586  0.6976 -0.1926
24848SOL    HW176551   4.746   9.774   3.255  1.1870  0.1539 -0.5217
24848SOL    HW276552   4.828   9.820   3.373 -0.4239  1.3860  0.1631
24849SOL     OW76553   6.581  10.579   2.214  0.1667  0.0547  0.2824
24849SOL    HW176554   6.674  10.577   2.235  0.5473  1.0037 -1.1612
24849SOL    HW276555   6.557  10.486   2.203  0.4996 -0.3080  2.2982
24850SOL     OW76556   8.338   5.218   0.859  0.2939 -0.4070 -0.2897
24850SOL    HW176557   8.386   5.273   0.797  0.4455  0.3182  0.4542
24850SOL    HW276558   8.261   5.269   0.882  0.4903 -0.4458  0.4897
24851SOL     OW76559   0.996   0.447   5.786  0.9535 -0.5450  0.1130
24851SOL    HW176560   0.977   0.354   5.798  1.7521 -0.7146  0.1043
24851SOL    HW276561   0.987   0.461   5.691 -2.0950  0.0689  0.3810
24852SOL     OW76562   2.650   9.313  10.993  0.9632 -0.3917  0.1188
24852SOL    HW176563   2.710   9.325  10.919  0.8847 -1.0679 -0.0579
24852SOL    HW276564   2.601   9.395  10.996  0.7877 -0.4498 -0.7420
24853SOL     OW76565   8.890   4.652   1.461  0.0040 -0.2429  0.2456
24853SOL    HW176566   8.864   4.563   1.440 -1.3509  0.1970 -0.0472
24853SOL    HW276567   8.863   4.665   1.552  0.3446 -0.1712  0.3412
24854SOL     OW76568  10.122   6.062   4.354 -0.0761  0.4786  0.0517
24854SOL    HW176569  10.073   6.113   4.418  0.3905 -0.9234  1.5999
24854SOL    HW276570  10.058   6.001   4.318  0.2767 -0.7062  1.3703
24855SOL     OW76571   1.326   0.404   4.730 -0.0493  0.1492 -0.2020
24855SOL    HW176572   1.252   0.403   4.790  0.2744 -2.4406  0.2531
24855SOL    HW276573   1.299   0.463   4.660 -2.0244  0.2019  0.5384
24856SOL     OW76574  10.788   5.685   9.317 -0.6193 -0.4581 -0.2087
24856SOL    HW176575  10.751   5.722   9.398  0.6076 -0.5787  0.4325
24856SOL    HW276576  10.788   5.590   9.333  2.2604 -0.3681  0.9019
24857SOL     OW76577  10.578   5.839   2.842  0.4097 -0.3753  0.0070
24857SOL    HW176578  10.601   5.905   2.776 -1.6658 -0.9376 -1.3727
24857SOL    HW276579  10.490   5.864   2.871  0.1225 -1.7884  0.4287
24858SOL     OW76580   4.491   2.348   9.849  0.4134  0.0653  0.5604
24858SOL    HW176581   4.581   2.337   9.816  0.4933 -0.5616  0.9601
24858SOL    HW276582   4.472   2.441   9.837 -0.8867 -0.5835 -4.5952
24859SOL     OW76583   0.620   0.321   8.838 -0.0823 -0.3401 -0.5159
24859SOL    HW176584   0.578   0.401   8.807 -2.8072 -1.7155 -0.6359
24859SOL    HW276585   0.553   0.254   8.831  2.2070 -2.7939 -0.8208
24860SOL     OW76586   5.906   0.718   4.402 -0.5221 -0.3222 -0.1185
24860SOL    HW176587   5.901   0.772   4.323 -0.9199 -1.7053 -1.0758
24860SOL    HW276588   5.998   0.721   4.428 -0.6294  1.2300  0.1770
24861SOL     OW76589   6.532   9.832   4.926  0.2488 -0.2203  0.0401
24861SOL    HW176590   6.540   9.749   4.973 -0.0415 -0.2846 -0.0232
24861SOL    HW276591   6.565   9.898   4.987 -1.0525 -0.1733  0.7146
24862SOL     OW76592   0.926   6.078   0.910  0.1758  0.1865 -0.3679
24862SOL    HW176593   0.896   6.001   0.862  0.1819 -1.0358  1.4648
24862SOL    HW276594   0.928   6.148   0.845 -0.5324 -1.1796 -1.9382
24863SOL     OW76595   0.417  10.085   1.589  0.6597  0.1183 -0.1936
24863SOL    HW176596   0.456  10.001   1.566 -0.6998 -0.7576  0.5718
24863SOL    HW276597   0.326  10.065   1.610  0.9148  1.3371  2.5477
24864SOL     OW76598   3.003   8.308   9.688  0.0442  0.1076 -0.2729
24864SOL    HW176599   2.963   8.221   9.686 -0.4010  0.3136 -0.6586
24864SOL    HW276600   3.085   8.299   9.639 -0.4169  0.0999 -1.0634
24865SOL     OW76601   9.699  10.090   2.902 -0.0128  0.1722  0.1515
24865SOL    HW176602   9.737  10.078   2.815 -0.0512  0.6741  0.0606
24865SOL    HW276603   9.630  10.024   2.908 -1.1976  1.2672 -0.8930
24866SOL     OW76604   1.708   3.546   7.028  0.1243  0.0556 -0.3425
24866SOL    HW176605   1.759   3.500   6.961 -0.9660  0.5788 -1.5617
24866SOL    HW276606   1.651   3.479   7.065 -0.7201  0.1844 -1.3839
24867SOL     OW76607   5.149   6.508   3.670  0.5216  0.0205 -0.6015
24867SOL    HW176608   5.156   6.416   3.646  0.5008 -0.4731  1.1748
24867SOL    HW276609   5.065   6.536   3.633  0.4450 -0.6987 -1.0052
24868SOL     OW76610   4.711   1.124   1.738 -0.0806  0.0598  0.0247
24868SOL    HW176611   4.708   1.053   1.675 -1.1877 -0.1132  0.2582
24868SOL    HW276612   4.643   1.103   1.802 -0.3114  1.2376  0.1894
24869SOL     OW76613   0.499   8.990   9.141  0.2418 -0.2728 -0.2683
24869SOL    HW176614   0.469   9.012   9.229 -0.1571  2.1864 -0.9459
24869SOL    HW276615   0.591   9.015   9.140  0.0814  0.3051 -0.7315
24870SOL     OW76616   4.260   0.898   3.597 -0.4177 -0.0763 -0.2958
24870SOL    HW176617   4.261   0.909   3.692  1.3685  0.3198 -0.3181
24870SOL    HW276618   4.200   0.965   3.565  0.7718  1.3685  0.4235
24871SOL     OW76619   4.534   0.690   1.904 -0.2199 -0.0318 -0.0209
24871SOL    HW176620   4.452   0.650   1.875  0.0520 -0.3555 -0.3562
24871SOL    HW276621   4.515   0.722   1.992  0.1449 -2.8021  1.1670
24872SOL     OW76622   9.614   8.472   9.818 -0.0057  0.3254  0.3180
24872SOL    HW176623   9.687   8.533   9.834  1.1839 -0.3547 -2.0086
24872SOL    HW276624   9.543   8.528   9.788  0.3656  0.7850  0.2767
24873SOL     OW76625   7.414   3.056   8.949  0.2253  0.2579  0.3759
24873SOL    HW176626   7.464   3.071   8.869 -0.8700  2.0917 -0.0040
24873SOL    HW276627   7.466   3.099   9.017  0.5898 -0.3364  0.4844
24874SOL     OW76628   8.222  10.915   7.165 -0.4116 -0.5310 -0.1369
24874SOL    HW176629   8.169  10.847   7.124  1.0827 -0.4135 -2.4641
24874SOL    HW276630   8.312  10.891   7.142  0.3038  0.9764  0.9718
24875SOL     OW76631   2.744   4.276   6.599 -0.2051  0.3821  0.5200
24875SOL    HW176632   2.690   4.221   6.542 -1.3362  1.6380  0.3201
24875SOL    HW276633   2.826   4.286   6.552 -0.3781 -0.2627  0.0643
24876SOL     OW76634   1.053   6.923   5.268 -0.4749 -0.1829  0.3122
24876SOL    HW176635   0.985   6.950   5.331 -0.6107 -1.5654  0.7843
24876SOL    HW276636   1.005   6.876   5.200 -0.3680  1.5703 -1.0478
24877SOL     OW76637   7.057   2.944  10.028 -0.0495 -0.6466  0.5345
24877SOL    HW176638   7.047   2.969   9.936 -1.0984 -0.6563  0.6409
24877SOL    HW276639   7.066   3.027  10.075 -2.6915 -0.4283  0.7854
24878SOL     OW76640   2.847   5.526   2.377  0.0763  0.2576 -0.0373
24878SOL    HW176641   2.865   5.543   2.469 -0.3269 -1.5836  0.4233
24878SOL    HW276642   2.865   5.609   2.333 -1.6609  1.8026  1.9560
24879SOL     OW76643   6.884   8.056   5.200  0.2442 -0.3537 -0.4417
24879SOL    HW176644   6.885   8.088   5.110  1.2080  0.8047 -0.0418
24879SOL    HW276645   6.974   8.025   5.216 -0.1504 -1.4029 -0.1614
24880SOL     OW76646   6.749   1.759   8.045 -0.0695  0.0915  0.3796
24880SOL    HW176647   6.739   1.840   8.095 -0.9049  1.2775 -1.5772
24880SOL    HW276648   6.665   1.714   8.055  0.7599 -1.1641  2.3680
24881SOL     OW76649   6.682   3.812   9.194  0.0578  0.2628 -0.2367
24881SOL    HW176650   6.709   3.899   9.165  0.0578 -0.0114 -1.0980
24881SOL    HW276651   6.750   3.753   9.160  0.3890 -0.0086  0.8719
24882SOL     OW76652   1.352   4.250   4.603 -0.6987 -0.5569 -0.0042
24882SOL    HW176653   1.274   4.277   4.554 -1.1358 -2.1649 -0.2508
24882SOL    HW276654   1.319   4.208   4.682 -0.1921 -2.7181 -0.8667
24883SOL     OW76655  10.818   6.537   4.750  0.2250 -0.6690  0.3323
24883SOL    HW176656  10.818   6.633   4.745 -1.4408 -0.5267  1.7212
24883SOL    HW276657  10.872   6.518   4.827 -1.7173 -0.6009  1.7992
24884SOL     OW76658  10.921   4.973   9.957 -0.1962 -0.9132  0.2230
24884SOL    HW176659  10.850   5.034   9.976 -0.3316 -1.0938  0.2992
24884SOL    HW276660  10.996   5.009  10.005 -0.2753 -0.8069  0.2682
24885SOL     OW76661   9.602   5.044   3.324 -0.5605  0.3326  0.2000
24885SOL    HW176662   9.513   5.020   3.350 -0.5128 -1.1401 -0.8909
24885SOL    HW276663   9.607   5.023   3.231  1.0388  0.0706  0.3086
24886SOL     OW76664   7.651   4.907   7.122  0.0518 -0.6678 -0.0112
24886SOL    HW176665   7.711   4.972   7.159 -1.1157  0.1356  0.5124
24886SOL    HW276666   7.587   4.892   7.191 -0.6597 -1.1236 -0.7607
24887SOL     OW76667  10.136   9.332   8.662  0.0896  0.7149 -0.2619
24887SOL    HW176668  10.106   9.264   8.601 -0.8190 -0.9034  1.8496
24887SOL    HW276669  10.063   9.394   8.667 -0.2476  0.3034 -0.0616
24888SOL     OW76670   0.981   2.018   4.761  0.6939 -0.4224  0.1147
24888SOL    HW176671   0.963   2.102   4.719  2.8546  0.2872  0.4753
24888SOL    HW276672   1.073   2.000   4.739  0.6323 -2.0736  1.0861
24889SOL     OW76673   1.100   8.504   1.722  0.2654  0.5473  0.3287
24889SOL    HW176674   1.028   8.489   1.784 -1.0823 -1.1218 -1.4876
24889SOL    HW276675   1.176   8.519   1.777 -1.1556  0.7457  2.3742
24890SOL     OW76676   6.719   7.318   2.194  0.3060 -0.1486  0.1512
24890SOL    HW176677   6.776   7.395   2.195  2.1160 -1.4090 -1.0142
24890SOL    HW276678   6.756   7.261   2.127 -2.1615 -1.1976 -0.4289
24891SOL     OW76679   1.432   4.645   0.733 -0.2310  0.0291 -0.4817
24891SOL    HW176680   1.379   4.616   0.659  0.4197  0.2629 -1.0544
24891SOL    HW276681   1.499   4.577   0.742 -0.3625 -0.0468 -0.0400
24892SOL     OW76682   8.890   1.488   5.211  0.6571  0.1752  0.0189
24892SOL    HW176683   8.840   1.530   5.281  0.5193  1.8689 -1.0434
24892SOL    HW276684   8.827   1.431   5.167  0.0368  1.1106 -0.3402
24893SOL     OW76685   0.970   1.292   7.288  0.0080  0.2052  0.1011
24893SOL    HW176686   0.905   1.337   7.342  0.1387  0.7069 -0.1545
24893SOL    HW276687   0.936   1.297   7.199  0.9675  1.5538 -0.2205
24894SOL     OW76688   8.422   1.394   6.505 -1.0132  0.0327 -0.6324
24894SOL    HW176689   8.332   1.364   6.491 -0.8354 -0.5858 -0.4752
24894SOL    HW276690   8.475   1.315   6.499 -0.7091  0.0185  1.6445
24895SOL     OW76691   5.631   8.036  10.185  0.3695  0.6826 -0.1172
24895SOL    HW176692   5.622   7.961  10.245 -1.2034  0.2039 -0.9133
24895SOL    HW276693   5.725   8.054  10.185  0.6003 -0.3090  1.2716
24896SOL     OW76694   3.372  10.439   5.758  0.2643 -0.0688  0.7660
24896SOL    HW176695   3.282  10.450   5.791  0.1915  1.0310  0.2411
24896SOL    HW276696   3.361  10.417   5.666  0.5386  1.0803  0.4457
24897SOL     OW76697   0.513   1.003  10.026 -0.0586  0.5599  0.0626
24897SOL    HW176698   0.510   1.097  10.009  0.0189  0.2704 -1.6660
24897SOL    HW276699   0.431   0.969   9.990 -0.3836  0.0348  1.2506
24898SOL     OW76700   2.568   5.150   1.379  0.3598 -0.3507 -0.1672
24898SOL    HW176701   2.571   5.210   1.454 -0.3083  1.0382 -1.2019
24898SOL    HW276702   2.508   5.081   1.406 -1.0373  0.9074  0.0654
24899SOL     OW76703   0.288   9.065   1.115 -0.2155  0.2625 -0.1544
24899SOL    HW176704   0.361   9.004   1.105 -0.0138  0.3174  0.8948
24899SOL    HW276705   0.273   9.069   1.209 -1.2021  0.6966 -0.3225
24900SOL     OW76706   6.932   4.729   7.720  1.1210  0.2855 -0.0244
24900SOL    HW176707   6.878   4.682   7.784  2.2738  0.0520  0.8163
24900SOL    HW276708   6.925   4.676   7.640 -1.3890  1.2753 -0.5706
24901SOL     OW76709   0.898   0.950   2.064 -0.6099 -0.4656  0.1276
24901SOL    HW176710   0.840   0.923   1.994 -0.3759 -1.8161  0.4290
24901SOL    HW276711   0.888   0.883   2.131  1.6279 -1.0078 -0.0057
24902SOL     OW76712   0.216   3.761   8.158  0.2156 -0.4006 -0.3144
24902SOL    HW176713   0.229   3.738   8.066 -1.7997  0.3377 -0.8484
24902SOL    HW276714   0.135   3.813   8.158  0.2655 -0.2408  1.8573
24903SOL     OW76715   6.094  10.898   1.162  0.7378 -0.3595 -0.0852
24903SOL    HW176716   6.046  10.820   1.132  0.1417  0.3385 -0.9866
24903SOL    HW276717   6.028  10.951   1.207  0.9476  0.0159 -0.2156
24904SOL     OW76718   4.855   1.505  10.500 -0.0205  0.5466  0.4878
24904SOL    HW176719   4.895   1.435  10.551 -0.1805  0.1149  0.0269
24904SOL    HW276720   4.913   1.516  10.425 -0.2520  0.5841  0.3131
24905SOL     OW76721   9.104   9.759   3.279  0.2503  0.0728 -0.3686
24905SOL    HW176722   9.196   9.744   3.301 -0.4623 -1.3973  1.8851
24905SOL    HW276723   9.088   9.704   3.202  0.6924 -1.5591  0.6588
24906SOL     OW76724   8.022  10.026  10.538 -0.7658 -0.8545 -0.1494
24906SOL    HW176725   8.088  10.021  10.607 -2.6891  1.0416  2.0082
24906SOL    HW276726   8.065   9.990  10.460  3.0926  1.0964  0.8470
24907SOL     OW76727   7.665   7.541   7.550 -0.3472  0.3318 -0.0294
24907SOL    HW176728   7.731   7.499   7.606  0.5570  1.5765 -0.1234
24907SOL    HW276729   7.692   7.519   7.461 -0.2372  0.5722 -0.0567
24908SOL     OW76730   8.426   8.243   4.972 -0.5152  0.3624  0.4032
24908SOL    HW176731   8.484   8.176   4.935 -1.7353 -0.8051  0.5615
24908SOL    HW276732   8.416   8.307   4.901  2.8212  1.9025  1.1183
24909SOL     OW76733   9.899   5.056   7.644 -0.2593 -0.6906  0.1148
24909SOL    HW176734   9.889   5.133   7.588  2.4835  0.1222  0.5534
24909SOL    HW276735   9.827   4.998   7.620 -0.4977  0.5921 -2.5962
24910SOL     OW76736   9.614   4.409   8.753  0.2763 -0.1031  0.0859
24910SOL    HW176737   9.679   4.340   8.767  0.9065  0.1338 -1.4766
24910SOL    HW276738   9.575   4.388   8.668 -2.0359 -0.4749  1.1712
24911SOL     OW76739   4.435   4.977   3.636  0.4763 -0.0288  0.6273
24911SOL    HW176740   4.376   4.941   3.702 -1.6667 -1.2459 -1.7582
24911SOL    HW276741   4.382   5.041   3.589  0.9437 -1.2153 -1.6750
24912SOL     OW76742   1.001   4.648   0.129 -0.0606  0.0912 -0.1763
24912SOL    HW176743   0.933   4.583   0.149  0.6693 -0.6544 -0.0830
24912SOL    HW276744   1.054   4.608   0.061 -1.8008  2.1158 -2.9776
24913SOL     OW76745   7.540   9.894   7.913 -0.0366  0.3245  0.5042
24913SOL    HW176746   7.461   9.843   7.894  1.3308 -1.3569 -1.1056
24913SOL    HW276747   7.515   9.985   7.896 -1.5940 -0.1847 -0.1255
24914SOL     OW76748  10.258  10.316   6.313  0.4025  0.1548  0.1100
24914SOL    HW176749  10.263  10.408   6.340 -1.8353  0.6957 -1.0999
24914SOL    HW276750  10.190  10.279   6.369  0.4266 -0.4466 -0.2609
24915SOL     OW76751   0.205   1.035   1.275 -0.0766  0.1600 -0.7752
24915SOL    HW176752   0.205   0.992   1.361  0.8296  1.5574 -0.0279
24915SOL    HW276753   0.121   1.080   1.271  0.5161  1.3922  0.1013
24916SOL     OW76754  10.669   1.319   7.631  0.3592 -0.5115 -0.3357
24916SOL    HW176755  10.574   1.330   7.631  0.3770 -0.3257 -1.1603
24916SOL    HW276756  10.693   1.319   7.724 -0.3810 -0.0325 -0.1373
24917SOL     OW76757  10.527   8.316   8.001  0.2140  0.5436  0.2014
24917SOL    HW176758  10.482   8.289   7.920 -1.2790 -2.0903  1.7619
24917SOL    HW276759  10.457   8.339   8.061  1.2141  0.9340  1.2537
24918SOL     OW76760   6.898   4.845   7.164 -0.5249  0.5520 -0.7437
24918SOL    HW176761   6.956   4.828   7.090  0.4381 -2.3691  0.5419
24918SOL    HW276762   6.933   4.792   7.235 -1.5159  3.0531  1.8323
24919SOL     OW76763   4.520   7.265   4.682  0.3227  0.5848 -0.0403
24919SOL    HW176764   4.518   7.300   4.771  0.2059  0.6956 -0.0874
24919SOL    HW276765   4.596   7.307   4.641 -0.2376  1.3456 -0.3289
24920SOL     OW76766   1.077   1.805   0.379 -0.0389 -0.5136 -0.6909
24920SOL    HW176767   1.087   1.841   0.467  1.3949  0.1485 -1.0998
24920SOL    HW276768   0.986   1.821   0.357  0.3219  2.1760 -0.5356
24921SOL     OW76769   8.007   2.935   8.132 -0.2853  0.0535  0.0613
24921SOL    HW176770   7.961   2.891   8.061 -0.2815  0.1395  0.0050
24921SOL    HW276771   8.032   2.865   8.192  1.1265 -0.2311 -0.8156
24922SOL     OW76772   1.140  10.171   8.698  0.2133 -0.2365  0.5670
24922SOL    HW176773   1.087  10.246   8.726  0.9805  0.5382 -0.0235
24922SOL    HW276774   1.211  10.168   8.762  0.8771  0.3217 -0.1349
24923SOL     OW76775   9.741   4.205   8.859 -0.2160 -0.4837 -0.9554
24923SOL    HW176776   9.679   4.186   8.929  1.0680  0.7451  0.5890
24923SOL    HW276777   9.809   4.258   8.901  1.1629 -0.6196 -2.8956
24924SOL     OW76778   5.953   5.355   3.057 -0.0183 -0.1734 -0.5098
24924SOL    HW176779   5.975   5.294   2.987  1.4649 -1.2292  0.7874
24924SOL    HW276780   6.028   5.351   3.117 -1.3251  0.4654  1.2758
24925SOL     OW76781  10.517   5.408   9.952  0.0562 -0.1510  0.5702
24925SOL    HW176782  10.549   5.487   9.995 -2.0329  0.5126  1.0448
24925SOL    HW276783  10.442   5.381  10.006 -0.5284 -1.2725 -0.7541
24926SOL     OW76784   5.447   3.141   8.667 -0.3950 -0.5104 -0.0744
24926SOL    HW176785   5.530   3.180   8.642 -0.3022  0.5355  1.7456
24926SOL    HW276786   5.388   3.216   8.678 -0.7282 -0.9866  1.6122
24927SOL     OW76787   1.944   8.976   1.393  0.3836 -0.3006  0.3047
24927SOL    HW176788   1.858   8.977   1.352  0.1787  0.4524  0.7479
24927SOL    HW276789   1.958   8.884   1.417 -1.7558 -0.0231  3.2451
24928SOL     OW76790   3.514   5.742   9.331 -0.2492  0.1617  0.1262
24928SOL    HW176791   3.478   5.743   9.420  0.8212  0.4349  0.5768
24928SOL    HW276792   3.448   5.785   9.277 -1.3437 -0.8601  0.6063
24929SOL     OW76793  10.441   5.382   4.754  0.2728  0.2302 -0.1355
24929SOL    HW176794  10.531   5.392   4.783  1.0112 -1.5141 -1.6668
24929SOL    HW276795  10.448   5.359   4.662 -1.7350 -0.3409 -0.1823
24930SOL     OW76796   2.963   8.915   8.205  0.3399  0.3385  0.5347
24930SOL    HW176797   3.019   8.851   8.248 -0.6266 -0.4539  0.6545
24930SOL    HW276798   2.978   8.901   8.112  1.4738  1.1831  0.5694
24931SOL     OW76799   7.876   4.497  10.248  0.0531  0.3234  0.1867
24931SOL    HW176800   7.863   4.592  10.256 -0.6303  0.3069 -0.5906
24931SOL    HW276801   7.933   4.487  10.172  1.2844  0.1720  1.1108
24932SOL     OW76802   1.315   7.324   5.012 -0.1401  0.1228 -0.3469
24932SOL    HW176803   1.370   7.336   4.934  1.2829  1.5841  0.8268
24932SOL    HW276804   1.372   7.279   5.074 -0.5680  0.8159  0.5704
24933SOL     OW76805   1.419   3.631   1.410  0.5032  0.0792 -0.1640
24933SOL    HW176806   1.436   3.544   1.447 -0.8636 -0.7822 -1.4592
24933SOL    HW276807   1.466   3.691   1.468  1.1543 -1.4814  0.9956
24934SOL     OW76808   6.643   6.795   7.000  0.1019  0.2864  0.0987
24934SOL    HW176809   6.548   6.799   7.006  0.0051 -0.4568 -0.7361
24934SOL    HW276810   6.665   6.846   6.922  0.1257 -1.7682 -1.3355
24935SOL     OW76811   5.816   1.152   1.588 -0.2692  0.5397  0.1713
24935SOL    HW176812   5.881   1.086   1.614 -0.0356  1.2901  1.5801
24935SOL    HW276813   5.739   1.101   1.564 -0.2899 -0.2608  1.7962
24936SOL     OW76814   9.955   1.604   4.364 -0.0979 -0.9369 -0.0999
24936SOL    HW176815  10.007   1.541   4.314 -0.0574  0.1380 -1.4671
24936SOL    HW276816   9.889   1.636   4.302 -1.4374 -1.1389  1.1610
24937SOL     OW76817   3.400   8.935   6.427  0.1552  0.6877 -0.3968
24937SOL    HW176818   3.415   8.988   6.348  2.3332  0.8723  0.1012
24937SOL    HW276819   3.474   8.953   6.484  0.1231 -1.6384  0.5150
24938SOL     OW76820  10.365   4.285   3.952 -0.0600 -0.4971  0.0568
24938SOL    HW176821  10.431   4.252   3.891 -0.7056  1.7849 -2.0496
24938SOL    HW276822  10.293   4.223   3.944  1.0582 -2.0011  1.0027
24939SOL     OW76823   3.922   2.865   7.909  0.1653 -0.1346 -0.0291
24939SOL    HW176824   3.887   2.830   7.991 -2.0785 -2.4987 -1.8511
24939SOL    HW276825   3.924   2.790   7.850  1.0934  1.6211 -2.3696
24940SOL     OW76826   5.357   7.156   5.938  0.3182  0.2501  0.1449
24940SOL    HW176827   5.356   7.250   5.954  0.6207  1.0231 -3.6752
24940SOL    HW276828   5.286   7.141   5.875  0.4212 -2.0788  0.4788
24941SOL     OW76829   9.401  11.037   5.367  0.4054 -0.1383  0.7607
24941SOL    HW176830   9.487  11.001   5.389  0.1657 -1.2268  0.0570
24941SOL    HW276831   9.417  11.129   5.348  1.2139 -0.0573  1.7785
24942SOL     OW76832   1.947   6.915  10.786 -0.1963 -0.4369  0.2381
24942SOL    HW176833   2.025   6.859  10.780 -0.1502 -0.5099  1.3178
24942SOL    HW276834   1.947   6.946  10.877 -1.4092 -0.4093  0.2405
24943SOL     OW76835   4.648   5.894   9.625  0.5240 -0.1611  0.0966
24943SOL    HW176836   4.566   5.942   9.611  0.3787 -0.6159 -0.6416
24943SOL    HW276837   4.654   5.885   9.720  0.6060  1.4063  0.2784
24944SOL     OW76838   4.822   0.972   3.649  0.5565  0.0394 -0.8551
24944SOL    HW176839   4.828   0.908   3.720  1.9552  1.7381  0.6618
24944SOL    HW276840   4.811   0.920   3.570 -0.0172 -1.9704  0.4789
24945SOL     OW76841   6.697   0.257   2.518 -0.1690  0.5497  0.7447
24945SOL    HW176842   6.603   0.255   2.498 -0.0752  0.3308  0.3338
24945SOL    HW276843   6.739   0.211   2.446  0.4226  2.1944 -0.0049
24946SOL     OW76844   9.235  10.108   6.848 -0.3917 -1.0496 -0.0425
24946SOL    HW176845   9.150  10.064   6.845 -0.2595 -1.5632  1.9384
24946SOL    HW276846   9.228  10.167   6.923  0.2747  0.5591 -1.2040
24947SOL     OW76847   0.447   6.138   2.603 -0.1149 -0.0633 -0.2467
24947SOL    HW176848   0.463   6.049   2.633  2.7485  0.2526 -0.5923
24947SOL    HW276849   0.411   6.129   2.515  0.0447 -0.8640 -0.2320
24948SOL     OW76850   8.337   5.226   8.088  0.0099  0.4808  0.1977
24948SOL    HW176851   8.393   5.154   8.059  0.1144  0.5929  0.1186
24948SOL    HW276852   8.254   5.185   8.110 -0.3799  0.5163 -1.1587
24949SOL     OW76853   7.212   9.936   5.259  0.1306  0.0358  0.5489
24949SOL    HW176854   7.179   9.888   5.335  0.2660  0.8741  1.1540
24949SOL    HW276855   7.304   9.954   5.281 -0.3374  1.9966  1.1029
24950SOL     OW76856   5.065   6.650   9.115 -0.2099  0.4051  0.3978
24950SOL    HW176857   5.059   6.682   9.204  0.8976 -0.2749  0.7439
24950SOL    HW276858   5.039   6.558   9.121 -1.4316  0.6873 -0.2317
24951SOL     OW76859   2.651   9.682   9.252 -0.1658 -0.1499  0.1975
24951SOL    HW176860   2.694   9.701   9.336 -0.4909  0.4380  0.2413
24951SOL    HW276861   2.570   9.733   9.256  0.2376  0.6084 -0.8346
24952SOL     OW76862   0.262   8.618   0.227 -0.4181 -0.5118  0.4187
24952SOL    HW176863   0.188   8.661   0.183 -1.8934 -1.0564  2.2144
24952SOL    HW276864   0.335   8.678   0.216 -1.0066 -0.1169 -1.7466
24953SOL     OW76865   1.396   9.425   1.872  0.2373  0.4606 -0.2077
24953SOL    HW176866   1.380   9.504   1.821 -0.8159  0.1382 -0.4034
24953SOL    HW276867   1.309   9.394   1.896  0.6965  1.0925  2.6083
24954SOL     OW76868   7.083   8.466   7.024 -0.5019  0.0352  0.2377
24954SOL    HW176869   7.033   8.402   6.972 -0.9640  1.1458 -0.7277
24954SOL    HW276870   7.021   8.537   7.040  0.0005  0.2490  1.3075
24955SOL     OW76871   4.579   3.532   5.277  0.0186 -0.2069  0.1141
24955SOL    HW176872   4.502   3.564   5.229 -0.0091  0.2319  0.4491
24955SOL    HW276873   4.578   3.437   5.262  0.4876  0.0146 -1.4455
24956SOL     OW76874   7.327  10.683   5.475  0.0495  0.1268  0.2689
24956SOL    HW176875   7.331  10.588   5.467  0.1849  0.2684 -1.9941
24956SOL    HW276876   7.402  10.706   5.529  0.3261 -1.0028  0.3814
24957SOL     OW76877   5.284   3.137   9.071 -0.1863 -0.5599 -0.8055
24957SOL    HW176878   5.286   3.041   9.073 -1.5471 -0.5932 -0.3389
24957SOL    HW276879   5.295   3.163   9.162 -0.2441 -0.2801 -0.8780
24958SOL     OW76880   6.269   1.257   6.370  0.3767  0.1730  0.5150
24958SOL    HW176881   6.255   1.162   6.376  0.7448 -0.0019 -0.8953
24958SOL    HW276882   6.361   1.265   6.345  0.5043  0.9359  1.2229
24959SOL     OW76883   8.956   7.261   5.574 -0.2074 -0.6616  0.3451
24959SOL    HW176884   8.868   7.250   5.609 -0.0210  0.1135  1.1010
24959SOL    HW276885   9.000   7.317   5.638  0.7558 -0.8289 -0.1530
24960SOL     OW76886   3.661   0.981   3.179 -0.1333  0.0423  0.3694
24960SOL    HW176887   3.733   0.920   3.166 -0.2788 -0.0567  0.0194
24960SOL    HW276888   3.672   1.047   3.110 -2.2804 -1.7671 -1.8756
24961SOL     OW76889  10.773  10.501  10.527  0.6615 -0.0031 -0.2398
24961SOL    HW176890  10.818  10.585  10.518  0.2328  0.1007 -1.5095
24961SOL    HW276891  10.684  10.518  10.495  1.3036 -1.5625 -3.1713
24962SOL     OW76892   4.451  10.324   0.158  0.6209  0.0226 -0.0108
24962SOL    HW176893   4.503  10.400   0.184  0.3246  0.1211  0.2964
24962SOL    HW276894   4.378  10.322   0.220 -0.9720  1.1833 -1.7231
24963SOL     OW76895   1.364   7.058   0.086 -0.1506  0.1764  0.7250
24963SOL    HW176896   1.347   7.144   0.124 -1.9203  0.1720  0.0286
24963SOL    HW276897   1.279   7.029   0.054  1.0980  0.0026 -2.8613
24964SOL     OW76898   1.746   3.157  10.157  0.7666  0.1181  0.1491
24964SOL    HW176899   1.715   3.245  10.177  1.6971  0.5329 -0.1400
24964SOL    HW276900   1.680   3.099  10.194  1.5654  0.8638  2.9975
24965SOL     OW76901   9.709   0.336   5.301  0.5089 -0.3447 -0.2100
24965SOL    HW176902   9.741   0.426   5.299  0.9594 -0.2846  3.3388
24965SOL    HW276903   9.746   0.295   5.223  1.1601  2.2502 -1.3491
24966SOL     OW76904   5.203   0.679   6.112 -0.6461 -0.1122 -0.0586
24966SOL    HW176905   5.283   0.669   6.164 -1.2405  0.2409  0.9594
24966SOL    HW276906   5.169   0.590   6.102  0.5066 -0.4246 -1.5772
24967SOL     OW76907   4.608   1.854   9.167  0.1947 -0.2170  0.4884
24967SOL    HW176908   4.687   1.827   9.214  0.6730 -0.3763 -0.3851
24967SOL    HW276909   4.565   1.771   9.146  0.0564 -0.1501  0.5097
24968SOL     OW76910   1.063   4.063   4.534 -0.1914  0.0213 -0.2231
24968SOL    HW176911   1.118   4.105   4.600  0.4207 -0.4532 -0.4159
24968SOL    HW276912   1.125   4.017   4.477 -0.7987 -0.6195 -0.3845
24969SOL     OW76913   3.497   9.503   4.066 -0.1835  0.1768 -0.0719
24969SOL    HW176914   3.458   9.480   4.150  1.6316  0.4011  0.9016
24969SOL    HW276915   3.423   9.511   4.006 -1.4370 -1.1707  1.2091
24970SOL     OW76916   1.575   3.314   8.599  0.1481 -0.2541 -0.0423
24970SOL    HW176917   1.622   3.342   8.678  0.7455  0.5872 -0.6754
24970SOL    HW276918   1.487   3.294   8.629  0.7229 -1.2613  1.0681
24971SOL     OW76919   4.399   0.777   5.340  0.1143  0.2960 -0.2830
24971SOL    HW176920   4.410   0.869   5.361  0.0808 -0.1305  1.7822
24971SOL    HW276921   4.454   0.730   5.403 -0.2829 -1.1297 -0.9341
24972SOL     OW76922   6.568   9.146   0.480  0.1524  0.3174  0.1420
24972SOL    HW176923   6.631   9.081   0.449  0.5812 -0.2888  2.1791
24972SOL    HW276924   6.523   9.104   0.553 -1.3005  1.4365 -0.0562
24973SOL     OW76925   1.423   1.556   4.538  0.1707  0.4507 -0.0023
24973SOL    HW176926   1.407   1.564   4.632 -2.2371  0.3325 -0.3348
24973SOL    HW276927   1.437   1.462   4.525 -0.2169  0.3630  0.1709
24974SOL     OW76928   3.477   6.338   1.159  0.1700 -0.4758 -0.1074
24974SOL    HW176929   3.413   6.273   1.189 -0.6289  0.3484  0.0049
24974SOL    HW276930   3.443   6.422   1.190  0.7895  0.0928 -0.9232
24975SOL     OW76931   3.191   9.095   8.819  0.2032  0.3595  0.5030
24975SOL    HW176932   3.275   9.061   8.848 -0.1502  0.1635  1.3437
24975SOL    HW276933   3.151   9.131   8.899 -0.2920  0.9117  0.0215
24976SOL     OW76934   9.694   9.562   8.477  0.4307 -0.4743 -0.1310
24976SOL    HW176935   9.612   9.604   8.503  0.4140 -1.5859  1.8461
24976SOL    HW276936   9.754   9.582   8.549  2.2479  1.1097 -1.9605
24977SOL     OW76937   2.828   3.414   7.921  0.4040  0.5939  0.1774
24977SOL    HW176938   2.907   3.412   7.976  0.1857  0.6548  0.4999
24977SOL    HW276939   2.846   3.353   7.850  1.0787  1.2383 -0.2205
24978SOL     OW76940   1.065   8.795   7.625  0.3010  0.3274 -0.0704
24978SOL    HW176941   0.995   8.853   7.598  0.3223  0.9848  1.2099
24978SOL    HW276942   1.145   8.834   7.588  0.3028  1.0696  0.6982
24979SOL     OW76943   7.258   0.157   8.596 -0.1245 -0.6830  0.1407
24979SOL    HW176944   7.334   0.171   8.540 -0.7319 -0.4609 -0.6474
24979SOL    HW276945   7.193   0.116   8.539 -0.9305  0.0048  0.5367
24980SOL     OW76946   8.902   3.234   5.467 -0.0637 -0.4500 -0.1503
24980SOL    HW176947   8.933   3.232   5.558 -0.7108  1.8610  0.1736
24980SOL    HW276948   8.983   3.242   5.415  0.2193  0.1770  0.3627
24981SOL     OW76949   5.046   0.155   6.055  0.0517 -0.3514 -0.1285
24981SOL    HW176950   5.037   0.077   5.999 -2.6158 -0.0247 -0.2898
24981SOL    HW276951   5.085   0.122   6.136 -1.3424 -1.9788 -0.0574
24982SOL     OW76952   6.969   3.071   5.111 -0.2081 -0.3179 -0.1817
24982SOL    HW176953   6.938   2.995   5.161  1.8051 -0.2516  1.2821
24982SOL    HW276954   7.031   3.034   5.048 -1.0152 -0.1303 -1.1031
24983SOL     OW76955  10.014   7.839   2.557 -0.4638 -0.5787  0.2687
24983SOL    HW176956  10.067   7.860   2.634 -1.2357  1.2311  0.3442
24983SOL    HW276957  10.068   7.867   2.482 -0.0589 -1.5912  0.1558
24984SOL     OW76958   1.524   8.990   8.671  0.4242  0.1936 -0.2274
24984SOL    HW176959   1.488   8.901   8.664  2.8431 -0.8216 -1.0392
24984SOL    HW276960   1.457   9.046   8.633 -1.3874 -1.2005  0.7563
24985SOL     OW76961   5.856   6.822   7.870 -0.2541 -0.0332  0.0510
24985SOL    HW176962   5.923   6.817   7.803  0.7554  2.2138  0.8000
24985SOL    HW276963   5.896   6.780   7.947 -0.7639 -1.0626 -0.2184
24986SOL     OW76964   2.355   0.074   7.230 -0.5121  0.0477 -0.0036
24986SOL    HW176965   2.420   0.075   7.160 -1.0069  1.2468 -0.4653
24986SOL    HW276966   2.397   0.121   7.302 -0.1784 -0.7934  0.3736
24987SOL     OW76967   9.345   0.759   9.680 -0.1941  0.3603 -0.2855
24987SOL    HW176968   9.293   0.834   9.652 -1.2784 -0.7236 -1.3418
24987SOL    HW276969   9.435   0.782   9.655 -0.4572  1.4142 -0.3192
24988SOL     OW76970   2.568   6.756   6.858  0.5310 -0.6029  0.0074
24988SOL    HW176971   2.598   6.846   6.872  2.2229 -1.2593  0.9590
24988SOL    HW276972   2.642   6.701   6.884 -0.2380 -2.2795 -1.1033
24989SOL     OW76973   4.376   6.133   0.018  0.0259  0.2493  0.2020
24989SOL    HW176974   4.377   6.061  -0.045 -0.1756  1.3989 -1.1549
24989SOL    HW276975   4.286   6.165   0.017  0.7152  2.3875 -1.4710
24990SOL     OW76976   1.889   0.268   5.341 -0.4026 -0.3574  0.1753
24990SOL    HW176977   1.850   0.330   5.280  2.2217  0.4685 -0.7830
24990SOL    HW276978   1.839   0.281   5.422 -0.4665  2.4802 -0.2099
24991SOL     OW76979   3.652  10.002   6.358 -0.2083  0.4343  0.0471
24991SOL    HW176980   3.686   9.914   6.368 -1.2753 -0.1096 -0.8327
24991SOL    HW276981   3.622  10.005   6.267 -2.6962  0.7775  0.8183
24992SOL     OW76982   1.782   0.004   5.262  0.1838  0.1281 -0.3352
24992SOL    HW176983   1.832  -0.015   5.182  0.2096  0.0031 -0.2908
24992SOL    HW276984   1.823   0.082   5.299 -1.0025  1.3312 -1.4358
24993SOL     OW76985   5.278   5.912   0.268 -0.0191  0.1395 -0.4093
24993SOL    HW176986   5.312   5.882   0.183 -1.0290 -0.7373 -0.5271
24993SOL    HW276987   5.259   5.831   0.315 -1.8038  0.5929 -0.3120
24994SOL     OW76988   5.376   3.218   4.820  0.1835  0.1228  0.2598
24994SOL    HW176989   5.342   3.291   4.871 -0.2798  2.0672 -2.5713
24994SOL    HW276990   5.297   3.170   4.794  0.1884  0.4932 -0.4675
24995SOL     OW76991   1.396   5.019   0.324 -0.0384 -0.1332  0.3150
24995SOL    HW176992   1.320   5.025   0.382 -1.1410 -1.7960 -0.8524
24995SOL    HW276993   1.399   5.104   0.280  0.6519  1.0443  2.5127
24996SOL     OW76994  10.386   2.514   6.066  0.1710  1.0515  0.3244
24996SOL    HW176995  10.309   2.558   6.102 -0.3809  0.9250 -0.6746
24996SOL    HW276996  10.387   2.540   5.974  0.0361 -0.7271 -0.2163
24997SOL     OW76997   3.165   4.521   7.956  0.0571 -0.8556 -0.5391
24997SOL    HW176998   3.107   4.580   7.908  0.8021  0.0057 -0.4037
24997SOL    HW276999   3.244   4.517   7.903  0.7941 -0.0946  0.4631
24998SOL     OW77000  10.746   1.657   1.628  0.1159  0.5397  0.2354
24998SOL    HW177001  10.708   1.716   1.564 -0.7362 -0.8561 -0.6083
24998SOL    HW277002  10.837   1.686   1.638 -0.0797  1.5102 -0.7045
24999SOL     OW77003  10.410   6.172   8.106 -0.1492 -0.1888  0.4224
24999SOL    HW177004  10.483   6.161   8.045 -0.8044  0.0004 -0.4163
24999SOL    HW277005  10.446   6.150   8.191  1.0728  0.5436  0.1197
25000SOL     OW77006   5.010   1.453   4.948  0.2460 -0.1385 -0.4324
25000SOL    HW177007   5.005   1.546   4.969 -1.0158 -0.6446  1.8849
25000SOL    HW277008   5.083   1.445   4.886 -0.6529  2.5656 -2.0043
25001SOL     OW77009   2.795   1.461   2.808  0.0866 -0.0573 -0.0467
25001SOL    HW177010   2.760   1.423   2.889  1.9912 -0.1291  0.8142
25001SOL    HW277011   2.814   1.386   2.753 -2.0228  0.0296 -0.9740
25002SOL     OW77012   1.984  10.765   9.148 -0.3052  0.1415 -0.5915
25002SOL    HW177013   2.021  10.709   9.217 -0.8113  0.2731 -0.2053
25002SOL    HW277014   2.007  10.721   9.067 -0.1226 -0.2822 -0.3159
25003SOL     OW77015   9.476   7.604   7.044  0.1856  0.1493 -0.1774
25003SOL    HW177016   9.504   7.694   7.028 -0.8610  0.2533 -1.5973
25003SOL    HW277017   9.479   7.562   6.958  1.3699 -1.4082  0.5737
25004SOL     OW77018   9.289   9.205   7.566  0.0403 -0.2600  0.3890
25004SOL    HW177019   9.215   9.251   7.526  0.4688  0.1557  0.0731
25004SOL    HW277020   9.298   9.124   7.516 -1.4082 -1.2420  1.6243
25005SOL     OW77021   0.896   7.349   3.350 -0.2618 -0.0444  0.0648
25005SOL    HW177022   0.973   7.397   3.378 -0.2151 -0.2250  0.2473
25005SOL    HW277023   0.897   7.355   3.254  0.5222 -0.8766  0.0060
25006SOL     OW77024   1.777   4.069   8.964  0.0843 -0.2698 -0.6806
25006SOL    HW177025   1.711   4.089   9.030  2.5505 -3.9962  3.4935
25006SOL    HW277026   1.737   4.000   8.911 -0.8825  0.6749 -1.2223
25007SOL     OW77027   1.873   1.733   9.539 -0.3904 -0.0230 -0.3928
25007SOL    HW177028   1.885   1.665   9.473 -1.1363 -0.5625  0.0188
25007SOL    HW277029   1.896   1.691   9.621  1.6004  0.9490 -0.3862
25008SOL     OW77030   0.557   9.560  10.275 -0.2563  0.0331 -0.0052
25008SOL    HW177031   0.514   9.637  10.311 -1.9519 -1.4454  1.3383
25008SOL    HW277032   0.493   9.490  10.284  1.5259 -1.7444 -0.3248
25009SOL     OW77033   4.017   7.179   4.168 -0.2009 -0.1128  0.2053
25009SOL    HW177034   4.043   7.150   4.255 -1.1092  1.0986  0.9264
25009SOL    HW277035   3.923   7.199   4.177 -0.5597 -0.9528 -1.3324
25010SOL     OW77036   1.032   6.837   6.639 -0.1985  1.0355  0.3834
25010SOL    HW177037   1.040   6.884   6.722 -1.0257  0.9401  0.5199
25010SOL    HW277038   0.941   6.851   6.612 -0.6451 -0.9627  0.7220
25011SOL     OW77039   4.346   0.720   2.340  0.2073 -0.3493  0.3082
25011SOL    HW177040   4.394   0.712   2.422  0.5085 -0.2770  0.1419
25011SOL    HW277041   4.340   0.631   2.306  0.4569 -0.3275  0.2011
25012SOL     OW77042   6.689   5.306   3.700 -0.1288  1.0815  0.3109
25012SOL    HW177043   6.610   5.273   3.656  0.2779  0.0372  0.3262
25012SOL    HW277044   6.656   5.358   3.773 -0.8080  1.2700 -0.1181
25013SOL     OW77045   3.538   3.620   7.511  0.1820 -0.0060 -0.4078
25013SOL    HW177046   3.554   3.708   7.479  0.9618 -0.1650 -0.4759
25013SOL    HW277047   3.619   3.572   7.492 -0.4758 -0.9191 -0.9982
25014SOL     OW77048   2.191  10.863   8.944 -0.0428 -0.1460  0.0781
25014SOL    HW177049   2.190  10.770   8.920 -2.0681 -0.0027 -0.5599
25014SOL    HW277050   2.147  10.867   9.028 -2.5051  0.4552 -1.1361
25015SOL     OW77051   8.994  10.440   2.107 -0.0534 -0.3224 -0.1843
25015SOL    HW177052   9.052  10.503   2.065  1.3183 -0.5961  1.1943
25015SOL    HW277053   8.935  10.411   2.037  1.5692 -0.1485 -1.6963
25016SOL     OW77054   3.399   3.824   7.056  0.3982  0.3369 -0.1819
25016SOL    HW177055   3.407   3.896   7.118 -1.6893 -0.8365  1.5504
25016SOL    HW277056   3.364   3.865   6.976  0.1814  1.3996  0.4412
25017SOL     OW77057   4.514   8.654   7.647 -0.7442 -0.2983 -0.5259
25017SOL    HW177058   4.569   8.704   7.587 -0.9320  0.0155 -0.4386
25017SOL    HW277059   4.534   8.689   7.733  0.5765 -1.7052 -0.2143
25018SOL     OW77060   1.499  10.060   6.437 -0.0220 -0.7489 -0.1881
25018SOL    HW177061   1.442   9.983   6.431 -0.8410 -0.2665  0.9216
25018SOL    HW277062   1.544  10.049   6.521  0.5573 -0.4657 -0.4562
25019SOL     OW77063   0.296   3.515   5.920 -0.0399  0.5314 -0.3205
25019SOL    HW177064   0.359   3.586   5.930  0.3860  0.0176  0.9688
25019SOL    HW277065   0.246   3.516   6.002  1.0766 -1.6540  0.4571
25020SOL     OW77066   6.109   8.520   1.718 -0.3447 -0.0031  0.3912
25020SOL    HW177067   6.142   8.442   1.763  0.7303  0.2291  0.0460
25020SOL    HW277068   6.019   8.530   1.750  0.3370  0.1265  2.4538
25021SOL     OW77069   4.272   9.880   7.661 -0.0836  0.1767 -0.3761
25021SOL    HW177070   4.337   9.936   7.704  0.9207  1.7517 -3.6159
25021SOL    HW277071   4.195   9.936   7.651 -1.1640 -0.9213  1.3027
25022SOL     OW77072   6.062   0.659   1.142 -0.1605  0.0094  0.3759
25022SOL    HW177073   6.141   0.672   1.194 -0.4369  2.1793  0.3411
25022SOL    HW277074   6.093   0.619   1.060  1.1581  2.1436 -0.2513
25023SOL     OW77075  10.020   7.701   1.317  0.2512  0.1869 -0.1902
25023SOL    HW177076  10.075   7.654   1.255 -0.2796  0.5882 -0.9838
25023SOL    HW277077  10.033   7.793   1.295 -1.2548  0.2621 -0.8570
25024SOL     OW77078   2.622  10.581   6.538  0.2287  0.3676 -0.1708
25024SOL    HW177079   2.634  10.676   6.536  1.3535  0.3796  2.4788
25024SOL    HW277080   2.585  10.564   6.625  0.2015 -1.6202 -0.5348
25025SOL     OW77081  10.158   4.771   5.787 -0.9824 -0.5641 -0.6409
25025SOL    HW177082  10.176   4.710   5.715 -1.9747 -2.0552  0.3214
25025SOL    HW277083  10.066   4.795   5.775 -0.8169  0.1475 -0.5508
25026SOL     OW77084   2.316   3.128   6.349  0.0804 -0.0954  0.0188
25026SOL    HW177085   2.305   3.115   6.255 -0.2634  1.5467 -0.2071
25026SOL    HW277086   2.335   3.222   6.358 -3.9296  0.7317  1.8787
25027SOL     OW77087  10.667   0.864   2.422  0.1058  0.2570 -0.6306
25027SOL    HW177088  10.572   0.875   2.418  0.3505  2.5090 -1.4256
25027SOL    HW277089  10.682   0.777   2.386 -1.6810 -0.5042  0.3057
25028SOL     OW77090   0.348   5.782   4.447  0.0745 -0.2766 -0.3459
25028SOL    HW177091   0.264   5.783   4.400  0.8680 -1.9847 -1.9543
25028SOL    HW277092   0.373   5.874   4.455 -2.6441  0.4225  1.6103
25029SOL     OW77093   0.343   4.028   5.373  0.0616 -0.4223  0.2311
25029SOL    HW177094   0.297   4.111   5.361 -0.1942 -0.4336  1.0784
25029SOL    HW277095   0.344   4.014   5.468  3.0427  0.2660  0.3901
25030SOL     OW77096   4.930   0.964   1.449  0.3003  0.3919 -0.3236
25030SOL    HW177097   4.913   0.870   1.456  1.0116  0.3702  1.9537
25030SOL    HW277098   4.844   1.005   1.453 -0.1747 -0.1325 -2.9495
25031SOL     OW77099   0.652   4.524   5.360  0.1562 -0.7256  0.2433
25031SOL    HW177100   0.584   4.525   5.292 -0.6709  3.5898  0.8657
25031SOL    HW277101   0.604   4.506   5.441  0.4018 -1.3096  0.2656
25032SOL     OW77102   7.684   9.140   7.600 -0.3101 -0.0201 -0.5056
25032SOL    HW177103   7.691   9.048   7.627 -0.8072  0.4627  1.4039
25032SOL    HW277104   7.593   9.164   7.618  0.2458  1.3169  0.7022
25033SOL     OW77105   7.017   3.802  10.849  0.4716 -0.0701 -0.0555
25033SOL    HW177106   6.928   3.768  10.860  0.2487  0.8903  1.4452
25033SOL    HW277107   7.008   3.897  10.859  1.9066 -0.0979  2.1759
25034SOL     OW77108  10.325   5.782   9.330  0.0113  0.3752  0.5459
25034SOL    HW177109  10.285   5.736   9.256  0.2895  0.8175  0.1089
25034SOL    HW277110  10.419   5.785   9.308 -0.1680  2.5102 -0.2266
25035SOL     OW77111   3.860   5.727   3.408 -0.0812  0.4065  0.1918
25035SOL    HW177112   3.891   5.676   3.483  0.0444  0.7940  0.4055
25035SOL    HW277113   3.885   5.674   3.332 -0.5786 -0.1840  0.4321
25036SOL     OW77114  10.192   3.969   6.536 -0.1134 -0.2337  0.3808
25036SOL    HW177115  10.210   4.032   6.466 -1.2908  3.1667  2.8935
25036SOL    HW277116  10.270   3.914   6.539  0.9746  1.0236 -2.0189
25037SOL     OW77117   9.967   6.111   6.861 -0.4871 -0.2994 -0.3060
25037SOL    HW177118  10.015   6.036   6.898 -1.2358  0.4670  2.4595
25037SOL    HW277119   9.880   6.077   6.840 -0.4951 -0.4313 -0.0550
25038SOL     OW77120   3.679   0.394   0.500 -0.0506  0.0593  0.4842
25038SOL    HW177121   3.724   0.461   0.448  0.3073  0.5850  1.4391
25038SOL    HW277122   3.619   0.352   0.439  1.0904 -0.0422 -0.5922
25039SOL     OW77123   1.333  10.760   3.733  0.0088  0.3442 -0.2438
25039SOL    HW177124   1.261  10.774   3.672 -0.1557  0.9510  0.0747
25039SOL    HW277125   1.333  10.838   3.789  0.2878 -0.0947  0.3938
25040SOL     OW77126   1.224   0.518  10.271  0.1070  0.3011  0.5842
25040SOL    HW177127   1.132   0.543  10.267 -0.0669 -0.4145 -0.1518
25040SOL    HW277128   1.268   0.595  10.307 -0.8104  0.5542  1.1875
25041SOL     OW77129   0.986   6.641   0.223 -0.6936 -0.3069  0.2946
25041SOL    HW177130   0.980   6.568   0.162 -1.4747 -0.0679  0.0733
25041SOL    HW277131   0.899   6.681   0.221 -0.3288  0.5191  0.5510
25042SOL     OW77132   3.555   5.050   9.633 -0.0096 -0.4934  0.6083
25042SOL    HW177133   3.582   4.985   9.698 -3.9490 -0.9788  2.0016
25042SOL    HW277134   3.482   5.010   9.588 -1.3469  2.2142  0.1786
25043SOL     OW77135  10.019   7.590   0.225 -0.1922  0.0529 -0.3515
25043SOL    HW177136   9.947   7.616   0.168 -0.4105 -0.0786 -0.1365
25043SOL    HW277137   9.981   7.526   0.285  0.0076  0.2787  0.0205
25044SOL     OW77138   3.846   2.781   3.980 -0.1447  0.0923  0.0671
25044SOL    HW177139   3.879   2.695   4.008  0.4163  0.1952 -0.2691
25044SOL    HW277140   3.796   2.763   3.901  1.8655  0.3492 -1.3194
25045SOL     OW77141   2.644   4.506   4.250  0.1340 -0.0210 -0.3397
25045SOL    HW177142   2.658   4.448   4.176 -1.1994 -1.2152  0.3032
25045SOL    HW277143   2.583   4.572   4.218  2.0503  1.4051 -1.2262
25046SOL     OW77144   4.938   0.030   0.077 -0.1395 -0.4568  0.6904
25046SOL    HW177145   4.910   0.097   0.015  0.6824 -0.4083  0.3543
25046SOL    HW277146   4.947   0.075   0.160  2.9575  0.5177 -0.0424
25047SOL     OW77147  10.873   0.935   3.853 -0.0455  0.0214 -0.5277
25047SOL    HW177148  10.816   0.962   3.781  1.0613  1.7015 -0.8475
25047SOL    HW277149  10.895   1.017   3.897 -0.3105 -0.9124  1.4731
25048SOL     OW77150   1.198   7.821   6.385 -0.2113  0.0979 -0.1666
25048SOL    HW177151   1.119   7.868   6.361 -0.2071  0.3081  0.2240
25048SOL    HW277152   1.250   7.818   6.304 -0.3632  0.4593 -0.2789
25049SOL     OW77153   0.028   4.377   6.118 -0.3204 -0.3353  0.4718
25049SOL    HW177154  -0.018   4.298   6.146 -0.9869 -0.4338 -0.8349
25049SOL    HW277155   0.121   4.360   6.137 -0.4780 -1.3760  0.3285
25050SOL     OW77156   4.089   1.252   8.880  0.0041 -0.2129 -0.0288
25050SOL    HW177157   4.086   1.330   8.936  1.7396  0.4369 -0.7824
25050SOL    HW277158   3.997   1.231   8.864 -0.5630 -0.2384  2.7635
25051SOL     OW77159   1.578   1.138  10.123  0.1186 -0.1944 -0.4332
25051SOL    HW177160   1.660   1.089  10.126  0.2463 -0.0048 -0.7303
25051SOL    HW277161   1.602   1.222  10.084 -0.5125 -0.7778 -2.1867
25052SOL     OW77162   7.755   0.552   0.779 -0.2554 -0.2988  0.3888
25052SOL    HW177163   7.834   0.601   0.803 -0.0769  0.3643 -1.4092
25052SOL    HW277164   7.698   0.562   0.855  1.2908 -0.6334  1.6570
25053SOL     OW77165   5.249   0.887   8.246 -0.3782 -0.2172 -0.3124
25053SOL    HW177166   5.321   0.948   8.264 -0.4173 -0.2123 -0.1758
25053SOL    HW277167   5.263   0.815   8.307 -1.4536  0.5680  0.9036
25054SOL     OW77168   3.076   6.450   0.212 -0.0995  0.3009 -0.8836
25054SOL    HW177169   3.148   6.387   0.217 -1.2619 -0.9337  1.6890
25054SOL    HW277170   3.040   6.438   0.123  1.9149 -0.0622 -1.6979
25055SOL     OW77171   4.979  11.030   9.462 -0.1490  0.4072 -0.5152
25055SOL    HW177172   5.026  11.103   9.503  1.3324 -1.5847  1.6133
25055SOL    HW277173   5.043  10.959   9.460 -1.9978 -1.3336 -0.9424
25056SOL     OW77174   1.632   9.460   4.582 -0.4388  0.0932 -0.8668
25056SOL    HW177175   1.593   9.379   4.550  1.4105 -1.0833 -0.2937
25056SOL    HW277176   1.699   9.482   4.517  0.3719  0.0866 -0.0562
25057SOL     OW77177   8.032   6.099   2.040 -0.1689  0.1914  0.1484
25057SOL    HW177178   8.037   6.161   1.967 -1.0437 -1.1030 -1.0559
25057SOL    HW277179   8.122   6.092   2.071  0.2073  0.8421 -0.7445
25058SOL     OW77180   7.907   1.121   5.658 -0.3975 -0.3017  0.6984
25058SOL    HW177181   7.890   1.065   5.583 -1.9859  0.8553  0.1496
25058SOL    HW277182   7.903   1.062   5.733 -2.3792 -0.9272  0.1691
25059SOL     OW77183   0.444   5.711   1.775 -0.1662  0.2440  0.1688
25059SOL    HW177184   0.485   5.671   1.699 -1.2119  0.4318 -0.5103
25059SOL    HW277185   0.410   5.638   1.826 -2.0056  0.2056 -1.0300
25060SOL     OW77186  10.230   8.130   3.318  0.0900  0.0684 -0.2251
25060SOL    HW177187  10.221   8.150   3.225  0.1731 -1.5955 -0.6290
25060SOL    HW277188  10.156   8.072   3.337  0.5912 -0.3393  0.5178
25061SOL     OW77189   5.517   4.330   5.793 -0.4678  0.1391 -0.0468
25061SOL    HW177190   5.516   4.422   5.766 -0.4597 -0.2845 -1.5986
25061SOL    HW277191   5.450   4.324   5.860 -1.8732  0.9078 -1.3128
25062SOL     OW77192   4.966   7.234   5.375 -0.3393  0.1759  0.4071
25062SOL    HW177193   4.910   7.174   5.425  0.8606 -1.5370 -0.1856
25062SOL    HW277194   4.931   7.229   5.286 -1.8513  2.4545  0.7738
25063SOL     OW77195   0.921   8.806   3.188  0.0859  0.2257  0.2236
25063SOL    HW177196   0.999   8.818   3.135 -0.5417  3.0966 -0.2288
25063SOL    HW277197   0.930   8.870   3.259 -1.3851 -0.0701  0.7098
25064SOL     OW77198   0.596   3.265   2.544  0.6364 -0.1753  0.2748
25064SOL    HW177199   0.551   3.296   2.623 -0.5349  0.1603 -0.5124
25064SOL    HW277200   0.567   3.174   2.535 -0.1954  0.1428 -0.4246
25065SOL     OW77201   4.345  11.038   5.283 -0.1149  0.3366 -0.1467
25065SOL    HW177202   4.402  10.982   5.231 -0.2700 -1.3554  1.3692
25065SOL    HW277203   4.300  10.977   5.342 -0.4870  2.0476  1.4309
25066SOL     OW77204   0.315   6.620   1.971  0.2735  0.0200  0.0551
25066SOL    HW177205   0.371   6.650   2.042  0.2583 -0.6630  0.3639
25066SOL    HW277206   0.227   6.651   1.995  0.1260 -0.8810  0.7523
25067SOL     OW77207   0.057   0.102   7.937  0.5323  0.1248 -0.3379
25067SOL    HW177208   0.132   0.045   7.923  0.3276  0.0381 -1.1165
25067SOL    HW277209   0.081   0.155   8.013  0.0552 -2.1310  1.5121
25068SOL     OW77210  10.807   3.709   4.452 -0.3585 -0.2253 -0.4040
25068SOL    HW177211  10.841   3.724   4.364  1.8753 -2.1639  0.0232
25068SOL    HW277212  10.712   3.712   4.441 -0.1648  1.5360 -2.4546
25069SOL     OW77213   2.857   3.286   1.462 -0.2050 -0.1757  0.7817
25069SOL    HW177214   2.834   3.371   1.426  0.5906 -0.1430  0.3407
25069SOL    HW277215   2.827   3.289   1.553  0.1467  0.7143  0.8750
25070SOL     OW77216   8.154   1.544   1.130 -0.0816 -0.0857  0.3264
25070SOL    HW177217   8.226   1.495   1.090  0.3300  1.0743 -0.3881
25070SOL    HW277218   8.124   1.604   1.061 -1.2252 -0.0006  0.8641
25071SOL     OW77219   9.114   1.513   5.883  0.3259  0.5666  0.4216
25071SOL    HW177220   9.140   1.566   5.958 -1.5441  0.1833  1.4122
25071SOL    HW277221   9.185   1.449   5.873  0.4329  0.3566  2.1471
25072SOL     OW77222   2.977   7.732   0.390  0.6654  0.5297  0.1934
25072SOL    HW177223   2.994   7.643   0.360  0.7048  0.7241 -0.3703
25072SOL    HW277224   2.887   7.728   0.425  1.0674  0.0136  1.2092
25073SOL     OW77225   8.301   7.129   0.892  0.0916 -0.1874 -0.6677
25073SOL    HW177226   8.279   7.046   0.935  1.2440  0.3046  0.9919
25073SOL    HW277227   8.216   7.166   0.865 -0.6800 -0.7037  0.9215
25074SOL     OW77228   5.480   7.617   3.609  0.4409  1.2448  0.0275
25074SOL    HW177229   5.462   7.613   3.703 -0.7030  1.4350 -0.1653
25074SOL    HW277230   5.572   7.591   3.601 -0.1144 -1.3137  0.9780
25075SOL     OW77231   3.492   1.349   8.304  0.0328  0.0781 -0.0596
25075SOL    HW177232   3.564   1.306   8.351 -0.2740  0.4968  0.7949
25075SOL    HW277233   3.419   1.288   8.312 -0.4892  0.8730  1.4071
25076SOL     OW77234   1.728   6.599   8.567  0.0364  0.4484 -0.1092
25076SOL    HW177235   1.704   6.688   8.541  0.0172  0.3139 -0.5612
25076SOL    HW277236   1.785   6.611   8.643  0.6263  0.8726 -0.6149
25077SOL     OW77237   9.470  10.014   2.455 -0.2198 -0.1731  0.3027
25077SOL    HW177238   9.475  10.007   2.359 -0.5782  2.2331  0.0335
25077SOL    HW277239   9.388   9.972   2.478 -0.9830  0.6990 -0.7002
25078SOL     OW77240   7.556  10.476   7.550 -0.1499 -0.2005 -0.1579
25078SOL    HW177241   7.497  10.532   7.600 -1.8547 -1.2682 -0.8846
25078SOL    HW277242   7.619  10.443   7.615 -0.4294  0.8205  0.6657
25079SOL     OW77243   5.295   4.078   2.714  0.1953  0.0028 -0.3266
25079SOL    HW177244   5.308   3.992   2.674  1.3187  0.0013  0.0308
25079SOL    HW277245   5.202   4.097   2.700  0.7063  0.5025 -3.9545
25080SOL     OW77246   3.050   9.802   7.400 -0.6627  0.1339 -0.2102
25080SOL    HW177247   3.050   9.706   7.409 -0.7475  0.0611 -0.9306
25080SOL    HW277248   3.138   9.823   7.368 -0.0391  0.4813  1.6334
25081SOL     OW77249   3.771   3.750   0.486  0.0335  1.1801 -0.1496
25081SOL    HW177250   3.773   3.837   0.447 -2.3062  0.7708 -1.3697
25081SOL    HW277251   3.689   3.747   0.536  0.2168 -0.2155  0.1202
25082SOL     OW77252   9.918   9.923   5.171  0.2502 -0.2558 -0.1447
25082SOL    HW177253   9.839   9.873   5.193  0.0212  0.1617 -0.0029
25082SOL    HW277254   9.963   9.935   5.254 -0.6812  1.4327  0.1739
25083SOL     OW77255   5.424   9.305  10.324  0.0530  0.7876 -0.3252
25083SOL    HW177256   5.361   9.376  10.339 -0.0374  0.6117  0.1423
25083SOL    HW277257   5.422   9.254  10.405 -0.2202 -0.0089 -0.8284
25084SOL     OW77258   9.527   8.100   2.095 -0.3779  0.0928  0.3109
25084SOL    HW177259   9.513   8.131   2.184 -0.7198 -0.7948  0.5869
25084SOL    HW277260   9.574   8.170   2.051 -1.7063  1.2716  0.7025
25085SOL     OW77261   9.144   9.985   4.085 -0.3175 -0.2292  0.2500
25085SOL    HW177262   9.120   9.907   4.135 -2.1268 -0.8897 -1.4891
25085SOL    HW277263   9.240   9.985   4.085 -0.2604 -2.5421  0.1968
25086SOL     OW77264   0.619   2.288   8.171 -0.4894 -0.0014  0.3515
25086SOL    HW177265   0.672   2.208   8.164 -1.2320 -0.3852 -2.0479
25086SOL    HW277266   0.539   2.267   8.123 -0.7890  2.1160 -0.1558
25087SOL     OW77267   2.785   0.772   7.132  0.0151 -0.0175  0.1396
25087SOL    HW177268   2.870   0.815   7.139  0.3897 -0.6558 -0.2813
25087SOL    HW277269   2.725   0.841   7.106  0.3236  0.5211  0.8338
25088SOL     OW77270   5.918   5.985   0.457 -0.0588 -0.2951  0.6437
25088SOL    HW177271   5.866   6.014   0.382  0.0506 -1.9727 -0.1291
25088SOL    HW277272   6.008   6.012   0.437 -0.3447  1.1302  1.1958
25089SOL     OW77273   2.810   0.799  10.057 -0.1280 -0.1734  0.1927
25089SOL    HW177274   2.902   0.798  10.030 -0.3816 -0.4595 -0.6894
25089SOL    HW277275   2.804   0.729  10.122  0.0248 -1.0211 -0.6750
25090SOL     OW77276   3.711   9.047   6.049 -0.9816  0.3300 -0.4607
25090SOL    HW177277   3.758   8.985   6.105 -1.2099  0.4136 -0.1791
25090SOL    HW277278   3.724   9.013   5.960 -0.4416  0.3157 -0.3818
25091SOL     OW77279   4.249   4.481   8.824  0.1005 -0.0201 -0.1170
25091SOL    HW177280   4.247   4.390   8.795  1.3096  0.1082 -0.6655
25091SOL    HW277281   4.209   4.479   8.911  1.9129 -1.4178  0.7548
25092SOL     OW77282   9.060   0.734   0.375 -0.2494 -0.5066 -0.4417
25092SOL    HW177283   8.984   0.708   0.324 -0.0597 -0.2344 -0.8733
25092SOL    HW277284   9.037   0.713   0.466 -1.3858  0.8161 -0.3913
25093SOL     OW77285   0.685   0.651   0.970  0.3313 -0.0945 -0.4346
25093SOL    HW177286   0.727   0.680   1.050  0.2972 -2.1047  0.3772
25093SOL    HW277287   0.741   0.684   0.900 -0.3745  2.8821  0.2698
25094SOL     OW77288   2.140   7.734  10.137  0.2024 -0.1465 -0.1780
25094SOL    HW177289   2.066   7.677  10.116 -0.5269  0.4405  0.7420
25094SOL    HW277290   2.161   7.715  10.229  1.6724 -0.8171 -0.6147
25095SOL     OW77291   0.954   3.827   0.637 -0.1872 -0.1774  0.3633
25095SOL    HW177292   0.904   3.898   0.597 -0.1445 -0.1150  0.4200
25095SOL    HW277293   0.961   3.852   0.729  2.3725  1.2736 -0.1068
25096SOL     OW77294   7.334   6.290  10.650  0.1264 -0.2793 -0.4586
25096SOL    HW177295   7.264   6.245  10.604 -0.2361 -0.0576 -0.1323
25096SOL    HW277296   7.413   6.268  10.601 -0.1883 -0.4213 -0.9102
25097SOL     OW77297  10.767  10.818   7.469  0.6852 -0.6231  0.6020
25097SOL    HW177298  10.786  10.837   7.560 -0.2588  2.1617  0.3114
25097SOL    HW277299  10.688  10.765   7.471  0.8937 -0.9147  1.3848
25098SOL     OW77300   7.127   7.624   0.019 -0.0173  0.5066 -0.3086
25098SOL    HW177301   7.044   7.671   0.025 -0.5686 -0.3985 -0.6431
25098SOL    HW277302   7.102   7.531   0.013  1.0340  0.1747  0.1799
25099SOL     OW77303   8.694   8.355   9.677 -0.1987  0.3415  0.0321
25099SOL    HW177304   8.640   8.295   9.728 -1.4400  1.9446  0.6893
25099SOL    HW277305   8.728   8.417   9.742  1.3549  0.1657 -0.5697
25100SOL     OW77306   3.450   5.602   7.415 -0.0947  0.5590  0.2600
25100SOL    HW177307   3.494   5.583   7.498  1.1026 -1.1322 -0.6822
25100SOL    HW277308   3.397   5.525   7.398  0.4511  0.4325 -0.9906
25101SOL     OW77309   3.886   8.088   1.944 -0.0465  0.3531 -0.2435
25101SOL    HW177310   3.953   8.095   1.875  0.1757  0.2182 -0.0445
25101SOL    HW277311   3.849   8.176   1.951 -2.5072 -0.3235 -2.9336
25102SOL     OW77312   2.873   9.007   9.950  0.9970  0.0843  0.5334
25102SOL    HW177313   2.904   9.090   9.987  0.0557  0.3820  0.6662
25102SOL    HW277314   2.780   9.020   9.937  1.2075 -0.2012 -1.4677
25103SOL     OW77315   5.891   6.217   3.532  0.0423 -0.0399  0.7952
25103SOL    HW177316   5.893   6.310   3.510  0.2059 -0.0662  0.6916
25103SOL    HW277317   5.947   6.175   3.466 -1.6429 -0.4808 -0.3986
25104SOL     OW77318   0.245   3.978   3.763  0.4229 -0.2946  0.5157
25104SOL    HW177319   0.232   3.883   3.762  0.2437 -0.2810 -1.6851
25104SOL    HW277320   0.176   4.010   3.820 -0.1736 -1.4081  0.4580
25105SOL     OW77321   1.279   6.556   7.228  0.1368 -0.4320  0.3163
25105SOL    HW177322   1.310   6.637   7.269 -1.7959 -1.3423  4.1017
25105SOL    HW277323   1.282   6.491   7.298 -0.3868 -3.1255 -1.9818
25106SOL     OW77324   8.641  10.953   0.778 -0.3619  0.4098 -0.6607
25106SOL    HW177325   8.566  10.896   0.794  0.8067 -0.8606  0.5500
25106SOL    HW277326   8.622  11.032   0.828 -1.4451  0.6109 -1.3679
25107SOL     OW77327   4.519   2.117   3.545 -0.0982 -0.2647 -0.0177
25107SOL    HW177328   4.598   2.118   3.491 -0.1400 -2.3413 -0.1909
25107SOL    HW277329   4.453   2.074   3.491 -1.0970  0.6323  0.4640
25108SOL     OW77330   4.343   8.170   6.032  0.3697 -0.3713 -0.7086
25108SOL    HW177331   4.433   8.140   6.020  0.8444  0.3435  0.8142
25108SOL    HW277332   4.291   8.115   5.973  1.8526 -0.4190 -2.0270
25109SOL     OW77333  10.269   7.112   5.828  0.3141 -0.1287 -0.5632
25109SOL    HW177334  10.193   7.131   5.883 -0.3149 -2.7322 -0.4301
25109SOL    HW277335  10.343   7.150   5.875 -0.5331 -0.2093  0.8686
25110SOL     OW77336   8.495   5.527   8.920 -0.0146 -0.3829  0.0746
25110SOL    HW177337   8.562   5.570   8.867 -0.3419 -0.3055 -0.2787
25110SOL    HW277338   8.469   5.450   8.869  0.1078 -0.6467  0.4064
25111SOL     OW77339   6.853   8.234   7.530 -0.7176  0.0792  0.5898
25111SOL    HW177340   6.794   8.181   7.477  0.8998 -0.0861 -1.1573
25111SOL    HW277341   6.937   8.188   7.525  0.0781  1.4086  1.2582
25112SOL     OW77342   4.745  10.583   8.802 -0.0152 -0.2906 -0.2415
25112SOL    HW177343   4.696  10.502   8.816 -0.6001  0.1124  0.1236
25112SOL    HW277344   4.738  10.630   8.886 -0.2924  0.4463 -0.6670
25113SOL     OW77345   9.869   5.528   1.933  0.5535  0.1544 -0.2688
25113SOL    HW177346   9.839   5.442   1.961  2.2192  0.2921  2.1874
25113SOL    HW277347   9.948   5.511   1.881  0.7487  0.1641  0.0200
25114SOL     OW77348   9.203   2.039   0.178  0.8638 -0.1570 -0.0409
25114SOL    HW177349   9.268   2.107   0.160  0.4614  0.1769 -0.2518
25114SOL    HW277350   9.209   2.024   0.273  0.5851  0.5647  0.1004
25115SOL     OW77351   8.237   3.913   3.403 -0.2464  0.3289  0.0963
25115SOL    HW177352   8.229   3.979   3.335 -0.8587 -1.7074 -1.9246
25115SOL    HW277353   8.147   3.887   3.423  0.0152 -1.5387 -0.9165
25116SOL     OW77354   2.811   1.403   6.826  0.0214 -0.2832  0.3085
25116SOL    HW177355   2.812   1.420   6.732  0.1889 -0.4728  0.2750
25116SOL    HW277356   2.725   1.365   6.842 -0.7397  1.4282  0.5402
25117SOL     OW77357  10.540   6.636   5.728 -0.3179  0.5382  0.1041
25117SOL    HW177358  10.479   6.578   5.774  1.5701 -0.0490  2.0051
25117SOL    HW277359  10.512   6.724   5.751 -0.8776  0.2918  0.3815
25118SOL     OW77360   3.858   6.366   4.748  0.5133  0.3743 -0.4936
25118SOL    HW177361   3.778   6.316   4.736  1.3096 -0.7137 -1.5232
25118SOL    HW277362   3.857   6.431   4.677 -0.0832  1.2675  0.3040
25119SOL     OW77363   6.402  10.005   1.234 -0.5041  0.1110  0.7368
25119SOL    HW177364   6.442   9.963   1.311  0.8512  1.0546  0.5885
25119SOL    HW277365   6.472  10.060   1.198 -0.6027 -1.3247 -1.9858
25120SOL     OW77366   4.406   1.557   0.131  0.4768 -0.1154  0.0248
25120SOL    HW177367   4.489   1.515   0.108  0.3983 -1.1453  1.5141
25120SOL    HW277368   4.355   1.556   0.049  1.6694 -0.0608 -0.7400
25121SOL     OW77369   6.446   3.205   1.413  0.1438 -0.3091 -0.2846
25121SOL    HW177370   6.482   3.293   1.418  1.3771 -0.7811 -0.2966
25121SOL    HW277371   6.495   3.156   1.479 -2.9036 -0.2523  2.2694
25122SOL     OW77372   0.169   2.500   4.253  0.1437 -0.1576  0.0703
25122SOL    HW177373   0.164   2.427   4.314 -2.5043 -1.4688 -1.5507
25122SOL    HW277374   0.263   2.514   4.241  0.7539 -3.0125  0.7719
25123SOL     OW77375  10.987  10.428   6.746  0.0195 -0.5786 -0.4795
25123SOL    HW177376  10.932  10.396   6.817 -0.0810 -2.3311 -1.3028
25123SOL    HW277377  10.929  10.484   6.694 -0.3640 -0.6357 -0.1118
25124SOL     OW77378   2.838   5.956   3.243  0.5603  0.4594  0.5378
25124SOL    HW177379   2.863   5.893   3.175  0.7839  0.7113  0.3832
25124SOL    HW277380   2.824   5.902   3.321 -3.3478 -0.3687 -0.5167
25125SOL     OW77381   4.075   0.514   7.855 -0.0574  0.0001  0.1770
25125SOL    HW177382   4.019   0.481   7.786  1.7118 -1.2041 -0.7502
25125SOL    HW277383   4.016   0.532   7.928 -1.6207 -1.2445 -0.7353
25126SOL     OW77384   3.310   9.111   2.261 -0.0870 -0.0148 -0.1250
25126SOL    HW177385   3.304   9.023   2.297 -0.1982  0.2035  0.3987
25126SOL    HW277386   3.307   9.099   2.166 -1.3892 -0.4885 -0.0504
25127SOL     OW77387   1.909   5.238  10.825  0.1832 -0.2924 -0.4389
25127SOL    HW177388   1.840   5.260  10.762 -1.3125  1.6507  1.7281
25127SOL    HW277389   1.913   5.142  10.823 -2.3070 -0.4490 -0.9518
25128SOL     OW77390   4.552   0.216   0.791  0.4014 -0.1869  0.4353
25128SOL    HW177391   4.587   0.255   0.871  1.3586 -0.0049 -0.0519
25128SOL    HW277392   4.623   0.224   0.728 -0.0200 -1.1327 -0.1815
25129SOL     OW77393   1.180   5.540   7.122  0.5641 -0.3516  0.5765
25129SOL    HW177394   1.244   5.470   7.139  0.9449 -0.0005  0.6099
25129SOL    HW277395   1.201   5.569   7.033  3.0199  2.3699  1.8739
25130SOL     OW77396  10.237   3.880   7.895  0.6315  0.2947 -0.7031
25130SOL    HW177397  10.156   3.898   7.943  1.0900  1.5837 -0.3574
25130SOL    HW277398  10.278   3.966   7.886  1.8145 -0.2997 -1.1330
25131SOL     OW77399   3.960   0.707   9.287 -0.5548 -0.2195  0.4075
25131SOL    HW177400   3.987   0.754   9.366 -0.8155  0.1504  0.2779
25131SOL    HW277401   3.977   0.615   9.307  1.2775  0.0227  0.1477
25132SOL     OW77402   0.530   9.596   8.890 -0.2000 -0.2755  0.2879
25132SOL    HW177403   0.509   9.503   8.879 -0.9115  0.0175 -0.9744
25132SOL    HW277404   0.621   9.604   8.861 -0.3513 -0.4707 -0.2549
25133SOL     OW77405   0.605   2.418   6.134 -0.3057  0.3936 -0.1121
25133SOL    HW177406   0.572   2.332   6.106 -2.1056  0.6885  0.9823
25133SOL    HW277407   0.700   2.411   6.124 -0.5281 -1.0942 -1.7603
25134SOL     OW77408   9.795   8.561  11.009 -0.2754  0.1893 -0.3834
25134SOL    HW177409   9.762   8.583  10.922  0.7132  1.3399 -0.4782
25134SOL    HW277410   9.778   8.467  11.017 -0.3057  0.0469 -1.8418
25135SOL     OW77411   4.823   9.944   3.561  0.0120 -0.1795  0.1494
25135SOL    HW177412   4.866  10.029   3.568  0.1455 -0.3833  2.0809
25135SOL    HW277413   4.895   9.882   3.547 -0.1252  0.0347 -1.8124
25136SOL     OW77414   6.856   2.889   6.091 -0.6743 -0.7333  0.0550
25136SOL    HW177415   6.835   2.825   6.159 -1.4806 -0.0036  0.5202
25136SOL    HW277416   6.787   2.879   6.026  0.2853 -1.6673 -0.8608
25137SOL     OW77417   3.187  10.730   1.245  0.2279 -0.2261  0.0733
25137SOL    HW177418   3.261  10.698   1.193  0.6596  2.6367 -1.2613
25137SOL    HW277419   3.162  10.812   1.202 -3.0079 -0.5062  1.1739
25138SOL     OW77420   4.403   6.585   5.262 -0.3671 -0.3693 -0.4758
25138SOL    HW177421   4.402   6.681   5.261 -2.0431 -0.3042 -3.4142
25138SOL    HW277422   4.323   6.561   5.308  0.8409 -0.4678  1.6934
25139SOL     OW77423   3.797   8.144   1.571 -0.3708  0.0470  0.2205
25139SOL    HW177424   3.780   8.168   1.480 -1.2600  1.3271  0.7015
25139SOL    HW277425   3.823   8.225   1.614  0.0734 -0.5479  1.1148
25140SOL     OW77426   1.111   3.851  10.122  0.1344  0.2338  0.1176
25140SOL    HW177427   1.185   3.790  10.124  1.3146  1.5220 -1.6946
25140SOL    HW277428   1.044   3.808  10.176  0.7544 -2.8558 -1.3479
25141SOL     OW77429   7.591   8.742   7.435 -0.0818  0.6245  0.6708
25141SOL    HW177430   7.528   8.731   7.364 -0.1449  1.2287  0.6292
25141SOL    HW277431   7.639   8.659   7.438  0.7504  1.0058 -0.8805
25142SOL     OW77432   3.310   3.145   1.487 -0.1538  0.6716  0.5657
25142SOL    HW177433   3.337   3.103   1.568  0.2159  0.0854  0.1434
25142SOL    HW277434   3.363   3.225   1.483  0.7361  0.0833  0.2940
25143SOL     OW77435   0.608   0.910   0.185 -0.8155  0.4619 -0.2960
25143SOL    HW177436   0.525   0.892   0.230 -0.1757 -1.3168  0.2652
25143SOL    HW277437   0.617   0.839   0.121 -0.9008  2.0352 -2.1351
25144SOL     OW77438   7.905   7.317   2.413 -0.1526  0.1028 -0.1494
25144SOL    HW177439   7.962   7.241   2.423 -0.0688  0.1639 -0.1668
25144SOL    HW277440   7.964   7.393   2.417 -0.2787  0.1837  0.2423
25145SOL     OW77441   6.227   0.727   6.518  0.4443  0.4761 -0.1632
25145SOL    HW177442   6.252   0.767   6.602  0.8764  0.8579 -0.4693
25145SOL    HW277443   6.204   0.637   6.540  1.5231  0.2751  0.2296
25146SOL     OW77444   1.750   5.021   5.374 -0.0850 -0.2532 -0.0362
25146SOL    HW177445   1.658   5.034   5.397 -0.5433 -2.6987 -0.2140
25146SOL    HW277446   1.799   5.043   5.453 -0.7452  1.6069 -0.1111
25147SOL     OW77447   8.190   5.192   6.765  0.4569  0.1644  0.0427
25147SOL    HW177448   8.195   5.102   6.799 -1.2865 -0.5815 -1.4984
25147SOL    HW277449   8.151   5.243   6.835  0.2981 -0.5510  0.4798
25148SOL     OW77450  10.422   9.677   1.382 -0.0580  0.0879  0.3757
25148SOL    HW177451  10.508   9.674   1.424 -0.0291  1.0359  0.4005
25148SOL    HW277452  10.397   9.769   1.384 -0.7502 -0.0720 -0.3008
25149SOL     OW77453   9.376   8.465   9.474 -0.6137  0.2166 -0.1767
25149SOL    HW177454   9.367   8.521   9.397 -0.4580  2.2475  1.2014
25149SOL    HW277455   9.470   8.448   9.480 -0.1978  2.5770  1.1699
25150SOL     OW77456   8.849   4.388   3.471  0.1356  0.1472  0.1523
25150SOL    HW177457   8.920   4.324   3.472 -1.0789 -1.2989  2.5722
25150SOL    HW277458   8.769   4.336   3.469 -0.9310  1.7190 -1.2598
25151SOL     OW77459   8.555   5.576   6.097 -0.0717 -0.7537 -0.4350
25151SOL    HW177460   8.508   5.657   6.079  1.2144 -0.2926 -1.8850
25151SOL    HW277461   8.505   5.509   6.050 -0.7451 -0.7084  0.2002
25152SOL     OW77462   3.465  10.988   1.201 -0.4441 -0.1479  0.1641
25152SOL    HW177463   3.372  11.007   1.207 -0.5805 -1.1369  1.8474
25152SOL    HW277464   3.506  11.073   1.185 -1.5692  0.4060  0.1170
25153SOL     OW77465   5.903   9.126   0.002  0.1113  0.1069 -0.1247
25153SOL    HW177466   5.993   9.115  -0.027 -0.1903 -1.2147 -0.6497
25153SOL    HW277467   5.867   9.194  -0.055  0.2633 -0.6609 -1.1647
25154SOL     OW77468   5.358   9.829   0.517 -0.5734 -0.2635 -0.7871
25154SOL    HW177469   5.321   9.911   0.549  1.4636  1.1332 -1.7662
25154SOL    HW277470   5.416   9.799   0.587 -2.2279 -1.6107  0.0904
25155SOL     OW77471   3.055   8.071   3.254 -0.0611 -0.1075 -0.2955
25155SOL    HW177472   2.997   8.004   3.290  1.1347 -0.9348  0.1714
25155SOL    HW277473   3.073   8.129   3.328 -0.7424  0.4947 -0.5889
25156SOL     OW77474   2.365  10.600   4.808  0.5228  0.0225 -0.4225
25156SOL    HW177475   2.286  10.610   4.860 -0.5343  1.3864 -2.1901
25156SOL    HW277476   2.338  10.548   4.733  1.1789  0.9172 -1.2956
25157SOL     OW77477   6.597   5.330  10.387  0.0334 -0.1923  0.4028
25157SOL    HW177478   6.565   5.373  10.307  0.7921  0.0354  0.2152
25157SOL    HW277479   6.681   5.373  10.405 -1.0619  1.2332  2.5034
25158SOL     OW77480   1.114   1.429   5.771  0.1229  0.6261 -0.0178
25158SOL    HW177481   1.020   1.436   5.755  0.1795  0.3716 -0.4804
25158SOL    HW277482   1.121   1.358   5.835 -0.0750  1.3985  0.8872
25159SOL     OW77483   3.832   1.739   4.777 -0.0088  0.6581  0.6324
25159SOL    HW177484   3.743   1.723   4.746 -0.6286  1.3042  1.9632
25159SOL    HW277485   3.849   1.667   4.839  1.1065 -0.4800 -0.9189
25160SOL     OW77486  10.022   6.383   6.916  0.6911 -0.0317  0.5648
25160SOL    HW177487   9.993   6.409   6.829  1.6528 -1.4409 -0.2305
25160SOL    HW277488   9.997   6.290   6.923 -0.8500  0.4548  2.4690
25161SOL     OW77489  10.788   6.926   6.678  0.8182  0.0888 -0.4503
25161SOL    HW177490  10.856   6.888   6.733  1.0223 -0.0940 -0.8270
25161SOL    HW277491  10.711   6.872   6.693  0.5243  0.7772  0.5897
25162SOL     OW77492   4.504   4.476   0.382  0.2390  0.0922  0.1025
25162SOL    HW177493   4.563   4.545   0.353 -1.0079  0.5975 -1.3523
25162SOL    HW277494   4.490   4.422   0.305 -2.9175  1.2747 -0.2737
25163SOL     OW77495   3.896   4.615   5.918  0.6740  0.0557 -0.5425
25163SOL    HW177496   3.922   4.627   5.827 -0.7367  0.8785 -0.8615
25163SOL    HW277497   3.813   4.568   5.913  0.3229  0.5628  0.2857
25164SOL     OW77498   6.258   1.821   6.674  0.3191 -0.3547  0.0055
25164SOL    HW177499   6.162   1.824   6.678  0.2986 -0.8177 -0.0502
25164SOL    HW277500   6.284   1.912   6.666 -0.3130 -0.3367 -4.2983
25165SOL     OW77501   1.323   8.132   4.869  0.1529 -0.0933  0.4309
25165SOL    HW177502   1.233   8.098   4.866  0.6580 -1.5275  1.0496
25165SOL    HW277503   1.336   8.170   4.782 -1.3696  1.0407  0.6405
25166SOL     OW77504   7.152   2.273   1.575  0.0308 -0.1712  0.4900
25166SOL    HW177505   7.173   2.181   1.588  0.9489 -0.0983 -0.4144
25166SOL    HW277506   7.129   2.305   1.663 -0.9701 -1.4035  0.7026
25167SOL     OW77507   0.120  10.752   1.803  0.6141  0.0227  0.0252
25167SOL    HW177508   0.032  10.714   1.803  0.9493 -0.7830  0.6719
25167SOL    HW277509   0.159  10.722   1.721  0.2712  0.4246 -0.2866
25168SOL     OW77510   8.222   5.232   1.328 -0.2851 -0.5141 -0.2477
25168SOL    HW177511   8.204   5.326   1.322 -1.2975 -0.5880  1.1292
25168SOL    HW277512   8.138   5.191   1.307  0.1179 -1.1085 -0.7041
25169SOL     OW77513   9.696   5.920   4.638  0.0674  0.2345 -0.0380
25169SOL    HW177514   9.691   5.939   4.544  1.8727 -1.4703 -0.5597
25169SOL    HW277515   9.606   5.931   4.669 -0.0203  4.2495 -1.1682
25170SOL     OW77516   5.417   2.054   4.406 -0.2523 -0.0087 -0.3062
25170SOL    HW177517   5.367   2.109   4.467 -0.5143 -0.9501  0.3604
25170SOL    HW277518   5.370   1.970   4.407  1.0842 -0.7732 -0.0150
25171SOL     OW77519   1.346  10.933   0.691  0.3015  0.0099  0.2557
25171SOL    HW177520   1.362  10.980   0.773  1.2856  0.4216 -0.1478
25171SOL    HW277521   1.319  11.001   0.630 -2.3125 -0.5467  0.6735
25172SOL     OW77522   2.988  10.572   4.259  0.9799 -0.6302 -0.2884
25172SOL    HW177523   2.975  10.567   4.354  1.4934 -2.9478 -0.2967
25172SOL    HW277524   3.078  10.603   4.249  0.3694  1.3833 -0.1001
25173SOL     OW77525   2.216   3.292   6.890  0.0394  0.0394  0.1228
25173SOL    HW177526   2.135   3.255   6.855  0.0369 -0.1017  0.2815
25173SOL    HW277527   2.286   3.240   6.851 -0.0231 -1.8687  2.3449
25174SOL     OW77528   6.014   7.326   0.738 -0.1058  0.5722 -0.4350
25174SOL    HW177529   5.966   7.252   0.776 -1.4485  1.2759 -0.6750
25174SOL    HW277530   5.988   7.327   0.645  1.4395  0.1735 -0.8912
25175SOL     OW77531   4.678   4.643   9.256  0.2510  0.1651 -0.2127
25175SOL    HW177532   4.661   4.712   9.319  2.0744 -0.5550  1.1285
25175SOL    HW277533   4.720   4.573   9.306 -2.6437 -2.5346 -1.2232
25176SOL     OW77534   1.328   2.572   6.719  0.2041  0.1217  0.4493
25176SOL    HW177535   1.304   2.595   6.809  0.7318  0.5055  0.5002
25176SOL    HW277536   1.286   2.487   6.704 -0.8851  0.6064  0.6374
25177SOL     OW77537   9.482   8.726   5.251  0.0655 -0.1297 -0.1494
25177SOL    HW177538   9.415   8.727   5.320 -0.5143 -0.6125 -0.6933
25177SOL    HW277539   9.473   8.810   5.207 -0.2878 -0.2512 -0.3129
25178SOL     OW77540   1.762   9.308  10.518 -0.0873  0.5023 -0.5120
25178SOL    HW177541   1.807   9.229  10.486  0.0538 -0.0342  0.9442
25178SOL    HW277542   1.677   9.276  10.549  0.1733  0.8255  0.5676
25179SOL     OW77543   2.095   6.251   3.116  0.2992  0.3441 -0.2790
25179SOL    HW177544   2.056   6.183   3.171  0.7757 -0.7454 -1.2272
25179SOL    HW277545   2.159   6.294   3.173  3.0390 -2.7939 -0.7129
25180SOL     OW77546   7.077   6.523   1.843 -0.2788  0.3456  0.2574
25180SOL    HW177547   7.163   6.483   1.832  0.0811  1.2685 -0.4508
25180SOL    HW277548   7.029   6.500   1.763 -0.2496  0.8496  0.0859
25181SOL     OW77549   4.937   2.371   7.777 -0.0116 -0.1709 -0.0288
25181SOL    HW177550   4.858   2.385   7.828  1.1102  1.7782  1.3172
25181SOL    HW277551   4.988   2.308   7.828  0.3412  0.4334  0.3782
25182SOL     OW77552   8.028   5.380   4.175 -0.1283  0.2788 -0.5754
25182SOL    HW177553   8.031   5.476   4.177 -0.3361  0.2794  1.0879
25182SOL    HW277554   8.117   5.353   4.196 -0.6901  0.1576  1.9389
25183SOL     OW77555   9.480   0.533   2.746 -0.1795 -0.1968 -0.1274
25183SOL    HW177556   9.480   0.559   2.838  0.4179  0.9891 -0.4315
25183SOL    HW277557   9.572   0.529   2.722 -0.3194 -0.8740 -0.5832
25184SOL     OW77558   0.511   9.217   3.101 -0.1322 -0.1374  0.2779
25184SOL    HW177559   0.463   9.135   3.086 -1.9115  0.9095  0.0190
25184SOL    HW277560   0.597   9.201   3.062 -0.0147 -2.2828  1.2537
25185SOL     OW77561   0.000   7.539   9.672  0.4268  0.0468  0.1239
25185SOL    HW177562  -0.075   7.597   9.681  0.7077  0.3407  0.6375
25185SOL    HW277563   0.045   7.544   9.756  0.5077 -0.8544  0.1519
25186SOL     OW77564  10.533   1.380  10.967 -0.3769  0.3863  0.0648
25186SOL    HW177565  10.516   1.320  11.040 -1.2241 -0.6385 -0.9419
25186SOL    HW277566  10.453   1.432  10.959  0.0473  1.1066  0.4122
25187SOL     OW77567   4.647   5.006   7.430 -0.3200  0.6412 -0.4037
25187SOL    HW177568   4.737   4.996   7.460 -0.4977 -1.2124 -0.3706
25187SOL    HW277569   4.613   5.082   7.478  0.5833  0.0791  1.1823
25188SOL     OW77570   9.984   5.893   4.727 -0.0966  0.1482  0.0886
25188SOL    HW177571   9.898   5.891   4.685 -0.2056  1.3182  0.2393
25188SOL    HW277572   9.971   5.842   4.808 -0.6661  0.3761  0.1486
25189SOL     OW77573   0.456   1.343   4.736 -0.4294  0.0981  0.1508
25189SOL    HW177574   0.444   1.329   4.830  1.8952 -1.5700  0.2979
25189SOL    HW277575   0.505   1.425   4.730  1.2015 -0.7934  0.6030
25190SOL     OW77576   5.226   6.795   6.653 -0.2372  0.4920 -0.2826
25190SOL    HW177577   5.154   6.852   6.626  0.1725  0.4357 -1.5529
25190SOL    HW277578   5.196   6.707   6.630 -0.4078  0.2897  0.6612
25191SOL     OW77579   0.214  10.647   9.904  0.1553  0.1077  0.1402
25191SOL    HW177580   0.200  10.631   9.997 -1.6829 -0.6564 -0.2300
25191SOL    HW277581   0.237  10.562   9.868  0.8992  0.4081 -0.1087
25192SOL     OW77582   6.919  10.820   7.924 -0.0382 -0.5629 -0.1296
25192SOL    HW177583   6.887  10.883   7.988 -1.2035  0.4028 -1.5811
25192SOL    HW277584   6.851  10.752   7.921 -0.6520  0.0612 -1.2162
25193SOL     OW77585  10.780   0.802   6.400 -0.1413  0.1392 -0.1782
25193SOL    HW177586  10.705   0.833   6.451 -0.5017 -1.8478  0.5735
25193SOL    HW277587  10.816   0.730   6.452  1.1120 -0.1876 -1.4624
25194SOL     OW77588   4.639   5.174   0.784  0.1803  0.2156 -0.1895
25194SOL    HW177589   4.628   5.192   0.690  2.3657 -0.4067 -0.6148
25194SOL    HW277590   4.577   5.104   0.802 -1.6502  1.6072 -0.6724
25195SOL     OW77591   7.517   2.375   2.335  0.3370  0.6699 -0.1011
25195SOL    HW177592   7.502   2.469   2.343  0.3249  0.7196 -0.6746
25195SOL    HW277593   7.603   2.361   2.376  1.0332  1.1724 -1.3377
25196SOL     OW77594   1.550   8.149   3.329 -0.2671  0.5719 -0.3346
25196SOL    HW177595   1.641   8.175   3.314 -0.0791  1.3117  1.7453
25196SOL    HW277596   1.499   8.217   3.285  0.2142  1.1269 -0.0599
25197SOL     OW77597   8.896   5.705   3.109  0.1127  0.4129 -0.1271
25197SOL    HW177598   8.850   5.637   3.061  3.7022 -1.1925 -1.6797
25197SOL    HW277599   8.905   5.776   3.045 -0.4440  0.8719  0.2912
25198SOL     OW77600   0.100   2.661   6.947 -0.3841  0.0473 -0.1826
25198SOL    HW177601   0.143   2.617   7.019 -1.1683  0.0033  0.2675
25198SOL    HW277602   0.028   2.603   6.922 -1.2495  0.9126  0.2241
25199SOL     OW77603   6.694   6.124   5.732  0.1896 -0.6186 -0.4241
25199SOL    HW177604   6.666   6.209   5.697 -1.5823 -1.4503 -1.1933
25199SOL    HW277605   6.779   6.107   5.690  0.7112  0.8840 -0.0234
25200SOL     OW77606   8.801   6.259   5.775 -0.0290  0.6219  0.3882
25200SOL    HW177607   8.884   6.267   5.823 -0.1413 -0.9550  0.9240
25200SOL    HW277608   8.800   6.168   5.746 -0.2730  1.3463 -2.1039
25201SOL     OW77609   9.425  10.885   0.953  0.2825 -0.1084 -0.0022
25201SOL    HW177610   9.335  10.889   0.985 -0.1169 -0.4966 -1.0061
25201SOL    HW277611   9.421  10.820   0.882  1.1216  0.6607 -0.7710
25202SOL     OW77612   1.426  10.026   5.229  0.1369 -0.6146  0.1059
25202SOL    HW177613   1.445  10.113   5.192 -0.5413  0.1385  1.4512
25202SOL    HW277614   1.486  10.018   5.303 -1.5421 -0.1772  1.5587
25203SOL     OW77615   7.373   7.029   2.693  0.3637  0.2249 -0.1223
25203SOL    HW177616   7.380   7.062   2.604 -2.7395  1.1975 -0.1123
25203SOL    HW277617   7.425   6.949   2.694 -0.7364 -0.6448 -3.2436
25204SOL     OW77618   8.964   0.072   3.007 -0.2073  0.5304 -1.0263
25204SOL    HW177619   9.047   0.120   3.015 -1.1122  1.9970  0.0527
25204SOL    HW277620   8.984  -0.016   3.041  0.8625  0.9228 -0.5838
25205SOL     OW77621   1.987   9.076   3.206  0.5313 -0.3420  0.2728
25205SOL    HW177622   2.047   9.050   3.275  1.1318 -1.3154 -0.5922
25205SOL    HW277623   1.903   9.038   3.232  0.2748  0.9146  1.4168
25206SOL     OW77624   0.047   7.112   6.953 -0.0012  0.4734 -0.2376
25206SOL    HW177625  -0.029   7.061   6.981  1.7454 -1.8424  0.5896
25206SOL    HW277626   0.023   7.203   6.972 -2.7194 -0.0934 -0.4770
25207SOL     OW77627   1.548   3.527   2.318  0.2052 -0.1420  0.2798
25207SOL    HW177628   1.510   3.503   2.234  2.1611  3.0682 -1.7164
25207SOL    HW277629   1.610   3.457   2.337  0.3740 -0.4978 -1.4384
25208SOL     OW77630   7.081   3.224   5.783 -0.2736 -0.1684 -0.4456
25208SOL    HW177631   7.007   3.283   5.797 -1.9146 -1.9014 -1.3863
25208SOL    HW277632   7.094   3.182   5.869 -0.4424  0.0597 -0.3073
25209SOL     OW77633   9.003  10.638   6.840 -0.0580 -0.1096  0.4405
25209SOL    HW177634   8.973  10.568   6.897  1.1618 -0.5833  0.5365
25209SOL    HW277635   9.076  10.679   6.887  0.4673 -0.0121 -0.4266
25210SOL     OW77636   7.292   2.229  10.779 -0.7709  0.1610  0.1628
25210SOL    HW177637   7.371   2.242  10.831 -1.4164  1.3744  0.8956
25210SOL    HW277638   7.324   2.222  10.689  0.2208 -0.0941  0.5221
25211SOL     OW77639   7.997   2.372   8.858  0.4679  0.1783 -0.2872
25211SOL    HW177640   8.078   2.322   8.852  0.2072 -0.2792 -0.0838
25211SOL    HW277641   7.928   2.305   8.863  0.2407  0.5155  1.8825
25212SOL     OW77642   9.776   8.446   1.290 -0.8249  0.0210 -0.5296
25212SOL    HW177643   9.809   8.425   1.203 -1.5255  0.3897 -0.8974
25212SOL    HW277644   9.733   8.531   1.279 -1.0166  0.0195  0.1499
25213SOL     OW77645   4.548   0.587   7.279 -0.7321 -0.0172  0.4693
25213SOL    HW177646   4.535   0.500   7.242 -0.0702 -0.0648  0.3387
25213SOL    HW277647   4.636   0.585   7.314  0.5628  1.5656 -2.3479
25214SOL     OW77648   5.552   3.564   9.019 -0.0425 -0.5626  0.0277
25214SOL    HW177649   5.465   3.602   9.011  0.3984  0.6312  0.7198
25214SOL    HW277650   5.538   3.470   9.002 -1.4325 -0.3830  0.0310
25215SOL     OW77651   8.024   3.872   1.540  0.5957 -0.1166  0.0047
25215SOL    HW177652   8.008   3.902   1.450  0.5252  1.5807  0.5458
25215SOL    HW277653   8.117   3.888   1.554  0.5353 -0.0496  0.3377
25216SOL     OW77654   5.107   6.000   9.545 -0.1527 -0.2008 -0.5834
25216SOL    HW177655   5.049   5.971   9.615 -0.4733  0.3938 -0.5992
25216SOL    HW277656   5.065   5.969   9.465 -0.4379  0.2037 -0.5926
25217SOL     OW77657   3.803   3.036   6.021 -0.2195 -0.3100 -0.9614
25217SOL    HW177658   3.877   3.010   5.967  0.0912 -1.8587  0.1361
25217SOL    HW277659   3.745   2.960   6.020 -0.4675 -0.1617  0.4242
25218SOL     OW77660   5.613   4.838   6.386 -0.3431  0.0929 -0.3339
25218SOL    HW177661   5.591   4.745   6.386 -0.7858  0.1834  0.7702
25218SOL    HW277662   5.615   4.862   6.478  1.4133  0.8098 -0.5224
25219SOL     OW77663  11.036   8.147   0.714 -0.5654  0.1136  0.2226
25219SOL    HW177664  11.081   8.201   0.650  1.2998 -1.6351 -0.0435
25219SOL    HW277665  10.987   8.083   0.663 -0.9981  0.2040  0.5219
25220SOL     OW77666   6.625   3.673   5.530  0.5597  0.4775 -0.2098
25220SOL    HW177667   6.604   3.711   5.615 -1.0484  0.7567 -0.6844
25220SOL    HW277668   6.694   3.729   5.495  0.4433  1.0434  0.4396
25221SOL     OW77669   0.262   1.706   0.628  0.5929  0.3642 -0.1998
25221SOL    HW177670   0.189   1.663   0.585  0.0778  1.8713 -0.8788
25221SOL    HW277671   0.339   1.655   0.602 -0.1211 -0.8949  0.0656
25222SOL     OW77672   4.875  10.794   1.022 -0.0662 -0.2292 -0.2115
25222SOL    HW177673   4.943  10.858   1.045 -1.0590  1.3251 -1.3670
25222SOL    HW277674   4.818  10.841   0.961 -0.2237 -2.6065 -2.0334
25223SOL     OW77675   6.759   2.745   3.325 -0.0627 -0.2260  0.5544
25223SOL    HW177676   6.714   2.745   3.410 -1.0449 -0.6180  0.0581
25223SOL    HW277677   6.707   2.805   3.271 -0.7916 -1.6913 -0.4236
25224SOL     OW77678   6.483  10.843   7.270 -0.1592  0.0855  0.3532
25224SOL    HW177679   6.504  10.906   7.339  0.0412 -0.7520  1.0804
25224SOL    HW277680   6.563  10.791   7.259 -1.4114 -2.5557  2.5148
25225SOL     OW77681   3.574   7.788   7.248  0.5198 -0.2105 -0.2213
25225SOL    HW177682   3.562   7.826   7.160 -2.0055  1.4064  0.7049
25225SOL    HW277683   3.514   7.713   7.250  0.9439 -0.5475 -0.0248
25226SOL     OW77684  10.342   7.883  10.321  0.1646 -0.8193  0.0537
25226SOL    HW177685  10.273   7.908  10.260  3.2394  2.3266 -2.5617
25226SOL    HW277686  10.350   7.959  10.379  0.4682 -1.8112  1.3537
25227SOL     OW77687   4.557   0.988   6.402  0.5494 -0.5313  0.2094
25227SOL    HW177688   4.610   1.056   6.360 -0.8180  1.2927  1.3178
25227SOL    HW277689   4.474   0.990   6.355 -0.0347 -0.3603  1.2242
25228SOL     OW77690   2.721   4.832   9.229  0.0041 -0.5468  0.6416
25228SOL    HW177691   2.722   4.928   9.221  2.7160 -0.4099  1.6060
25228SOL    HW277692   2.730   4.801   9.139  1.5048  0.2173  0.4870
25229SOL     OW77693   0.796   3.618   0.044  0.0724 -0.2221 -0.1717
25229SOL    HW177694   0.760   3.609   0.132  0.6011  1.2307  0.2162
25229SOL    HW277695   0.719   3.616  -0.013 -0.3581 -0.2039  0.3917
25230SOL     OW77696   0.687   1.174   2.713 -0.3446  0.2062 -0.1505
25230SOL    HW177697   0.687   1.156   2.619  1.9909  2.1880 -0.6423
25230SOL    HW277698   0.597   1.202   2.732 -0.8279 -0.0928 -1.8102
25231SOL     OW77699   8.964   9.016   0.220 -0.3705  0.2800  0.1556
25231SOL    HW177700   8.868   9.012   0.221 -0.5425  1.9764 -1.7923
25231SOL    HW277701   8.993   8.925   0.219 -1.9766 -0.2537  0.3793
25232SOL     OW77702   1.046   8.178   6.926  0.1348  0.2062 -0.1331
25232SOL    HW177703   1.038   8.270   6.951 -0.1345  0.1003  0.1674
25232SOL    HW277704   1.124   8.147   6.973 -0.1921  0.0895  0.3333
25233SOL     OW77705   9.613   7.538   6.789  0.2543  0.3882 -0.3025
25233SOL    HW177706   9.590   7.527   6.697 -0.7181 -0.9602  0.0675
25233SOL    HW277707   9.666   7.618   6.792 -0.5320  1.0042 -1.8783
25234SOL     OW77708  10.078   5.010   7.399  0.1555  0.7507  0.0808
25234SOL    HW177709  10.001   5.029   7.346  0.0595  0.4750  0.1194
25234SOL    HW277710  10.101   4.920   7.376 -0.4987  0.2630  1.2543
25235SOL     OW77711  10.806   9.254   8.816  0.1972 -0.1220  0.0794
25235SOL    HW177712  10.810   9.185   8.750 -1.4386 -0.8167  0.6639
25235SOL    HW277713  10.896   9.286   8.823  1.0290 -2.2781 -0.1080
25236SOL     OW77714   0.493   1.391   8.112  0.2541  0.3863  0.7337
25236SOL    HW177715   0.508   1.479   8.147  1.9378  0.5420 -0.2772
25236SOL    HW277716   0.461   1.406   8.023  0.0083 -0.0231  0.7526
25237SOL     OW77717   8.169   8.098   1.184 -0.5289 -0.6467  0.2104
25237SOL    HW177718   8.225   8.129   1.113 -1.4342  0.9913  0.1672
25237SOL    HW277719   8.225   8.100   1.261 -0.4659  0.9025  0.1556
25238SOL     OW77720   1.316   1.545   8.087  0.3658  0.3041 -0.9236
25238SOL    HW177721   1.269   1.488   8.027  0.3597  0.6351 -1.2402
25238SOL    HW277722   1.405   1.547   8.054 -0.1672  2.5577 -2.5462
25239SOL     OW77723   5.483   9.489   2.572  0.4352  0.3938  0.0853
25239SOL    HW177724   5.395   9.462   2.598 -0.6172  1.2050 -2.3779
25239SOL    HW277725   5.523   9.521   2.653 -0.9878 -1.3006  1.5335
25240SOL     OW77726   8.370   0.215   6.863  0.4902 -0.3338 -0.0609
25240SOL    HW177727   8.416   0.134   6.841  0.9441  0.1440 -0.9434
25240SOL    HW277728   8.398   0.277   6.796  0.3685  0.6388  0.7635
25241SOL     OW77729   3.016   4.435  10.142 -0.0921 -0.1321  0.1348
25241SOL    HW177730   2.963   4.416  10.064  0.5861 -0.7801 -0.1794
25241SOL    HW277731   3.080   4.365  10.145 -0.6317 -0.6095  1.7635
25242SOL     OW77732   7.894   5.303   3.431 -0.0691  0.3918 -0.0288
25242SOL    HW177733   7.827   5.300   3.500  1.2830 -1.0560  1.3079
25242SOL    HW277734   7.847   5.335   3.354 -2.1089  0.1888  1.0461
25243SOL     OW77735   5.951   1.109   7.093 -0.9009  0.2623  0.0566
25243SOL    HW177736   5.890   1.077   7.026 -2.2541  0.8090  1.0006
25243SOL    HW277737   6.014   1.163   7.044 -0.6863 -0.9231 -1.0416
25244SOL     OW77738   2.293   0.223   7.472  0.0418  0.0495  0.2667
25244SOL    HW177739   2.286   0.280   7.549 -0.0927  0.8041 -0.2922
25244SOL    HW277740   2.207   0.183   7.463 -0.0802  0.3182  0.2409
25245SOL     OW77741   5.856   3.938   6.800 -0.2360 -0.0192  0.0040
25245SOL    HW177742   5.776   3.887   6.784 -0.0541 -0.8696  1.5677
25245SOL    HW277743   5.825   4.021   6.836 -0.4440 -0.0818 -0.0274
25246SOL     OW77744  10.510   6.594  10.281 -1.5900 -0.2031  0.9538
25246SOL    HW177745  10.505   6.667  10.219  0.3550 -1.5488 -0.9274
25246SOL    HW277746  10.438   6.537  10.255 -0.7275 -0.8063 -0.1947
25247SOL     OW77747   3.235   6.461  10.050 -0.2648 -0.3152  0.4369
25247SOL    HW177748   3.291   6.429  10.120  1.1773  0.3559 -0.3494
25247SOL    HW277749   3.242   6.556  10.055  1.0201 -0.2562 -1.4423
25248SOL     OW77750  10.933   4.898   8.814  0.0892  0.1645 -0.1040
25248SOL    HW177751  11.006   4.911   8.753  1.2647  0.6261  1.3536
25248SOL    HW277752  10.873   4.840   8.767  1.4627 -0.3608 -1.2834
25249SOL     OW77753   5.989   8.412   8.787  0.3617 -0.3800  0.2326
25249SOL    HW177754   5.975   8.381   8.697  0.4842 -0.6196  0.2964
25249SOL    HW277755   5.995   8.332   8.839 -0.6900 -0.2404  0.6029
25250SOL     OW77756   5.539   6.567   2.402  0.3991 -0.1936  0.4250
25250SOL    HW177757   5.529   6.472   2.402  1.0514 -0.2725 -0.0418
25250SOL    HW277758   5.565   6.588   2.491  1.1801 -0.5693  0.2952
25251SOL     OW77759   7.595  10.471  10.406 -0.0674 -0.5002  0.3166
25251SOL    HW177760   7.526  10.406  10.397 -0.4114 -0.3500  1.6814
25251SOL    HW277761   7.556  10.541  10.458  0.3814  0.6899 -0.8963
25252SOL     OW77762  10.971   7.641   3.224  0.0448  0.6963  0.2599
25252SOL    HW177763  11.003   7.555   3.249  0.2335  1.0975  1.4725
25252SOL    HW277764  11.039   7.677   3.167  0.5457  0.5171  0.7357
25253SOL     OW77765   7.949   4.460   4.229 -0.3664  0.1898 -0.2102
25253SOL    HW177766   7.988   4.374   4.242 -1.5860 -0.2851  0.5425
25253SOL    HW277767   7.904   4.478   4.312 -0.1455  1.5498 -0.3655
25254SOL     OW77768   2.299   4.958   5.403  0.1379  0.4117 -0.1700
25254SOL    HW177769   2.365   4.909   5.355 -1.3708 -1.1094 -0.7974
25254SOL    HW277770   2.349   5.020   5.456  2.2777 -2.3696  1.3893
25255SOL     OW77771  10.409   3.976  10.267 -0.5165 -0.0760 -0.6073
25255SOL    HW177772  10.389   3.981  10.360  0.4459 -0.1899 -0.3810
25255SOL    HW277773  10.498   4.011  10.260 -0.6151  0.0219 -1.4975
25256SOL     OW77774   0.827  10.042   7.916 -0.5628 -0.2066 -0.3290
25256SOL    HW177775   0.744  10.086   7.900 -0.2160 -0.2993 -2.8729
25256SOL    HW277776   0.803   9.958   7.955 -1.3185  1.4366  3.1572
25257SOL     OW77777   6.354   9.569   9.292 -0.1380 -0.5625 -0.2396
25257SOL    HW177778   6.280   9.512   9.271 -1.0429  0.0039  1.2523
25257SOL    HW277779   6.378   9.609   9.209 -1.2599 -1.0354 -0.8098
25258SOL     OW77780   7.553   0.579   7.150 -0.2906  0.3056  0.0067
25258SOL    HW177781   7.576   0.492   7.182 -0.9283  0.2501  0.3352
25258SOL    HW277782   7.572   0.637   7.224 -1.3408  0.2360  0.3459
25259SOL     OW77783   6.019   5.888   8.296  0.2986  0.0865  0.1486
25259SOL    HW177784   6.030   5.825   8.368  2.2333  0.1731 -0.0163
25259SOL    HW277785   6.049   5.971   8.332 -1.3595  0.7593  0.0693
25260SOL     OW77786   4.101   2.943   7.147  0.5761 -0.1408 -0.3629
25260SOL    HW177787   4.087   2.850   7.165 -0.4113 -0.0073 -0.3539
25260SOL    HW277788   4.075   2.953   7.055 -0.5044  0.3380 -0.0240
25261SOL     OW77789   1.266   2.723   5.518  0.2740 -0.1553 -0.3386
25261SOL    HW177790   1.227   2.691   5.436 -0.5160 -0.9155  0.3138
25261SOL    HW277791   1.205   2.790   5.548 -0.3609 -1.0709  0.4837
25262SOL     OW77792   1.400   2.352   7.302 -0.3783 -0.4193 -0.2385
25262SOL    HW177793   1.308   2.329   7.314 -0.9380  0.1432 -2.8257
25262SOL    HW277794   1.443   2.270   7.281 -0.7658 -0.3673 -1.2916
25263SOL     OW77795   9.763   2.267   6.345 -0.0962 -0.4879  0.3565
25263SOL    HW177796   9.759   2.289   6.438  1.7014  0.7834  0.1767
25263SOL    HW277797   9.776   2.172   6.344 -0.9291 -0.6319  1.3662
25264SOL     OW77798   8.050   4.499   4.625  0.1256 -0.1645  0.0462
25264SOL    HW177799   7.974   4.506   4.567  0.5847 -0.2948 -0.5694
25264SOL    HW277800   8.024   4.548   4.704  0.4786  2.3102 -1.2677
25265SOL     OW77801   8.298   7.318   6.264 -0.0941 -0.4075  0.4262
25265SOL    HW177802   8.335   7.406   6.270  1.3364 -0.9630  0.3052
25265SOL    HW277803   8.216   7.322   6.312 -0.5102  1.2251 -0.3705
25266SOL     OW77804   2.009  10.140  10.389  0.4120  0.2268 -0.2907
25266SOL    HW177805   1.980  10.131  10.298  1.0784 -2.4870 -0.3108
25266SOL    HW277806   2.100  10.111  10.388  1.1481  2.2761  0.9217
25267SOL     OW77807   7.399   0.436   4.634  0.0386  0.2768 -0.4870
25267SOL    HW177808   7.310   0.401   4.629  0.0905  0.2320 -1.1807
25267SOL    HW277809   7.422   0.429   4.727  0.1940 -1.9054 -0.6382
25268SOL     OW77810   8.556   0.603   0.812 -0.1212  0.0727  0.4701
25268SOL    HW177811   8.560   0.683   0.759  3.1219  0.3560  0.9672
25268SOL    HW277812   8.570   0.532   0.750  0.8928  0.2038  0.5363
25269SOL     OW77813   8.261   7.143   5.321  0.1830  0.1208  0.3556
25269SOL    HW177814   8.261   7.077   5.390  2.1349 -0.6642 -0.3446
25269SOL    HW277815   8.291   7.097   5.243  2.0145  1.8979 -0.0620
25270SOL     OW77816   2.923   8.490  10.568 -0.3322  0.1560 -0.2559
25270SOL    HW177817   2.829   8.501  10.556 -0.4655  0.3190  0.8286
25270SOL    HW277818   2.952   8.447  10.488 -1.8706 -2.8790  0.6547
25271SOL     OW77819   6.890   0.036   3.234 -0.3328  0.1685  0.2496
25271SOL    HW177820   6.951   0.004   3.168 -1.6662 -0.0658 -0.9073
25271SOL    HW277821   6.865  -0.042   3.284 -3.1136 -0.6770 -2.1840
25272SOL     OW77822   1.296  10.938   6.167 -0.3716 -0.2279 -0.3799
25272SOL    HW177823   1.273  10.891   6.247 -0.0772  0.9779  0.4317
25272SOL    HW277824   1.290  10.872   6.098  0.6790 -1.6240  0.8144
25273SOL     OW77825   7.196   4.915   1.341  1.1204  0.2250 -0.1298
25273SOL    HW177826   7.285   4.925   1.308  0.5851  0.8932 -1.4433
25273SOL    HW277827   7.140   4.923   1.264 -0.1498  1.1386  0.8278
25274SOL     OW77828   0.226   8.514  10.251  0.2027 -0.5267  0.3370
25274SOL    HW177829   0.202   8.600  10.286 -1.8152 -0.1283 -1.7731
25274SOL    HW277830   0.320   8.520  10.234 -0.0288  1.5861 -0.4744
25275SOL     OW77831   7.558   9.789   4.461 -0.1249 -0.5139 -0.4029
25275SOL    HW177832   7.623   9.854   4.486 -1.0605  0.4392 -0.4194
25275SOL    HW277833   7.536   9.809   4.370 -0.3787 -0.8937 -0.4309
25276SOL     OW77834  10.848   7.488   7.776  0.7539  0.7746  0.3322
25276SOL    HW177835  10.889   7.402   7.785  0.3968  0.7243  1.8867
25276SOL    HW277836  10.906   7.537   7.717 -0.2047 -1.1857 -2.4359
25277SOL     OW77837   9.683   6.322   7.627  0.0769 -0.5293 -0.2607
25277SOL    HW177838   9.740   6.376   7.572  1.0934 -1.4483 -0.1580
25277SOL    HW277839   9.594   6.349   7.606  0.5360  0.4530 -0.9529
25278SOL     OW77840   1.077  10.296   7.604  0.1727  0.2516  0.3939
25278SOL    HW177841   1.134  10.314   7.679  0.5994 -2.2020  0.7621
25278SOL    HW277842   1.037  10.211   7.625 -2.2761  1.0566 -0.6815
25279SOL     OW77843   4.807   7.883   3.358  0.5102  0.0198 -0.4901
25279SOL    HW177844   4.900   7.892   3.339  0.4145  2.5552 -0.0215
25279SOL    HW277845   4.765   7.951   3.306 -0.8590  0.2580  0.8651
25280SOL     OW77846   7.937   1.305  10.007  1.3261 -0.0278 -0.0575
25280SOL    HW177847   7.862   1.247   9.993  0.8185  0.7974 -0.8575
25280SOL    HW277848   8.014   1.248   9.996  0.8441 -1.0057  1.3580
25281SOL     OW77849   1.505   2.753   5.387  0.1586 -0.2365  0.5434
25281SOL    HW177850   1.441   2.766   5.457 -0.2394  3.2362 -0.2593
25281SOL    HW277851   1.586   2.790   5.423  0.6274 -0.8094  0.0787
25282SOL     OW77852   8.104  10.047   0.274  0.5936 -0.1738 -0.0829
25282SOL    HW177853   8.061  10.032   0.190  1.6212 -0.2366 -0.6143
25282SOL    HW277854   8.047  10.004   0.338 -0.6186  0.5492 -0.6278
25283SOL     OW77855   1.515   6.269   1.676  0.8241 -0.7864  0.1958
25283SOL    HW177856   1.466   6.209   1.619  0.5334 -1.0015  0.6597
25283SOL    HW277857   1.531   6.218   1.755  2.1272 -0.8448 -0.0792
25284SOL     OW77858   5.953  10.246   7.690  0.0566 -0.7272  0.8736
25284SOL    HW177859   6.028  10.193   7.716  1.3150  1.3438  1.6802
25284SOL    HW277860   5.991  10.324   7.649 -1.7391 -0.8179 -1.1637
25285SOL     OW77861   7.375   6.750   4.618  0.1749  0.0330  0.1563
25285SOL    HW177862   7.360   6.840   4.646  0.9312  0.8665 -1.9168
25285SOL    HW277863   7.320   6.739   4.540  0.7144 -1.0064 -0.0976
25286SOL     OW77864   2.079   1.165  10.007  0.6438  0.2939 -0.0112
25286SOL    HW177865   2.064   1.119   9.924  0.9036  1.1424 -0.5409
25286SOL    HW277866   2.164   1.207   9.996  0.1863  1.3111  0.2663
25287SOL     OW77867   5.557   1.830  10.535  0.4501 -0.3308 -0.3054
25287SOL    HW177868   5.646   1.830  10.499  0.0129  0.3657 -1.4269
25287SOL    HW277869   5.504   1.870  10.467 -0.4268  0.9990  1.1209
25288SOL     OW77870   4.923  10.236   5.256  0.2296  0.0948 -0.3680
25288SOL    HW177871   4.842  10.243   5.205  0.0750 -2.0853 -0.4858
25288SOL    HW277872   4.989  10.276   5.200 -0.3954  0.0558 -1.1584
25289SOL     OW77873   1.907   2.030   0.815 -0.0894  0.0421 -0.3508
25289SOL    HW177874   1.832   2.005   0.761 -0.5531  0.3420  0.1437
25289SOL    HW277875   1.888   1.994   0.902 -0.3918  1.3884  0.1672
25290SOL     OW77876   7.755   7.402   6.795  0.0690 -0.5051  0.6101
25290SOL    HW177877   7.671   7.381   6.757 -0.1266  1.3470 -0.0743
25290SOL    HW277878   7.811   7.327   6.774 -0.2978 -0.0304 -2.5056
25291SOL     OW77879   7.923   1.670   9.666 -0.2174  0.0604  0.1647
25291SOL    HW177880   7.988   1.652   9.598  0.8019 -2.4284  1.6563
25291SOL    HW277881   7.882   1.585   9.683 -1.0929  0.7989  1.9849
25292SOL     OW77882   8.344   1.650   3.442 -0.0613 -0.2742  0.1212
25292SOL    HW177883   8.276   1.684   3.500  1.1595  1.9271  0.3725
25292SOL    HW277884   8.316   1.678   3.354 -0.2336 -0.6789  0.0478
25293SOL     OW77885   0.735   1.868  10.428  0.1388 -0.2966  0.2724
25293SOL    HW177886   0.703   1.919  10.502 -0.0925  2.3238 -1.4850
25293SOL    HW277887   0.772   1.789  10.467 -1.8110 -0.0182  2.9727
25294SOL     OW77888   1.503   8.520  10.403  0.4531  0.0313 -0.0430
25294SOL    HW177889   1.450   8.569  10.340 -1.2497 -0.5588  0.8509
25294SOL    HW277890   1.541   8.587  10.459 -0.3945  0.4467  0.0619
25295SOL     OW77891   8.611   0.878   4.584  0.3898  0.2660  0.0200
25295SOL    HW177892   8.555   0.889   4.507  0.2201  0.6471  0.1929
25295SOL    HW277893   8.696   0.851   4.548  0.0246 -0.5802 -0.2257
25296SOL     OW77894   0.476   3.182   4.214 -0.2360  0.2119 -0.5266
25296SOL    HW177895   0.499   3.230   4.134 -0.4998  1.5376  0.1723
25296SOL    HW277896   0.558   3.173   4.261 -0.1779 -0.0614 -0.6807
25297SOL     OW77897   4.126  10.501   8.928  0.0526  0.1685 -0.6571
25297SOL    HW177898   4.171  10.445   8.864  0.1006  0.3482 -0.7838
25297SOL    HW277899   4.111  10.445   9.003 -0.3167 -0.1458 -0.9602
25298SOL     OW77900   0.027   6.013   1.222  0.4059  0.5054  0.1755
25298SOL    HW177901   0.027   6.063   1.304  0.2219  1.3221 -0.3061
25298SOL    HW277902  -0.065   5.994   1.205  0.4046  0.7175 -0.0620
25299SOL     OW77903   3.771   7.045   3.615 -0.1763 -0.3218 -0.1727
25299SOL    HW177904   3.717   7.115   3.577  1.0531 -0.7850 -3.0410
25299SOL    HW277905   3.747   6.967   3.566 -0.1446 -1.5618  1.6825
25300SOL     OW77906   3.663   4.177  10.754 -0.3216  0.0817 -0.2337
25300SOL    HW177907   3.723   4.231  10.805 -0.4989 -1.4468  1.7403
25300SOL    HW277908   3.651   4.225  10.672  1.6820  1.6034  0.2744
25301SOL     OW77909   9.810   0.643   7.964 -0.2819 -0.6863 -0.4338
25301SOL    HW177910   9.807   0.724   8.014 -1.3660 -0.1900 -1.2549
25301SOL    HW277911   9.762   0.662   7.883 -0.9910 -2.2711 -0.4385
25302SOL     OW77912   3.855   4.692   0.588 -0.3357 -0.2999 -1.0183
25302SOL    HW177913   3.884   4.770   0.634 -1.2950  0.7950 -2.2025
25302SOL    HW277914   3.811   4.640   0.655  0.0383  0.3231 -0.2777
25303SOL     OW77915   3.744  10.520   6.000  0.4173  0.5955  0.3301
25303SOL    HW177916   3.727  10.514   6.094 -1.2852 -1.1817 -0.0326
25303SOL    HW277917   3.663  10.555   5.963  0.4967 -0.1765 -0.6185
25304SOL     OW77918   3.399   6.073   8.803 -0.2078 -0.1376  0.3054
25304SOL    HW177919   3.303   6.077   8.808 -0.1697  0.5597  0.5584
25304SOL    HW277920   3.427   6.072   8.895 -0.0135 -1.7985  0.2665
25305SOL     OW77921   9.950   3.843   7.807  0.0239 -0.0813 -0.1357
25305SOL    HW177922   9.877   3.905   7.805 -0.9741 -1.2249 -0.3908
25305SOL    HW277923   9.994   3.862   7.890 -1.1900 -0.0606  0.5376
25306SOL     OW77924   6.536   5.026  10.170 -0.5390 -0.4436 -0.2228
25306SOL    HW177925   6.456   4.984  10.138  0.1898 -1.1783 -1.1654
25306SOL    HW277926   6.526   5.029  10.265 -1.5199 -0.8762 -0.3022
25307SOL     OW77927   5.846   7.798   8.551  0.5728  0.1140 -0.2708
25307SOL    HW177928   5.916   7.836   8.497  2.5090 -0.9545  1.3439
25307SOL    HW277929   5.890   7.731   8.603 -2.1189 -2.4063 -0.9321
25308SOL     OW77930   1.879   6.830  10.532 -0.2303 -0.8007  0.6957
25308SOL    HW177931   1.879   6.881  10.613 -1.6327  2.0468 -0.9635
25308SOL    HW277932   1.788   6.799  10.524 -0.0243 -1.3293  0.3403
25309SOL     OW77933   5.209   3.794   2.078 -1.2083  0.2374 -0.4545
25309SOL    HW177934   5.186   3.757   1.993  0.0178 -0.1959 -0.6183
25309SOL    HW277935   5.283   3.852   2.060 -1.2911  0.5795  0.2385
25310SOL     OW77936   4.686   9.681   5.638  0.2856 -0.8202 -0.0032
25310SOL    HW177937   4.608   9.718   5.680 -0.2610 -1.2976 -0.5902
25310SOL    HW277938   4.729   9.631   5.708  1.8145  1.9677  1.2394
25311SOL     OW77939   0.414   8.199   2.326 -0.3520 -0.0327  0.3048
25311SOL    HW177940   0.365   8.119   2.306  0.1367  0.0456 -1.3479
25311SOL    HW277941   0.350   8.269   2.314 -0.2306 -0.0358 -0.4346
25312SOL     OW77942   6.249   4.669  10.259 -0.3576  0.3523 -0.0868
25312SOL    HW177943   6.165   4.653  10.217 -0.7063  0.5284  0.5307
25312SOL    HW277944   6.307   4.601  10.224 -1.2642 -0.9850  0.9308
25313SOL     OW77945   8.704  10.365   8.978 -0.0843 -0.1908 -0.2666
25313SOL    HW177946   8.695  10.371   9.073  0.3274 -0.6035 -0.1974
25313SOL    HW277947   8.749  10.282   8.964  0.2236  0.0634 -0.7970
25314SOL     OW77948   3.071   7.806   2.209 -0.1677  0.5584 -0.0027
25314SOL    HW177949   3.093   7.891   2.171 -1.9058  1.2342  0.3866
25314SOL    HW277950   3.005   7.770   2.149  1.4352 -1.1225 -0.8532
25315SOL     OW77951   9.983   1.454   8.390 -0.9823  0.1372  0.5030
25315SOL    HW177952  10.053   1.391   8.407  0.6025  0.4088 -3.7097
25315SOL    HW277953  10.013   1.535   8.430 -0.0990 -0.3467  0.8599
25316SOL     OW77954   4.527   2.917  10.611 -0.0829 -0.1177  0.2196
25316SOL    HW177955   4.511   2.887  10.521 -1.8711  0.4334  0.3134
25316SOL    HW277956   4.615   2.955  10.608  0.6980 -1.8279 -0.8070
25317SOL     OW77957   2.220   9.639   4.285 -0.3709  0.1296  0.0758
25317SOL    HW177958   2.157   9.601   4.224  0.5949 -2.0720  0.3682
25317SOL    HW277959   2.285   9.681   4.229 -1.0596  0.7499 -0.2799
25318SOL     OW77960   2.530   3.355   1.500 -0.5922  0.1894 -0.4947
25318SOL    HW177961   2.556   3.368   1.409 -0.1512 -1.7010 -0.6778
25318SOL    HW277962   2.436   3.372   1.501 -0.5292  0.6063 -1.2147
25319SOL     OW77963   6.716   6.646   5.259 -0.5718 -0.3571  0.3102
25319SOL    HW177964   6.702   6.657   5.165 -0.5155  0.2905  0.3774
25319SOL    HW277965   6.628   6.641   5.296 -0.6014 -1.7953  0.0956
25320SOL     OW77966   8.621   1.175   0.640  0.0888 -0.3691  0.4789
25320SOL    HW177967   8.559   1.205   0.706 -0.7932  0.7082 -0.7835
25320SOL    HW277968   8.599   1.083   0.626 -2.3462  0.3571 -1.0593
25321SOL     OW77969   2.998   7.701   2.465  0.1815  0.0286  0.0278
25321SOL    HW177970   3.039   7.726   2.382 -0.6173  1.5627  0.0613
25321SOL    HW277971   3.048   7.747   2.532 -1.2511  1.5633  0.1007
25322SOL     OW77972  11.006   5.236   9.177  0.2995 -0.1241 -0.1848
25322SOL    HW177973  11.014   5.157   9.232 -0.4999  0.3418  0.6280
25322SOL    HW277974  10.991   5.307   9.240  0.8930  0.6673 -0.9181
25323SOL     OW77975   1.729   7.780   6.729  0.1227  0.1317 -0.8449
25323SOL    HW177976   1.818   7.767   6.761 -0.1171  0.3414 -0.0746
25323SOL    HW277977   1.735   7.765   6.635  1.0830  0.6758 -0.8874
25324SOL     OW77978   5.721   4.727   0.265  0.0593  1.0574  0.2828
25324SOL    HW177979   5.666   4.653   0.292  1.7614 -0.5948 -0.4823
25324SOL    HW277980   5.708   4.733   0.170  3.2480 -1.3826 -0.5142
25325SOL     OW77981   5.456   6.415   5.492  0.5636 -0.3156  0.5507
25325SOL    HW177982   5.534   6.374   5.528 -1.0829 -1.9008  2.6188
25325SOL    HW277983   5.405   6.342   5.456  0.4421  0.7974 -1.7362
25326SOL     OW77984   9.409   5.437   1.222 -0.2268 -0.1496  0.0070
25326SOL    HW177985   9.391   5.410   1.132  1.0857 -0.6933 -0.1138
25326SOL    HW277986   9.339   5.498   1.243  0.7855  1.9756 -2.2711
25327SOL     OW77987   9.263   4.575   3.896  0.0757  0.6698 -0.1055
25327SOL    HW177988   9.331   4.516   3.931  1.2978  1.5812 -0.8779
25327SOL    HW277989   9.198   4.578   3.966  1.3455  0.6141  1.1494
25328SOL     OW77990   0.687   0.254   7.634 -0.1190 -0.0210  0.7431
25328SOL    HW177991   0.689   0.193   7.560 -0.2315 -0.7054  1.2956
25328SOL    HW277992   0.594   0.263   7.655 -0.3409  2.1508 -0.7788
25329SOL     OW77993   8.228  10.994   2.795  0.3203  0.1450  0.1721
25329SOL    HW177994   8.280  11.019   2.719 -1.6486 -1.7020 -1.9453
25329SOL    HW277995   8.284  10.934   2.844  1.0078 -0.0245 -0.7919
25330SOL     OW77996   8.367   2.810  10.435 -0.0395  0.1656  0.1857
25330SOL    HW177997   8.428   2.768  10.496  0.9011 -1.0634 -1.5497
25330SOL    HW277998   8.309   2.740  10.406  0.5974  0.3353 -1.6019
25331SOL     OW77999   4.779   4.579   5.059 -0.4110  0.0996 -0.1284
25331SOL    HW178000   4.745   4.589   5.148  0.7393 -0.3713  0.3820
25331SOL    HW278001   4.746   4.494   5.030 -0.7910  0.2563 -0.1674
25332SOL     OW78002   0.024   3.116   8.481 -0.8104  0.5183  0.3098
25332SOL    HW178003  -0.061   3.119   8.438 -0.7312  0.4861  0.1512
25332SOL    HW278004   0.087   3.123   8.410 -0.6786  0.3905  0.4145
25333SOL     OW78005   9.171   6.187   8.696 -0.5629  0.6711 -0.1265
25333SOL    HW178006   9.254   6.212   8.735 -0.0770  1.8721 -1.8145
25333SOL    HW278007   9.193   6.155   8.608 -1.7130 -0.8916  0.0896
25334SOL     OW78008   5.897   0.421   7.457  0.0868  0.0302  0.0222
25334SOL    HW178009   5.865   0.426   7.547  0.1149  0.7354 -0.0087
25334SOL    HW278010   5.836   0.361   7.414 -0.0195 -0.1857  0.4674
25335SOL     OW78011   1.392   8.311   6.387  0.1297 -0.2035 -0.0459
25335SOL    HW178012   1.365   8.369   6.316  0.9976 -0.9733 -1.0363
25335SOL    HW278013   1.455   8.251   6.347  0.8956 -0.4538  1.4488
25336SOL     OW78014   3.604   1.973   7.868  0.5997  0.0318 -0.2682
25336SOL    HW178015   3.566   2.023   7.795  1.5593  1.4670  0.1782
25336SOL    HW278016   3.680   2.024   7.895  0.3507 -0.5486  1.6534
25337SOL     OW78017   2.778  10.621   3.103  0.6648  0.1818  0.2893
25337SOL    HW178018   2.720  10.616   3.179  0.2154 -1.5309 -0.1301
25337SOL    HW278019   2.866  10.605   3.137  0.6462  0.8087  0.6387
25338SOL     OW78020   3.045   2.567   8.833  0.1968 -0.3023 -0.6625
25338SOL    HW178021   3.112   2.502   8.811  0.0165 -0.1553 -1.7010
25338SOL    HW278022   3.090   2.651   8.825  0.4158 -0.2765  0.6287
25339SOL     OW78023   0.343   9.038   3.367  0.0659 -0.2168 -0.5058
25339SOL    HW178024   0.253   9.070   3.376  0.2121 -0.0300  0.3733
25339SOL    HW278025   0.354   9.022   3.273 -0.1100  2.0332 -0.9641
25340SOL     OW78026   6.829   2.332   7.088 -0.2241 -0.3266 -0.3787
25340SOL    HW178027   6.766   2.329   7.016 -0.3421  0.0730 -0.2950
25340SOL    HW278028   6.852   2.425   7.097  0.3265 -0.4599 -0.3623
25341SOL     OW78029   7.076   6.345   8.906 -0.1012 -0.0154 -0.0777
25341SOL    HW178030   6.991   6.367   8.944 -0.3097  0.4267 -0.7748
25341SOL    HW278031   7.118   6.429   8.888  0.6181 -0.2347  0.5325
25342SOL     OW78032   8.906  10.851   4.213 -0.1023 -0.3998 -0.4669
25342SOL    HW178033   8.863  10.815   4.291 -1.2995  0.6829 -0.6023
25342SOL    HW278034   8.835  10.865   4.151  0.5625  0.5852 -1.0309
25343SOL     OW78035   7.963   8.367   8.804  0.5732 -0.2129 -0.4745
25343SOL    HW178036   8.034   8.393   8.863 -0.0776  1.4745 -0.3904
25343SOL    HW278037   7.899   8.324   8.862  0.8860 -0.4676 -0.3135
25344SOL     OW78038   0.482   0.019   5.860  0.6205 -0.3587  1.0040
25344SOL    HW178039   0.433  -0.006   5.782  0.5429  1.4680  0.4195
25344SOL    HW278040   0.423   0.001   5.933  0.4461 -1.4535  0.6215
25345SOL     OW78041   7.984   6.490   4.634  0.0104  0.5558  0.0951
25345SOL    HW178042   8.022   6.535   4.559 -0.0323  1.2750  0.5038
25345SOL    HW278043   8.035   6.409   4.641  1.1343  1.2550  0.3002
25346SOL     OW78044  10.466   2.757   9.015 -0.2923  0.0804  0.0540
25346SOL    HW178045  10.426   2.775   9.100  0.3317  0.1543  0.3426
25346SOL    HW278046  10.516   2.836   8.995  0.8906 -0.5558  0.4037
25347SOL     OW78047   6.306   5.457   6.463  0.4325  0.4359  0.6684
25347SOL    HW178048   6.268   5.370   6.452 -0.2746  0.7669  0.4157
25347SOL    HW278049   6.380   5.458   6.403 -0.3857  0.4712 -0.3843
25348SOL     OW78050   3.221   7.776   8.388  0.4523  0.0629 -0.4833
25348SOL    HW178051   3.289   7.844   8.385  2.6486 -2.0308 -0.5014
25348SOL    HW278052   3.149   7.817   8.436  2.8528  1.4305  2.2577
25349SOL     OW78053   7.270   5.684   4.374  0.7161 -0.0086 -0.4669
25349SOL    HW178054   7.273   5.664   4.467  1.4346  0.6371 -0.3440
25349SOL    HW278055   7.204   5.624   4.338 -0.7646  0.8197  0.7229
25350SOL     OW78056   4.080   2.902   4.540 -0.1634  0.0789  0.2154
25350SOL    HW178057   4.171   2.870   4.539 -0.1276  0.0499 -1.9255
25350SOL    HW278058   4.076   2.962   4.614  1.0849 -1.2916  1.4638
25351SOL     OW78059  10.665   3.546   1.732 -0.2330  0.7234  0.1048
25351SOL    HW178060  10.576   3.581   1.727 -0.3445  0.2778 -1.6693
25351SOL    HW278061  10.652   3.451   1.740  0.0646  0.5288 -1.5366
25352SOL     OW78062   4.224   0.849   0.320 -0.1839  0.1972 -0.2081
25352SOL    HW178063   4.269   0.764   0.326 -0.7166 -0.0980 -0.3093
25352SOL    HW278064   4.131   0.826   0.316 -0.3019  0.7563 -0.8154
25353SOL     OW78065   4.406   8.978  10.945  0.3120 -0.4043 -1.3524
25353SOL    HW178066   4.323   8.934  10.924  0.6467 -1.3628 -0.7411
25353SOL    HW278067   4.439   9.009  10.861  0.0342 -1.2863 -1.8004
25354SOL     OW78068   4.590   6.196   8.702  0.1375 -0.3124 -0.0783
25354SOL    HW178069   4.541   6.191   8.621  1.5769 -0.8358 -0.9569
25354SOL    HW278070   4.677   6.228   8.676  0.2847  0.5923  1.4090
25355SOL     OW78071   9.144   7.350   0.994  0.0620  0.2805  0.1480
25355SOL    HW178072   9.136   7.442   0.970  0.7129  0.1335 -0.6793
25355SOL    HW278073   9.228   7.345   1.040  0.0460  0.0894  0.1551
25356SOL     OW78074   1.872   1.855   4.349  0.3845  0.0363 -0.4323
25356SOL    HW178075   1.918   1.776   4.319  0.3116  0.0386 -0.5519
25356SOL    HW278076   1.808   1.823   4.412 -1.5362 -0.3579 -2.4736
25357SOL     OW78077   3.673   3.379   0.705  0.1980  0.3786  0.1449
25357SOL    HW178078   3.610   3.319   0.745  0.6298 -1.5872 -1.8923
25357SOL    HW278079   3.758   3.350   0.736  0.4901 -0.7928 -1.5951
25358SOL     OW78080   4.389   3.356   0.335  0.2615  0.7149  0.3858
25358SOL    HW178081   4.352   3.441   0.309 -0.7441  0.2822  0.3561
25358SOL    HW278082   4.463   3.343   0.276  1.3725  2.2507  1.3543
25359SOL     OW78083   6.297   5.689   7.241 -0.0251  0.1703 -0.5110
25359SOL    HW178084   6.384   5.696   7.280  0.6003 -1.4160 -1.5309
25359SOL    HW278085   6.238   5.673   7.315  0.7683 -0.2988  0.0286
25360SOL     OW78086   7.866   7.817   7.585 -0.0579 -0.8256 -0.2736
25360SOL    HW178087   7.863   7.912   7.583  1.8395 -0.7208 -0.1889
25360SOL    HW278088   7.902   7.792   7.500  2.2656 -1.2514  0.7574
25361SOL     OW78089   7.400   6.616   1.047 -0.0105 -0.3532  0.2345
25361SOL    HW178090   7.412   6.708   1.024  0.4473 -0.5252 -0.2083
25361SOL    HW278091   7.318   6.616   1.098  1.0728  0.6195  2.1154
25362SOL     OW78092   9.139   7.712   3.353 -0.1491 -0.8809  0.4709
25362SOL    HW178093   9.131   7.726   3.447 -1.9276  0.0105  0.2254
25362SOL    HW278094   9.186   7.789   3.321 -2.5017  0.5392  0.2363
25363SOL     OW78095   5.741   3.266   8.998  0.3189  0.1016  0.0181
25363SOL    HW178096   5.785   3.183   8.978 -1.0840 -0.5458 -0.5202
25363SOL    HW278097   5.779   3.329   8.938 -1.9937 -1.2387 -3.1190
25364SOL     OW78098  10.047   6.553   3.093 -0.3821  0.2945  0.4133
25364SOL    HW178099   9.968   6.516   3.130 -0.2248  0.5306  0.9874
25364SOL    HW278100  10.027   6.646   3.080 -0.4810  0.1896 -0.2174
25365SOL     OW78101   5.848   8.832   0.719  0.1511  0.3420 -0.2989
25365SOL    HW178102   5.904   8.865   0.789  0.5517 -1.2760  0.2055
25365SOL    HW278103   5.768   8.884   0.725  0.5293  0.8285  0.7825
25366SOL     OW78104   0.395   7.031   1.323 -0.0969  0.0970 -0.2581
25366SOL    HW178105   0.400   7.118   1.364 -0.8420  0.3352 -0.6444
25366SOL    HW278106   0.337   7.044   1.248  0.3350 -0.5905 -0.7130
25367SOL     OW78107   1.383   6.019   0.212 -0.0212 -0.0016  0.1718
25367SOL    HW178108   1.336   5.994   0.292 -1.4077  1.1151 -0.2381
25367SOL    HW278109   1.453   6.076   0.242 -0.3292  0.1408  0.6311
25368SOL     OW78110   3.967   5.475  10.008  0.1243  0.4019 -0.1428
25368SOL    HW178111   3.972   5.571  10.007  0.0595  0.4096  0.1151
25368SOL    HW278112   4.058   5.447  10.016  0.4693  0.3662 -3.2223
25369SOL     OW78113   6.650   1.351   7.913  0.5797 -0.4459  0.6066
25369SOL    HW178114   6.623   1.437   7.947  1.2782  0.4548 -1.0189
25369SOL    HW278115   6.568   1.306   7.895  0.1726  0.3944  0.2698
25370SOL     OW78116   4.031   9.187  10.886  0.1973  0.0517 -0.0904
25370SOL    HW178117   4.093   9.191  10.958  0.7347 -1.3713 -0.4420
25370SOL    HW278118   3.949   9.220  10.922  0.5376 -0.3445  1.0759
25371SOL     OW78119   6.544   5.110   4.391  0.3796 -0.6437  0.6616
25371SOL    HW178120   6.586   5.160   4.461 -1.3632  0.4165  1.0040
25371SOL    HW278121   6.569   5.019   4.408  2.4829 -0.0686  0.8440
25372SOL     OW78122   6.847   9.630   4.513 -0.2958  0.2288  0.0547
25372SOL    HW178123   6.866   9.712   4.559 -1.5316  1.1627 -1.0241
25372SOL    HW278124   6.823   9.569   4.583  0.0528  0.9479  0.8254
25373SOL     OW78125   8.816  10.026   6.583 -0.4467 -0.3322 -0.3220
25373SOL    HW178126   8.898   9.986   6.556  0.2628 -0.0909  1.3706
25373SOL    HW278127   8.750   9.958   6.570  0.6498 -1.9468  2.0281
25374SOL     OW78128   2.801   9.091   8.302  0.2263  0.5180 -0.4742
25374SOL    HW178129   2.836   9.013   8.259  0.7920 -0.8455  2.2149
25374SOL    HW278130   2.870   9.156   8.292  2.0546 -0.9623  1.5010
25375SOL     OW78131   0.992   9.416   2.654  0.0625  0.1779  0.6267
25375SOL    HW178132   0.908   9.391   2.692  0.7816 -0.8255  1.5878
25375SOL    HW278133   1.023   9.337   2.609  1.7790 -0.3816  2.6469
25376SOL     OW78134   9.915   0.593   8.327  0.0368 -0.0537  0.0012
25376SOL    HW178135   9.950   0.504   8.319  1.2119  0.4714 -0.8644
25376SOL    HW278136   9.820   0.581   8.322  0.1716 -1.2711  0.0267
25377SOL     OW78137   9.952   4.761   0.462  0.3865 -0.0878  0.6838
25377SOL    HW178138  10.004   4.681   0.456 -1.0008 -1.0463  0.7200
25377SOL    HW278139   9.919   4.762   0.552  1.2557  1.1267  1.0120
25378SOL     OW78140   7.663   0.358  10.264 -0.2364  0.2252 -0.0459
25378SOL    HW178141   7.587   0.310  10.298  0.9291 -1.3112  0.4828
25378SOL    HW278142   7.686   0.313  10.183  0.8022 -0.0459  0.3873
25379SOL     OW78143   3.666  10.336   5.282 -0.0654 -0.4368 -0.2226
25379SOL    HW178144   3.728  10.407   5.300  0.2742 -0.9224  0.6133
25379SOL    HW278145   3.680  10.274   5.354 -1.1761 -0.7917 -0.2921
25380SOL     OW78146   6.937   8.190   8.037  0.5578 -0.4154  0.4941
25380SOL    HW178147   7.032   8.176   8.037  0.6102 -0.0660  0.4669
25380SOL    HW278148   6.900   8.102   8.029  0.8556 -0.7055  1.9219
25381SOL     OW78149  10.207   3.449   8.484  0.2537 -0.2759 -0.7064
25381SOL    HW178150  10.188   3.491   8.400 -0.6026 -0.7637 -0.7709
25381SOL    HW278151  10.151   3.494   8.547 -2.1422 -2.4637 -1.0866
25382SOL     OW78152   9.637   6.137   7.192  0.4136 -0.0020  0.7424
25382SOL    HW178153   9.721   6.150   7.234  1.2611 -0.1353 -0.8426
25382SOL    HW278154   9.640   6.047   7.160 -0.8428 -0.4284  1.7337
25383SOL     OW78155   1.779   5.801  10.763 -0.2109 -0.4503 -0.0389
25383SOL    HW178156   1.697   5.851  10.764  0.3794  0.6939  3.2280
25383SOL    HW278157   1.835   5.848  10.701 -0.9380  0.7464  0.1652
25384SOL     OW78158   6.193   9.126   7.083 -0.6613  0.2889  0.3113
25384SOL    HW178159   6.138   9.082   7.148 -1.8190  2.6811  1.0450
25384SOL    HW278160   6.156   9.214   7.076 -0.5347  0.1762 -3.5688
25385SOL     OW78161   7.481  10.719   6.195 -0.1437  0.0392  0.0535
25385SOL    HW178162   7.441  10.761   6.272 -2.3070 -2.3828  0.3712
25385SOL    HW278163   7.430  10.751   6.121  1.5138  1.8446 -0.3967
25386SOL     OW78164   0.262   8.343   5.172 -0.0452 -0.5104 -0.6507
25386SOL    HW178165   0.266   8.381   5.084  0.0290  0.4022 -0.2643
25386SOL    HW278166   0.191   8.390   5.215  1.1143  0.3941  0.3729
25387SOL     OW78167   5.115   9.776   3.454  0.0744  0.6316 -0.1211
25387SOL    HW178168   5.096   9.738   3.368 -1.5265 -0.6880  0.7406
25387SOL    HW278169   5.190   9.726   3.486 -0.1060  0.2759 -0.2495
25388SOL     OW78170   9.305   8.390   9.705 -0.0257 -0.4845  0.0106
25388SOL    HW178171   9.332   8.432   9.624 -3.4624  3.5042  0.6150
25388SOL    HW278172   9.227   8.340   9.681 -1.4285  1.2186  0.8146
25389SOL     OW78173   4.100  10.800   5.699 -0.0106 -0.1662 -0.5976
25389SOL    HW178174   4.008  10.821   5.682 -0.2651  1.4824  2.1086
25389SOL    HW278175   4.098  10.716   5.745 -0.5430  1.1806  2.0071
25390SOL     OW78176   1.632   0.262   6.486  0.5142  0.2332 -0.2470
25390SOL    HW178177   1.669   0.175   6.494  0.5122  0.2124 -0.4727
25390SOL    HW278178   1.614   0.273   6.393 -2.0476 -0.5842  0.0532
25391SOL     OW78179   4.839   8.011   6.839 -0.7181  0.5391 -0.3541
25391SOL    HW178180   4.806   8.027   6.927 -0.8225  1.7469 -0.5876
25391SOL    HW278181   4.889   8.089   6.817  0.5508 -0.3744 -0.8170
25392SOL     OW78182   2.685   3.488   4.000 -0.3094 -0.8451 -0.0502
25392SOL    HW178183   2.755   3.528   3.949  0.0872 -0.0548  1.0722
25392SOL    HW278184   2.605   3.510   3.952  0.1661 -1.4853 -1.1716
25393SOL     OW78185   0.664   6.834   5.384  1.1450 -0.2613  0.0362
25393SOL    HW178186   0.724   6.780   5.436  1.5923  1.0497  0.9501
25393SOL    HW278187   0.637   6.777   5.312  2.3379 -1.3721  0.4132
25394SOL     OW78188   4.292   3.607   0.352 -0.4547 -0.0308 -0.1530
25394SOL    HW178189   4.212   3.607   0.299 -2.5120 -3.2835  2.5650
25394SOL    HW278190   4.264   3.638   0.438  1.9397  1.5162  0.1589
25395SOL     OW78191   7.870   1.175   8.881 -0.2625 -0.2244 -0.8886
25395SOL    HW178192   7.798   1.199   8.939 -0.5634 -0.7969 -1.0097
25395SOL    HW278193   7.943   1.229   8.909 -0.9920  1.0587 -1.3643
25396SOL     OW78194   7.691  10.517   9.143 -0.6203  0.2039  0.1521
25396SOL    HW178195   7.702  10.470   9.060  0.9350  1.8909 -0.6770
25396SOL    HW278196   7.711  10.452   9.210 -1.5427 -1.1005 -0.7823
25397SOL     OW78197   8.128  10.667   4.400 -0.0121  0.3611 -0.3808
25397SOL    HW178198   8.185  10.743   4.390  0.8449 -0.1642  0.3872
25397SOL    HW278199   8.187  10.593   4.411 -0.8313 -0.4509 -1.2347
25398SOL     OW78200   7.320   4.667   6.235  0.1344 -0.3850  0.3165
25398SOL    HW178201   7.304   4.634   6.147  1.3692  1.4210 -0.6504
25398SOL    HW278202   7.415   4.663   6.246  0.2917  2.0831  0.3709
25399SOL     OW78203   9.461   7.994   9.920 -0.6176  0.1500  0.0624
25399SOL    HW178204   9.467   7.959  10.008 -0.4073 -0.2830 -0.1208
25399SOL    HW278205   9.407   8.073   9.928  1.3397  1.4778  0.9987
25400SOL     OW78206   8.329   3.050   1.746 -0.0324 -0.3273 -0.2820
25400SOL    HW178207   8.301   3.119   1.806  0.9617 -0.6107  0.5290
25400SOL    HW278208   8.310   3.086   1.659 -0.5027  0.5292  0.1573
25401SOL     OW78209   6.366   6.337   1.354 -0.3812  0.7853 -0.2077
25401SOL    HW178210   6.449   6.381   1.338  0.5822 -0.0782  2.0636
25401SOL    HW278211   6.387   6.265   1.412 -2.4412 -0.7014 -1.1665
25402SOL     OW78212   0.137   1.831   5.855 -0.0762 -0.0762 -0.3536
25402SOL    HW178213   0.099   1.805   5.939 -1.9903 -0.0957 -1.1878
25402SOL    HW278214   0.227   1.797   5.859 -0.1988 -0.3041  1.5641
25403SOL     OW78215   7.343   9.322   2.223  0.6161 -0.1759 -0.5440
25403SOL    HW178216   7.249   9.342   2.230  0.6275  0.7621 -2.3350
25403SOL    HW278217   7.386   9.402   2.253  0.8581 -0.4959 -0.0209
25404SOL     OW78218   9.299   5.548   9.175  0.1632 -0.4742 -0.0558
25404SOL    HW178219   9.352   5.480   9.216  0.6261  0.6119  1.2054
25404SOL    HW278220   9.211   5.509   9.168  0.3675 -1.1132  0.8680
25405SOL     OW78221   3.443   0.007   1.494 -0.0630 -0.4042  0.3282
25405SOL    HW178222   3.448   0.017   1.399  0.2343 -0.8118  0.2973
25405SOL    HW278223   3.351  -0.013   1.511  0.0209 -1.0646  0.0475
25406SOL     OW78224   3.313   2.486   2.001  0.2684 -0.3345  0.2078
25406SOL    HW178225   3.343   2.400   2.032 -0.0224 -0.3530  0.4503
25406SOL    HW278226   3.318   2.541   2.079  0.5534 -0.1037  0.0264
25407SOL     OW78227   2.482   4.897   1.475  0.0237 -0.0257 -0.6052
25407SOL    HW178228   2.515   4.814   1.441  0.8475 -0.2898  0.7616
25407SOL    HW278229   2.389   4.882   1.491  0.2838 -0.9000  0.1924
25408SOL     OW78230   2.013  10.105   4.854  0.0843  0.1812  0.2164
25408SOL    HW178231   2.084  10.169   4.842 -0.4784  1.4258  2.7638
25408SOL    HW278232   1.933  10.157   4.854 -0.4943 -0.6627  1.1809
25409SOL     OW78233   1.480   2.385   8.923  0.0720 -0.1719 -0.1047
25409SOL    HW178234   1.446   2.314   8.978  0.1309  0.2377  0.4736
25409SOL    HW278235   1.508   2.342   8.843  0.8483 -0.9153  0.5486
25410SOL     OW78236   6.131  10.069   8.312  0.1349 -0.4342 -0.0163
25410SOL    HW178237   6.079  10.039   8.386  0.2356  0.1191  0.2772
25410SOL    HW278238   6.165  10.154   8.338 -0.4903  0.1409 -1.0069
25411SOL     OW78239   4.444   3.232   8.184  0.1783  0.5967  0.0316
25411SOL    HW178240   4.441   3.188   8.269  0.1041  2.2247  0.9062
25411SOL    HW278241   4.376   3.189   8.133  0.3939 -0.5855  0.6824
25412SOL     OW78242   8.623  10.547  10.224  0.0275  0.1439 -0.4288
25412SOL    HW178243   8.627  10.611  10.153  0.7510 -0.9925 -1.4412
25412SOL    HW278244   8.667  10.469  10.190 -1.5718 -1.2179  0.4698
25413SOL     OW78245   8.832   6.382   3.472  0.2640 -0.6172  0.1833
25413SOL    HW178246   8.891   6.394   3.546  1.0570  0.1462 -0.5365
25413SOL    HW278247   8.879   6.421   3.398 -0.5371 -1.2783 -0.7031
25414SOL     OW78248   6.594   8.715   0.013  0.1446 -0.2664  0.1731
25414SOL    HW178249   6.674   8.745   0.058  0.1985  1.1194 -0.7812
25414SOL    HW278250   6.626   8.662  -0.059  0.2397  0.4747 -0.3453
25415SOL     OW78251   5.692   1.745   1.536 -0.1997 -0.0760 -0.2313
25415SOL    HW178252   5.755   1.681   1.505 -0.7716  0.4335 -2.6461
25415SOL    HW278253   5.655   1.707   1.616  0.1332 -2.3125 -1.0943
25416SOL     OW78254   4.283   5.121   1.757 -0.5456 -0.8262 -0.4444
25416SOL    HW178255   4.365   5.088   1.791 -0.0378  0.1965 -0.6407
25416SOL    HW278256   4.222   5.115   1.830 -0.5089 -2.3017 -0.5204
25417SOL     OW78257   6.221   1.115   7.009 -0.1291 -0.2099  0.3290
25417SOL    HW178258   6.295   1.158   6.967 -0.6094  0.0335 -0.2864
25417SOL    HW278259   6.256   1.030   7.036  0.1643 -0.4329 -0.6964
25418SOL     OW78260  10.607   8.279   4.250 -0.2039 -0.0734 -0.1943
25418SOL    HW178261  10.682   8.219   4.246 -0.4190 -0.2944 -1.2922
25418SOL    HW278262  10.559   8.263   4.168 -1.7935 -0.3726  0.7528
25419SOL     OW78263   0.024   0.113   2.268  0.1914 -0.0070  0.3145
25419SOL    HW178264   0.011   0.192   2.217  0.8040  0.1738  0.4333
25419SOL    HW278265   0.008   0.139   2.359 -1.6941 -0.5114  0.1589
25420SOL     OW78266   6.213   1.482   7.403 -0.1063 -0.2984  0.2109
25420SOL    HW178267   6.303   1.499   7.429 -0.6221 -0.9515  2.7043
25420SOL    HW278268   6.166   1.563   7.424 -0.1348  0.0364 -1.0672
25421SOL     OW78269   8.140   1.562   6.484 -0.3236 -0.0241 -0.3144
25421SOL    HW178270   8.104   1.612   6.410 -2.0288  0.3760  0.7171
25421SOL    HW278271   8.131   1.471   6.457  1.6563  0.1258 -1.7012
25422SOL     OW78272   3.066   7.119   1.348  0.3054  0.1769  0.6128
25422SOL    HW178273   3.145   7.071   1.324 -0.3874 -1.4547  1.3885
25422SOL    HW278274   3.033   7.073   1.425 -1.5500  0.6416  0.1397
25423SOL     OW78275  10.474   1.790   8.219 -0.0493 -0.5508 -0.0723
25423SOL    HW178276  10.521   1.820   8.297 -0.4816 -0.0405 -0.0063
25423SOL    HW278277  10.447   1.871   8.175 -0.6807 -0.8422 -0.2256
25424SOL     OW78278   6.547   9.214   6.617 -0.6127  0.5487 -0.3201
25424SOL    HW178279   6.549   9.241   6.525 -2.8801 -1.6369 -1.1125
25424SOL    HW278280   6.457   9.183   6.631 -0.6702  1.7827  2.9740
25425SOL     OW78281   7.041   6.042  10.273  0.0521  0.1218  0.3724
25425SOL    HW178282   6.975   6.052  10.204  0.8404  0.7410 -0.3216
25425SOL    HW278283   7.105   5.981  10.235  1.0153  1.2475  0.1227
25426SOL     OW78284   7.077   3.383   9.960  0.0507 -0.0498 -0.4333
25426SOL    HW178285   7.015   3.397   9.888  0.1979  2.4069 -0.1665
25426SOL    HW278286   7.109   3.471   9.981  0.9849 -0.8611  1.7877
25427SOL     OW78287   5.505   8.103   2.279 -0.5128 -0.3989  0.4961
25427SOL    HW178288   5.494   8.008   2.292  1.1750 -1.1678 -2.6193
25427SOL    HW278289   5.544   8.134   2.360  3.0659 -3.3107  0.1655
25428SOL     OW78290   7.955  10.994   0.686 -0.0241 -0.7495  1.0247
25428SOL    HW178291   8.021  10.925   0.679  0.6174 -0.0460 -0.1721
25428SOL    HW278292   7.883  10.963   0.632  0.0601 -0.7101  0.8893
25429SOL     OW78293   9.548   8.244   9.608  0.9027  0.4953 -0.4661
25429SOL    HW178294   9.556   8.328   9.653 -2.3612  0.6592  0.0934
25429SOL    HW278295   9.455   8.221   9.616  0.7560 -1.1191 -4.2403
25430SOL     OW78296   2.439  10.271   2.744  0.1279  0.1378 -0.6056
25430SOL    HW178297   2.435  10.301   2.653  2.6136  0.0723 -0.8156
25430SOL    HW278298   2.499  10.332   2.787 -0.3172 -0.3564  0.7644
25431SOL     OW78299   6.810   0.976   2.578  0.0792  0.2489 -0.5284
25431SOL    HW178300   6.821   0.958   2.672 -0.3498 -0.1720 -0.5514
25431SOL    HW278301   6.716   0.990   2.568  0.3887  2.8123 -0.4812
25432SOL     OW78302   4.719   3.899   5.286  0.8132 -0.8905 -0.3338
25432SOL    HW178303   4.667   3.833   5.241 -0.8925  1.3672 -1.8866
25432SOL    HW278304   4.672   3.913   5.368  1.8335 -2.3231  0.5579
25433SOL     OW78305   5.926   4.105   3.258  0.0763 -0.2482  0.2322
25433SOL    HW178306   5.856   4.096   3.193 -0.9264  1.4773  1.0123
25433SOL    HW278307   5.880   4.121   3.341  1.3874  1.0345  0.7506
25434SOL     OW78308   3.134   2.009   8.652 -0.0804 -0.3999 -0.6483
25434SOL    HW178309   3.072   1.943   8.683  0.5103 -1.0516 -0.8227
25434SOL    HW278310   3.214   1.993   8.703 -0.0936  0.5285 -0.3137
25435SOL     OW78311   0.618   8.456   2.802 -0.1139  0.0546  0.5152
25435SOL    HW178312   0.682   8.385   2.800 -0.0224  0.1547 -1.3374
25435SOL    HW278313   0.535   8.416   2.778 -0.1885  0.4421  0.1085
25436SOL     OW78314   5.047   9.037   9.297 -0.4111 -0.3912 -0.6472
25436SOL    HW178315   5.131   9.036   9.344 -1.7844  0.2714  2.0502
25436SOL    HW278316   5.023   8.944   9.289  0.6541 -0.5969 -1.6499
25437SOL     OW78317   5.539   5.130   3.804 -0.0106  0.4767 -0.0275
25437SOL    HW178318   5.595   5.064   3.845  1.6373  1.3237 -0.8253
25437SOL    HW278319   5.517   5.093   3.719  0.4498  0.7042 -0.2488
25438SOL     OW78320   6.429   4.710   6.091 -0.6065 -0.0184 -0.5154
25438SOL    HW178321   6.358   4.732   6.031 -1.9108 -1.0969  0.5548
25438SOL    HW278322   6.404   4.751   6.174  0.8655  0.9522 -0.5080
25439SOL     OW78323   3.849   9.738   4.526 -0.3220  0.1668  0.2912
25439SOL    HW178324   3.804   9.708   4.605 -1.2944 -0.4961 -0.4977
25439SOL    HW278325   3.781   9.739   4.459  1.1774 -2.6698 -1.4237
25440SOL     OW78326   4.596   8.387   1.086 -0.0014  0.3513 -0.2934
25440SOL    HW178327   4.598   8.356   0.995  1.6971 -1.0035  0.1662
25440SOL    HW278328   4.621   8.311   1.138 -0.8146  1.1494  1.3346
25441SOL     OW78329   6.053   0.584   1.648 -0.0875  0.0932 -0.8378
25441SOL    HW178330   6.038   0.522   1.719  1.7489  0.3339 -0.1949
25441SOL    HW278331   6.062   0.669   1.691 -0.3778  0.4657 -1.4952
25442SOL     OW78332   7.348   8.241   5.785 -0.3403 -0.0445  0.2071
25442SOL    HW178333   7.261   8.202   5.791 -0.3661  0.1404  1.1350
25442SOL    HW278334   7.365   8.248   5.691 -1.4152  0.1179  0.0130
25443SOL     OW78335   0.407  10.320   2.628  0.6521 -0.6728 -0.0082
25443SOL    HW178336   0.355  10.242   2.645  0.9358 -0.9164 -0.2461
25443SOL    HW278337   0.492  10.302   2.668  1.1358 -1.0147 -1.1675
25444SOL     OW78338  10.706  10.055   1.508 -0.0395 -0.5871  0.1258
25444SOL    HW178339  10.617  10.058   1.543 -0.6260  0.2179 -1.3370
25444SOL    HW278340  10.695  10.072   1.415  1.6702 -0.3483 -0.0552
25445SOL     OW78341   7.793   8.099   4.657  0.1937  0.4191  0.3564
25445SOL    HW178342   7.836   8.031   4.607  0.5200  1.4630 -0.8309
25445SOL    HW278343   7.860   8.166   4.670 -0.1565  0.5925  1.3733
25446SOL     OW78344   2.522   9.753   7.792  0.4234 -0.3610 -0.6256
25446SOL    HW178345   2.610   9.780   7.814  0.5235 -1.3435  0.2678
25446SOL    HW278346   2.467   9.828   7.814  1.0126  0.2165 -1.0859
25447SOL     OW78347   6.547   8.701   9.622 -0.0040 -0.3195 -0.0021
25447SOL    HW178348   6.572   8.664   9.706  1.0467 -3.3932 -1.5051
25447SOL    HW278349   6.457   8.672   9.608 -0.8971  1.8507  0.8217
25448SOL     OW78350   5.539   3.962   6.582 -0.4046  0.0912  0.2669
25448SOL    HW178351   5.583   4.042   6.554 -0.1110 -0.0999  0.1849
25448SOL    HW278352   5.522   3.975   6.675 -0.9521  0.5246  0.1164
25449SOL     OW78353   7.512   8.347   7.341  0.5583  0.6221  0.7760
25449SOL    HW178354   7.504   8.301   7.257  1.5753  2.1554 -0.2249
25449SOL    HW278355   7.432   8.325   7.388  0.6743 -1.5592  0.0776
25450SOL     OW78356   1.366   6.318   5.017 -0.3946 -0.1934  0.3731
25450SOL    HW178357   1.443   6.275   5.052  0.3664 -1.1161 -2.1863
25450SOL    HW278358   1.336   6.261   4.946 -2.4157  0.9935  0.1710
25451SOL     OW78359   5.720   3.933   8.602  0.8689 -0.2079  0.0493
25451SOL    HW178360   5.777   3.893   8.667 -0.2121 -0.1950  1.0403
25451SOL    HW278361   5.751   4.023   8.595 -0.1175  0.3381  1.9462
25452SOL     OW78362   5.748   6.475   4.940 -0.3092 -0.0509  0.1903
25452SOL    HW178363   5.825   6.444   4.986  0.1556 -0.3898 -0.7789
25452SOL    HW278364   5.698   6.523   5.006  1.4704  1.5155  0.4836
25453SOL     OW78365  10.476   5.152   8.430 -0.4961  0.1474  0.2201
25453SOL    HW178366  10.409   5.215   8.460  0.3773  1.1940  0.0395
25453SOL    HW278367  10.427   5.091   8.375 -1.4172  0.5489  0.5594
25454SOL     OW78368   5.402   2.740   2.060 -0.0171  0.3882 -0.4486
25454SOL    HW178369   5.389   2.676   1.990  0.8082  0.1707 -0.4089
25454SOL    HW278370   5.417   2.823   2.014  1.7583  0.0310 -0.5963
25455SOL     OW78371   2.752   3.444  10.906 -0.7988 -0.2892 -0.5940
25455SOL    HW178372   2.804   3.459  10.827 -0.5224 -0.1186 -0.3819
25455SOL    HW278373   2.771   3.520  10.962 -0.8745 -0.4833 -0.3013
25456SOL     OW78374   1.719   9.352   7.603 -0.1089 -0.5459 -0.2111
25456SOL    HW178375   1.771   9.344   7.523 -2.9289  1.7015 -2.4954
25456SOL    HW278376   1.716   9.447   7.620  0.7808 -0.9588  2.9647
25457SOL     OW78377   6.238   0.023   8.006  0.0882 -0.0403 -0.0135
25457SOL    HW178378   6.230  -0.050   8.067 -0.9640  0.0023 -0.0834
25457SOL    HW278379   6.185   0.093   8.044 -0.2658  0.1184 -0.7716
25458SOL     OW78380   8.051   1.263   9.657 -0.1109 -0.0749  0.4594
25458SOL    HW178381   7.984   1.322   9.694 -0.1485  0.5753 -0.6193
25458SOL    HW278382   8.047   1.185   9.713 -1.0696  0.3618  1.0289
25459SOL     OW78383   5.703   2.705   1.968 -0.4872 -0.6274 -0.3625
25459SOL    HW178384   5.647   2.774   2.003  0.0582 -0.7161  0.7327
25459SOL    HW278385   5.697   2.634   2.033  0.7981 -0.6788 -0.2810
25460SOL     OW78386  10.782   5.630   4.221  0.2138 -0.1327  0.3203
25460SOL    HW178387  10.708   5.608   4.277 -1.3106  3.5277  0.0243
25460SOL    HW278388  10.746   5.632   4.133  1.3172 -0.7661 -0.1678
25461SOL     OW78389  10.017  10.583   5.582  0.1648 -0.1547  0.1297
25461SOL    HW178390   9.946  10.646   5.570 -0.0121 -0.6125 -1.4474
25461SOL    HW278391   9.997  10.539   5.665 -1.1854 -0.0080 -0.0963
25462SOL     OW78392   0.017   0.760   4.987  0.2589  0.0050 -0.1891
25462SOL    HW178393   0.022   0.664   4.992  0.6027 -0.1066 -2.0548
25462SOL    HW278394   0.092   0.790   5.038  0.5282 -0.7423 -0.1199
25463SOL     OW78395   2.029   5.271   3.857  0.7876  0.1108  0.9623
25463SOL    HW178396   2.032   5.361   3.888 -2.1248  1.5109 -2.1661
25463SOL    HW278397   2.048   5.277   3.763  1.6367 -2.7518  0.8464
25464SOL     OW78398   4.168   1.429   8.443 -0.7707  0.5469  0.2722
25464SOL    HW178399   4.169   1.509   8.495  1.0355  0.7915 -0.0978
25464SOL    HW278400   4.191   1.458   8.355 -0.6726 -0.3148  0.0061
25465SOL     OW78401   7.208  10.536   4.247 -0.1402  0.2879 -0.4922
25465SOL    HW178402   7.273  10.577   4.190 -1.6749  1.6712 -1.3396
25465SOL    HW278403   7.133  10.521   4.190 -0.8932 -0.4558  0.6674
25466SOL     OW78404   4.939   6.873   1.362 -0.2315  0.6721  0.1008
25466SOL    HW178405   4.895   6.903   1.442  1.1995 -1.2465  1.7072
25466SOL    HW278406   5.026   6.911   1.366 -0.0430  0.3018 -0.3583
25467SOL     OW78407   8.105   5.416   2.008 -0.0263 -0.2713 -0.1197
25467SOL    HW178408   8.190   5.452   2.032 -0.8578  1.2582  0.6527
25467SOL    HW278409   8.090   5.447   1.919 -1.0288  1.9873  0.7641
25468SOL     OW78410   0.203  10.870   8.011 -0.2665 -0.9619  0.1372
25468SOL    HW178411   0.156  10.900   8.089 -0.1627  0.7851 -0.4161
25468SOL    HW278412   0.211  10.776   8.022 -1.3705 -0.9161  1.6225
25469SOL     OW78413   6.457   0.261   7.040  0.3377 -0.1556  0.2263
25469SOL    HW178414   6.448   0.178   6.993 -0.0701 -0.0821  0.1677
25469SOL    HW278415   6.551   0.273   7.050  0.4851  0.3487 -1.4836
25470SOL     OW78416   2.266   5.202   2.943  0.3002 -0.0460  0.1674
25470SOL    HW178417   2.173   5.204   2.966  0.4339  0.0972  0.6924
25470SOL    HW278418   2.269   5.236   2.853 -0.2771 -1.1080 -0.2722
25471SOL     OW78419   5.168  10.480   0.860  0.4927  0.0057 -0.6101
25471SOL    HW178420   5.120  10.511   0.783  1.9632  0.3797 -1.4053
25471SOL    HW278421   5.174  10.556   0.917 -0.9144 -0.3615  0.0825
25472SOL     OW78422   4.106   9.306   3.297 -0.3222  0.3998  0.5762
25472SOL    HW178423   4.199   9.303   3.317 -0.2352  0.9906  0.2774
25472SOL    HW278424   4.067   9.357   3.368 -0.1778  1.5173 -0.1194
25473SOL     OW78425   7.715   7.766   7.816  0.1833  0.3988 -0.1039
25473SOL    HW178426   7.757   7.748   7.732  0.2299  0.2397 -0.0464
25473SOL    HW278427   7.629   7.723   7.810  1.6407 -3.0602  1.3930
25474SOL     OW78428   0.196   4.894  10.950 -0.0976 -0.1290  0.1357
25474SOL    HW178429   0.117   4.944  10.970  0.0317  0.2906 -0.3846
25474SOL    HW278430   0.167   4.802  10.953 -0.4746 -0.0018  0.4872
25475SOL     OW78431  10.468   6.689   6.041 -0.3967  0.0828 -0.1115
25475SOL    HW178432  10.484   6.771   5.994  0.9883  0.8488  1.5736
25475SOL    HW278433  10.537   6.630   6.011 -0.3726  0.0938 -0.0781
25476SOL     OW78434   9.561   6.963   4.164  0.1794  0.3983  0.8330
25476SOL    HW178435   9.582   7.056   4.153  0.1149  0.2783 -0.4222
25476SOL    HW278436   9.555   6.951   4.259 -1.2588  2.0107  0.9993
25477SOL     OW78437   0.994   7.909   9.888  0.1830 -0.6753 -0.0481
25477SOL    HW178438   0.906   7.933   9.860  0.2769 -0.0975  0.1345
25477SOL    HW278439   1.041   7.891   9.807  0.0405 -0.4679 -0.1782
25478SOL     OW78440   3.723   2.196   9.568  0.3035 -0.3228  0.7184
25478SOL    HW178441   3.639   2.159   9.541 -0.2929  1.4881 -0.0520
25478SOL    HW278442   3.782   2.120   9.572 -0.6706 -1.3004 -1.5004
25479SOL     OW78443   5.657   6.018   8.775  0.2868 -0.1980 -0.0162
25479SOL    HW178444   5.705   6.088   8.732  1.4461 -0.3130  1.0133
25479SOL    HW278445   5.703   6.005   8.858 -2.2360  0.4979  1.6167
25480SOL     OW78446  10.290   9.254   6.234 -0.1683  0.0843 -0.2474
25480SOL    HW178447  10.277   9.304   6.154 -2.1853  2.3310  1.3356
25480SOL    HW278448  10.228   9.181   6.228  0.7517 -0.6561 -1.3047
25481SOL     OW78449   9.496   0.094  10.186  0.4289  0.3214 -0.1621
25481SOL    HW178450   9.473   0.048  10.267  2.6339  0.4272  0.5935
25481SOL    HW278451   9.531   0.178  10.216 -1.6032  1.7253 -1.4242
25482SOL     OW78452  10.306   4.401   9.209  0.0525  0.1086  0.1273
25482SOL    HW178453  10.270   4.360   9.131  0.0189  0.1367  0.1279
25482SOL    HW278454  10.238   4.463   9.237 -0.2647 -0.4563  0.6242
25483SOL     OW78455   0.105   1.618   5.027 -0.1633 -0.3955  0.8244
25483SOL    HW178456   0.046   1.637   4.954 -0.0641 -2.5026  0.1374
25483SOL    HW278457   0.185   1.668   5.007  0.2538 -1.7050 -1.1038
25484SOL     OW78458   2.122   9.383   0.804  0.0952  0.0673  0.4304
25484SOL    HW178459   2.098   9.340   0.886  0.1875  2.7200  1.9619
25484SOL    HW278460   2.038   9.406   0.764  0.0162  1.4499  1.3385
25485SOL     OW78461   2.971   7.910   2.716  0.0465 -0.4265  0.8483
25485SOL    HW178462   3.061   7.897   2.686 -0.4161 -1.5343 -0.1485
25485SOL    HW278463   2.975   7.988   2.772  1.1448  1.2342 -1.3760
25486SOL     OW78464   6.522   6.601   9.924 -0.3105 -0.4868  0.1958
25486SOL    HW178465   6.494   6.575  10.011 -0.0434 -0.7354  0.2114
25486SOL    HW278466   6.574   6.527   9.892  0.9512  0.2422  0.4664
25487SOL     OW78467   8.869   8.805   6.277  0.6170 -0.2939  0.6086
25487SOL    HW178468   8.837   8.837   6.193  2.0668 -1.4056 -0.4099
25487SOL    HW278469   8.858   8.880   6.337 -0.2314  0.5852 -0.6119
25488SOL     OW78470   8.954   2.699   4.978  0.3870 -0.3460 -0.1672
25488SOL    HW178471   8.971   2.680   4.886 -1.7869 -0.4608 -0.6063
25488SOL    HW278472   9.009   2.774   4.999  0.1770  0.3006 -1.8448
25489SOL     OW78473   1.240   7.075   7.600  0.3597  0.3587  0.5191
25489SOL    HW178474   1.274   7.149   7.651  0.6015  0.6303 -0.0208
25489SOL    HW278475   1.306   7.007   7.609  0.5383  0.5063  0.3483
25490SOL     OW78476  10.786   1.307   1.845  0.2017 -0.0831 -0.2527
25490SOL    HW178477  10.739   1.327   1.764 -0.1564  3.0400  0.6022
25490SOL    HW278478  10.875   1.338   1.830  0.5667 -0.9734  0.0140
25491SOL     OW78479   1.613   7.839   6.318  0.2596  0.6270 -0.0677
25491SOL    HW178480   1.535   7.827   6.372  0.3286  2.4245  0.5009
25491SOL    HW278481   1.579   7.864   6.232  0.1974 -0.2664 -0.3156
25492SOL     OW78482   9.689   1.229   3.425 -0.2012  0.5706 -0.2834
25492SOL    HW178483   9.600   1.253   3.450 -1.7973 -0.4182 -4.2632
25492SOL    HW278484   9.699   1.138   3.455 -1.1033  0.2130 -1.0293
25493SOL     OW78485   6.317   6.888   9.145  0.2115  0.0421 -0.0022
25493SOL    HW178486   6.246   6.938   9.106  1.1367  1.9114  0.6167
25493SOL    HW278487   6.291   6.796   9.134 -2.8469  0.6403  1.2097
25494SOL     OW78488   8.849   3.606  10.876 -0.1969  0.0959  0.2232
25494SOL    HW178489   8.865   3.514  10.897 -0.6135 -0.2112 -0.7455
25494SOL    HW278490   8.778   3.604  10.811 -0.1669  1.0914  0.1426
25495SOL     OW78491   7.044   4.252   2.143 -0.0089 -0.8559 -0.4544
25495SOL    HW178492   6.954   4.285   2.141  0.6379  1.4023  2.0656
25495SOL    HW278493   7.049   4.202   2.225  1.1913 -0.3993 -0.2381
25496SOL     OW78494   5.966   5.209   9.143  0.5927  0.4791  0.2976
25496SOL    HW178495   5.900   5.190   9.211 -0.5984  2.0614 -0.3626
25496SOL    HW278496   6.049   5.211   9.190 -0.1267  0.8416  1.5982
25497SOL     OW78497   7.976   1.007   2.073  0.1328  0.2154  0.4597
25497SOL    HW178498   7.999   0.924   2.115 -0.7427 -0.3326 -0.1267
25497SOL    HW278499   7.989   0.991   1.980  0.1641  0.8172  0.3543
25498SOL     OW78500   4.320   4.802   3.863  0.1533 -0.1022  0.5141
25498SOL    HW178501   4.367   4.728   3.903  1.7660  1.0201  0.7944
25498SOL    HW278502   4.341   4.876   3.919 -2.0523  0.4581  0.6667
25499SOL     OW78503   8.378   7.435   0.845 -0.6955 -0.0037  0.1743
25499SOL    HW178504   8.370   7.421   0.751 -0.5985  1.3851 -0.0637
25499SOL    HW278505   8.314   7.504   0.864 -2.7740 -2.1687  1.6429
25500SOL     OW78506   5.502   8.113   1.115 -0.2093 -0.1298  0.1859
25500SOL    HW178507   5.522   8.205   1.133  1.2845 -0.2681 -0.6455
25500SOL    HW278508   5.437   8.116   1.045 -2.5017  0.3021  2.1776
25501SOL     OW78509   3.920   3.697   3.951 -0.3524 -0.5833  0.0470
25501SOL    HW178510   3.920   3.757   3.877  0.3882 -0.5734  0.0441
25501SOL    HW278511   4.006   3.709   3.992 -0.3567 -1.3314  0.2989
25502SOL     OW78512   4.887   2.000   4.700  0.1492 -0.0931 -0.1692
25502SOL    HW178513   4.954   2.037   4.642  0.6126  0.0075  0.4169
25502SOL    HW278514   4.805   2.007   4.650  0.3212  1.1859 -0.3060
25503SOL     OW78515   0.251   1.307   3.176 -0.1620 -0.3349  0.7071
25503SOL    HW178516   0.198   1.365   3.231 -0.8120  0.2712 -0.5226
25503SOL    HW278517   0.187   1.249   3.134  0.1245  0.3218 -0.6914
25504SOL     OW78518   7.408   5.050   0.742  0.3035 -0.5346 -0.0977
25504SOL    HW178519   7.333   5.089   0.786 -1.3451 -1.6706 -1.7620
25504SOL    HW278520   7.475   5.120   0.743 -0.7077  0.4747  1.4837
25505SOL     OW78521   2.505   8.296   7.487 -0.1598 -0.2258 -0.2107
25505SOL    HW178522   2.542   8.384   7.487 -0.7608  0.0726  1.4124
25505SOL    HW278523   2.448   8.294   7.565 -1.1819 -1.6234 -0.9404
25506SOL     OW78524  11.004   3.058   5.569  0.1195 -0.1451  0.2362
25506SOL    HW178525  11.039   3.136   5.526  0.8408  0.8139  2.3761
25506SOL    HW278526  11.003   3.081   5.662 -1.4217 -2.0367  0.7580
25507SOL     OW78527   9.899   7.004   0.800  0.5999  0.3174 -0.4271
25507SOL    HW178528   9.958   6.973   0.732 -0.1373 -0.9177 -0.5497
25507SOL    HW278529   9.886   7.097   0.781  2.7697  0.7228 -0.1643
25508SOL     OW78530   3.820   1.474   4.974  0.2883  0.0002  0.4688
25508SOL    HW178531   3.790   1.506   5.059  0.5534  2.2082 -0.1985
25508SOL    HW278532   3.772   1.393   4.960  0.1908 -0.3771  2.6818
25509SOL     OW78533   5.469   7.352   6.796  0.3582  0.7739  0.3008
25509SOL    HW178534   5.421   7.431   6.822 -0.9115 -0.1920  0.9861
25509SOL    HW278535   5.535   7.340   6.864  0.1859  0.9351  0.4963
25510SOL     OW78536   4.280   1.696   8.835  0.3829 -0.0773 -0.1926
25510SOL    HW178537   4.251   1.784   8.858  1.4298  0.0287  0.8238
25510SOL    HW278538   4.324   1.664   8.914  2.0065 -0.6439 -1.2748
25511SOL     OW78539   8.554   2.676   6.896  0.3692 -0.1818  0.1949
25511SOL    HW178540   8.587   2.747   6.840 -0.2154  0.0475  0.1398
25511SOL    HW278541   8.470   2.652   6.857  0.0993 -0.2242  0.8048
25512SOL     OW78542   7.576   1.208   6.517  0.0306  0.3673 -0.2298
25512SOL    HW178543   7.570   1.255   6.434  2.3857 -0.8916 -1.1969
25512SOL    HW278544   7.555   1.274   6.583  0.5913  2.0750 -1.6803
25513SOL     OW78545   7.449   2.364   2.050 -0.0230  0.0240 -0.3785
25513SOL    HW178546   7.432   2.283   2.002 -1.9976  0.6506 -0.8154
25513SOL    HW278547   7.457   2.336   2.141 -0.6585 -0.6678 -0.5292
25514SOL     OW78548   5.340   7.983  10.835 -0.1330 -0.6844  0.4847
25514SOL    HW178549   5.348   7.896  10.874 -0.7233 -0.4059  1.2451
25514SOL    HW278550   5.370   7.971  10.744 -0.8831 -1.8361  0.3656
25515SOL     OW78551   9.835   1.742   2.390 -0.5776 -0.1709  0.0296
25515SOL    HW178552   9.814   1.831   2.361 -0.9674  0.1716  1.2896
25515SOL    HW278553   9.931   1.736   2.382 -0.7622 -0.5599 -2.4944
25516SOL     OW78554   1.252   3.410   2.462  0.2347  0.5203  0.1499
25516SOL    HW178555   1.222   3.450   2.381  1.9150  1.2312 -0.1767
25516SOL    HW278556   1.200   3.452   2.531  1.4418  2.8277 -0.2507
25517SOL     OW78557   4.720  10.761   3.557  0.2191  0.2349  0.0526
25517SOL    HW178558   4.644  10.819   3.562 -0.6357 -0.9476  2.7635
25517SOL    HW278559   4.789  10.807   3.604  0.9790  0.9237 -1.6557
25518SOL     OW78560   8.289   5.139   8.999 -0.3582 -0.3025 -0.0217
25518SOL    HW178561   8.369   5.155   9.050  0.5185 -1.1582 -1.0771
25518SOL    HW278562   8.221   5.124   9.065  0.7845 -1.5644  0.9091
25519SOL     OW78563   3.849   0.210   2.621 -0.4544  0.1571 -0.2531
25519SOL    HW178564   3.854   0.252   2.706 -1.5679 -1.6657  0.7816
25519SOL    HW278565   3.879   0.277   2.559 -1.3485  2.1510  1.3531
25520SOL     OW78566   1.826   2.718   0.117 -0.3709  0.5095  0.0500
25520SOL    HW178567   1.801   2.776   0.045 -1.8283 -1.0756 -0.8080
25520SOL    HW278568   1.921   2.711   0.111 -0.4661  0.3574 -1.7995
25521SOL     OW78569   0.471   7.822   0.496 -0.9372 -0.2337 -0.5335
25521SOL    HW178570   0.482   7.914   0.518  0.1453 -0.0278 -1.7856
25521SOL    HW278571   0.403   7.820   0.429 -1.8951 -0.5043  0.4239
25522SOL     OW78572   0.421   6.690   1.736 -0.1220  0.2267  0.4519
25522SOL    HW178573   0.380   6.666   1.819  1.4545 -1.2994  0.8464
25522SOL    HW278574   0.350   6.682   1.672 -0.7486 -1.2573  1.2683
25523SOL     OW78575   2.627  10.388   0.035 -0.3795  0.1739  0.1525
25523SOL    HW178576   2.595  10.307   0.074 -1.2292  0.1950 -0.4695
25523SOL    HW278577   2.588  10.458   0.088  0.4301  0.1921  0.7486
25524SOL     OW78578   5.816   0.580   3.321 -0.4713  0.5041  0.2471
25524SOL    HW178579   5.815   0.485   3.326 -2.0104  0.5061  0.4373
25524SOL    HW278580   5.782   0.600   3.233 -0.6977  0.8845  0.4167
25525SOL     OW78581   1.895   9.694  10.783 -0.1804  0.1302 -0.4076
25525SOL    HW178582   1.959   9.694  10.854  0.4077 -1.0010 -0.9205
25525SOL    HW278583   1.878   9.787  10.766  0.3279  0.4231  0.6129
25526SOL     OW78584   3.772   4.703   3.431 -0.0396 -0.8574 -0.2512
25526SOL    HW178585   3.796   4.611   3.431  0.4363 -0.7840 -2.3294
25526SOL    HW278586   3.680   4.704   3.406  0.1552 -0.7590 -0.9969
25527SOL     OW78587   3.723   9.828   8.355 -0.0381  0.2785 -0.1151
25527SOL    HW178588   3.695   9.899   8.414 -0.9246  0.1929 -0.4138
25527SOL    HW278589   3.716   9.865   8.268 -0.5186 -0.1657 -0.2746
25528SOL     OW78590   8.577   2.416   6.095  0.3290 -0.1729  0.1128
25528SOL    HW178591   8.571   2.488   6.032 -1.3174  1.1193  1.6447
25528SOL    HW278592   8.574   2.337   6.041 -2.1300  0.8491 -1.4221
25529SOL     OW78593   8.047   8.153   1.911  0.5974 -0.4945  0.6353
25529SOL    HW178594   8.083   8.240   1.928 -0.9927  0.5275 -0.9118
25529SOL    HW278595   8.090   8.125   1.830  0.4842 -0.7922  0.6785
25530SOL     OW78596  10.703   7.056   1.449 -0.4464 -0.5161  0.1760
25530SOL    HW178597  10.682   7.059   1.356 -1.3312  0.2076  0.3699
25530SOL    HW278598  10.617   7.055   1.492 -0.0769  0.5694  0.9960
25531SOL     OW78599   6.659   6.464   6.597 -0.3601  0.3521 -0.3792
25531SOL    HW178600   6.625   6.522   6.665 -1.0750  0.1116 -0.5294
25531SOL    HW278601   6.581   6.426   6.556 -0.3269  3.9300 -4.4936
25532SOL     OW78602   7.984   9.520  10.153  0.1050 -0.1356  0.6388
25532SOL    HW178603   8.077   9.542  10.161 -0.3635  1.4874  2.1870
25532SOL    HW278604   7.982   9.424  10.158  1.5616 -0.1347  3.0427
25533SOL     OW78605   4.471   5.368   6.837 -0.7346 -0.0444  0.0937
25533SOL    HW178606   4.525   5.316   6.776 -1.8436  0.3369 -1.2619
25533SOL    HW278607   4.519   5.450   6.847 -0.1093 -0.4385  0.4533
25534SOL     OW78608  10.732   2.937   5.537  0.6077  0.1160 -0.9408
25534SOL    HW178609  10.663   2.930   5.471 -0.7369  0.6576  0.3262
25534SOL    HW278610  10.761   3.028   5.532  2.7960 -0.5969 -2.8871
25535SOL     OW78611   8.094   2.506  10.172 -0.3558  0.0466 -0.2371
25535SOL    HW178612   8.180   2.541  10.194 -0.8785  0.8800  0.6041
25535SOL    HW278613   8.047   2.581  10.134 -0.3840 -0.6716 -1.6670
25536SOL     OW78614   9.983   6.838   4.162 -0.2674 -0.4319  0.0893
25536SOL    HW178615  10.068   6.833   4.206 -1.2847 -1.4632  2.0861
25536SOL    HW278616   9.959   6.930   4.166  0.7882 -0.1127 -0.6056
25537SOL     OW78617   8.588   5.262   2.316 -0.0017  0.5503  0.3192
25537SOL    HW178618   8.650   5.335   2.319  0.7128 -0.0104 -0.2641
25537SOL    HW278619   8.620   5.200   2.382 -0.7059  0.8346  0.9357
25538SOL     OW78620   4.956   5.904   5.847 -0.1868  0.2053 -0.0059
25538SOL    HW178621   4.957   5.907   5.943  1.1976 -1.6047  0.0843
25538SOL    HW278622   4.968   5.995   5.820 -0.6133  0.7432  1.5310
25539SOL     OW78623   2.635   1.186   9.171  0.4272 -0.2594 -0.3250
25539SOL    HW178624   2.622   1.177   9.077  1.1153 -2.2728 -0.2834
25539SOL    HW278625   2.728   1.204   9.181  0.2411  0.5779 -0.0445
25540SOL     OW78626   6.583   1.890   5.351 -0.0156  0.2425 -0.2202
25540SOL    HW178627   6.558   1.810   5.397 -0.9127  0.9195  0.5106
25540SOL    HW278628   6.565   1.872   5.259 -2.4778  0.3651  0.1594
25541SOL     OW78629   1.416   9.619  10.464  0.4291 -0.7416  0.2759
25541SOL    HW178630   1.423   9.550  10.398 -0.1146  0.2295 -0.8303
25541SOL    HW278631   1.499   9.667  10.458  1.0025 -1.5366  1.3672
25542SOL     OW78632  11.013   1.283   0.166  0.0359  0.0482  0.1762
25542SOL    HW178633  11.012   1.274   0.071 -0.3376  0.2873  0.1580
25542SOL    HW278634  10.984   1.197   0.199  1.1397 -0.3702  0.1011
25543SOL     OW78635   8.103   1.898   5.645  0.1060  0.4877 -0.0218
25543SOL    HW178636   8.142   1.978   5.680 -0.0755  0.9523 -0.8808
25543SOL    HW278637   8.048   1.865   5.717  1.1354  0.4653  0.7678
25544SOL     OW78638   6.260   0.636   6.251  0.0203 -0.2407  0.7198
25544SOL    HW178639   6.265   0.658   6.344 -0.0556 -1.4778  1.0338
25544SOL    HW278640   6.196   0.564   6.247  0.5767 -0.7013 -0.1823
25545SOL     OW78641  10.100   9.037   3.886  0.0498  0.5188 -0.2511
25545SOL    HW178642  10.041   9.090   3.939 -0.1285  0.0975 -0.0292
25545SOL    HW278643  10.044   8.996   3.821 -0.0634 -0.6270  0.5400
25546SOL     OW78644   5.580   2.489   5.859  0.4962  0.4287 -0.0153
25546SOL    HW178645   5.673   2.468   5.854  0.3181 -0.0718 -2.5502
25546SOL    HW278646   5.536   2.405   5.847 -0.2865  0.8413 -0.0730
25547SOL     OW78647   7.554  10.832   2.133  0.3398 -0.1218  0.1560
25547SOL    HW178648   7.561  10.754   2.188  0.3712  0.3852  0.8871
25547SOL    HW278649   7.470  10.822   2.088  0.7344 -0.9874 -0.4174
25548SOL     OW78650   5.271   4.909   9.698 -0.3153  0.3073  0.5068
25548SOL    HW178651   5.354   4.909   9.650 -1.6458  1.3922 -2.0006
25548SOL    HW278652   5.248   4.817   9.705 -0.1593  0.1130 -1.1883
25549SOL     OW78653   6.113   7.967   6.419 -0.3497 -0.3143 -0.0600
25549SOL    HW178654   6.199   7.967   6.461  0.8419  0.2731 -2.3098
25549SOL    HW278655   6.082   7.877   6.426  0.0789 -0.3724  1.4439
25550SOL     OW78656   1.011   6.889   9.811  0.0411  0.2947  0.1277
25550SOL    HW178657   1.095   6.848   9.834  0.3013  0.7891  0.0872
25550SOL    HW278658   1.025   6.924   9.723 -0.7157 -0.9616 -0.5102
25551SOL     OW78659   0.627   2.931   7.921  0.3451 -0.0537 -0.1125
25551SOL    HW178660   0.716   2.921   7.955  0.4103 -2.1675 -0.7965
25551SOL    HW278661   0.639   2.945   7.827 -0.0321  0.4311 -0.0917
25552SOL     OW78662   9.276   6.325   5.841 -0.3901  0.4538 -0.1525
25552SOL    HW178663   9.341   6.290   5.902 -0.7566 -0.2547 -0.1594
25552SOL    HW278664   9.326   6.342   5.761 -0.2378 -0.2668 -0.2188
25553SOL     OW78665   6.308   3.858   0.552  0.4379 -0.1690 -0.5059
25553SOL    HW178666   6.390   3.907   0.546  1.4404 -1.2058  2.5899
25553SOL    HW278667   6.247   3.920   0.592  0.9272 -0.5514  0.8986
25554SOL     OW78668   7.119   9.477   1.522 -0.5354 -0.3728 -0.8290
25554SOL    HW178669   7.118   9.387   1.554 -0.6578 -0.1644 -0.2237
25554SOL    HW278670   7.108   9.530   1.601  2.2543  0.2770 -0.7591
25555SOL     OW78671   3.380   7.719   2.866  0.1005  0.4808  0.0397
25555SOL    HW178672   3.404   7.778   2.795 -0.4329 -0.0241 -0.5695
25555SOL    HW278673   3.309   7.765   2.912 -0.3312  0.3072 -0.4471
25556SOL     OW78674  10.342   7.597   1.928  0.5458  0.2596  0.4038
25556SOL    HW178675  10.317   7.625   1.840 -0.2883  1.9374  1.1405
25556SOL    HW278676  10.261   7.568   1.969  0.7408  0.4757  0.9585
25557SOL     OW78677   3.712   2.285   9.920 -0.1098  0.4409  0.0636
25557SOL    HW178678   3.647   2.217   9.903  0.0788 -0.4550  2.5070
25557SOL    HW278679   3.672   2.365   9.885 -1.5386 -0.4583 -0.4547
25558SOL     OW78680   9.536  10.058   0.454 -0.3406 -0.4131  0.0767
25558SOL    HW178681   9.561   9.980   0.403 -0.4874 -0.5198  0.1660
25558SOL    HW278682   9.445  10.074   0.428 -0.2993 -0.2516  0.0345
25559SOL     OW78683   3.991  11.011   9.338 -0.5887 -0.5008 -0.3293
25559SOL    HW178684   3.991  10.937   9.399 -1.5133 -0.0072  0.3014
25559SOL    HW278685   4.065  11.065   9.365  0.7418 -1.6897 -1.4522
25560SOL     OW78686   8.262   6.127  10.501  0.1207  0.2887  0.4433
25560SOL    HW178687   8.189   6.170  10.545  0.2482 -0.4722  1.4411
25560SOL    HW278688   8.290   6.189  10.434 -1.0049  0.8710  0.4850
25561SOL     OW78689   7.640   5.553   6.437 -0.4091 -0.1894 -0.7747
25561SOL    HW178690   7.680   5.466   6.445 -1.5200 -1.0524 -3.4938
25561SOL    HW278691   7.714   5.613   6.427  0.4186 -0.6119  1.8236
25562SOL     OW78692   0.464   3.556   7.111  0.0932  0.3386 -0.4858
25562SOL    HW178693   0.374   3.538   7.083 -0.6082  0.1156  1.7123
25562SOL    HW278694   0.482   3.491   7.179  1.5638  0.9975 -0.1975
25563SOL     OW78695   2.821   2.840   4.966 -0.1877  0.6156 -0.0010
25563SOL    HW178696   2.846   2.917   5.017  0.2728 -0.5174  1.5818
25563SOL    HW278697   2.894   2.779   4.979 -1.2677 -0.6889  0.1453
25564SOL     OW78698   0.522   5.514   8.133  0.5997 -0.1010 -0.1798
25564SOL    HW178699   0.586   5.513   8.062 -2.2878  0.8181 -3.0238
25564SOL    HW278700   0.554   5.582   8.193  2.8309 -0.4922 -0.8113
25565SOL     OW78701  10.909   7.156   2.277 -0.2679  0.2406 -0.2287
25565SOL    HW178702  10.972   7.227   2.281  1.0658 -0.8382 -1.1313
25565SOL    HW278703  10.943   7.090   2.337 -1.6729  0.4625  0.8644
25566SOL     OW78704   2.685   8.840   6.228 -0.3081 -0.4303  0.4024
25566SOL    HW178705   2.630   8.795   6.292 -1.0675 -1.3487 -0.8269
25566SOL    HW278706   2.623   8.873   6.163  0.5619 -1.5794 -1.0828
25567SOL     OW78707   6.024   6.299   6.738  0.2858  0.4317 -0.2122
25567SOL    HW178708   6.015   6.284   6.832 -2.2342  0.5066 -0.3925
25567SOL    HW278709   5.936   6.319   6.708  0.7925 -0.8213 -2.8142
25568SOL     OW78710   5.558   9.949   4.029 -0.2417 -0.0666  0.5887
25568SOL    HW178711   5.635   9.896   4.046  0.2580 -0.0065 -1.2884
25568SOL    HW278712   5.582  10.037   4.058 -0.4722 -0.5025  2.1636
25569SOL     OW78713   5.329   7.272   4.566 -0.0934  0.1000 -0.0795
25569SOL    HW178714   5.249   7.319   4.590 -1.0942 -1.3084 -0.5392
25569SOL    HW278715   5.342   7.209   4.637  1.7884  1.6254  1.0377
25570SOL     OW78716   9.977   2.985   4.042  0.5074  0.3172 -0.3188
25570SOL    HW178717  10.046   2.929   4.004  0.9685  0.1349  0.7426
25570SOL    HW278718   9.917   2.923   4.083  1.5929  0.5853  1.8184
25571SOL     OW78719   3.382   6.658  10.428 -0.1021 -0.1865  0.6969
25571SOL    HW178720   3.357   6.593  10.494 -1.5371 -0.5493 -0.1522
25571SOL    HW278721   3.395   6.607  10.348 -1.8528  0.5653 -0.1391
25572SOL     OW78722   2.637   5.520   7.982  0.4714 -0.2644  0.8006
25572SOL    HW178723   2.592   5.603   8.000 -0.8854 -0.8009 -0.0178
25572SOL    HW278724   2.710   5.544   7.926  0.1884  0.4058  0.7107
25573SOL     OW78725   1.260   9.252   6.850 -0.1165 -0.5728  0.2498
25573SOL    HW178726   1.348   9.282   6.824 -0.5217 -0.5910 -1.2157
25573SOL    HW278727   1.259   9.159   6.826 -0.2530 -0.7975  1.0838
25574SOL     OW78728   4.833  10.528   2.630 -0.0467 -0.0971  0.1295
25574SOL    HW178729   4.858  10.538   2.538  1.1610  0.7218  0.5160
25574SOL    HW278730   4.774  10.601   2.647  1.3298  0.9886  0.4926
25575SOL     OW78731  10.958   7.714   9.955 -0.2900  0.4286 -0.0099
25575SOL    HW178732  10.893   7.749  10.017  0.3537  1.0566  0.3287
25575SOL    HW278733  10.972   7.623   9.983  0.4867  0.8990  1.2080
25576SOL     OW78734   6.699   3.956   4.925 -0.0450 -0.0221  0.6491
25576SOL    HW178735   6.667   3.874   4.963 -0.0302 -0.4918 -0.3200
25576SOL    HW278736   6.634   4.021   4.952 -0.8460 -0.6277  0.2313
25577SOL     OW78737   4.533   2.434   3.989 -0.4405  0.0468 -0.0094
25577SOL    HW178738   4.456   2.393   3.949  0.2533 -1.6689  0.2995
25577SOL    HW278739   4.602   2.368   3.981  0.4373  0.7087  1.6025
25578SOL     OW78740   6.880   6.670   4.889 -0.3562  0.4642  0.1914
25578SOL    HW178741   6.926   6.735   4.836 -0.5174  0.5066  0.1041
25578SOL    HW278742   6.899   6.586   4.846 -1.2443  0.5885 -0.4828
25579SOL     OW78743   6.403   7.362   8.092 -0.4875 -0.0349 -1.2019
25579SOL    HW178744   6.376   7.421   8.022 -0.6840  2.3524  0.7531
25579SOL    HW278745   6.338   7.376   8.161  0.9924 -0.4967  0.3548
25580SOL     OW78746   9.189   0.105   2.414 -0.0281  0.5260 -0.5906
25580SOL    HW178747   9.150   0.110   2.326 -0.1046 -0.2655 -0.6053
25580SOL    HW278748   9.131   0.158   2.469 -2.3739 -2.2293 -0.1772
25581SOL     OW78749   5.490   9.147   7.695 -1.0489 -0.1919  0.3973
25581SOL    HW178750   5.412   9.182   7.652 -0.3194  1.1546  0.1184
25581SOL    HW278751   5.556   9.215   7.684  0.6929 -1.9835 -0.8278
25582SOL     OW78752   4.406   7.628   8.623 -0.3983  0.2842  0.1425
25582SOL    HW178753   4.380   7.695   8.686 -2.3639  0.0427 -0.3306
25582SOL    HW278754   4.429   7.552   8.676 -3.6786 -0.4934  0.6677
25583SOL     OW78755   4.693   0.442   0.841 -0.3049  0.1785 -0.6907
25583SOL    HW178756   4.678   0.527   0.883 -1.2046 -0.8290  1.1911
25583SOL    HW278757   4.654   0.451   0.754 -0.6315  1.6084 -0.4239
25584SOL     OW78758   7.009   5.244   3.341 -0.2324  0.3777  0.2846
25584SOL    HW178759   7.098   5.269   3.317 -0.4923  0.8569 -0.1978
25584SOL    HW278760   6.995   5.283   3.428  0.9666 -1.9739  1.6329
25585SOL     OW78761   8.305   5.089   9.472  0.1893  0.1179  0.9445
25585SOL    HW178762   8.320   5.184   9.477  3.3654 -0.3693  3.5235
25585SOL    HW278763   8.296   5.061   9.563 -0.0140 -2.1571  0.2767
25586SOL     OW78764   0.632   1.748   1.252 -0.2603  0.3018 -0.4173
25586SOL    HW178765   0.722   1.738   1.221  0.1029 -1.4878  1.0433
25586SOL    HW278766   0.578   1.721   1.177  0.3678  1.6880 -1.4101
25587SOL     OW78767   6.945   2.152   7.939 -0.3743 -0.0190 -0.2961
25587SOL    HW178768   7.011   2.082   7.943 -2.4451 -2.0238  1.1682
25587SOL    HW278769   6.890   2.129   7.864  0.3516  1.4820 -1.3330
25588SOL     OW78770   8.723   6.285   9.569  0.3827  0.2534  0.2425
25588SOL    HW178771   8.806   6.239   9.580 -0.9050 -1.9084  1.7957
25588SOL    HW278772   8.723   6.352   9.637  0.4378 -0.4962  1.0091
25589SOL     OW78773  10.815   9.488  10.878  0.2548  0.4692  0.0064
25589SOL    HW178774  10.780   9.416  10.825  3.4965 -0.7658 -0.6825
25589SOL    HW278775  10.769   9.482  10.962 -0.9824 -1.0866 -0.7422
25590SOL     OW78776   7.779   7.409   4.647 -0.3598  0.4871 -0.0198
25590SOL    HW178777   7.769   7.485   4.590  0.0082 -0.2627 -1.1211
25590SOL    HW278778   7.726   7.430   4.724 -1.1204  1.3962 -0.7589
25591SOL     OW78779   5.968   6.304   7.573  0.5209 -0.2356  0.4488
25591SOL    HW178780   5.957   6.399   7.567  1.1742 -0.0680  1.5658
25591SOL    HW278781   5.883   6.273   7.606  0.6072  0.0867  1.0029
25592SOL     OW78782   5.797   3.076   0.738  0.3848 -0.0026 -0.0658
25592SOL    HW178783   5.711   3.091   0.700  1.3845  0.1406 -2.4518
25592SOL    HW278784   5.806   3.143   0.806 -1.1860  0.2605 -0.0908
25593SOL     OW78785   8.740   5.509   2.297  0.1303  0.6382  0.4953
25593SOL    HW178786   8.715   5.534   2.209  1.0521  1.3676  0.4267
25593SOL    HW278787   8.836   5.507   2.295  0.1623 -2.2371  0.6852
25594SOL     OW78788  10.323   7.962   7.395  0.0984 -0.3064 -0.3333
25594SOL    HW178789  10.313   7.922   7.482 -2.0694 -1.6118 -1.0856
25594SOL    HW278790  10.396   8.023   7.405  0.3033 -0.8348  2.2400
25595SOL     OW78791   4.846   2.196   2.065  0.2547  0.7458 -0.1539
25595SOL    HW178792   4.759   2.179   2.028  0.2517 -0.2114  0.2510
25595SOL    HW278793   4.846   2.148   2.148  0.7408  1.7403  0.4331
25596SOL     OW78794   0.405   3.054   8.007  0.4794  0.2101  0.1510
25596SOL    HW178795   0.467   3.122   8.034  0.2456  0.3303  0.3910
25596SOL    HW278796   0.457   2.993   7.955  0.4789  1.1563 -1.0209
25597SOL     OW78797  10.452   0.194   3.272 -0.1736  0.3761 -0.0916
25597SOL    HW178798  10.436   0.183   3.366  1.9039 -2.0319  0.0855
25597SOL    HW278799  10.423   0.112   3.233  0.8297  0.5514 -1.2623
25598SOL     OW78800  10.521   5.594  10.822 -0.0654 -0.2008  0.3730
25598SOL    HW178801  10.466   5.557  10.891 -0.1096  0.2556  0.5845
25598SOL    HW278802  10.472   5.576  10.741 -0.3519 -0.1187  0.5261
25599SOL     OW78803   8.134  10.409   8.220  0.2266 -0.0367 -0.2177
25599SOL    HW178804   8.059  10.386   8.275  0.6441  0.4799  0.5858
25599SOL    HW278805   8.126  10.351   8.144 -2.1386  1.4063 -1.1821
25600SOL     OW78806   6.856   1.176   8.372 -0.1021 -0.4927  0.6895
25600SOL    HW178807   6.792   1.137   8.431 -0.7991 -0.3831  0.0078
25600SOL    HW278808   6.941   1.147   8.407 -0.5290 -0.9470  1.3704
25601SOL     OW78809   0.041   6.527   3.283 -0.1436 -0.3633 -0.5309
25601SOL    HW178810  -0.026   6.466   3.315  0.9883 -1.6274 -0.4631
25601SOL    HW278811   0.113   6.470   3.256  1.1376  0.9754 -0.0602
25602SOL     OW78812   5.256   3.260   4.002  0.1843 -0.1221 -0.0754
25602SOL    HW178813   5.190   3.206   4.044 -0.2850  0.4839 -0.0129
25602SOL    HW278814   5.214   3.346   3.992  1.6093  0.8754  1.7849
25603SOL     OW78815   9.933   2.574   0.242 -0.3374  0.0251  0.1647
25603SOL    HW178816   9.969   2.643   0.186 -1.7639  1.4727  0.9421
25603SOL    HW278817   9.868   2.618   0.296 -0.3634 -1.6988  1.6512
25604SOL     OW78818   3.814   8.186   4.468 -0.4204  0.1460 -0.6508
25604SOL    HW178819   3.744   8.150   4.415 -0.7453 -1.3409  0.6955
25604SOL    HW278820   3.784   8.175   4.558  1.8619 -1.3720  0.0252
25605SOL     OW78821   5.547   7.814  10.325  0.2230 -0.7714 -0.2376
25605SOL    HW178822   5.474   7.782  10.272  2.0045 -0.8671 -2.8257
25605SOL    HW278823   5.601   7.736  10.341  0.9391 -0.3158 -0.3926
25606SOL     OW78824   8.342  10.303   6.811 -0.4789 -0.2655  0.0280
25606SOL    HW178825   8.300  10.360   6.746  0.2225 -1.6970 -1.7215
25606SOL    HW278826   8.418  10.353   6.840 -0.4881  0.1614 -0.6541
25607SOL     OW78827   2.279  11.037   6.835 -0.1470  0.4016  0.8242
25607SOL    HW178828   2.337  10.985   6.891 -1.1204 -1.5679  0.1137
25607SOL    HW278829   2.263  10.980   6.759 -2.7318  0.9930  0.8415
25608SOL     OW78830   4.599   3.548   0.720  0.0308 -0.2320  0.1943
25608SOL    HW178831   4.530   3.577   0.779 -0.2454  0.5533 -0.5041
25608SOL    HW278832   4.630   3.466   0.759 -0.2962  0.1448  1.3026
25609SOL     OW78833   2.717   1.818   6.131  0.5011 -0.2753  0.3540
25609SOL    HW178834   2.694   1.726   6.129 -0.2548 -0.1521  1.9809
25609SOL    HW278835   2.655   1.860   6.071 -1.3295 -0.4181  2.0545
25610SOL     OW78836   9.717   2.705   9.882 -0.4570  0.2982  0.2371
25610SOL    HW178837   9.774   2.772   9.843 -1.7181  1.3310  0.0844
25610SOL    HW278838   9.636   2.752   9.902 -0.2053 -0.3728  3.3079
25611SOL     OW78839   1.141   4.207   1.533 -0.1256 -0.2580  0.3108
25611SOL    HW178840   1.092   4.259   1.596  0.3725  0.2788  0.2603
25611SOL    HW278841   1.184   4.139   1.585 -0.4205 -0.3605  0.4280
25612SOL     OW78842   1.322   7.678   2.864 -0.0544  0.0656  0.4490
25612SOL    HW178843   1.352   7.587   2.864 -2.3465 -0.7687 -0.4401
25612SOL    HW278844   1.401   7.729   2.849  1.3603 -1.7329  1.3538
25613SOL     OW78845   4.872   6.965  10.475  0.1673 -0.0657  0.1752
25613SOL    HW178846   4.893   6.876  10.450 -1.3646 -0.8580  1.4630
25613SOL    HW278847   4.916   7.020  10.411  0.8649 -1.7553 -0.8481
25614SOL     OW78848   7.408   9.616   4.240 -0.4037 -0.0253 -0.0751
25614SOL    HW178849   7.478   9.680   4.224  0.4978 -0.6760  1.1231
25614SOL    HW278850   7.431   9.541   4.186  1.0301 -1.0657  1.8696
25615SOL     OW78851   3.588   3.689  10.113 -0.5599  0.1193 -0.3656
25615SOL    HW178852   3.576   3.595  10.130  0.2768 -0.4968 -2.8028
25615SOL    HW278853   3.591   3.729  10.200  0.4136 -2.2923  0.7954
25616SOL     OW78854  10.647   2.121   6.578  0.2959  0.1528  0.0649
25616SOL    HW178855  10.557   2.107   6.550  0.4293  1.1799 -0.9265
25616SOL    HW278856  10.639   2.167   6.662 -0.1482  1.9348 -0.8967
25617SOL     OW78857  10.956   4.758   7.230  0.4461  0.3102 -0.0047
25617SOL    HW178858  10.995   4.789   7.312  0.5178  0.6470 -0.1659
25617SOL    HW278859  10.929   4.668   7.250 -0.2921  0.6624  0.6409
25618SOL     OW78860   6.969   1.699   0.680  0.1387 -0.2106 -0.3304
25618SOL    HW178861   6.883   1.669   0.651  0.3056  0.2746 -1.3511
25618SOL    HW278862   7.020   1.706   0.600  1.3664 -1.1982  0.3315
25619SOL     OW78863   1.566   3.034   1.871 -0.2229  0.1970  0.2994
25619SOL    HW178864   1.523   3.063   1.791  0.4237  0.8726  0.1816
25619SOL    HW278865   1.499   2.984   1.918 -0.3989 -0.8216 -0.9840
25620SOL     OW78866  10.262   1.143   2.915  0.1292  0.5251 -0.0676
25620SOL    HW178867  10.194   1.076   2.904  1.5410 -1.0440  0.2461
25620SOL    HW278868  10.288   1.134   3.007 -0.1575  2.0532  0.1830
25621SOL     OW78869   4.457   0.569   6.860 -0.5198 -0.2897  0.4087
25621SOL    HW178870   4.496   0.482   6.870 -0.9396 -0.4164  1.0369
25621SOL    HW278871   4.529   0.630   6.875  0.1567 -0.5076 -1.6717
25622SOL     OW78872   0.510   7.148  10.274 -0.3149 -0.1310 -0.4971
25622SOL    HW178873   0.530   7.234  10.237 -0.5013 -0.3174 -1.0496
25622SOL    HW278874   0.594   7.117  10.310 -0.6386  1.0730  1.4298
25623SOL     OW78875   2.344   7.654   3.678  0.1059  0.0583  0.1314
25623SOL    HW178876   2.337   7.746   3.652 -0.3326 -0.1076 -0.3663
25623SOL    HW278877   2.405   7.617   3.614 -1.2840 -0.4445 -0.9783
25624SOL     OW78878   4.792   3.107   5.083 -0.3328 -0.1095  0.5798
25624SOL    HW178879   4.831   3.044   5.022 -0.0329 -0.6197  1.2782
25624SOL    HW278880   4.788   3.059   5.166 -2.4284 -0.0473  0.5505
25625SOL     OW78881   5.141   1.061   8.878 -0.2574 -0.3771 -0.4523
25625SOL    HW178882   5.055   1.103   8.874 -0.8695 -1.3456  1.3851
25625SOL    HW278883   5.182   1.098   8.956 -0.6981 -2.8606  1.0533
25626SOL     OW78884   8.881  10.301   7.466 -0.4348  0.0919 -0.2025
25626SOL    HW178885   8.879  10.216   7.510  2.8197 -0.5890 -1.0518
25626SOL    HW278886   8.905  10.363   7.534  0.4402 -0.2633 -0.1689
25627SOL     OW78887   6.253   0.446   7.130  0.3024  0.0215 -0.4497
25627SOL    HW178888   6.322   0.502   7.166 -0.0040 -0.1734  0.4648
25627SOL    HW278889   6.300   0.376   7.084  0.6932  0.5611 -0.8920
25628SOL     OW78890   9.581   1.464   8.243 -0.0534  0.0233 -0.1184
25628SOL    HW178891   9.491   1.451   8.271 -0.3731 -0.0577 -1.1367
25628SOL    HW278892   9.633   1.406   8.300 -0.8853 -1.6255 -0.9711
25629SOL     OW78893  10.930  10.711  10.599  0.2089 -0.1996 -0.7564
25629SOL    HW178894  11.022  10.696  10.620  0.2915  1.5724  0.4117
25629SOL    HW278895  10.932  10.753  10.513  0.6166  0.8786 -0.2426
25630SOL     OW78896   5.651   2.802   0.386 -0.2494 -0.1995 -0.0626
25630SOL    HW178897   5.622   2.845   0.306  1.9285 -0.4666 -1.0757
25630SOL    HW278898   5.585   2.825   0.452 -1.4795  0.9728 -1.6437
25631SOL     OW78899  10.143  10.271   4.794  0.3149  0.1817  0.5100
25631SOL    HW178900  10.061  10.222   4.781  1.0146 -0.9977  0.3845
25631SOL    HW278901  10.169  10.250   4.884 -0.3538  1.8864  1.1366
25632SOL     OW78902   3.977   4.233   7.113 -0.2622  0.0371 -0.5485
25632SOL    HW178903   3.939   4.320   7.110 -0.6763 -0.1244 -0.1068
25632SOL    HW278904   4.045   4.239   7.180  1.6269  0.7552 -2.4266
25633SOL     OW78905   3.370   8.487   1.511 -0.1837 -0.1860 -0.5190
25633SOL    HW178906   3.337   8.547   1.444  1.0813  0.3081 -0.7371
25633SOL    HW278907   3.459   8.518   1.529  0.2344 -1.5523 -0.0905
25634SOL     OW78908   1.679   6.861   8.462 -0.2962  0.4812  0.6389
25634SOL    HW178909   1.762   6.901   8.487  0.3055 -0.3807  0.0730
25634SOL    HW278910   1.620   6.935   8.447  0.9890  1.2051 -1.1106
25635SOL     OW78911   3.292   2.196  10.245 -0.8029 -0.0050  0.2080
25635SOL    HW178912   3.208   2.240  10.232 -1.0158 -0.6047 -0.4611
25635SOL    HW278913   3.341   2.255  10.303 -1.3483  0.7742 -0.1108
25636SOL     OW78914   2.833   9.705   3.250 -0.5684  0.4588 -1.1157
25636SOL    HW178915   2.923   9.693   3.219  0.1025 -0.2232  0.9109
25636SOL    HW278916   2.801   9.616   3.264 -0.2593  0.6977  1.5299
25637SOL     OW78917   0.052   6.120   2.777  0.1085 -0.1809 -0.1503
25637SOL    HW178918   0.043   6.199   2.830  0.2605 -1.9417  2.7060
25637SOL    HW278919   0.145   6.097   2.785 -0.5392 -2.3706  1.8184
25638SOL     OW78920   4.950   9.432   9.484 -0.1181 -0.0983 -0.0772
25638SOL    HW178921   4.898   9.433   9.403 -1.3208 -1.0278  0.6558
25638SOL    HW278922   4.903   9.492   9.542  0.0452 -0.3728  0.3392
25639SOL     OW78923   7.153   4.374   3.390  0.4158  0.7609  0.3116
25639SOL    HW178924   7.160   4.346   3.482  1.7050  1.8530  0.5785
25639SOL    HW278925   7.120   4.463   3.395  0.5999  0.8671 -0.2745
25640SOL     OW78926  10.476   4.620   2.354  0.1102 -0.0328  0.2845
25640SOL    HW178927  10.540   4.564   2.399 -0.7884 -0.8710  0.5455
25640SOL    HW278928  10.515   4.635   2.267  1.1342  0.3235  0.7888
25641SOL     OW78929   3.000   0.875   9.760 -0.0251  0.2965  0.1442
25641SOL    HW178930   2.906   0.884   9.776 -0.3105  0.5484 -1.5245
25641SOL    HW278931   3.012   0.782   9.741 -0.2528  0.5485 -1.3485
25642SOL     OW78932   0.212   1.122   8.702  0.5751 -0.1056 -0.1283
25642SOL    HW178933   0.153   1.198   8.701  2.0421  1.1030 -1.6620
25642SOL    HW278934   0.155   1.047   8.688 -0.6289  1.0162 -1.5570
25643SOL     OW78935   4.022   7.048   3.922 -0.0435 -0.2842 -0.4739
25643SOL    HW178936   4.009   7.101   4.000 -0.9135 -1.9396  0.5789
25643SOL    HW278937   4.067   6.969   3.955 -1.4332 -1.5083 -1.4153
25644SOL     OW78938   5.080   1.851   2.135  0.1555 -0.1470 -0.0859
25644SOL    HW178939   4.996   1.851   2.090 -0.7122  1.6675  1.4071
25644SOL    HW278940   5.090   1.941   2.167  2.0312 -0.6709  0.9376
25645SOL     OW78941   7.972   3.614   5.872 -0.2513  0.9443  0.4859
25645SOL    HW178942   7.884   3.598   5.836  0.4662 -1.0433 -0.5806
25645SOL    HW278943   7.965   3.589   5.964 -0.6839  0.1912  0.2590
25646SOL     OW78944   1.436   3.768   5.262  0.2736 -0.6390  0.1826
25646SOL    HW178945   1.446   3.684   5.217 -1.5044 -1.4677  1.2309
25646SOL    HW278946   1.476   3.754   5.348  2.2220  0.4277 -0.4927
25647SOL     OW78947  10.537   5.769   1.082  0.2195 -0.0249 -0.4401
25647SOL    HW178948  10.544   5.862   1.065 -0.0998  0.0408 -0.2261
25647SOL    HW278949  10.627   5.736   1.077  0.8470  0.8724  2.7209
25648SOL     OW78950   3.088   3.127   8.115 -0.0138  0.7292  0.0716
25648SOL    HW178951   3.066   3.183   8.040  0.8335  1.8497  0.6370
25648SOL    HW278952   3.172   3.089   8.092 -0.6898 -0.5224 -0.4057
25649SOL     OW78953   9.655   4.004   6.891  0.0321 -0.2144  0.1177
25649SOL    HW178954   9.597   3.957   6.950 -0.4851 -0.8226 -0.8455
25649SOL    HW278955   9.714   3.937   6.856  0.4345  0.1604  0.0608
25650SOL     OW78956   5.244   1.311  10.428 -0.3461  0.4656  0.7798
25650SOL    HW178957   5.194   1.341  10.352 -2.0636 -1.2214  1.1668
25650SOL    HW278958   5.334   1.304  10.397 -1.2279 -1.7147 -1.6236
25651SOL     OW78959  10.864   9.152   6.106 -0.2085  0.1482  0.4798
25651SOL    HW178960  10.774   9.135   6.078 -0.3855  0.0759  1.0741
25651SOL    HW278961  10.916   9.083   6.066 -0.1970  0.9644 -0.9878
25652SOL     OW78962   7.377   2.463   2.666 -0.0180  0.2732  0.2511
25652SOL    HW178963   7.343   2.463   2.756  1.4003  0.0735  0.8134
25652SOL    HW278964   7.454   2.520   2.670 -1.1985  2.1162 -1.3845
25653SOL     OW78965   2.726   9.639   7.006  0.4959 -0.4319 -0.6359
25653SOL    HW178966   2.697   9.673   7.090  1.8665 -1.3512  0.2578
25653SOL    HW278967   2.648   9.599   6.967  0.3226 -2.1747  1.3300
25654SOL     OW78968   4.952  10.552   7.816 -0.4532  0.1504 -0.7285
25654SOL    HW178969   4.939  10.564   7.910 -1.0081  0.0093 -0.7799
25654SOL    HW278970   4.866  10.571   7.777 -0.4027 -0.4087 -1.1420
25655SOL     OW78971   1.161   9.037   9.921  0.3560 -0.2497 -0.0700
25655SOL    HW178972   1.178   9.040  10.015  0.0155 -0.9701  0.0211
25655SOL    HW278973   1.081   8.985   9.913 -1.0622  1.8450 -0.5795
25656SOL     OW78974   9.076   2.269   6.647 -0.4109  0.4893 -0.0105
25656SOL    HW178975   9.045   2.342   6.701  1.3874  0.0753  1.6504
25656SOL    HW278976   9.119   2.311   6.572  2.3954  1.2995  1.9178
25657SOL     OW78977  10.864   3.117   8.302  0.4226 -0.2027 -0.5033
25657SOL    HW178978  10.889   3.178   8.233  0.5491 -0.4613 -0.6855
25657SOL    HW278979  10.880   3.030   8.265  0.6808 -0.3397 -0.0765
25658SOL     OW78980  10.306   2.928   5.549 -0.0219 -0.3610 -0.1342
25658SOL    HW178981  10.275   2.980   5.474 -1.1844 -2.0902 -0.9125
25658SOL    HW278982  10.298   2.837   5.520  1.1882 -1.0267  1.4798
25659SOL     OW78983   5.644   9.307   3.411 -0.0329 -0.1778  0.5452
25659SOL    HW178984   5.722   9.252   3.407 -0.6290 -0.9494 -1.5810
25659SOL    HW278985   5.670   9.389   3.368 -0.5680 -0.7128 -0.8425
25660SOL     OW78986   3.762   0.705   1.432 -0.7173  0.1737 -0.6033
25660SOL    HW178987   3.766   0.722   1.337  1.0861  0.7037 -0.4686
25660SOL    HW278988   3.784   0.789   1.472 -0.5807 -0.2684  0.2741
25661SOL     OW78989   1.070   8.066   2.198  0.5774 -0.4923 -0.4265
25661SOL    HW178990   1.030   8.108   2.122 -1.2463  0.3334  0.9336
25661SOL    HW278991   1.109   7.986   2.162  0.1698  0.0913 -2.2959
25662SOL     OW78992   9.847   1.608   3.205 -0.0092 -0.2136 -0.6903
25662SOL    HW178993   9.765   1.562   3.221 -0.5297  1.4245  1.9119
25662SOL    HW278994   9.824   1.701   3.212  1.8401  0.3299 -1.2011
25663SOL     OW78995   2.935  10.604   1.264 -0.1691 -0.3904  0.6949
25663SOL    HW178996   2.945  10.516   1.227 -2.5605  0.1120 -1.3483
25663SOL    HW278997   3.023  10.642   1.258  0.0293 -1.0728 -2.6817
25664SOL     OW78998   9.275   6.905   0.100  0.5028  0.0519 -0.0912
25664SOL    HW178999   9.200   6.962   0.117  0.9549 -0.0772  2.8314
25664SOL    HW279000   9.237   6.818   0.089 -0.0011  0.4902 -2.3334
25665SOL     OW79001  10.739   0.327  10.275 -0.0679 -0.1470 -0.4702
25665SOL    HW179002  10.740   0.422  10.283  0.3640 -0.0874 -1.0931
25665SOL    HW279003  10.812   0.308  10.216 -0.7400 -0.7930 -1.1143
25666SOL     OW79004   2.545   7.326   3.408  0.2753 -0.4398  0.2619
25666SOL    HW179005   2.603   7.357   3.339 -0.5768  1.0641  0.1726
25666SOL    HW279006   2.586   7.245   3.439  1.0177 -0.8066 -1.5397
25667SOL     OW79007   6.063   3.959   9.662  0.3380 -0.0337  0.0091
25667SOL    HW179008   6.094   3.967   9.752  0.8950 -1.3588 -0.0345
25667SOL    HW279009   5.976   3.919   9.669  0.5543 -0.5231 -0.0486
25668SOL     OW79010   0.728   6.420   0.355 -0.3206  0.1590  0.0598
25668SOL    HW179011   0.653   6.406   0.413 -0.0559 -2.4310 -0.1215
25668SOL    HW279012   0.804   6.412   0.414 -0.1009 -1.1161 -0.3630
25669SOL     OW79013   6.440  10.866   8.986  0.0420 -0.3892  0.2012
25669SOL    HW179014   6.410  10.954   8.962  0.1813  0.1576  1.8845
25669SOL    HW279015   6.527  10.859   8.945  2.1062  2.1093  3.5690
25670SOL     OW79016   3.109   5.072   1.688 -0.2660 -0.1097 -0.2324
25670SOL    HW179017   3.124   5.035   1.775  0.1262  0.4332 -0.0641
25670SOL    HW279018   3.195   5.072   1.646 -0.2106  0.8138 -0.1445
25671SOL     OW79019   2.168   3.529   6.353 -0.1263 -0.1799 -0.0643
25671SOL    HW179020   2.171   3.565   6.441 -0.7618 -1.7343  0.6266
25671SOL    HW279021   2.256   3.497   6.336  0.3157  1.1617 -0.4976
25672SOL     OW79022   9.293   3.890   8.160  0.1967 -0.1314  0.0586
25672SOL    HW179023   9.232   3.963   8.145 -1.6184 -1.5799  0.0829
25672SOL    HW279024   9.374   3.933   8.188 -0.3893  1.9416 -1.1551
25673SOL     OW79025   7.615   2.864   2.805 -0.1271 -0.4900 -0.0368
25673SOL    HW179026   7.614   2.923   2.880 -0.8148 -1.6919  0.9500
25673SOL    HW279027   7.684   2.897   2.749  2.3706 -1.1045  2.4423
25674SOL     OW79028   3.199   0.341   5.440 -0.0928 -0.3100  0.2880
25674SOL    HW179029   3.270   0.344   5.503  1.0115  1.7146 -0.9606
25674SOL    HW279030   3.136   0.406   5.471 -0.1586 -0.2309 -0.0045
25675SOL     OW79031   7.204   5.716   1.151  0.2812  0.2479  0.0786
25675SOL    HW179032   7.282   5.690   1.101 -0.1885  0.2037 -0.6468
25675SOL    HW279033   7.238   5.770   1.222  1.1380 -1.0886  0.7308
25676SOL     OW79034   4.962  11.021   5.858  1.0306 -0.2131 -0.3547
25676SOL    HW179035   4.876  11.061   5.847  1.0586  0.6018  1.8848
25676SOL    HW279036   4.954  10.936   5.814 -0.4333  0.4349 -1.4377
25677SOL     OW79037   9.933   7.319   8.416  0.2649  0.1387 -0.0334
25677SOL    HW179038   9.874   7.348   8.346  0.4651 -0.0565 -0.2804
25677SOL    HW279039   9.944   7.225   8.401 -1.0575 -0.2767  1.2511
25678SOL     OW79040   2.170   3.900   5.888  0.5281  0.4700 -0.3211
25678SOL    HW179041   2.241   3.849   5.850  0.3064 -0.7992  0.9034
25678SOL    HW279042   2.210   3.947   5.961  0.2235  0.1239  0.0753
25679SOL     OW79043   3.996   2.040   4.138 -0.3561  0.2747 -0.1116
25679SOL    HW179044   4.089   2.052   4.119 -0.4416 -0.9434 -1.4216
25679SOL    HW279045   3.952   2.105   4.084 -0.3413 -0.2442 -0.7635
25680SOL     OW79046   5.885   0.347   3.641  0.4114  0.3601 -0.4317
25680SOL    HW179047   5.807   0.304   3.675 -0.3324  1.4239 -0.7404
25680SOL    HW279048   5.893   0.426   3.693 -0.2415  1.5736 -2.0851
25681SOL     OW79049   1.688   3.551   3.130 -0.6670 -0.2033 -0.1938
25681SOL    HW179050   1.716   3.631   3.087  0.2526 -0.3069  0.1854
25681SOL    HW279051   1.629   3.580   3.199  1.0330  0.3410  1.1019
25682SOL     OW79052   8.069  10.610   6.489  0.2173  0.2444  0.1014
25682SOL    HW179053   8.041  10.572   6.405 -1.1478  0.3980  0.4559
25682SOL    HW279054   8.101  10.697   6.467 -3.7212  1.8781  0.0700
25683SOL     OW79055   2.595   2.105   7.019  0.2709 -0.4278  0.2125
25683SOL    HW179056   2.666   2.124   6.957  0.2050  2.7084  0.9522
25683SOL    HW279057   2.515   2.117   6.968  0.2070 -1.4653  0.0365
25684SOL     OW79058   2.609   4.396   2.341 -0.7713 -0.4139 -0.0383
25684SOL    HW179059   2.545   4.462   2.314  1.1951  1.6393 -0.0196
25684SOL    HW279060   2.567   4.349   2.412 -2.8690 -0.3020 -1.1282
25685SOL     OW79061   3.826   2.660  10.307  0.7782  0.1729  0.2290
25685SOL    HW179062   3.886   2.585  10.306  1.0191  0.3581 -1.0236
25685SOL    HW279063   3.743   2.623  10.335  1.1903 -0.3142  0.8483
25686SOL     OW79064   4.420   4.177   5.934 -0.0177  0.3928  0.1041
25686SOL    HW179065   4.391   4.182   6.026 -0.3098  2.9941 -0.0763
25686SOL    HW279066   4.437   4.083   5.920 -1.7483 -0.3246  2.2481
25687SOL     OW79067   9.445   9.037   9.114  0.3395  0.1083  0.4927
25687SOL    HW179068   9.512   9.105   9.117 -0.5145  0.9844  0.2451
25687SOL    HW279069   9.364   9.084   9.091 -0.2436 -1.0071  0.2090
25688SOL     OW79070   6.259  10.430   2.041  0.0194 -0.4670  0.2847
25688SOL    HW179071   6.221  10.344   2.022 -0.0194 -0.6006  0.9272
25688SOL    HW279072   6.257  10.476   1.958 -1.1745 -0.6212  0.2070
25689SOL     OW79073   9.946   7.557  10.059 -0.1300  0.2560  0.0525
25689SOL    HW179074   9.957   7.645  10.023  1.3898 -0.2548 -0.8440
25689SOL    HW279075   9.997   7.501  10.000  1.2374 -0.8506  2.1677
25690SOL     OW79076   6.514   1.730   5.101 -0.3447 -0.0943  0.6557
25690SOL    HW179077   6.522   1.675   5.023  1.3248  0.8196  0.1374
25690SOL    HW279078   6.421   1.749   5.108 -0.4518  0.3550 -1.5188
25691SOL     OW79079   3.258   9.232   0.663  0.2686  0.4117  0.0087
25691SOL    HW179080   3.259   9.209   0.756 -1.1510  1.3039  0.2750
25691SOL    HW279081   3.169   9.210   0.634  0.7363  0.0045 -1.1925
25692SOL     OW79082   1.750   7.030   8.083  0.3205 -0.5266  0.0639
25692SOL    HW179083   1.705   6.962   8.133  0.0040  0.4794  1.1786
25692SOL    HW279084   1.719   7.017   7.993 -1.1596 -0.7002  0.5725
25693SOL     OW79085   7.026   7.211   7.167  0.2683  0.3379 -0.2872
25693SOL    HW179086   7.074   7.171   7.240  1.8003  0.7354 -1.0291
25693SOL    HW279087   6.979   7.138   7.127 -0.6236  0.1231  1.1018
25694SOL     OW79088   2.909   5.979   6.909  0.0120 -0.6701 -0.0070
25694SOL    HW179089   2.889   6.026   6.828 -0.2059 -1.1196 -0.2130
25694SOL    HW279090   2.940   6.048   6.968 -2.8059  0.2535  0.5906
25695SOL     OW79091   6.306   8.431   5.773  0.2693 -0.1550 -0.1374
25695SOL    HW179092   6.235   8.413   5.835  0.7559 -1.0421  0.1803
25695SOL    HW279093   6.262   8.433   5.688 -0.4678  1.5234  0.2562
25696SOL     OW79094   4.223   0.608   1.948 -0.4313  0.6712  0.0247
25696SOL    HW179095   4.288   0.554   1.993  0.0004  0.5327 -0.7363
25696SOL    HW279096   4.202   0.677   2.010  0.9741  1.1228  0.0302
25697SOL     OW79097   9.178   2.563   0.348  0.0291  0.0863  1.1162
25697SOL    HW179098   9.270   2.552   0.373 -0.0177  0.9193  1.6905
25697SOL    HW279099   9.177   2.555   0.253  0.7689  0.5528  1.0664
25698SOL     OW79100   7.824   0.638   2.275 -0.0087  0.4264 -0.5405
25698SOL    HW179101   7.827   0.584   2.195 -0.6433  2.6595 -2.1824
25698SOL    HW279102   7.744   0.690   2.265 -1.2104 -0.5718  2.5748
25699SOL     OW79103   3.482   3.451   0.185 -0.3274 -0.1447  0.0920
25699SOL    HW179104   3.504   3.363   0.218 -1.3468 -1.4253 -2.3548
25699SOL    HW279105   3.529   3.457   0.101 -0.7204  1.4457 -0.0327
25700SOL     OW79106   4.208   4.473   7.067 -0.5160  0.4611 -0.6431
25700SOL    HW179107   4.296   4.499   7.038 -0.8914  1.7850 -0.6442
25700SOL    HW279108   4.150   4.500   6.996 -0.9956  0.0712 -0.4060
25701SOL     OW79109   2.143   8.137   5.280 -0.3774 -0.1805 -0.0964
25701SOL    HW179110   2.048   8.136   5.266 -0.1641  0.7084 -1.8732
25701SOL    HW279111   2.170   8.226   5.255  0.9036 -0.3191  0.6756
25702SOL     OW79112   5.257   8.799   2.691 -0.3448 -0.4641 -0.6846
25702SOL    HW179113   5.334   8.771   2.642 -0.5231 -1.2612 -0.5138
25702SOL    HW279114   5.219   8.869   2.637  0.4307 -0.1376 -0.8184
25703SOL     OW79115  10.856   0.198   7.288 -0.0867  0.1800 -0.3804
25703SOL    HW179116  10.926   0.190   7.353 -0.4272  0.4665  0.0289
25703SOL    HW279117  10.902   0.211   7.205  0.5012  5.4808  0.4435
25704SOL     OW79118  10.486   0.211   7.509  0.2367  0.2242  0.0434
25704SOL    HW179119  10.565   0.174   7.469  0.3058  1.3185 -0.8728
25704SOL    HW279120  10.459   0.281   7.449 -1.9493 -0.6877 -0.1524
25705SOL     OW79121   1.422   9.786   0.991 -0.4913  0.0039  0.2087
25705SOL    HW179122   1.331   9.816   0.994 -0.6923 -0.3314 -1.6102
25705SOL    HW279123   1.417   9.699   0.951  0.6422  0.0078  0.0353
25706SOL     OW79124   9.123   0.573   9.074  0.5030  0.1946 -0.3563
25706SOL    HW179125   9.089   0.511   9.139  1.1765  0.8497  0.6361
25706SOL    HW279126   9.070   0.652   9.087  0.7566  0.3875 -0.4968
25707SOL     OW79127   2.448   3.541   3.854  0.2823 -0.3017 -0.0372
25707SOL    HW179128   2.387   3.467   3.843 -0.2199  0.2207 -0.8706
25707SOL    HW279129   2.511   3.530   3.783  0.2674  0.0140 -0.0980
25708SOL     OW79130   2.966   6.217   7.181 -0.0222  0.2491  0.0243
25708SOL    HW179131   3.022   6.257   7.247  0.1627 -0.7694  0.5117
25708SOL    HW279132   2.877   6.245   7.205  0.1218  0.5466  0.2184
25709SOL     OW79133   3.618  10.784  10.144 -0.0490  0.4911  0.0240
25709SOL    HW179134   3.593  10.693  10.157  1.3430  0.1204  0.3166
25709SOL    HW279135   3.652  10.812  10.229 -0.1788  1.1852 -0.1453
25710SOL     OW79136   7.017   1.965   9.270  0.3515  0.1761  0.2108
25710SOL    HW179137   7.058   1.926   9.348  1.3258  1.2113  0.2422
25710SOL    HW279138   6.940   2.010   9.304 -1.1661 -2.1685  0.0900
25711SOL     OW79139   5.211   9.547  10.659 -0.3825  0.2413  0.2872
25711SOL    HW179140   5.249   9.623  10.703  0.8157 -0.3499  0.3126
25711SOL    HW279141   5.134   9.525  10.711 -1.5045  2.1770 -0.4306
25712SOL     OW79142   0.554   0.728   2.774  0.1221 -0.2522  0.2734
25712SOL    HW179143   0.533   0.770   2.857 -1.0626 -0.6150  0.1808
25712SOL    HW279144   0.533   0.794   2.708 -0.7516 -0.5992  0.1831
25713SOL     OW79145   7.790   1.483   6.584 -0.5864  0.0646 -0.1271
25713SOL    HW179146   7.817   1.497   6.494  1.8169 -2.5835  0.0517
25713SOL    HW279147   7.846   1.540   6.636 -0.0115 -0.4347 -0.1842
25714SOL     OW79148  10.751   4.423   6.680 -0.1722 -0.0005 -0.3216
25714SOL    HW179149  10.789   4.500   6.721 -1.2393 -0.5780  1.9366
25714SOL    HW279150  10.660   4.423   6.710  0.0649 -2.6906  0.7311
25715SOL     OW79151   5.650   9.967   8.525 -0.1649 -0.0527  0.0623
25715SOL    HW179152   5.705   9.983   8.448  1.3172 -0.0115  1.0897
25715SOL    HW279153   5.572   9.924   8.490  0.5162 -0.1218 -1.4493
25716SOL     OW79154   7.626   4.542   6.755 -0.2612 -0.5358 -0.2522
25716SOL    HW179155   7.704   4.546   6.699  0.2038 -0.5721  0.3809
25716SOL    HW279156   7.624   4.626   6.800  0.5750 -1.2776  1.2448
25717SOL     OW79157   5.429   0.634   9.552  0.1627 -0.2790 -0.1304
25717SOL    HW179158   5.380   0.714   9.535 -0.4676 -0.9911 -1.9186
25717SOL    HW279159   5.489   0.657   9.624 -0.9916  1.3455  0.3635
25718SOL     OW79160   3.020   5.089   7.413 -0.0063  0.0551 -0.3595
25718SOL    HW179161   2.945   5.149   7.415  0.0496  0.1938  3.1468
25718SOL    HW279162   3.096   5.147   7.422  0.1533 -0.3790  1.2944
25719SOL     OW79163   6.361   4.286   1.647 -0.1984  0.0578 -0.4612
25719SOL    HW179164   6.448   4.323   1.657  0.7743 -1.9533 -0.9809
25719SOL    HW279165   6.355   4.261   1.555 -0.3720 -1.9316  0.0321
25720SOL     OW79166   7.673   3.097   3.472 -0.2302 -0.4852 -0.6362
25720SOL    HW179167   7.658   3.191   3.479  0.5233 -0.3649 -0.5642
25720SOL    HW279168   7.747   3.080   3.530 -0.5095 -1.1598 -0.4730
25721SOL     OW79169   0.669   5.463   6.174  0.5771  0.3616  0.2964
25721SOL    HW179170   0.652   5.522   6.100  1.2482  1.6551  1.1349
25721SOL    HW279171   0.749   5.497   6.213  0.4149 -0.5118  1.4197
25722SOL     OW79172   2.750   3.750   5.837 -0.1632 -0.0252  0.0168
25722SOL    HW179173   2.805   3.733   5.914  1.7018  1.7354 -0.8137
25722SOL    HW279174   2.813   3.768   5.767 -1.8129  1.1908 -1.2326
25723SOL     OW79175   8.057   9.796   1.902  0.7578 -0.5159 -0.1510
25723SOL    HW179176   8.142   9.766   1.934  0.0318 -2.3273  0.2521
25723SOL    HW279177   8.002   9.717   1.905 -0.8146  0.5107 -0.8016
25724SOL     OW79178   2.936   3.677   4.372 -0.3048 -0.0610  0.0291
25724SOL    HW179179   2.987   3.685   4.291  0.8354 -2.3819  0.4260
25724SOL    HW279180   2.854   3.637   4.345  1.3154 -3.9668  0.2439
25725SOL     OW79181   6.316   8.657   3.675 -0.1124  0.3758 -0.3534
25725SOL    HW179182   6.333   8.722   3.743 -0.7630 -0.3572  0.5477
25725SOL    HW279183   6.249   8.696   3.620 -1.8181 -0.1768  1.2195
25726SOL     OW79184   8.800   5.849   4.686 -0.5049 -0.3019 -0.7995
25726SOL    HW179185   8.760   5.771   4.725  0.3744 -0.8889 -1.0302
25726SOL    HW279186   8.726   5.901   4.654 -1.1917 -0.3257  0.6534
25727SOL     OW79187   5.214   7.467   7.551 -0.4083  0.1212  0.1221
25727SOL    HW179188   5.121   7.477   7.575 -1.0087 -0.3703 -1.7820
25727SOL    HW279189   5.223   7.375   7.527  0.8657 -0.0848  1.3145
25728SOL     OW79190  10.574   5.642   0.136  0.4991 -0.3364 -0.2080
25728SOL    HW179191  10.583   5.715   0.075  0.6921  0.5498  0.8396
25728SOL    HW279192  10.658   5.596   0.132  0.5670 -0.1866 -0.5013
25729SOL     OW79193  10.958   5.450   2.814  0.1596 -0.4955 -0.3640
25729SOL    HW179194  11.041   5.404   2.813  0.8120  0.6366 -1.6742
25729SOL    HW279195  10.980   5.538   2.844 -0.6112 -0.2708 -0.4336
25730SOL     OW79196   2.953   0.963   3.206  0.5427  0.3437  0.1192
25730SOL    HW179197   3.033   0.973   3.258  0.5466 -0.2970  0.2454
25730SOL    HW279198   2.885   0.942   3.271  0.1082  1.5898  0.1025
25731SOL     OW79199   5.455   7.658   5.948  0.2296 -0.2762 -0.1421
25731SOL    HW179200   5.548   7.676   5.962 -0.1635  2.5122 -0.4760
25731SOL    HW279201   5.410   7.734   5.985 -1.6731  0.2079 -3.1223
25732SOL     OW79202   5.599   9.778   5.853 -0.4991 -0.2611  0.2465
25732SOL    HW179203   5.624   9.807   5.941 -0.9075  0.4501  0.1327
25732SOL    HW279204   5.682   9.773   5.805 -0.3930  0.4459  0.3493
25733SOL     OW79205   4.172   8.809   1.395  0.2319 -0.3574  0.6038
25733SOL    HW179206   4.164   8.899   1.365  1.1413 -0.2230  0.7247
25733SOL    HW279207   4.253   8.808   1.448 -0.7378 -0.8172  2.1494
25734SOL     OW79208   7.663   5.408   5.488 -0.6610  0.1728  0.6968
25734SOL    HW179209   7.588   5.464   5.466  0.2248  1.5642  1.0611
25734SOL    HW279210   7.709   5.457   5.556  0.4897 -0.7375  0.5888
25735SOL     OW79211  10.316   1.784   2.524 -0.2418  0.7818 -0.3152
25735SOL    HW179212  10.277   1.702   2.493 -1.2562  1.1659 -0.0776
25735SOL    HW279213  10.248   1.825   2.577  0.9830  0.7999  1.3156
25736SOL     OW79214   0.731  10.108   8.436 -0.4281  0.0888  0.1160
25736SOL    HW179215   0.645  10.134   8.403  0.3141  2.5936 -0.1151
25736SOL    HW279216   0.773  10.191   8.459  1.3438 -1.1735  1.7238
25737SOL     OW79217   6.503   0.855   7.295  0.8309 -0.3780  0.3034
25737SOL    HW179218   6.517   0.897   7.210  0.2883  0.7380  0.7416
25737SOL    HW279219   6.582   0.804   7.310  2.3085  1.8026  0.4872
25738SOL     OW79220   3.838  10.501   7.566  0.2269  0.2890 -0.0226
25738SOL    HW179221   3.924  10.501   7.522  0.6960  0.5272  0.8750
25738SOL    HW279222   3.827  10.591   7.596  0.4738 -0.1312  1.3997
25739SOL     OW79223   9.205   4.369   7.875  0.0270  0.4222 -0.4836
25739SOL    HW179224   9.207   4.418   7.792 -1.0147  1.6302  0.1606
25739SOL    HW279225   9.158   4.427   7.935  1.4335 -0.0906  1.1852
25740SOL     OW79226   7.327  10.444   6.558 -0.0507 -0.2184  0.3588
25740SOL    HW179227   7.246  10.468   6.604  0.1163 -1.0143  1.0922
25740SOL    HW279228   7.303  10.447   6.465 -1.2476 -1.5035  0.5920
25741SOL     OW79229   8.430   3.568   5.651 -0.9102 -0.1443 -0.1772
25741SOL    HW179230   8.480   3.543   5.573  2.8240  1.4447  1.4660
25741SOL    HW279231   8.418   3.662   5.642  1.9453  0.5684  2.2275
25742SOL     OW79232   4.095   5.227   9.000 -0.6797  0.3419 -0.2607
25742SOL    HW179233   4.170   5.267   9.044 -1.5222  1.8634 -0.1490
25742SOL    HW279234   4.120   5.225   8.907 -0.7069  1.3233 -0.2938
25743SOL     OW79235   3.326  10.157   5.828 -0.3260  0.0137 -0.3639
25743SOL    HW179236   3.408  10.108   5.828 -0.8200 -1.1297 -4.5438
25743SOL    HW279237   3.350  10.244   5.796 -0.6686 -0.2258 -1.2953
25744SOL     OW79238   5.947   3.372   7.643 -0.4005 -0.0291  0.2405
25744SOL    HW179239   5.990   3.286   7.639 -0.0827  0.1144  0.4723
25744SOL    HW279240   5.902   3.372   7.727  0.1392  0.2765  0.5361
25745SOL     OW79241  10.402   7.493   5.876 -0.8475  0.1477 -0.2717
25745SOL    HW179242  10.351   7.470   5.798 -3.1033  1.8813  0.5771
25745SOL    HW279243  10.345   7.470   5.949 -0.5960  2.4740  0.7196
25746SOL     OW79244   8.569   9.040   7.258 -0.5760 -0.3513  0.2105
25746SOL    HW179245   8.515   9.066   7.332 -2.2561 -1.0080 -0.7265
25746SOL    HW279246   8.576   8.944   7.266  0.3177 -0.2852  0.2375
25747SOL     OW79247   6.044   5.372   1.060 -0.6390  0.2741 -0.0386
25747SOL    HW179248   6.077   5.444   1.113  0.0186  0.3046 -0.4773
25747SOL    HW279249   6.036   5.408   0.972  0.8777 -0.4993 -0.5282
25748SOL     OW79250   0.603   0.627   9.506 -0.4222  0.6948  0.2318
25748SOL    HW179251   0.554   0.546   9.492 -0.8953  0.8852  0.7437
25748SOL    HW279252   0.694   0.598   9.516 -0.5658  0.2419  0.2676
25749SOL     OW79253   0.792   4.629   4.335  0.0974 -0.1729 -0.5692
25749SOL    HW179254   0.846   4.665   4.264 -0.1326 -1.3146 -1.3354
25749SOL    HW279255   0.769   4.541   4.306  0.9180 -1.1063  1.4046
25750SOL     OW79256   2.832   9.112   0.127  0.2821  0.1149  0.6410
25750SOL    HW179257   2.787   9.193   0.105  1.3084  0.6237  0.3167
25750SOL    HW279258   2.769   9.062   0.179 -0.6202  0.8022  0.2328
25751SOL     OW79259   0.602   3.254   8.029 -0.1709 -0.2344  0.2733
25751SOL    HW179260   0.691   3.225   8.049  0.4270  0.3871 -1.3558
25751SOL    HW279261   0.602   3.272   7.935 -2.0521 -0.3026  0.2086
25752SOL     OW79262   5.406   7.125  10.210  0.1704 -0.0503 -0.0752
25752SOL    HW179263   5.428   7.218  10.202 -1.1251  0.2870  0.0993
25752SOL    HW279264   5.491   7.081  10.221  0.8372  1.0455 -0.7011
25753SOL     OW79265   7.466   0.674   0.913 -0.0707  0.1012  0.1652
25753SOL    HW179266   7.462   0.646   0.822 -0.3603 -1.0814  0.5271
25753SOL    HW279267   7.411   0.753   0.917  1.0806  1.0042 -0.9530
25754SOL     OW79268  10.207  10.127   9.160  0.0106  0.3699  0.2866
25754SOL    HW179269  10.188  10.118   9.254  0.7182 -1.2213  0.3010
25754SOL    HW279270  10.138  10.185   9.128 -0.4183  0.7105  1.7257
25755SOL     OW79271   0.039   2.460  10.256  0.0057 -0.3794  0.0273
25755SOL    HW179272   0.130   2.440  10.232  0.7006 -1.6090  3.2210
25755SOL    HW279273  -0.009   2.380  10.236  0.1340 -0.6001  0.5860
25756SOL     OW79274   2.699   4.941   1.751  0.2626 -0.1774  0.1738
25756SOL    HW179275   2.759   4.947   1.676  1.3367  0.0094  1.0351
25756SOL    HW279276   2.629   4.883   1.720 -0.5351  1.6720 -1.7622
25757SOL     OW79277   8.528  10.739   2.069  0.1934  0.5287  0.0651
25757SOL    HW179278   8.477  10.775   1.996 -1.9317 -1.4605  0.4552
25757SOL    HW279279   8.569  10.661   2.033  0.8505  0.6790  0.4727
25758SOL     OW79280   2.534   1.471   3.159 -0.0608 -0.0717  0.2124
25758SOL    HW179281   2.447   1.502   3.186  0.1563 -0.2260  1.1146
25758SOL    HW279282   2.594   1.535   3.197  0.2345 -0.0099 -0.3475
25759SOL     OW79283  10.576   0.340   1.535 -0.2023  0.4143  0.0383
25759SOL    HW179284  10.497   0.289   1.519  0.1018 -1.2400  3.0302
25759SOL    HW279285  10.544   0.429   1.549 -1.2173  0.2716 -1.2285
25760SOL     OW79286   4.396   2.886   3.459  0.0921  0.2848  0.2069
25760SOL    HW179287   4.459   2.864   3.391 -1.2421 -0.4984 -0.8357
25760SOL    HW279288   4.373   2.977   3.442  0.2792  0.3023  0.0407
25761SOL     OW79289   4.488   0.100   3.230  0.0717  0.7381  0.1631
25761SOL    HW179290   4.571   0.088   3.183 -0.4807  0.9320 -0.8924
25761SOL    HW279291   4.511   0.153   3.306  0.9547  0.5921  0.0071
25762SOL     OW79292   6.652   9.503   8.010 -0.3067  0.3142 -0.6945
25762SOL    HW179293   6.588   9.552   8.061 -1.1212 -0.9173 -0.5023
25762SOL    HW279294   6.736   9.521   8.053 -1.0203 -1.0413  1.3964
25763SOL     OW79295   7.427   2.840   4.076 -0.3552  0.0910 -0.2368
25763SOL    HW179296   7.377   2.769   4.035 -0.1817  1.2213 -2.5039
25763SOL    HW279297   7.449   2.900   4.005  0.4562  1.8947  1.4231
25764SOL     OW79298   2.242   5.971   7.253  0.0433  0.4495 -0.0367
25764SOL    HW179299   2.308   5.957   7.321  0.2874 -2.7428 -0.7620
25764SOL    HW279300   2.291   6.005   7.178  0.7928 -1.0774 -0.2857
25765SOL     OW79301   4.318   5.649   7.382 -0.4597 -0.4201 -0.3614
25765SOL    HW179302   4.388   5.659   7.446  0.9519 -0.6804 -1.8277
25765SOL    HW279303   4.238   5.667   7.432  0.6424  0.1140  1.2898
25766SOL     OW79304   7.232   4.335   2.763  0.1492  0.3168  0.4638
25766SOL    HW179305   7.317   4.368   2.732  1.4468 -0.2239  3.0918
25766SOL    HW279306   7.219   4.379   2.847 -1.9435 -0.0204  0.3597
25767SOL     OW79307   9.950   6.922   5.247  0.4811  1.0158  0.8210
25767SOL    HW179308   9.934   6.849   5.308  2.3855 -0.6256 -0.4969
25767SOL    HW279309  10.013   6.978   5.293  3.4609 -1.2274 -0.1613
25768SOL     OW79310   6.322   8.759   7.200  0.0296  0.0513 -0.2426
25768SOL    HW179311   6.231   8.731   7.200 -0.1102  0.4330 -1.6401
25768SOL    HW279312   6.360   8.718   7.277 -1.4801  0.4176  0.7415
25769SOL     OW79313   1.219   9.806   8.320 -0.2878 -0.6695 -0.0971
25769SOL    HW179314   1.142   9.795   8.376 -0.6336  0.5721 -0.3024
25769SOL    HW279315   1.288   9.758   8.365 -0.3279  0.9870  1.9118
25770SOL     OW79316   2.108   2.151   6.262 -0.1462 -0.3104  0.5179
25770SOL    HW179317   2.089   2.110   6.347  0.5035 -1.3042  0.1947
25770SOL    HW279318   2.062   2.096   6.199 -0.1683  0.1100  0.1623
25771SOL     OW79319   8.647   8.770  10.367  0.2926  0.3317 -0.2351
25771SOL    HW179320   8.702   8.847  10.359  0.2777  0.1601 -2.9207
25771SOL    HW279321   8.703   8.703  10.407  0.7179  1.2862  0.8170
25772SOL     OW79322   7.244   1.299   9.640 -0.2563 -0.2072  0.1721
25772SOL    HW179323   7.196   1.222   9.608 -1.1429  0.4016 -0.0015
25772SOL    HW279324   7.186   1.338   9.705  0.3511  0.1103  0.5267
25773SOL     OW79325   4.366   0.892   0.636 -0.5483  0.2183 -0.2450
25773SOL    HW179326   4.312   0.863   0.709  0.7549 -1.3851  0.1424
25773SOL    HW279327   4.319   0.865   0.558 -0.2971 -1.2517  0.0863
25774SOL     OW79328   5.487   5.003   5.988 -0.4710  0.3212 -0.3078
25774SOL    HW179329   5.444   5.003   6.074 -0.0699  1.3581 -0.0920
25774SOL    HW279330   5.546   4.928   5.991  2.6450  2.5914  1.9721
25775SOL     OW79331   1.522   5.909   5.577 -0.2473 -0.0577  0.4123
25775SOL    HW179332   1.618   5.914   5.580 -0.1526 -0.8886 -0.6615
25775SOL    HW279333   1.502   5.818   5.597 -0.8816  0.3092  1.5202
25776SOL     OW79334   6.693   7.828   7.216  0.2190  0.0310  0.1202
25776SOL    HW179335   6.598   7.841   7.218  0.2260  0.6047 -1.8445
25776SOL    HW279336   6.709   7.766   7.287 -1.5452  0.3578  0.8678
25777SOL     OW79337  10.120   7.112   5.347 -0.5192  0.2720  0.1090
25777SOL    HW179338  10.158   7.146   5.428 -2.8153  0.9878  0.9858
25777SOL    HW279339  10.190   7.061   5.307  0.5026 -0.7517  2.9190
25778SOL     OW79340   0.081  10.513   5.225 -0.4369  0.3502  0.2639
25778SOL    HW179341   0.157  10.494   5.280 -1.2696  0.6042  1.5617
25778SOL    HW279342   0.052  10.600   5.255 -0.9087  0.5003 -0.6005
25779SOL     OW79343   0.527   4.300   3.155  0.4678  0.3678  0.3055
25779SOL    HW179344   0.597   4.361   3.132 -0.7165  1.8122  0.3715
25779SOL    HW279345   0.498   4.264   3.071 -2.1666  3.7517 -0.4464
25780SOL     OW79346   9.069   8.000   4.444 -0.9772  0.8397  0.5218
25780SOL    HW179347   9.072   7.932   4.377 -1.2110  0.2091  1.1373
25780SOL    HW279348   9.075   7.952   4.527 -0.1093  1.6370  0.9415
25781SOL     OW79349   5.386   2.312   8.588  0.2774  0.2725 -0.0675
25781SOL    HW179350   5.438   2.380   8.630  0.5459 -0.7186  1.2943
25781SOL    HW279351   5.421   2.306   8.499  1.3669  0.7773  0.3135
25782SOL     OW79352   0.346   7.134   0.610 -0.2264 -0.0618  0.4597
25782SOL    HW179353   0.426   7.149   0.662  0.5310  1.1991 -0.9894
25782SOL    HW279354   0.376   7.134   0.520 -1.9626  1.2464 -0.1749
25783SOL     OW79355   6.122   3.790   4.093 -1.0482  0.3234 -0.1765
25783SOL    HW179356   6.160   3.857   4.037  1.4740 -1.1573 -0.3808
25783SOL    HW279357   6.134   3.824   4.182 -1.9616  1.1547 -0.3534
25784SOL     OW79358   7.314   7.098   1.238  0.2852 -0.3751  0.4355
25784SOL    HW179359   7.298   7.177   1.290  0.1253  0.2775 -0.5718
25784SOL    HW279360   7.372   7.128   1.168 -2.1571 -0.4012 -1.7535
25785SOL     OW79361   4.895   4.959   3.118 -0.1829  0.5970  0.3451
25785SOL    HW179362   4.822   4.919   3.070  0.1130  1.3594 -0.7665
25785SOL    HW279363   4.866   5.048   3.135  0.0259  0.5554  0.9383
25786SOL     OW79364   7.009   6.893  10.507 -0.0834  0.3735  0.5622
25786SOL    HW179365   6.928   6.852  10.535 -0.6407  1.1876  0.1750
25786SOL    HW279366   7.020   6.967  10.566 -0.6806  1.4393 -0.6190
25787SOL     OW79367   9.752   5.904  11.004 -0.0943 -0.3295 -0.5727
25787SOL    HW179368   9.804   5.827  10.983  0.0806 -0.8068  1.3822
25787SOL    HW279369   9.798   5.945  11.077 -1.1343  0.6232 -0.4259
25788SOL     OW79370  10.014   3.464   4.777  1.1416 -0.5521 -0.0624
25788SOL    HW179371  10.071   3.496   4.707  1.1405 -1.2826 -0.4161
25788SOL    HW279372   9.927   3.460   4.738  0.8296  0.5992  0.4898
25789SOL     OW79373   2.161   3.620   8.285 -0.0464 -0.4867  0.0719
25789SOL    HW179374   2.084   3.563   8.278 -0.3663  0.0284 -0.7701
25789SOL    HW279375   2.177   3.627   8.379 -0.8527 -0.8387  0.2445
25790SOL     OW79376   1.983   4.575   3.547  0.2499  0.3573  0.2148
25790SOL    HW179377   1.899   4.609   3.580 -0.5132 -0.7210 -0.5414
25790SOL    HW279378   2.017   4.645   3.492 -0.3211  0.6898  0.2700
25791SOL     OW79379   0.620   1.768   3.159 -0.3969  0.2387 -0.9687
25791SOL    HW179380   0.703   1.741   3.120  0.1858  0.3806  0.1322
25791SOL    HW279381   0.553   1.726   3.104  0.4206 -0.7215 -1.2725
25792SOL     OW79382   3.971   3.388   3.246  0.1247 -0.2059  0.0948
25792SOL    HW179383   3.981   3.472   3.200  1.1466  0.6995  1.8637
25792SOL    HW279384   4.059   3.364   3.272 -0.0687 -2.2314 -0.9744
25793SOL     OW79385   2.261   4.862   7.491  0.5309  0.3134  0.4630
25793SOL    HW179386   2.216   4.786   7.453 -0.2502  0.2329  1.4870
25793SOL    HW279387   2.238   4.935   7.434 -0.1724  0.0937  0.4474
25794SOL     OW79388   6.605   7.183   8.643 -0.4501 -0.5657  0.3113
25794SOL    HW179389   6.592   7.096   8.681 -1.7746 -0.7241 -0.4556
25794SOL    HW279390   6.537   7.191   8.576 -0.9914  1.4740  1.0436
25795SOL     OW79391   4.277  10.602  10.921 -0.2149 -0.1784  0.2167
25795SOL    HW179392   4.330  10.682  10.921 -2.4494  1.4177  0.1982
25795SOL    HW279393   4.312  10.549  10.850  1.4889  0.6467  0.3911
25796SOL     OW79394   0.703   6.274  10.511  0.0458  0.3135  0.5841
25796SOL    HW179395   0.627   6.226  10.544 -0.4922  0.1905 -0.7627
25796SOL    HW279396   0.744   6.213  10.449 -0.4855  1.4496 -0.9461
25797SOL     OW79397   5.075   3.236   4.616  0.3974 -0.4759 -0.2197
25797SOL    HW179398   5.003   3.272   4.667 -0.9418 -0.4999 -1.9767
25797SOL    HW279399   5.098   3.154   4.660  1.2002  0.7921  1.8731
25798SOL     OW79400   3.475   3.095   5.441  0.0424  0.3787  0.0202
25798SOL    HW179401   3.449   3.008   5.472  0.5359  1.4490  3.9933
25798SOL    HW279402   3.542   3.077   5.375 -0.1809 -2.2664  0.3909
25799SOL     OW79403   7.769   6.199  10.279  0.1980  0.0377  0.0853
25799SOL    HW179404   7.837   6.161  10.224 -0.0232  0.0898 -0.2260
25799SOL    HW279405   7.812   6.272  10.324  0.7177 -0.7795  0.9468
25800SOL     OW79406   9.037   3.089   2.575 -0.4743  0.4384  0.0763
25800SOL    HW179407   9.097   3.022   2.607 -0.8015  0.9446  1.8715
25800SOL    HW279408   9.094   3.165   2.557 -0.4930  0.8155  1.4745
25801SOL     OW79409   9.659   6.845   4.817  0.2918  0.1603 -0.2968
25801SOL    HW179410   9.696   6.851   4.905  0.9192  0.4725 -0.5745
25801SOL    HW279411   9.708   6.775   4.774  0.8474  0.8214 -0.7853
25802SOL     OW79412  10.033   7.780   4.359 -0.1925 -0.1827 -0.1152
25802SOL    HW179413   9.968   7.781   4.428 -1.2781  0.0172 -1.1100
25802SOL    HW279414  10.025   7.866   4.317 -0.1830 -0.6316 -1.0633
25803SOL     OW79415   8.100   0.353   7.126 -0.0357 -0.7390 -0.5795
25803SOL    HW179416   8.074   0.291   7.057 -0.7055  0.1400 -1.1306
25803SOL    HW279417   8.029   0.350   7.190  0.6948 -1.7321  0.2323
25804SOL     OW79418   0.067   1.844  10.069  0.0451  0.1448 -0.7300
25804SOL    HW179419   0.078   1.808   9.981 -1.3895  0.6979 -1.1609
25804SOL    HW279420   0.110   1.929  10.066 -0.3659  0.3427 -1.0265
25805SOL     OW79421   1.200   4.876   2.320 -0.2613  0.2253  0.0913
25805SOL    HW179422   1.108   4.847   2.315 -0.6816  1.7138 -2.1382
25805SOL    HW279423   1.212   4.899   2.412 -1.8861 -0.6989  0.5937
25806SOL     OW79424   9.898   5.151   2.575  0.0567  0.4628  0.3263
25806SOL    HW179425   9.827   5.209   2.549 -1.4338 -0.9107  1.0892
25806SOL    HW279426   9.873   5.065   2.539  1.5641  0.0437  0.2296
25807SOL     OW79427   1.037  10.929  11.039  0.0624 -0.1846  0.0803
25807SOL    HW179428   1.050  10.859  11.103 -1.7373 -0.8145 -0.1640
25807SOL    HW279429   1.057  11.010  11.087 -0.7882 -0.6760  1.3187
25808SOL     OW79430   5.553   4.886   4.588  0.0954  0.3192 -0.0954
25808SOL    HW179431   5.575   4.796   4.563  2.0725  1.3324 -2.4922
25808SOL    HW279432   5.462   4.897   4.557  0.4558 -0.3393 -1.5006
25809SOL     OW79433   7.555   9.423   8.521  0.1774 -0.5739  0.3246
25809SOL    HW179434   7.548   9.369   8.442  0.6753  2.4521 -1.9674
25809SOL    HW279435   7.464   9.436   8.550 -0.0927 -0.8487 -0.3836
25810SOL     OW79436   0.900   8.393   1.859 -0.2264  0.3526  0.0728
25810SOL    HW179437   0.928   8.304   1.881  0.2623  0.6088  0.5326
25810SOL    HW279438   0.806   8.394   1.873 -0.1039  0.1571  0.9746
25811SOL     OW79439   6.898  10.070   3.408 -0.2895  0.2607 -0.0595
25811SOL    HW179440   6.971  10.033   3.360 -0.5896 -0.2094 -0.1548
25811SOL    HW279441   6.849   9.995   3.442 -1.5579  0.5116 -1.2329
25812SOL     OW79442   5.013   0.799   8.937 -0.0592 -0.0448 -0.3852
25812SOL    HW179443   5.088   0.745   8.960  1.0078  1.2712 -0.6756
25812SOL    HW279444   5.050   0.884   8.913 -1.6299  0.6181 -0.6185
25813SOL     OW79445   3.330   0.328  10.104  0.3315 -0.0879 -0.3017
25813SOL    HW179446   3.404   0.316  10.045 -0.1150 -0.7183 -0.7396
25813SOL    HW279447   3.353   0.276  10.182  0.0327 -0.8808 -0.7311
25814SOL     OW79448   2.799   5.072   9.107  0.1450  0.3841 -0.0450
25814SOL    HW179449   2.816   5.153   9.156 -0.2007 -0.1779  1.0496
25814SOL    HW279450   2.760   5.101   9.025  0.0732  1.3384  0.3152
25815SOL     OW79451   0.327   8.580   9.726 -0.0643 -0.6697  0.0175
25815SOL    HW179452   0.362   8.512   9.785 -2.3395 -1.4848  0.5211
25815SOL    HW279453   0.320   8.537   9.641 -1.7070 -1.2036  0.3839
25816SOL     OW79454   5.017   2.649   7.982  0.8479  0.9113 -0.0083
25816SOL    HW179455   4.935   2.634   7.934 -0.1098  1.0033  1.5184
25816SOL    HW279456   5.081   2.668   7.914 -0.3193  0.5287 -1.2809
25817SOL     OW79457   3.948   9.005  10.724 -0.1922 -0.2991  1.1862
25817SOL    HW179458   3.981   9.081  10.771 -0.7151  1.5003 -1.1643
25817SOL    HW279459   4.022   8.975  10.671 -0.7134  0.2802  0.0975
25818SOL     OW79460   4.247   3.536   7.933 -0.1228  0.7143  0.3928
25818SOL    HW179461   4.246   3.630   7.954 -0.8430  0.5745  1.0577
25818SOL    HW279462   4.173   3.500   7.982  0.0150 -0.1709 -0.0246
25819SOL     OW79463   9.575   2.968   7.536  0.1589  0.5562  0.2839
25819SOL    HW179464   9.527   2.930   7.610  1.2287 -0.0126  0.7086
25819SOL    HW279465   9.593   3.058   7.562  1.1362  0.1578  1.0360
25820SOL     OW79466  10.061   4.396   2.734 -0.4948  0.8045  0.5032
25820SOL    HW179467  10.029   4.399   2.825 -0.3753 -0.0430  0.5797
25820SOL    HW279468  10.094   4.307   2.723  1.1230  1.4167  0.1647
25821SOL     OW79469   5.086   7.424   4.574 -0.7391 -0.2792  0.5098
25821SOL    HW179470   5.056   7.393   4.488 -2.0168 -1.7256  1.4316
25821SOL    HW279471   5.013   7.474   4.608 -0.1516  0.4771  0.6936
25822SOL     OW79472   7.661   4.723   3.267  0.1596  0.2182  0.3652
25822SOL    HW179473   7.733   4.661   3.277  1.0291  1.1383 -0.0004
25822SOL    HW279474   7.682   4.795   3.326 -1.8243 -0.6535  2.2518
25823SOL     OW79475   9.268   4.598  10.685  0.4717 -0.6636 -0.2126
25823SOL    HW179476   9.329   4.589  10.612  1.4256  2.4172  0.0630
25823SOL    HW279477   9.244   4.690  10.685 -0.2241 -0.7349  2.8139
25824SOL     OW79478   4.658   8.128   8.455  0.8085  0.2273  0.2026
25824SOL    HW179479   4.704   8.212   8.463  1.1594  0.0604 -0.0241
25824SOL    HW279480   4.568   8.148   8.479  0.7867  0.7673 -0.3116
25825SOL     OW79481   3.684   5.310  10.911 -0.4856  0.0694  0.0072
25825SOL    HW179482   3.741   5.352  10.976 -1.1957  2.2835 -0.6927
25825SOL    HW279483   3.741   5.299  10.834 -0.4329  0.3122  0.0081
25826SOL     OW79484   4.009   5.181   4.076  0.2068  0.0660  0.0324
25826SOL    HW179485   4.052   5.144   4.153 -0.7460 -2.3318 -0.4937
25826SOL    HW279486   3.961   5.107   4.038  1.3405  0.9226 -3.3846
25827SOL     OW79487   6.451   9.220   4.335 -0.5087 -0.6199 -0.1442
25827SOL    HW179488   6.397   9.142   4.346 -1.5759 -0.2933 -2.3820
25827SOL    HW279489   6.432   9.274   4.412 -1.5978 -1.5423  0.2512
25828SOL     OW79490   7.993   7.243   9.974  0.6147  0.6320 -0.3191
25828SOL    HW179491   7.974   7.190   9.896 -0.0501  0.3632  0.0198
25828SOL    HW279492   7.961   7.331   9.952  1.1661  0.7547 -0.6507
25829SOL     OW79493   4.288   9.174   3.970  0.1631 -0.6443  0.3743
25829SOL    HW179494   4.383   9.172   3.963  0.2105  0.2508  0.6431
25829SOL    HW279495   4.269   9.255   4.016 -0.7528 -0.6359 -0.0004
25830SOL     OW79496   4.574  10.865   0.338  0.3539 -0.3238  0.7567
25830SOL    HW179497   4.607  10.953   0.350 -2.7879  1.2840 -1.0055
25830SOL    HW279498   4.632  10.826   0.272  0.2886  1.4255 -0.3962
25831SOL     OW79499   4.870   6.724   9.432 -0.5965 -0.4759 -0.6980
25831SOL    HW179500   4.878   6.811   9.392 -0.9109 -1.0922 -2.1659
25831SOL    HW279501   4.959   6.691   9.437 -0.3399  0.3505  0.9250
25832SOL     OW79502   2.631   7.716   1.416 -0.7485  0.2767  0.6683
25832SOL    HW179503   2.583   7.798   1.414 -0.2634  0.6642 -3.4114
25832SOL    HW279504   2.719   7.740   1.445 -0.7073  1.1680 -0.1621
25833SOL     OW79505   7.960   3.657   9.062 -0.0884  0.0919  0.6705
25833SOL    HW179506   8.035   3.715   9.055  0.4770 -0.7996 -1.5630
25833SOL    HW279507   7.958   3.609   8.979 -2.2161 -1.0295  1.2702
25834SOL     OW79508   7.413   2.714   9.932 -0.6379  0.4011 -0.6401
25834SOL    HW179509   7.473   2.645   9.901 -1.1274 -0.9728  1.2672
25834SOL    HW279510   7.347   2.721   9.863  0.9464  0.9942 -2.1650
25835SOL     OW79511   2.818   4.958   4.194 -0.2210 -0.1970 -0.2312
25835SOL    HW179512   2.832   4.871   4.231  0.1607 -0.4775 -1.0119
25835SOL    HW279513   2.870   4.959   4.114 -0.5379  0.6120 -0.4411
25836SOL     OW79514   5.138   0.038   8.015  0.8137 -0.0361 -0.0604
25836SOL    HW179515   5.054   0.080   8.036  0.4691 -1.5316  1.9359
25836SOL    HW279516   5.118  -0.021   7.943  0.5206  0.7146 -0.6087
25837SOL     OW79517   5.020   0.956   1.979  0.3107 -0.5805  0.2489
25837SOL    HW179518   5.005   0.991   1.891  0.3779 -1.7556 -0.2593
25837SOL    HW279519   5.113   0.971   1.995  0.9074 -2.4846 -0.9330
25838SOL     OW79520   7.283   0.411   2.112 -0.1672  0.7140  0.7174
25838SOL    HW179521   7.246   0.468   2.179 -1.1644  1.1501 -0.1693
25838SOL    HW279522   7.237   0.328   2.123  0.1947  0.5570  1.0413
25839SOL     OW79523   1.042   6.091  10.024  0.1469 -0.0027  0.1362
25839SOL    HW179524   1.062   5.998  10.037  1.4059  0.3116  0.6074
25839SOL    HW279525   0.947   6.094  10.014  0.1141 -1.3653 -0.1230
25840SOL     OW79526   1.263   1.205   1.089 -0.5358 -0.2242  0.0665
25840SOL    HW179527   1.336   1.206   1.026  0.4339 -1.5262  1.0942
25840SOL    HW279528   1.242   1.297   1.103  1.8436  0.2913  0.7197
25841SOL     OW79529   0.316   0.876   7.494  0.1532 -0.7216 -1.1232
25841SOL    HW179530   0.336   0.964   7.463  1.3070 -0.5411  0.0245
25841SOL    HW279531   0.221   0.869   7.490 -0.1561  1.3413  0.6738
25842SOL     OW79532  10.447   2.779   3.594 -0.0094  0.4367 -0.3606
25842SOL    HW179533  10.431   2.729   3.514  3.0185 -0.5253 -0.5103
25842SOL    HW279534  10.421   2.720   3.664 -0.9537  0.5612 -0.5961
25843SOL     OW79535   1.350   8.262   7.953 -0.1008 -0.4901  0.0325
25843SOL    HW179536   1.356   8.289   8.045  3.8246  0.0152 -0.1921
25843SOL    HW279537   1.264   8.293   7.925  0.2347  3.2462  2.4139
25844SOL     OW79538   3.110   2.993   0.831 -0.0996 -0.0111  0.3033
25844SOL    HW179539   3.075   2.995   0.920 -0.0097 -0.8089  0.3650
25844SOL    HW279540   3.032   2.997   0.775 -0.1693  0.2599  0.4172
25845SOL     OW79541   6.089   3.478   2.381  0.0708  0.5674 -0.3236
25845SOL    HW179542   6.092   3.390   2.345  0.1631  0.7414 -0.7538
25845SOL    HW279543   6.028   3.525   2.325 -2.1636  0.0650  1.5614
25846SOL     OW79544   8.193   6.523   8.223 -0.1638  0.3788  0.1421
25846SOL    HW179545   8.284   6.507   8.199 -0.1348  1.8568 -0.8082
25846SOL    HW279546   8.161   6.437   8.250  1.8900  0.0539  1.8766
25847SOL     OW79547   0.879   3.126  10.448  0.3844  0.4302 -0.5582
25847SOL    HW179548   0.896   3.214  10.482 -0.1715 -0.1219  1.2467
25847SOL    HW279549   0.861   3.073  10.526 -0.2323 -1.0721 -1.6753
25848SOL     OW79550   8.593   0.811  10.959  0.0657  0.0281  0.0348
25848SOL    HW179551   8.503   0.830  10.932  0.2150  0.3308 -0.2555
25848SOL    HW279552   8.617   0.731  10.913  0.2412  0.4167 -0.5500
25849SOL     OW79553   9.517   0.142   6.475  0.2268 -0.2189  0.1484
25849SOL    HW179554   9.536   0.199   6.550  1.2614  0.1365 -0.3694
25849SOL    HW279555   9.511   0.054   6.513 -1.3226  0.1913  0.9443
25850SOL     OW79556   1.470   5.655   2.535 -0.5515  0.3388 -0.1813
25850SOL    HW179557   1.405   5.717   2.569  0.1809  0.2856  1.3933
25850SOL    HW279558   1.420   5.577   2.515 -1.2711  0.9597 -0.8949
25851SOL     OW79559   3.074  10.179   9.195  0.7630 -0.8319 -0.2684
25851SOL    HW179560   3.036  10.267   9.193  0.7463 -0.7950 -3.4880
25851SOL    HW279561   3.152  10.188   9.249  0.1425  0.8769  0.4030
25852SOL     OW79562   2.408   2.255   6.306 -0.0736 -0.3707  0.2589
25852SOL    HW179563   2.423   2.323   6.240  1.4421 -1.2234 -0.3174
25852SOL    HW279564   2.320   2.222   6.288 -0.3647  0.6316 -0.1846
25853SOL     OW79565   6.128  10.151   4.166  0.0954 -0.2897 -0.8951
25853SOL    HW179566   6.123  10.057   4.148 -0.6663  0.0535 -2.7773
25853SOL    HW279567   6.218  10.175   4.143  0.5976 -0.6960  0.5434
25854SOL     OW79568   4.834   9.106   2.432  0.5045 -0.2185 -0.0744
25854SOL    HW179569   4.822   9.024   2.479 -1.4516  0.2847  0.4152
25854SOL    HW279570   4.825   9.083   2.339  1.6389 -0.7941 -0.0493
25855SOL     OW79571   1.696   8.620   2.325 -0.0994  0.7565 -0.1767
25855SOL    HW179572   1.690   8.573   2.242  0.3635  0.5287 -0.0805
25855SOL    HW279573   1.636   8.694   2.314 -2.3426 -0.8725  0.3636
25856SOL     OW79574   5.809   5.842   9.892  0.0465  0.4275 -0.1254
25856SOL    HW179575   5.768   5.928   9.888  0.2993  0.6895  1.8930
25856SOL    HW279576   5.830   5.830   9.985  1.9624 -0.8954 -0.6788
25857SOL     OW79577   4.059   5.016   8.587  0.4023 -0.0109 -0.1270
25857SOL    HW179578   4.111   5.005   8.508 -0.4543 -0.1252 -0.6955
25857SOL    HW279579   3.974   4.976   8.565 -1.2528  3.4568 -0.5920
25858SOL     OW79580   9.028   9.211   7.930 -0.3566  0.3963 -0.8607
25858SOL    HW179581   8.999   9.131   7.886 -2.0914  0.8918 -0.7092
25858SOL    HW279582   9.061   9.182   8.015  2.0746 -0.4644 -2.0272
25859SOL     OW79583   9.723  10.229   2.380  0.0376  0.7951 -0.5100
25859SOL    HW179584   9.667  10.290   2.429 -0.2219  0.1332  0.0271
25859SOL    HW279585   9.805  10.226   2.430  0.9845  2.5275 -1.8164
25860SOL     OW79586   3.866   3.393  10.814  0.2361 -0.5831 -0.2093
25860SOL    HW179587   3.799   3.326  10.828 -0.4901  0.1110 -0.2665
25860SOL    HW279588   3.840   3.438  10.734  1.0419 -0.6096 -0.4968
25861SOL     OW79589   4.621   1.122   8.298 -0.1636 -0.4037  0.1727
25861SOL    HW179590   4.579   1.202   8.331  0.6529  0.6869 -1.2858
25861SOL    HW279591   4.583   1.109   8.212  3.3914  1.5261 -1.9126
25862SOL     OW79592   7.800   2.875   7.282 -0.2486 -0.3419  0.5047
25862SOL    HW179593   7.858   2.799   7.294  0.3124  0.1256  0.7707
25862SOL    HW279594   7.803   2.892   7.188 -1.9192 -1.8443  0.1064
25863SOL     OW79595   6.313   4.233   1.325  0.1643  0.3417 -0.0589
25863SOL    HW179596   6.281   4.144   1.312 -1.4406  1.1682 -2.6444
25863SOL    HW279597   6.407   4.229   1.308 -0.1152 -0.6755 -1.5551
25864SOL     OW79598   2.364  10.264   7.356 -0.3379 -0.4970 -0.4361
25864SOL    HW179599   2.392  10.350   7.323  0.9865 -0.6458  0.2156
25864SOL    HW279600   2.337  10.216   7.277  1.1779 -0.2812 -1.1341
25865SOL     OW79601   6.918   3.998   8.639  0.4477  0.4810 -0.0171
25865SOL    HW179602   6.833   4.011   8.597 -0.1736 -0.1629  1.0251
25865SOL    HW279603   6.944   3.909   8.615  0.2427  0.2278  0.6778
25866SOL     OW79604   7.669  10.703   6.881 -0.3692 -0.5074 -0.0446
25866SOL    HW179605   7.611  10.631   6.858 -0.9217 -0.1081  0.0903
25866SOL    HW279606   7.746  10.661   6.919 -1.0444 -0.9911  0.8163
25867SOL     OW79607   9.290   1.917   1.222 -0.2663 -0.0137  0.4653
25867SOL    HW179608   9.315   1.911   1.130  0.3718  0.4861  0.6037
25867SOL    HW279609   9.194   1.918   1.220 -0.2707  1.7498 -0.3345
25868SOL     OW79610   8.983   2.645   5.971 -0.6660 -0.3002 -0.1951
25868SOL    HW179611   8.969   2.700   6.048 -2.5227 -0.8921 -0.0736
25868SOL    HW279612   9.072   2.668   5.941  0.5570 -0.8160  2.7222
25869SOL     OW79613   9.488   1.094   2.301  0.0903 -0.2720 -0.1551
25869SOL    HW179614   9.518   1.183   2.284  0.6432 -0.3732  0.2753
25869SOL    HW279615   9.564   1.049   2.337 -0.4717 -0.6375  0.6102
25870SOL     OW79616   5.025   4.097   2.723 -0.1258  0.1422  0.2958
25870SOL    HW179617   4.988   4.020   2.766 -1.8839  0.1834 -1.0523
25870SOL    HW279618   4.966   4.169   2.745 -0.7996  0.2668 -1.6799
25871SOL     OW79619   0.989   0.617   0.660  0.1296 -0.2800 -0.3620
25871SOL    HW179620   1.003   0.672   0.736 -4.6056  0.1469  0.5103
25871SOL    HW279621   1.012   0.529   0.689  1.8158  0.3335  0.2715
25872SOL     OW79622   4.704   1.701   3.904  0.5014  0.0142 -0.0811
25872SOL    HW179623   4.647   1.760   3.854  0.9519 -1.7415 -2.8528
25872SOL    HW279624   4.662   1.615   3.897  0.9465 -0.4479  2.1050
25873SOL     OW79625   7.647   6.890   7.974 -0.3825 -0.1144 -0.3682
25873SOL    HW179626   7.637   6.933   8.059  0.8886 -0.9967  0.2554
25873SOL    HW279627   7.701   6.951   7.923  1.9971 -1.1702  0.7416
25874SOL     OW79628   8.327   6.154   0.305  0.3116  0.1584 -0.2182
25874SOL    HW179629   8.414   6.119   0.322  1.7155  2.9067 -1.0847
25874SOL    HW279630   8.320   6.230   0.362 -0.7761  1.0059 -1.4093
25875SOL     OW79631   9.563   4.178   9.082  0.5601 -0.4654 -0.0043
25875SOL    HW179632   9.493   4.113   9.087  0.5815 -0.4931 -0.0792
25875SOL    HW279633   9.589   4.192   9.173  0.8915 -0.9231 -0.0237
25876SOL     OW79634   6.665   1.271   7.329 -0.4303 -0.0934 -0.0883
25876SOL    HW179635   6.606   1.225   7.270  0.5978  0.3286 -1.4915
25876SOL    HW279636   6.742   1.214   7.335 -0.3205  0.1056  0.4661
25877SOL     OW79637   6.777   5.196   4.847 -0.1091  0.2545 -0.1756
25877SOL    HW179638   6.764   5.291   4.846  0.6411  0.3581 -0.9364
25877SOL    HW279639   6.860   5.183   4.894 -1.8101 -0.2810  3.0043
25878SOL     OW79640   1.150   0.044   3.008  0.3684 -0.2930 -0.5345
25878SOL    HW179641   1.233   0.092   3.020  0.9203 -1.1057 -1.0171
25878SOL    HW279642   1.123   0.021   3.096 -0.9074  2.4922 -0.0768
25879SOL     OW79643   3.800   7.580   1.319 -0.3552  0.2869  0.0378
25879SOL    HW179644   3.775   7.666   1.352  0.2802  0.2156  0.7362
25879SOL    HW279645   3.784   7.521   1.393  0.1744 -0.0282 -0.0911
25880SOL     OW79646  10.790   1.273   2.121  0.6162 -0.0533  0.3115
25880SOL    HW179647  10.742   1.196   2.151  0.6688 -0.4799 -0.6709
25880SOL    HW279648  10.784   1.270   2.026  0.7989  1.0477  0.2493
25881SOL     OW79649   3.528   9.094   0.733  0.4758 -0.3216  0.0408
25881SOL    HW179650   3.506   9.177   0.692  0.6014 -1.2208 -1.9671
25881SOL    HW279651   3.624   9.089   0.730  0.4610 -0.6205 -0.0335
25882SOL     OW79652   8.632   1.696   5.018  0.0574 -0.8720  0.4445
25882SOL    HW179653   8.614   1.664   4.930 -0.9367  1.1604 -0.1558
25882SOL    HW279654   8.591   1.632   5.076 -1.6022 -0.8914 -0.6776
25883SOL     OW79655   2.329   4.287   6.059 -0.2212 -0.8053 -0.0450
25883SOL    HW179656   2.286   4.348   6.119  0.0465 -1.0133  0.3583
25883SOL    HW279657   2.376   4.344   5.998 -0.9679 -0.5765 -0.4185
25884SOL     OW79658   4.519   7.387   7.761  0.0825 -0.2890 -0.1335
25884SOL    HW179659   4.468   7.459   7.726  1.0694  0.6759  0.3667
25884SOL    HW279660   4.555   7.420   7.843  0.5136 -1.3629  0.1332
25885SOL     OW79661   7.166   8.465   6.554 -0.2722 -0.3864 -0.2972
25885SOL    HW179662   7.084   8.474   6.506 -1.0495 -2.7686  0.4000
25885SOL    HW279663   7.160   8.529   6.624 -0.2926  1.3143 -1.7982
25886SOL     OW79664   6.015   8.385   8.149  0.0792 -0.2023  0.1020
25886SOL    HW179665   6.081   8.450   8.172  1.4320 -2.3537  2.8984
25886SOL    HW279666   5.978   8.416   8.066  1.8822  3.0929  0.3863
25887SOL     OW79667   0.597   5.510   0.235  0.0281 -0.7452 -0.3870
25887SOL    HW179668   0.676   5.489   0.284  0.6135 -0.1109 -1.0394
25887SOL    HW279669   0.544   5.430   0.240  0.9940 -1.4149 -0.4910
25888SOL     OW79670   7.701  10.909   7.326  0.2972  0.2935 -0.2060
25888SOL    HW179671   7.783  10.937   7.368 -0.3371  0.7025  0.8040
25888SOL    HW279672   7.694  10.816   7.349  0.5371  0.2309 -0.3866
25889SOL     OW79673   3.685   4.710   1.231  0.2942  0.2489 -0.4759
25889SOL    HW179674   3.750   4.764   1.274  1.1032 -0.7426 -0.4096
25889SOL    HW279675   3.607   4.765   1.225  0.9803  1.2761 -0.0970
25890SOL     OW79676   7.914   1.496   9.200 -0.0036 -0.3709 -0.0940
25890SOL    HW179677   7.899   1.453   9.115  0.9150  0.0352 -0.4685
25890SOL    HW279678   7.986   1.557   9.184 -1.6062  1.7384  0.2695
25891SOL     OW79679   6.465   0.794   8.158  0.2052 -0.3475  0.4472
25891SOL    HW179680   6.380   0.837   8.155 -0.2512 -1.2471  0.3854
25891SOL    HW279681   6.507   0.816   8.075 -0.3803 -0.7474  0.0446
25892SOL     OW79682   7.787   0.574  10.743 -0.1758 -0.2597  0.6526
25892SOL    HW179683   7.753   0.622  10.667  0.2891 -0.5620  0.2417
25892SOL    HW279684   7.866   0.531  10.710  0.3906  0.1216  1.4748
25893SOL     OW79685   3.087   3.893   9.632 -0.3396  0.0672  0.1302
25893SOL    HW179686   3.113   3.806   9.602  0.0752 -0.0352  0.7810
25893SOL    HW279687   3.037   3.929   9.558  1.3565  0.1513 -1.0446
25894SOL     OW79688   8.514   2.690   7.682 -0.0621 -0.2773 -0.0298
25894SOL    HW179689   8.453   2.626   7.645  0.2258 -0.2317 -0.6081
25894SOL    HW279690   8.596   2.673   7.635  1.3726 -2.5675  2.9989
25895SOL     OW79691   3.278   8.704   4.624 -0.3084 -0.3393 -0.2530
25895SOL    HW179692   3.255   8.631   4.565  0.0387  0.4231 -1.3539
25895SOL    HW279693   3.336   8.665   4.689 -0.3152 -1.1000 -0.6894
25896SOL     OW79694   3.772   9.832   2.570 -0.2931  0.5504  0.7642
25896SOL    HW179695   3.732   9.820   2.484  2.1391 -1.3109 -0.2111
25896SOL    HW279696   3.779   9.743   2.606  1.9248  0.9080  1.3252
25897SOL     OW79697   3.219   5.723   1.450  0.1334  0.1508  0.1387
25897SOL    HW179698   3.246   5.734   1.359 -0.5672  1.6460  0.0711
25897SOL    HW279699   3.127   5.699   1.446  0.2972 -0.5635  0.4502
25898SOL     OW79700   7.922   7.398   7.110  0.3615 -0.4355  0.0469
25898SOL    HW179701   7.873   7.452   7.049  1.0430  0.0952 -0.0353
25898SOL    HW279702   7.873   7.316   7.114  0.2109 -0.4110 -1.0712
25899SOL     OW79703   2.881   4.479  10.383  0.6643  0.0371  0.0628
25899SOL    HW179704   2.853   4.400  10.429  1.0050 -0.9531 -1.3422
25899SOL    HW279705   2.898   4.449  10.293  0.5782  1.7602 -0.5628
25900SOL     OW79706   3.477   6.001   9.104 -0.4575  0.1449  0.1935
25900SOL    HW179707   3.412   5.932   9.116 -2.5284  1.8449 -0.5604
25900SOL    HW279708   3.482   6.044   9.190 -0.3006 -0.0109  0.2621
25901SOL     OW79709   0.177   1.870  10.994  0.2936  0.2592  0.9109
25901SOL    HW179710   0.095   1.878  11.042 -0.7584 -0.0532 -0.7758
25901SOL    HW279711   0.243   1.856  11.062 -0.9833  0.8484  2.3195
25902SOL     OW79712   0.530   5.946   3.100 -0.4106 -0.1401 -0.0772
25902SOL    HW179713   0.530   5.904   3.187 -2.3589 -0.6549 -0.2750
25902SOL    HW279714   0.547   6.038   3.118  1.1367 -0.5391  0.6444
25903SOL     OW79715   1.290   7.925   1.850  0.5290 -0.4468  0.6074
25903SOL    HW179716   1.263   7.834   1.859 -2.6093  0.4362  1.2028
25903SOL    HW279717   1.275   7.947   1.758 -1.4386  0.1720  1.0331
25904SOL     OW79718   5.214   2.041  10.415  0.1390 -0.0383  0.3341
25904SOL    HW179719   5.125   2.068  10.437 -0.2575 -0.8071 -0.2537
25904SOL    HW279720   5.261   2.043  10.498 -0.5585 -0.0950  0.7421
25905SOL     OW79721   3.759   2.391   0.075 -0.2918  0.7352  0.1670
25905SOL    HW179722   3.759   2.358   0.165 -1.1329  3.4355  1.2469
25905SOL    HW279723   3.786   2.483   0.083  1.2120  0.6405 -2.5508
25906SOL     OW79724   8.170   1.227   8.661  0.2110 -0.8426  0.4697
25906SOL    HW179725   8.177   1.241   8.756 -0.5599 -0.4198  0.4768
25906SOL    HW279726   8.202   1.308   8.623 -0.1330 -0.7390  0.3938
25907SOL     OW79727   8.400  10.808   3.350  0.1773 -0.0149 -0.0469
25907SOL    HW179728   8.474  10.830   3.294  0.6457  3.0329  1.5765
25907SOL    HW279729   8.353  10.891   3.363 -0.6979 -0.8368  2.8659
25908SOL     OW79730   1.763   2.612   9.069  0.4802 -0.0332 -0.4589
25908SOL    HW179731   1.752   2.676   9.140 -1.8709  0.8369 -1.4906
25908SOL    HW279732   1.677   2.609   9.026  1.7674 -0.5991 -3.2147
25909SOL     OW79733  10.228   9.574   3.235  0.0277  0.2708 -0.2953
25909SOL    HW179734  10.245   9.543   3.324 -0.1957 -0.6366 -0.5637
25909SOL    HW279735  10.139   9.607   3.237  0.2987  1.0153  0.0146
25910SOL     OW79736   9.282   8.474   6.916 -0.0862 -0.5053 -0.1127
25910SOL    HW179737   9.234   8.537   6.970  1.4133  0.1635  0.4951
25910SOL    HW279738   9.217   8.407   6.894 -1.4355  0.6576  0.1653
25911SOL     OW79739   7.966   0.562   9.659 -0.1842 -0.1669 -0.2150
25911SOL    HW179740   8.058   0.586   9.669 -0.3098 -0.1905  1.2709
25911SOL    HW279741   7.947   0.574   9.566  1.2016  0.2481 -0.4569
25912SOL     OW79742   5.213   8.198   9.989  0.2706 -0.1150 -0.1402
25912SOL    HW179743   5.187   8.112  10.023  0.6291  0.6740  2.2829
25912SOL    HW279744   5.307   8.204  10.008  0.1932  0.9160 -0.0452
25913SOL     OW79745   1.055   0.759   0.424 -0.4656  0.5504 -0.5190
25913SOL    HW179746   1.037   0.674   0.464 -1.1710  0.8154 -0.2566
25913SOL    HW279747   1.132   0.791   0.470 -1.1041  0.7244  0.4646
25914SOL     OW79748   2.895   5.363   9.131  0.3830 -0.2244  0.0172
25914SOL    HW179749   2.963   5.335   9.192  1.1770  0.0986 -0.7016
25914SOL    HW279750   2.928   5.339   9.045 -0.6142 -0.4479 -0.3209
25915SOL     OW79751   6.741   0.769   0.722 -0.1241  0.1313 -0.0924
25915SOL    HW179752   6.701   0.751   0.808 -3.4207 -0.3720 -1.5779
25915SOL    HW279753   6.759   0.683   0.686 -0.5327  0.2866 -0.6672
25916SOL     OW79754   7.772   6.768   3.660  0.1672 -0.6218  0.0190
25916SOL    HW179755   7.764   6.859   3.686 -0.5575 -0.4904 -0.6086
25916SOL    HW279756   7.736   6.718   3.733 -1.9228 -0.2604 -0.7155
25917SOL     OW79757   7.747   4.394   9.094 -0.3265  0.3274  0.0569
25917SOL    HW179758   7.750   4.394   8.999  2.0430  0.9862  0.0493
25917SOL    HW279759   7.837   4.413   9.121 -1.0426  0.7908  2.4282
25918SOL     OW79760   1.606   4.685   0.962 -0.4871  0.2977  0.9119
25918SOL    HW179761   1.536   4.726   0.911 -0.1859  0.2424  0.4476
25918SOL    HW279762   1.685   4.699   0.910  0.2040  2.0725  2.3031
25919SOL     OW79763   0.957   7.265   7.530 -0.3434 -0.1024  0.0177
25919SOL    HW179764   0.878   7.243   7.581 -0.4289 -2.0972 -0.8647
25919SOL    HW279765   1.029   7.229   7.583 -0.4789 -2.7749 -1.4165
25920SOL     OW79766   8.159   9.910  10.310 -0.5117 -0.2375 -0.3570
25920SOL    HW179767   8.123   9.915  10.221  0.1136  2.0032 -0.5536
25920SOL    HW279768   8.254   9.909  10.296 -0.3872 -2.6164  0.2565
25921SOL     OW79769   8.024   4.144   7.869  0.1728 -0.0536  0.0367
25921SOL    HW179770   8.090   4.076   7.880  0.2044  0.0327  0.3827
25921SOL    HW279771   7.969   4.138   7.947 -1.0921 -1.0495 -0.8756
25922SOL     OW79772   8.127   7.874   6.686  0.0650  0.1580  0.0260
25922SOL    HW179773   8.090   7.950   6.640 -1.9524 -0.3099  0.7588
25922SOL    HW279774   8.083   7.874   6.771  0.8328 -1.2274  0.4524
25923SOL     OW79775  10.183   1.241  10.879 -0.4054  0.1812 -0.0338
25923SOL    HW179776  10.222   1.328  10.880 -1.2908  0.5862 -0.0414
25923SOL    HW279777  10.149   1.229  10.791  0.0800 -0.3496 -0.1590
25924SOL     OW79778   1.741   8.986   3.318  0.5033  0.5231 -0.5555
25924SOL    HW179779   1.717   9.079   3.308  0.8630  0.7358  0.4310
25924SOL    HW279780   1.760   8.977   3.411 -2.1311 -1.1687 -0.0614
25925SOL     OW79781   0.988  10.443   2.902 -0.5861  0.1698  0.8321
25925SOL    HW179782   0.971  10.495   2.980  1.5004  0.9169  0.8367
25925SOL    HW279783   0.987  10.353   2.932 -2.2004  0.2855  1.2176
25926SOL     OW79784   0.379   3.002   8.364  0.2067 -0.4144  0.1808
25926SOL    HW179785   0.360   3.037   8.450 -1.8414  0.0612 -0.4091
25926SOL    HW279786   0.465   3.037   8.341 -1.0475  3.0927  0.2484
25927SOL     OW79787   5.422  10.581   9.283  0.1678  0.1023 -0.0663
25927SOL    HW179788   5.460  10.668   9.270  1.7260 -0.4260  0.7376
25927SOL    HW279789   5.373  10.588   9.365  1.4454 -0.1352  0.7275
25928SOL     OW79790   7.284   1.680   4.546  0.0773  0.5061 -0.0475
25928SOL    HW179791   7.344   1.748   4.577 -0.6484  0.8757  0.5758
25928SOL    HW279792   7.302   1.674   4.452  0.4948  1.2188 -0.0231
25929SOL     OW79793   8.314   6.039   2.399  0.3352  0.1797  0.3155
25929SOL    HW179794   8.337   6.110   2.459  0.5926  0.5834 -0.2441
25929SOL    HW279795   8.332   5.959   2.447  1.2866  0.4939  0.4911
25930SOL     OW79796   9.819   9.045   7.517 -0.3717 -0.1720 -0.0860
25930SOL    HW179797   9.860   9.112   7.461 -1.3239  1.5943  1.2123
25930SOL    HW279798   9.725   9.064   7.512 -0.9523 -2.8782 -1.4175
25931SOL     OW79799   8.364  10.792   2.902  0.2099  0.0663 -0.2122
25931SOL    HW179800   8.380  10.729   2.832 -0.6019 -0.9870  0.5031
25931SOL    HW279801   8.324  10.740   2.972  1.1034  1.0428  1.0940
25932SOL     OW79802  10.175   9.537  10.757  0.6525  0.5368  0.4622
25932SOL    HW179803  10.148   9.610  10.812  0.2496  1.8253 -1.3473
25932SOL    HW279804  10.190   9.576  10.671  0.1086 -1.5761 -0.6614
25933SOL     OW79805   8.887   0.239   7.992  0.0719 -0.4350  0.2232
25933SOL    HW179806   8.931   0.161   8.027 -0.3689 -0.9029 -0.2448
25933SOL    HW279807   8.813   0.204   7.943  0.8039  0.1874 -1.3693
25934SOL     OW79808   7.127   4.238   0.980 -0.3426 -0.2933 -0.2664
25934SOL    HW179809   7.110   4.193   1.063  1.1692 -0.0049  0.2328
25934SOL    HW279810   7.207   4.197   0.947 -0.2864  0.3916 -0.9972
25935SOL     OW79811   1.608   2.412   7.651 -0.2327  0.6846 -0.2764
25935SOL    HW179812   1.513   2.414   7.660 -0.3029 -0.2291 -0.7816
25935SOL    HW279813   1.639   2.474   7.718 -1.2404  2.2344 -1.1656
25936SOL     OW79814   2.072   7.712   8.306  0.3316  0.1768  0.4262
25936SOL    HW179815   2.136   7.641   8.314  0.1488  0.0472  0.7838
25936SOL    HW279816   2.125   7.791   8.294  0.5323 -0.0357 -0.1284
25937SOL     OW79817   0.634   4.410   4.177  0.5420  0.0342 -0.0777
25937SOL    HW179818   0.601   4.460   4.102 -0.3547 -1.4153 -0.6949
25937SOL    HW279819   0.676   4.333   4.138  0.0437 -0.7631  0.9087
25938SOL     OW79820   6.747   0.687   5.077  0.4924 -0.0432 -0.0479
25938SOL    HW179821   6.801   0.639   5.140 -0.7674 -3.0274 -1.0635
25938SOL    HW279822   6.724   0.622   5.010 -1.6244  1.9190 -1.3884
25939SOL     OW79823   7.834   9.743   4.577  0.2833 -0.1017 -0.1348
25939SOL    HW179824   7.917   9.784   4.552  0.8229 -0.4530  1.0104
25939SOL    HW279825   7.832   9.662   4.526  1.6072 -1.0562  1.2385
25940SOL     OW79826   2.111   5.009   2.415 -0.4961 -0.0695 -0.0362
25940SOL    HW179827   2.103   4.947   2.488 -0.3555 -0.6294 -0.4951
25940SOL    HW279828   2.157   5.084   2.453  0.1332 -0.6139  0.2987
25941SOL     OW79829   0.562  11.017   1.243 -0.3423 -0.1193 -0.3103
25941SOL    HW179830   0.509  11.069   1.182  1.7260  0.4456 -1.7217
25941SOL    HW279831   0.547  11.058   1.329 -1.5660  0.4878 -0.7923
25942SOL     OW79832   4.838   3.336   4.081 -0.7890  0.2322  0.2260
25942SOL    HW179833   4.761   3.376   4.122 -2.7241  0.4708 -3.2286
25942SOL    HW279834   4.809   3.314   3.993  3.3782  0.9987 -1.5604
25943SOL     OW79835   8.391   2.589   1.384  0.5619 -0.1317 -0.2374
25943SOL    HW179836   8.356   2.671   1.351 -0.2961 -0.4678 -0.1742
25943SOL    HW279837   8.448   2.557   1.313 -0.2020 -0.1781 -0.8425
25944SOL     OW79838   9.927   9.093   9.974 -0.1324  0.3871  0.6876
25944SOL    HW179839   9.922   9.116   9.881  1.9855 -0.4578  0.3035
25944SOL    HW279840   9.963   9.171  10.015 -2.2158  1.2081  1.0446
25945SOL     OW79841   8.219   5.739   1.878  0.5242 -0.1442 -0.7256
25945SOL    HW179842   8.231   5.833   1.864 -0.0267 -0.1569 -1.3364
25945SOL    HW279843   8.242   5.700   1.794  0.9573 -0.5773 -0.4083
25946SOL     OW79844   2.901  10.293   3.017  0.1102 -0.2758 -0.2423
25946SOL    HW179845   2.920  10.320   3.107  0.5262  2.1440 -0.9764
25946SOL    HW279846   2.916  10.198   3.016 -1.2026 -0.6086  2.5246
25947SOL     OW79847   5.245   6.734   5.627  0.0534 -0.0246 -0.6580
25947SOL    HW179848   5.164   6.700   5.589 -1.3559  1.0942  1.1670
25947SOL    HW279849   5.268   6.809   5.572 -0.2219 -0.2622 -1.1059
25948SOL     OW79850   3.436   6.778   5.182  0.1863  0.0363  0.1041
25948SOL    HW179851   3.406   6.868   5.182  0.8478  0.2603  0.3940
25948SOL    HW279852   3.525   6.781   5.219 -0.0866 -0.8301  0.8897
25949SOL     OW79853   6.526   3.987   2.337  0.0089 -0.3407  0.4093
25949SOL    HW179854   6.537   4.078   2.365 -2.7021 -0.2045  1.3030
25949SOL    HW279855   6.575   3.936   2.402 -0.5873  0.3550  1.4212
25950SOL     OW79856   6.681  10.335   6.026  0.0465 -0.5447 -0.0966
25950SOL    HW179857   6.754  10.328   5.964  0.2446  0.8972 -0.0572
25950SOL    HW279858   6.710  10.402   6.088  0.1828 -2.4396  2.0267
25951SOL     OW79859   3.500   6.503   7.925 -0.0164  0.6205  0.1556
25951SOL    HW179860   3.575   6.537   7.973  1.6711 -0.0793 -1.8472
25951SOL    HW279861   3.488   6.563   7.852 -0.9741  0.3269  0.0462
25952SOL     OW79862   2.762   9.868   7.904 -0.0749 -0.3558 -0.0250
25952SOL    HW179863   2.792   9.872   7.995  0.9154  0.3682 -0.3644
25952SOL    HW279864   2.708   9.946   7.893 -0.0392 -0.3436 -0.1121
25953SOL     OW79865   2.337   8.221   3.943  0.7038  0.1816  0.4883
25953SOL    HW179866   2.304   8.231   3.853  1.6819 -0.5779  0.0237
25953SOL    HW279867   2.328   8.308   3.981 -3.2600 -0.2776  0.9512
25954SOL     OW79868   0.261   7.212   5.839 -0.3122 -0.3036 -0.3399
25954SOL    HW179869   0.174   7.208   5.800 -0.8803  0.8711  0.7249
25954SOL    HW279870   0.319   7.242   5.768 -0.5564 -1.9986 -1.3167
25955SOL     OW79871   8.394   5.237   4.653  0.3331  0.3339 -0.6467
25955SOL    HW179872   8.433   5.155   4.622  0.5979  1.2509 -2.9355
25955SOL    HW279873   8.359   5.216   4.740  1.7999 -1.7577 -0.4876
25956SOL     OW79874   5.877   6.431   6.214 -0.0811  0.1589  0.2380
25956SOL    HW179875   5.972   6.414   6.214  0.1701  1.3529  1.8963
25956SOL    HW279876   5.844   6.377   6.142  1.4862 -2.3631  1.2694
25957SOL     OW79877   5.901   1.836   9.440 -0.1098  0.3310 -0.0789
25957SOL    HW179878   5.868   1.913   9.393 -2.8833 -1.7152 -1.8357
25957SOL    HW279879   5.936   1.779   9.371  0.3201 -0.6949  0.9557
25958SOL     OW79880   7.003   6.267   1.270 -0.0502 -0.0723 -0.1138
25958SOL    HW179881   7.049   6.349   1.289  1.1405 -0.6998 -0.1888
25958SOL    HW279882   7.059   6.199   1.306  0.1098 -1.0131 -1.9833
25959SOL     OW79883   5.733   5.362   5.032  0.3795 -0.6507  0.1477
25959SOL    HW179884   5.663   5.321   5.084  0.1645  2.6196  2.8109
25959SOL    HW279885   5.688   5.397   4.955 -0.9111  0.8462  1.5014
25960SOL     OW79886   9.422   9.630   9.881 -0.1721 -0.5136  0.0683
25960SOL    HW179887   9.400   9.665   9.795  1.7052  0.6377  0.0106
25960SOL    HW279888   9.381   9.691   9.943 -2.0899 -1.7062  0.0668
25961SOL     OW79889   4.451   2.777   5.916 -0.0454  1.2287 -0.4070
25961SOL    HW179890   4.380   2.822   5.871 -1.4958  0.0780  0.6284
25961SOL    HW279891   4.423   2.686   5.920  2.4926  0.2926 -1.8565
25962SOL     OW79892   6.764   2.175   8.936  0.5815 -0.5070 -0.2795
25962SOL    HW179893   6.675   2.202   8.959  0.5574 -2.9534  3.4044
25962SOL    HW279894   6.820   2.248   8.965 -0.0115 -0.3452  0.4685
25963SOL     OW79895   9.863   5.165   8.785 -0.2184 -0.2931  0.1655
25963SOL    HW179896   9.843   5.073   8.803 -1.8444  0.2083  1.2360
25963SOL    HW279897   9.777   5.208   8.786  0.5028  1.2137 -0.4189
25964SOL     OW79898   2.222   7.445   5.445  0.0997 -0.0435  0.2914
25964SOL    HW179899   2.172   7.369   5.415  0.0238 -0.0228  0.3640
25964SOL    HW279900   2.190   7.462   5.534 -2.4350  2.1714 -0.8746
25965SOL     OW79901   9.254   9.511   2.565 -0.3863  0.0783  0.1200
25965SOL    HW179902   9.187   9.444   2.583 -0.7613  0.1294 -1.0017
25965SOL    HW279903   9.267   9.506   2.470  0.9367  0.3362  0.2785
25966SOL     OW79904   7.714   1.209   8.526  0.1020  0.0829  0.8257
25966SOL    HW179905   7.718   1.246   8.615  4.1741  2.6073 -0.1321
25966SOL    HW279906   7.803   1.179   8.509 -0.6588 -0.7615 -2.2692
25967SOL     OW79907  10.771   9.014   3.584  0.4516 -0.6476 -0.1441
25967SOL    HW179908  10.740   8.926   3.606 -1.2482  0.0811  0.5090
25967SOL    HW279909  10.807   9.004   3.495  2.2751 -2.4142  0.7046
25968SOL     OW79910   6.233   5.557   0.786  0.4122 -0.2768  0.6077
25968SOL    HW179911   6.318   5.534   0.822  2.6046  3.8223 -1.2201
25968SOL    HW279912   6.183   5.592   0.860  2.2830  1.7682  1.0024
25969SOL     OW79913   1.855   0.095   0.763  0.3294  0.2170  0.3126
25969SOL    HW179914   1.828   0.127   0.849  1.8689  1.5083  0.3546
25969SOL    HW279915   1.843   0.170   0.705 -0.9150 -0.7089 -0.6802
25970SOL     OW79916   9.686   3.728   3.404  0.2779  0.2683 -0.0009
25970SOL    HW179917   9.746   3.798   3.379 -1.7460  1.3355 -2.2396
25970SOL    HW279918   9.618   3.771   3.456  0.7142 -0.6840  1.4212
25971SOL     OW79919   7.184  10.299   1.775  0.3570  0.3182  0.3711
25971SOL    HW179920   7.090  10.304   1.759  0.5053 -0.0330 -0.7143
25971SOL    HW279921   7.214  10.390   1.767  0.1593  0.3892  0.4275
25972SOL     OW79922   4.466   1.239  10.709  0.4543 -0.0393 -0.3677
25972SOL    HW179923   4.396   1.198  10.760  0.1195 -0.3607 -1.0692
25972SOL    HW279924   4.532   1.262  10.774 -0.6670  1.0622  0.4373
25973SOL     OW79925   5.855   7.836   0.522  0.6020 -0.2366  0.2969
25973SOL    HW179926   5.795   7.904   0.490  0.1488 -1.0541 -0.6580
25973SOL    HW279927   5.873   7.860   0.613 -1.1303  0.0758  0.5965
25974SOL     OW79928   1.099   1.652   0.706  0.0605  0.0709  0.3899
25974SOL    HW179929   1.041   1.692   0.771 -1.8930 -0.0338 -1.1612
25974SOL    HW279930   1.041   1.632   0.632  1.9964 -0.6512 -1.0229
25975SOL     OW79931   6.873   2.404   9.055 -0.4794  0.4075 -0.6426
25975SOL    HW179932   6.880   2.487   9.008 -1.4516  1.1613  0.4989
25975SOL    HW279933   6.952   2.400   9.109 -1.9658  2.2953  1.8777
25976SOL     OW79934   2.885   2.753   5.901  0.1570  0.1729 -0.2638
25976SOL    HW179935   2.841   2.669   5.886  0.1880 -0.0247  0.6810
25976SOL    HW279936   2.820   2.807   5.946  0.1977  0.5934 -0.7126
25977SOL     OW79937   1.368   1.802   0.281  0.1490  0.2248 -0.3698
25977SOL    HW179938   1.382   1.755   0.199  0.2942  0.2059 -0.3342
25977SOL    HW279939   1.284   1.770   0.313  0.3011 -0.0929 -0.2887
25978SOL     OW79940   6.480   0.587  10.667  0.0478  0.4143  0.4549
25978SOL    HW179941   6.511   0.677  10.661 -0.2673  0.4985  0.0355
25978SOL    HW279942   6.430   0.584  10.749 -1.1328  1.0056 -0.2064
25979SOL     OW79943   4.891   5.994   2.647 -0.4248  0.4068 -0.5844
25979SOL    HW179944   4.978   6.026   2.622 -0.2962  0.0827 -0.5558
25979SOL    HW279945   4.902   5.960   2.735 -0.2733 -0.8150 -1.0590
25980SOL     OW79946   7.550   5.163   5.017 -0.1387 -0.0640  0.4289
25980SOL    HW179947   7.465   5.205   5.007  1.4164  3.0571 -1.4325
25980SOL    HW279948   7.544   5.083   4.966 -1.2740  1.3584 -1.8133
25981SOL     OW79949   0.548   1.009   5.188 -0.1907 -0.4804 -0.6517
25981SOL    HW179950   0.608   0.992   5.116 -0.6921 -2.7747 -0.6312
25981SOL    HW279951   0.594   0.973   5.265 -0.1982  0.7805 -0.0440
25982SOL     OW79952   4.522   0.361   5.012  0.5181 -0.4835  0.8663
25982SOL    HW179953   4.538   0.454   4.999 -1.1492 -0.4666 -1.6222
25982SOL    HW279954   4.558   0.319   4.934 -2.6863 -1.3627 -0.2921
25983SOL     OW79955   1.700  10.774   4.625 -0.3222 -0.0650  0.0004
25983SOL    HW179956   1.666  10.792   4.537 -0.4425 -0.0625  0.0470
25983SOL    HW279957   1.632  10.808   4.684  0.1148  0.6654  0.1034
25984SOL     OW79958   4.849   0.904  10.540 -0.2625 -0.5098  0.3994
25984SOL    HW179959   4.888   0.983  10.505  0.8120 -1.0566  0.3178
25984SOL    HW279960   4.875   0.835  10.479 -2.4262 -0.7367 -0.3788
25985SOL     OW79961   0.409   9.066   8.846 -0.0145 -0.0576 -0.6678
25985SOL    HW179962   0.321   9.048   8.813 -1.1203  1.7688  1.0645
25985SOL    HW279963   0.401   9.057   8.941  1.6751  0.1553 -0.4825
25986SOL     OW79964   8.455   3.398   0.623  0.0280 -0.0193  0.1666
25986SOL    HW179965   8.454   3.353   0.539  2.5304  0.2161 -0.0682
25986SOL    HW279966   8.382   3.459   0.619  0.2109  0.1238 -1.9116
25987SOL     OW79967   3.397   9.771   4.514  0.4815 -0.1229 -0.4565
25987SOL    HW179968   3.411   9.861   4.484  0.2404 -0.0845 -0.4535
25987SOL    HW279969   3.353   9.727   4.441 -0.1058 -0.0297 -0.1668
25988SOL     OW79970  10.417   6.955   8.311  0.2346 -0.0517  0.2433
25988SOL    HW179971  10.422   7.028   8.249 -3.2475  1.5369  1.6088
25988SOL    HW279972  10.381   6.883   8.259 -0.9882  0.7372 -0.0596
25989SOL     OW79973   4.575   5.748   0.011 -0.1736 -0.1694 -0.5394
25989SOL    HW179974   4.621   5.665  -0.003 -0.2153 -0.4397  0.7474
25989SOL    HW279975   4.517   5.756  -0.065 -1.2858 -2.1069  0.0043
25990SOL     OW79976  10.155  11.001   7.281  0.5329 -0.4927 -0.1190
25990SOL    HW179977  10.138  10.920   7.232  2.6008 -0.2355 -1.3668
25990SOL    HW279978  10.249  11.000   7.296  0.4081  1.1234  0.9074
25991SOL     OW79979   9.362   3.546   9.880  0.1635 -0.5445 -0.1544
25991SOL    HW179980   9.275   3.555   9.918 -0.8898 -3.7225 -1.5055
25991SOL    HW279981   9.419   3.526   9.954 -0.4669  0.3214  0.5813
25992SOL     OW79982  10.118  10.292   3.781 -0.2905 -0.6237  0.0308
25992SOL    HW179983  10.180  10.278   3.709 -0.6781 -0.4368 -0.3413
25992SOL    HW279984  10.166  10.349   3.842  0.2367 -1.2181  0.1881
25993SOL     OW79985   8.079   0.589  10.046 -0.3059 -0.4285  0.4505
25993SOL    HW179986   8.064   0.498  10.020  0.1913  0.4181 -3.5944
25993SOL    HW279987   8.165   0.588  10.089 -0.2156 -1.8455  0.2915
25994SOL     OW79988   2.371   0.815   8.918  0.2599 -0.3456 -0.0483
25994SOL    HW179989   2.438   0.790   8.854 -1.1285 -0.7257 -1.4098
25994SOL    HW279990   2.380   0.909   8.927  1.3274 -0.4645  0.1930
25995SOL     OW79991   7.890   4.037   2.924 -0.1397 -0.4842  0.0212
25995SOL    HW179992   7.801   4.033   2.958 -0.1248  0.1296  0.1435
25995SOL    HW279993   7.945   4.047   3.001 -0.1180  1.0926 -0.1599
25996SOL     OW79994   9.388   6.395   3.216 -0.0968  0.1084 -0.5048
25996SOL    HW179995   9.448   6.377   3.144  0.2036  0.7414 -0.4178
25996SOL    HW279996   9.344   6.311   3.232  0.8538 -0.4004 -0.4773
25997SOL     OW79997   1.161   2.857   4.588  0.7563  0.6100  0.2786
25997SOL    HW179998   1.068   2.874   4.578  0.9074  1.5621  0.3947
25997SOL    HW279999   1.166   2.775   4.637 -0.0095  0.3188 -0.1168
25998SOL     OW80000  10.487  10.035   2.451 -0.0313  0.5233  0.0188
25998SOL    HW180001  10.538   9.963   2.413  1.3534  2.3593 -1.8368
25998SOL    HW280002  10.396  10.005   2.447  0.5796 -1.4872  0.2066
25999SOL     OW80003   1.522   1.168   4.647 -0.4850  0.5338 -0.2745
25999SOL    HW180004   1.474   1.228   4.590  0.2555  0.5152 -0.9329
25999SOL    HW280005   1.486   1.081   4.627 -0.0727  0.4989 -0.8863
26000SOL     OW80006   1.179   7.038   5.860 -0.0367 -0.2999  0.0208
26000SOL    HW180007   1.217   7.122   5.834 -0.3508  0.1009  0.8610
26000SOL    HW280008   1.089   7.041   5.829 -0.8958  0.8163  2.4389
26001SOL     OW80009   6.393   2.391  10.772 -0.5664  0.2875  0.7632
26001SOL    HW180010   6.452   2.346  10.712 -1.6882 -0.2737  0.0504
26001SOL    HW280011   6.399   2.484  10.747  0.3383  0.3053  1.0064
26002SOL     OW80012   2.830  10.958   4.171  0.0946 -0.1540 -0.1257
26002SOL    HW180013   2.786  11.034   4.209  0.0736 -0.6165  0.8170
26002SOL    HW280014   2.765  10.887   4.178  0.4368 -0.4716 -0.1407
26003SOL     OW80015   1.833   6.161  10.515 -0.1254 -0.3329 -0.0460
26003SOL    HW180016   1.870   6.109  10.586  1.5863  0.5912 -0.2060
26003SOL    HW280017   1.739   6.162  10.532 -0.0673 -2.4083  0.6397
26004SOL     OW80018   3.756   0.628   7.562 -0.1361 -0.2401  0.5945
26004SOL    HW180019   3.834   0.675   7.532  0.6240 -0.4010  2.1720
26004SOL    HW280020   3.771   0.537   7.535 -0.4226 -0.0395 -0.2672
26005SOL     OW80021   0.798   0.905   0.398 -0.3117  0.1247  0.1047
26005SOL    HW180022   0.745   0.889   0.320 -0.9238  0.5645  0.4215
26005SOL    HW280023   0.875   0.849   0.386 -0.7493 -0.3822 -0.4529
26006SOL     OW80024   9.206   0.914   0.085 -0.2943 -0.8743 -0.2933
26006SOL    HW180025   9.216   0.838   0.142 -0.7457  0.3378  1.5226
26006SOL    HW280026   9.114   0.939   0.094  0.2457  0.9806  0.7172
26007SOL     OW80027   7.031   4.882   4.733 -0.2044  0.1349  0.9756
26007SOL    HW180028   6.964   4.844   4.789 -0.2235 -1.1691  0.0965
26007SOL    HW280029   7.092   4.811   4.715 -0.0848  0.5722 -0.4791
26008SOL     OW80030   2.150   7.604   1.995 -0.2622 -0.4556  0.3920
26008SOL    HW180031   2.107   7.546   1.932  0.0673 -1.3690  0.9780
26008SOL    HW280032   2.227   7.637   1.949 -1.4279  1.0054 -0.5805
26009SOL     OW80033   2.367   3.573   0.347  0.1833 -0.5579 -0.5864
26009SOL    HW180034   2.449   3.549   0.390 -0.3644  1.6520  1.8872
26009SOL    HW280035   2.302   3.574   0.417 -1.3869  0.4180 -1.9775
26010SOL     OW80036  10.178   8.560   5.346 -0.1872 -0.8056 -0.3013
26010SOL    HW180037  10.101   8.613   5.366  0.8173 -0.1322  2.1423
26010SOL    HW280038  10.237   8.620   5.301  0.2938 -0.2792  0.9996
26011SOL     OW80039   6.813   9.239   4.849  0.0757  0.3531  0.2159
26011SOL    HW180040   6.782   9.198   4.768  0.8770 -0.0976  0.1228
26011SOL    HW280041   6.817   9.167   4.912 -2.1543  0.9746  1.1848
26012SOL     OW80042   4.763   8.007   6.140 -0.6430  0.0648  0.8785
26012SOL    HW180043   4.746   8.052   6.223 -1.3818 -1.2209  1.4477
26012SOL    HW280044   4.825   7.938   6.162 -0.0658  0.3269  0.1471
26013SOL     OW80045   5.158   5.231   7.707 -0.2692  0.0677  0.3766
26013SOL    HW180046   5.076   5.231   7.757 -0.3451  1.3069  0.2794
26013SOL    HW280047   5.174   5.323   7.686  2.3786  0.2261  2.4293
26014SOL     OW80048   9.369   5.171   3.678 -0.0651  0.0892  1.0336
26014SOL    HW180049   9.367   5.201   3.768 -2.3100  1.4036  0.6303
26014SOL    HW280050   9.437   5.224   3.636 -0.1738  0.6745  1.5835
26015SOL     OW80051   6.924   7.027   5.274  0.0381  0.4305  0.2502
26015SOL    HW180052   6.953   6.936   5.267 -0.4199  0.3561 -0.8191
26015SOL    HW280053   6.999   7.073   5.312  0.7930 -0.1414 -0.5130
26016SOL     OW80054   4.703   3.202  10.151 -0.0240 -0.3607  0.1605
26016SOL    HW180055   4.774   3.141  10.130 -0.6262 -1.0189 -0.0332
26016SOL    HW280056   4.739   3.289  10.134  0.6777 -0.6927 -0.0834
26017SOL     OW80057  10.435   6.640   1.317  0.5553 -0.5075 -0.6391
26017SOL    HW180058  10.489   6.706   1.361 -2.3883  2.2351 -0.7885
26017SOL    HW280059  10.382   6.603   1.387 -0.9896  0.6487 -1.1453
26018SOL     OW80060   1.521   0.542   5.952  0.2755 -0.3271 -0.4763
26018SOL    HW180061   1.435   0.524   5.914  0.9704 -0.3181 -2.1563
26018SOL    HW280062   1.505   0.611   6.017 -0.8969  0.0705 -1.1587
26019SOL     OW80063   3.920   1.651   0.944 -0.7405 -0.0113  0.0241
26019SOL    HW180064   3.952   1.615   1.026 -3.2783 -1.7090  0.3837
26019SOL    HW280065   3.874   1.732   0.969 -0.7218 -0.0418  0.1564
26020SOL     OW80066   8.252   7.490   9.710 -0.4540 -0.0015 -0.4328
26020SOL    HW180067   8.346   7.491   9.690 -0.2823  1.4372  0.2601
26020SOL    HW280068   8.223   7.403   9.684  1.1082 -0.5425 -0.5137
26021SOL     OW80069  10.234  10.065  10.263 -0.0427  0.1200 -0.5580
26021SOL    HW180070  10.153  10.051  10.311  0.3498 -0.3109  0.0000
26021SOL    HW280071  10.302  10.065  10.330  0.1700  3.6468 -0.5784
26022SOL     OW80072   9.605   6.745  10.021 -0.0388  0.1107 -0.0671
26022SOL    HW180073   9.546   6.671  10.006  1.2876 -0.6953 -1.6395
26022SOL    HW280074   9.548   6.821  10.027 -1.3750 -0.9180  0.7089
26023SOL     OW80075   6.510   5.839   2.249 -0.0360 -0.2833  0.4133
26023SOL    HW180076   6.524   5.815   2.340  0.6163  2.7296  1.2206
26023SOL    HW280077   6.583   5.800   2.202 -0.2105 -1.6091  1.2109
26024SOL     OW80078   5.392   2.720  11.021  0.3370 -0.5172  0.2542
26024SOL    HW180079   5.335   2.758  11.088  1.1616  0.6135  0.3520
26024SOL    HW280080   5.373   2.769  10.942  1.0667 -0.2157  0.2560
26025SOL     OW80081   7.388   1.598   0.686 -0.4390  0.1602 -0.0494
26025SOL    HW180082   7.382   1.611   0.780 -0.3030 -0.6030  0.0707
26025SOL    HW280083   7.413   1.683   0.652 -1.1824  0.6233  0.5279
26026SOL     OW80084   5.799   0.828   3.037 -0.4475  0.4378 -0.5492
26026SOL    HW180085   5.729   0.773   3.001  0.8561 -1.6958 -0.0470
26026SOL    HW280086   5.760   0.871   3.112 -1.4442 -0.1096 -0.7340
26027SOL     OW80087   6.508   5.774   5.444  0.3964 -0.2203 -0.3182
26027SOL    HW180088   6.451   5.731   5.509  1.6097 -1.1191  0.2057
26027SOL    HW280089   6.582   5.807   5.496  0.7622  0.1788 -1.0851
26028SOL     OW80090   5.645  10.382   3.028  0.0583  0.0627 -0.1936
26028SOL    HW180091   5.605  10.318   3.087  1.3564 -0.7567 -0.1779
26028SOL    HW280092   5.603  10.465   3.051 -0.0943 -0.3979  1.2891
26029SOL     OW80093   3.239   0.993   2.148  0.4954 -0.0579  0.3053
26029SOL    HW180094   3.194   0.914   2.177  0.4838  0.2733  1.2558
26029SOL    HW280095   3.316   0.961   2.100  0.0896 -0.6322  0.0282
26030SOL     OW80096   1.489   4.735   8.146  0.2707  0.2832  0.0385
26030SOL    HW180097   1.510   4.808   8.088  3.0574  0.7094  1.3975
26030SOL    HW280098   1.484   4.774   8.233 -2.2379 -0.5924  0.3584
26031SOL     OW80099   8.267   9.134   4.019  0.7821 -0.3187  0.0783
26031SOL    HW180100   8.179   9.123   3.984  1.1740 -1.9879 -0.5114
26031SOL    HW280101   8.273   9.226   4.043 -0.3952  0.3254 -1.8796
26032SOL     OW80102   5.545   8.134   9.754  0.2174  0.2778 -0.2678
26032SOL    HW180103   5.514   8.106   9.668  0.4239 -1.3196  0.1331
26032SOL    HW280104   5.631   8.172   9.737  0.4212 -0.3689 -0.7349
26033SOL     OW80105  10.551   1.082   3.272 -0.4250 -0.1651  0.2623
26033SOL    HW180106  10.623   1.032   3.311  0.0567 -0.4648 -0.9656
26033SOL    HW280107  10.521   1.139   3.342  1.1802  0.1464  0.7366
26034SOL     OW80108   5.627   2.979  10.959  0.9162 -0.5034 -0.4503
26034SOL    HW180109   5.700   2.998  11.017 -0.0161  0.8229  0.3339
26034SOL    HW280110   5.668   2.957  10.875  2.2194  1.7441 -0.4794
26035SOL     OW80111   6.086   7.712   9.632 -0.1627  0.2605 -0.3773
26035SOL    HW180112   6.000   7.714   9.674 -1.5687  1.0775 -3.0471
26035SOL    HW280113   6.107   7.804   9.615  1.5360  0.1143  0.7036
26036SOL     OW80114   0.297   7.234   5.540 -0.3337  0.1550  0.1899
26036SOL    HW180115   0.227   7.176   5.510  0.5753 -0.2117 -1.3242
26036SOL    HW280116   0.377   7.182   5.533  0.1994  0.8084  1.1578
26037SOL     OW80117   7.124   1.449   7.974  0.2487 -0.1239 -0.0756
26037SOL    HW180118   7.077   1.494   8.044  0.1889 -2.7865  1.7467
26037SOL    HW280119   7.056   1.410   7.919  0.3147  0.3383 -0.4921
26038SOL     OW80120  10.588   1.015   5.661 -0.6343  0.6792  0.5485
26038SOL    HW180121  10.623   0.942   5.711  1.0093  1.7619  1.0722
26038SOL    HW280122  10.651   1.027   5.589 -2.2807 -0.0524 -1.0908
26039SOL     OW80123   4.984   1.910   5.262  0.2741  0.1800 -0.2596
26039SOL    HW180124   5.031   1.906   5.346  0.4126 -0.2507 -0.3545
26039SOL    HW280125   4.987   1.820   5.229 -0.8761  0.0922 -0.1350
26040SOL     OW80126   1.927   5.504   4.429 -0.2262  0.4877 -0.1849
26040SOL    HW180127   1.972   5.587   4.415 -0.0836  0.7220  1.5261
26040SOL    HW280128   1.936   5.458   4.345 -0.1166  2.0864 -1.0837
26041SOL     OW80129   5.109   0.178   8.714 -0.3389 -0.0891  0.2825
26041SOL    HW180130   5.093   0.177   8.808  0.0078 -0.3340  0.3430
26041SOL    HW280131   5.096   0.087   8.687 -0.7800  0.0429  0.0301
26042SOL     OW80132  10.320   6.540   9.880 -0.2698  0.0704  0.1241
26042SOL    HW180133  10.250   6.486   9.844 -0.7005  0.2611  0.6680
26042SOL    HW280134  10.361   6.580   9.803  1.3944 -2.5779 -0.4698
26043SOL     OW80135  10.408   3.177   8.116 -0.1383  0.3847  0.3739
26043SOL    HW180136  10.492   3.213   8.087 -0.2172  1.0389  0.9305
26043SOL    HW280137  10.431   3.094   8.157  0.3240  0.8903  1.1565
26044SOL     OW80138   5.275   6.070   9.303 -0.2545  0.1920 -0.0114
26044SOL    HW180139   5.270   6.054   9.397 -1.6217  0.3062 -0.0432
26044SOL    HW280140   5.306   6.161   9.296 -0.1020  0.1656  0.3245
26045SOL     OW80141   9.058   2.059   1.656  0.3048 -0.4138 -0.5380
26045SOL    HW180142   9.042   2.006   1.578 -0.3789 -0.8868 -0.0923
26045SOL    HW280143   9.116   2.129   1.626  1.2130 -1.3970 -1.1433
26046SOL     OW80144   4.385   6.861   5.385 -0.0003 -0.5558  0.0101
26046SOL    HW180145   4.406   6.861   5.479  2.9931  1.3741 -0.5547
26046SOL    HW280146   4.319   6.929   5.376  1.4845  1.0219  0.4665
26047SOL     OW80147   5.194   7.281   6.453 -0.0620  0.5537  0.4903
26047SOL    HW180148   5.170   7.288   6.545 -1.2124 -0.0834  0.2652
26047SOL    HW280149   5.114   7.307   6.406  0.2480  0.0694 -0.3230
26048SOL     OW80150   4.231   8.045   5.746 -0.2663  0.5119 -0.1075
26048SOL    HW180151   4.320   8.080   5.743 -0.0694  0.1353  0.9853
26048SOL    HW280152   4.175   8.120   5.724  0.2443  1.0673  0.4577
26049SOL     OW80153   4.433  10.847   7.802 -0.2558  0.8227 -0.6824
26049SOL    HW180154   4.408  10.888   7.719  2.6632  0.3824 -1.9081
26049SOL    HW280155   4.517  10.887   7.824  0.7963 -1.6621  0.1212
26050SOL     OW80156   7.885   3.258   9.150  0.1305 -0.1323  0.3325
26050SOL    HW180157   7.904   3.193   9.218 -0.8046 -0.1399  0.6059
26050SOL    HW280158   7.904   3.342   9.191 -0.1585 -0.1521  0.5103
26051SOL     OW80159   1.162   5.529   6.397 -0.4733  0.0810  0.2039
26051SOL    HW180160   1.156   5.608   6.343  1.1629 -0.2225 -0.4552
26051SOL    HW280161   1.113   5.463   6.349  1.7204 -0.4435 -1.4752
26052SOL     OW80162   4.839   9.865   5.144 -0.1547  0.2422 -0.0527
26052SOL    HW180163   4.819   9.792   5.202 -1.8451  2.0150  1.7296
26052SOL    HW280164   4.819   9.944   5.196  1.6576  2.0126 -1.8376
26053SOL     OW80165   5.191   1.211   8.458  0.4842  0.3237  0.1578
26053SOL    HW180166   5.096   1.200   8.465  0.3850  1.5892  1.2802
26053SOL    HW280167   5.228   1.145   8.517  0.3006 -0.1649 -0.2741
26054SOL     OW80168   4.246   0.919   1.852  0.0046 -0.2216 -0.2920
26054SOL    HW180169   4.242   0.913   1.947 -0.3413  2.5779 -0.0268
26054SOL    HW280170   4.154   0.925   1.825  0.1476  1.7962 -0.4695
26055SOL     OW80171   6.670   8.191   7.958 -0.5028  0.2788  0.6196
26055SOL    HW180172   6.608   8.192   8.032  0.3755 -1.1644  1.4252
26055SOL    HW280173   6.752   8.224   7.995  0.4883 -2.2628  0.8731
26056SOL     OW80174   0.390   9.386   9.788 -0.7436 -0.3400  1.1185
26056SOL    HW180175   0.386   9.449   9.861 -0.2383  0.3714  0.5482
26056SOL    HW280176   0.433   9.434   9.718 -1.3385 -0.9777  0.3014
26057SOL     OW80177   4.482   6.490   9.540 -0.4864 -0.3461 -0.5015
26057SOL    HW180178   4.546   6.523   9.477  1.9037 -1.1534  1.3617
26057SOL    HW280179   4.436   6.568   9.571  0.5387  0.4387 -0.9075
26058SOL     OW80180   5.774   7.577   3.923 -0.3736 -0.3349  0.1415
26058SOL    HW180181   5.768   7.663   3.880 -0.6477  0.3096  1.4137
26058SOL    HW280182   5.686   7.541   3.917 -0.1157 -0.8521 -0.9690
26059SOL     OW80183   2.078   2.909   1.167 -0.5634  0.2410  0.2529
26059SOL    HW180184   2.126   2.893   1.248  1.0617  0.5329 -0.6225
26059SOL    HW280185   2.137   2.961   1.113 -2.0900  1.1079 -0.6598
26060SOL     OW80186   7.958   4.005   4.911 -0.3016 -0.0241 -0.5692
26060SOL    HW180187   7.880   3.980   4.861 -0.0164  0.1041 -1.0842
26060SOL    HW280188   7.993   3.922   4.943  0.5324 -0.3043 -2.1067
26061SOL     OW80189   1.225   1.419   6.458  0.2190  0.5733  0.3173
26061SOL    HW180190   1.218   1.424   6.363  0.8152  0.2712  0.2482
26061SOL    HW280191   1.261   1.504   6.484 -1.7465  1.4065  0.4875
26062SOL     OW80192   6.806  10.773  10.000 -0.1266 -0.1351 -0.3296
26062SOL    HW180193   6.784  10.781   9.908  1.0894 -0.3887 -0.6649
26062SOL    HW280194   6.882  10.831  10.012 -0.5039  0.1877  0.5949
26063SOL     OW80195   6.951   8.578   4.778  0.1890 -0.2601  0.5165
26063SOL    HW180196   6.889   8.522   4.731 -1.4481  1.4112  0.5728
26063SOL    HW280197   7.022   8.519   4.802 -0.7708 -2.0024 -0.6350
26064SOL     OW80198   8.232   7.337   4.968 -0.7029 -0.1748  0.0785
26064SOL    HW180199   8.303   7.288   4.927 -0.0123  1.4037 -0.6892
26064SOL    HW280200   8.160   7.333   4.906 -1.2557 -1.6018  0.7664
26065SOL     OW80201  10.841   7.807   1.262 -0.6334  0.5908  0.8167
26065SOL    HW180202  10.746   7.811   1.266 -0.6184  2.1736  0.1524
26065SOL    HW280203  10.871   7.854   1.339 -0.3825  0.6896  0.6612
26066SOL     OW80204   8.577   5.393   7.166  0.0565 -0.3288 -0.1406
26066SOL    HW180205   8.523   5.472   7.165 -1.1313 -1.1207 -0.4019
26066SOL    HW280206   8.664   5.424   7.140 -0.5359  0.7795 -0.9089
26067SOL     OW80207   0.418   1.893   0.895  0.2962  0.6381 -0.5367
26067SOL    HW180208   0.350   1.957   0.916 -0.9107 -0.3445 -1.3160
26067SOL    HW280209   0.484   1.943   0.849  0.2802  1.6836  0.5173
26068SOL     OW80210   8.079   7.018   6.232  0.0525 -0.1801 -0.1440
26068SOL    HW180211   8.084   7.108   6.199  2.2261  0.0376  0.5749
26068SOL    HW280212   7.986   6.997   6.233 -0.5794  2.3313  0.3264
26069SOL     OW80213   6.534  10.166   1.984 -0.4801  0.1390  0.2493
26069SOL    HW180214   6.621  10.149   2.021  0.1351  0.9235 -0.7719
26069SOL    HW280215   6.495  10.079   1.976 -0.2932 -0.1244  1.8657
26070SOL     OW80216   2.871   3.859   4.047 -0.4444  0.2954 -0.1756
26070SOL    HW180217   2.881   3.864   3.952  0.3475  1.7958 -0.0463
26070SOL    HW280218   2.928   3.787   4.073  0.1316  0.5308 -0.7516
26071SOL     OW80219   0.614   7.860   8.727  0.2155  0.2647 -0.7505
26071SOL    HW180220   0.653   7.945   8.748 -0.1294  0.4984 -1.0501
26071SOL    HW280221   0.611   7.858   8.632  2.8304 -1.2596 -0.8980
26072SOL     OW80222   4.482   2.661   7.090 -0.0190  0.6191  0.2402
26072SOL    HW180223   4.477   2.587   7.030  0.0559 -1.2392  2.3745
26072SOL    HW280224   4.576   2.679   7.098 -0.0064  0.6276  0.0629
26073SOL     OW80225   0.733   2.439   9.778  0.2660  0.1565 -0.2511
26073SOL    HW180226   0.654   2.391   9.803 -0.0572 -0.1853 -1.8370
26073SOL    HW280227   0.790   2.431   9.854 -1.1435  0.2664  0.8764
26074SOL     OW80228   2.664   1.657   8.395  0.0144 -0.3658 -0.0797
26074SOL    HW180229   2.697   1.718   8.462  1.7835  0.9331 -2.0067
26074SOL    HW280230   2.715   1.577   8.409  1.4839  0.4041 -0.7381
26075SOL     OW80231  10.059   0.865   4.705  0.7581  0.4559  0.0735
26075SOL    HW180232  10.117   0.812   4.651  0.7651  0.7756 -0.2384
26075SOL    HW280233  10.023   0.804   4.770 -0.8766 -0.4175 -1.5698
26076SOL     OW80234   5.110   5.558   1.047 -0.1656  0.1305  0.1796
26076SOL    HW180235   5.069   5.612   1.114  1.4769  0.7556  0.7303
26076SOL    HW280236   5.079   5.469   1.065  1.4384 -0.0071  2.8253
26077SOL     OW80237   5.929   4.051   3.903 -0.1696  0.3529 -0.2664
26077SOL    HW180238   5.944   4.146   3.901 -0.1583  0.3422 -1.5194
26077SOL    HW280239   5.872   4.038   3.978  1.3465  1.1066  1.0907
26078SOL     OW80240   3.687   1.996   5.535  0.1481  0.4981  0.0342
26078SOL    HW180241   3.779   1.995   5.560  0.2271  1.8175 -0.1337
26078SOL    HW280242   3.642   2.036   5.609 -0.7526 -2.7877  1.4039
26079SOL     OW80243   7.688  10.568   9.935 -0.1436  0.4953 -0.0803
26079SOL    HW180244   7.777  10.572   9.968 -0.3835  0.6854  0.5562
26079SOL    HW280245   7.684  10.637   9.869  0.0693  0.7443  0.1645
26080SOL     OW80246   2.208   6.079   1.043 -0.5760  0.7331 -0.2557
26080SOL    HW180247   2.158   6.130   0.979  0.9173  1.1367 -1.1498
26080SOL    HW280248   2.261   6.143   1.089 -1.8184  0.4842  1.6358
26081SOL     OW80249   2.218   2.075   2.754  0.0154 -0.3963 -0.4251
26081SOL    HW180250   2.154   2.145   2.745  0.6005  0.3029  0.7118
26081SOL    HW280251   2.237   2.071   2.848  0.9350 -1.2192 -0.6295
26082SOL     OW80252   7.061   5.769   4.764  0.1867  0.5302 -0.5162
26082SOL    HW180253   7.107   5.783   4.681  3.5545 -0.3233  1.0346
26082SOL    HW280254   7.031   5.856   4.790  1.9810  1.3528 -1.0968
26083SOL     OW80255  10.964   4.694   7.698  0.0324 -0.1595 -0.1967
26083SOL    HW180256  10.985   4.669   7.607  0.2606  0.5712 -0.3504
26083SOL    HW280257  11.044   4.737   7.729 -0.2664  0.1458  0.1453
26084SOL     OW80258   5.232   7.875   1.183 -0.2275  0.5317 -0.1795
26084SOL    HW180259   5.269   7.796   1.142 -0.4351  1.1354 -1.5898
26084SOL    HW280260   5.225   7.938   1.111  1.0758  2.2774  1.1644
26085SOL     OW80261   1.739   3.109   7.051  0.2960  0.7307 -0.4218
26085SOL    HW180262   1.822   3.138   7.014  1.1498 -2.1427 -1.0700
26085SOL    HW280263   1.755   3.018   7.078 -2.1955  0.5932  0.9578
26086SOL     OW80264  10.139   6.031   0.931 -0.1792  0.1803 -0.6905
26086SOL    HW180265  10.209   6.032   0.865 -0.4318  1.0881 -0.9626
26086SOL    HW280266  10.121   5.938   0.946 -0.6203 -0.0531 -2.4484
26087SOL     OW80267   2.990   3.340   7.182  0.0401 -0.0519 -0.2225
26087SOL    HW180268   2.961   3.250   7.197 -0.1794  0.0903  0.2422
26087SOL    HW280269   2.923   3.394   7.224 -0.3380  0.3658 -1.3242
26088SOL     OW80270   6.721  10.560   6.168 -0.0677  0.5733  0.1432
26088SOL    HW180271   6.765  10.628   6.219  0.5728  0.3433 -0.0902
26088SOL    HW280272   6.631  10.590   6.161  0.1373  1.2492  0.3063
26089SOL     OW80273   2.736   0.860   9.655  0.0874  0.3920  0.0521
26089SOL    HW180274   2.675   0.870   9.582  0.0214  0.4894  0.1205
26089SOL    HW280275   2.682   0.823   9.726 -0.2041  1.6707  0.5301
26090SOL     OW80276   7.901   9.052   9.985  0.2532  0.4855  0.4756
26090SOL    HW180277   7.904   9.100   9.902  0.1862  0.8487  0.6826
26090SOL    HW280278   7.890   8.960   9.959  0.4434  0.5727  0.0767
26091SOL     OW80279   5.255   6.292   5.134  0.2313 -0.1806 -0.1332
26091SOL    HW180280   5.196   6.336   5.196  1.7776  1.4451  0.2743
26091SOL    HW280281   5.315   6.243   5.189  1.3565  0.9416 -0.3145
26092SOL     OW80282   2.768   2.157   6.623 -0.9000  0.7264  0.4690
26092SOL    HW180283   2.676   2.138   6.602 -0.7594 -0.2049  0.6634
26092SOL    HW280284   2.807   2.181   6.539 -1.0601  0.0078  0.1792
26093SOL     OW80285   1.785   4.892   7.564 -0.3419 -0.1059  0.1193
26093SOL    HW180286   1.827   4.813   7.598 -0.0577  0.4489  1.0885
26093SOL    HW280287   1.699   4.861   7.535 -0.6227 -0.6195  1.3888
26094SOL     OW80288   2.570   6.073   6.143  0.3479 -0.1014 -0.0423
26094SOL    HW180289   2.530   6.083   6.229 -1.4468 -0.7760 -0.7506
26094SOL    HW280290   2.626   5.996   6.151  0.7851  0.2794  0.7032
26095SOL     OW80291   7.559   2.846   1.954  0.2855  0.4415  0.1032
26095SOL    HW180292   7.493   2.867   2.020  0.7627  0.0089  0.7393
26095SOL    HW280293   7.639   2.889   1.985  0.2214  1.3075 -0.8720
26096SOL     OW80294   8.011   7.333   9.380  0.3466 -0.0136  0.5228
26096SOL    HW180295   8.047   7.253   9.418 -1.5099 -1.3666 -0.4338
26096SOL    HW280296   8.013   7.317   9.286 -0.7511  0.7433  0.3600
26097SOL     OW80297  10.633   0.800   5.797 -0.3860  0.1763 -0.1293
26097SOL    HW180298  10.710   0.743   5.803 -0.9744 -0.6543 -0.1738
26097SOL    HW280299  10.565   0.754   5.848 -0.8100  0.9674  0.0421
26098SOL     OW80300   1.201   3.315   8.340  0.0763 -0.6515  0.1674
26098SOL    HW180301   1.115   3.277   8.326  1.0627 -2.3529 -1.7499
26098SOL    HW280302   1.233   3.273   8.421 -0.2861 -1.1825  0.0361
26099SOL     OW80303   4.352   3.118   9.044  0.0081  0.0531 -0.2991
26099SOL    HW180304   4.339   3.186   8.977 -0.0257  0.9765  0.6181
26099SOL    HW280305   4.408   3.053   9.002 -1.1597 -0.0851 -1.6926
26100SOL     OW80306   9.572   1.708   5.918 -0.3378  0.3794  0.4905
26100SOL    HW180307   9.655   1.751   5.939 -0.7315  1.0515  0.7242
26100SOL    HW280308   9.568   1.711   5.822  0.5468 -0.9208  0.3968
26101SOL     OW80309   5.780   9.100   2.442  0.3456 -0.4709 -0.1268
26101SOL    HW180310   5.844   9.170   2.430  1.8720 -2.0128 -1.5489
26101SOL    HW280311   5.706   9.126   2.387 -0.3839  1.3871  1.6170
26102SOL     OW80312   9.578   3.513  10.385  0.0885 -0.6133  0.6191
26102SOL    HW180313   9.570   3.577  10.456 -0.1521  0.8846 -0.7165
26102SOL    HW280314   9.513   3.446  10.406 -2.7689  1.7419 -0.1372
26103SOL     OW80315   0.903   8.607   7.344  0.2987  0.0763  0.2015
26103SOL    HW180316   0.910   8.655   7.261 -3.6416  0.4904 -0.0531
26103SOL    HW280317   0.866   8.523   7.320  3.4028 -1.7103  1.1390
26104SOL     OW80318   3.380   0.652  10.078  0.4700 -0.9049  0.3355
26104SOL    HW180319   3.352   0.644  10.169  1.8761 -2.1528  0.6984
26104SOL    HW280320   3.377   0.563  10.044  1.9614 -0.7896 -0.1843
26105SOL     OW80321   9.682   4.122   5.291 -0.0754 -0.1344 -0.2405
26105SOL    HW180322   9.685   4.151   5.382 -1.3088 -0.4139 -0.1001
26105SOL    HW280323   9.614   4.055   5.289 -0.6326  0.4533 -1.5360
26106SOL     OW80324   8.639   9.581   6.476  0.0989  0.2659 -0.2167
26106SOL    HW180325   8.655   9.675   6.467  1.8782 -0.0649 -0.8180
26106SOL    HW280326   8.721   9.546   6.511 -0.0739 -1.2593 -1.2655
26107SOL     OW80327   9.992   4.004   4.605  0.7255 -0.1765  0.1921
26107SOL    HW180328  10.033   4.005   4.691  2.9269  0.5498 -0.7719
26107SOL    HW280329  10.012   3.917   4.570  0.1470 -0.3415  0.2575
26108SOL     OW80330   1.696   2.180   6.666  0.0204  0.0321 -0.4915
26108SOL    HW180331   1.731   2.237   6.734 -1.3924  2.0760 -1.4023
26108SOL    HW280332   1.762   2.110   6.657  1.8472  1.5167  0.6295
26109SOL     OW80333   7.030   8.878   6.851  0.2899  0.0902  0.2887
26109SOL    HW180334   7.094   8.935   6.809  0.5081 -1.0747 -1.0295
26109SOL    HW280335   6.950   8.889   6.799  0.0766 -0.1326  0.5635
26110SOL     OW80336   6.304   5.685   6.172 -0.0866 -0.2873 -0.3380
26110SOL    HW180337   6.367   5.627   6.213 -0.3885 -1.1687 -1.0867
26110SOL    HW280338   6.324   5.772   6.207  2.3740 -0.3040 -1.4759
26111SOL     OW80339   6.017   8.444   5.374  0.2785  0.1270  0.0665
26111SOL    HW180340   6.100   8.452   5.327 -0.0436 -1.6438 -0.8699
26111SOL    HW280341   5.993   8.352   5.366 -0.5157  0.0344  2.5197
26112SOL     OW80342   0.834   0.350  10.183 -0.0901 -0.5418 -0.0428
26112SOL    HW180343   0.876   0.283  10.129 -0.5202  0.3952 -1.6315
26112SOL    HW280344   0.843   0.430  10.131 -0.4494  0.4319  1.3542
26113SOL     OW80345   7.854   8.416   5.001 -0.2795  0.1378  0.1291
26113SOL    HW180346   7.832   8.452   4.916  0.0130 -0.0252 -0.0175
26113SOL    HW280347   7.842   8.322   4.991  1.1544 -0.0382 -0.1758
26114SOL     OW80348   9.542   8.065   0.797  0.1790 -0.6226 -0.1826
26114SOL    HW180349   9.452   8.042   0.776 -0.2368 -0.0921  0.9432
26114SOL    HW280350   9.595   7.993   0.761 -0.5708 -0.3925 -1.8414
26115SOL     OW80351   6.991   3.079   2.074 -0.0650  0.2104  0.0993
26115SOL    HW180352   6.994   3.033   1.990 -0.3669  1.3165 -0.5407
26115SOL    HW280353   6.939   3.022   2.131 -1.3006  0.2317 -0.9699
26116SOL     OW80354   9.769   1.054   6.427 -0.2625 -0.5451  0.3588
26116SOL    HW180355   9.845   0.998   6.445  1.2564  1.4822  0.5671
26116SOL    HW280356   9.729   1.068   6.513 -0.5936 -1.2005  0.3186
26117SOL     OW80357   1.846   1.916   9.785  0.3306  0.2000 -0.3623
26117SOL    HW180358   1.801   1.836   9.813  0.1062  0.2908 -0.4633
26117SOL    HW280359   1.786   1.987   9.809  0.7605  0.3777  0.2113
26118SOL     OW80360   5.190   2.765   7.819 -0.4931 -0.0446 -0.5228
26118SOL    HW180361   5.191   2.691   7.757 -1.0980 -1.3372  0.9317
26118SOL    HW280362   5.281   2.791   7.828  0.1803 -2.5930  1.1188
26119SOL     OW80363   5.101   4.185   8.997 -0.6820 -0.0536  0.0041
26119SOL    HW180364   5.035   4.151   8.937 -0.5215 -0.7123  0.1834
26119SOL    HW280365   5.127   4.109   9.048 -1.1584  0.5886  1.2399
26120SOL     OW80366   6.579   9.560   1.524 -0.2902 -0.0674 -0.4374
26120SOL    HW180367   6.636   9.484   1.536  0.1897  0.1750 -1.1638
26120SOL    HW280368   6.494   9.531   1.559 -0.1280 -0.9525 -0.7408
26121SOL     OW80369   0.657   5.454  10.509  0.7397  0.8391 -0.2779
26121SOL    HW180370   0.704   5.448  10.592  0.6864  0.5418 -0.2666
26121SOL    HW280371   0.720   5.424  10.444 -0.3460 -2.7099  0.0748
26122SOL     OW80372   2.331   8.014   0.026 -0.1971  0.0607 -0.3587
26122SOL    HW180373   2.316   8.038   0.117 -0.2429 -1.1751 -0.0297
26122SOL    HW280374   2.245   7.987  -0.007 -0.1722  0.4502 -0.7642
26123SOL     OW80375   1.121   1.290   4.058  0.2484  0.4217 -0.2712
26123SOL    HW180376   1.097   1.207   4.017  2.0636 -0.1421 -0.2557
26123SOL    HW280377   1.087   1.357   3.998 -2.1950 -0.2470  0.2479
26124SOL     OW80378   1.050   0.226   5.049 -0.0843 -0.3680  0.3881
26124SOL    HW180379   1.081   0.152   4.996  0.7994  0.8880 -0.9478
26124SOL    HW280380   0.977   0.191   5.100 -1.4003 -1.5458 -2.1296
26125SOL     OW80381   0.716   4.648   9.990  0.0185  0.0179 -0.4748
26125SOL    HW180382   0.624   4.673   9.978 -0.8188 -1.2679  2.3268
26125SOL    HW280383   0.748   4.707  10.059  0.2614 -1.5941  0.8576
26126SOL     OW80384   1.102   2.825   4.913 -0.4121  0.0827  0.3385
26126SOL    HW180385   1.128   2.743   4.871 -1.0288  0.1772 -0.2508
26126SOL    HW280386   1.047   2.798   4.986 -1.3272 -0.0107 -0.3711
26127SOL     OW80387   5.460  10.997  10.191 -0.5718 -0.6456 -0.0823
26127SOL    HW180388   5.521  11.052  10.143 -1.6428  0.0866 -0.6357
26127SOL    HW280389   5.516  10.943  10.247  0.5428  0.6439  0.1112
26128SOL     OW80390   1.766   8.234   0.583 -0.3085 -0.0838 -0.7085
26128SOL    HW180391   1.730   8.272   0.503 -3.3198  0.1658  0.6073
26128SOL    HW280392   1.744   8.141   0.577 -1.6630  0.1252  0.2489
26129SOL     OW80393   7.044   3.314   1.722 -0.0701  0.4050 -0.0058
26129SOL    HW180394   7.059   3.336   1.814  1.8766  1.5517 -0.5160
26129SOL    HW280395   7.087   3.229   1.711 -2.7255 -1.1152  0.7114
26130SOL     OW80396   2.934   6.530   6.358  0.4523  0.2187 -0.4054
26130SOL    HW180397   2.971   6.458   6.308 -1.1513 -1.5900  0.8653
26130SOL    HW280398   2.994   6.542   6.432  0.0736 -0.6970  0.0610
26131SOL     OW80399   3.594   2.764   1.775  0.2836  0.1233 -0.4965
26131SOL    HW180400   3.583   2.681   1.729 -0.4734 -0.0222 -0.0632
26131SOL    HW280401   3.617   2.739   1.865 -1.7003  0.3063  0.1239
26132SOL     OW80402   8.109   7.640   4.771 -0.4544  0.3782 -0.5392
26132SOL    HW180403   8.095   7.657   4.864 -0.9845 -1.1465 -0.3164
26132SOL    HW280404   8.205   7.638   4.762 -0.3959  0.9119 -0.1160
26133SOL     OW80405   9.690   1.258   0.182  0.3330 -0.3969 -0.0550
26133SOL    HW180406   9.768   1.277   0.234 -0.0908 -0.8304  0.7512
26133SOL    HW280407   9.642   1.193   0.233 -0.6793  0.0349 -0.4337
26134SOL     OW80408   5.175   9.138   6.687 -0.0991 -0.2783 -0.0271
26134SOL    HW180409   5.144   9.049   6.671 -0.0597 -0.7131  2.0090
26134SOL    HW280410   5.108   9.194   6.648 -0.4202 -1.1914 -0.8255
26135SOL     OW80411   3.827   3.860   4.253 -0.0695  0.4029  0.2632
26135SOL    HW180412   3.736   3.873   4.223 -0.0631 -0.7796 -0.3169
26135SOL    HW280413   3.824   3.780   4.306  0.9376 -0.7056 -1.2740
26136SOL     OW80414   8.393   0.913   1.472  0.2479 -0.3141 -0.0072
26136SOL    HW180415   8.453   0.886   1.402  0.1158  0.8312 -0.5973
26136SOL    HW280416   8.381   1.007   1.458 -0.1929 -0.1597  1.2566
26137SOL     OW80417   9.310  10.714   8.832 -0.0411  0.5475  0.0889
26137SOL    HW180418   9.275  10.636   8.874  0.3696 -0.0172 -0.5869
26137SOL    HW280419   9.237  10.747   8.779  0.0119  0.1748 -0.2234
26138SOL     OW80420   1.029   6.459   7.705  0.0182  0.2840 -0.4542
26138SOL    HW180421   0.963   6.450   7.774  0.5401  0.0118  0.0181
26138SOL    HW280422   0.988   6.517   7.641 -2.2071 -2.7229 -2.0198
26139SOL     OW80423   6.533   1.584   8.028  0.1293 -0.4718  0.2851
26139SOL    HW180424   6.471   1.608   7.959 -0.7451  1.4709  1.6689
26139SOL    HW280425   6.479   1.550   8.099  0.6466  0.7759  1.3183
26140SOL     OW80426  10.234   5.919   6.930 -0.3948 -0.3968  1.1018
26140SOL    HW180427  10.203   5.948   7.016 -1.4202  0.3749  0.4882
26140SOL    HW280428  10.313   5.970   6.914 -1.2232  0.8068  0.7898
26141SOL     OW80429   7.407   0.068   2.351  0.0440  0.9327  0.5909
26141SOL    HW180430   7.366  -0.018   2.359 -0.3867  1.0162 -0.4884
26141SOL    HW280431   7.347   0.118   2.295  0.4496  1.8367  0.9308
26142SOL     OW80432   1.066  10.108   8.154 -0.0877 -0.1121 -0.1049
26142SOL    HW180433   1.075  10.116   8.248 -2.5142 -1.5657  0.3549
26142SOL    HW280434   0.987  10.160   8.133 -1.0901 -1.8562 -0.8703
26143SOL     OW80435   3.104   9.815   5.018  0.0095  0.2861 -0.7936
26143SOL    HW180436   3.011   9.837   5.029 -0.0731 -0.1181 -0.6673
26143SOL    HW280437   3.140   9.889   4.969 -0.2790  0.6604 -0.4540
26144SOL     OW80438   4.684   5.262   4.279  0.3675  0.4593  0.0178
26144SOL    HW180439   4.663   5.268   4.186 -0.6285  0.3075  0.2197
26144SOL    HW280440   4.622   5.198   4.314 -1.3135  2.6264  1.3224
26145SOL     OW80441  10.103   6.341   7.587 -0.5367 -0.0000 -0.6226
26145SOL    HW180442  10.152   6.350   7.505  0.9922  2.8601  0.4421
26145SOL    HW280443  10.050   6.421   7.591 -2.2197 -1.1066  0.2330
26146SOL     OW80444   9.061   3.362   9.975 -0.0101  0.4006  0.0269
26146SOL    HW180445   9.119   3.319  10.038  0.7092  0.5776 -0.4999
26146SOL    HW280446   9.059   3.453  10.004 -0.4384  0.2896  0.3462
26147SOL     OW80447   9.580   5.843   3.822  0.2014 -0.4929  0.4785
26147SOL    HW180448   9.557   5.922   3.773  1.4286 -0.0083  0.6557
26147SOL    HW280449   9.495   5.807   3.850 -0.5505 -0.8519 -2.0295
26148SOL     OW80450   0.573   5.362   9.091 -0.3415  0.2055  0.0289
26148SOL    HW180451   0.648   5.308   9.118  0.4662  2.1930  2.0613
26148SOL    HW280452   0.566   5.347   8.997  0.8906 -2.1034  0.2259
26149SOL     OW80453   1.937   6.887   9.111 -0.1445  0.2301 -0.0928
26149SOL    HW180454   1.854   6.903   9.068  0.2964 -1.1130 -1.5435
26149SOL    HW280455   1.964   6.801   9.079  1.1633  0.0424  1.3833
26150SOL     OW80456   1.457   2.318   2.414  0.2281 -0.3542 -0.2186
26150SOL    HW180457   1.445   2.358   2.328 -0.7033 -2.6480 -1.2411
26150SOL    HW280458   1.500   2.234   2.396 -0.7558 -1.2736  1.4488
26151SOL     OW80459   7.685   5.152   7.505  0.1641 -0.3293 -0.4318
26151SOL    HW180460   7.658   5.241   7.527  0.8559 -0.4314  0.9245
26151SOL    HW280461   7.644   5.135   7.420 -0.5164  1.0357 -0.4050
26152SOL     OW80462   1.974   7.434   3.303 -0.0843 -0.0942  0.1312
26152SOL    HW180463   1.972   7.351   3.350 -0.2085 -0.0804  0.1497
26152SOL    HW280464   2.043   7.423   3.238 -1.5078 -1.0078 -1.3128
26153SOL     OW80465   0.227   4.732   2.737  0.2520 -0.5161  0.2043
26153SOL    HW180466   0.290   4.738   2.810  0.4102 -1.2524  0.1406
26153SOL    HW280467   0.256   4.798   2.675  0.0916  0.1555  0.8246
26154SOL     OW80468   3.906   3.355   5.264  0.6258  0.1980 -0.1082
26154SOL    HW180469   3.945   3.442   5.276 -0.8715  0.7642  1.1833
26154SOL    HW280470   3.832   3.370   5.206  0.7496 -0.3504 -0.4127
26155SOL     OW80471   1.309   5.266   2.964  0.5147 -0.2728 -0.5904
26155SOL    HW180472   1.246   5.311   2.908  1.5389  0.9640 -0.8065
26155SOL    HW280473   1.394   5.287   2.925  1.1148 -1.2626  0.1369
26156SOL     OW80474   7.075   2.816   5.642 -0.1403 -0.5018  0.2402
26156SOL    HW180475   7.089   2.816   5.737 -0.0278 -2.0472  0.2437
26156SOL    HW280476   7.102   2.904   5.614 -1.6287  0.5256  1.8227
26157SOL     OW80477   3.483  10.839   8.987  0.6028 -0.2814  0.5426
26157SOL    HW180478   3.559  10.790   8.957  0.2938 -0.3899 -0.0664
26157SOL    HW280479   3.410  10.777   8.981  0.6701 -0.6232  2.4120
26158SOL     OW80480   3.636   4.348   7.566  0.0557  0.1506  0.0705
26158SOL    HW180481   3.658   4.339   7.474 -0.8884 -3.0727  0.0080
26158SOL    HW280482   3.540   4.352   7.568  0.0366 -0.2744  0.8930
26159SOL     OW80483   1.140   8.319  10.914  0.1468  0.2715 -0.2733
26159SOL    HW180484   1.221   8.334  10.963  0.2492 -1.5818  0.2067
26159SOL    HW280485   1.071   8.358  10.967  0.2212 -1.8699  1.5481
26160SOL     OW80486   0.517   0.908   1.597 -0.3670  0.0166  0.1046
26160SOL    HW180487   0.503   0.990   1.645 -1.2588 -0.0493 -0.0258
26160SOL    HW280488   0.437   0.858   1.613 -0.8721  0.1509 -1.7777
26161SOL     OW80489   9.863   7.644   3.890 -0.2213  0.1025  0.0440
26161SOL    HW180490   9.938   7.588   3.908 -0.2298  0.4783  1.2928
26161SOL    HW280491   9.900   7.732   3.882 -0.0951 -0.0863 -2.6559
26162SOL     OW80492   6.218   6.862   5.347 -0.2971 -0.0785 -0.4131
26162SOL    HW180493   6.192   6.954   5.347  0.6049  0.2137 -1.6999
26162SOL    HW280494   6.173   6.825   5.271  0.0602 -0.4657 -0.4387
26163SOL     OW80495   0.527  10.828   3.853  0.3077  0.4452  0.8754
26163SOL    HW180496   0.539  10.814   3.947 -4.4061 -0.7189  1.5430
26163SOL    HW280497   0.504  10.921   3.845 -2.2277 -0.0421  1.4712
26164SOL     OW80498   2.593   3.330   2.467  0.1658  0.0229 -0.2337
26164SOL    HW180499   2.550   3.373   2.393 -1.1316 -2.3257 -0.9392
26164SOL    HW280500   2.528   3.332   2.537  0.6071  0.4013  0.1701
26165SOL     OW80501   4.210   1.259   5.827  0.7611 -0.3198  0.2878
26165SOL    HW180502   4.170   1.178   5.860 -3.1375  1.1540 -0.2878
26165SOL    HW280503   4.215   1.246   5.733  2.9228 -0.9070  0.4331
26166SOL     OW80504   3.086   4.860  10.214 -0.5820 -0.4870 -0.0696
26166SOL    HW180505   3.004   4.904  10.238 -0.0622  1.3302 -1.3992
26166SOL    HW280506   3.089   4.865  10.119  0.6274 -1.3793 -0.1007
26167SOL     OW80507   4.395   0.502   2.112 -0.4050 -0.4339 -0.3239
26167SOL    HW180508   4.435   0.430   2.063  1.0419 -1.1415  1.7315
26167SOL    HW280509   4.459   0.521   2.181 -1.0638  2.3886 -0.3986
26168SOL     OW80510   4.712   2.377   7.057 -0.3709 -0.1930  0.0522
26168SOL    HW180511   4.644   2.323   7.099 -2.3168  1.6162 -0.5943
26168SOL    HW280512   4.740   2.437   7.126  0.2696 -0.6448  0.1911
26169SOL     OW80513  10.486   8.823   2.106  0.4668  0.4850  0.0487
26169SOL    HW180514  10.566   8.867   2.135  1.3569 -1.7417  1.2579
26169SOL    HW280515  10.512   8.776   2.026  0.9331 -1.6156  1.3588
26170SOL     OW80516  10.315   7.562   8.711 -0.1685 -0.0193  0.0671
26170SOL    HW180517  10.253   7.583   8.641 -0.3526 -0.9601 -0.0715
26170SOL    HW280518  10.344   7.647   8.744 -2.1152  0.4795  0.6546
26171SOL     OW80519   0.300   4.217   9.547 -0.1798  0.0761  0.2046
26171SOL    HW180520   0.279   4.165   9.625  0.3441  1.0362  1.0145
26171SOL    HW280521   0.361   4.284   9.579 -0.0533  0.5676 -1.0134
26172SOL     OW80522   5.826   2.221   3.652  0.1328 -0.0716 -0.1829
26172SOL    HW180523   5.832   2.277   3.574 -0.7713 -0.2782 -0.4156
26172SOL    HW280524   5.827   2.282   3.725  0.6831  0.1458 -0.3651
26173SOL     OW80525   2.895   0.651  10.270  0.4930 -0.2964  0.5405
26173SOL    HW180526   2.867   0.716  10.334 -0.8974 -0.7411  0.4312
26173SOL    HW280527   2.888   0.567  10.316  2.0762 -0.4127  0.6226
26174SOL     OW80528   8.890   4.397   5.707 -0.4394  0.5109  0.2056
26174SOL    HW180529   8.796   4.382   5.719 -0.4719  0.5375 -0.0020
26174SOL    HW280530   8.898   4.419   5.614 -0.0805 -0.5491 -0.0166
26175SOL     OW80531   2.513   0.059   7.600  0.4013 -0.3730  0.0363
26175SOL    HW180532   2.432   0.100   7.572 -0.1141  0.7720  2.8332
26175SOL    HW280533   2.580   0.096   7.543 -0.7059  0.6932 -0.6170
26176SOL     OW80534   5.905   7.887   3.190 -0.4259  0.2482  0.4613
26176SOL    HW180535   5.923   7.926   3.105  1.2914 -1.2067  0.0968
26176SOL    HW280536   5.967   7.929   3.249 -1.5616  1.1982  1.0264
26177SOL     OW80537   5.369   8.064   6.520  0.0211  0.0393  0.1780
26177SOL    HW180538   5.338   8.134   6.464 -0.1915  1.0628  1.5277
26177SOL    HW280539   5.464   8.075   6.522  0.1891 -0.9458 -1.1660
26178SOL     OW80540   2.489   3.351  10.984  0.5463 -0.5490  0.6299
26178SOL    HW180541   2.486   3.255  10.978  0.1951 -0.5923  1.3680
26178SOL    HW280542   2.578   3.373  10.956  0.4989 -1.0533  0.0488
26179SOL     OW80543   6.027   4.022   5.823  0.0916  0.3725 -0.0927
26179SOL    HW180544   5.951   3.995   5.874 -1.1048 -0.7848 -2.3408
26179SOL    HW280545   6.102   3.985   5.871 -0.9497 -0.5464  0.8871
26180SOL     OW80546  10.854   5.341   0.742  0.2005 -0.0152 -0.9113
26180SOL    HW180547  10.937   5.386   0.757  0.8746  0.1224 -4.3241
26180SOL    HW280548  10.866   5.293   0.660 -2.4685 -1.6120 -0.5115
26181SOL     OW80549   3.596   6.312   1.625 -0.5231  0.1778  0.1768
26181SOL    HW180550   3.609   6.304   1.720 -0.7719  1.0119  0.2857
26181SOL    HW280551   3.567   6.225   1.598 -0.2868 -0.1150  0.8372
26182SOL     OW80552   2.480   2.384   4.068  0.1678  0.5027 -0.0520
26182SOL    HW180553   2.554   2.325   4.062 -0.0237  0.3740 -1.3725
26182SOL    HW280554   2.505   2.447   4.135  1.8044  0.9306 -1.0192
26183SOL     OW80555   5.456   8.172   2.708 -0.1833  0.0744 -0.1088
26183SOL    HW180556   5.407   8.120   2.772 -0.9348 -2.7975 -2.7800
26183SOL    HW280557   5.507   8.107   2.659  1.4065  2.2839 -1.5661
26184SOL     OW80558   4.199   4.038   3.782  0.3256 -0.0068 -0.6289
26184SOL    HW180559   4.276   4.003   3.828  0.3833  1.5713  0.5770
26184SOL    HW280560   4.223   4.129   3.762 -0.5398 -0.0341 -1.9180
26185SOL     OW80561   0.840   8.330  10.980  0.0472 -0.5260  0.2335
26185SOL    HW180562   0.799   8.243  10.972 -0.8211 -0.1182  0.1574
26185SOL    HW280563   0.831   8.352  11.072 -1.0004  0.0745  0.0084
26186SOL     OW80564   8.549   4.716   0.129 -0.0685 -0.2314 -0.5837
26186SOL    HW180565   8.621   4.653   0.126  1.7411  1.7607 -0.7761
26186SOL    HW280566   8.480   4.670   0.177  1.4143 -2.0906 -0.0945
26187SOL     OW80567   8.071   5.218   0.635  0.3442 -0.0574 -0.1941
26187SOL    HW180568   8.040   5.128   0.640 -0.7963  0.2800 -0.8173
26187SOL    HW280569   8.157   5.212   0.593  0.1021 -0.8156 -0.6033
26188SOL     OW80570   9.531   9.822   3.477  0.2576  0.3446  0.7228
26188SOL    HW180571   9.622   9.846   3.492  0.7315 -1.0011  0.0801
26188SOL    HW280572   9.481   9.896   3.513  1.6105  1.7927 -0.2318
26189SOL     OW80573   8.880   3.646   9.717  0.3204 -0.1048  0.2432
26189SOL    HW180574   8.795   3.673   9.754  0.0954 -0.3470 -0.0997
26189SOL    HW280575   8.940   3.717   9.742  0.0314  0.0404  0.5346
26190SOL     OW80576  10.583   9.330   4.321  0.2023  0.0852  0.1731
26190SOL    HW180577  10.540   9.311   4.405  1.3831 -0.3444  0.7090
26190SOL    HW280578  10.672   9.356   4.345  0.5078  0.1192 -0.9377
26191SOL     OW80579   3.041  10.150   8.016 -0.2773  0.1718  0.4368
26191SOL    HW180580   3.135  10.165   8.005 -0.1612 -0.2350  0.8321
26191SOL    HW280581   3.013  10.109   7.934  0.3073 -1.5884  1.0517
26192SOL     OW80582   3.000   4.514   5.802  0.1177  0.0848 -0.2499
26192SOL    HW180583   2.904   4.519   5.808  0.0031 -0.5162 -1.3034
26192SOL    HW280584   3.028   4.481   5.887 -0.6153  0.2137  0.0489
26193SOL     OW80585   4.525   2.247   3.265  0.3232  0.5354  0.3621
26193SOL    HW180586   4.496   2.309   3.198  0.1301 -2.4506 -2.5835
26193SOL    HW280587   4.465   2.261   3.338 -1.9038  1.5258 -1.5164
26194SOL     OW80588   8.590   4.104  10.547  0.6263  0.1182 -0.6185
26194SOL    HW180589   8.657   4.097  10.479  0.4031 -0.9163 -0.7417
26194SOL    HW280590   8.639   4.104  10.629  0.7221 -2.5329 -0.6129
26195SOL     OW80591   7.515  10.651   0.461 -0.9839 -0.3120 -0.8793
26195SOL    HW180592   7.581  10.697   0.513 -1.1251 -0.5367 -0.4970
26195SOL    HW280593   7.488  10.578   0.516 -3.1176  0.9719 -0.1154
26196SOL     OW80594   7.068   1.200   4.178 -0.3938  0.5977 -0.4947
26196SOL    HW180595   7.127   1.229   4.109 -0.9074  1.0084 -0.7662
26196SOL    HW280596   7.116   1.129   4.222 -0.4401 -0.2928 -1.8381
26197SOL     OW80597   3.574  10.684   9.359  0.6998 -0.3738  0.4241
26197SOL    HW180598   3.591  10.767   9.403  2.1241 -0.7281  0.5963
26197SOL    HW280599   3.647  10.674   9.298  0.7493 -1.6698  0.6624
26198SOL     OW80600   2.081   4.006   1.294  0.2951 -0.0396 -0.0502
26198SOL    HW180601   2.102   4.080   1.236 -0.0569 -1.0223 -1.5027
26198SOL    HW280602   2.164   3.985   1.337  0.7773  0.1751 -0.8529
26199SOL     OW80603   0.962   4.462   5.692 -0.5475  0.2039 -0.0122
26199SOL    HW180604   1.017   4.516   5.634  1.1305 -2.9989 -1.6676
26199SOL    HW280605   0.967   4.505   5.777  1.5284  2.0610 -0.9733
26200SOL     OW80606   0.826   1.224   5.167 -0.3302 -0.0074 -0.4402
26200SOL    HW180607   0.795   1.271   5.244  1.0445  2.3517 -1.2079
26200SOL    HW280608   0.785   1.269   5.093 -0.1809 -1.0279 -1.1713
26201SOL     OW80609   7.053   0.186   2.792  0.1638 -0.5847  0.4094
26201SOL    HW180610   7.106   0.160   2.717 -1.5445 -0.5086 -0.8989
26201SOL    HW280611   7.033   0.279   2.777 -0.1860 -0.5622  0.9613
26202SOL     OW80612   3.998   6.234   3.554 -0.2440  0.0421 -0.5163
26202SOL    HW180613   4.051   6.312   3.543 -0.7153  0.3596 -0.5747
26202SOL    HW280614   4.055   6.162   3.529  0.1037  0.3908 -0.7340
26203SOL     OW80615   1.751   7.030   9.786 -0.3426  0.0218 -0.0854
26203SOL    HW180616   1.837   7.007   9.750 -0.4486 -1.3347  0.4782
26203SOL    HW280617   1.770   7.094   9.854 -0.0889  2.1805 -2.0718
26204SOL     OW80618   8.155   9.262   2.057 -0.2059 -0.0864 -0.2239
26204SOL    HW180619   8.141   9.346   2.101  0.7529 -0.5128  0.9560
26204SOL    HW280620   8.094   9.263   1.984  0.3120  1.9737 -0.7083
26205SOL     OW80621   8.759   3.316   6.650  0.5079  0.2117 -0.2398
26205SOL    HW180622   8.798   3.391   6.605  0.0331  0.4153 -0.3242
26205SOL    HW280623   8.727   3.260   6.580 -1.5355  1.2254 -0.1772
26206SOL     OW80624   2.039   4.107   7.479 -0.4444  0.1666 -0.0435
26206SOL    HW180625   2.049   4.062   7.395  0.9310  1.8921 -0.8724
26206SOL    HW280626   2.069   4.043   7.544 -0.8493 -0.9498 -0.9135
26207SOL     OW80627   9.236   1.620   3.956  0.2715 -0.1928  0.3583
26207SOL    HW180628   9.240   1.583   4.045 -0.4331  0.2958  0.6057
26207SOL    HW280629   9.188   1.702   3.967 -1.1853 -0.8654 -0.7066
26208SOL     OW80630   6.577   7.795   0.075 -0.3991  0.4360 -0.0470
26208SOL    HW180631   6.486   7.795   0.106 -0.4362  2.7841  0.0305
26208SOL    HW280632   6.627   7.761   0.149 -1.0202  1.0706  0.6795
26209SOL     OW80633   3.193   7.673   7.747 -0.2505  0.1788  0.1051
26209SOL    HW180634   3.100   7.693   7.744 -0.4088 -0.5519 -0.1203
26209SOL    HW280635   3.222   7.700   7.834 -0.9641 -0.8157  0.6664
26210SOL     OW80636   2.487   3.525   7.427 -0.1623  0.1505  0.3328
26210SOL    HW180637   2.455   3.585   7.360 -1.0510 -0.2915  0.3447
26210SOL    HW280638   2.412   3.468   7.445  0.4347 -0.4777  0.8589
26211SOL     OW80639   5.316   9.900  10.283  0.0163  0.0465  0.4724
26211SOL    HW180640   5.370   9.821  10.286  0.0438 -0.0968 -1.6983
26211SOL    HW280641   5.226   9.868  10.295  0.0263 -0.3564 -0.4057
26212SOL     OW80642   8.226   3.747   2.045 -0.0794 -0.0503  0.0908
26212SOL    HW180643   8.181   3.665   2.064  1.1279 -0.6600  0.4075
26212SOL    HW280644   8.301   3.721   1.991 -0.0086  0.9198 -0.2975
26213SOL     OW80645   6.027   8.186   5.275  0.1885 -0.2106 -0.5128
26213SOL    HW180646   6.009   8.183   5.181  0.1072 -3.6977 -0.5170
26213SOL    HW280647   5.964   8.125   5.314  0.7331  0.5391  1.7349
26214SOL     OW80648   0.619   8.744   4.735  0.2931 -0.0475 -0.4204
26214SOL    HW180649   0.530   8.777   4.747  0.6543  0.1371  2.4986
26214SOL    HW280650   0.608   8.653   4.709 -0.7580 -0.0788  0.1080
26215SOL     OW80651   4.834   0.890   9.178 -0.5283 -0.2741 -0.0402
26215SOL    HW180652   4.836   0.977   9.138 -1.3167 -0.4616 -0.5153
26215SOL    HW280653   4.832   0.830   9.103 -0.7025 -0.6733  0.2837
26216SOL     OW80654   4.974   3.073   3.815 -0.1609 -0.2032  0.2098
26216SOL    HW180655   4.884   3.098   3.838 -0.3479 -0.7549  0.0945
26216SOL    HW280656   4.983   3.099   3.723 -1.1438 -2.5907 -0.6451
26217SOL     OW80657   0.455   0.032   0.718  0.2189  0.1469  0.4818
26217SOL    HW180658   0.371   0.070   0.744 -0.3971 -0.1656 -0.9642
26217SOL    HW280659   0.516   0.107   0.718 -0.6362  0.8906 -0.8657
26218SOL     OW80660   0.406   9.057   5.653 -0.1828 -0.1004 -0.2475
26218SOL    HW180661   0.497   9.080   5.638 -0.1414  0.3392  0.6219
26218SOL    HW280662   0.357   9.115   5.594  0.0134  1.0181  0.6599
26219SOL     OW80663   5.777   3.651   7.401 -0.4660  0.3638 -0.4904
26219SOL    HW180664   5.871   3.647   7.417 -0.2419 -1.8488 -2.0478
26219SOL    HW280665   5.768   3.707   7.324 -0.2282 -0.9175 -1.4720
26220SOL     OW80666   4.918   5.169  10.722 -0.0617 -0.5488 -0.2973
26220SOL    HW180667   4.947   5.249  10.679  1.0794 -0.5131  0.4969
26220SOL    HW280668   4.956   5.098  10.670  0.0701 -0.5448 -0.2060
26221SOL     OW80669   8.474   9.375   8.526  0.4788  0.4959  0.2737
26221SOL    HW180670   8.430   9.405   8.605 -1.9042 -1.0711 -0.3617
26221SOL    HW280671   8.562   9.350   8.556 -0.4585 -0.3608  2.5069
26222SOL     OW80672   5.983   9.123   5.356 -0.0373 -0.6763  0.1291
26222SOL    HW180673   5.890   9.130   5.334 -0.1645 -0.8749  0.5742
26222SOL    HW280674   6.007   9.210   5.388  0.1179 -0.4238 -0.6681
26223SOL     OW80675   7.041   2.886   7.391 -0.1123  0.2121 -0.1861
26223SOL    HW180676   7.008   2.930   7.312  1.5672  2.2410  0.1636
26223SOL    HW280677   7.123   2.846   7.363 -1.1375 -1.9762 -0.2396
26224SOL     OW80678  10.588   1.019   7.846  0.3166 -0.4149  0.6815
26224SOL    HW180679  10.572   0.931   7.878 -3.8855  0.0823  0.4103
26224SOL    HW280680  10.592   1.010   7.751 -0.7262 -0.2583  0.6182
26225SOL     OW80681   1.022   8.061  11.032 -0.0353 -0.1512  0.5355
26225SOL    HW180682   1.011   8.146  10.990  0.5926 -0.7235 -0.8700
26225SOL    HW280683   1.101   8.070  11.085 -0.5306  0.4223  1.1866
26226SOL     OW80684   3.076   5.231   2.032  0.0024  0.3925  0.4456
26226SOL    HW180685   3.034   5.294   1.973  1.2334 -0.0607 -0.9740
26226SOL    HW280686   3.152   5.277   2.065  1.5493 -0.6418 -1.4768
26227SOL     OW80687   7.061   2.432   8.351 -0.2872 -0.4049 -0.3356
26227SOL    HW180688   7.084   2.521   8.324  0.4265 -0.5057 -0.0809
26227SOL    HW280689   7.135   2.403   8.403  0.3180 -1.8111 -1.8963
26228SOL     OW80690   5.126   3.701   9.103 -0.1165  0.2369 -0.4601
26228SOL    HW180691   5.080   3.640   9.160  0.3758 -1.1428 -1.4855
26228SOL    HW280692   5.150   3.774   9.160  0.3149 -1.0594  1.0777
26229SOL     OW80693   4.574   1.075   0.587 -0.0527  0.6526  0.1026
26229SOL    HW180694   4.504   1.013   0.609 -0.5504  0.9254 -0.6686
26229SOL    HW280695   4.634   1.024   0.531 -0.3244  0.7936 -0.3165
26230SOL     OW80696   5.115   5.939   6.639  0.3190 -0.2782  0.1166
26230SOL    HW180697   5.175   5.993   6.690 -0.7755  0.0386  1.1004
26230SOL    HW280698   5.042   5.997   6.617 -0.7422 -1.2529  0.9497
26231SOL     OW80699   5.307   3.593  10.566 -0.6133  0.5414 -0.0837
26231SOL    HW180700   5.227   3.616  10.519 -0.8274 -0.7872 -0.4327
26231SOL    HW280701   5.277   3.539  10.639 -0.0716  0.3883  0.0325
26232SOL     OW80702   3.483   1.464  10.839  0.4101 -0.1856  0.3885
26232SOL    HW180703   3.413   1.403  10.815 -0.3800  0.5337  0.8274
26232SOL    HW280704   3.443   1.524  10.901  1.4323  0.2249  0.6829
26233SOL     OW80705   7.304   9.623   6.699 -0.3023 -0.4469  0.1303
26233SOL    HW180706   7.333   9.532   6.693  3.1402  0.0772  4.1583
26233SOL    HW280707   7.278   9.634   6.790 -0.9422  2.5694 -0.3017
26234SOL     OW80708   7.532   6.736   0.382 -0.2997 -0.3796  0.4387
26234SOL    HW180709   7.456   6.696   0.340 -1.2573  1.0677  0.7078
26234SOL    HW280710   7.574   6.787   0.312 -0.5931  0.2149  0.6863
26235SOL     OW80711   3.063   5.449   9.955 -0.6931  0.6414 -0.0938
26235SOL    HW180712   3.076   5.402  10.037  0.3302  2.6710  0.9746
26235SOL    HW280713   3.104   5.534   9.968  1.3863  0.3609 -3.4400
26236SOL     OW80714  10.069   4.088   2.180  0.3337 -0.0782 -0.5528
26236SOL    HW180715  10.118   4.122   2.255  1.2465 -1.7046 -0.3623
26236SOL    HW280716   9.977   4.093   2.207  0.5993  0.2030  0.3176
26237SOL     OW80717   5.225  10.130  10.440 -0.0091 -0.0626  0.1612
26237SOL    HW180718   5.264  10.070  10.377 -0.8049 -1.4393  0.9083
26237SOL    HW280719   5.221  10.079  10.521 -0.8486  0.9598  0.7822
26238SOL     OW80720   2.882   7.912   3.720 -0.0654  0.5909 -0.0884
26238SOL    HW180721   2.877   7.894   3.814  3.0267  0.7576  0.2198
26238SOL    HW280722   2.895   8.007   3.715 -0.4917  0.6219 -0.7212
26239SOL     OW80723   3.908   4.034   3.041  0.8806 -0.6740  0.0915
26239SOL    HW180724   3.923   3.958   2.984 -1.5844 -1.2869  0.1488
26239SOL    HW280725   3.877   4.102   2.982 -0.6240 -0.9648  0.5184
26240SOL     OW80726   1.984   4.459   0.818 -0.3766 -0.0094  0.0212
26240SOL    HW180727   1.980   4.397   0.745 -0.2036  0.2496 -0.2122
26240SOL    HW280728   2.050   4.423   0.877  1.4021  1.0773 -1.1939
26241SOL     OW80729   1.618   2.263   1.150  0.2761  0.6237 -0.2385
26241SOL    HW180730   1.597   2.234   1.239  0.5915  0.7460 -0.1196
26241SOL    HW280731   1.545   2.319   1.125  0.2062  0.6235 -0.0366
26242SOL     OW80732   7.351   8.203   4.740 -0.8000 -0.0598 -0.1075
26242SOL    HW180733   7.391   8.214   4.653 -1.7926  0.9276 -0.4644
26242SOL    HW280734   7.312   8.116   4.738  0.9911 -0.9105  0.1258
26243SOL     OW80735   0.828   9.013   0.709 -0.1731  0.2566  0.7570
26243SOL    HW180736   0.921   9.004   0.729 -0.1860 -2.1001 -0.0223
26243SOL    HW280737   0.784   8.997   0.792  0.0662 -0.3935  0.7602
26244SOL     OW80738   3.731   5.304   1.399  0.3099 -0.7618 -0.8242
26244SOL    HW180739   3.826   5.307   1.400  0.2846  0.6815  0.2788
26244SOL    HW280740   3.704   5.393   1.375 -0.7706 -1.1769 -1.2505
26245SOL     OW80741   4.598   8.521   4.527 -0.2681  0.5173 -0.5816
26245SOL    HW180742   4.687   8.499   4.499 -0.1717 -0.4309  0.3917
26245SOL    HW280743   4.604   8.613   4.553  0.3342  0.5737 -0.8958
26246SOL     OW80744   6.319   6.892   2.456 -0.2542  0.0380 -0.0150
26246SOL    HW180745   6.254   6.888   2.526  2.1364 -0.8149  2.3332
26246SOL    HW280746   6.356   6.980   2.463 -0.3918  0.1384 -0.5711
26247SOL     OW80747   7.035   0.133   3.449  0.1535 -0.2442  0.5960
26247SOL    HW180748   6.967   0.092   3.396 -0.0659 -0.2870  0.9068
26247SOL    HW280749   7.040   0.223   3.418  0.5864 -0.4828 -0.0439
26248SOL     OW80750   3.038  10.326   1.212 -0.0874  0.2688  0.2396
26248SOL    HW180751   3.108  10.383   1.244 -0.0827  0.4812 -0.1447
26248SOL    HW280752   3.080  10.273   1.144 -0.1759  0.0402  0.3620
26249SOL     OW80753   4.200   9.765   0.388  0.2987  0.6266  0.1102
26249SOL    HW180754   4.244   9.718   0.317  0.4577  0.1256  0.5341
26249SOL    HW280755   4.162   9.842   0.346  1.3518  0.9303 -0.3089
26250SOL     OW80756   1.358   9.965   1.711 -0.2746 -0.3875 -0.1395
26250SOL    HW180757   1.295   9.894   1.720  0.0998 -0.6491  0.4686
26250SOL    HW280758   1.346   9.997   1.622 -0.7715 -0.9019 -0.2591
26251SOL     OW80759   1.046   1.839   4.982  0.6878 -0.1909 -0.3462
26251SOL    HW180760   1.023   1.909   4.920  0.0500  0.4293  0.5628
26251SOL    HW280761   1.006   1.866   5.065  1.9330 -0.7560  0.4703
26252SOL     OW80762   6.592   1.742   0.050 -0.3388 -0.8090 -0.9199
26252SOL    HW180763   6.624   1.832   0.046  0.3493 -1.0782 -2.0061
26252SOL    HW280764   6.498   1.750   0.064 -0.3731  0.0984 -1.5929
26253SOL     OW80765  10.034   5.762   4.413 -0.3620 -0.5964 -0.1945
26253SOL    HW180766   9.945   5.760   4.450 -0.7120  0.4005 -0.9573
26253SOL    HW280767  10.024   5.806   4.329  0.9145 -0.2203 -0.1626
26254SOL     OW80768   0.718  10.443   6.947  0.7400  0.0181  0.1654
26254SOL    HW180769   0.770  10.457   7.026  1.7312  0.1705 -0.4867
26254SOL    HW280770   0.703  10.532   6.913  1.4169 -0.0966 -0.4792
26255SOL     OW80771   7.298   1.465   3.655 -0.2467 -0.1211  0.0309
26255SOL    HW180772   7.249   1.547   3.656  0.6751  0.4686 -0.8817
26255SOL    HW280773   7.389   1.491   3.638 -0.1337 -1.4171 -1.6314
26256SOL     OW80774  10.969   8.894  10.968 -0.2343 -0.1606  0.3182
26256SOL    HW180775  11.011   8.914  11.051  0.3849 -0.9240  0.1940
26256SOL    HW280776  10.954   8.980  10.928  1.2899  0.1356  0.3335
26257SOL     OW80777   7.190   5.053   5.708  0.2415 -0.4424  0.1733
26257SOL    HW180778   7.278   5.091   5.705 -0.1740  0.4928 -0.7833
26257SOL    HW280779   7.200   4.968   5.664  0.9223 -0.9423  1.2417
26258SOL     OW80780   2.983   4.364   6.406  0.3159 -0.3360  0.6615
26258SOL    HW180781   2.997   4.286   6.351 -1.3753 -1.5148  1.7871
26258SOL    HW280782   3.024   4.342   6.489 -2.3279 -1.1983  1.8516
26259SOL     OW80783   7.193   7.869   2.957  0.1054  0.0882  0.0974
26259SOL    HW180784   7.122   7.850   2.896  0.5819  1.1756 -0.8300
26259SOL    HW280785   7.251   7.793   2.951 -0.7957 -0.6743  0.6458
26260SOL     OW80786   2.163   0.827   4.512  0.6043 -0.2768 -0.3156
26260SOL    HW180787   2.156   0.733   4.497  0.1686 -0.4858  1.0711
26260SOL    HW280788   2.101   0.866   4.450  1.4216 -0.8272 -1.5065
26261SOL     OW80789   9.945   5.076   5.045 -0.1920 -0.5037  0.1714
26261SOL    HW180790   9.883   5.010   5.074 -0.6528  0.2576  0.9807
26261SOL    HW280791   9.897   5.159   5.052  0.7265  0.0357  0.2844
26262SOL     OW80792   6.619   4.802   3.465  0.4332 -0.3233  0.3428
26262SOL    HW180793   6.625   4.826   3.557  1.2757 -2.2999  0.8584
26262SOL    HW280794   6.530   4.768   3.455  0.0405  0.7235  0.1869
26263SOL     OW80795   5.061   5.041   0.750 -0.3457  0.7166 -0.2127
26263SOL    HW180796   5.152   5.042   0.722 -0.2015  1.6918  0.2641
26263SOL    HW280797   5.012   5.019   0.670  0.3445 -0.6999 -0.2776
26264SOL     OW80798   5.775   2.148   9.558 -0.1825  0.3412  0.7176
26264SOL    HW180799   5.714   2.183   9.623  0.2207 -0.2373  1.4189
26264SOL    HW280800   5.718   2.105   9.493 -0.5085 -1.0055  1.8465
26265SOL     OW80801   4.768   4.691   3.512  0.1698 -0.3619  0.0971
26265SOL    HW180802   4.716   4.700   3.592  1.2514 -1.5253  0.9545
26265SOL    HW280803   4.824   4.615   3.528  2.8471  1.3932 -0.3970
26266SOL     OW80804   8.065   1.439   5.512  0.2930  0.4784 -0.2719
26266SOL    HW180805   8.009   1.406   5.442 -4.0137  1.2023  2.4258
26266SOL    HW280806   8.094   1.525   5.482  0.6433 -0.2369 -2.0812
26267SOL     OW80807   4.522   6.353   4.043  0.8158 -0.3599  0.1568
26267SOL    HW180808   4.530   6.344   4.138 -1.4271 -1.8763  0.2799
26267SOL    HW280809   4.489   6.268   4.013  0.6846  0.3454 -1.8731
26268SOL     OW80810   7.642  10.389   8.035  0.4036  0.0446 -0.0629
26268SOL    HW180811   7.674  10.304   8.005 -1.3329 -0.0806 -1.7044
26268SOL    HW280812   7.566  10.408   7.980 -0.3110  1.8693  1.4187
26269SOL     OW80813   7.870   8.183   9.771 -0.4063 -0.2485  0.3384
26269SOL    HW180814   7.963   8.165   9.755 -0.2390 -0.4196  1.3923
26269SOL    HW280815   7.841   8.231   9.694  1.1107  1.7363  0.8906
26270SOL     OW80816   2.215   4.343  10.964  0.2276 -0.0327 -0.2611
26270SOL    HW180817   2.153   4.288  11.014  0.6451 -0.6237 -0.3854
26270SOL    HW280818   2.205   4.314  10.874  1.7627 -1.2004 -0.0909
26271SOL     OW80819  10.946   3.263   8.083  0.3249  0.1946  0.6283
26271SOL    HW180820  11.027   3.234   8.042 -0.3380 -0.8189 -0.0124
26271SOL    HW280821  10.950   3.359   8.080  1.0891  0.1435 -0.1916
26272SOL     OW80822   8.491   0.064   8.940  0.0635  0.2346 -0.5551
26272SOL    HW180823   8.447   0.081   8.857 -2.4484 -1.0116  0.4100
26272SOL    HW280824   8.500   0.150   8.980 -2.8563  0.5082 -0.2449
26273SOL     OW80825   3.352   0.998   4.238 -0.9901  0.8654 -0.0889
26273SOL    HW180826   3.322   0.972   4.151 -1.5689  1.2545 -0.0145
26273SOL    HW280827   3.303   0.942   4.298  0.4845 -0.4268 -0.0506
26274SOL     OW80828   1.948   7.043  10.012  0.1363 -0.1517  0.5060
26274SOL    HW180829   2.012   7.042   9.941 -0.0538  1.4073  0.2600
26274SOL    HW280830   1.976   7.115  10.069 -2.2369  1.7126 -0.4957
26275SOL     OW80831   9.895   0.042   8.894 -0.2271  0.4468 -0.0975
26275SOL    HW180832   9.809   0.024   8.856  0.1246 -1.3093 -0.1289
26275SOL    HW280833   9.933  -0.044   8.912  1.7574  1.1579 -0.5726
26276SOL     OW80834   7.222   3.120   8.522 -0.0950 -0.1607  0.2663
26276SOL    HW180835   7.205   3.209   8.491 -1.4852 -0.4942 -0.0039
26276SOL    HW280836   7.209   3.125   8.617 -0.0939 -0.0547  0.2614
26277SOL     OW80837   8.414   3.271   7.900  0.4619 -0.5372  0.4570
26277SOL    HW180838   8.437   3.182   7.873 -1.7130 -1.5347  1.6681
26277SOL    HW280839   8.457   3.283   7.984  0.3015 -0.6479  0.5542
26278SOL     OW80840   9.348   5.093   2.436 -0.4059  0.0255 -0.2346
26278SOL    HW180841   9.337   5.134   2.522  1.1060  0.1923 -0.0864
26278SOL    HW280842   9.310   5.155   2.374 -2.0395 -0.3569  0.3362
26279SOL     OW80843   8.888   6.473   5.927  0.4235 -0.3027 -0.0966
26279SOL    HW180844   8.965   6.422   5.903  0.0700  0.1177 -2.2649
26279SOL    HW280845   8.873   6.531   5.853 -0.0375  1.9959  1.6688
26280SOL     OW80846   4.113   9.827   7.002 -0.6460  0.2842 -0.2213
26280SOL    HW180847   4.065   9.750   7.033  0.2565 -0.3168 -0.2785
26280SOL    HW280848   4.084   9.838   6.912 -1.8803  0.9143  0.2240
26281SOL     OW80849   9.761   3.654   7.689 -0.4205  0.5451  0.5503
26281SOL    HW180850   9.825   3.711   7.732  0.1952  0.6021 -0.4070
26281SOL    HW280851   9.757   3.686   7.599  0.6547 -1.4717 -0.2989
26282SOL     OW80852   8.409   5.275   8.800  0.0744  0.1625 -0.5492
26282SOL    HW180853   8.362   5.222   8.864 -1.2130  2.8264  0.9088
26282SOL    HW280854   8.341   5.310   8.743  0.7159  1.1126 -0.7658
26283SOL     OW80855   0.350   7.759   9.799 -0.0132  0.1208  0.3861
26283SOL    HW180856   0.300   7.807   9.732  0.0204  0.5612  0.6757
26283SOL    HW280857   0.377   7.678   9.755  1.1822  1.0066 -0.5908
26284SOL     OW80858   9.646   2.840   7.048 -0.0621  0.1947 -0.3209
26284SOL    HW180859   9.702   2.915   7.030 -0.9774  1.0414  0.2340
26284SOL    HW280860   9.644   2.833   7.144 -0.7451  0.0566 -0.3384
26285SOL     OW80861  10.646  10.371   0.821 -0.0605 -0.1560  0.0542
26285SOL    HW180862  10.713  10.436   0.803  0.2186 -0.5280 -0.2466
26285SOL    HW280863  10.684  10.288   0.794  0.0516 -0.6203  1.5505
26286SOL     OW80864   6.885   4.484   0.885 -0.0378 -0.7366 -0.1411
26286SOL    HW180865   6.816   4.528   0.935 -0.3707 -0.1750 -1.0670
26286SOL    HW280866   6.942   4.556   0.856  0.5159 -1.1235 -0.0126
26287SOL     OW80867   5.535   2.435  10.395 -0.1465  0.4481 -0.0302
26287SOL    HW180868   5.606   2.438  10.459 -0.9709 -0.9390  1.0232
26287SOL    HW280869   5.578   2.435  10.310  1.0527  0.7574  0.5642
26288SOL     OW80870   7.635   9.458   4.639  0.3398  0.2502  0.1266
26288SOL    HW180871   7.575   9.387   4.615  0.6058  0.5552 -1.5146
26288SOL    HW280872   7.682   9.479   4.559  0.5603  2.0224  0.6668
26289SOL     OW80873   2.978   9.536   3.570 -0.6096 -0.0212 -0.3069
26289SOL    HW180874   2.883   9.549   3.568 -0.6596 -0.4918 -2.1577
26289SOL    HW280875   3.013   9.624   3.587 -1.3147  0.7022 -2.2798
26290SOL     OW80876   8.990   9.327   6.801 -0.0591 -0.1116  0.2464
26290SOL    HW180877   8.991   9.256   6.737 -0.1302  0.8684 -0.8752
26290SOL    HW280878   8.967   9.285   6.884  2.6485 -1.8795  0.2369
26291SOL     OW80879   2.389   1.483   3.832  0.3651 -0.5324  0.1295
26291SOL    HW180880   2.473   1.469   3.875  0.7152 -1.6443 -0.8518
26291SOL    HW280881   2.370   1.399   3.789 -0.5121  0.1667 -0.9080
26292SOL     OW80882   6.019   2.010   3.251 -0.2632  0.7402  0.1571
26292SOL    HW180883   6.087   2.043   3.309 -0.4069  0.9279  0.2195
26292SOL    HW280884   6.061   2.004   3.165  1.2187 -3.4006  0.9560
26293SOL     OW80885   1.295   4.140   7.588 -0.1583 -0.4359 -0.2709
26293SOL    HW180886   1.346   4.185   7.656 -0.6102  0.0269 -0.2312
26293SOL    HW280887   1.344   4.060   7.571  0.6320  0.0363 -0.2916
26294SOL     OW80888   3.033   0.085   3.217 -0.4085 -0.3546  0.5202
26294SOL    HW180889   3.048   0.006   3.268  1.6301 -0.2111  0.1981
26294SOL    HW280890   3.086   0.074   3.138 -0.1277  1.3015  0.4414
26295SOL     OW80891   2.136   9.460   8.137 -0.6543  0.0155 -0.1480
26295SOL    HW180892   2.055   9.419   8.108 -2.1868  1.7764  1.3319
26295SOL    HW280893   2.172   9.399   8.201  0.2284 -1.6252 -2.1004
26296SOL     OW80894   8.602   1.845   6.212  0.5574  0.3876 -0.0123
26296SOL    HW180895   8.582   1.765   6.260  1.4741  0.1145 -0.0583
26296SOL    HW280896   8.518   1.890   6.204 -0.8210 -2.2631 -3.1840
26297SOL     OW80897   4.663   8.665  10.894 -0.1747 -0.4206 -0.0594
26297SOL    HW180898   4.750   8.670  10.855 -0.4762 -0.0898 -0.7197
26297SOL    HW280899   4.604   8.664  10.818 -0.8954  2.3931  0.3708
26298SOL     OW80900   8.065   9.912   5.217 -0.5764 -0.3314  0.5172
26298SOL    HW180901   8.116   9.890   5.295 -0.6690 -1.3533  0.3009
26298SOL    HW280902   7.978   9.876   5.235  0.1088 -3.1138 -1.1758
26299SOL     OW80903   5.355   3.617   0.082  0.0726 -0.2569  0.6490
26299SOL    HW180904   5.280   3.669   0.113  0.5334  1.3629 -0.7620
26299SOL    HW280905   5.403   3.677   0.024  1.5677 -1.7756  0.2337
26300SOL     OW80906   0.838   4.271   5.268  0.4063 -0.4980  0.4511
26300SOL    HW180907   0.784   4.207   5.314 -1.1952  1.1584  1.0201
26300SOL    HW280908   0.789   4.353   5.275  3.4450  1.4097  1.9137
26301SOL     OW80909   1.382   2.534   6.374  0.2092  0.6146 -0.3396
26301SOL    HW180910   1.382   2.544   6.469 -1.6788  1.4662 -0.3771
26301SOL    HW280911   1.371   2.440   6.359  1.5009  0.3534  0.2472
26302SOL     OW80912   8.442   1.026  10.668  0.0959  0.2619 -0.8179
26302SOL    HW180913   8.375   1.031  10.601 -1.0310 -2.1069  0.0385
26302SOL    HW280914   8.400   0.982  10.742  1.9710  0.6374  0.5759
26303SOL     OW80915   3.236   3.350   5.709  0.6351  0.0650  0.1284
26303SOL    HW180916   3.153   3.318   5.673 -0.3284  1.1375  1.2703
26303SOL    HW280917   3.254   3.293   5.783  0.7705  0.0114  0.0553
26304SOL     OW80918   6.492   6.065   7.416 -0.0531 -0.1337 -0.1438
26304SOL    HW180919   6.479   6.085   7.509 -2.2231 -1.1560 -0.1607
26304SOL    HW280920   6.416   6.104   7.373  1.0656  0.5711 -1.5707
26305SOL     OW80921   9.928   7.805   1.631 -0.0700 -0.0745  0.1944
26305SOL    HW180922   9.971   7.781   1.713  1.5310  0.1537 -0.5430
26305SOL    HW280923   9.982   7.876   1.595 -0.1660 -0.8214 -1.5248
26306SOL     OW80924   0.961   8.062   5.912 -0.8343 -0.1515 -0.0646
26306SOL    HW180925   1.053   8.081   5.893 -0.6917  0.7669  1.4093
26306SOL    HW280926   0.948   7.973   5.879  0.4154 -0.0858 -0.8037
26307SOL     OW80927   9.013   6.698   8.549 -0.1136  0.3136 -0.0365
26307SOL    HW180928   8.931   6.746   8.542 -0.5749 -0.6937 -2.7382
26307SOL    HW280929   8.987   6.609   8.573 -0.5358 -1.2535 -5.0741
26308SOL     OW80930   0.400   2.400   3.982  0.5888 -0.2865 -0.7769
26308SOL    HW180931   0.368   2.362   3.900 -0.4464  1.2159 -1.1152
26308SOL    HW280932   0.364   2.489   3.983  0.7188 -0.2051  1.2382
26309SOL     OW80933   8.735   0.452   9.565  0.0513  0.1344 -0.4404
26309SOL    HW180934   8.760   0.485   9.651  0.9599  0.6517 -0.8896
26309SOL    HW280935   8.817   0.425   9.524 -0.0651  1.8303 -1.9310
26310SOL     OW80936   0.184   7.078   8.880 -0.0607 -0.8796 -0.1659
26310SOL    HW180937   0.247   7.081   8.952  0.5134 -1.1214 -0.6489
26310SOL    HW280938   0.141   7.163   8.883  1.2439 -0.1651 -0.6485
26311SOL     OW80939   9.554  10.464   7.651  0.3950  0.2054  0.3675
26311SOL    HW180940   9.481  10.403   7.643  2.0704 -1.7197 -1.5118
26311SOL    HW280941   9.523  10.543   7.605  0.3680 -1.5892 -3.0565
26312SOL     OW80942   3.708   6.393   5.817  0.0978  0.3134 -0.2473
26312SOL    HW180943   3.705   6.488   5.824 -1.0180  0.2610  0.1609
26312SOL    HW280944   3.729   6.362   5.905  0.4629  0.1799 -0.3790
26313SOL     OW80945   6.916   5.351   2.895  0.0313  0.3482 -0.1873
26313SOL    HW180946   6.896   5.428   2.842  1.3655  2.0822  1.6732
26313SOL    HW280947   6.999   5.319   2.861 -0.1183  0.2250 -0.4374
26314SOL     OW80948   6.366   3.313   0.772  0.2694 -0.3608  0.4155
26314SOL    HW180949   6.436   3.282   0.714 -0.2444 -0.5818 -0.0941
26314SOL    HW280950   6.301   3.351   0.713 -0.7351 -1.5038  0.7443
26315SOL     OW80951  10.124   9.416   0.259 -0.2129  0.3081  0.1437
26315SOL    HW180952  10.089   9.448   0.176 -0.0926 -0.1541 -0.0918
26315SOL    HW280953  10.068   9.456   0.325 -0.3922  0.5795 -0.1658
26316SOL     OW80954   9.557   2.700  10.649  0.1491 -0.0030 -0.2817
26316SOL    HW180955   9.534   2.649  10.572  0.6621 -1.5776  0.5693
26316SOL    HW280956   9.483   2.689  10.708  1.3388 -2.0254  0.9618
26317SOL     OW80957   3.370   7.559   9.918 -0.0386 -0.2309 -0.0680
26317SOL    HW180958   3.406   7.471   9.909  0.1743 -0.2500  0.9076
26317SOL    HW280959   3.444   7.617   9.903 -0.0405 -0.2312 -0.0785
26318SOL     OW80960   7.761   1.514  10.376  0.8049 -0.3025  0.5799
26318SOL    HW180961   7.781   1.605  10.395 -0.2852  0.2425 -0.7426
26318SOL    HW280962   7.841   1.466  10.400  2.0538  1.2105 -0.4124
26319SOL     OW80963   8.546   2.449   7.012 -0.1178  0.3651 -0.8117
26319SOL    HW180964   8.551   2.530   6.961  1.5418  0.2248 -0.9280
26319SOL    HW280965   8.634   2.412   7.007 -0.0392  0.0490  1.7188
26320SOL     OW80966   7.060   4.803  10.534 -0.3078 -0.6235  0.0858
26320SOL    HW180967   7.131   4.839  10.587  0.5536  0.7880 -1.8872
26320SOL    HW280968   7.103   4.772  10.454 -1.7389 -1.0527 -0.5511
26321SOL     OW80969   3.608   2.765   8.417  0.2017 -0.1689 -0.1077
26321SOL    HW180970   3.690   2.755   8.368  1.2940  1.8688  1.1719
26321SOL    HW280971   3.599   2.859   8.430 -1.4017 -0.4724  1.3995
26322SOL     OW80972   4.045   1.175   0.023  0.3128 -0.2300  0.4299
26322SOL    HW180973   4.016   1.262  -0.003  1.9907  0.2442  0.0235
26322SOL    HW280974   3.994   1.115  -0.031  0.9790  0.6125 -1.1990
26323SOL     OW80975  10.255   6.678   8.479 -0.1345 -0.5093 -0.2388
26323SOL    HW180976  10.236   6.589   8.508  0.9854 -0.8087 -0.3794
26323SOL    HW280977  10.344   6.674   8.444 -0.5669  0.3741 -1.5129
26324SOL     OW80978  10.192   0.112   9.419 -0.1802  0.4689 -0.3228
26324SOL    HW180979  10.136   0.177   9.377  0.1725  0.3603 -0.9718
26324SOL    HW280980  10.133   0.039   9.440 -0.4902  0.8075  0.0143
26325SOL     OW80981  10.248   5.925   1.623  0.0777  0.1804 -0.2337
26325SOL    HW180982  10.212   5.983   1.555  2.0446 -0.7384 -2.2018
26325SOL    HW280983  10.278   5.848   1.575  0.6011 -1.0100  1.8719
26326SOL     OW80984   4.178   0.915   5.581 -0.5113  0.2837  0.0043
26326SOL    HW180985   4.264   0.937   5.545 -0.7138 -0.2042 -0.7880
26326SOL    HW280986   4.130   0.875   5.508 -0.8506 -0.9211  0.8537
26327SOL     OW80987   8.548   4.506   9.946 -0.0790 -0.2797 -0.1739
26327SOL    HW180988   8.585   4.561  10.015 -0.2990 -0.4368  0.0731
26327SOL    HW280989   8.618   4.498   9.881  1.3455 -2.7645  1.5101
26328SOL     OW80990   2.640   1.683   9.304  0.3342  0.1991 -0.1174
26328SOL    HW180991   2.591   1.608   9.337  1.7401 -0.6255  0.1894
26328SOL    HW280992   2.631   1.678   9.208  1.0098 -0.7858 -0.1332
26329SOL     OW80993   4.793   9.651   1.861 -0.6346 -0.2958  0.6403
26329SOL    HW180994   4.734   9.575   1.862 -1.6006  0.4397  2.5331
26329SOL    HW280995   4.824   9.659   1.951  0.2628  0.9568  0.2445
26330SOL     OW80996   1.030   9.894   9.318 -0.1561  0.6645 -0.4213
26330SOL    HW180997   1.124   9.891   9.301 -0.3471  0.0409 -1.4719
26330SOL    HW280998   1.019   9.964   9.382  1.1472 -0.0281  0.6050
26331SOL     OW80999  10.627   2.090   4.822 -0.1878 -0.2859  0.2394
26331SOL    HW181000  10.688   2.156   4.789  0.4499 -1.3666 -0.8570
26331SOL    HW281001  10.594   2.046   4.743  0.6679 -2.3476  0.9452
26332SOL     OW81002   9.056   6.600  10.580  0.2955 -0.6630 -0.1761
26332SOL    HW181003   9.096   6.562  10.658  0.7437 -0.4417 -0.2937
26332SOL    HW281004   9.109   6.678  10.562 -0.9372  0.3557  0.4041
26333SOL     OW81005   9.806   4.601   5.885 -0.0457 -0.2791  0.6589
26333SOL    HW181006   9.861   4.540   5.933 -0.6800 -0.2637  1.4260
26333SOL    HW281007   9.779   4.553   5.807  1.6413 -0.0311 -0.1344
26334SOL     OW81008  11.022  10.984   7.224  0.6444 -0.2015  0.2960
26334SOL    HW181009  10.973  10.902   7.223  0.6135 -0.1879  0.5683
26334SOL    HW281010  11.062  10.987   7.311 -1.3732  1.2575  1.2741
26335SOL     OW81011   2.511   9.876   2.031  0.0890  0.1162 -0.2185
26335SOL    HW181012   2.445   9.943   2.015  0.5402  0.3952 -0.9447
26335SOL    HW281013   2.555   9.864   1.946 -0.6797 -1.8481 -0.4005
26336SOL     OW81014   5.647   8.419   6.520 -0.3530 -0.1507 -0.2978
26336SOL    HW181015   5.676   8.336   6.558  0.6707 -0.9184 -2.5842
26336SOL    HW281016   5.667   8.484   6.587  4.1239 -1.0173 -0.4707
26337SOL     OW81017  10.820   2.180   9.570  0.0253 -0.1684  0.2924
26337SOL    HW181018  10.859   2.237   9.636 -2.3267  2.0431 -0.0936
26337SOL    HW281019  10.874   2.193   9.492  0.5810  0.0997  0.7138
26338SOL     OW81020   3.577   8.022   5.722 -0.1172  0.0115 -0.1478
26338SOL    HW181021   3.542   7.940   5.755  1.8390 -0.6289  0.4489
26338SOL    HW281022   3.646   8.046   5.784  0.4880  1.2133 -1.2333
26339SOL     OW81023  10.236   9.395   1.152  0.0645  0.5247 -0.0092
26339SOL    HW181024  10.268   9.481   1.126 -0.4522  0.1710 -1.9333
26339SOL    HW281025  10.312   9.338   1.147  0.3597  0.7973  1.0620
26340SOL     OW81026   2.643   2.848   2.228 -0.2554  0.0997 -0.0709
26340SOL    HW181027   2.707   2.919   2.232  1.0645 -0.9647 -1.1811
26340SOL    HW281028   2.617   2.844   2.136  0.1602 -1.2283 -0.1574
26341SOL     OW81029   0.677   9.656   9.859 -0.3244 -0.4722 -0.5117
26341SOL    HW181030   0.725   9.739   9.856 -1.4687  0.4125  2.4220
26341SOL    HW281031   0.740   9.593   9.893 -0.0048 -0.3707 -0.9053
26342SOL     OW81032  10.861   0.504   6.907 -0.2919 -0.7310 -0.1385
26342SOL    HW181033  10.839   0.447   6.834 -1.2393 -0.7585  0.1589
26342SOL    HW281034  10.777   0.537   6.938  0.1381 -0.3409  0.6369
26343SOL     OW81035   4.185   3.394   6.415 -0.3305  0.5972 -0.6258
26343SOL    HW181036   4.262   3.424   6.463  1.5137 -2.4983 -1.4155
26343SOL    HW281037   4.157   3.471   6.364  0.2719  2.6854  1.9653
26344SOL     OW81038   2.980   9.490   0.691 -0.9378 -0.1318 -0.3346
26344SOL    HW181039   2.969   9.396   0.700 -0.4280 -0.1586  0.0241
26344SOL    HW281040   3.045   9.500   0.621 -2.7607  0.0174 -2.0950
26345SOL     OW81041   5.682   0.236   0.008 -0.2839  0.2518 -0.0937
26345SOL    HW181042   5.709   0.291   0.081  0.7955  1.4683 -1.3657
26345SOL    HW281043   5.639   0.296  -0.053  1.1543 -0.2265 -1.6246
26346SOL     OW81044   7.130   3.804   8.008  0.3605 -0.1373 -0.0201
26346SOL    HW181045   7.132   3.893   8.045  0.7991  0.3027 -1.0698
26346SOL    HW281046   7.178   3.751   8.071 -0.2581  0.2804  0.8299
26347SOL     OW81047   5.694   9.417   9.239 -0.1687  0.2906 -0.1740
26347SOL    HW181048   5.697   9.328   9.204  1.9922  0.8349 -1.5495
26347SOL    HW281049   5.692   9.406   9.334 -0.5776 -1.2089 -0.3351
26348SOL     OW81050   4.296   8.439   0.864 -0.0150 -0.3451 -0.2530
26348SOL    HW181051   4.349   8.384   0.807 -2.4976 -3.0693 -0.1521
26348SOL    HW281052   4.295   8.393   0.948 -2.2397 -0.2880 -0.1811
26349SOL     OW81053   5.128   6.670   9.407 -0.0116  0.6314  0.5074
26349SOL    HW181054   5.165   6.744   9.454  0.4566  0.3387  0.6013
26349SOL    HW281055   5.161   6.593   9.454  0.2711  0.3445 -0.1590
26350SOL     OW81056   1.583   8.421   3.073 -0.5252 -0.6466 -0.3042
26350SOL    HW181057   1.498   8.432   3.115 -1.6791  0.1201 -2.6555
26350SOL    HW281058   1.577   8.336   3.028  0.5595 -1.3151  0.7753
26351SOL     OW81059   6.527   8.359  10.192 -0.0658  0.1956  0.3601
26351SOL    HW181060   6.452   8.411  10.221 -0.9933 -0.3066 -1.0451
26351SOL    HW281061   6.554   8.398  10.109 -0.5611 -1.3164 -0.5546
26352SOL     OW81062   8.277   6.213   4.450 -0.5249 -0.5920 -0.1821
26352SOL    HW181063   8.221   6.225   4.527 -1.0490 -0.0250 -0.6409
26352SOL    HW281064   8.296   6.302   4.420 -1.0129 -0.8153 -1.1903
26353SOL     OW81065   1.945   6.360   8.990 -1.0068 -0.5374 -0.3516
26353SOL    HW181066   1.878   6.300   9.023  0.5846 -1.0833  2.1797
26353SOL    HW281067   1.978   6.317   8.911 -1.4400 -1.8904  0.1664
26354SOL     OW81068   0.414   2.337   5.841 -0.5460 -0.2049 -0.0824
26354SOL    HW181069   0.426   2.343   5.746 -3.0600 -1.3558 -0.5567
26354SOL    HW281070   0.492   2.290   5.872  0.3150  0.1888 -1.5592
26355SOL     OW81071   3.819   5.455   2.568  0.4724  0.0438 -0.4005
26355SOL    HW181072   3.826   5.422   2.478 -0.8889 -2.1259  0.2241
26355SOL    HW281073   3.908   5.482   2.591  0.8071  0.9365 -2.4575
26356SOL     OW81074   0.668  10.027   6.164 -0.4763 -0.3078  0.4720
26356SOL    HW181075   0.612   9.977   6.223  0.0518 -2.0773 -0.4394
26356SOL    HW281076   0.753  10.032   6.209 -0.0774 -1.6464 -0.0894
26357SOL     OW81077   5.654  10.375   6.992 -0.0548 -0.1295 -0.1098
26357SOL    HW181078   5.644  10.421   6.909 -0.8664 -0.2106 -0.0624
26357SOL    HW281079   5.663  10.445   7.057  0.3610 -0.0635 -0.2347
26358SOL     OW81080   2.577   9.147   2.915 -0.0288  0.2461  0.2171
26358SOL    HW181081   2.585   9.075   2.853 -0.8467  1.9650 -2.0697
26358SOL    HW281082   2.534   9.109   2.991 -0.6720 -1.6199 -1.0055
26359SOL     OW81083  10.357   5.694   7.741 -0.3256 -0.2915 -0.5001
26359SOL    HW181084  10.429   5.630   7.750 -1.7119 -1.6901  1.6835
26359SOL    HW281085  10.287   5.658   7.795 -1.0853  3.2862  1.1494
26360SOL     OW81086   2.161   9.308   6.990  0.0087 -0.1079 -0.0442
26360SOL    HW181087   2.166   9.316   6.895 -0.8336  0.4342 -0.0453
26360SOL    HW281088   2.207   9.385   7.023  0.4890 -0.4051  0.0000
26361SOL     OW81089   7.329   3.399   5.949  0.2677  0.0870  0.6123
26361SOL    HW181090   7.284   3.463   5.894  2.1070  0.4276 -0.5923
26361SOL    HW281091   7.327   3.438   6.037 -3.0283 -0.6406  1.0021
26362SOL     OW81092   9.214   6.633   5.923  0.1042 -0.0730  0.0443
26362SOL    HW181093   9.216   6.539   5.938 -0.3994  0.0902  1.2030
26362SOL    HW281094   9.300   6.664   5.953 -0.4866  0.1004  1.6153
26363SOL     OW81095   0.874   3.364  10.619 -0.7694  0.1970  0.1895
26363SOL    HW181096   0.786   3.341  10.647 -0.9688 -0.4417 -0.9296
26363SOL    HW281097   0.931   3.325  10.686 -1.1048 -3.3472 -1.3426
26364SOL     OW81098   0.843  10.990   1.755 -0.2959  0.4882 -0.1440
26364SOL    HW181099   0.783  10.931   1.710 -0.8037  0.8367  0.0611
26364SOL    HW281100   0.800  11.009   1.838  0.3423  0.3375  0.2315
26365SOL     OW81101   9.411   3.952   6.062  0.1181 -0.0673 -0.2150
26365SOL    HW181102   9.345   3.976   5.997 -1.8636  0.6734  1.8911
26365SOL    HW281103   9.417   3.857   6.057 -2.2198 -0.3140  0.4225
26366SOL     OW81104   0.013   7.522   5.972  0.0023 -0.4572 -0.0285
26366SOL    HW181105   0.012   7.601   6.027 -0.9079  0.1253 -0.8461
26366SOL    HW281106  -0.031   7.549   5.891  2.7921 -0.7800 -1.7873
26367SOL     OW81107   0.738   0.971   2.516 -0.0157  0.0089  0.0952
26367SOL    HW181108   0.759   0.878   2.517  3.3334  0.6380  1.0633
26367SOL    HW281109   0.787   1.006   2.441  0.8603  1.3073  1.2062
26368SOL     OW81110   4.042   0.615   6.980 -0.6208  0.0786  0.4832
26368SOL    HW181111   4.091   0.673   6.922  0.0834 -1.1421 -0.1902
26368SOL    HW281112   4.102   0.542   6.997 -1.0835  0.0379  2.1701
26369SOL     OW81113   4.461   0.574   5.510 -0.0771  0.1507  0.8302
26369SOL    HW181114   4.556   0.569   5.517 -0.0502  0.1626  0.5132
26369SOL    HW281115   4.429   0.572   5.600  0.2509  0.6804  0.9607
26370SOL     OW81116   5.554   7.412   4.567  0.5705  0.0748  0.2677
26370SOL    HW181117   5.619   7.371   4.624  0.8252 -1.1186 -0.8375
26370SOL    HW281118   5.471   7.372   4.592  0.6857 -0.4665 -0.1798
26371SOL     OW81119   8.112   4.222   8.536  0.5137 -0.0102  0.1322
26371SOL    HW181120   8.071   4.260   8.614 -0.1923  0.8182 -0.6175
26371SOL    HW281121   8.051   4.155   8.507  1.5181 -1.4422  1.1573
26372SOL     OW81122   3.359  11.024   2.761 -0.4171 -0.2876  0.4890
26372SOL    HW181123   3.450  11.050   2.748 -0.6289 -0.0845 -0.6896
26372SOL    HW281124   3.317  11.040   2.677 -1.3917 -1.0311  0.8123
26373SOL     OW81125   6.438   5.366   2.056  0.1170  0.4701 -0.3913
26373SOL    HW181126   6.527   5.400   2.069  0.1582 -0.0938  0.9612
26373SOL    HW281127   6.388   5.403   2.128 -0.3990 -0.4127 -0.2874
26374SOL     OW81128   5.124   6.440  10.901 -0.5382 -0.3977  0.0039
26374SOL    HW181129   5.139   6.519  10.848 -2.6144 -1.6488 -2.7243
26374SOL    HW281130   5.066   6.469  10.971 -1.2198  0.5501 -0.9086
26375SOL     OW81131   7.152   1.871   9.486 -0.1952 -0.1894 -0.1477
26375SOL    HW181132   7.157   1.830   9.572 -1.7009  1.6982  0.9115
26375SOL    HW281133   7.169   1.964   9.502  1.1352 -0.0294 -2.1499
26376SOL     OW81134  10.363   0.950   3.123 -0.2260 -0.3298 -0.3689
26376SOL    HW181135  10.442   0.975   3.171 -0.0307 -2.9648  0.9176
26376SOL    HW281136  10.299   0.930   3.192 -1.1342 -0.7721 -1.3162
26377SOL     OW81137   1.528   2.088   5.408  0.0181  0.3626  0.0315
26377SOL    HW181138   1.585   2.040   5.347 -0.6706 -1.1119  0.4964
26377SOL    HW281139   1.499   2.164   5.358  2.9067  1.5458  0.0208
26378SOL     OW81140   9.364   9.510   2.314 -0.3057 -0.0586  0.2422
26378SOL    HW181141   9.403   9.536   2.231 -0.9987 -2.3344 -0.8907
26378SOL    HW281142   9.431   9.454   2.355  0.2079  1.3952  1.4733
26379SOL     OW81143   6.764   3.578   4.946 -0.2488  0.3128  0.3906
26379SOL    HW181144   6.796   3.662   4.980 -0.9718  0.4848  0.6551
26379SOL    HW281145   6.697   3.602   4.882  1.0128 -0.0083 -1.1028
26380SOL     OW81146  10.334   2.020   8.526 -0.2565  0.7712 -0.1316
26380SOL    HW181147  10.254   2.024   8.473  0.3401  0.8610 -1.0616
26380SOL    HW281148  10.395   1.970   8.472  0.0913  0.0595  0.8931
26381SOL     OW81149   9.657   3.486   9.182  0.0059 -0.0947 -0.1849
26381SOL    HW181150   9.669   3.399   9.143 -0.7969 -0.7351  0.9517
26381SOL    HW281151   9.577   3.478   9.234  0.2371  1.1651  0.3897
26382SOL     OW81152   8.064   3.903   9.506 -0.5573  0.1185  0.1235
26382SOL    HW181153   8.126   3.914   9.577 -0.2985 -0.8911  0.0572
26382SOL    HW281154   7.994   3.965   9.526 -1.3898 -1.4084  2.2537
26383SOL     OW81155   9.865   3.601  10.184  0.4643  0.6678 -0.5585
26383SOL    HW181156   9.848   3.521  10.134 -0.0505 -0.1288  0.8561
26383SOL    HW281157   9.800   3.663  10.152 -0.2287 -0.0060 -0.4785
26384SOL     OW81158   0.716   3.622   7.599 -0.0517 -0.3147 -0.5490
26384SOL    HW181159   0.739   3.529   7.596 -1.7105 -0.7569 -0.6674
26384SOL    HW281160   0.718   3.650   7.507 -0.2912 -0.4314 -0.5904
26385SOL     OW81161   9.806   7.914  10.238  0.5036  0.3187  0.1545
26385SOL    HW181162   9.732   7.861  10.211 -0.0498  1.7650 -1.3319
26385SOL    HW281163   9.851   7.861  10.303 -2.6104 -0.0646  2.2307
26386SOL     OW81164   1.034   0.807  10.528  0.1178 -0.2978 -0.1112
26386SOL    HW181165   1.057   0.715  10.512 -1.7699 -0.8541  0.0313
26386SOL    HW281166   0.944   0.803  10.560  0.4603  1.5265  1.2250
26387SOL     OW81167   4.126  10.490   7.969  0.0482 -0.1820 -0.0097
26387SOL    HW181168   4.131  10.399   7.941 -0.6408 -0.7448  1.5860
26387SOL    HW281169   4.154  10.541   7.893  0.7046 -1.7325 -0.8310
26388SOL     OW81170   7.331   2.928   7.037  0.3437  0.0380 -0.4054
26388SOL    HW181171   7.280   2.850   7.060  0.4575  0.0892  0.0414
26388SOL    HW281172   7.278   3.001   7.071  0.2691  0.1505 -0.7644
26389SOL     OW81173   7.286   0.588   6.105 -0.3290  0.2511 -0.0759
26389SOL    HW181174   7.262   0.555   6.191 -0.3113 -1.6394 -0.7373
26389SOL    HW281175   7.202   0.598   6.059 -0.2311 -1.0881 -0.5977
26390SOL     OW81176   6.796   9.244   6.761  0.1122  0.0845 -0.1555
26390SOL    HW181177   6.844   9.182   6.706  0.1853  0.3100 -0.3509
26390SOL    HW281178   6.705   9.234   6.735  0.2698  1.0070 -1.1642
26391SOL     OW81179   4.432   1.928   6.148 -0.8897  0.6210 -0.1370
26391SOL    HW181180   4.361   1.865   6.139 -0.7756  0.7727 -2.7843
26391SOL    HW281181   4.430   1.979   6.067  2.0979  0.7568 -0.2428
26392SOL     OW81182  10.626   4.195   2.058 -0.5424  0.5511 -0.0134
26392SOL    HW181183  10.660   4.149   2.134  0.3313  0.1645 -0.6170
26392SOL    HW281184  10.694   4.184   1.991 -1.1500  1.1435 -0.7483
26393SOL     OW81185   0.192   2.033   3.758  0.2436 -0.3145  0.1246
26393SOL    HW181186   0.212   1.966   3.692  2.5709  2.8596 -2.7499
26393SOL    HW281187   0.258   2.020   3.826 -0.7711 -2.2356  0.8281
26394SOL     OW81188   6.494   0.802   5.096 -0.1276  0.2468 -0.4665
26394SOL    HW181189   6.451   0.750   5.029  0.2412  0.9520 -1.2811
26394SOL    HW281190   6.573   0.754   5.117 -0.3609 -0.0950 -0.3708
26395SOL     OW81191   2.952  10.184   6.903 -0.1975  0.1780  0.1786
26395SOL    HW181192   3.002  10.232   6.837  1.2364  0.2312  1.2428
26395SOL    HW281193   2.871  10.234   6.914  0.2860  1.0981 -0.3428
26396SOL     OW81194   4.617   0.249   1.661  0.1224  0.4764 -0.5956
26396SOL    HW181195   4.655   0.334   1.681  1.4640  0.4816 -2.8214
26396SOL    HW281196   4.616   0.245   1.565 -0.7911 -1.6364 -0.5550
26397SOL     OW81197   4.311   6.854   4.998 -0.0715  0.1675 -0.0550
26397SOL    HW181198   4.255   6.926   4.970  1.2781  0.5983 -1.8136
26397SOL    HW281199   4.349   6.885   5.081  0.8445  1.7370 -1.0065
26398SOL     OW81200   6.165   4.079   0.662 -0.5318 -0.2052 -0.2891
26398SOL    HW181201   6.205   4.158   0.699 -1.3151  0.2591 -0.4163
26398SOL    HW281202   6.080   4.072   0.706 -0.8417 -0.4811 -0.9189
26399SOL     OW81203   8.449   7.999   5.509 -0.5488  0.2110 -0.6265
26399SOL    HW181204   8.422   8.081   5.551  1.0030  0.4593 -0.0482
26399SOL    HW281205   8.368   7.951   5.495 -1.5234  1.8789 -1.0607
26400SOL     OW81206   4.894   2.705   5.220  0.5994  0.2940 -0.3030
26400SOL    HW181207   4.831   2.776   5.221  2.4890  2.0492 -0.3594
26400SOL    HW281208   4.869   2.649   5.294 -0.2281  1.6416  0.4617
26401SOL     OW81209   5.857   8.031   3.874  0.2694 -0.0030  0.0582
26401SOL    HW181210   5.824   7.979   3.800 -2.1165  1.9784 -0.3994
26401SOL    HW281211   5.878   7.967   3.941 -0.9599 -1.6615 -1.0654
26402SOL     OW81212   6.565  10.607   6.581  0.3431 -0.1499 -0.1867
26402SOL    HW181213   6.575  10.694   6.543  2.4778 -0.2845 -0.0414
26402SOL    HW281214   6.471  10.588   6.573 -0.0214  1.7803 -1.0115
26403SOL     OW81215   8.424   8.284   2.514  0.2702  0.0012 -0.3907
26403SOL    HW181216   8.407   8.194   2.542 -0.3577 -0.0354 -0.8672
26403SOL    HW281217   8.469   8.324   2.588  0.4953 -0.6847 -0.1484
26404SOL     OW81218   3.857   6.180  10.282 -0.0614 -0.1202  0.4877
26404SOL    HW181219   3.788   6.211  10.223 -2.0688 -0.1196  2.7108
26404SOL    HW281220   3.884   6.258  10.330  0.3834 -0.4273  0.7414
26405SOL     OW81221   3.166   4.865   3.877  0.5738  0.1114  0.4023
26405SOL    HW181222   3.229   4.823   3.819  0.3451  0.4066 -0.0585
26405SOL    HW281223   3.125   4.933   3.824 -1.5737 -1.3594  0.0426
26406SOL     OW81224   8.262   3.779   0.588  0.1292 -0.1738  0.1916
26406SOL    HW181225   8.307   3.855   0.624 -1.0767  0.8862 -0.4474
26406SOL    HW281226   8.297   3.770   0.499  2.1265 -1.9781  1.0555
26407SOL     OW81227   4.598   9.419   8.904  0.5400  0.7923  0.0892
26407SOL    HW181228   4.505   9.425   8.880  0.6538  0.5611 -0.4242
26407SOL    HW281229   4.618   9.504   8.942  0.3654  1.2154 -0.7262
26408SOL     OW81230   3.027   9.203   8.170 -0.6045  0.3170 -0.4058
26408SOL    HW181231   3.026   9.111   8.144 -0.0320  0.0025  0.6324
26408SOL    HW281232   3.112   9.236   8.138 -0.5511  0.3264 -0.2551
26409SOL     OW81233   0.962   3.849   1.528  0.0998 -0.2515  0.8005
26409SOL    HW181234   0.989   3.917   1.588 -0.6498  0.0042  0.8626
26409SOL    HW281235   0.874   3.824   1.557  0.2306 -1.0056  0.5768
26410SOL     OW81236   3.698  10.419   7.310  0.0269 -0.6307  0.3758
26410SOL    HW181237   3.689  10.437   7.403  0.1680 -0.7537  0.4147
26410SOL    HW281238   3.642  10.483   7.267  1.6225  0.8655  0.4160
26411SOL     OW81239   0.069   2.964  10.721  0.2905  0.2960 -0.1924
26411SOL    HW181240   0.004   3.032  10.704  0.6430  0.9195  0.8522
26411SOL    HW281241   0.033   2.885  10.680 -1.0716  0.6500  0.2531
26412SOL     OW81242   9.611   8.423   7.464  0.2729  0.3216  0.3378
26412SOL    HW181243   9.690   8.471   7.438  0.1130  0.4938  0.1684
26412SOL    HW281244   9.542   8.490   7.465 -0.1882 -0.1082 -0.9626
26413SOL     OW81245  10.016   6.232  10.184  0.1833  0.0813 -0.7647
26413SOL    HW181246  10.022   6.186  10.100  0.1785 -0.1990 -0.6087
26413SOL    HW281247  10.001   6.164  10.249  1.7106  0.1349 -0.3276
26414SOL     OW81248   1.392   5.996   6.621  0.2716  0.5974  0.3675
26414SOL    HW181249   1.321   6.054   6.593  0.8775  0.9726 -0.4057
26414SOL    HW281250   1.471   6.050   6.617  0.7678 -0.1266  0.1577
26415SOL     OW81251   0.173   3.429   9.031  0.2293  0.2453 -0.5181
26415SOL    HW181252   0.253   3.467   8.992 -0.9924  1.3801 -2.0565
26415SOL    HW281253   0.138   3.500   9.085  0.6874 -0.5508  0.8709
26416SOL     OW81254   9.556   4.485   2.638 -0.2479  0.1415  0.1990
26416SOL    HW181255   9.482   4.453   2.690 -1.0560  1.2312 -0.2443
26416SOL    HW281256   9.562   4.578   2.661  0.4653  0.2422 -0.3920
26417SOL     OW81257   4.809   0.433   6.553 -0.4361 -0.4751  0.3365
26417SOL    HW181258   4.818   0.416   6.646 -2.0842 -2.6854  0.1590
26417SOL    HW281259   4.784   0.526   6.548  0.2709 -0.1681  2.0230
26418SOL     OW81260   9.026   4.787   9.997  0.2860  0.4328  0.3150
26418SOL    HW181261   8.943   4.802  10.042  0.6283  2.5117  0.3556
26418SOL    HW281262   9.055   4.701  10.028 -2.3557 -0.8929 -0.5904
26419SOL     OW81263  10.891   7.119   4.589 -0.1167  0.3168  0.4302
26419SOL    HW181264  10.889   7.127   4.684  2.2678 -0.1930  0.5741
26419SOL    HW281265  10.926   7.203   4.558 -0.1191  0.1828  0.0578
26420SOL     OW81266   6.936   7.279   0.445  0.9690  0.2895 -0.2668
26420SOL    HW181267   6.950   7.219   0.519 -0.5964  1.7959  1.3370
26420SOL    HW281268   6.974   7.361   0.474  0.8269  0.7709 -1.3974
26421SOL     OW81269   1.979   8.595   5.480  0.1735 -0.3914 -0.4204
26421SOL    HW181270   1.969   8.538   5.404  0.9222  0.4115 -1.1523
26421SOL    HW281271   1.946   8.680   5.451 -0.6660 -0.3614  0.5552
26422SOL     OW81272   3.088   7.445   2.356  0.4875 -0.2697 -0.0734
26422SOL    HW181273   3.180   7.418   2.353  0.5674 -0.4071  1.9790
26422SOL    HW281274   3.088   7.525   2.408 -0.4489  0.3930 -1.0548
26423SOL     OW81275   8.583   9.841   9.360  0.0247  0.1611  0.2620
26423SOL    HW181276   8.595   9.785   9.283 -0.3808 -1.1834  1.1249
26423SOL    HW281277   8.666   9.888   9.369 -0.5760  1.8454 -2.0891
26424SOL     OW81278   6.841   1.834   1.747  0.3415  0.6657 -0.2355
26424SOL    HW181279   6.780   1.874   1.808  1.6057 -0.0310  1.5686
26424SOL    HW281280   6.918   1.892   1.748  2.1710 -1.5792  2.3671
26425SOL     OW81281   0.567   1.264   3.456  0.1020 -0.5137 -0.2162
26425SOL    HW181282   0.560   1.175   3.490  0.9955 -0.6973 -0.4956
26425SOL    HW281283   0.558   1.254   3.362  0.7389 -0.3739 -0.2937
26426SOL     OW81284   7.317  10.461   3.911 -0.2857 -0.8021 -0.5324
26426SOL    HW181285   7.361  10.376   3.909  0.8992 -0.1992 -1.1266
26426SOL    HW281286   7.347  10.501   3.993  1.1564  0.0310 -1.4246
26427SOL     OW81287   0.308   4.080   5.855 -0.1522 -0.1371 -0.2984
26427SOL    HW181288   0.239   4.036   5.805  2.9170 -3.4522 -2.1435
26427SOL    HW281289   0.337   4.152   5.798  0.2446 -1.0394 -1.2939
26428SOL     OW81290   2.090   5.716   4.288 -0.0341  0.0793 -0.7331
26428SOL    HW181291   2.063   5.808   4.285  0.3512  0.1991 -0.5138
26428SOL    HW281292   2.154   5.707   4.218  0.0317  0.0101 -0.6646
26429SOL     OW81293   0.507   4.321   7.424 -0.4725  0.1053 -0.5035
26429SOL    HW181294   0.536   4.230   7.427  1.5169  0.7040  0.3005
26429SOL    HW281295   0.517   4.352   7.514  2.7145  2.1599 -1.3901
26430SOL     OW81296   1.192   1.077   5.302 -0.0289 -0.4362 -0.4665
26430SOL    HW181297   1.147   1.133   5.366 -0.0125 -0.1117 -0.7327
26430SOL    HW281298   1.260   1.133   5.265 -0.6218 -0.3273 -1.4193
26431SOL     OW81299   2.469   8.434   0.730  0.1435 -0.5194 -0.1109
26431SOL    HW181300   2.432   8.516   0.765  0.1420 -0.6011  0.0782
26431SOL    HW281301   2.533   8.407   0.795 -2.0490 -2.3309  1.4376
26432SOL     OW81302   0.790  10.356   1.511  0.5959 -0.2322 -0.0981
26432SOL    HW181303   0.794  10.275   1.562 -0.4314  0.2396  0.7784
26432SOL    HW281304   0.701  10.358   1.476  0.3151  0.9226  0.6183
26433SOL     OW81305   3.971   1.503   1.714  0.0941 -0.1470  0.3979
26433SOL    HW181306   3.966   1.597   1.695  2.8460 -0.6016 -3.9940
26433SOL    HW281307   4.063   1.488   1.736 -0.0909 -1.9390  0.0599
26434SOL     OW81308   0.430  10.416   7.219  0.2701 -0.1385 -0.5926
26434SOL    HW181309   0.343  10.376   7.210  0.7555 -1.4405  0.2130
26434SOL    HW281310   0.423  10.499   7.171 -1.8039  0.4012  0.5159
26435SOL     OW81311   3.394   9.635   5.916  0.5109 -0.3214 -0.5227
26435SOL    HW181312   3.353   9.690   5.982  2.2670 -0.4340  0.7231
26435SOL    HW281313   3.482   9.671   5.904  1.2538 -2.0433 -0.6201
26436SOL     OW81314   3.327   3.575   9.473 -0.2869  0.0870 -0.3182
26436SOL    HW181315   3.235   3.563   9.498 -0.9006  0.6469 -2.1172
26436SOL    HW281316   3.372   3.592   9.555 -1.8595  0.1442  0.5744
26437SOL     OW81317   0.052   0.904   8.974 -0.0386  0.0239 -0.0189
26437SOL    HW181318   0.030   0.926   8.883 -0.3721 -2.7077 -0.6766
26437SOL    HW281319  -0.030   0.878   9.014  0.3109  0.0258  0.7277
26438SOL     OW81320   3.911  10.125   1.868 -0.2991 -0.0895  0.3338
26438SOL    HW181321   3.934  10.047   1.919  0.9858  0.3560  0.4733
26438SOL    HW281322   3.931  10.102   1.777 -1.6165 -0.5256  0.1354
26439SOL     OW81323   7.091   2.795   2.921 -0.0641 -0.2015  0.2743
26439SOL    HW181324   7.017   2.854   2.934  0.2308  0.0470  0.8593
26439SOL    HW281325   7.087   2.735   2.996 -0.1768 -0.7398 -0.1480
26440SOL     OW81326   6.021   1.365   7.888  0.1399 -0.0070 -0.0378
26440SOL    HW181327   5.993   1.456   7.885 -0.4245 -0.1429  0.7173
26440SOL    HW281328   5.947   1.318   7.926  0.5559 -0.7274 -0.0916
26441SOL     OW81329   2.247   2.322   9.692 -0.1389  0.0607 -0.5823
26441SOL    HW181330   2.312   2.272   9.643  0.5581  0.9719 -0.6071
26441SOL    HW281331   2.209   2.259   9.754  1.0098 -0.4015 -0.3285
26442SOL     OW81332   7.393   7.559   4.060 -0.2884  0.1020 -0.8302
26442SOL    HW181333   7.449   7.593   4.130 -0.7720  1.1279 -0.9266
26442SOL    HW281334   7.443   7.487   4.022 -0.8974 -2.0443  2.0128
26443SOL     OW81335   1.746   0.845   3.994  0.1409  0.3908  0.4785
26443SOL    HW181336   1.791   0.840   3.909 -0.1465  0.2329  0.3351
26443SOL    HW281337   1.748   0.756   4.027 -0.3497  0.3239  0.3262
26444SOL     OW81338   2.443   7.989   3.847 -0.2982  0.4094  0.5938
26444SOL    HW181339   2.484   8.029   3.770 -0.4191 -0.6992 -0.0699
26444SOL    HW281340   2.394   8.061   3.887  0.1365  1.1187 -0.1074
26445SOL     OW81341   2.683   0.082   5.662 -0.3211 -0.3354  0.3146
26445SOL    HW181342   2.652   0.014   5.722 -1.4283 -1.0694 -1.0245
26445SOL    HW281343   2.773   0.056   5.640  0.1887  0.0809  1.8045
26446SOL     OW81344   5.721   4.788   5.337 -0.3489  0.6296 -0.2648
26446SOL    HW181345   5.806   4.755   5.367 -1.7156 -2.6808  0.3998
26446SOL    HW281346   5.734   4.808   5.244  0.9046 -0.9674 -0.4733
26447SOL     OW81347   6.874   0.540   0.137  0.7938  0.2398 -0.1111
26447SOL    HW181348   6.915   0.531   0.051  4.1082  0.6036  1.2540
26447SOL    HW281349   6.857   0.451   0.165  1.2533  0.0232 -0.4977
26448SOL     OW81350   6.517   2.289   1.297 -0.4494 -0.1958 -0.5376
26448SOL    HW181351   6.428   2.303   1.266 -0.5016  1.2369  0.1831
26448SOL    HW281352   6.511   2.217   1.359 -1.1473  0.0248 -0.3452
26449SOL     OW81353  10.576   9.257   5.530  0.3179  0.2227 -0.4050
26449SOL    HW181354  10.649   9.197   5.516 -1.3584 -1.7476 -1.1121
26449SOL    HW281355  10.547   9.240   5.620  0.4861  0.7602 -0.2415
26450SOL     OW81356   0.235   3.578   9.637 -0.0725  0.0213 -0.2630
26450SOL    HW181357   0.295   3.552   9.567 -0.2701 -0.1656 -0.3615
26450SOL    HW281358   0.281   3.554   9.718  0.2574  0.4506 -0.3182
26451SOL     OW81359   6.606   8.045   7.730  0.6192  0.1451  0.0833
26451SOL    HW181360   6.683   7.991   7.745  0.6651  0.3201  0.4847
26451SOL    HW281361   6.608   8.110   7.800 -1.3493 -1.4738  1.7464
26452SOL     OW81362  10.582   5.537   7.706 -0.4028  0.4185 -0.0914
26452SOL    HW181363  10.554   5.449   7.729  1.8588 -0.6522 -1.1683
26452SOL    HW281364  10.588   5.536   7.610 -0.7037  1.8786 -0.1486
26453SOL     OW81365  10.398  10.729   9.928  0.2635 -0.2481 -0.1035
26453SOL    HW181366  10.360  10.700  10.011 -1.5669 -0.4563 -0.9558
26453SOL    HW281367  10.391  10.653   9.871 -2.0725  0.9305 -1.5450
26454SOL     OW81368   0.806   9.093   6.635  0.3974  0.0736  0.0235
26454SOL    HW181369   0.822   9.076   6.542 -0.4602  1.6012 -0.4331
26454SOL    HW281370   0.825   9.186   6.647  0.0308  0.0111  1.2750
26455SOL     OW81371   6.624   4.038   3.207  0.7790 -0.4642  0.4178
26455SOL    HW181372   6.535   4.029   3.239  1.1619  0.6505  1.8912
26455SOL    HW281373   6.649   3.950   3.180 -0.9093 -0.7049 -0.4805
26456SOL     OW81374  11.006  10.601   3.756 -0.2360 -0.3577  0.1293
26456SOL    HW181375  11.023  10.553   3.675 -1.4346 -1.9527  0.7652
26456SOL    HW281376  10.916  10.632   3.747 -0.0157  0.3842  0.4192
26457SOL     OW81377   9.340   1.973   4.340 -0.6960 -0.5422 -0.1435
26457SOL    HW181378   9.334   2.045   4.403  1.3038 -1.4178  1.1402
26457SOL    HW281379   9.274   1.910   4.369 -1.3706  0.0581 -0.3389
26458SOL     OW81380   4.107   4.515   6.642  0.0868 -0.2971  0.3139
26458SOL    HW181381   4.202   4.503   6.651  0.0427 -1.1277 -0.3221
26458SOL    HW281382   4.075   4.516   6.732  0.4883 -1.7931  0.4909
26459SOL     OW81383   7.386   8.364   0.419 -0.6296  0.1545  0.0832
26459SOL    HW181384   7.413   8.320   0.499  1.1535  0.4710 -0.3032
26459SOL    HW281385   7.401   8.299   0.350 -3.9759 -0.8382  0.1050
26460SOL     OW81386   5.206   8.887   3.522  0.4400  0.5788 -0.1781
26460SOL    HW181387   5.234   8.872   3.613  2.9833 -0.5251 -1.0574
26460SOL    HW281388   5.119   8.848   3.518  0.7847 -0.5019  1.4880
26461SOL     OW81389   9.486   9.329   1.192 -0.2461  0.5249  0.8429
26461SOL    HW181390   9.578   9.338   1.219 -0.3650  0.3318  1.3191
26461SOL    HW281391   9.475   9.236   1.175 -0.6409  0.3651  1.8706
26462SOL     OW81392   9.979   4.674   9.916 -0.2277 -0.5444 -0.3125
26462SOL    HW181393  10.075   4.680   9.910  0.2871 -2.6978  2.9421
26462SOL    HW281394   9.952   4.758   9.952  0.2689  0.4181 -2.0911
26463SOL     OW81395   6.775   1.865   5.703  0.7576  0.0343  0.0917
26463SOL    HW181396   6.798   1.854   5.796 -0.5805 -0.8809  0.3316
26463SOL    HW281397   6.794   1.780   5.664  0.7654  0.2412 -0.3546
26464SOL     OW81398   9.638  10.997   8.339 -0.3924  0.0624  0.9109
26464SOL    HW181399   9.546  10.980   8.360 -0.9297 -0.9788 -1.7814
26464SOL    HW281400   9.680  10.911   8.347  0.2692  0.4493  1.6804
26465SOL     OW81401   6.004   5.926   0.714 -0.4031 -0.5859 -0.4227
26465SOL    HW181402   5.921   5.918   0.761 -1.1779  0.1269 -1.6074
26465SOL    HW281403   5.979   5.940   0.623  0.8761  3.4983 -0.3203
26466SOL     OW81404   4.872  10.198  10.872  0.5771  0.5777 -0.0328
26466SOL    HW181405   4.832  10.261  10.931  0.0156 -0.1036  0.3308
26466SOL    HW281406   4.874  10.116  10.922 -0.9346 -0.3048 -1.3140
26467SOL     OW81407   1.563   7.664  10.782  0.1360  0.1541 -0.5491
26467SOL    HW181408   1.534   7.655  10.873  0.7513 -0.0207 -0.3708
26467SOL    HW281409   1.640   7.720  10.786  0.1637  0.1520 -0.9656
26468SOL     OW81410  10.010   5.872   9.614  0.1183  0.2133  0.1049
26468SOL    HW181411  10.041   5.903   9.699  0.2568 -0.2711  0.2307
26468SOL    HW281412   9.966   5.789   9.633 -0.5751  0.5108 -0.1819
26469SOL     OW81413   7.976   6.824   9.635 -0.6448  0.3456  0.2407
26469SOL    HW181414   8.037   6.837   9.562 -2.0944 -0.2063 -1.1186
26469SOL    HW281415   8.009   6.747   9.680 -0.9603 -0.6917 -1.2079
26470SOL     OW81416   1.859  10.555   3.857  0.5013  0.2461 -0.4924
26470SOL    HW181417   1.941  10.600   3.879  1.1188 -0.5339 -1.1389
26470SOL    HW281418   1.832  10.594   3.774 -0.0459  0.8263 -0.0560
26471SOL     OW81419   1.815   8.281  10.322 -0.0116  0.5042  0.3771
26471SOL    HW181420   1.885   8.346  10.333 -0.5416  1.1524 -0.0204
26471SOL    HW281421   1.761   8.316  10.251  0.7735 -1.3208 -1.1830
26472SOL     OW81422  10.972  10.422   9.787  0.2216  0.0562 -0.0107
26472SOL    HW181423  10.996  10.398   9.698  0.6521 -0.6459  0.2829
26472SOL    HW281424  10.896  10.368   9.807  0.9939 -0.8546  0.5391
26473SOL     OW81425   9.551   6.398   0.350  0.1558  0.0935 -0.0066
26473SOL    HW181426   9.612   6.459   0.309 -1.1247  1.1931 -0.3677
26473SOL    HW281427   9.470   6.408   0.300 -0.4641 -0.9874  0.7384
26474SOL     OW81428   6.038   8.234   7.572 -0.0836 -0.3760 -0.5726
26474SOL    HW181429   6.132   8.217   7.563  0.2215  1.1581 -0.6297
26474SOL    HW281430   6.034   8.322   7.610 -1.5006 -0.2876 -0.8925
26475SOL     OW81431   6.588  10.939   5.527  0.5335 -0.5083 -0.3255
26475SOL    HW181432   6.643  11.017   5.527 -0.2524  0.0587 -0.7201
26475SOL    HW281433   6.598  10.903   5.438  0.3135 -0.4292 -0.3836
26476SOL     OW81434   1.523   4.706   6.314  0.3692  0.9218 -0.0180
26476SOL    HW181435   1.565   4.653   6.382 -0.3645  0.8416  0.3733
26476SOL    HW281436   1.522   4.649   6.237 -3.3384 -0.9901  1.2026
26477SOL     OW81437  10.676   0.953   3.667  0.1251 -1.2556 -0.5080
26477SOL    HW181438  10.604   0.995   3.715  1.2906  0.7120 -0.3850
26477SOL    HW281439  10.663   0.980   3.576  1.5673  0.5227 -0.2474
26478SOL     OW81440   0.977   4.553   0.659 -0.0584  0.3110 -0.0195
26478SOL    HW181441   0.935   4.621   0.713  0.1315  0.5350 -0.1523
26478SOL    HW281442   0.910   4.485   0.650  0.0876  0.0221  0.9515
26479SOL     OW81443   5.288   7.705   2.119  0.4029  0.4074 -0.0833
26479SOL    HW181444   5.302   7.718   2.025  0.8556  0.6440  0.0106
26479SOL    HW281445   5.287   7.610   2.130  2.6054  0.3271 -0.0384
26480SOL     OW81446   7.605   2.542  10.901 -0.5214 -0.9234  0.2164
26480SOL    HW181447   7.595   2.519  10.808  1.8147  1.0940 -0.6273
26480SOL    HW281448   7.563   2.627  10.909 -0.1536 -0.8070  0.8796
26481SOL     OW81449   1.651   8.610   6.691 -0.2786 -0.2028 -0.0590
26481SOL    HW181450   1.651   8.546   6.620  0.5468 -1.2584  0.8736
26481SOL    HW281451   1.702   8.569   6.761  0.1357  1.4061  0.6219
26482SOL     OW81452   2.833   7.921   9.152  0.0871  0.1123 -0.3093
26482SOL    HW181453   2.795   7.973   9.223  0.4072 -1.6228  1.2271
26482SOL    HW281454   2.759   7.900   9.095 -0.3376  0.8345 -0.0353
26483SOL     OW81455   4.619   9.140   3.838  0.3952 -0.9738  0.0377
26483SOL    HW181456   4.554   9.158   3.771  0.7201 -0.1468 -0.0614
26483SOL    HW281457   4.681   9.213   3.833  2.1127 -2.4145 -0.7980
26484SOL     OW81458  10.223   9.313  10.602  0.4667 -0.3102  0.1539
26484SOL    HW181459  10.170   9.354  10.670 -0.2202 -0.8100 -0.0725
26484SOL    HW281460  10.304   9.364  10.602  0.1321  0.2455  0.7433
26485SOL     OW81461   3.850   4.369  10.382  0.6178  0.8119 -0.2055
26485SOL    HW181462   3.872   4.448  10.332  0.6249  0.7622 -0.2791
26485SOL    HW281463   3.933   4.323  10.393  0.8553  1.4643  0.9605
26486SOL     OW81464   8.527   5.543  10.299  0.1143  0.4096 -0.2296
26486SOL    HW181465   8.521   5.529  10.204  0.6907 -1.8179 -0.0005
26486SOL    HW281466   8.437   5.530  10.330 -0.1174  1.3502 -0.4595
26487SOL     OW81467   5.108   6.681   9.790  0.4252 -0.1316 -0.6909
26487SOL    HW181468   5.079   6.770   9.771  1.6952 -0.0046 -2.2228
26487SOL    HW281469   5.197   6.692   9.825  0.3043 -0.7672 -0.1630
26488SOL     OW81470  10.565   0.155   2.685  0.0703  0.8040  0.1065
26488SOL    HW181471  10.536   0.162   2.775  3.0491 -0.4138  1.3071
26488SOL    HW281472  10.528   0.072   2.654 -1.0917  1.3018  0.1378
26489SOL     OW81473   3.521   6.518   8.615 -0.3679 -0.2880  0.1157
26489SOL    HW181474   3.565   6.433   8.607 -1.6389 -0.8872 -1.1168
26489SOL    HW281475   3.553   6.568   8.540  0.1580  0.2223  0.6769
26490SOL     OW81476   8.607   7.032   0.744  0.5067 -0.4087 -0.6876
26490SOL    HW181477   8.552   6.992   0.677 -0.6827  0.3020 -0.1659
26490SOL    HW281478   8.672   6.965   0.765  0.8046 -0.7070 -2.4075
26491SOL     OW81479   6.578   6.551   1.061  0.3448  0.7214  0.2124
26491SOL    HW181480   6.578   6.572   1.154 -0.5456 -0.9313  0.6094
26491SOL    HW281481   6.504   6.601   1.025 -0.6599 -0.3021  0.8116
26492SOL     OW81482   5.419   5.331   7.507 -0.3466  0.5686 -0.6037
26492SOL    HW181483   5.490   5.308   7.447  0.3817  1.8299 -0.2537
26492SOL    HW281484   5.399   5.423   7.487 -1.0012  0.6070  0.1813
26493SOL     OW81485  10.145   6.011   3.866 -0.4250  0.0584  0.3252
26493SOL    HW181486  10.129   5.997   3.773 -0.8142  0.9328  0.2551
26493SOL    HW281487  10.240   5.998   3.876 -0.5037 -0.8628 -0.0312
26494SOL     OW81488   5.450   1.976   7.657 -0.5247  0.0915 -0.2842
26494SOL    HW181489   5.380   1.920   7.624 -1.2487  1.4461 -1.0999
26494SOL    HW281490   5.438   2.059   7.611 -1.1515  1.8716  2.8704
26495SOL     OW81491   9.421   6.826   2.851  0.1176 -0.1640 -0.5642
26495SOL    HW181492   9.457   6.795   2.935 -0.2437 -0.5161 -0.5344
26495SOL    HW281493   9.326   6.813   2.860  0.1008 -0.4623 -1.1343
26496SOL     OW81494   7.696   6.905   0.888 -0.1807 -0.5634 -0.0498
26496SOL    HW181495   7.666   6.898   0.798  1.3420 -0.5160 -0.5939
26496SOL    HW281496   7.710   6.998   0.902 -0.0799 -0.6038  0.1282
26497SOL     OW81497   8.240   8.194  10.334 -0.0869 -0.0558  0.2755
26497SOL    HW181498   8.147   8.174  10.339  0.1955 -1.5102  0.1397
26497SOL    HW281499   8.243   8.288  10.317 -1.5318 -0.0515 -0.1116
26498SOL     OW81500   8.092   2.018   8.362 -0.0698  0.2017 -0.4706
26498SOL    HW181501   8.039   2.079   8.414 -1.4050  0.1701 -1.7242
26498SOL    HW281502   8.095   2.057   8.275  1.8895  0.1166 -0.4752
26499SOL     OW81503   5.369   7.913   5.160  0.3221  0.6869 -0.2663
26499SOL    HW181504   5.334   7.834   5.119 -1.0390  0.7985  0.6471
26499SOL    HW281505   5.294   7.971   5.170  0.8615  1.1844  1.1835
26500SOL     OW81506   8.887  10.534   0.223  0.2964  0.5811 -0.5477
26500SOL    HW181507   8.953  10.493   0.168  1.0169  0.5172  0.3340
26500SOL    HW281508   8.829  10.580   0.162 -0.5142 -1.6693 -1.5987
26501SOL     OW81509   7.242   7.866   7.318  0.1972  0.5329 -0.6090
26501SOL    HW181510   7.146   7.870   7.319  0.1606  0.7234  1.6433
26501SOL    HW281511   7.262   7.786   7.366  1.1880  0.4634 -1.1220
26502SOL     OW81512   5.569   6.488   3.343 -0.0364 -0.5859  0.2179
26502SOL    HW181513   5.607   6.575   3.329 -1.3565 -0.1869 -1.0603
26502SOL    HW281514   5.633   6.428   3.304 -0.1908  0.0057 -1.0020
26503SOL     OW81515   7.289   6.727   4.328  0.3765  0.0433  0.0730
26503SOL    HW181516   7.321   6.798   4.272  0.1680 -1.3859 -2.0162
26503SOL    HW281517   7.335   6.649   4.296  1.8473 -0.6000  3.3709
26504SOL     OW81518   2.056   8.439   2.609 -0.0327 -0.2639 -0.1512
26504SOL    HW181519   2.017   8.516   2.568  0.3511  0.3043  0.5427
26504SOL    HW281520   2.007   8.428   2.690 -0.0957 -0.7688 -0.2535
26505SOL     OW81521   7.310  10.832  10.142  0.3841  0.3521 -0.7171
26505SOL    HW181522   7.363  10.903  10.105 -2.0947  2.2330 -0.9078
26505SOL    HW281523   7.364  10.754  10.132  2.6435  1.9552 -1.8606
26506SOL     OW81524   3.360   8.927   3.616  0.2238  0.3306  0.2221
26506SOL    HW181525   3.315   8.995   3.667  1.7892  1.7297 -0.1716
26506SOL    HW281526   3.338   8.947   3.525  2.0409  1.4127 -0.0245
26507SOL     OW81527  10.616   3.901   8.655  0.2628  0.3473 -0.6721
26507SOL    HW181528  10.627   3.996   8.645  0.2340  0.2255 -2.0632
26507SOL    HW281529  10.599   3.870   8.566  3.3824 -1.3735 -0.7977
26508SOL     OW81530   5.950   4.104   6.598  0.3286 -0.6390  0.6254
26508SOL    HW181531   5.931   4.050   6.674  1.2923 -0.2370  1.1746
26508SOL    HW281532   5.864   4.129   6.564 -0.1138 -1.4519  1.1233
26509SOL     OW81533   1.500   0.113   5.767  0.3917 -0.2766  0.6109
26509SOL    HW181534   1.500   0.082   5.676  0.8327  1.1476  0.0931
26509SOL    HW281535   1.587   0.089   5.800  0.2010 -0.8697  0.6765
26510SOL     OW81536   2.995   4.050  10.310 -0.4403 -0.1959  0.2930
26510SOL    HW181537   2.988   3.986  10.239 -0.7559  0.1673 -0.0109
26510SOL    HW281538   3.058   4.115  10.277  0.0667 -0.4757  0.6995
26511SOL     OW81539   6.309   2.708   4.016  0.2925  0.4195  0.1004
26511SOL    HW181540   6.307   2.727   4.109 -1.2095  0.5033  0.0660
26511SOL    HW281541   6.218   2.709   3.988  0.5561 -1.4600 -1.0024
26512SOL     OW81542   6.683  10.051   4.212 -0.3369 -0.0764 -0.3259
26512SOL    HW181543   6.764  10.062   4.261 -0.3513  0.1501 -0.3515
26512SOL    HW281544   6.681  10.124   4.150  0.4949 -1.2728 -1.8367
26513SOL     OW81545   6.671   5.864   4.700 -0.1063 -0.6035 -0.4886
26513SOL    HW181546   6.696   5.954   4.721  1.0575 -0.8197 -0.8933
26513SOL    HW281547   6.681   5.858   4.605 -1.8169 -0.6910 -0.7009
26514SOL     OW81548  10.414   3.229   9.543  0.2073  0.0871 -0.9366
26514SOL    HW181549  10.364   3.309   9.531  0.1101  0.0947 -0.4925
26514SOL    HW281550  10.484   3.234   9.477  0.6582  0.8948 -0.4176
26515SOL     OW81551   4.947   5.700   7.147  0.1066 -0.2356  0.2881
26515SOL    HW181552   4.875   5.638   7.135  1.3331 -1.7620  0.5018
26515SOL    HW281553   4.907   5.774   7.193 -1.5690 -0.4990 -0.6302
26516SOL     OW81554   5.169   5.159   3.668 -0.1971  0.3856 -0.0594
26516SOL    HW181555   5.260   5.128   3.667 -0.2790  0.1430 -0.0208
26516SOL    HW281556   5.130   5.115   3.744  0.0145  1.5256  0.7424
26517SOL     OW81557   8.823   2.672   4.068 -0.2358 -0.1347  0.5744
26517SOL    HW181558   8.791   2.583   4.083 -1.0746  0.2725  1.2188
26517SOL    HW281559   8.918   2.662   4.064 -0.2450 -0.8906  1.8083
26518SOL     OW81560   4.022   5.646   7.395 -0.1925  0.0146  0.2246
26518SOL    HW181561   3.947   5.662   7.452 -0.5393 -0.3038 -0.1338
26518SOL    HW281562   4.010   5.556   7.364  0.1762  0.0640 -0.0789
26519SOL     OW81563   8.855   5.441   3.629  0.2223 -0.2635  0.4484
26519SOL    HW181564   8.797   5.454   3.554 -0.3758 -0.8718  0.7865
26519SOL    HW281565   8.935   5.405   3.592  0.8047  1.5041 -0.1516
26520SOL     OW81566   5.101  10.323   9.409 -0.2913 -0.3125 -0.2896
26520SOL    HW181567   5.179  10.302   9.461 -0.0032  0.8101 -0.2267
26520SOL    HW281568   5.036  10.349   9.474 -0.7581 -1.3469 -0.3360
26521SOL     OW81569   8.581   8.889   2.044  0.5739  0.1619  0.3322
26521SOL    HW181570   8.555   8.816   1.988 -0.0732  1.9109 -1.8454
26521SOL    HW281571   8.520   8.887   2.117 -0.3218 -0.6604 -0.4192
26522SOL     OW81572   8.462  10.778   3.994 -0.7987  0.1538 -0.2186
26522SOL    HW181573   8.471  10.687   4.022  0.3286  0.5315  0.7520
26522SOL    HW281574   8.371  10.786   3.967 -2.0479 -0.2807  3.3421
26523SOL     OW81575   8.466   0.760   4.389  0.6814  0.0020  0.1017
26523SOL    HW181576   8.530   0.710   4.339  0.1086 -0.8580  0.2142
26523SOL    HW281577   8.387   0.758   4.336  0.1432 -0.6956  0.9054
26524SOL     OW81578   3.730   2.983   2.245 -0.7076  0.0313 -0.2371
26524SOL    HW181579   3.793   2.940   2.187 -0.7250  1.8419 -1.6963
26524SOL    HW281580   3.645   2.951   2.217 -0.5744 -0.9060  0.4042
26525SOL     OW81581   3.716   5.521   9.879 -0.4202 -0.1429  0.1570
26525SOL    HW181582   3.728   5.605   9.834 -2.1291  0.1817  0.2349
26525SOL    HW281583   3.792   5.512   9.935  1.1334  0.0743 -1.7907
26526SOL     OW81584   0.181   9.323   0.635 -0.3814  0.4058  0.2162
26526SOL    HW181585   0.187   9.283   0.721 -2.0797  0.5906  0.4552
26526SOL    HW281586   0.104   9.282   0.594  1.5320 -1.2056 -2.0645
26527SOL     OW81587   8.832   2.440   7.056 -0.0503 -0.0111 -0.2577
26527SOL    HW181588   8.844   2.448   7.150  2.2366 -0.4458 -0.4482
26527SOL    HW281589   8.864   2.523   7.020  3.6556 -1.4947 -0.8575
26528SOL     OW81590   6.191   7.076   7.747  0.0463  0.1053 -0.0679
26528SOL    HW181591   6.281   7.078   7.716 -0.1388  2.1090 -0.6141
26528SOL    HW281592   6.138   7.073   7.667 -0.3777 -0.3668  0.2243
26529SOL     OW81593   0.695   6.648   8.354 -0.1167 -0.5214 -0.5459
26529SOL    HW181594   0.765   6.642   8.288  2.8194  0.8357  2.1893
26529SOL    HW281595   0.690   6.741   8.375 -0.5110 -0.9811  1.5828
26530SOL     OW81596   3.485   8.229  10.104  0.2466  0.0398 -0.3109
26530SOL    HW181597   3.540   8.307  10.093  0.6901 -0.1486  0.5159
26530SOL    HW281598   3.457   8.208  10.015  0.8065  0.6502 -0.6493
26531SOL     OW81599  11.006   9.106   9.597 -0.0737  0.1798  0.2949
26531SOL    HW181600  11.091   9.132   9.634 -0.8365  1.6578  1.1247
26531SOL    HW281601  10.996   9.014   9.622  1.5431 -0.2069 -0.3617
26532SOL     OW81602   8.778  10.191   8.121  0.3385  0.8178 -0.2788
26532SOL    HW181603   8.788  10.218   8.212  1.4591  1.1777 -0.4931
26532SOL    HW281604   8.777  10.095   8.124  0.6525  0.8262  0.0876
26533SOL     OW81605   2.966   1.811   3.864  0.0740  0.0906 -0.1389
26533SOL    HW181606   3.061   1.800   3.858 -0.1795 -1.3883 -2.8484
26533SOL    HW281607   2.951   1.900   3.832  0.5336  0.4324  0.5603
26534SOL     OW81608   7.851   4.432   1.055 -0.4600 -0.5578 -0.2009
26534SOL    HW181609   7.890   4.347   1.073  0.3650 -0.3917 -1.0770
26534SOL    HW281610   7.882   4.488   1.127  1.1717 -0.3758 -0.9885
26535SOL     OW81611   8.887   3.451   8.479 -0.5144 -0.0352 -0.6103
26535SOL    HW181612   8.972   3.411   8.497 -0.1537  0.6948 -0.6376
26535SOL    HW281613   8.902   3.504   8.401 -1.5748 -1.6442 -1.9703
26536SOL     OW81614   4.757   3.260   9.402  0.5278  0.2948 -0.0493
26536SOL    HW181615   4.748   3.218   9.316 -0.4498  2.0462 -0.8524
26536SOL    HW281616   4.756   3.187   9.464  0.2648 -0.9523 -1.4480
26537SOL     OW81617   7.603   0.266   3.562 -0.2729 -0.0697 -0.0611
26537SOL    HW181618   7.548   0.289   3.637 -2.2555 -0.3969 -1.3581
26537SOL    HW281619   7.608   0.170   3.565  1.7477  0.0107  1.0305
26538SOL     OW81620   0.794   5.094   0.665 -0.0806  0.1600 -0.8289
26538SOL    HW181621   0.856   5.118   0.734 -0.6474  0.4809 -0.4219
26538SOL    HW281622   0.824   5.143   0.588 -0.3423  1.0179 -0.3984
26539SOL     OW81623   1.608   5.852   1.472  0.4725  0.4377  0.1761
26539SOL    HW181624   1.570   5.780   1.522  1.1081 -0.4516 -0.5841
26539SOL    HW281625   1.659   5.809   1.403  1.4269  1.6082  0.1203
26540SOL     OW81626  10.786   0.879  10.909  0.3610  0.0560 -0.3505
26540SOL    HW181627  10.830   0.889  10.824 -0.8257  2.2583 -0.7934
26540SOL    HW281628  10.706   0.831  10.889 -0.7783  2.0794 -0.8612
26541SOL     OW81629   5.961   1.466   8.193  0.1584  0.0278  0.4813
26541SOL    HW181630   6.042   1.414   8.195  0.0713 -0.1421 -0.1314
26541SOL    HW281631   5.990   1.556   8.180  0.2037 -0.2052 -1.2470
26542SOL     OW81632   1.590   2.359   4.951  0.0095  0.4946 -0.2629
26542SOL    HW181633   1.635   2.443   4.954  0.2631  0.3340  0.6758
26542SOL    HW281634   1.649   2.297   4.995 -0.9772  0.2246  0.7367
26543SOL     OW81635   1.670   5.002  10.343 -0.0363  0.0352 -0.6036
26543SOL    HW181636   1.584   4.961  10.331  1.1720 -2.5151 -1.1929
26543SOL    HW281637   1.715   4.987  10.260  0.9240  1.5377 -0.3856
26544SOL     OW81638   6.310   7.193   1.618 -0.1988 -0.0027 -0.1222
26544SOL    HW181639   6.360   7.274   1.612  1.7143 -1.2072 -2.2613
26544SOL    HW281640   6.252   7.205   1.693 -0.4637  3.5667 -0.7401
26545SOL     OW81641   4.231   1.482   4.712 -0.2870  0.5487 -0.3344
26545SOL    HW181642   4.231   1.555   4.774 -1.0163  0.8448 -0.6732
26545SOL    HW281643   4.149   1.435   4.732 -0.0365  0.0716 -0.4129
26546SOL     OW81644   7.956   8.333  10.980 -0.0245 -0.1159 -0.2617
26546SOL    HW181645   7.865   8.345  10.951  0.0904 -0.5095 -0.7906
26546SOL    HW281646   7.990   8.422  10.988 -0.8009  0.0886  1.0750
26547SOL     OW81647  10.342   1.307   5.957 -0.2553 -0.0238 -0.0590
26547SOL    HW181648  10.354   1.281   6.049 -1.4260  1.4077  0.5369
26547SOL    HW281649  10.427   1.341   5.931 -0.0480  0.0429  0.6694
26548SOL     OW81650   3.870   3.821   5.681 -0.3793  0.0078  0.5259
26548SOL    HW181651   3.780   3.833   5.650 -0.3626  0.1268  0.5231
26548SOL    HW281652   3.885   3.727   5.674 -0.5327 -0.0240  0.6065
26549SOL     OW81653   8.034   8.827   7.824  0.1284  0.0367 -0.0352
26549SOL    HW181654   8.050   8.766   7.896  2.6255 -0.1420 -0.6564
26549SOL    HW281655   8.091   8.902   7.842 -1.0035  1.0820 -0.6161
26550SOL     OW81656   9.196   7.902   0.148  0.0131  0.1545  0.4592
26550SOL    HW181657   9.202   7.960   0.224 -1.7991  0.1901  0.6246
26550SOL    HW281658   9.224   7.956   0.074 -0.1997  0.7775  0.8287
26551SOL     OW81659   1.742   0.693   9.844  0.1612  0.0827  0.7441
26551SOL    HW181660   1.753   0.598   9.849  0.0531 -0.1147 -1.6173
26551SOL    HW281661   1.647   0.706   9.842  0.1552  0.3349  1.7893
26552SOL     OW81662   7.166   6.599  10.206 -0.0936  0.1875 -0.4721
26552SOL    HW181663   7.101   6.648  10.257  0.1007 -1.6083  1.6828
26552SOL    HW281664   7.124   6.515  10.189  0.7986 -0.1311 -1.1372
26553SOL     OW81665   0.675   5.363   3.169  0.0994 -0.5798  0.3216
26553SOL    HW181666   0.627   5.442   3.144 -0.8397 -0.8437  1.2076
26553SOL    HW281667   0.648   5.298   3.104 -0.3570 -0.5915  0.5200
26554SOL     OW81668   5.583   7.559  10.806  0.3238  0.5635  0.2159
26554SOL    HW181669   5.492   7.582  10.822  0.1230  1.8033 -2.2139
26554SOL    HW281670   5.609   7.509  10.883 -2.4152  0.0857  0.9419
26555SOL     OW81671   3.671   6.539   0.141 -0.3841 -0.5304  0.0409
26555SOL    HW181672   3.677   6.466   0.203  0.1596 -0.3024  0.2651
26555SOL    HW281673   3.762   6.567   0.128 -0.4076 -1.1144 -1.5191
26556SOL     OW81674   3.108  11.024   8.028  0.7537  0.0683  0.0063
26556SOL    HW181675   3.078  10.949   8.078 -0.2808  0.9334  0.7276
26556SOL    HW281676   3.202  11.008   8.014  0.5994 -1.2134  0.3608
26557SOL     OW81677   3.146   6.173   4.602  0.0744 -0.0621  0.6003
26557SOL    HW181678   3.189   6.136   4.679  0.0180  0.0824  0.7021
26557SOL    HW281679   3.053   6.176   4.626  0.1817  0.9959  0.9513
26558SOL     OW81680   3.694   0.039   2.295 -0.1380  0.0901 -0.0163
26558SOL    HW181681   3.616   0.014   2.247 -0.3218  0.0117  0.3203
26558SOL    HW281682   3.669   0.120   2.340  0.2572  0.5552 -0.6143
26559SOL     OW81683   1.013   7.665   0.598 -0.1638 -0.0349 -0.1791
26559SOL    HW181684   0.920   7.680   0.583  0.1426  0.8127 -1.4825
26559SOL    HW281685   1.055   7.696   0.517  1.3531  0.8418  0.8960
26560SOL     OW81686   4.613   9.933   9.817  0.1740  0.4392 -0.5035
26560SOL    HW181687   4.691   9.980   9.787  0.5186 -0.7313 -1.5693
26560SOL    HW281688   4.550   9.943   9.745 -0.2008  0.3310 -0.1922
26561SOL     OW81689   1.086   0.462   8.172 -0.3415  0.2643 -0.0837
26561SOL    HW181690   1.110   0.412   8.250 -1.6041  0.5348  0.5049
26561SOL    HW281691   1.058   0.547   8.206  0.3805  0.8719 -0.9587
26562SOL     OW81692   3.270   8.526   4.427 -0.2764  0.4147 -0.5996
26562SOL    HW181693   3.307   8.534   4.339 -2.2691  1.7578 -1.3886
26562SOL    HW281694   3.193   8.470   4.416  0.1461 -0.4472  0.5613
26563SOL     OW81695   2.138   0.489   3.262  0.6615 -0.1152 -0.5187
26563SOL    HW181696   2.209   0.483   3.326  0.1750 -1.9108 -0.1071
26563SOL    HW281697   2.068   0.436   3.298 -0.3971  0.5130 -1.5806
26564SOL     OW81698   4.029   8.359   2.319 -0.1475 -0.4801 -0.5753
26564SOL    HW181699   3.968   8.365   2.245 -0.4393  3.2215 -0.2195
26564SOL    HW281700   4.115   8.375   2.281 -0.0987 -0.2124 -0.3599
26565SOL     OW81701   9.123   5.587   2.510 -0.6045  0.2133 -0.7628
26565SOL    HW181702   9.205   5.617   2.473 -0.1113  0.4043  0.4315
26565SOL    HW281703   9.084   5.665   2.550 -1.2969  0.0968 -1.2002
26566SOL     OW81704   0.550   1.272   6.570 -0.4753 -0.0385  0.1176
26566SOL    HW181705   0.511   1.186   6.551  0.3346 -0.1555 -1.1279
26566SOL    HW281706   0.628   1.252   6.623 -0.6396 -0.0110  0.3734
26567SOL     OW81707   3.248   9.992  10.140  0.3994  0.0347  0.0916
26567SOL    HW181708   3.278   9.940  10.215  0.9542 -0.0576 -0.1903
26567SOL    HW281709   3.265  10.083  10.166  0.5554  0.0056  0.0907
26568SOL     OW81710   2.905   1.934   4.673  0.1158  0.1675  0.5564
26568SOL    HW181711   2.897   1.971   4.585 -0.9244  0.5706  0.8053
26568SOL    HW281712   2.827   1.964   4.719  0.7931  0.2148  1.7232
26569SOL     OW81713   9.026   9.881   0.335  0.0507 -0.1716 -0.5472
26569SOL    HW181714   9.094   9.820   0.363 -0.1269  0.1539  0.6110
26569SOL    HW281715   9.067   9.933   0.266  0.8171 -0.2871 -0.1759
26570SOL     OW81716   2.384   0.287   8.157  0.2648  0.1259  0.1888
26570SOL    HW181717   2.356   0.338   8.233 -1.4088  1.7466 -1.3808
26570SOL    HW281718   2.453   0.340   8.117  1.2131 -0.7695  0.6186
26571SOL     OW81719   4.715   8.829   3.427  0.1880 -0.6824 -0.3585
26571SOL    HW181720   4.809   8.823   3.415  0.3629 -0.4338  0.7935
26571SOL    HW281721   4.697   8.779   3.507 -0.5764 -0.2417 -0.2377
26572SOL     OW81722   0.994   9.070   3.350 -0.5958  0.0811 -0.7959
26572SOL    HW181723   1.055   9.143   3.349  0.3153 -0.6327 -2.7717
26572SOL    HW281724   0.946   9.079   3.432  1.6706  1.0800  0.5028
26573SOL     OW81725   2.677  10.255   4.195 -0.3488 -0.5011 -0.0015
26573SOL    HW181726   2.705  10.178   4.145 -1.0126 -0.4714 -0.4313
26573SOL    HW281727   2.733  10.255   4.273  3.7139  1.6891 -2.5347
26574SOL     OW81728   2.905  10.939   0.155  0.5470  0.3783 -0.2035
26574SOL    HW181729   2.963  10.963   0.083  0.2621  1.2689 -0.1578
26574SOL    HW281730   2.961  10.894   0.217  1.0618  0.6832 -0.4346
26575SOL     OW81731   1.463   8.154   9.291  1.3234 -0.6067  0.3722
26575SOL    HW181732   1.371   8.179   9.282  1.0805 -0.5228  2.4814
26575SOL    HW281733   1.500   8.167   9.204 -0.0888  1.6934  0.0348
26576SOL     OW81734   2.711   3.728   3.049 -0.0015  0.2944 -0.2286
26576SOL    HW181735   2.742   3.799   3.105 -1.7575  1.5204 -0.7196
26576SOL    HW281736   2.622   3.754   3.024 -0.2345 -1.4831 -1.4568
26577SOL     OW81737   6.894   0.303   6.416 -0.1859 -0.0029  0.5370
26577SOL    HW181738   6.916   0.321   6.325 -0.0380 -0.8096  0.4076
26577SOL    HW281739   6.977   0.309   6.463 -0.4375  1.5723  0.8257
26578SOL     OW81740   3.774   8.863   6.831  0.2883 -0.1550  0.3194
26578SOL    HW181741   3.868   8.855   6.815  0.3026 -0.2658  0.4630
26578SOL    HW281742   3.757   8.957   6.831  0.5507 -0.0991  1.1771
26579SOL     OW81743   6.873   5.649  10.707  0.7282  0.0596 -0.3113
26579SOL    HW181744   6.897   5.741  10.715 -0.0716  0.1212  2.8418
26579SOL    HW281745   6.784   5.650  10.673  0.1172  0.6156  1.2065
26580SOL     OW81746   8.049   3.494   0.412  0.3544 -0.5620 -0.1039
26580SOL    HW181747   7.982   3.430   0.437 -0.1784  0.0333  0.0021
26580SOL    HW281748   8.115   3.486   0.480 -0.5796  0.2882  0.9415
26581SOL     OW81749   5.101   0.625   8.016 -0.3425 -0.1678 -0.2115
26581SOL    HW181750   5.151   0.545   8.033  2.2746  1.5399  0.9362
26581SOL    HW281751   5.028   0.621   8.078  0.0646 -1.3834  0.2244
26582SOL     OW81752   8.578   4.933   5.980  0.0970 -0.0286 -0.2375
26582SOL    HW181753   8.596   4.902   5.892  0.7243 -0.2211 -0.0475
26582SOL    HW281754   8.497   4.983   5.972 -1.5662 -2.5449 -0.3767
26583SOL     OW81755  10.615   0.574   9.056  0.3712 -1.2340  0.4492
26583SOL    HW181756  10.624   0.481   9.074  1.9285 -1.0402  0.8724
26583SOL    HW281757  10.693   0.596   9.005  0.6085  0.0463  1.3133
26584SOL     OW81758   7.846  10.846   1.877 -0.0842 -0.7745 -0.0302
26584SOL    HW181759   7.922  10.886   1.920  0.5458 -1.6179 -0.3246
26584SOL    HW281760   7.853  10.875   1.786 -1.6808  1.3993  0.4777
26585SOL     OW81761   6.046  10.272   8.955  0.5844  0.6615  0.2658
26585SOL    HW181762   5.995  10.205   8.910 -2.2418  0.5319  3.2571
26585SOL    HW281763   6.115  10.223   9.001  0.3041  0.1562  0.1528
26586SOL     OW81764   6.574   4.402   9.650  0.4526  0.7493 -0.1407
26586SOL    HW181765   6.664   4.394   9.681  1.6102 -0.2252 -3.3603
26586SOL    HW281766   6.536   4.316   9.663  1.8350 -0.5585 -3.5230
26587SOL     OW81767   2.163   9.541   9.577 -0.4482 -0.1207 -0.3859
26587SOL    HW181768   2.231   9.609   9.582 -1.0896  0.4843  0.2170
26587SOL    HW281769   2.081   9.587   9.596 -1.3825 -0.3526 -3.3621
26588SOL     OW81770   5.682   9.070   6.136  0.2019  0.9163 -0.3853
26588SOL    HW181771   5.664   9.139   6.072  1.5814  1.2816 -0.4130
26588SOL    HW281772   5.643   8.992   6.097  1.6983  0.9461 -2.1524
26589SOL     OW81773   1.573   6.726   6.366  0.7844 -0.5253 -0.1852
26589SOL    HW181774   1.560   6.781   6.289  1.4120  0.3215  0.2919
26589SOL    HW281775   1.638   6.661   6.338  1.2168 -0.0529 -0.3095
26590SOL     OW81776   6.916   3.910   3.797  0.4696  0.0184 -0.1823
26590SOL    HW181777   6.950   3.999   3.808  1.5108 -0.4193  0.3102
26590SOL    HW281778   6.970   3.856   3.856  0.5357 -1.0979 -1.2193
26591SOL     OW81779   2.090   4.339   3.630 -0.4703 -0.0687 -0.4807
26591SOL    HW181780   2.039   4.264   3.601  0.7388 -0.2182 -2.4042
26591SOL    HW281781   2.034   4.415   3.611 -1.1760 -0.3888  0.2743
26592SOL     OW81782   5.899   1.391   6.962  0.8437  0.3378  0.0792
26592SOL    HW181783   5.983   1.405   7.007  1.0552 -1.6907  0.4433
26592SOL    HW281784   5.837   1.372   7.033 -0.0846  2.3481 -0.1516
26593SOL     OW81785   4.933   0.935   4.683  0.4608  0.1652  0.3564
26593SOL    HW181786   4.985   0.943   4.603 -0.9053  1.4767 -0.4486
26593SOL    HW281787   4.956   1.012   4.734 -1.1734  1.2076 -0.3642
26594SOL     OW81788   4.382   8.051   4.549  0.0370  0.5183 -0.3087
26594SOL    HW181789   4.446   8.018   4.486 -0.2108  0.8704 -0.7589
26594SOL    HW281790   4.419   8.134   4.580  0.7617 -0.2617  0.9823
26595SOL     OW81791  10.659   4.490   5.752  0.1968 -0.1774 -0.0127
26595SOL    HW181792  10.727   4.545   5.713  1.3401 -0.7410  1.1314
26595SOL    HW281793  10.662   4.509   5.845  0.0356 -1.5351  0.2942
26596SOL     OW81794   7.179   2.039   8.502 -0.0774  0.1841  0.5835
26596SOL    HW181795   7.253   1.990   8.538  0.0076 -0.9148 -0.9648
26596SOL    HW281796   7.103   1.984   8.519 -0.0913 -0.1483 -0.4842
26597SOL     OW81797   2.071   0.350   0.738  0.0720  0.2547 -0.2102
26597SOL    HW181798   2.121   0.410   0.682  1.6442 -1.4182 -0.6924
26597SOL    HW281799   2.017   0.299   0.677 -0.4793  0.4632  0.0981
26598SOL     OW81800   7.631   7.044   9.294 -0.3297  0.2688 -0.0853
26598SOL    HW181801   7.640   7.063   9.387  1.4264 -0.1164 -0.1459
26598SOL    HW281802   7.579   6.964   9.291  0.3765 -0.2302  0.6151
26599SOL     OW81803   9.854   1.576   2.177 -0.9083  0.0293  0.2979
26599SOL    HW181804   9.813   1.629   2.245 -0.9748  2.1351 -1.2797
26599SOL    HW281805   9.874   1.639   2.107 -0.2262 -1.9252 -1.3417
26600SOL     OW81806   8.906   9.680   1.334 -0.2703 -0.3586 -0.7123
26600SOL    HW181807   8.883   9.601   1.285  0.3175 -0.8200 -0.2607
26600SOL    HW281808   8.977   9.721   1.283  0.9833 -1.3287  0.1945
26601SOL     OW81809   9.195  10.398  10.847  0.4482 -0.2095  0.1981
26601SOL    HW181810   9.283  10.364  10.835  0.0511 -0.5850 -2.0987
26601SOL    HW281811   9.145  10.363  10.773 -1.5926  0.1326  1.3267
26602SOL     OW81812   5.980   0.435   9.579 -0.2819  0.4734  0.0029
26602SOL    HW181813   6.076   0.433   9.573 -0.3363  0.8685 -1.3021
26602SOL    HW281814   5.950   0.384   9.504 -1.0895  1.9815 -0.7445
26603SOL     OW81815   4.854   4.534   2.582 -0.5034  0.1111 -0.2214
26603SOL    HW181816   4.758   4.540   2.583 -0.4859  2.9750 -2.2843
26603SOL    HW281817   4.871   4.455   2.530 -1.7242 -0.4379  0.1540
26604SOL     OW81818   7.620   3.040   3.029  0.5362  0.3472  0.0240
26604SOL    HW181819   7.667   3.021   3.110 -0.1545 -1.4549  0.0581
26604SOL    HW281820   7.535   3.073   3.059 -0.0451 -1.1257  0.1088
26605SOL     OW81821   8.621   2.150   5.864  0.7105 -0.1611 -0.3407
26605SOL    HW181822   8.700   2.167   5.915 -0.3916  1.2962  0.9813
26605SOL    HW281823   8.611   2.226   5.807 -0.2912  0.2027  0.2869
26606SOL     OW81824   1.895   6.990   0.307 -0.0408  0.1948  0.0025
26606SOL    HW181825   1.880   6.920   0.370 -0.2149  0.0610 -0.1823
26606SOL    HW281826   1.990   6.999   0.302  0.0855 -1.4862 -1.5279
26607SOL     OW81827   8.816   1.923   8.533 -0.4881  0.0398  0.8093
26607SOL    HW181828   8.888   1.906   8.594 -1.1429 -0.7487  1.3860
26607SOL    HW281829   8.857   1.965   8.458  0.6049 -0.5850  1.0403
26608SOL     OW81830  10.161   1.592   3.468  0.0071  0.2859  0.4461
26608SOL    HW181831  10.180   1.682   3.492  2.0879  0.3015 -1.0156
26608SOL    HW281832  10.145   1.594   3.374  0.0144 -0.8744  0.3986
26609SOL     OW81833   2.128   9.098   1.854  0.1619 -0.5344  0.5578
26609SOL    HW181834   2.195   9.044   1.813  1.0778 -0.7652  2.2675
26609SOL    HW281835   2.170   9.184   1.866 -0.8576  0.2292 -0.9974
26610SOL     OW81836   1.603   8.477  10.918  0.3562  0.1560  0.1991
26610SOL    HW181837   1.635   8.474  10.828  0.0173  0.6068  0.0642
26610SOL    HW281838   1.563   8.563  10.927 -0.4682 -0.2411  0.4897
26611SOL     OW81839   4.966   9.783   7.264 -0.1806  0.7472  0.3136
26611SOL    HW181840   4.905   9.777   7.191 -0.5264  0.6666  0.6038
26611SOL    HW281841   5.005   9.695   7.269 -0.3859  0.6597  0.4175
26612SOL     OW81842   4.571   9.509   5.266 -0.1287  0.4468 -0.0502
26612SOL    HW181843   4.484   9.484   5.298 -0.4645  2.0540  0.3653
26612SOL    HW281844   4.567   9.493   5.171 -0.4826 -0.5351  0.1165
26613SOL     OW81845  10.748   8.199   8.896 -0.1973 -0.2057  0.3356
26613SOL    HW181846  10.761   8.107   8.870  4.0029 -0.4718  2.5582
26613SOL    HW281847  10.761   8.248   8.815 -2.5354 -1.4353 -0.9001
26614SOL     OW81848   9.606   7.741  10.188  0.1886 -0.4637 -0.2590
26614SOL    HW181849   9.568   7.707  10.269  0.5721  0.7262  0.4427
26614SOL    HW281850   9.555   7.820  10.169 -0.9658 -1.5622 -2.0949
26615SOL     OW81851   4.871   9.507   4.715  0.5435  0.1567 -0.0845
26615SOL    HW181852   4.851   9.414   4.723  1.7515 -0.2029 -0.9789
26615SOL    HW281853   4.788   9.551   4.733  0.4156 -0.9645  2.5321
26616SOL     OW81854   8.313   0.392   7.678  0.0540 -0.8341  0.3294
26616SOL    HW181855   8.223   0.400   7.647  0.3925 -0.2270 -0.5139
26616SOL    HW281856   8.339   0.303   7.656 -0.6422 -1.3318  1.4287
26617SOL     OW81857   5.320  10.395  10.665  0.0463  0.7427 -0.5687
26617SOL    HW181858   5.231  10.414  10.634 -0.4814  0.6288  0.8185
26617SOL    HW281859   5.376  10.451  10.611 -0.7741  0.2026 -2.0367
26618SOL     OW81860   5.591   6.409   9.224 -0.2255  0.2266 -0.1377
26618SOL    HW181861   5.529   6.404   9.296  1.4005 -1.4053  1.2712
26618SOL    HW281862   5.588   6.500   9.195 -2.0749  0.5471  0.9111
26619SOL     OW81863   1.254   0.849   5.413 -0.0766  0.0065  0.5523
26619SOL    HW181864   1.245   0.928   5.361  1.1159  0.3662  0.8640
26619SOL    HW281865   1.214   0.780   5.359 -0.8919  0.7559  0.1697
26620SOL     OW81866   4.809   2.390   3.549  0.1227 -0.1866 -0.4348
26620SOL    HW181867   4.728   2.345   3.523 -0.0723  0.2163 -0.5279
26620SOL    HW281868   4.858   2.323   3.596  0.0020 -0.6104 -0.8964
26621SOL     OW81869   7.940   1.374   2.131  0.3354 -0.5889  0.1640
26621SOL    HW181870   7.995   1.309   2.175  0.2580 -0.2896  0.7061
26621SOL    HW281871   7.852   1.337   2.133  0.7018 -1.8304 -2.1172
26622SOL     OW81872   9.681   6.428   9.339 -0.6059 -0.4184 -0.4786
26622SOL    HW181873   9.626   6.351   9.327 -0.0144 -0.6533 -1.8421
26622SOL    HW281874   9.768   6.394   9.357 -0.4449 -0.0694 -0.5731
26623SOL     OW81875   1.092   6.960   4.794 -0.1262 -0.2558  0.1089
26623SOL    HW181876   1.080   7.024   4.864 -0.4324 -0.1570 -0.0314
26623SOL    HW281877   1.140   6.888   4.835  0.1622  0.0370  0.2805
26624SOL     OW81878   6.110   2.523   5.635 -0.2433 -0.0897 -0.9320
26624SOL    HW181879   6.014   2.514   5.637 -0.0956 -2.6741  1.7860
26624SOL    HW281880   6.127   2.599   5.690 -0.7303 -0.5111 -0.1742
26625SOL     OW81881   9.511   2.187   8.504  0.3744  0.1498  0.4497
26625SOL    HW181882   9.447   2.237   8.453 -2.5476 -2.0355  1.6378
26625SOL    HW281883   9.537   2.116   8.445 -0.8661 -0.7838  0.9686
26626SOL     OW81884   2.838  10.008   5.433 -0.8259 -0.2551 -0.2466
26626SOL    HW181885   2.743   9.996   5.444 -0.7828  0.6472  1.4972
26626SOL    HW281886   2.864   9.941   5.370 -2.3158 -1.8312  0.7319
26627SOL     OW81887   4.176   0.662   6.433 -0.2840  0.0551 -0.6829
26627SOL    HW181888   4.110   0.646   6.366 -0.3848  0.8193 -0.7818
26627SOL    HW281889   4.255   0.687   6.385 -0.4192  0.8176 -0.5238
26628SOL     OW81890   3.839   8.490   2.930 -0.4412 -0.8989 -0.0035
26628SOL    HW181891   3.855   8.500   3.023  1.9936  2.5238 -0.5800
26628SOL    HW281892   3.917   8.446   2.896  1.2061  2.3059 -0.8745
26629SOL     OW81893   4.758   5.858   7.242 -0.6701  0.1147 -0.3547
26629SOL    HW181894   4.741   5.931   7.300  0.9828  1.5034 -1.5141
26629SOL    HW281895   4.737   5.890   7.154 -0.2903 -0.9123 -0.8477
26630SOL     OW81896   7.713   8.892   0.213 -0.2103  0.0071  0.0791
26630SOL    HW181897   7.769   8.969   0.203 -0.1381 -0.0259  0.2298
26630SOL    HW281898   7.771   8.818   0.195 -0.0381 -0.0613  0.9035
26631SOL     OW81899   5.961   5.085   2.502  0.3777 -0.2451 -0.6412
26631SOL    HW181900   6.054   5.096   2.483  0.8664 -1.7113  0.6194
26631SOL    HW281901   5.917   5.091   2.418  1.5183  1.2234 -1.1663
26632SOL     OW81902  10.348   6.938   3.177 -0.0253  0.4119 -0.3944
26632SOL    HW181903  10.317   6.967   3.092  0.3879  0.5212 -0.5147
26632SOL    HW281904  10.439   6.910   3.161  0.8661  2.5869  0.4150
26633SOL     OW81905   4.978   0.702   0.622 -0.2450 -0.7391  0.0455
26633SOL    HW181906   5.070   0.693   0.648 -0.0209  0.7706 -0.1654
26633SOL    HW281907   4.979   0.696   0.527 -0.4427 -1.2691  0.0730
26634SOL     OW81908   6.599   2.578   5.852  0.3054 -0.0233 -0.4106
26634SOL    HW181909   6.505   2.583   5.871  0.1437  0.6873 -1.3242
26634SOL    HW281910   6.605   2.534   5.767  1.0495 -3.7101  1.3646
26635SOL     OW81911   1.146   6.863   0.117 -0.1106 -0.1100 -0.5159
26635SOL    HW181912   1.091   6.787   0.136 -0.2071 -0.3199 -1.5596
26635SOL    HW281913   1.234   6.827   0.107  0.1614  0.1716  0.7574
26636SOL     OW81914   6.126   4.024   9.902  0.2717  0.6828 -0.1676
26636SOL    HW181915   6.219   4.005   9.909 -0.5707 -3.7593  1.8798
26636SOL    HW281916   6.097   4.037   9.992 -1.5293 -1.1959 -0.4084
26637SOL     OW81917   5.046   9.706   4.976 -0.0424 -0.0740  0.7065
26637SOL    HW181918   4.959   9.739   4.952 -0.2007  2.7598  4.1886
26637SOL    HW281919   5.028   9.635   5.038  0.0136  0.8968  1.8800
26638SOL     OW81920   2.020   1.514  10.932  0.1781  0.3896  0.4124
26638SOL    HW181921   2.041   1.552  10.847  0.9639  1.6591  1.1460
26638SOL    HW281922   2.101   1.471  10.960  0.3563  1.1229  1.0833
26639SOL     OW81923   5.590   9.835   1.951 -0.6299 -0.3295 -0.0798
26639SOL    HW181924   5.533   9.772   1.906 -1.0920  0.9195 -1.3524
26639SOL    HW281925   5.666   9.844   1.893 -0.1522 -0.3895  0.5363
26640SOL     OW81926   4.547   5.767   9.367 -0.0998 -0.3098  0.0921
26640SOL    HW181927   4.602   5.826   9.316 -1.4215  0.3504 -0.6430
26640SOL    HW281928   4.542   5.807   9.454  1.1918 -0.7943  0.3974
26641SOL     OW81929   2.142   6.679   9.757 -0.1175 -0.0973 -1.0811
26641SOL    HW181930   2.212   6.657   9.696  0.4854 -0.3484 -0.3026
26641SOL    HW281931   2.139   6.606   9.819 -1.7266 -0.5787 -1.6622
26642SOL     OW81932   3.357   4.952   2.859  0.4874  0.1026 -0.5863
26642SOL    HW181933   3.337   4.972   2.768 -1.9020 -1.7052 -0.5657
26642SOL    HW281934   3.337   4.859   2.868  1.2418  0.0864  1.6620
26643SOL     OW81935   7.163   5.224   6.341 -0.7730  0.0935  0.1836
26643SOL    HW181936   7.164   5.300   6.399  1.2078  1.3687 -1.3748
26643SOL    HW281937   7.116   5.254   6.263  1.1125  0.2148 -0.9620
26644SOL     OW81938   3.688   2.806   9.289  0.1292 -0.0986 -0.5846
26644SOL    HW181939   3.655   2.721   9.321 -0.3935 -0.2573 -1.5108
26644SOL    HW281940   3.735   2.842   9.364  2.2608 -2.1683 -0.8187
26645SOL     OW81941   8.327   8.958   5.747  0.6807  0.6816  0.0147
26645SOL    HW181942   8.364   9.002   5.671 -1.4463  1.7746 -0.4747
26645SOL    HW281943   8.306   9.030   5.808 -2.0923  0.4001 -0.4578
26646SOL     OW81944   4.135   2.555   2.030 -0.2018 -0.1783 -0.0938
26646SOL    HW181945   4.196   2.622   1.998  1.0295 -1.6015 -0.9019
26646SOL    HW281946   4.061   2.558   1.969 -0.3411  0.6980  0.1109
26647SOL     OW81947   2.069   7.549   7.442 -0.4788 -0.3678 -0.4888
26647SOL    HW181948   2.074   7.506   7.356  0.3802 -1.7590  0.2185
26647SOL    HW281949   2.158   7.582   7.457 -0.8070  0.5162 -0.4396
26648SOL     OW81950   1.395  10.636   3.141  0.8554  0.1437  0.2379
26648SOL    HW181951   1.425  10.694   3.211  0.6172  2.5861 -1.5576
26648SOL    HW281952   1.307  10.609   3.169  0.5471  1.5053  0.6608
26649SOL     OW81953   7.370   8.572   6.984 -0.1699 -0.2555 -0.6774
26649SOL    HW181954   7.299   8.539   7.039 -0.8507  2.2932  0.1094
26649SOL    HW281955   7.328   8.596   6.902  0.2626 -1.0200 -1.1371
26650SOL     OW81956   9.137   3.911   8.856  0.4445 -0.2528 -0.0968
26650SOL    HW181957   9.163   3.834   8.806  1.0163  0.8708 -1.6524
26650SOL    HW281958   9.181   3.902   8.940  0.3385 -1.7050 -0.1825
26651SOL     OW81959   6.014   5.334   3.932 -0.0155  0.3143  0.0991
26651SOL    HW181960   5.921   5.345   3.912 -0.3538 -0.2893  1.2668
26651SOL    HW281961   6.033   5.401   3.998  0.6665  1.1413 -0.8850
26652SOL     OW81962   3.127   3.034   0.221 -0.0704 -0.0262 -0.2052
26652SOL    HW181963   3.184   3.010   0.294 -0.1259  0.0374 -0.1402
26652SOL    HW281964   3.138   2.964   0.157  2.0741  1.2409 -1.3431
26653SOL     OW81965   3.309   8.244   1.363 -0.1374 -0.0713 -0.2076
26653SOL    HW181966   3.275   8.180   1.425  0.9398 -0.8680 -0.4141
26653SOL    HW281967   3.349   8.312   1.417  2.7267 -1.8074  0.0580
26654SOL     OW81968   0.495   6.155   7.640  0.2238 -0.1672 -0.3330
26654SOL    HW181969   0.431   6.179   7.573  0.3225  1.0164 -0.0176
26654SOL    HW281970   0.524   6.238   7.677  1.8978 -0.6695 -0.4098
26655SOL     OW81971   4.521  10.092   0.047 -0.3480  0.1498  0.1869
26655SOL    HW181972   4.486  10.163   0.101 -0.6618 -1.1123  1.7076
26655SOL    HW281973   4.473  10.014   0.075  0.6722 -0.8507 -0.7347
26656SOL     OW81974   2.515  10.637   3.720 -0.3288  0.0145 -0.1496
26656SOL    HW181975   2.528  10.669   3.809 -1.5224 -2.6119  1.1102
26656SOL    HW281976   2.472  10.709   3.674 -0.6194  1.0980  1.7107
26657SOL     OW81977   8.311   1.473  10.168  0.4643 -0.2857 -0.1894
26657SOL    HW181978   8.277   1.398  10.217  0.1644 -0.1550 -0.1942
26657SOL    HW281979   8.235   1.509  10.123  0.9926 -1.2812 -1.9518
26658SOL     OW81980   9.866   4.507   6.993  0.1107  0.3425 -0.1190
26658SOL    HW181981   9.909   4.433   6.951 -0.0487 -0.2429  0.7263
26658SOL    HW281982   9.859   4.482   7.085 -1.2786  0.7684 -0.0812
26659SOL     OW81983   7.107   4.853  10.113  0.1080 -0.2677 -0.2152
26659SOL    HW181984   7.178   4.844  10.049  1.0086  0.2998  0.6626
26659SOL    HW281985   7.151   4.847  10.198 -0.6242  1.8068  0.3831
26660SOL     OW81986   2.654   2.839  10.855 -0.0010  0.0141  0.2515
26660SOL    HW181987   2.689   2.763  10.808  0.2031 -1.4137  2.5788
26660SOL    HW281988   2.560   2.823  10.861  0.1640 -0.5634  1.5539
26661SOL     OW81989   2.666   2.855   6.046  0.1870 -0.1394  0.0016
26661SOL    HW181990   2.590   2.834   6.101  0.1224 -0.4069 -0.1842
26661SOL    HW281991   2.629   2.903   5.972  0.3296  0.6017  0.4029
26662SOL     OW81992   4.867   4.713   4.827  0.0420  0.0594 -0.1643
26662SOL    HW181993   4.799   4.706   4.760  0.2917 -0.1851 -0.3942
26662SOL    HW281994   4.829   4.670   4.904 -0.7862  1.5369  0.2992
26663SOL     OW81995   5.451   1.056   4.581  0.5326  0.7041 -0.0295
26663SOL    HW181996   5.495   1.138   4.558  2.5478 -0.5857 -1.0923
26663SOL    HW281997   5.507   1.018   4.648 -0.1385 -0.0322  0.1243
26664SOL     OW81998   2.342   4.964   7.723 -0.4913  0.1846  0.1932
26664SOL    HW181999   2.259   5.009   7.736 -1.4548 -1.4622  0.0624
26664SOL    HW282000   2.337   4.928   7.634  0.9239  1.1253 -0.3141
26665SOL     OW82001   6.062   3.321   9.166 -0.0249 -0.1017  0.7640
26665SOL    HW182002   5.977   3.321   9.209 -0.6858  0.5599 -0.4813
26665SOL    HW282003   6.099   3.408   9.185 -1.2098  1.0098 -1.5770
26666SOL     OW82004   8.996   6.721   0.982 -0.4588 -0.0521  0.0484
26666SOL    HW182005   8.963   6.651   1.038  0.7764 -0.7696 -0.0698
26666SOL    HW282006   8.970   6.694   0.893 -0.6373  0.0216  0.0792
26667SOL     OW82007   1.510   7.566   0.008 -0.8000 -0.0832  0.0902
26667SOL    HW182008   1.416   7.573   0.025 -0.4749  0.9215  1.7449
26667SOL    HW282009   1.541   7.500   0.070 -0.0558  1.4260  1.4196
26668SOL     OW82010   6.144   0.182   6.217  0.4935 -0.0323  0.1211
26668SOL    HW182011   6.221   0.126   6.220  0.5038  0.0180  0.9201
26668SOL    HW282012   6.070   0.122   6.229  0.3739 -0.1166 -0.8956
26669SOL     OW82013   4.990   6.510   7.924 -0.0289 -0.1174  0.3838
26669SOL    HW182014   4.923   6.445   7.945  0.2508 -0.4762  0.1706
26669SOL    HW282015   4.969   6.584   7.981 -2.0575  0.7354 -1.3253
26670SOL     OW82016  10.880   5.422   5.180  0.5300 -0.5988  0.1749
26670SOL    HW182017  10.836   5.339   5.198  0.8626 -0.5321  1.3261
26670SOL    HW282018  10.909   5.413   5.089  0.0462 -1.5004  0.0923
26671SOL     OW82019   8.487   7.474   9.536 -0.3176  0.7663  0.5100
26671SOL    HW182020   8.548   7.517   9.474  0.3634  0.8580  1.2303
26671SOL    HW282021   8.415   7.443   9.481  0.0430  1.2763 -0.2679
26672SOL     OW82022   6.612   0.383   6.383  0.1422 -0.0770 -0.3001
26672SOL    HW182023   6.614   0.462   6.437 -0.0416  0.2645 -0.7851
26672SOL    HW282024   6.704   0.356   6.377  0.0262 -0.9247  1.3291
26673SOL     OW82025   3.290   9.639   8.730  0.0163  0.0118  0.4463
26673SOL    HW182026   3.216   9.697   8.751 -0.3399  0.0247 -0.7416
26673SOL    HW282027   3.277   9.562   8.785 -0.8155  0.0727  0.3451
26674SOL     OW82028   8.941   3.275   0.792  0.0415  0.0315 -0.1569
26674SOL    HW182029   8.856   3.316   0.780  1.4734  2.6885 -2.4838
26674SOL    HW282030   8.936   3.194   0.742 -1.7467 -1.0507  1.6248
26675SOL     OW82031   9.117   0.222   2.180  0.1375  0.1933  0.2540
26675SOL    HW182032   9.038   0.196   2.133  0.6290  1.0086 -1.0976
26675SOL    HW282033   9.103   0.313   2.204  1.2940  0.9021 -1.5243
26676SOL     OW82034   5.589   4.128   9.754  0.3591 -0.0958  0.1361
26676SOL    HW182035   5.534   4.202   9.781  0.0723 -0.9841  2.2104
26676SOL    HW282036   5.651   4.165   9.692  0.1107  1.8545  0.9731
26677SOL     OW82037   8.253   1.700   1.338 -0.2581  0.3188 -0.0816
26677SOL    HW182038   8.249   1.648   1.257 -1.3154  0.8421 -0.3796
26677SOL    HW282039   8.231   1.638   1.407  1.3473 -0.3052 -0.0944
26678SOL     OW82040   9.539  10.419   9.637 -0.0817  0.4927  0.2868
26678SOL    HW182041   9.525  10.487   9.571 -1.2078  1.0108  1.0256
26678SOL    HW282042   9.531  10.465   9.721  0.8930 -0.2324  0.8024
26679SOL     OW82043   5.481   3.293   8.935 -0.1080 -0.3293 -0.3726
26679SOL    HW182044   5.563   3.258   8.971  0.5048 -2.0542 -3.1164
26679SOL    HW282045   5.412   3.241   8.976  0.3884 -0.7407 -0.0511
26680SOL     OW82046   8.766   4.874   2.778 -0.2863 -0.2188 -0.5844
26680SOL    HW182047   8.859   4.881   2.754 -0.5145 -0.5963 -1.6192
26680SOL    HW282048   8.749   4.780   2.779 -0.8355 -0.1302 -1.1324
26681SOL     OW82049   1.802   0.192  10.325  0.1643 -0.2064 -0.5480
26681SOL    HW182050   1.764   0.279  10.318  1.1263  0.2094 -0.6679
26681SOL    HW282051   1.854   0.194  10.406 -0.8995 -1.1064  0.1972
26682SOL     OW82052   3.561   9.956   7.268  0.0760  0.5282 -0.2295
26682SOL    HW182053   3.471   9.950   7.236 -0.6582  1.2376  1.5749
26682SOL    HW282054   3.606   9.882   7.227 -1.1713  0.4897 -1.6108
26683SOL     OW82055   5.968   6.826   4.725  0.3776  0.0580  0.1336
26683SOL    HW182056   5.970   6.915   4.762  1.1866  0.8528 -1.7007
26683SOL    HW282057   5.975   6.769   4.802 -2.9251  1.4347  1.6295
26684SOL     OW82058   3.263  10.754   3.492 -0.5903  0.6216  0.3146
26684SOL    HW182059   3.215  10.671   3.495 -0.5389  0.5494 -0.5013
26684SOL    HW282060   3.260  10.787   3.582  0.6009 -0.9523  0.9783
26685SOL     OW82061   7.580   6.992   4.247  0.5465 -0.3267  0.1707
26685SOL    HW182062   7.603   7.067   4.192 -2.2586  0.8256  0.3734
26685SOL    HW282063   7.662   6.968   4.290  2.3050  0.2941 -2.5763
26686SOL     OW82064   7.183   5.963   3.112  0.1600  0.0316 -0.5695
26686SOL    HW182065   7.102   5.919   3.084 -2.0699  0.8022  3.8215
26686SOL    HW282066   7.164   6.056   3.102  1.5198  0.2167 -1.7352
26687SOL     OW82067   1.806  10.880   1.145 -0.0781 -0.2605 -0.0255
26687SOL    HW182068   1.820  10.948   1.080 -0.4824  0.1641  0.3282
26687SOL    HW282069   1.760  10.924   1.216 -1.3409 -1.1602 -0.2727
26688SOL     OW82070  10.286   9.050   8.277  0.2122 -0.1933 -0.4827
26688SOL    HW182071  10.265   9.072   8.186  1.2085 -1.0399 -0.9381
26688SOL    HW282072  10.373   9.087   8.291  0.0404 -0.0164  0.1541
26689SOL     OW82073   0.083   8.484   4.734  0.3013  0.6072  0.3180
26689SOL    HW182074   0.006   8.541   4.735  1.4705  2.3769  3.2621
26689SOL    HW282075   0.047   8.396   4.741 -1.5419  1.3828  1.7739
26690SOL     OW82076   2.771   1.554   0.674 -0.5370  0.2182  0.6203
26690SOL    HW182077   2.845   1.589   0.625 -0.4047  0.4896  1.0064
26690SOL    HW282078   2.720   1.506   0.609 -1.2805  1.9806 -0.1530
26691SOL     OW82079   8.844   3.515   3.763 -0.1315  0.0787 -0.5406
26691SOL    HW182080   8.803   3.578   3.823 -0.0250 -1.0194  0.7181
26691SOL    HW282081   8.821   3.547   3.676 -1.4249  0.9651  0.0908
26692SOL     OW82082   5.700   0.701   3.579  0.3175  0.1316 -0.6760
26692SOL    HW182083   5.770   0.707   3.514 -0.8143  0.7799 -1.9129
26692SOL    HW282084   5.623   0.674   3.528 -0.5315  0.3421  0.4546
26693SOL     OW82085   8.368   5.797   8.731  0.1951  0.4730  0.0063
26693SOL    HW182086   8.325   5.763   8.809 -0.5341  2.2246  0.4301
26693SOL    HW282087   8.437   5.855   8.764 -0.6351  1.8652 -0.5819
26694SOL     OW82088   0.609   0.446   8.378  0.2250 -0.2391 -0.0592
26694SOL    HW182089   0.683   0.404   8.422 -0.2517 -1.4394 -0.3649
26694SOL    HW282090   0.557   0.373   8.343 -0.9333  0.5860 -0.1224
26695SOL     OW82091   1.904   7.565   7.635 -0.0898 -0.4715  0.2857
26695SOL    HW182092   1.956   7.534   7.561 -2.6108 -3.1163 -0.5748
26695SOL    HW282093   1.897   7.490   7.693 -1.1898  0.4258  1.3719
26696SOL     OW82094   8.085   5.233   3.221  0.4932 -0.1345  0.5648
26696SOL    HW182095   8.039   5.234   3.305  0.5133  2.9184  0.6749
26696SOL    HW282096   8.029   5.284   3.163  1.7848  0.1720 -0.4574
26697SOL     OW82097   2.271  10.660   6.900  0.1040 -0.2091 -0.1065
26697SOL    HW182098   2.192  10.633   6.947 -0.3691  1.0366 -0.1527
26697SOL    HW282099   2.238  10.704   6.821  0.8555 -0.2484 -0.4549
26698SOL     OW82100   6.075   4.139   7.329 -0.5367 -0.7880 -0.2533
26698SOL    HW182101   6.053   4.183   7.247 -1.3509  0.1968  0.4669
26698SOL    HW282102   6.153   4.185   7.361  0.1613 -1.5829 -0.7652
26699SOL     OW82103   1.294   5.930  10.398 -0.3097  0.5248  0.1497
26699SOL    HW182104   1.362   5.912  10.333 -1.2202  0.5190 -0.8132
26699SOL    HW282105   1.303   5.858  10.462 -2.3886 -2.2700 -2.4259
26700SOL     OW82106   9.513   2.202   1.297  0.3211 -0.3934  0.2442
26700SOL    HW182107   9.493   2.257   1.221 -2.2618  2.3497  2.6305
26700SOL    HW282108   9.597   2.234   1.328  0.0680  0.4170  0.1145
26701SOL     OW82109   7.147   9.417   1.908 -0.0847  0.0280  0.7189
26701SOL    HW182110   7.242   9.423   1.903 -0.2150  1.2086 -1.5776
26701SOL    HW282111   7.127   9.331   1.871  0.0479  0.3268 -0.0708
26702SOL     OW82112   1.044   8.919   3.993  0.5389 -0.0165 -0.3691
26702SOL    HW182113   0.952   8.914   4.021  0.7963 -1.0018  0.3271
26702SOL    HW282114   1.074   9.004   4.026 -0.3983  0.7743 -1.4869
26703SOL     OW82115   3.290  10.028   3.178  0.0276  0.7476  0.2073
26703SOL    HW182116   3.297  10.120   3.201  1.7723  0.4374  1.0900
26703SOL    HW282117   3.290   9.982   3.262  0.4975 -0.1145 -0.2494
26704SOL     OW82118   6.483   7.490   8.613 -0.2075  0.0758 -0.2194
26704SOL    HW182119   6.514   7.403   8.589  1.4757  0.1018  1.6535
26704SOL    HW282120   6.516   7.547   8.543  0.2762 -0.5145 -0.4866
26705SOL     OW82121   8.933   6.815  10.885  0.6639 -0.9374  0.5843
26705SOL    HW182122   8.937   6.811  10.981 -0.6420  0.4683  0.7419
26705SOL    HW282123   8.981   6.738  10.856  1.5274 -1.1282  2.3600
26706SOL     OW82124   4.547   0.886   7.576 -0.1470 -0.1448  0.0851
26706SOL    HW182125   4.464   0.840   7.563 -0.2204  0.1993 -0.6641
26706SOL    HW282126   4.612   0.816   7.582 -0.3063 -0.3618 -0.6993
26707SOL     OW82127   9.610   0.704   8.963  0.5076 -0.0050 -0.1776
26707SOL    HW182128   9.676   0.634   8.961  0.2248 -0.2642 -1.2041
26707SOL    HW282129   9.526   0.658   8.969  0.3610  0.2760 -0.0595
26708SOL     OW82130   3.731   3.738   9.872 -0.0755  0.2056  0.4490
26708SOL    HW182131   3.801   3.673   9.864 -0.9720 -0.6311 -0.8110
26708SOL    HW282132   3.682   3.711   9.949 -0.5447 -0.7353 -0.1659
26709SOL     OW82133   7.416  10.393   8.730  0.3312 -0.3093  0.0906
26709SOL    HW182134   7.430  10.467   8.789 -0.0271 -0.9483  0.9991
26709SOL    HW282135   7.502  10.351   8.725  0.7211  0.5898 -1.0331
26710SOL     OW82136   8.924   9.710   0.036  0.2833 -0.0179 -0.3365
26710SOL    HW182137   8.895   9.762  -0.040 -0.1131  2.2648  1.2647
26710SOL    HW282138   8.844   9.676   0.074  0.4104 -0.4603 -0.4601
26711SOL     OW82139   8.363  10.658   5.677  0.1055  0.2717 -0.3358
26711SOL    HW182140   8.405  10.619   5.754 -0.9528  0.0637  0.1452
26711SOL    HW282141   8.393  10.605   5.603  2.2882  1.3394 -0.2883
26712SOL     OW82142   0.248   6.601   6.693  0.2590 -0.1574 -0.6693
26712SOL    HW182143   0.317   6.566   6.751  0.7929  2.8857  0.7412
26712SOL    HW282144   0.279   6.581   6.605  1.2884 -1.7395  0.0047
26713SOL     OW82145   3.892  10.747   6.798  0.0708  0.1816  0.7635
26713SOL    HW182146   3.955  10.819   6.794  0.2377 -0.0044 -0.0705
26713SOL    HW282147   3.817  10.778   6.748  0.5063 -0.5719 -0.3886
26714SOL     OW82148   1.948   6.384   4.959  0.6798  0.7970  1.0021
26714SOL    HW182149   2.018   6.335   5.001  0.2704 -0.9254 -0.1716
26714SOL    HW282150   1.976   6.475   4.962  2.0454  0.3678  2.2393
26715SOL     OW82151   5.158   6.899   3.382  0.8677  0.3274 -0.5045
26715SOL    HW182152   5.125   6.869   3.297 -0.7269  0.0274  0.1943
26715SOL    HW282153   5.237   6.846   3.397  0.2201 -0.8291 -1.0289
26716SOL     OW82154   8.762   5.386   2.592  0.2525  0.1294 -0.4390
26716SOL    HW182155   8.748   5.295   2.567 -0.4643 -0.3755  1.6643
26716SOL    HW282156   8.686   5.433   2.558  0.3279 -0.1483 -1.0004
26717SOL     OW82157   2.913   5.342   7.411 -0.1099 -0.0860  0.2397
26717SOL    HW182158   2.873   5.313   7.493  0.0649 -0.8468  0.0632
26717SOL    HW282159   2.967   5.418   7.436 -2.2800  1.5189  0.3373
26718SOL     OW82160   6.892   0.424   1.203 -0.4421 -0.2573  0.3309
26718SOL    HW182161   6.828   0.492   1.179  0.1700  0.4172  0.5547
26718SOL    HW282162   6.939   0.461   1.278  0.0607 -0.8277  0.3046
26719SOL     OW82163   7.065   1.502   6.527  0.3314  0.2257 -0.1376
26719SOL    HW182164   7.020   1.580   6.493 -0.0378 -0.6912 -1.8997
26719SOL    HW282165   7.000   1.460   6.584  0.7681  1.5122  1.3783
26720SOL     OW82166   8.193  10.580  10.897  0.1410 -0.1461  0.0856
26720SOL    HW182167   8.188  10.545  10.808  2.4277 -0.0965 -0.1250
26720SOL    HW282168   8.225  10.507  10.949  3.4543  1.0449 -0.0769
26721SOL     OW82169   6.803   2.548   6.369 -0.1681  0.4213 -0.6374
26721SOL    HW182170   6.757   2.620   6.412  0.9399  0.0473  1.2645
26721SOL    HW282171   6.803   2.572   6.276 -2.0924  1.5672 -0.3938
26722SOL     OW82172   2.148   6.855   4.928  0.7423 -0.1171 -0.5475
26722SOL    HW182173   2.201   6.873   5.006  1.6084  0.7541 -1.2992
26722SOL    HW282174   2.191   6.905   4.859 -1.0280  0.5573 -1.2143
26723SOL     OW82175   6.358   0.766   6.776 -0.1042  0.4223  0.5185
26723SOL    HW182176   6.367   0.672   6.791  0.5297  0.1894 -1.0909
26723SOL    HW282177   6.265   0.783   6.786 -0.1817 -0.3148  1.1389
26724SOL     OW82178   4.385   0.438   2.395 -0.3731  0.6408  0.0645
26724SOL    HW182179   4.432   0.367   2.351 -0.8922 -0.0435  0.5910
26724SOL    HW282180   4.421   0.439   2.483 -1.0171  0.4037  0.3379
26725SOL     OW82181   3.395   7.572   4.565 -0.1402  0.0659  0.2129
26725SOL    HW182182   3.307   7.557   4.599 -0.3577 -0.0069 -0.3706
26725SOL    HW282183   3.442   7.490   4.581  0.4684  0.7543  2.3965
26726SOL     OW82184   5.954   7.701   9.377 -0.0212 -0.2690  0.3843
26726SOL    HW182185   6.008   7.666   9.306  0.6849 -1.8062  1.6209
26726SOL    HW282186   6.007   7.687   9.456 -0.6590  1.6791  1.1956
26727SOL     OW82187   6.336   2.651   7.078  0.3097  0.0441  0.3901
26727SOL    HW182188   6.384   2.669   6.997  0.7126  0.0235  0.6210
26727SOL    HW282189   6.386   2.581   7.121 -2.0619 -2.8655 -1.2190
26728SOL     OW82190   5.073   9.622   8.735  0.6177 -0.6028  0.0173
26728SOL    HW182191   5.084   9.680   8.810 -0.4555  2.3729 -1.9458
26728SOL    HW282192   4.979   9.622   8.718  0.9341 -0.2027 -1.9913
26729SOL     OW82193   6.049   5.429   8.370  0.2930  0.4995  0.1745
26729SOL    HW182194   5.984   5.390   8.313 -1.0726  1.2980  1.1314
26729SOL    HW282195   6.128   5.376   8.358 -0.0315  0.4811 -2.2061
26730SOL     OW82196   8.618   0.741   9.675  0.0720  0.2493  0.3862
26730SOL    HW182197   8.554   0.695   9.621 -0.7606  1.3414  0.3948
26730SOL    HW282198   8.695   0.685   9.675  0.1549  0.2773 -2.0414
26731SOL     OW82199   9.246   2.630   6.978  0.0592  0.3804 -0.0855
26731SOL    HW182200   9.294   2.608   6.899  0.1305 -1.8929  0.5189
26731SOL    HW282201   9.158   2.651   6.948  0.1197 -0.3175 -0.7641
26732SOL     OW82202   8.674   1.710   8.425  0.4517 -0.1928 -0.2730
26732SOL    HW182203   8.732   1.659   8.369  2.2607 -0.9005  2.0616
26732SOL    HW282204   8.730   1.782   8.457 -0.9326  1.0064 -0.4526
26733SOL     OW82205   4.509   6.024  10.312 -0.0527 -0.0843 -0.5425
26733SOL    HW182206   4.455   5.945  10.311  2.0484 -1.6185  0.0546
26733SOL    HW282207   4.455   6.090  10.268 -1.6776 -1.9727 -1.5624
26734SOL     OW82208   7.141   2.091   6.117  0.4417  0.2394 -0.0757
26734SOL    HW182209   7.086   2.142   6.058 -0.9805  0.7462  1.5791
26734SOL    HW282210   7.106   2.002   6.110  0.8471  0.1203 -0.6264
26735SOL     OW82211  10.461   4.735  10.240  0.2743  0.5051 -0.3682
26735SOL    HW182212  10.487   4.749  10.149  0.1485  0.7288 -0.3712
26735SOL    HW282213  10.502   4.807  10.288  0.6625  0.1667 -0.1854
26736SOL     OW82214   5.732   6.422   1.089 -0.2546 -0.2635 -0.4304
26736SOL    HW182215   5.773   6.473   1.159 -0.3507 -1.3629  0.4494
26736SOL    HW282216   5.777   6.451   1.010 -0.2796  1.1467  0.0504
26737SOL     OW82217   0.427   8.581   5.644 -0.2411  0.0598  0.2197
26737SOL    HW182218   0.347   8.548   5.686  0.4032 -2.7649 -0.5248
26737SOL    HW282219   0.417   8.555   5.552  1.1075  0.5414 -0.0822
26738SOL     OW82220   0.734   2.301   2.420 -0.1023  0.5550  0.2388
26738SOL    HW182221   0.773   2.367   2.478  2.1622 -0.3567 -0.1608
26738SOL    HW282222   0.806   2.242   2.398 -1.4353 -0.4909 -1.6233
26739SOL     OW82223   5.725   5.274   0.975  0.1623  0.1594  0.1349
26739SOL    HW182224   5.642   5.317   0.955  0.5705  1.0833  0.3929
26739SOL    HW282225   5.787   5.345   0.988  1.2051 -0.5275 -0.8796
26740SOL     OW82226   5.545   7.048   6.124  0.1616  0.1696  0.2355
26740SOL    HW182227   5.584   7.131   6.152  1.3836  0.1263 -1.2247
26740SOL    HW282228   5.484   7.072   6.055  1.4890 -0.2185 -1.1274
26741SOL     OW82229   3.939   3.541   2.946 -0.1084  0.0465  0.2860
26741SOL    HW182230   3.953   3.447   2.954  0.5194  0.1906  1.0015
26741SOL    HW282231   3.925   3.556   2.852  0.1837 -0.7051  0.1203
26742SOL     OW82232   7.049   9.540   6.029 -0.3122  0.1042 -0.2636
26742SOL    HW182233   7.000   9.495   5.960  0.9015 -0.8012 -0.5464
26742SOL    HW282234   7.137   9.549   5.995  0.3524 -0.4599  1.2114
26743SOL     OW82235   6.582   4.577   8.114  0.4918  0.5903 -0.7063
26743SOL    HW182236   6.498   4.558   8.074 -0.9774 -0.5575  2.5222
26743SOL    HW282237   6.567   4.658   8.163  1.8187  1.2944 -1.4177
26744SOL     OW82238   4.979   9.357   8.123  0.1781  0.8025  0.0610
26744SOL    HW182239   5.023   9.418   8.064  1.1378 -2.1374 -2.5486
26744SOL    HW282240   4.917   9.310   8.067  1.2165 -2.2258  1.2252
26745SOL     OW82241  10.906  10.935   1.244 -0.3099 -0.2679 -0.7435
26745SOL    HW182242  10.939  10.846   1.234 -0.1607 -0.1274 -1.5876
26745SOL    HW282243  10.919  10.955   1.337 -0.9231 -1.3412 -0.4082
26746SOL     OW82244   7.710   8.094   5.718  0.0701 -0.5992  0.1898
26746SOL    HW182245   7.705   8.061   5.629  3.2522  1.0289 -0.7554
26746SOL    HW282246   7.685   8.186   5.711  1.2916 -0.1990  0.7121
26747SOL     OW82247   8.442   6.278   2.600 -0.2675  0.3346  0.4085
26747SOL    HW182248   8.452   6.308   2.690  0.1929  2.3071 -0.2581
26747SOL    HW282249   8.392   6.347   2.556 -2.6942 -1.6894 -0.3319
26748SOL     OW82250  10.828   3.472   5.461 -0.5735 -0.3366  0.4497
26748SOL    HW182251  10.809   3.477   5.368 -1.1296 -2.1667  0.4183
26748SOL    HW282252  10.743   3.482   5.503 -0.3724  0.1228  0.7605
26749SOL     OW82253   8.130   7.204   2.580  0.4892  0.3104 -0.3795
26749SOL    HW182254   8.208   7.155   2.606  0.0729  0.9268  2.2448
26749SOL    HW282255   8.161   7.294   2.570  0.2256  0.4521  0.0832
26750SOL     OW82256   9.197  10.416   6.424  0.5756 -0.5491 -0.3376
26750SOL    HW182257   9.180  10.478   6.495 -2.3181 -0.8005 -0.7280
26750SOL    HW282258   9.168  10.332   6.459  0.3626 -0.9074 -1.3664
26751SOL     OW82259   5.371   0.269   4.468  0.5166  0.2167 -0.2128
26751SOL    HW182260   5.359   0.182   4.429  1.1164 -0.7386  1.5860
26751SOL    HW282261   5.287   0.289   4.509  0.3441  0.5458 -0.7214
26752SOL     OW82262   7.024   7.561   7.613  0.1662 -0.2481  0.3703
26752SOL    HW182263   6.929   7.560   7.615  0.1561 -0.4399 -0.0704
26752SOL    HW282264   7.046   7.557   7.520  0.5948  0.9270  0.4082
26753SOL     OW82265   5.253   3.149   3.380  0.2370 -0.9211 -0.0020
26753SOL    HW182266   5.292   3.075   3.427 -0.8777 -2.2241 -1.0269
26753SOL    HW282267   5.170   3.164   3.425  0.3917 -0.3760  0.1068
26754SOL     OW82268   3.627   5.736   8.504 -0.8646  0.0137 -0.1611
26754SOL    HW182269   3.564   5.718   8.434 -0.6307  0.3837 -0.4744
26754SOL    HW282270   3.575   5.774   8.574 -0.8249  1.5122 -0.9060
26755SOL     OW82271   0.825   9.767   9.175 -0.2998  0.3323  0.1888
26755SOL    HW182272   0.847   9.781   9.083  2.0663  0.2413  0.6851
26755SOL    HW282273   0.893   9.813   9.224  0.0426 -1.8286  1.9021
26756SOL     OW82274   8.275   6.276   9.641 -0.3138 -0.0933  0.7219
26756SOL    HW182275   8.227   6.203   9.680 -1.8952  0.5174 -0.0054
26756SOL    HW282276   8.251   6.352   9.695 -0.4168  0.2836  0.1505
26757SOL     OW82277   9.497   9.065   1.498 -0.0752  0.2178 -0.2503
26757SOL    HW182278   9.572   9.073   1.439  0.3055 -0.1827  0.1795
26757SOL    HW282279   9.530   9.018   1.574 -0.5097  0.8946  0.3807
26758SOL     OW82280   2.110   4.971  10.076  0.0553  0.0055  0.0624
26758SOL    HW182281   2.155   4.892  10.107  1.2815  0.7962  0.3919
26758SOL    HW282282   2.019   4.960  10.104  0.1954 -1.3211  0.0291
26759SOL     OW82283   0.106   6.164   5.125 -0.0211 -0.0612  0.0118
26759SOL    HW182284   0.135   6.115   5.201 -0.1399 -0.3823 -0.1492
26759SOL    HW282285   0.010   6.163   5.131 -0.1487 -2.1173 -1.3932
26760SOL     OW82286   4.848   8.646   6.289 -0.4784  0.5309 -0.0055
26760SOL    HW182287   4.761   8.606   6.292 -0.5206  0.6691  0.7205
26760SOL    HW282288   4.907   8.579   6.321 -0.0926 -0.0974 -1.9170
26761SOL     OW82289   5.755  10.028   9.738 -0.8142  0.0662  0.1700
26761SOL    HW182290   5.686  10.003   9.798 -1.2833 -1.2408 -0.8496
26761SOL    HW282291   5.712  10.035   9.653 -0.2219  2.1147 -0.0128
26762SOL     OW82292   2.449   3.687   0.138 -0.2891 -0.8394  0.4583
26762SOL    HW182293   2.430   3.648   0.224 -1.1342  2.6185  2.0186
26762SOL    HW282294   2.459   3.781   0.156  0.8548 -0.1357 -3.0713
26763SOL     OW82295   7.092   3.126  10.927  0.4229  0.2604 -0.0551
26763SOL    HW182296   7.110   3.038  10.960  1.9285  0.0031 -1.3982
26763SOL    HW282297   7.054   3.172  11.002 -1.9123 -1.9299  0.2406
26764SOL     OW82298   4.690   2.853   5.811 -0.1069  0.1822 -0.5053
26764SOL    HW182299   4.634   2.835   5.886  0.1525  0.6873 -0.1861
26764SOL    HW282300   4.665   2.787   5.746 -1.7021  0.9369 -0.7232
26765SOL     OW82301   1.974   7.338   8.370 -0.6377 -0.0865 -0.2906
26765SOL    HW182302   2.037   7.311   8.437 -0.3947 -3.1307 -1.5744
26765SOL    HW282303   2.027   7.367   8.297 -0.8965  4.3134  0.9923
26766SOL     OW82304   5.935   9.724  10.917  0.0844  0.6451 -0.4425
26766SOL    HW182305   5.891   9.639  10.910 -0.5017  0.9064 -0.0179
26766SOL    HW282306   5.953   9.749  10.826 -1.1941  0.7989 -0.6793
26767SOL     OW82307   5.948   4.719   6.138 -0.1071 -0.1885 -0.0518
26767SOL    HW182308   6.001   4.651   6.179  0.8052 -0.2239 -1.2488
26767SOL    HW282309   5.858   4.692   6.154  0.1930 -0.2479  1.8123
26768SOL     OW82310   4.074   8.995   7.605  0.0655 -0.6711  0.2925
26768SOL    HW182311   3.979   8.982   7.600 -0.2906  1.6040  0.1841
26768SOL    HW282312   4.109   8.936   7.538 -1.1208 -2.4956  1.1939
26769SOL     OW82313   3.926   3.498   9.746 -0.8905 -0.1981 -0.6024
26769SOL    HW182314   3.959   3.413   9.774 -0.5716  0.5625  1.5385
26769SOL    HW282315   3.907   3.487   9.653  0.7985 -2.0796 -0.7898
26770SOL     OW82316   4.293   9.356   1.375  0.6966 -0.2648  0.0539
26770SOL    HW182317   4.333   9.346   1.462  0.8318 -0.4806 -0.0333
26770SOL    HW282318   4.201   9.335   1.389  0.7020 -0.2187  0.1612
26771SOL     OW82319   0.281   7.265   1.430  0.3155  0.1335  0.0245
26771SOL    HW182320   0.305   7.274   1.522 -2.6031  1.2411  0.7597
26771SOL    HW282321   0.186   7.259   1.430  0.2354 -0.0350 -2.9439
26772SOL     OW82322   8.866   8.604   3.817 -0.0634 -0.1470 -0.0566
26772SOL    HW182323   8.828   8.671   3.874 -1.0608 -0.5347 -0.2535
26772SOL    HW282324   8.792   8.569   3.768  0.5601 -0.8787 -0.4962
26773SOL     OW82325   0.080   0.693   6.738 -0.1657  0.3461  0.1287
26773SOL    HW182326   0.126   0.765   6.695  0.2937  0.3996  0.6944
26773SOL    HW282327   0.124   0.614   6.706  0.6137  0.4179  0.9972
26774SOL     OW82328   3.245   4.190   5.490 -0.0510  0.8058 -0.0920
26774SOL    HW182329   3.165   4.163   5.535 -0.2561  0.2976 -0.7565
26774SOL    HW282330   3.257   4.282   5.516  0.0011  0.4442  1.2345
26775SOL     OW82331   1.743   1.303   3.748 -0.2981 -0.1809  0.1282
26775SOL    HW182332   1.799   1.367   3.791 -0.0959  0.2112 -0.6905
26775SOL    HW282333   1.656   1.344   3.746 -0.7567 -0.9752  1.8022
26776SOL     OW82334  10.810   6.442   0.301 -0.1573  0.5359  0.6828
26776SOL    HW182335  10.812   6.353   0.335  0.6801 -0.0773 -0.8619
26776SOL    HW282336  10.846   6.496   0.371 -0.1386 -0.4208  1.4226
26777SOL     OW82337   7.508   1.851   6.303 -0.2096  0.3574  0.3362
26777SOL    HW182338   7.482   1.818   6.216  0.0674 -1.6296  0.9496
26777SOL    HW282339   7.602   1.864   6.296 -0.2236  0.4338  0.2790
26778SOL     OW82340   6.528   5.921   2.657  0.5865 -0.5434  0.2452
26778SOL    HW182341   6.512   5.884   2.744  2.5487  0.3890  1.0423
26778SOL    HW282342   6.577   6.001   2.673  2.1145 -1.0007 -1.7667
26779SOL     OW82343   5.788   3.440   4.809  0.0583  0.2507  0.3567
26779SOL    HW182344   5.749   3.518   4.768  0.9621  0.5420  0.0328
26779SOL    HW282345   5.845   3.475   4.878 -0.0602 -0.1629  0.6689
26780SOL     OW82346   2.106   5.575   0.283 -0.2371 -0.5690  0.2450
26780SOL    HW182347   2.167   5.564   0.356  0.9813 -2.4153 -0.9529
26780SOL    HW282348   2.029   5.526   0.309 -0.3705 -0.0262  0.8801
26781SOL     OW82349   0.680   3.583   9.782 -0.1180  0.3008 -0.6505
26781SOL    HW182350   0.726   3.500   9.797 -0.6786  0.0377 -0.3557
26781SOL    HW282351   0.631   3.569   9.701  0.2486  0.5543 -0.9212
26782SOL     OW82352   4.255   4.830   6.753 -0.0155 -0.4363 -0.1431
26782SOL    HW182353   4.311   4.902   6.782  0.4690 -0.6969 -0.4185
26782SOL    HW282354   4.213   4.798   6.833  1.1259 -1.0009  0.2455
26783SOL     OW82355   4.928   5.460   6.741  0.0855 -0.1331 -0.3248
26783SOL    HW182356   4.937   5.402   6.666 -0.0598  0.1435 -0.5572
26783SOL    HW282357   4.951   5.546   6.708 -0.5579  0.0941 -0.2072
26784SOL     OW82358   1.389   5.709   9.392 -0.4989 -0.1840  0.4765
26784SOL    HW182359   1.443   5.704   9.471  0.9474 -0.4072 -0.4712
26784SOL    HW282360   1.335   5.630   9.395 -1.0679  0.2297  1.6409
26785SOL     OW82361   6.812   3.233   3.166  0.3195  0.3144 -0.0505
26785SOL    HW182362   6.833   3.296   3.097 -1.3844 -0.5390 -1.4241
26785SOL    HW282363   6.898   3.199   3.194  1.3055  3.2685  0.8624
26786SOL     OW82364   8.957   7.778   5.045 -0.7445  0.3880  0.8385
26786SOL    HW182365   8.980   7.865   5.012 -1.5337 -0.2884 -1.7274
26786SOL    HW282366   9.032   7.723   5.021 -0.2388  0.3282  2.4659
26787SOL     OW82367   5.996   4.872   1.050 -0.1362 -0.1048  0.3733
26787SOL    HW182368   5.914   4.864   1.002 -0.7921 -1.0951  1.5835
26787SOL    HW282369   6.028   4.960   1.030 -1.4512  0.2646 -0.1920
26788SOL     OW82370  10.586   8.459   6.703 -0.1247  0.1300 -0.2571
26788SOL    HW182371  10.628   8.544   6.684 -1.5657  0.9380  0.0452
26788SOL    HW282372  10.555   8.428   6.618 -1.3631  0.8979 -0.1087
26789SOL     OW82373   4.766  10.596   7.211  0.4160  0.8032  0.0177
26789SOL    HW182374   4.836  10.585   7.275  1.8242 -0.4037 -1.6553
26789SOL    HW282375   4.686  10.576   7.260  1.5412 -1.2801  1.1345
26790SOL     OW82376   7.236   9.525   5.683  0.2450 -0.4292 -0.2537
26790SOL    HW182377   7.309   9.477   5.723 -2.2252 -2.6622  2.0374
26790SOL    HW282378   7.231   9.491   5.594  0.2381 -2.5186  0.4903
26791SOL     OW82379   1.990   6.506   2.267  0.2123  0.1221 -0.8721
26791SOL    HW182380   2.043   6.571   2.313 -1.5972  0.2180  1.2660
26791SOL    HW282381   1.902   6.542   2.267 -1.1232 -2.7158  1.4522
26792SOL     OW82382   4.592   7.007   9.760 -0.5145 -0.0115 -0.2081
26792SOL    HW182383   4.509   6.970   9.792  0.7299 -2.6660  0.2176
26792SOL    HW282384   4.585   7.002   9.664 -0.8468 -0.2112 -0.1743
26793SOL     OW82385   7.881   0.717   0.231  0.3242  0.1109 -0.4323
26793SOL    HW182386   7.909   0.625   0.227  1.2700  0.4158 -1.4064
26793SOL    HW282387   7.940   0.757   0.294  0.2450  0.1593 -0.3890
26794SOL     OW82388   6.329   5.897   6.357  0.8271 -0.2823 -0.0189
26794SOL    HW182389   6.375   5.941   6.428  0.0246  0.3481  0.1289
26794SOL    HW282390   6.282   5.967   6.312 -1.0414 -1.0446  0.6377
26795SOL     OW82391   5.623   2.731   6.896 -0.3021 -0.4346  0.1735
26795SOL    HW182392   5.699   2.764   6.849 -1.4827  0.1706 -1.3757
26795SOL    HW282393   5.660   2.685   6.972  1.5240  1.1544  0.3186
26796SOL     OW82394   9.637   6.758   3.337  0.1735  0.0125 -0.1930
26796SOL    HW182395   9.632   6.760   3.242 -0.9324  0.4392 -0.1453
26796SOL    HW282396   9.554   6.718   3.364  1.0412 -1.3578  0.5579
26797SOL     OW82397   4.800   9.309   9.916 -0.3727 -0.3397 -0.1277
26797SOL    HW182398   4.876   9.368   9.920 -0.8701  0.4269 -1.3813
26797SOL    HW282399   4.838   9.221   9.918  0.4259  0.0115  1.0762
26798SOL     OW82400   4.981   4.390   4.062  0.0795 -0.3158 -0.0966
26798SOL    HW182401   5.070   4.386   4.027 -0.7754 -1.1110 -2.3415
26798SOL    HW282402   4.981   4.326   4.133  1.1849 -0.6381 -0.3636
26799SOL     OW82403   6.035   4.315  10.538 -0.5088  0.0187 -0.1401
26799SOL    HW182404   6.083   4.299  10.619  0.0565 -3.2441 -0.9765
26799SOL    HW282405   5.948   4.343  10.567  0.0676  0.1739  1.5466
26800SOL     OW82406   8.992   6.226   4.839  0.3038  0.5299 -0.1165
26800SOL    HW182407   9.056   6.223   4.768  1.9691 -2.7675  1.3186
26800SOL    HW282408   9.022   6.298   4.894  1.9424  0.0151 -0.2701
26801SOL     OW82409   4.208   8.488   7.919 -0.5634 -0.0438  0.0351
26801SOL    HW182410   4.152   8.553   7.961 -0.3145  0.5147 -0.4886
26801SOL    HW282411   4.233   8.527   7.835 -0.5878 -0.9062 -0.3879
26802SOL     OW82412   5.695   1.777   0.967 -0.0000  0.3429  0.3070
26802SOL    HW182413   5.623   1.838   0.950 -0.5420 -0.4090 -0.1635
26802SOL    HW282414   5.687   1.711   0.898  0.5588 -0.2713  0.8152
26803SOL     OW82415   6.167   1.493   6.294 -0.2289  0.5533  0.6883
26803SOL    HW182416   6.181   1.412   6.342  0.6466 -0.0692 -0.5424
26803SOL    HW282417   6.074   1.493   6.271 -0.0395 -0.6346 -0.1692
26804SOL     OW82418   1.320   2.690   0.842 -0.0782 -0.1142  0.2187
26804SOL    HW182419   1.330   2.767   0.899  0.0255 -0.4168  0.6135
26804SOL    HW282420   1.240   2.648   0.873 -1.8566  1.4599 -1.9424
26805SOL     OW82421   6.375  10.304   1.429 -0.3833 -0.2796  0.2891
26805SOL    HW182422   6.450  10.286   1.371 -0.6589  0.4579 -0.3056
26805SOL    HW282423   6.371  10.227   1.486  1.4314  0.0916  0.9893
26806SOL     OW82424   6.512   8.771   0.713  0.6911 -0.1983 -0.0121
26806SOL    HW182425   6.483   8.784   0.623  0.5612 -1.4783 -0.1686
26806SOL    HW282426   6.433   8.786   0.766  0.4443 -0.7566 -0.2162
26807SOL     OW82427  10.915   6.999   9.979  0.2984  0.1991 -0.3024
26807SOL    HW182428  10.911   7.093   9.994 -0.7003  0.0664  0.3499
26807SOL    HW282429  10.910   6.961  10.067  0.2929 -0.4712 -0.5858
26808SOL     OW82430   3.533   2.297   4.531 -0.3069 -0.1547  0.0870
26808SOL    HW182431   3.481   2.377   4.533 -1.9554 -1.1978  0.6085
26808SOL    HW282432   3.483   2.238   4.475  0.8663 -0.8582 -0.2469
26809SOL     OW82433   5.684   5.504   5.883 -0.4976 -0.3784 -0.1953
26809SOL    HW182434   5.659   5.420   5.921  0.6907 -0.5446  0.2547
26809SOL    HW282435   5.657   5.498   5.791  0.2632 -1.5536 -0.3612
26810SOL     OW82436   8.025   4.034   3.183  0.0760  0.0580 -0.0808
26810SOL    HW182437   8.104   4.088   3.170  0.7310 -1.2378 -1.8081
26810SOL    HW282438   8.015   4.031   3.278  2.7392 -0.5551  0.2693
26811SOL     OW82439   2.308   2.265   2.951 -0.3722  0.0192 -0.6294
26811SOL    HW182440   2.236   2.326   2.968 -0.4910 -0.4606  0.6450
26811SOL    HW282441   2.372   2.317   2.903 -0.6840  1.0151  0.0025
26812SOL     OW82442   3.237   4.532   4.885 -0.1684 -0.6113 -0.5468
26812SOL    HW182443   3.150   4.503   4.858 -0.4631  0.5763 -0.9415
26812SOL    HW282444   3.266   4.589   4.814  0.5766 -0.3182 -0.0196
26813SOL     OW82445   3.079  10.647   4.643 -0.0323 -0.4420  0.4666
26813SOL    HW182446   3.058  10.571   4.589  0.5486 -0.1028 -0.2541
26813SOL    HW282447   3.000  10.700   4.641 -0.2099 -0.7094  0.4141
26814SOL     OW82448   0.718   1.985   1.477 -0.2948 -0.1257  0.3700
26814SOL    HW182449   0.725   2.074   1.443  0.5611 -0.4451 -0.3021
26814SOL    HW282450   0.663   1.940   1.414  0.5153 -0.4696 -0.0947
26815SOL     OW82451   5.434   3.318   6.598  0.1448  0.0110  0.0822
26815SOL    HW182452   5.404   3.366   6.675  0.3673 -0.3348  0.3881
26815SOL    HW282453   5.504   3.373   6.562  0.1243  0.1155  0.1994
26816SOL     OW82454   4.226   1.417   1.772 -0.2422 -0.5538 -0.5541
26816SOL    HW182455   4.293   1.441   1.708 -0.0052 -1.2033 -0.5519
26816SOL    HW282456   4.248   1.468   1.850  1.4493 -2.2025  0.1311
26817SOL     OW82457   2.230   8.278   9.648  0.3673 -0.5838  0.2122
26817SOL    HW182458   2.235   8.363   9.604 -1.4844  0.3270  1.6422
26817SOL    HW282459   2.308   8.232   9.619  0.7783  1.1165 -1.6031
26818SOL     OW82460   7.965   2.003  10.090 -0.2824 -0.2165 -0.2738
26818SOL    HW182461   7.950   2.092  10.121  0.9841  0.3495 -1.1905
26818SOL    HW282462   8.051   2.006  10.049 -0.7947 -1.5356 -1.5422
26819SOL     OW82463   5.456   6.004   3.560  0.1116 -1.0897 -0.2675
26819SOL    HW182464   5.546   5.985   3.532  0.9238  1.4463  0.3817
26819SOL    HW282465   5.442   6.095   3.536 -1.2241 -0.5370  2.2675
26820SOL     OW82466   9.620   7.766   9.420 -0.5547  0.0330 -0.2550
26820SOL    HW182467   9.639   7.859   9.417 -1.6506  0.2495 -0.7818
26820SOL    HW282468   9.704   7.724   9.399  0.0288  0.8745  0.3304
26821SOL     OW82469   8.826   2.462   5.851  0.6314  0.5773 -0.2595
26821SOL    HW182470   8.820   2.375   5.891  1.1940  0.0865 -1.1932
26821SOL    HW282471   8.894   2.507   5.901  2.1869 -0.4531 -1.3741
26822SOL     OW82472   6.147  10.808   1.988  0.9296 -0.2403  0.5116
26822SOL    HW182473   6.119  10.743   2.053 -0.5613 -0.2309 -0.0701
26822SOL    HW282474   6.226  10.771   1.949  0.5624 -1.3145  0.7498
26823SOL     OW82475   1.179   9.695   0.207 -0.0801  0.0010 -0.5289
26823SOL    HW182476   1.113   9.723   0.271 -0.5796 -1.2005 -0.4838
26823SOL    HW282477   1.210   9.776   0.167 -0.3175  0.7186  0.6876
26824SOL     OW82478   0.043   9.054   9.333 -0.0946  0.2191  0.3649
26824SOL    HW182479   0.020   9.082   9.421  0.8426  1.4199  0.2447
26824SOL    HW282480  -0.033   9.077   9.280 -0.0971  0.7923  0.6124
26825SOL     OW82481   5.672   2.346   1.821  0.0769 -0.3004 -0.0225
26825SOL    HW182482   5.603   2.292   1.783  1.2594 -1.0490 -1.1740
26825SOL    HW282483   5.632   2.385   1.899 -1.4883 -1.0677 -0.4122
26826SOL     OW82484   6.663  10.240   8.187  0.1958  0.2381  0.1779
26826SOL    HW182485   6.650  10.161   8.240 -1.5235 -0.0989 -0.6661
26826SOL    HW282486   6.704  10.209   8.107  1.6946  0.5747  0.7873
26827SOL     OW82487   1.081   7.360   0.689 -0.3946  0.4458  0.2030
26827SOL    HW182488   1.078   7.452   0.662 -3.1387  0.4570  0.2595
26827SOL    HW282489   1.088   7.311   0.607  2.0858  0.6477  0.2193
26828SOL     OW82490   0.353   6.300   6.393 -0.1305 -0.3815  0.2442
26828SOL    HW182491   0.360   6.350   6.312  0.8635 -0.0771  0.5052
26828SOL    HW282492   0.443   6.280   6.418 -0.4916 -2.2429  0.2077
26829SOL     OW82493   5.965  10.265   0.086 -0.3984 -0.1997  0.0115
26829SOL    HW182494   5.954  10.360   0.094 -4.5325 -0.6206  2.0215
26829SOL    HW282495   6.003  10.239   0.170  2.1832 -0.2908 -1.1113
26830SOL     OW82496   1.238   0.698   7.318 -0.7898 -0.8732 -0.2335
26830SOL    HW182497   1.238   0.617   7.369 -0.2489 -1.5061 -1.2121
26830SOL    HW282498   1.244   0.767   7.384 -0.9144 -1.6418  0.6027
26831SOL     OW82499   1.998   0.663   9.594  0.3745 -0.5472  0.4292
26831SOL    HW182500   2.025   0.665   9.685 -1.9156  1.1889  1.1669
26831SOL    HW282501   2.052   0.731   9.552 -0.3349  0.4841  1.1189
26832SOL     OW82502   5.811   6.363   4.474 -0.1323 -0.1573 -0.1221
26832SOL    HW182503   5.853   6.279   4.492  0.4354  0.1898  0.2075
26832SOL    HW282504   5.799   6.365   4.379  2.7481  0.6990 -0.5688
26833SOL     OW82505   5.949   2.176   4.787  0.4035  0.0786  0.3442
26833SOL    HW182506   5.921   2.173   4.695 -0.2163 -0.4750  0.5421
26833SOL    HW282507   5.954   2.269   4.807 -1.3834  0.2198  0.3058
26834SOL     OW82508   8.945   6.681  10.192 -0.7258  0.2184  0.2155
26834SOL    HW182509   9.040   6.673  10.187 -0.6541  1.1564 -0.2132
26834SOL    HW282510   8.917   6.685  10.100 -1.1449  0.2534  0.3441
26835SOL     OW82511   0.861   2.262   1.915 -0.0146  0.3863  0.0564
26835SOL    HW182512   0.880   2.170   1.898  0.0358  0.0765  1.6726
26835SOL    HW282513   0.767   2.264   1.936  0.0822  0.6476  0.4596
26836SOL     OW82514   5.617   1.748   7.788 -0.2671 -0.2946 -0.2390
26836SOL    HW182515   5.621   1.834   7.829 -1.0785 -0.3017 -0.1225
26836SOL    HW282516   5.579   1.766   7.701 -0.0632 -0.4827 -0.3665
26837SOL     OW82517   8.408   6.373   9.066  0.6264  0.0400  0.1193
26837SOL    HW182518   8.414   6.467   9.050 -0.8295  0.3455  1.1433
26837SOL    HW282519   8.487   6.336   9.026  2.0557  1.8791  1.1194
26838SOL     OW82520   5.073   6.975   8.258 -0.7962  0.5110 -0.7797
26838SOL    HW182521   5.102   7.029   8.184  1.0995  2.1991  1.0659
26838SOL    HW282522   5.146   6.915   8.274 -1.2111  0.1297 -0.2967
26839SOL     OW82523   3.088   9.908   5.328  0.4632 -0.3149  0.3730
26839SOL    HW182524   3.178   9.886   5.305  0.5090  1.3270 -1.1846
26839SOL    HW282525   3.091  10.002   5.349 -0.8206 -0.3087  0.5927
26840SOL     OW82526   2.491   7.691   2.664  0.0264  0.0004  0.4133
26840SOL    HW182527   2.577   7.698   2.623 -0.4057  0.8861 -0.3862
26840SOL    HW282528   2.430   7.720   2.596 -1.0118 -1.5690  0.6166
26841SOL     OW82529   9.599   8.729   3.073  0.0417  0.3786  0.0003
26841SOL    HW182530   9.552   8.755   3.152 -0.9900 -1.7082  0.1242
26841SOL    HW282531   9.629   8.640   3.090  2.3575  0.9183 -0.8661
26842SOL     OW82532   7.721   4.938   8.436  0.6329  0.3399 -0.2955
26842SOL    HW182533   7.740   4.908   8.347 -0.4227 -1.3494 -0.0131
26842SOL    HW282534   7.701   5.031   8.427 -0.0481  0.0744 -1.9409
26843SOL     OW82535   4.926   5.873   9.386 -0.7936  0.0373 -0.2209
26843SOL    HW182536   4.947   5.780   9.372  0.3471  0.3785 -0.9551
26843SOL    HW282537   4.833   5.874   9.408 -0.9303 -1.2417 -0.6570
26844SOL     OW82538   6.500  10.828   7.671 -0.0519  0.5635  0.7278
26844SOL    HW182539   6.591  10.803   7.682 -0.7045 -1.9798  0.9855
26844SOL    HW282540   6.484  10.893   7.740  1.2994  0.2868  1.3280
26845SOL     OW82541   0.734   4.956   1.724  0.6209  0.1147  0.6831
26845SOL    HW182542   0.747   4.861   1.728  0.4888  0.1285  1.6251
26845SOL    HW282543   0.649   4.967   1.683  0.7118 -0.1677  0.4136
26846SOL     OW82544   5.370   1.391   4.965  0.1305  0.3384  0.2034
26846SOL    HW182545   5.324   1.437   5.035 -0.3955 -1.6564  1.2259
26846SOL    HW282546   5.303   1.335   4.925  1.0541 -0.5593 -0.1145
26847SOL     OW82547   6.507   5.777   5.978  0.1578  0.1078 -0.3318
26847SOL    HW182548   6.574   5.712   5.957  0.8156  0.1032  1.5599
26847SOL    HW282549   6.427   5.726   5.991  0.2092 -0.0902 -0.7645
26848SOL     OW82550   2.331   1.042   8.675  0.4598  0.5866 -0.1521
26848SOL    HW182551   2.278   1.120   8.661 -0.6572 -0.4155 -2.0886
26848SOL    HW282552   2.419   1.067   8.646  0.8083  1.8953  1.8854
26849SOL     OW82553   2.621   3.464   6.904  0.4425  0.2871 -0.3868
26849SOL    HW182554   2.585   3.409   6.975 -2.5488  1.4722 -0.8061
26849SOL    HW282555   2.603   3.414   6.824  0.2995  0.6259 -0.5665
26850SOL     OW82556   9.232   8.468   0.104 -0.3253 -0.1927 -0.2801
26850SOL    HW182557   9.317   8.438   0.071  0.5573  1.2965  0.5161
26850SOL    HW282558   9.170   8.449   0.033  0.8949 -0.1805 -1.3822
26851SOL     OW82559  10.883   2.458   0.006  0.0865 -0.1244  0.7560
26851SOL    HW182560  10.795   2.492   0.019  0.6120  1.3327  0.6336
26851SOL    HW282561  10.877   2.407  -0.075 -0.5788  0.2084  0.5877
26852SOL     OW82562   2.114   1.095   4.193 -0.1786  0.1681 -0.7050
26852SOL    HW182563   2.064   1.144   4.127  0.3423  0.3786 -0.9458
26852SOL    HW282564   2.048   1.044   4.239 -1.0532  2.5887  0.8932
26853SOL     OW82565   5.271   9.416   2.789  0.0609 -1.2184  0.2906
26853SOL    HW182566   5.282   9.408   2.884  0.0361  1.7287  0.6451
26853SOL    HW282567   5.181   9.444   2.777  0.4830 -0.0410 -0.4090
26854SOL     OW82568   5.667   2.627   4.486  0.0036 -0.0130 -0.0635
26854SOL    HW182569   5.628   2.560   4.541  1.6319 -1.0743 -0.1264
26854SOL    HW282570   5.747   2.652   4.532  0.1889  0.7798 -0.7959
26855SOL     OW82571   6.453   8.567   9.356  0.6114  0.0709  0.2810
26855SOL    HW182572   6.543   8.599   9.349  0.1339  1.3429 -0.3209
26855SOL    HW282573   6.422   8.602   9.440  0.9439 -1.0941  0.9031
26856SOL     OW82574   2.224   0.049   2.550  0.3466 -0.6321  0.1322
26856SOL    HW182575   2.233  -0.021   2.614  1.2456  1.6023  2.6491
26856SOL    HW282576   2.133   0.078   2.559 -0.3571 -2.0632 -1.6943
26857SOL     OW82577   0.193   1.603   1.561  0.4155  0.1605  0.6090
26857SOL    HW182578   0.287   1.618   1.549  0.6812 -0.9827  1.0767
26857SOL    HW282579   0.165   1.561   1.480  0.4210  0.0493  0.6640
26858SOL     OW82580   7.699   4.897   4.431 -0.1120  0.3873  0.0173
26858SOL    HW182581   7.782   4.867   4.394 -0.0026  1.5692 -0.7767
26858SOL    HW282582   7.648   4.817   4.444 -0.2318 -0.1411 -2.9373
26859SOL     OW82583   9.914   8.106  10.042  0.2766 -0.3089  0.0493
26859SOL    HW182584   9.876   8.183   9.999 -0.4157 -0.5433  0.2170
26859SOL    HW282585   9.838   8.055  10.069  0.7297 -0.9998  0.0348
26860SOL     OW82586   8.110   8.563  10.986 -0.2709  0.2582  0.0845
26860SOL    HW182587   8.153   8.513  11.055 -0.0091  1.3989  0.7812
26860SOL    HW282588   8.176   8.570  10.917  0.6758  1.8648  1.0804
26861SOL     OW82589   5.394   2.978   1.087 -0.4088  0.3383 -0.0526
26861SOL    HW182590   5.487   2.970   1.110  0.0832  0.6806 -1.7433
26861SOL    HW282591   5.380   2.908   1.024 -0.5054  2.0113 -1.9982
26862SOL     OW82592   4.210   9.585   7.365  0.0315  0.1856 -0.0324
26862SOL    HW182593   4.180   9.656   7.307 -0.1445  1.2115  1.2630
26862SOL    HW282594   4.234   9.515   7.305  0.3564  1.3885 -1.3885
26863SOL     OW82595   1.577   2.769   9.732  0.5484 -0.3802  0.0016
26863SOL    HW182596   1.496   2.719   9.717  0.2113 -0.1125  0.8466
26863SOL    HW282597   1.646   2.702   9.736  0.2993 -0.6539 -0.2132
26864SOL     OW82598   0.819   4.105   7.367 -0.4418  0.2082  0.0478
26864SOL    HW182599   0.868   4.069   7.442  0.5918 -0.8676 -1.0925
26864SOL    HW282600   0.853   4.193   7.356  1.7989 -0.7006 -1.0794
26865SOL     OW82601   2.768   0.914   6.818 -0.3867  0.4336 -0.7832
26865SOL    HW182602   2.702   0.915   6.887 -1.7711  1.2155 -2.0686
26865SOL    HW282603   2.803   1.003   6.817  1.4619 -0.2147  0.5424
26866SOL     OW82604   3.383   2.367   7.836 -0.6437  0.5549  0.0284
26866SOL    HW182605   3.383   2.458   7.868  1.6955  0.6367 -0.0396
26866SOL    HW282606   3.301   2.330   7.868 -1.1784  2.3974  0.9175
26867SOL     OW82607   8.536   6.836   7.407  0.9494 -0.2377 -0.2040
26867SOL    HW182608   8.552   6.784   7.486  0.3974 -1.0572 -0.6170
26867SOL    HW282609   8.573   6.784   7.336 -0.0931 -0.3287 -0.6928
26868SOL     OW82610   9.115   7.427   4.010 -0.2332  0.4979  0.0124
26868SOL    HW182611   9.150   7.514   3.990  1.3401 -0.1197 -0.0673
26868SOL    HW282612   9.172   7.394   4.079 -1.8035  0.1447  1.1972
26869SOL     OW82613   3.932   0.694   6.030  0.0459 -0.3829  0.3357
26869SOL    HW182614   3.885   0.725   5.952  0.3204  0.7802  0.6085
26869SOL    HW282615   4.001   0.638   5.995  0.9741  1.1483 -0.3819
26870SOL     OW82616   0.202   8.421   6.558 -0.0277  0.6335  0.3857
26870SOL    HW182617   0.210   8.516   6.554  2.0450  0.5181  0.6977
26870SOL    HW282618   0.225   8.390   6.470  2.5474  0.3153  1.0885
26871SOL     OW82619   4.472   2.334   2.969  0.0670 -0.2952 -0.1017
26871SOL    HW182620   4.397   2.393   2.961  0.7357  0.5951  0.0699
26871SOL    HW282621   4.447   2.256   2.921 -0.9822 -0.0158 -0.0240
26872SOL     OW82622   5.806   5.710  10.467  0.1522 -1.0094 -0.3392
26872SOL    HW182623   5.844   5.778  10.524 -0.1629  0.1290 -1.4531
26872SOL    HW282624   5.713   5.709  10.490  0.2123 -1.2888 -0.1050
26873SOL     OW82625   0.790   3.616   5.715  0.3673  0.5568  0.0620
26873SOL    HW182626   0.837   3.694   5.745 -2.5073  2.4721 -0.0212
26873SOL    HW282627   0.765   3.636   5.625 -1.6814  0.2583  0.5089
26874SOL     OW82628   6.739   4.665   1.005  0.3336  0.5809  0.3095
26874SOL    HW182629   6.710   4.731   0.942 -1.2231  0.8517  1.2627
26874SOL    HW282630   6.729   4.707   1.090  2.0026  0.0736  0.7912
26875SOL     OW82631   0.230   0.520   6.365  0.2678  0.0685 -0.3063
26875SOL    HW182632   0.269   0.458   6.303 -0.1059 -0.4035 -0.0714
26875SOL    HW282633   0.238   0.477   6.450 -3.7308 -1.6042 -0.5598
26876SOL     OW82634   2.731   3.986   9.830 -0.0503 -0.1104 -0.2136
26876SOL    HW182635   2.749   4.071   9.871 -1.0274 -0.6361  1.3918
26876SOL    HW282636   2.704   4.008   9.741 -0.5122  1.2853  0.2398
26877SOL     OW82637   6.135   4.249  10.769  0.4778 -0.2827 -0.3403
26877SOL    HW182638   6.088   4.184  10.819 -0.5144  1.5250  1.1962
26877SOL    HW282639   6.167   4.312  10.834 -1.3185  2.4572 -1.9179
26878SOL     OW82640   4.501   8.705   8.791 -0.1128  0.4433 -0.2290
26878SOL    HW182641   4.512   8.610   8.792 -0.2775  0.4184 -0.4843
26878SOL    HW282642   4.580   8.738   8.749  0.9336  0.5804  1.7375
26879SOL     OW82643   4.277  10.907   3.073 -0.3542 -0.1324 -0.2319
26879SOL    HW182644   4.315  10.826   3.037  0.5172 -0.0816  0.5217
26879SOL    HW282645   4.336  10.976   3.042 -0.5121  0.0892 -0.0379
26880SOL     OW82646   0.945   7.320   3.069  0.4423  0.1756 -0.3146
26880SOL    HW182647   0.925   7.414   3.076  0.3108  0.1306 -0.1039
26880SOL    HW282648   0.881   7.287   3.006  0.3411  0.1822 -0.2155
26881SOL     OW82649   0.670   3.785   1.595  0.1427  0.2465 -0.1260
26881SOL    HW182650   0.626   3.862   1.631  0.8574  0.1252  1.0316
26881SOL    HW282651   0.652   3.715   1.658  1.3137  0.0008 -0.0378
26882SOL     OW82652   5.642   8.807   9.429  0.1395 -0.5326  0.0675
26882SOL    HW182653   5.659   8.887   9.379  0.1730 -0.0404  0.8582
26882SOL    HW282654   5.630   8.739   9.362 -0.3892  0.2264 -0.6266
26883SOL     OW82655   1.838  10.604   8.023 -0.0667  0.3376  0.0283
26883SOL    HW182656   1.842  10.690   7.980 -1.3534  0.4220  0.0518
26883SOL    HW282657   1.862  10.621   8.114  1.4347  0.3588 -0.3337
26884SOL     OW82658   5.357   7.744   6.664 -0.3672  0.0045 -0.0420
26884SOL    HW182659   5.328   7.709   6.749 -1.6986  0.4924 -0.2702
26884SOL    HW282660   5.437   7.792   6.685  0.9345 -2.1947  0.4512
26885SOL     OW82661   3.158   5.448   2.408 -0.1510 -0.4750 -0.1966
26885SOL    HW182662   3.145   5.500   2.488  0.0882 -1.3103  0.3951
26885SOL    HW282663   3.075   5.402   2.396 -0.1164 -0.5068 -0.3088
26886SOL     OW82664   5.233   4.974   5.109 -0.2354  0.3173 -0.1459
26886SOL    HW182665   5.267   4.888   5.083 -0.2251  0.0260  0.8057
26886SOL    HW282666   5.296   5.006   5.173 -0.4645  0.8512 -0.1875
26887SOL     OW82667   8.261   9.210   5.834  0.1843  0.3608 -0.5124
26887SOL    HW182668   8.169   9.235   5.822  0.5485  1.7255 -0.6714
26887SOL    HW282669   8.291   9.265   5.906  0.9108  0.0047 -0.5355
26888SOL     OW82670   1.422   2.526   3.774 -0.2009 -0.0063 -0.0632
26888SOL    HW182671   1.339   2.574   3.769  0.1158  0.5216 -3.9767
26888SOL    HW282672   1.402   2.442   3.733  0.9931 -0.1772 -0.3082
26889SOL     OW82673  10.549   3.923   2.346  0.2194  0.0070  0.0639
26889SOL    HW182674  10.606   3.999   2.332 -0.4530  0.0795 -2.8773
26889SOL    HW282675  10.583   3.856   2.287 -1.2899 -0.7726  0.0225
26890SOL     OW82676  10.613  10.252   8.008  0.4640 -0.0618 -0.0700
26890SOL    HW182677  10.608  10.220   7.918  2.0702  1.0352 -0.5934
26890SOL    HW282678  10.666  10.331   8.003 -1.8861  1.7423  1.4362
26891SOL     OW82679   4.390   6.619   0.697  0.1723 -0.2803 -0.8008
26891SOL    HW182680   4.342   6.701   0.709  1.5546  0.5319 -0.5719
26891SOL    HW282681   4.453   6.638   0.627 -1.7021 -2.2004 -3.1785
26892SOL     OW82682  10.377   7.922   4.533 -1.0815  0.2623  0.3494
26892SOL    HW182683  10.398   8.001   4.484 -0.6134 -0.3787 -0.5239
26892SOL    HW282684  10.398   7.850   4.472 -1.6062 -0.5233  1.0729
26893SOL     OW82685   6.033   7.992   1.014 -0.6111 -0.6209 -0.1975
26893SOL    HW182686   6.111   7.941   0.993 -1.6618 -1.6795 -1.7198
26893SOL    HW282687   5.994   7.946   1.089  1.0074  0.8488  1.6686
26894SOL     OW82688   1.149   2.496   0.960  0.7345  0.0040 -0.2583
26894SOL    HW182689   1.172   2.430   0.895 -0.3003  0.1648 -0.8142
26894SOL    HW282690   1.054   2.502   0.955  0.6061 -0.0710  1.3673
26895SOL     OW82691   6.688   5.553   7.175 -0.1796  0.6087 -1.1599
26895SOL    HW182692   6.645   5.603   7.245  2.7941 -0.2909  1.5922
26895SOL    HW282693   6.619   5.497   7.140 -1.7188  0.5056  1.7045
26896SOL     OW82694   8.640   2.728   0.331  0.2462  0.0011 -0.6682
26896SOL    HW182695   8.644   2.792   0.402 -0.3099  4.1929 -4.0092
26896SOL    HW282696   8.548   2.725   0.306  0.4638 -1.1349 -1.4148
26897SOL     OW82697   9.033   8.378   2.044  0.8849  0.1412  0.5487
26897SOL    HW182698   9.126   8.356   2.042  1.1961  1.3567 -0.3397
26897SOL    HW282699   9.032   8.474   2.033 -0.4583  0.1658  0.7720
26898SOL     OW82700   7.586   5.551   8.069  0.0968 -0.0123 -0.1444
26898SOL    HW182701   7.656   5.609   8.039 -0.3594 -0.1749 -1.6410
26898SOL    HW282702   7.617   5.463   8.047  0.2782 -0.2591  1.0433
26899SOL     OW82703   1.664   9.894   6.912  0.0118  0.2558 -0.3069
26899SOL    HW182704   1.700   9.882   6.825  0.4117 -1.0652  0.0198
26899SOL    HW282705   1.633   9.985   6.913  1.0586  0.6454 -1.4148
26900SOL     OW82706   3.200   3.861   5.755 -0.2289 -0.0521 -0.0533
26900SOL    HW182707   3.204   3.767   5.775  1.4139  0.3726  2.0716
26900SOL    HW282708   3.290   3.883   5.729 -0.5389  0.9953 -0.2628
26901SOL     OW82709   8.722   6.769   8.139 -0.2199  0.1963  0.4455
26901SOL    HW182710   8.796   6.708   8.131  0.3179  1.0457 -1.7457
26901SOL    HW282711   8.760   6.854   8.119 -1.6619  0.7496 -0.0251
26902SOL     OW82712   6.758   8.001   5.421 -0.0853 -0.7591  0.8800
26902SOL    HW182713   6.798   8.050   5.349 -0.3313 -0.4630  0.9395
26902SOL    HW282714   6.818   7.928   5.437  1.6375  0.8888  2.4659
26903SOL     OW82715   3.618   1.482   0.261 -0.2413 -0.0858 -0.1387
26903SOL    HW182716   3.683   1.550   0.247 -0.3774 -0.2460 -1.7981
26903SOL    HW282717   3.545   1.526   0.304 -0.3072  0.8156 -1.1458
26904SOL     OW82718   1.141   5.040   2.995  0.4392 -0.1835  0.2479
26904SOL    HW182719   1.203   5.091   2.944  0.4893 -0.6490 -0.1694
26904SOL    HW282720   1.188   5.017   3.075  0.2913  0.7188  0.6019
26905SOL     OW82721   7.542   5.663   2.583 -0.1712 -0.1878 -0.2371
26905SOL    HW182722   7.568   5.754   2.600 -1.0603 -0.4419  3.1391
26905SOL    HW282723   7.539   5.657   2.488 -0.7598  3.5313 -0.6085
26906SOL     OW82724  10.057   3.760   4.458  0.5793  0.5090 -0.3048
26906SOL    HW182725  10.100   3.694   4.512  1.4334  0.3318 -1.1574
26906SOL    HW282726  10.031   3.713   4.379 -2.9849  0.1304  0.8993
26907SOL     OW82727   8.046   5.643   9.334 -0.9424  0.1382 -0.1431
26907SOL    HW182728   8.059   5.719   9.391 -2.7290 -0.1710  0.7662
26907SOL    HW282729   8.018   5.680   9.250 -1.2637  0.5282  0.1299
26908SOL     OW82730   3.910   9.113   2.775 -0.4369  0.1589 -0.0295
26908SOL    HW182731   3.869   9.161   2.847  0.3479 -1.4217  1.5345
26908SOL    HW282732   4.003   9.137   2.780 -0.0883 -1.2089  0.5747
26909SOL     OW82733   8.739   5.169   7.857  0.4529 -0.3063 -0.0774
26909SOL    HW182734   8.745   5.251   7.807 -0.4054  0.0926  0.4454
26909SOL    HW282735   8.654   5.133   7.834  0.9912 -1.2810 -0.6131
26910SOL     OW82736   3.672   4.871   4.174  0.5128  0.0810  0.6257
26910SOL    HW182737   3.676   4.821   4.256 -1.7994 -1.9605 -0.3372
26910SOL    HW282738   3.588   4.917   4.179 -0.2377 -1.0025 -0.9895
26911SOL     OW82739   6.112   1.912  10.310 -0.0647 -0.0605 -0.5169
26911SOL    HW182740   6.088   1.820  10.306  0.2102 -0.1859  0.3588
26911SOL    HW282741   6.060   1.947  10.382  0.1882  0.3543 -0.5324
26912SOL     OW82742   1.047  10.239   1.161  0.1541  0.1797  0.1615
26912SOL    HW182743   1.136  10.231   1.126  0.5676 -0.5129  1.3407
26912SOL    HW282744   0.993  10.187   1.101  0.4725  0.8782 -0.7520
26913SOL     OW82745   3.020   3.842   7.546 -0.8171  0.1424  0.0118
26913SOL    HW182746   3.108   3.847   7.508 -1.8562  3.4136 -2.4278
26913SOL    HW282747   3.024   3.766   7.605  3.6158  0.2015  0.1459
26914SOL     OW82748   5.897   7.504   9.019 -0.1832  0.4330 -0.1131
26914SOL    HW182749   5.932   7.592   9.030 -1.0634  0.8035 -0.1878
26914SOL    HW282750   5.927   7.456   9.095  1.5661  0.3666 -0.8053
26915SOL     OW82751   4.517   4.614   2.006  0.7233 -0.0108 -0.7508
26915SOL    HW182752   4.464   4.535   2.021 -1.1880  1.4896  1.0807
26915SOL    HW282753   4.454   4.678   1.971  1.2181  1.8945  1.6228
26916SOL     OW82754   1.744   9.857   4.409 -0.4157  0.4804  0.4694
26916SOL    HW182755   1.822   9.834   4.460  0.1492  0.4026 -0.4109
26916SOL    HW282756   1.725   9.948   4.432 -0.4317  0.3119  1.1440
26917SOL     OW82757   2.236   6.420   2.749 -0.2069 -0.2522 -0.2765
26917SOL    HW182758   2.315   6.422   2.694 -0.5508 -0.7838 -0.7962
26917SOL    HW282759   2.164   6.410   2.687 -0.4328 -4.3586  0.3751
26918SOL     OW82760   7.041   9.046   1.149  0.3752 -0.0758  0.6953
26918SOL    HW182761   7.063   9.117   1.088  0.2877  1.0631  1.9473
26918SOL    HW282762   6.956   9.071   1.184 -0.3778 -1.6101  0.0232
26919SOL     OW82763   8.367  10.952   2.183  0.1386  0.0454 -0.4707
26919SOL    HW182764   8.422  11.023   2.148  1.3384 -0.7028 -0.1769
26919SOL    HW282765   8.277  10.984   2.174  0.6998  2.2893  1.1230
26920SOL     OW82766  10.127   2.484   9.497 -0.0124  0.3692  0.5924
26920SOL    HW182767  10.069   2.539   9.550 -0.5806 -0.3854  0.7728
26920SOL    HW282768  10.077   2.465   9.418 -0.0110 -0.2767  0.7439
26921SOL     OW82769   7.940   0.138   1.550  0.1359 -0.2975 -0.2408
26921SOL    HW182770   7.867   0.201   1.544 -0.6463 -0.9690  1.6506
26921SOL    HW282771   8.007   0.184   1.599  0.8731  0.1675 -1.6242
26922SOL     OW82772   1.141   0.343   9.430  0.4835  0.1631 -0.7423
26922SOL    HW182773   1.057   0.346   9.386 -1.0176  1.4754  1.9361
26922SOL    HW282774   1.155   0.432   9.461  0.4406 -0.9206  2.8783
26923SOL     OW82775   2.155   9.150  10.812 -0.4508  0.6500 -0.4038
26923SOL    HW182776   2.248   9.133  10.804 -0.6225 -0.1187 -0.8370
26923SOL    HW282777   2.116   9.111  10.734 -1.4443 -1.4172  1.0390
26924SOL     OW82778  10.808   7.467   4.740  0.0489  0.4355 -1.1286
26924SOL    HW182779  10.801   7.530   4.668 -1.1836  2.1512  0.4179
26924SOL    HW282780  10.749   7.396   4.714 -0.6691  1.2024 -1.6701
26925SOL     OW82781   8.438   2.430   8.269 -0.1277 -0.7377  0.3283
26925SOL    HW182782   8.407   2.498   8.329 -1.8082 -0.1845 -1.0772
26925SOL    HW282783   8.517   2.467   8.230  0.1621 -0.4954  1.1269
26926SOL     OW82784   1.460   4.175   8.879 -0.0178 -0.0291  0.0369
26926SOL    HW182785   1.401   4.099   8.873  1.2571 -1.0098 -0.4121
26926SOL    HW282786   1.492   4.173   8.969  0.3751 -0.3040 -0.1079
26927SOL     OW82787  10.608   1.395   8.475  0.0574 -0.3365  0.1587
26927SOL    HW182788  10.695   1.413   8.439 -0.4444 -0.9280 -1.4336
26927SOL    HW282789  10.612   1.302   8.500 -0.1098 -0.3459  0.1469
26928SOL     OW82790   5.741   6.058   9.507  0.4319  0.1592  0.0767
26928SOL    HW182791   5.738   5.967   9.536  1.6424 -0.4820 -1.6722
26928SOL    HW282792   5.813   6.097   9.557  1.4927 -0.5219 -0.8740
26929SOL     OW82793   9.959  10.267   9.110 -0.1197  0.4315 -0.5800
26929SOL    HW182794   9.937  10.222   9.192  1.1679 -0.6202 -0.7936
26929SOL    HW282795   9.904  10.346   9.111 -2.0754 -0.8524  0.0452
26930SOL     OW82796   9.872   6.436   7.442 -0.0970  0.0143  0.2274
26930SOL    HW182797   9.928   6.392   7.377  0.7081 -1.3714  1.7766
26930SOL    HW282798   9.926   6.506   7.477  0.8495 -1.4227  1.8380
26931SOL     OW82799   1.516   5.627   4.681  0.1765  0.1911  0.1265
26931SOL    HW182800   1.437   5.576   4.665  0.4838 -0.7341  1.3877
26931SOL    HW282801   1.498   5.713   4.642 -1.6238  0.1489  0.7852
26932SOL     OW82802   1.081   5.054   9.205  0.4411  0.3396  0.5281
26932SOL    HW182803   1.006   5.000   9.179 -0.0603  0.8376  0.9018
26932SOL    HW282804   1.144   4.992   9.241 -0.3827  0.0525  1.5337
26933SOL     OW82805   9.627   5.250   7.018 -0.1134 -0.6111 -0.0832
26933SOL    HW182806   9.558   5.196   7.055  0.3433 -1.0512  0.1370
26933SOL    HW282807   9.604   5.339   7.043 -1.3405 -0.5825 -1.1865
26934SOL     OW82808   2.864   2.738   1.553  0.1300  0.1908 -0.3546
26934SOL    HW182809   2.954   2.763   1.531  0.2305  0.0205 -0.1403
26934SOL    HW282810   2.824   2.716   1.469  0.0924  0.9027 -0.5275
26935SOL     OW82811   4.601  10.925   2.927 -0.0580 -0.4054 -0.3599
26935SOL    HW182812   4.616  10.871   3.005 -1.2874  1.4143  1.2465
26935SOL    HW282813   4.653  11.004   2.943 -0.0151 -0.1669 -1.6004
26936SOL     OW82814   8.023   8.489   3.921 -0.5768  0.5815  0.1265
26936SOL    HW182815   7.943   8.533   3.949  0.1012  1.1292  1.3047
26936SOL    HW282816   8.045   8.431   3.995  0.0447  0.3540 -0.2280
26937SOL     OW82817   8.961   2.614   4.716 -0.4555 -0.0741 -0.2217
26937SOL    HW182818   8.934   2.529   4.682 -1.9432 -0.7565  2.3754
26937SOL    HW282819   8.940   2.676   4.646 -0.1265 -1.7166 -1.8340
26938SOL     OW82820   4.070   3.275   9.676 -0.1208  0.2737 -0.6792
26938SOL    HW182821   4.158   3.297   9.647  0.2441 -0.3493 -0.0589
26938SOL    HW282822   4.023   3.254   9.595  0.0041  1.5538 -1.1178
26939SOL     OW82823   4.183   7.662   1.514 -0.7776  0.3658 -0.2951
26939SOL    HW182824   4.148   7.704   1.435 -0.5184 -0.8128 -1.0627
26939SOL    HW282825   4.124   7.589   1.530 -1.4188  1.1760  1.2186
26940SOL     OW82826   3.912   5.231   9.874  0.1620  0.5973 -0.6539
26940SOL    HW182827   3.981   5.257   9.813  1.2031  0.4999  0.4373
26940SOL    HW282828   3.891   5.311   9.923  0.2549  0.3943 -0.2751
26941SOL     OW82829   4.034   0.517   9.518 -0.2370  0.4860  0.0291
26941SOL    HW182830   3.948   0.545   9.551 -1.7085 -0.3933 -2.7286
26941SOL    HW282831   4.078   0.599   9.496 -0.8138  0.9281  0.4597
26942SOL     OW82832   7.140   1.507   4.708 -0.0588  0.2014  0.1074
26942SOL    HW182833   7.151   1.417   4.675 -0.6204  0.2586 -0.2550
26942SOL    HW282834   7.192   1.560   4.648 -2.6390  0.5520 -2.0180
26943SOL     OW82835   4.303   2.141  10.504 -0.6981 -0.3666 -0.3148
26943SOL    HW182836   4.321   2.059  10.551  1.2203 -0.1412 -0.5990
26943SOL    HW282837   4.207   2.144  10.499 -0.8790 -1.7164  1.2333
26944SOL     OW82838   2.801  10.808   1.405 -0.6788  0.2607  0.0104
26944SOL    HW182839   2.706  10.805   1.420 -0.8500  0.7430 -0.8943
26944SOL    HW282840   2.820  10.730   1.354 -0.6251  0.2762  0.0065
26945SOL     OW82841   4.519  10.123  10.030  0.0495 -0.1106  0.0897
26945SOL    HW182842   4.518  10.194   9.965 -1.3469  1.6347  1.8812
26945SOL    HW282843   4.589  10.149  10.091  1.1996 -1.6168 -0.5231
26946SOL     OW82844   5.121   2.784   1.512 -0.2293 -0.0776 -0.0053
26946SOL    HW182845   5.164   2.708   1.474  0.3575 -0.1006  0.6921
26946SOL    HW282846   5.028   2.760   1.516 -0.0286 -0.8086  0.3325
26947SOL     OW82847   7.593   4.862   0.726  0.2474  0.3960 -0.4627
26947SOL    HW182848   7.645   4.899   0.796  0.1049  1.2719 -0.8075
26947SOL    HW282849   7.522   4.925   0.712  0.7445  0.6728 -1.9494
26948SOL     OW82850   6.417   0.859   1.722 -0.0077 -0.1199 -0.0654
26948SOL    HW182851   6.410   0.940   1.771  0.6453  0.2302 -0.5368
26948SOL    HW282852   6.487   0.810   1.765  1.3572  0.6730 -1.2793
26949SOL     OW82853   2.577   3.651   2.624  0.3162 -0.1470  0.4629
26949SOL    HW182854   2.593   3.569   2.579  1.0973 -0.8282  1.9346
26949SOL    HW282855   2.485   3.672   2.603 -0.0190 -1.5892  0.3897
26950SOL     OW82856   4.793   6.446   7.450 -0.6136  0.1435  0.0768
26950SOL    HW182857   4.708   6.486   7.470 -0.3769  0.7113 -0.0520
26950SOL    HW282858   4.851   6.480   7.518 -0.7294 -1.1248  0.8536
26951SOL     OW82859   4.952  10.532   1.097 -0.0868 -0.2216 -0.1824
26951SOL    HW182860   5.047  10.539   1.091 -0.0449 -1.1141 -0.7093
26951SOL    HW282861   4.919  10.609   1.051  0.3735  1.0307  1.4924
26952SOL     OW82862   1.528   9.545   5.210 -0.1978 -0.4563 -0.5780
26952SOL    HW182863   1.560   9.455   5.201 -0.7030 -0.6366 -0.6279
26952SOL    HW282864   1.451   9.549   5.153  0.4569  0.3333 -1.4465
26953SOL     OW82865   5.507   2.217   1.420 -0.4638 -0.4740 -0.3134
26953SOL    HW182866   5.428   2.179   1.381 -0.1010 -1.4964 -0.0905
26953SOL    HW282867   5.492   2.212   1.514 -0.8406  0.9100 -0.2799
26954SOL     OW82868   1.345   5.194   7.414 -0.4399  0.4448  0.1439
26954SOL    HW182869   1.320   5.119   7.468 -0.9743  0.0756 -0.5991
26954SOL    HW282870   1.319   5.271   7.465  1.4390  0.2177  1.5915
26955SOL     OW82871   8.791  10.620   9.393 -0.0017 -0.0254  0.5733
26955SOL    HW182872   8.746  10.642   9.311  0.1580 -0.8092  0.2682
26955SOL    HW282873   8.782  10.698   9.448 -1.1742  0.0616  0.2686
26956SOL     OW82874   1.645   6.397   5.385 -0.0314  0.2593  0.1416
26956SOL    HW182875   1.678   6.365   5.300 -1.2654 -0.6731 -0.0177
26956SOL    HW282876   1.723   6.429   5.430  0.8577 -0.4504 -0.8280
26957SOL     OW82877   4.004   2.531   6.386  0.1631 -1.0135  0.3627
26957SOL    HW182878   3.980   2.623   6.386 -0.3715 -1.1454 -0.2293
26957SOL    HW282879   3.958   2.494   6.311  0.0243 -1.8488  0.8439
26958SOL     OW82880   9.435   0.263   2.437 -0.5013 -0.0193 -0.7625
26958SOL    HW182881   9.359   0.209   2.462 -1.2523  0.4045 -2.0144
26958SOL    HW282882   9.507   0.228   2.489 -1.5063 -0.5677  0.3295
26959SOL     OW82883   1.100  10.518   3.494  1.1013  0.0297 -0.1935
26959SOL    HW182884   1.123  10.524   3.402  0.6285 -0.8552 -0.3801
26959SOL    HW282885   1.033  10.450   3.498  2.5849 -1.4486  1.0554
26960SOL     OW82886   2.639   8.126   2.879  0.3018 -0.1005 -0.9243
26960SOL    HW182887   2.700   8.072   2.931 -0.1472 -1.4626 -1.7672
26960SOL    HW282888   2.658   8.215   2.906  0.3206 -0.7221  1.3546
26961SOL     OW82889   4.018   9.635   4.783  0.3813 -0.5155 -0.3097
26961SOL    HW182890   4.027   9.713   4.838  1.5468  0.0728 -1.2974
26961SOL    HW282891   3.928   9.606   4.798  0.6025 -0.3109  1.8032
26962SOL     OW82892   6.771   8.181   3.518  0.3305  0.0644  0.2108
26962SOL    HW182893   6.762   8.214   3.428 -1.1430  0.4693  0.4695
26962SOL    HW282894   6.735   8.251   3.572  0.1570 -0.6424  1.0225
26963SOL     OW82895   0.470   6.940   9.916  0.6667  0.2506 -0.6301
26963SOL    HW182896   0.477   6.912   9.825  1.9817  3.3612 -1.6322
26963SOL    HW282897   0.548   6.904   9.958  1.6644  1.2822 -1.5426
26964SOL     OW82898   3.663   2.683   5.164  0.0655 -0.6850 -0.1082
26964SOL    HW182899   3.653   2.606   5.219  2.2537  0.4201  2.0197
26964SOL    HW282900   3.748   2.672   5.121  0.8396  0.8607  0.9179
26965SOL     OW82901  10.220   5.967   8.945 -0.7517 -0.1713  0.2781
26965SOL    HW182902  10.185   5.991   9.031 -2.7100 -3.0408  0.4023
26965SOL    HW282903  10.289   5.903   8.964 -1.1560 -0.7778 -0.2482
26966SOL     OW82904   5.157   4.835   5.438 -0.0446  0.2494 -0.5911
26966SOL    HW182905   5.238   4.846   5.487 -1.2066  0.4483  1.3786
26966SOL    HW282906   5.145   4.918   5.393 -1.8863  2.4973  3.5313
26967SOL     OW82907   7.771   8.953   8.284  0.0066 -0.0618  0.7054
26967SOL    HW182908   7.753   9.011   8.210  0.1116  1.1333  1.5909
26967SOL    HW282909   7.685   8.936   8.323 -0.2371 -1.8452 -0.4801
26968SOL     OW82910   0.443   7.465   2.732  0.6500  0.5909 -0.0486
26968SOL    HW182911   0.370   7.480   2.672 -1.1560 -0.5584  1.7382
26968SOL    HW282912   0.498   7.401   2.687 -0.3424  0.1945 -0.7221
26969SOL     OW82913  10.902   8.186   2.056 -0.3869  0.2656  0.2875
26969SOL    HW182914  10.858   8.270   2.063 -0.3349  0.3036  0.1549
26969SOL    HW282915  10.892   8.146   2.143 -1.2676 -0.0200  0.0597
26970SOL     OW82916   1.489   7.240  10.650  0.0485 -1.0483 -0.4439
26970SOL    HW182917   1.481   7.264  10.742 -2.0955 -2.3602 -0.2194
26970SOL    HW282918   1.531   7.154  10.651  0.8032 -0.6928 -0.7654
26971SOL     OW82919  10.053   2.171   9.620  0.0295  0.2124  0.0300
26971SOL    HW182920  10.045   2.210   9.533 -3.4544  0.4323  0.2977
26971SOL    HW282921   9.985   2.104   9.622  1.0520 -0.8620  2.1110
26972SOL     OW82922   5.429   2.947   5.894 -0.8229  0.1655 -0.5772
26972SOL    HW182923   5.507   2.896   5.874 -0.7221  0.5878 -1.3255
26972SOL    HW282924   5.461   3.022   5.944 -1.0011 -0.5959  0.7274
26973SOL     OW82925  10.254   7.121  10.857  0.2387  0.4056  0.5502
26973SOL    HW182926  10.290   7.070  10.785  0.6696  0.9467  0.3769
26973SOL    HW282927  10.259   7.063  10.932 -0.1457 -0.1364  0.1597
26974SOL     OW82928   0.917  10.189   9.207  0.1289 -0.0065 -0.1982
26974SOL    HW182929   0.950  10.199   9.296 -0.5534 -0.8910  0.1829
26974SOL    HW282930   0.977  10.127   9.165 -0.3889 -0.7693  0.1492
26975SOL     OW82931   3.985   4.455   4.947 -0.3527  0.2258 -0.0324
26975SOL    HW182932   3.907   4.478   4.898  0.7090  2.6794 -0.6942
26975SOL    HW282933   4.032   4.394   4.890 -0.3772  1.0429 -0.9440
26976SOL     OW82934  10.077   2.209   8.330  0.3290 -0.0713 -0.4782
26976SOL    HW182935  10.078   2.283   8.391  1.4456 -1.3437  1.1213
26976SOL    HW282936  10.126   2.241   8.254 -0.5933  1.3479 -0.5271
26977SOL     OW82937   0.044   9.793   4.135  0.2952 -0.0382  0.0472
26977SOL    HW182938  -0.005   9.817   4.213 -1.1558 -2.3135 -0.0695
26977SOL    HW282939   0.136   9.794   4.162 -0.1958 -0.9428  1.8478
26978SOL     OW82940   4.582   4.514   2.647  0.0738  0.6417 -0.4823
26978SOL    HW182941   4.512   4.541   2.588 -0.1595  0.1853 -0.4228
26978SOL    HW282942   4.536   4.476   2.722  0.3865  0.1379 -0.5391
26979SOL     OW82943   8.035   0.880   8.342 -0.2547 -0.1788  0.1871
26979SOL    HW182944   8.057   0.821   8.269  1.3997 -0.1976  0.6552
26979SOL    HW282945   8.033   0.823   8.419  3.6548  0.5240  1.0469
26980SOL     OW82946   0.361   7.401   8.993  0.3859 -0.0116 -0.2790
26980SOL    HW182947   0.389   7.442   9.075  3.9820 -2.5577  0.0041
26980SOL    HW282948   0.270   7.377   9.008 -0.6960  4.1341  0.9127
26981SOL     OW82949   1.178   8.783   9.588 -0.3484  0.0646  0.1809
26981SOL    HW182950   1.083   8.788   9.585 -0.3804 -0.4850  0.2426
26981SOL    HW282951   1.202   8.736   9.509 -0.0880  0.7142 -0.1314
26982SOL     OW82952   6.676   2.062   7.075  0.3974  0.0245  0.7739
26982SOL    HW182953   6.664   1.968   7.062  0.4498  0.2181 -0.8636
26982SOL    HW282954   6.762   2.070   7.116  1.0835 -0.5537 -0.5197
26983SOL     OW82955   1.153  10.792   7.274  0.1071  0.0737  0.4981
26983SOL    HW182956   1.244  10.768   7.292 -0.1524 -0.7985  0.6791
26983SOL    HW282957   1.103  10.750   7.344 -0.4637  0.3362  0.2543
26984SOL     OW82958   2.716   8.346   5.750  0.1882  0.0875  0.0162
26984SOL    HW182959   2.759   8.282   5.693  1.6449  0.8189  0.2539
26984SOL    HW282960   2.674   8.407   5.690 -1.6544 -1.3117 -0.2167
26985SOL     OW82961   8.352   8.716   9.756  0.2049 -0.4786  0.1942
26985SOL    HW182962   8.403   8.779   9.808 -0.3853 -0.0943  0.3230
26985SOL    HW282963   8.333   8.645   9.817  0.4355 -0.5415  0.1946
26986SOL     OW82964   7.953   5.244   1.822  0.1058 -0.1033  0.3267
26986SOL    HW182965   7.884   5.288   1.772 -0.1983 -1.4030 -0.4238
26986SOL    HW282966   8.014   5.211   1.756  0.4054 -0.6821  0.8776
26987SOL     OW82967   7.396   2.514   9.324 -0.0828 -0.2644 -0.0992
26987SOL    HW182968   7.326   2.529   9.387 -0.1136 -2.5433  0.4980
26987SOL    HW282969   7.476   2.518   9.375  0.1720  1.0362 -0.5486
26988SOL     OW82970   8.286  10.120   8.475 -0.5446 -0.0392 -0.2245
26988SOL    HW182971   8.225  10.187   8.505 -0.0365  0.3509 -0.0480
26988SOL    HW282972   8.324  10.155   8.395  0.2640  0.2228  0.2559
26989SOL     OW82973   6.838   8.586   5.561 -0.3258 -0.1516 -0.1954
26989SOL    HW182974   6.751   8.611   5.594  0.9167  0.9498  2.6426
26989SOL    HW282975   6.855   8.501   5.600 -0.7670 -1.2115 -2.1958
26990SOL     OW82976   3.671   7.860   8.914 -0.7047 -0.9748 -0.3709
26990SOL    HW182977   3.760   7.842   8.946 -0.7643  2.8317  2.7470
26990SOL    HW282978   3.614   7.807   8.969 -0.4499 -0.7564  0.1142
26991SOL     OW82979   3.793   5.760   6.758  0.0190 -0.7181  0.5872
26991SOL    HW182980   3.755   5.687   6.807 -0.2704 -0.8318  0.1986
26991SOL    HW282981   3.766   5.838   6.806  0.3291 -0.8648  1.0042
26992SOL     OW82982   6.400   5.108   9.024 -0.1903 -0.0484  0.2220
26992SOL    HW182983   6.345   5.049   9.075  0.3789 -2.7872 -2.1113
26992SOL    HW282984   6.344   5.139   8.953  0.0808  0.6673  0.3057
26993SOL     OW82985   5.496   3.279   4.313  0.3590  0.3488  0.1949
26993SOL    HW182986   5.462   3.321   4.392  0.7152  0.1563  0.4518
26993SOL    HW282987   5.568   3.336   4.284 -0.6483  1.1753 -0.7846
26994SOL     OW82988   8.516   3.140   3.314 -0.4885  0.3852  0.1472
26994SOL    HW182989   8.470   3.222   3.333 -0.7925  0.7057 -1.7679
26994SOL    HW282990   8.525   3.139   3.219 -0.2223 -1.6697  0.1476
26995SOL     OW82991   7.643   4.311   4.549  0.0514  0.2499  0.0856
26995SOL    HW182992   7.602   4.341   4.467  0.3871  0.8310  0.1243
26995SOL    HW282993   7.660   4.218   4.535  0.8868  0.5233 -0.8403
26996SOL     OW82994   1.467   5.338  10.106 -0.4888  0.6482 -0.1028
26996SOL    HW182995   1.445   5.338  10.199 -1.9513  0.1554 -0.4245
26996SOL    HW282996   1.384   5.322  10.061  0.1304  1.2225 -1.5168
26997SOL     OW82997   8.094   7.350   7.966 -0.0387  0.0780  0.8040
26997SOL    HW182998   8.019   7.372   8.021 -0.6835  0.7802 -0.3077
26997SOL    HW282999   8.134   7.435   7.946 -0.7129  0.0106 -1.0145
26998SOL     OW83000   5.714   7.230   6.285  0.1227  0.0130  0.5173
26998SOL    HW183001   5.635   7.230   6.339  0.6979 -0.2138  1.3838
26998SOL    HW283002   5.763   7.306   6.314 -0.8527  1.6059 -1.7030
26999SOL     OW83003   7.704  10.314   8.666 -0.5922 -0.9633 -0.1836
26999SOL    HW183004   7.690  10.220   8.651 -0.9255 -0.7741 -1.1229
26999SOL    HW283005   7.706  10.352   8.578 -1.6498  0.0772  0.2073
27000SOL     OW83006   9.613   9.848   8.281  0.0916 -0.7597  0.1921
27000SOL    HW183007   9.609   9.938   8.314 -0.5377  0.1681 -2.2407
27000SOL    HW283008   9.686   9.809   8.329  0.2595  0.9495  1.4552
27001SOL     OW83009   6.662   5.314   2.334 -0.4596  0.2267  0.4143
27001SOL    HW183010   6.667   5.374   2.259  0.0414  0.8580  0.9416
27001SOL    HW283011   6.753   5.296   2.357 -0.6056  0.4112  1.1598
27002SOL     OW83012  10.141   3.400   2.577 -0.7295  0.0785 -0.1840
27002SOL    HW183013  10.080   3.335   2.542 -0.4983 -1.1468  1.5163
27002SOL    HW283014  10.090   3.480   2.585 -1.1497  0.0077 -1.9315
27003SOL     OW83015   3.826   4.806   5.354 -0.4447 -0.2214  0.2299
27003SOL    HW183016   3.784   4.839   5.274  1.3523  0.9629 -0.2880
27003SOL    HW283017   3.882   4.878   5.383 -0.3660 -0.9756  2.0613
27004SOL     OW83018   4.782   1.671   2.933  0.4377  0.0683  0.0747
27004SOL    HW183019   4.845   1.742   2.939  0.1680  0.2989  0.2016
27004SOL    HW283020   4.754   1.655   3.023  1.2129 -0.8557  0.1611
27005SOL     OW83021   4.164   4.066   5.761  0.4567 -0.2057 -0.1038
27005SOL    HW183022   4.177   4.160   5.777 -2.3483  0.2693  0.0455
27005SOL    HW283023   4.234   4.023   5.808 -0.9312  1.6370  4.1414
27006SOL     OW83024  10.051   8.863   6.902  0.6689 -0.2248 -0.2220
27006SOL    HW183025  10.022   8.953   6.885 -0.3729 -0.5477 -0.2704
27006SOL    HW283026  10.125   8.850   6.842  1.3191  0.8367  0.3260
27007SOL     OW83027  10.375   7.378   1.622 -0.7810 -0.8217  0.2236
27007SOL    HW183028  10.409   7.467   1.622 -0.6959 -0.7869 -2.3009
27007SOL    HW283029  10.285   7.386   1.592 -0.4367 -1.6366 -1.1323
27008SOL     OW83030   3.794   4.672   7.493  0.3951 -0.4413 -0.2309
27008SOL    HW183031   3.866   4.656   7.554  2.2206  1.7564 -1.6423
27008SOL    HW283032   3.816   4.620   7.416  1.2069  1.2139 -1.1514
27009SOL     OW83033   2.125   4.006   3.782 -0.6247  0.0727  0.7514
27009SOL    HW183034   2.044   3.980   3.739 -0.7774  0.5671  0.7285
27009SOL    HW283035   2.176   3.925   3.789 -0.6067 -0.0305 -0.3325
27010SOL     OW83036   1.104   1.014   1.144  0.2711  0.2952  0.4613
27010SOL    HW183037   1.164   1.088   1.139  0.6285 -0.0481 -1.2326
27010SOL    HW283038   1.160   0.937   1.128 -0.4170 -0.1393  0.0947
27011SOL     OW83039   1.831   3.873   4.433  0.3318  0.0782  0.1355
27011SOL    HW183040   1.874   3.793   4.402  0.5489  0.1952  0.1330
27011SOL    HW283041   1.820   3.926   4.354  1.2771  0.5626  0.3077
27012SOL     OW83042   1.727   1.945   3.352  0.2266  0.2101  0.1645
27012SOL    HW183043   1.748   2.035   3.374  3.6627 -0.6204  0.9430
27012SOL    HW283044   1.672   1.952   3.274  1.3305  2.9841 -0.5013
27013SOL     OW83045  10.180   9.887   7.514 -0.7771  0.4637 -0.1156
27013SOL    HW183046  10.228   9.838   7.581 -0.7623  0.1439 -0.3618
27013SOL    HW283047  10.132   9.954   7.563 -2.3261 -0.9934  0.4176
27014SOL     OW83048   5.615   4.980  10.153 -0.1666  0.2061 -0.1503
27014SOL    HW183049   5.558   5.054  10.173 -0.5728 -0.3034  0.6187
27014SOL    HW283050   5.572   4.905  10.193  1.6792 -0.0074  1.6055
27015SOL     OW83051   1.223   4.153   4.800  0.2487  0.2902  0.3628
27015SOL    HW183052   1.155   4.215   4.827  1.2167  0.3931  2.7939
27015SOL    HW283053   1.191   4.068   4.829 -1.2181 -0.5759 -3.2331
27016SOL     OW83054   9.992   8.908  10.951 -0.4346  0.0640  0.3251
27016SOL    HW183055   9.903   8.940  10.963 -0.6029  0.0771 -0.8225
27016SOL    HW283056   9.983   8.815  10.931 -0.3563  0.4140 -1.5394
27017SOL     OW83057   7.068   4.485   8.226  0.0213 -0.2971 -0.4508
27017SOL    HW183058   6.975   4.484   8.246 -0.2781  0.7718 -1.6095
27017SOL    HW283059   7.078   4.557   8.163  1.7439  0.0732  0.1880
27018SOL     OW83060   6.153   5.225   7.131  0.5182 -0.0204 -0.0364
27018SOL    HW183061   6.179   5.317   7.123  1.1551 -0.1801  0.1372
27018SOL    HW283062   6.059   5.225   7.115  0.1178  0.9513  2.0288
27019SOL     OW83063   1.033   8.177   3.601  0.3522  0.4305  0.2897
27019SOL    HW183064   1.111   8.161   3.654  2.4194 -0.9351 -2.8408
27019SOL    HW283065   0.966   8.119   3.637  1.5027 -0.0973  1.6414
27020SOL     OW83066   0.690  10.028   3.673 -0.5775  0.3068 -0.0113
27020SOL    HW183067   0.629   9.970   3.719 -0.4605 -0.4880 -0.8362
27020SOL    HW283068   0.764   9.972   3.651 -0.8751  0.5155 -1.6467
27021SOL     OW83069   2.147   4.216   6.944  0.3582 -0.0035 -0.0647
27021SOL    HW183070   2.207   4.149   6.978  0.9615  1.0466  1.0406
27021SOL    HW283071   2.205   4.285   6.910 -0.0764  1.8741  2.6847
27022SOL     OW83072   7.671   5.412   4.801 -0.1023 -0.4223  0.2867
27022SOL    HW183073   7.750   5.465   4.815 -1.3499  1.3176  1.0130
27022SOL    HW283074   7.675   5.345   4.869  0.4437  0.0146  0.6933
27023SOL     OW83075   9.002   2.195   1.132 -0.1779  0.0887 -0.2565
27023SOL    HW183076   9.048   2.269   1.170 -0.6146  0.6641 -0.8227
27023SOL    HW283077   8.955   2.232   1.057 -0.0600 -0.8381 -0.8090
27024SOL     OW83078   7.866   9.072   4.332 -0.0556  0.0342 -0.2152
27024SOL    HW183079   7.807   9.098   4.404 -0.5095 -1.0622 -0.1730
27024SOL    HW283080   7.950   9.112   4.355 -0.3097  0.0830  0.6906
27025SOL     OW83081   1.501   9.101   1.461  0.2102  0.0385  0.1612
27025SOL    HW183082   1.519   9.141   1.546 -0.2992 -2.3741  1.4807
27025SOL    HW283083   1.448   9.024   1.481  1.0918 -1.2861 -2.2402
27026SOL     OW83084   7.166   4.415   9.125 -0.9580  0.5463 -0.1771
27026SOL    HW183085   7.160   4.375   9.212 -0.0657  3.1805  1.2066
27026SOL    HW283086   7.123   4.500   9.135 -0.2717  1.1736 -2.1338
27027SOL     OW83087   1.380   1.640   4.290 -0.5211 -0.1382 -0.8240
27027SOL    HW183088   1.460   1.634   4.238  0.1501  1.7675 -0.0989
27027SOL    HW283089   1.405   1.607   4.376 -0.4945  0.5065 -0.5831
27028SOL     OW83090   8.537   6.496   1.342  0.2363  0.4380  0.3234
27028SOL    HW183091   8.620   6.465   1.378 -0.6068 -0.8085  1.2963
27028SOL    HW283092   8.555   6.586   1.313  2.1563 -0.1268 -0.3875
27029SOL     OW83093   8.608   8.277  10.553 -0.2915 -0.3983  0.2777
27029SOL    HW183094   8.689   8.327  10.555  0.0432 -0.9416  0.5054
27029SOL    HW283095   8.539   8.343  10.562  0.0647  0.1848 -1.1139
27030SOL     OW83096   9.751   0.745   7.301  1.0120  0.4120  0.2521
27030SOL    HW183097   9.745   0.827   7.350  1.0432  1.0441 -0.7546
27030SOL    HW283098   9.800   0.769   7.222 -1.0104  0.0032 -1.2094
27031SOL     OW83099   2.175   3.078   0.949 -0.2467  0.1760  0.3410
27031SOL    HW183100   2.210   3.167   0.943 -1.4448  0.6352 -0.1734
27031SOL    HW283101   2.229   3.028   0.888 -0.1976  0.7778 -0.1283
27032SOL     OW83102   1.796   2.927   7.992 -0.5987 -0.4330  0.7975
27032SOL    HW183103   1.740   3.002   7.972  0.3193  0.0578 -0.0170
27032SOL    HW283104   1.739   2.866   8.039 -2.1728 -0.5001 -1.0847
27033SOL     OW83105   6.236  10.332   2.789  0.6351 -0.2997  0.7225
27033SOL    HW183106   6.148  10.347   2.825 -0.5729 -1.5654 -1.4798
27033SOL    HW283107   6.220  10.290   2.705  3.3625  0.2830 -0.1773
27034SOL     OW83108   7.492   2.562   1.256 -0.2614 -0.3022 -0.4437
27034SOL    HW183109   7.530   2.641   1.293  0.7535 -1.1776  0.4662
27034SOL    HW283110   7.537   2.551   1.171  0.0273 -0.2141 -0.3033
27035SOL     OW83111   5.394  10.150  10.741  0.1566 -0.0928  0.2959
27035SOL    HW183112   5.330  10.127  10.808 -0.5754 -0.1452 -0.4036
27035SOL    HW283113   5.358  10.229  10.700 -0.4691 -1.2062 -1.3964
27036SOL     OW83114  11.016   9.544   2.451  0.4502 -0.3625  0.1064
27036SOL    HW183115  10.973   9.463   2.476 -1.6577 -0.5378 -3.3634
27036SOL    HW283116  10.950   9.612   2.466  0.9680  0.2111 -0.1430
27037SOL     OW83117  10.075   2.682   7.882 -0.7322  0.0592 -0.2017
27037SOL    HW183118  10.128   2.739   7.938 -0.3180  1.0923 -1.5870
27037SOL    HW283119  10.009   2.645   7.941 -1.2101  2.2006  0.7106
27038SOL     OW83120   7.335   5.175   1.685  0.4891 -0.0110  0.1257
27038SOL    HW183121   7.386   5.197   1.607  0.6573 -1.5325 -0.2180
27038SOL    HW283122   7.250   5.147   1.651  0.4862 -0.4596  0.4930
27039SOL     OW83123   1.883   9.858   0.979 -0.4555  0.1593  0.0948
27039SOL    HW183124   1.940   9.913   0.925  0.0167  0.8842  1.2843
27039SOL    HW283125   1.942   9.823   1.047 -0.9306 -1.1163 -0.1165
27040SOL     OW83126   3.734   7.461   8.470 -0.3231 -0.0101 -0.1050
27040SOL    HW183127   3.736   7.434   8.378 -2.3889 -1.7667  0.2999
27040SOL    HW283128   3.816   7.427   8.507 -1.0715 -2.4856 -0.5336
27041SOL     OW83129   5.981   2.618   1.561 -0.1358  0.5498 -0.1375
27041SOL    HW183130   5.905   2.562   1.578  0.4083 -0.3711 -0.6762
27041SOL    HW283131   5.950   2.707   1.580 -1.0696  0.0934  0.5460
27042SOL     OW83132   8.901   0.221   1.962 -0.1760  0.3454 -0.6668
27042SOL    HW183133   8.853   0.139   1.952 -0.9713  0.5177  1.3063
27042SOL    HW283134   8.990   0.200   1.932 -0.1855 -1.4622  0.3878
27043SOL     OW83135   7.519   2.270   4.325 -0.5086  0.0834 -0.6267
27043SOL    HW183136   7.543   2.334   4.392 -1.7495  0.1111 -0.1686
27043SOL    HW283137   7.445   2.309   4.280 -1.8340 -1.3233  0.2045
27044SOL     OW83138   7.097   6.762   5.779  0.0138  0.1728  0.0372
27044SOL    HW183139   7.071   6.820   5.708 -0.4698  0.1281  0.1731
27044SOL    HW283140   7.187   6.736   5.757  0.2230  0.9401 -0.0386
27045SOL     OW83141   6.772   4.645   8.980 -0.9200 -0.4142  0.2532
27045SOL    HW183142   6.689   4.622   9.022 -0.5129  0.4156  1.5947
27045SOL    HW283143   6.832   4.660   9.053  0.4350 -1.0384 -0.7001
27046SOL     OW83144   2.626   0.486  10.570  0.1111  0.2635  0.6038
27046SOL    HW183145   2.586   0.450  10.649 -0.3594 -0.2179  0.1466
27046SOL    HW283146   2.570   0.561  10.547 -0.0038  0.1395  0.4796
27047SOL     OW83147   9.745   4.902   7.165  0.5493  0.3474 -0.7229
27047SOL    HW183148   9.830   4.857   7.163  0.7001  0.5582  0.3749
27047SOL    HW283149   9.764   4.987   7.204 -0.3366  0.0091  0.4822
27048SOL     OW83150   4.621   5.592   1.020 -0.3360  0.3179  0.1829
27048SOL    HW183151   4.681   5.562   1.089  1.5126  1.0700 -1.0317
27048SOL    HW283152   4.659   5.674   0.988 -1.6677  0.4859 -1.0895
27049SOL     OW83153  10.855  10.253  10.407 -0.1165 -0.3094 -0.1482
27049SOL    HW183154  10.826  10.335  10.447  0.6760 -0.0649 -0.0519
27049SOL    HW283155  10.813  10.252  10.321  0.0804  0.3425 -0.2602
27050SOL     OW83156   4.221   0.050   2.201 -0.0163  0.2730 -0.6929
27050SOL    HW183157   4.184   0.092   2.279 -0.1000  1.9451 -1.5781
27050SOL    HW283158   4.289   0.111   2.171  0.6464 -0.7798 -1.4103
27051SOL     OW83159   1.950   9.831   5.833 -0.2065  0.0954 -0.0960
27051SOL    HW183160   2.026   9.772   5.837  2.4212  3.2061  0.1613
27051SOL    HW283161   1.917   9.822   5.744  0.1790 -1.6060 -0.1086
27052SOL     OW83162   2.293   0.801  10.653  0.4000  0.5861 -0.1884
27052SOL    HW183163   2.260   0.809  10.563  0.0264 -0.8364 -0.1914
27052SOL    HW283164   2.313   0.708  10.663  0.5877  0.7588  1.1638
27053SOL     OW83165   4.385   7.841   6.036 -0.4267 -0.5755 -0.3398
27053SOL    HW183166   4.425   7.871   6.117 -0.1099 -0.0907 -0.6683
27053SOL    HW283167   4.296   7.816   6.061 -0.4397 -0.1180  0.1000
27054SOL     OW83168   4.206   2.408   8.512 -0.0599 -0.0633 -0.8175
27054SOL    HW183169   4.257   2.398   8.432 -1.8803 -0.0453 -2.0298
27054SOL    HW283170   4.150   2.484   8.496 -1.7321 -1.1327 -0.2699
27055SOL     OW83171   1.758   5.991   9.330  0.0592  0.4707  0.6571
27055SOL    HW183172   1.786   6.066   9.383 -0.5918 -0.3786  2.2564
27055SOL    HW283173   1.663   5.998   9.328  0.0778  0.6132 -0.6401
27056SOL     OW83174   3.029   7.729   5.643  0.3005 -0.1343  0.3321
27056SOL    HW183175   2.968   7.684   5.702  0.1427 -2.2677 -1.3605
27056SOL    HW283176   3.101   7.667   5.630  0.7792  0.6537 -0.9889
27057SOL     OW83177   1.819   2.433   1.905  0.0525  0.3391 -0.3165
27057SOL    HW183178   1.903   2.426   1.949  0.2490  1.7889 -0.3864
27057SOL    HW283179   1.822   2.367   1.836  0.7241 -0.2877  0.3032
27058SOL     OW83180   5.039   7.185   1.197 -0.6092 -0.2823 -0.2390
27058SOL    HW183181   4.958   7.139   1.218 -0.4909 -0.3571  0.0736
27058SOL    HW283182   5.029   7.213   1.107 -1.4634  0.7305  0.1616
27059SOL     OW83183   8.596   0.268   5.377  1.1557  0.2581  0.1954
27059SOL    HW183184   8.644   0.314   5.446 -0.4425 -1.0741  2.3361
27059SOL    HW283185   8.525   0.328   5.353  0.6204  0.0205  1.1102
27060SOL     OW83186   7.477  10.517   8.234 -0.5714  0.0151  0.1229
27060SOL    HW183187   7.547  10.519   8.169 -1.6766 -1.8383 -1.2287
27060SOL    HW283188   7.508  10.574   8.304  1.9889 -0.2129 -0.7082
27061SOL     OW83189   5.327   0.827   3.715  0.1716 -0.2365  0.0597
27061SOL    HW183190   5.346   0.743   3.758 -0.0693 -0.0930  0.4491
27061SOL    HW283191   5.276   0.876   3.780 -0.1820 -0.0110 -0.3875
27062SOL     OW83192   9.480   9.714   4.810  0.2791 -0.0484 -0.0493
27062SOL    HW183193   9.522   9.760   4.882 -0.1118  1.2124 -0.6090
27062SOL    HW283194   9.402   9.675   4.848 -0.9370  2.1789 -0.1480
27063SOL     OW83195  11.039  10.426   8.038 -0.0594  0.1704  0.4522
27063SOL    HW183196  11.127  10.464   8.043  0.3350 -0.5982 -0.4857
27063SOL    HW283197  11.048  10.351   7.980 -0.8723 -1.2392  2.0469
27064SOL     OW83198   0.414   8.014   9.900 -0.1944  0.1023  0.1392
27064SOL    HW183199   0.364   7.941   9.864 -1.8771  1.7929 -1.1408
27064SOL    HW283200   0.449   8.059   9.822  0.0915  1.1516  0.8545
27065SOL     OW83201   2.744   4.122   7.181  0.1709  0.4407  0.2847
27065SOL    HW183202   2.675   4.072   7.224  0.4240  0.5065  0.7874
27065SOL    HW283203   2.727   4.213   7.208  1.0226  0.3378  1.2411
27066SOL     OW83204   1.751   7.954   4.472 -0.4106  0.0447  0.7617
27066SOL    HW183205   1.768   7.917   4.385  0.7311 -1.4026  1.5739
27066SOL    HW283206   1.664   7.920   4.496 -0.5379  0.0963  0.3813
27067SOL     OW83207   4.599   3.014   9.709  0.2939  0.2996 -0.0748
27067SOL    HW183208   4.549   3.062   9.643  0.5590  0.4813 -0.1457
27067SOL    HW283209   4.555   3.035   9.792  0.3989  0.6524 -0.1085
27068SOL     OW83210   8.113   2.849   8.948  0.5006  0.1204 -0.2438
27068SOL    HW183211   8.193   2.870   8.901  0.3532  1.8710  0.2098
27068SOL    HW283212   8.065   2.932   8.953 -0.6845 -0.5749  0.7181
27069SOL     OW83213   1.451   0.625   9.027 -0.2291 -0.0344 -0.2372
27069SOL    HW183214   1.427   0.534   9.046 -1.4367  0.3538  0.1773
27069SOL    HW283215   1.515   0.648   9.094  1.1068 -0.9796 -1.1375
27070SOL     OW83216   2.307   1.317   1.748  0.1450 -0.0375 -0.0953
27070SOL    HW183217   2.324   1.303   1.842  0.8744  1.3381  0.0048
27070SOL    HW283218   2.393   1.305   1.707 -0.2651 -1.1112 -0.6714
27071SOL     OW83219   7.370   0.391   0.950 -0.4785  0.0451  0.1206
27071SOL    HW183220   7.302   0.456   0.969 -0.7480  0.0177 -0.6904
27071SOL    HW283221   7.447   0.422   0.997 -0.5292  1.0887 -0.4586
27072SOL     OW83222   7.393   4.783   7.874  0.2277 -0.4670  0.6308
27072SOL    HW183223   7.479   4.745   7.855  0.6222  0.2919  0.8306
27072SOL    HW283224   7.347   4.781   7.791  0.9252  0.2972  0.2009
27073SOL     OW83225   3.112   6.573   3.785  0.3071  0.0760 -0.3105
27073SOL    HW183226   3.175   6.588   3.714 -0.1166  0.8773 -0.5338
27073SOL    HW283227   3.128   6.483   3.813  2.0405  0.4963  0.1406
27074SOL     OW83228  10.525  10.225   0.209  0.2551  0.6751 -0.3526
27074SOL    HW183229  10.563  10.313   0.220 -0.3258  0.6660  2.3915
27074SOL    HW283230  10.591  10.166   0.245 -0.6403  0.3086  0.7463
27075SOL     OW83231   7.338   7.081   6.838 -0.1794  0.1743 -0.0027
27075SOL    HW183232   7.357   7.052   6.749 -0.7184  0.6048 -0.2630
27075SOL    HW283233   7.283   7.012   6.874  2.6803 -1.6929  1.1643
27076SOL     OW83234   5.964   4.793   2.983 -0.2652  0.0878 -0.5586
27076SOL    HW183235   5.982   4.866   3.043 -0.9008  0.1213 -0.4048
27076SOL    HW283236   5.939   4.835   2.901  1.4422  0.0542 -1.1444
27077SOL     OW83237   7.151   9.422   8.953 -0.0781 -0.2388  1.1016
27077SOL    HW183238   7.121   9.510   8.977  0.8274  0.1234  0.9441
27077SOL    HW283239   7.234   9.411   9.000  0.7991 -0.2392 -0.3566
27078SOL     OW83240   7.421   9.693   5.412 -0.0743  0.5446  0.3182
27078SOL    HW183241   7.436   9.754   5.340  0.2420 -0.0964 -0.1665
27078SOL    HW283242   7.443   9.607   5.376 -0.3326  0.1634  1.0486
27079SOL     OW83243   3.837   9.340  10.162  0.3546  0.0891  0.4488
27079SOL    HW183244   3.855   9.346  10.256 -0.5793 -1.1064  0.7278
27079SOL    HW283245   3.759   9.394  10.149  1.8014  2.1851 -0.0984
27080SOL     OW83246  10.079   6.158   4.854  0.0844  0.4357 -0.2551
27080SOL    HW183247  10.033   6.089   4.806  0.0269 -0.1420  0.6213
27080SOL    HW283248  10.168   6.123   4.865  0.2782  0.8458 -0.5006
27081SOL     OW83249   8.403   3.828   3.818  0.4479  0.3020  0.3536
27081SOL    HW183250   8.319   3.788   3.797  0.3568 -1.4653  3.5136
27081SOL    HW283251   8.386   3.923   3.816 -1.9075 -0.0109  1.7112
27082SOL     OW83252   1.624   4.538   7.820 -0.1965  0.3301  0.0692
27082SOL    HW183253   1.635   4.522   7.913 -1.2968  1.3592  0.4037
27082SOL    HW283254   1.572   4.618   7.815 -0.1359  0.3156 -1.4294
27083SOL     OW83255   9.126   0.926   5.841  0.1396 -0.2351 -0.4556
27083SOL    HW183256   9.215   0.961   5.831 -0.4427  1.6943  0.5372
27083SOL    HW283257   9.127   0.885   5.928 -0.6557  2.4598  0.9541
27084SOL     OW83258   7.062   3.241   6.677  0.6314  0.0880 -0.2367
27084SOL    HW183259   7.025   3.323   6.710  0.6640  0.6061 -1.4550
27084SOL    HW283260   6.985   3.186   6.662  0.3658  0.8847 -2.0146
27085SOL     OW83261   8.783   6.005   5.313  0.2352  0.0431 -0.5164
27085SOL    HW183262   8.755   6.041   5.229  1.1150 -0.2473 -0.9468
27085SOL    HW283263   8.726   6.047   5.377 -1.5031 -0.8630 -1.3892
27086SOL     OW83264   5.171   4.934   6.438  0.7490 -0.3230  0.2685
27086SOL    HW183265   5.176   4.859   6.379  0.8550  1.1056 -1.6248
27086SOL    HW283266   5.088   4.975   6.417 -0.3488 -1.0409  2.8095
27087SOL     OW83267   0.176   8.291   7.558 -0.0009 -1.0102  0.0440
27087SOL    HW183268   0.248   8.238   7.593  0.7880 -0.4859 -0.7372
27087SOL    HW283269   0.196   8.380   7.587  0.0057 -0.7675 -0.6859
27088SOL     OW83270   2.904   1.855   0.192 -0.0158  0.2289  0.0801
27088SOL    HW183271   2.854   1.806   0.127  0.2396  1.5513 -1.1584
27088SOL    HW283272   2.868   1.943   0.191  1.1818  0.7563  0.4101
27089SOL     OW83273   4.020   8.862   9.034  0.3948  0.5489  0.5057
27089SOL    HW183274   3.953   8.827   9.093  1.4586  0.0483  1.4562
27089SOL    HW283275   4.029   8.796   8.965 -0.1951  0.6942  0.2882
27090SOL     OW83276   9.295   0.131   4.123  0.7262 -0.5491 -0.2660
27090SOL    HW183277   9.228   0.070   4.155  0.0279 -0.1692 -0.9474
27090SOL    HW283278   9.282   0.133   4.028 -0.6610  2.1646 -0.1407
27091SOL     OW83279   7.922   9.073   0.240  0.5815 -0.5414 -0.0094
27091SOL    HW183280   7.977   9.077   0.318  0.3157 -0.5962  0.1811
27091SOL    HW283281   7.939   9.157   0.196 -1.4005  0.7760  1.5679
27092SOL     OW83282  10.089   6.916   1.406  0.8413 -0.0900 -0.2722
27092SOL    HW183283  10.141   6.936   1.483 -0.9058 -0.1627  0.9730
27092SOL    HW283284   9.999   6.911   1.438 -0.2638  2.0956 -2.6739
27093SOL     OW83285   3.112   4.013   8.278  0.1183 -0.1966  0.5491
27093SOL    HW183286   3.138   4.092   8.326  1.2895  0.1271 -0.5583
27093SOL    HW283287   3.126   3.942   8.340 -0.5886  0.4246  1.4369
27094SOL     OW83288   7.501   8.296   3.295 -0.1173 -0.0534  0.4248
27094SOL    HW183289   7.451   8.229   3.342 -0.1400 -0.1171  0.3086
27094SOL    HW283290   7.459   8.379   3.319 -1.1053 -0.2068 -0.7073
27095SOL     OW83291  10.585   9.634   6.789  0.2160 -0.1352 -0.2215
27095SOL    HW183292  10.555   9.677   6.709  0.8637  1.0598  0.1420
27095SOL    HW283293  10.522   9.661   6.856  1.5526  1.7469  0.3778
27096SOL     OW83294   4.144   8.960   4.945 -0.4426  0.4893 -0.0751
27096SOL    HW183295   4.096   8.955   4.862  2.1589  1.9005 -1.8033
27096SOL    HW283296   4.235   8.979   4.919  0.6967 -0.1034  3.0737
27097SOL     OW83297   9.694   6.692   3.958 -0.3047  0.0881 -0.1269
27097SOL    HW183298   9.756   6.765   3.963  0.6689 -0.7445  0.2785
27097SOL    HW283299   9.614   6.725   3.998  0.0383  1.0186 -0.1897
27098SOL     OW83300   7.320   2.892   7.683  0.6777 -0.0223  0.1426
27098SOL    HW183301   7.380   2.935   7.744  0.7926 -1.8763  1.4146
27098SOL    HW283302   7.237   2.940   7.693  0.6007 -0.5069  2.0313
27099SOL     OW83303  10.159   2.592   9.840 -0.1374  0.2502  0.1843
27099SOL    HW183304  10.076   2.549   9.857 -0.6459  1.1690  0.1267
27099SOL    HW283305  10.219   2.522   9.814 -0.8070 -0.4561  0.5360
27100SOL     OW83306   3.737   3.266   0.467  0.2501  0.1208 -0.0954
27100SOL    HW183307   3.758   3.177   0.497 -0.5007 -0.2859 -0.7624
27100SOL    HW283308   3.697   3.307   0.543  2.2947  0.5276  0.8294
27101SOL     OW83309   0.819   3.246   3.953 -0.3722 -0.4543 -0.2450
27101SOL    HW183310   0.892   3.229   4.012 -0.6908  0.8430  0.5746
27101SOL    HW283311   0.780   3.327   3.986 -0.8937  0.0258 -1.9214
27102SOL     OW83312   4.834   3.041   9.564 -0.8790 -0.0483  0.5270
27102SOL    HW183313   4.767   3.023   9.629  0.9157 -2.8227  1.8319
27102SOL    HW283314   4.853   2.956   9.525  0.2948  1.0322 -1.4343
27103SOL     OW83315   4.765   1.665   1.647  0.3252  0.3687 -0.4122
27103SOL    HW183316   4.716   1.588   1.679 -0.2230  0.8985  0.0533
27103SOL    HW283317   4.754   1.662   1.552 -1.8915  1.2656 -0.2533
27104SOL     OW83318   9.680   9.256   8.514  0.2190 -0.0910  0.5686
27104SOL    HW183319   9.722   9.291   8.435  0.9517 -0.9492  0.5683
27104SOL    HW283320   9.732   9.180   8.538 -0.3396 -0.1841  1.5585
27105SOL     OW83321  10.771   4.189   7.272 -0.2667  0.0498  0.1164
27105SOL    HW183322  10.766   4.178   7.177 -0.6535  0.3422  0.1024
27105SOL    HW283323  10.852   4.145   7.297 -0.2904 -0.2436 -0.3189
27106SOL     OW83324   7.917   9.399  10.821 -0.1893  0.1455  0.5721
27106SOL    HW183325   7.911   9.480  10.771 -1.5958 -0.6971 -0.6935
27106SOL    HW283326   7.925   9.330  10.755  2.0850 -0.7303  1.6235
27107SOL     OW83327   8.386   2.714   7.346 -0.0021 -0.0613  0.0073
27107SOL    HW183328   8.370   2.777   7.416  0.7130 -0.2201  0.3269
27107SOL    HW283329   8.311   2.655   7.350 -0.9602  1.0823 -0.6653
27108SOL     OW83330   4.973   0.414   0.736 -0.1722 -0.0158  0.2507
27108SOL    HW183331   4.979   0.508   0.716 -0.5251 -0.0635 -0.0986
27108SOL    HW283332   4.901   0.408   0.800 -0.3393 -0.0778  0.0582
27109SOL     OW83333   4.286   4.448   8.430  0.5981  0.1746  0.6651
27109SOL    HW183334   4.283   4.361   8.470 -0.9551  0.8024  2.0903
27109SOL    HW283335   4.201   4.457   8.386  1.7862 -0.0073 -1.8259
27110SOL     OW83336   6.513   9.537   0.250 -0.7024  0.2680  0.1264
27110SOL    HW183337   6.483   9.578   0.168  1.0859 -0.6675 -1.0624
27110SOL    HW283338   6.471   9.451   0.250  0.0834 -0.1266 -0.3477
27111SOL     OW83339   7.563   2.142   5.852  0.2721  0.4379  0.0723
27111SOL    HW183340   7.637   2.130   5.911  0.5134  1.3962 -0.0167
27111SOL    HW283341   7.498   2.189   5.904 -0.3845 -0.5877  0.2192
27112SOL     OW83342   1.319   0.483  10.008 -0.0317  0.0650  0.0518
27112SOL    HW183343   1.281   0.471  10.095 -0.4281 -0.0727 -0.1404
27112SOL    HW283344   1.276   0.560   9.972  0.3140  0.2725  0.0721
27113SOL     OW83345   7.683   6.193   6.118 -0.1534  0.0089  0.3127
27113SOL    HW183346   7.603   6.207   6.168 -0.0985  0.4666  0.2764
27113SOL    HW283347   7.671   6.108   6.076  0.1484 -0.7687  1.7457
27114SOL     OW83348   5.389   8.334   9.781  0.1183 -0.7575  0.1485
27114SOL    HW183349   5.437   8.252   9.791  1.1979 -0.1636 -0.0914
27114SOL    HW283350   5.331   8.336   9.857 -0.1885 -1.9059 -0.0300
27115SOL     OW83351   4.628   9.591   6.810 -0.1786 -0.0724  0.2007
27115SOL    HW183352   4.684   9.657   6.852 -1.6288  0.4739  1.3863
27115SOL    HW283353   4.666   9.507   6.835 -0.4867  0.2668  1.9267
27116SOL     OW83354   4.441   5.785   2.090  0.5036  0.6817 -0.1851
27116SOL    HW183355   4.377   5.715   2.077 -0.4873  1.6777 -0.9579
27116SOL    HW283356   4.493   5.757   2.165 -1.3620  0.1818  0.9926
27117SOL     OW83357   1.810   2.877   4.920  0.1420  0.5437 -0.2607
27117SOL    HW183358   1.732   2.844   4.874  0.4811 -1.0505  0.2181
27117SOL    HW283359   1.791   2.862   5.012  1.2013 -0.3530 -0.1649
27118SOL     OW83360   3.296   3.985   6.842  0.1343 -0.1496  0.0451
27118SOL    HW183361   3.247   4.052   6.891  1.9226  2.4209 -1.4821
27118SOL    HW283362   3.248   3.977   6.760 -0.2052 -0.9858  0.3128
27119SOL     OW83363   3.049   8.830   5.458 -0.1293  0.2566 -0.4274
27119SOL    HW183364   3.041   8.765   5.528  1.9766  0.5963  0.1937
27119SOL    HW283365   3.033   8.914   5.500  3.0387  0.6719  0.2304
27120SOL     OW83366   3.811  10.208   1.452 -0.0499  0.8517 -0.3152
27120SOL    HW183367   3.864  10.275   1.408 -0.4203  0.7290 -0.9537
27120SOL    HW283368   3.875  10.155   1.499  0.1397  2.7114  1.7140
27121SOL     OW83369   1.819   3.871   1.335 -0.4433 -0.1761 -0.6374
27121SOL    HW183370   1.907   3.893   1.366 -1.0552  0.3759  0.7769
27121SOL    HW283371   1.811   3.776   1.349 -0.0909 -0.2249 -0.7583
27122SOL     OW83372   6.156   4.646   3.138  0.2141 -0.2638  0.5233
27122SOL    HW183373   6.086   4.687   3.086 -1.5047 -1.0218  2.1134
27122SOL    HW283374   6.154   4.554   3.113  1.8248 -0.0293 -0.6196
27123SOL     OW83375   9.365   5.012   5.115 -0.1291  0.2019 -0.2081
27123SOL    HW183376   9.319   4.930   5.135 -0.0901  0.2090 -0.0878
27123SOL    HW283377   9.320   5.078   5.168  0.2374  0.1490  0.1705
27124SOL     OW83378  10.142   1.189   5.353 -0.2912  0.3712  0.3920
27124SOL    HW183379  10.193   1.158   5.278 -1.2682 -1.0543  0.2814
27124SOL    HW283380  10.171   1.135   5.426 -0.7783  0.3821  0.5988
27125SOL     OW83381   0.127   9.212   6.962  0.0104 -0.0799  0.1790
27125SOL    HW183382   0.047   9.212   7.013  1.7039 -3.4311  3.2834
27125SOL    HW283383   0.155   9.304   6.961 -1.8272  0.6005  2.4989
27126SOL     OW83384   9.123  10.814   3.922 -0.5238  0.2542 -0.2697
27126SOL    HW183385   9.030  10.798   3.906 -0.3947 -0.7159 -0.1183
27126SOL    HW283386   9.134  10.908   3.911 -1.2740  0.2019 -1.5545
27127SOL     OW83387   2.233   5.191  10.561  0.8596  0.4246  0.1369
27127SOL    HW183388   2.148   5.150  10.548  0.4569  0.6451  1.8023
27127SOL    HW283389   2.225   5.277  10.518 -0.4675  1.2349  1.8743
27128SOL     OW83390   2.805   3.801   2.636 -0.0386  0.4406 -1.1247
27128SOL    HW183391   2.722   3.754   2.646  0.4975 -0.2127  0.6812
27128SOL    HW283392   2.851   3.755   2.566  0.4150 -1.7645  0.4934
27129SOL     OW83393   6.278   9.098   4.747  0.3411  0.0304  0.2954
27129SOL    HW183394   6.242   9.033   4.807 -0.6032 -0.5725 -0.8927
27129SOL    HW283395   6.353   9.054   4.707  0.1435 -0.0680  0.0312
27130SOL     OW83396   1.592   2.986   0.729 -0.3251  0.5365 -0.1147
27130SOL    HW183397   1.526   3.022   0.670  1.9919  1.2947 -2.4197
27130SOL    HW283398   1.613   3.059   0.788 -1.9592  0.0645  1.1414
27131SOL     OW83399   9.679   6.692   0.500 -0.2125  0.4214 -0.1043
27131SOL    HW183400   9.584   6.707   0.495 -0.5435 -1.6179 -1.4147
27131SOL    HW283401   9.703   6.664   0.411  1.4374 -0.0336  0.4583
27132SOL     OW83402   9.081   9.007  10.339  0.1520 -0.4987 -0.6824
27132SOL    HW183403   9.174   9.000  10.362  0.1345  0.1706 -0.3741
27132SOL    HW283404   9.058   8.920  10.306  0.8728 -0.6887 -0.7104
27133SOL     OW83405   6.413   2.905   2.000 -0.7534 -0.1649 -0.1875
27133SOL    HW183406   6.474   2.973   2.027 -0.8223 -0.9013  1.9562
27133SOL    HW283407   6.437   2.888   1.908  0.9604  0.9247  0.0029
27134SOL     OW83408   8.490   4.870   5.516  0.4570  0.2333 -0.9017
27134SOL    HW183409   8.396   4.881   5.504  0.3388  0.3876  0.0849
27134SOL    HW283410   8.517   4.812   5.445 -0.4886 -0.3428 -0.8057
27135SOL     OW83411  10.828   5.216   0.400 -0.6216  0.0565 -0.4542
27135SOL    HW183412  10.785   5.131   0.398 -0.8190  0.1588 -0.5124
27135SOL    HW283413  10.758   5.278   0.416 -0.5013  0.2249 -0.5800
27136SOL     OW83414   7.187   6.470   3.125  0.5060  0.2489 -0.3371
27136SOL    HW183415   7.154   6.548   3.171  1.3439 -0.1067  0.8979
27136SOL    HW283416   7.229   6.505   3.047 -0.8603  0.8702 -0.8317
27137SOL     OW83417   6.752   2.362   2.546  0.5257  0.2037 -0.1901
27137SOL    HW183418   6.795   2.436   2.587 -0.3970  0.3166  0.6113
27137SOL    HW283419   6.723   2.307   2.619  0.2770 -0.4095 -0.7366
27138SOL     OW83420   6.398   8.833   6.281 -0.3798 -0.4120 -0.3321
27138SOL    HW183421   6.366   8.754   6.237 -0.3224 -1.7532  1.9050
27138SOL    HW283422   6.324   8.862   6.335  0.1081  0.1673  0.0378
27139SOL     OW83423   3.000   1.425  10.949 -0.1050 -0.2141  0.2462
27139SOL    HW183424   2.921   1.384  10.915  0.4631 -0.3440 -0.9837
27139SOL    HW283425   3.007   1.507  10.900 -0.3001  0.5352  1.4512
27140SOL     OW83426   7.813   2.496   8.064 -0.6809  0.0504  0.2153
27140SOL    HW183427   7.846   2.489   8.153  2.2254 -0.0236 -0.7760
27140SOL    HW283428   7.754   2.572   8.066 -1.3488 -0.4677  2.3276
27141SOL     OW83429   8.915   7.697   8.839  0.5602  0.5393 -0.0623
27141SOL    HW183430   8.926   7.768   8.902 -2.1110  1.3871 -0.4317
27141SOL    HW283431   8.967   7.625   8.874 -1.1956  0.7831  3.4486
27142SOL     OW83432   3.340  10.321   2.509  0.2855 -0.0952  0.2750
27142SOL    HW183433   3.394  10.319   2.430  0.0978  1.7049  0.0557
27142SOL    HW283434   3.252  10.299   2.479  0.6751 -2.1496  0.4859
27143SOL     OW83435   6.378   7.135   9.716  0.0081  0.3704  0.1819
27143SOL    HW183436   6.455   7.127   9.771  0.2384 -1.3102 -0.3265
27143SOL    HW283437   6.412   7.130   9.626 -0.8178 -3.5549 -0.1034
27144SOL     OW83438   2.906   2.103   5.286 -0.3188  0.1414  0.2164
27144SOL    HW183439   2.949   2.189   5.278 -1.5987  0.6405 -2.2284
27144SOL    HW283440   2.979   2.041   5.290  0.6736  1.1507 -1.1576
27145SOL     OW83441  10.008   5.527   1.200 -0.0379  0.1833 -0.7176
27145SOL    HW183442  10.048   5.503   1.116 -0.2428  0.3427 -0.8626
27145SOL    HW283443  10.044   5.465   1.263 -0.8391 -0.7436 -1.1451
27146SOL     OW83444   0.887   1.677   1.174 -0.2469 -0.5209  0.1228
27146SOL    HW183445   0.951   1.691   1.244  1.0586 -0.2799 -1.0764
27146SOL    HW283446   0.915   1.597   1.132 -1.4242 -1.0282  0.2714
27147SOL     OW83447   7.718   8.924   2.774 -0.1687  0.1837  0.7776
27147SOL    HW183448   7.750   9.013   2.787 -2.2283  1.2040 -0.5818
27147SOL    HW283449   7.641   8.918   2.831 -1.6027  0.2435 -1.0707
27148SOL     OW83450   2.288   0.009   9.623 -0.2205 -0.0318  0.7322
27148SOL    HW183451   2.361  -0.053   9.618  0.5448  0.8293  0.8887
27148SOL    HW283452   2.309   0.076   9.559 -0.4385  0.6774  1.3821
27149SOL     OW83453   5.440   6.121   0.910  0.3791 -0.0083  0.1915
27149SOL    HW183454   5.452   6.026   0.920 -0.5931 -0.0815  0.8538
27149SOL    HW283455   5.352   6.130   0.876  0.0933  0.6884  1.0710
27150SOL     OW83456   6.654   5.520   6.823  0.0475 -0.0429 -0.2111
27150SOL    HW183457   6.575   5.524   6.770 -0.7813  1.0311  1.0388
27150SOL    HW283458   6.636   5.453   6.888  0.7236 -0.7567 -0.7420
27151SOL     OW83459   9.260   0.203   1.519  0.3231 -0.0658 -0.3319
27151SOL    HW183460   9.282   0.203   1.612 -0.4604 -0.6337 -0.1347
27151SOL    HW283461   9.251   0.296   1.496  2.0312  0.1506 -0.2339
27152SOL     OW83462   2.289   7.013   1.713  0.1914  0.3557 -0.0932
27152SOL    HW183463   2.280   6.996   1.619  1.9723 -3.4496  0.2125
27152SOL    HW283464   2.216   6.966   1.753  0.4068  0.5282  0.5099
27153SOL     OW83465  10.672   8.964   6.119  0.1920  0.5279  0.0129
27153SOL    HW183466  10.621   8.960   6.201 -0.0927  1.8486 -0.0683
27153SOL    HW283467  10.690   8.873   6.098  0.6075  0.1599  1.7617
27154SOL     OW83468   1.808   0.756   2.808  0.0818 -0.1343  0.3988
27154SOL    HW183469   1.812   0.683   2.871  1.7656 -0.5456 -0.1398
27154SOL    HW283470   1.814   0.714   2.723  0.5474  0.6018  0.0626
27155SOL     OW83471   2.469   6.895   0.400  0.1741 -0.4871 -0.5989
27155SOL    HW183472   2.555   6.853   0.397  0.1617 -0.8026  1.7251
27155SOL    HW283473   2.412   6.829   0.439 -0.6007  0.5154  0.0112
27156SOL     OW83474   5.579   5.894   4.758  0.3067  0.3769  0.0875
27156SOL    HW183475   5.566   5.839   4.681 -0.9205  1.6057 -0.6183
27156SOL    HW283476   5.502   5.950   4.761  1.6535  2.2910  0.6015
27157SOL     OW83477   2.770   7.758   4.423  0.4284  0.0058 -0.3409
27157SOL    HW183478   2.712   7.790   4.492 -1.6423  1.6888 -2.6940
27157SOL    HW283479   2.720   7.689   4.379  1.1364 -0.0855 -1.0219
27158SOL     OW83480   0.922   7.122   9.639 -0.4315 -0.0457 -0.3602
27158SOL    HW183481   1.001   7.175   9.651 -0.9207  0.3328  1.4465
27158SOL    HW283482   0.854   7.168   9.689 -1.2253 -1.6231  0.0713
27159SOL     OW83483  10.008   1.974   3.386  0.2148  0.3791  0.1009
27159SOL    HW183484   9.977   1.927   3.309  0.2549  0.8469 -0.2001
27159SOL    HW283485  10.056   2.049   3.351  0.5408  0.3951  0.5753
27160SOL     OW83486   4.123   0.693   3.337 -0.3024  0.2476 -0.4728
27160SOL    HW183487   4.103   0.718   3.427 -0.1097 -1.6357  0.1337
27160SOL    HW283488   4.219   0.686   3.335 -0.3396 -0.3292 -0.6215
27161SOL     OW83489   0.718  10.064   9.410 -0.0407 -0.5696  0.0318
27161SOL    HW183490   0.685  10.049   9.321 -0.1102  0.7857 -0.1844
27161SOL    HW283491   0.730   9.976   9.445 -0.3330 -1.1301 -1.1987
27162SOL     OW83492   9.857   1.970   5.674 -0.1268  0.4442 -0.2251
27162SOL    HW183493   9.811   2.020   5.741 -2.6185 -1.2058 -0.5356
27162SOL    HW283494   9.839   2.017   5.593 -1.7629 -0.4333 -0.4069
27163SOL     OW83495   6.642   3.310   7.564 -0.2537  0.2574  0.0358
27163SOL    HW183496   6.657   3.283   7.473  0.3276  0.9683 -0.0805
27163SOL    HW283497   6.689   3.392   7.573 -0.4416  0.2721  0.9422
27164SOL     OW83498   7.120   1.157   8.399  0.0644  0.2800 -0.7127
27164SOL    HW183499   7.188   1.091   8.410  1.7984  1.7155 -2.0694
27164SOL    HW283500   7.167   1.241   8.406 -1.4696  1.3130 -2.0839
27165SOL     OW83501   4.988   2.228   1.761 -0.0029 -0.3005  0.4275
27165SOL    HW183502   5.081   2.210   1.774  0.3905  1.1973 -0.0901
27165SOL    HW283503   4.957   2.260   1.846  0.6469  1.7785 -0.0419
27166SOL     OW83504   4.355   9.082   6.189 -0.0250  0.1281  0.5070
27166SOL    HW183505   4.359   9.016   6.257 -1.6302  0.8467  1.3585
27166SOL    HW283506   4.433   9.136   6.202  1.0350 -1.2707  0.1060
27167SOL     OW83507   0.921   2.758   4.093 -0.0437 -0.4402  0.6069
27167SOL    HW183508   0.883   2.845   4.103 -1.6566 -1.3170  2.9975
27167SOL    HW283509   0.873   2.719   4.021  0.7981  0.6346 -0.5941
27168SOL     OW83510   2.330   1.557   4.648 -0.0812  0.1393  0.0677
27168SOL    HW183511   2.270   1.500   4.696 -0.3322  0.5749  0.2754
27168SOL    HW283512   2.315   1.644   4.684  0.6989  0.2527  0.1510
27169SOL     OW83513   2.632   1.212   0.481 -0.5904  0.7606  0.1037
27169SOL    HW183514   2.684   1.188   0.403 -1.1099 -0.5872  0.1454
27169SOL    HW283515   2.592   1.296   0.458 -0.9875  0.2320 -1.2234
27170SOL     OW83516   0.398   9.009   2.569  0.1482  0.3001 -0.3592
27170SOL    HW183517   0.399   8.925   2.522  1.8049 -0.8048  1.5035
27170SOL    HW283518   0.375   9.073   2.502 -0.9416 -1.5929 -1.9037
27171SOL     OW83519   6.432   1.064   4.567  0.3326  0.4396  0.1608
27171SOL    HW183520   6.356   1.089   4.513  0.8821 -1.3389 -1.5341
27171SOL    HW283521   6.398   0.997   4.626  0.5294 -0.2924 -0.5376
27172SOL     OW83522  10.665   9.694   1.564  0.2300  0.0660 -0.0289
27172SOL    HW183523  10.742   9.638   1.566  0.0207 -0.1972  0.8690
27172SOL    HW283524  10.677   9.749   1.486  0.3032 -1.4202 -1.1169
27173SOL     OW83525   1.302   6.795  10.912 -0.0198  0.7860  0.2923
27173SOL    HW183526   1.212   6.766  10.928 -0.1755  0.1787 -1.4766
27173SOL    HW283527   1.294   6.859  10.841  0.7853  2.0576  1.2949
27174SOL     OW83528   2.454   2.292   4.673  0.5075 -0.0436 -0.2341
27174SOL    HW183529   2.429   2.362   4.733 -1.9940 -0.3797 -0.7859
27174SOL    HW283530   2.425   2.212   4.717  1.6314 -0.5883 -0.4517
27175SOL     OW83531   4.457   9.456  10.746 -0.2539 -0.1304 -0.6485
27175SOL    HW183532   4.363   9.471  10.738 -0.0688  2.3919  0.9113
27175SOL    HW283533   4.464   9.389  10.815 -0.8928 -0.5187 -0.9511
27176SOL     OW83534   9.121   7.129   0.067  0.5468  0.5719 -0.1456
27176SOL    HW183535   9.031   7.161   0.069  0.8925  1.5726  0.0721
27176SOL    HW283536   9.130   7.086  -0.018 -0.3365 -0.1597  0.1196
27177SOL     OW83537   2.623   7.390   6.506 -0.3271  0.3823 -0.0489
27177SOL    HW183538   2.705   7.356   6.542  0.1550  0.7011 -0.8186
27177SOL    HW283539   2.640   7.397   6.412 -1.4103 -0.0327 -0.2885
27178SOL     OW83540   7.835   0.960   0.747  0.7731  0.1084 -0.4078
27178SOL    HW183541   7.799   0.872   0.739 -0.1123  0.2603  1.3098
27178SOL    HW283542   7.767   1.018   0.713  0.5226  0.2324  0.2862
27179SOL     OW83543   4.999  10.271   8.166 -0.2379 -0.2368 -0.5346
27179SOL    HW183544   5.000  10.298   8.259 -1.9229 -0.5991 -0.3832
27179SOL    HW283545   4.991  10.176   8.169  2.0790 -0.5089 -1.0916
27180SOL     OW83546   9.244  10.391   0.763 -0.0641  0.1676  0.3193
27180SOL    HW183547   9.232  10.338   0.842  0.4834 -0.3271  0.0766
27180SOL    HW283548   9.160  10.435   0.750 -0.9528 -1.5962 -0.1746
27181SOL     OW83549   9.716   1.029   5.013 -0.3138  0.0966 -0.6771
27181SOL    HW183550   9.789   1.082   5.047 -0.3024  0.3550 -1.0959
27181SOL    HW283551   9.681   1.081   4.941 -1.7676  0.6160  0.3462
27182SOL     OW83552   9.569   6.086   4.897 -0.6525  0.0552 -0.1745
27182SOL    HW183553   9.514   6.105   4.974  0.4514  0.3083  0.5813
27182SOL    HW283554   9.559   5.992   4.883 -1.5404  0.1567 -0.2653
27183SOL     OW83555   7.724   9.331   6.030  0.0323  0.3383 -0.4163
27183SOL    HW183556   7.651   9.359   6.085  0.8608  1.6977  0.0474
27183SOL    HW283557   7.766   9.260   6.078  0.5282  1.2661  0.5664
27184SOL     OW83558   3.206   8.837   4.241  0.1504 -0.3226 -0.2522
27184SOL    HW183559   3.290   8.826   4.197  0.6755  0.0151  0.6493
27184SOL    HW283560   3.227   8.876   4.326 -0.8505 -0.8725  0.2763
27185SOL     OW83561   2.502   1.832   4.903 -0.2126  0.0768  0.3613
27185SOL    HW183562   2.518   1.747   4.863  1.4245 -0.0844  1.2920
27185SOL    HW283563   2.581   1.883   4.884 -1.5559  1.7764 -1.0500
27186SOL     OW83564   8.944   7.997   7.175  0.1266  0.4533  0.3261
27186SOL    HW183565   8.896   7.982   7.093  1.5811  1.0533 -0.6578
27186SOL    HW283566   8.944   7.911   7.218  2.3429 -0.8041 -1.9615
27187SOL     OW83567   7.233   0.876   6.993 -0.0856  0.9174  0.6832
27187SOL    HW183568   7.287   0.893   7.070  0.9831 -0.1181  0.2130
27187SOL    HW283569   7.257   0.945   6.931  1.3003  0.0616  0.2096
27188SOL     OW83570   6.971   0.984   3.476  0.4067  0.6698  0.0252
27188SOL    HW183571   6.979   0.963   3.383  0.3658 -1.2132  0.4037
27188SOL    HW283572   6.941   0.903   3.516 -0.4013  1.6791  1.5827
27189SOL     OW83573   2.398   3.907  10.842 -0.0141  0.5942  0.0134
27189SOL    HW183574   2.479   3.904  10.892  0.6097  1.5751 -0.9098
27189SOL    HW283575   2.376   3.815  10.827  0.6601  0.3119  0.6693
27190SOL     OW83576   4.382   3.049   7.352 -0.5833 -0.6842 -0.0928
27190SOL    HW183577   4.416   3.121   7.406  0.4565 -0.8174 -0.5441
27190SOL    HW283578   4.287   3.056   7.360 -0.4637 -0.7136  1.7780
27191SOL     OW83579   7.327   3.075   1.924  0.0305  0.5412 -0.0989
27191SOL    HW183580   7.422   3.066   1.929 -0.0759 -0.8754 -0.4228
27191SOL    HW283581   7.301   3.101   2.013  0.6691  0.4782  0.1077
27192SOL     OW83582   9.818   2.828   2.012 -0.0712  0.0963 -0.3277
27192SOL    HW183583   9.912   2.833   2.031 -0.1615  0.1760  0.1057
27192SOL    HW283584   9.811   2.854   1.921  0.4993 -1.3356 -0.8117
27193SOL     OW83585   2.509   4.816   5.252  0.6346 -0.1040 -0.2390
27193SOL    HW183586   2.577   4.880   5.273  1.4481 -0.2676 -2.1378
27193SOL    HW283587   2.542   4.734   5.288  3.2246 -0.9172 -3.8078
27194SOL     OW83588   3.767   4.419   5.548  0.0951  0.3809  0.0770
27194SOL    HW183589   3.678   4.402   5.579  0.0875 -0.2592 -0.2975
27194SOL    HW283590   3.818   4.344   5.578  0.1949 -0.0010 -1.0049
27195SOL     OW83591   7.553  10.503   1.296  0.4347  0.6634  0.8751
27195SOL    HW183592   7.495  10.491   1.371 -0.7210  2.7845  0.3950
27195SOL    HW283593   7.638  10.470   1.326 -0.9518 -2.6319  1.5510
27196SOL     OW83594   6.542   3.032   7.332 -0.0320  0.0411 -0.0570
27196SOL    HW183595   6.501   2.988   7.258 -1.9972  1.7344 -0.0793
27196SOL    HW283596   6.579   2.962   7.385  1.2858 -1.2321 -2.5151
27197SOL     OW83597   7.201   9.171   6.868  0.5528  0.3243  0.5162
27197SOL    HW183598   7.204   9.124   6.785 -0.1190 -0.0049  0.6669
27197SOL    HW283599   7.255   9.120   6.927  0.4600  0.1686  0.4678
27198SOL     OW83600   0.107  11.007  10.555 -0.5407 -0.2829  0.1195
27198SOL    HW183601   0.056  11.065  10.499  0.3158 -0.8189 -1.2460
27198SOL    HW283602   0.188  10.992  10.508  0.4914 -0.2532  1.8003
27199SOL     OW83603   9.154   8.990   7.135  0.2886 -0.2389  0.1034
27199SOL    HW183604   9.145   9.048   7.211  1.3904  0.6720 -0.4305
27199SOL    HW283605   9.232   8.938   7.153  1.1637  0.7070 -0.8415
27200SOL     OW83606   3.758   5.814   9.821 -0.7304 -0.5609  0.1102
27200SOL    HW183607   3.684   5.779   9.771 -0.4590 -0.2073 -0.5596
27200SOL    HW283608   3.732   5.903   9.845 -1.2182 -1.0247  1.3835
27201SOL     OW83609   1.101  10.064   0.387  0.1143  0.2201  0.3592
27201SOL    HW183610   1.088   9.995   0.322  0.3157 -3.8594  4.1743
27201SOL    HW283611   1.015  10.075   0.428  0.4117  1.2524  0.7458
27202SOL     OW83612   2.362   6.669  10.436  0.6374  0.3716  0.1211
27202SOL    HW183613   2.269   6.649  10.449  0.8335  0.0965  1.1802
27202SOL    HW283614   2.405   6.583  10.435  1.1603  0.5514  2.0492
27203SOL     OW83615   2.655   5.369  10.814  0.0180 -0.5050  0.1348
27203SOL    HW183616   2.583   5.374  10.751 -0.5369  0.8461  0.8449
27203SOL    HW283617   2.662   5.276  10.836 -1.3803 -0.6745 -0.0889
27204SOL     OW83618  10.827   1.770   4.919 -0.6102 -0.2046  0.1241
27204SOL    HW183619  10.771   1.745   4.993 -0.2277 -1.9282 -0.1210
27204SOL    HW283620  10.878   1.691   4.900 -0.6748  0.1999 -1.9702
27205SOL     OW83621   6.327   7.951   2.956  0.3274  0.1211  0.0864
27205SOL    HW183622   6.402   7.993   2.997 -0.2215  1.7107 -0.4825
27205SOL    HW283623   6.273   8.023   2.924 -1.0424 -1.0055 -0.2412
27206SOL     OW83624   6.292   8.358   5.285 -0.0351 -0.0028 -0.2047
27206SOL    HW183625   6.259   8.274   5.253  0.0426  0.0447 -0.4110
27206SOL    HW283626   6.363   8.380   5.226  0.1870  0.0312  0.0744
27207SOL     OW83627   4.945   6.050   9.096 -0.0181 -0.0273  0.3234
27207SOL    HW183628   4.906   6.021   9.178  0.1232  2.1510  1.2453
27207SOL    HW283629   4.870   6.078   9.043 -0.0175 -0.1142  0.2771
27208SOL     OW83630   2.917   8.959   8.934  0.2912  0.3466  0.3687
27208SOL    HW183631   2.854   8.969   9.005 -1.0021 -0.7735 -0.5616
27208SOL    HW283632   2.916   9.042   8.888 -0.6050  0.3023  0.2979
27209SOL     OW83633   0.809   1.623  10.570 -0.4127  0.5155  0.2188
27209SOL    HW183634   0.832   1.551  10.629  0.2247  0.7635  0.2895
27209SOL    HW283635   0.732   1.592  10.523 -1.0575  0.3950  1.3156
27210SOL     OW83636   3.506   6.103   1.424 -0.1110  0.7007 -0.3728
27210SOL    HW183637   3.549   6.054   1.354  0.7679  1.3458 -0.3104
27210SOL    HW283638   3.423   6.132   1.386 -0.2662 -0.1150 -0.6770
27211SOL     OW83639   6.046   5.997   1.534  0.2262 -0.3080 -0.5352
27211SOL    HW183640   6.045   6.068   1.599  0.1572 -2.1696  1.6305
27211SOL    HW283641   6.123   5.945   1.556 -0.3949 -1.5867 -1.2591
27212SOL     OW83642   6.948   2.582   7.150  0.5743 -0.5789 -0.2848
27212SOL    HW183643   6.994   2.653   7.105  1.0175 -0.3230  0.5509
27212SOL    HW283644   6.905   2.625   7.224 -0.2143 -0.9780 -0.5078
27213SOL     OW83645   2.978  10.331   8.861  0.7882  0.2069 -0.4674
27213SOL    HW183646   2.980  10.277   8.782  0.3706  1.5277 -1.4035
27213SOL    HW283647   3.049  10.296   8.915  1.3255 -0.4843 -1.5766
27214SOL     OW83648   8.171   8.197   5.071 -0.6765 -0.4844 -0.2813
27214SOL    HW183649   8.254   8.216   5.028  0.2651 -1.9977  0.7589
27214SOL    HW283650   8.185   8.222   5.162 -1.4751 -0.4530 -0.1608
27215SOL     OW83651   8.499   6.585   5.442 -0.1709 -0.3748  0.3156
27215SOL    HW183652   8.541   6.663   5.478 -0.0619 -0.2607 -0.0670
27215SOL    HW283653   8.570   6.535   5.402 -0.2815 -0.5513  0.3356
27216SOL     OW83654   6.399   6.381   6.528  0.4590 -0.0196 -0.3738
27216SOL    HW183655   6.358   6.416   6.607  1.2516 -2.5936  1.2996
27216SOL    HW283656   6.334   6.397   6.458  0.1976  3.3060  0.4321
27217SOL     OW83657  10.672   3.288   8.045 -0.2857  0.5601 -0.0472
27217SOL    HW183658  10.766   3.273   8.058  0.0588  1.5802 -1.1463
27217SOL    HW283659  10.667   3.376   8.008 -1.9317  1.7810  2.7952
27218SOL     OW83660   3.103   5.028   9.436 -0.0989  0.1914 -0.4361
27218SOL    HW183661   3.060   5.106   9.400  0.9531  0.2624 -1.5975
27218SOL    HW283662   3.067   4.955   9.387 -0.8060 -0.0365  0.3957
27219SOL     OW83663   6.226   6.027   7.715 -0.1498 -0.1334  0.1121
27219SOL    HW183664   6.220   6.036   7.810  0.7484  0.4472  0.1306
27219SOL    HW283665   6.254   5.936   7.702 -1.2684 -0.5215  0.3418
27220SOL     OW83666   3.064   6.003   9.144 -0.0175  0.6026  0.2471
27220SOL    HW183667   3.061   6.027   9.051  0.9502  0.0830  0.0712
27220SOL    HW283668   3.110   6.075   9.186 -1.0367  1.1607  0.4510
27221SOL     OW83669   2.081   4.962   6.276  0.3479 -0.3288 -0.4964
27221SOL    HW183670   2.085   4.879   6.228 -0.7552 -0.5640 -0.1880
27221SOL    HW283671   2.164   5.005   6.253  0.0890 -0.6518 -2.2133
27222SOL     OW83672   4.778   2.947   1.434  0.2910 -0.2072  0.0045
27222SOL    HW183673   4.793   2.853   1.439 -1.5639 -0.5185  0.4213
27222SOL    HW283674   4.835   2.977   1.363  2.1810 -1.3319  0.9528
27223SOL     OW83675   9.361   7.234   4.826  0.0689  0.2331 -0.2624
27223SOL    HW183676   9.427   7.246   4.758  0.3232  1.0000  0.1068
27223SOL    HW283677   9.369   7.312   4.881  0.1189 -0.5451  0.8627
27224SOL     OW83678   0.727   3.780   4.073 -0.0826  0.4266  0.2442
27224SOL    HW183679   0.783   3.773   3.996 -0.5307  0.3688 -0.0847
27224SOL    HW283680   0.670   3.703   4.068 -1.4061  1.4128 -0.4329
27225SOL     OW83681   3.099   9.961   8.383 -0.3959  0.0688 -0.1021
27225SOL    HW183682   3.029   9.901   8.413  0.7364 -1.2209  0.0685
27225SOL    HW283683   3.089  10.038   8.438 -0.0890 -1.1498  1.7532
27226SOL     OW83684   0.697   9.031   0.473 -0.0360  0.1297  0.4826
27226SOL    HW183685   0.718   9.004   0.563 -1.4574 -0.4862  0.6415
27226SOL    HW283686   0.638   9.105   0.483 -2.0313 -1.3461  0.1074
27227SOL     OW83687   8.087   5.714   0.907  0.2154 -0.2856  0.1776
27227SOL    HW183688   8.096   5.734   1.000 -1.2963 -1.0163  0.5183
27227SOL    HW283689   7.994   5.691   0.897  0.4922 -0.8125 -1.3907
27228SOL     OW83690   7.453   1.802  10.312 -0.3308 -0.1352  0.5335
27228SOL    HW183691   7.487   1.715  10.294 -0.0253 -0.1613  1.2064
27228SOL    HW283692   7.426   1.836  10.226 -1.7351 -1.4082  0.4302
27229SOL     OW83693   0.240   2.088   0.949  0.5176  0.3526 -0.5641
27229SOL    HW183694   0.310   2.133   0.997 -0.8292  0.7110  1.1531
27229SOL    HW283695   0.197   2.158   0.900  1.2261  0.1526 -1.5133
27230SOL     OW83696  10.215   7.748   7.606 -0.0556 -0.5600 -0.2578
27230SOL    HW183697  10.229   7.714   7.518 -0.3169  3.5662 -2.1561
27230SOL    HW283698  10.302   7.775   7.635 -0.3648  1.0231 -0.7124
27231SOL     OW83699   3.131   5.707   3.572 -0.2455  0.2620 -0.1101
27231SOL    HW183700   3.219   5.710   3.536  0.0109  0.6602  0.5284
27231SOL    HW283701   3.094   5.793   3.553  0.3439  0.9498  1.6402
27232SOL     OW83702   4.111   7.612   0.020  0.6346 -0.5978  0.1746
27232SOL    HW183703   4.106   7.681   0.087  1.3537  0.2971 -0.6569
27232SOL    HW283704   4.108   7.659  -0.063 -1.1479 -1.7575 -0.4695
27233SOL     OW83705   1.491  10.927   2.033 -0.2970  0.3522  0.0013
27233SOL    HW183706   1.449  10.871   1.968 -1.1030  0.6106  0.2902
27233SOL    HW283707   1.465  10.889   2.117  1.1530 -0.2962  0.2029
27234SOL     OW83708  11.011   3.942   7.927  0.1645 -0.2610 -0.2194
27234SOL    HW183709  11.003   3.960   7.833  0.7258 -0.7874 -0.3758
27234SOL    HW283710  11.021   3.846   7.932  0.3596 -0.2133  0.3547
27235SOL     OW83711   2.305   2.246   0.419  0.2494 -0.1479 -0.1979
27235SOL    HW183712   2.227   2.269   0.469 -0.1195  0.2489 -0.9340
27235SOL    HW283713   2.309   2.312   0.350  1.2574 -0.1527 -0.1522
27236SOL     OW83714   9.144   0.665   8.658 -0.1057  0.3151  0.2135
27236SOL    HW183715   9.100   0.582   8.638  0.3330  0.2228 -0.3956
27236SOL    HW283716   9.227   0.639   8.699  0.2576  0.4333 -0.4342
27237SOL     OW83717  11.027   5.505   9.453  0.2527 -0.4688  0.3090
27237SOL    HW183718  11.099   5.497   9.391 -0.5279  1.3408 -0.9020
27237SOL    HW283719  10.952   5.466   9.408 -1.2633  4.0800 -1.6976
27238SOL     OW83720   3.949   7.574   0.544  0.5428  0.4535 -0.2162
27238SOL    HW183721   3.962   7.544   0.634  1.1612  0.3814 -0.3214
27238SOL    HW283722   4.037   7.576   0.507  0.3757  1.2361 -0.5843
27239SOL     OW83723   2.899   8.040   1.618 -0.3475  0.3941 -0.1088
27239SOL    HW183724   2.925   8.130   1.639  1.1931 -0.1697  0.6297
27239SOL    HW283725   2.870   8.004   1.702 -0.6225  0.1087 -0.3269
27240SOL     OW83726   9.327   5.013   4.165  0.0492  0.2424 -0.2052
27240SOL    HW183727   9.281   5.028   4.247  0.1398  2.1204 -0.4559
27240SOL    HW283728   9.340   4.918   4.162 -0.8710  0.0229  1.4315
27241SOL     OW83729   0.649   4.819   1.015 -0.7422 -0.2879 -0.1009
27241SOL    HW183730   0.609   4.732   1.016  0.6765 -1.0308  2.4531
27241SOL    HW283731   0.635   4.853   1.103  0.0971  1.4147 -0.5692
27242SOL     OW83732   2.849   8.625   8.051  0.5603  0.0700 -0.0144
27242SOL    HW183733   2.808   8.653   8.134  0.0085 -1.4629  0.2583
27242SOL    HW283734   2.941   8.650   8.061  0.3630  0.5406  0.7752
27243SOL     OW83735  10.864   2.337   9.933 -0.4005  0.2861  0.1759
27243SOL    HW183736  10.907   2.366   9.852 -0.2740  1.4612  0.6395
27243SOL    HW283737  10.796   2.276   9.904  0.2409 -0.0188 -0.7341
27244SOL     OW83738   2.537   1.848   0.090 -0.0496 -0.3898 -0.6081
27244SOL    HW183739   2.518   1.924   0.146  0.7641  0.3592 -1.3095
27244SOL    HW283740   2.451   1.814   0.065 -0.6044  2.2909 -2.9083
27245SOL     OW83741  10.909   5.961   5.210  0.5748 -0.2215  0.1827
27245SOL    HW183742  10.884   5.909   5.134 -0.2770 -0.3738  0.5504
27245SOL    HW283743  11.000   5.936   5.228  0.5066 -0.8129 -0.2717
27246SOL     OW83744   9.119   1.171   6.884  0.3317 -0.3763  0.0822
27246SOL    HW183745   9.128   1.079   6.858  2.6867  0.2858 -1.8786
27246SOL    HW283746   9.036   1.199   6.845  0.8087 -1.0658 -1.5398
27247SOL     OW83747   8.562   1.374   3.065  0.4361 -0.1517  0.4167
27247SOL    HW183748   8.625   1.380   2.994  1.2016  0.2313  1.1139
27247SOL    HW283749   8.612   1.339   3.139 -0.3927 -0.7375  0.7161
27248SOL     OW83750   3.517   8.754   7.963 -0.3341  0.3936 -0.8119
27248SOL    HW183751   3.533   8.846   7.946 -0.7455  0.6934  0.3457
27248SOL    HW283752   3.477   8.752   8.049  3.1494 -1.1285  0.9810
27249SOL     OW83753   8.223   2.552   5.818  0.4487 -0.0257  0.1168
27249SOL    HW183754   8.187   2.496   5.749 -3.0068 -0.4158  2.0004
27249SOL    HW283755   8.229   2.639   5.778 -0.2893 -0.4847 -1.0507
27250SOL     OW83756   2.936   2.326   4.859 -0.0892 -0.6073  0.2295
27250SOL    HW183757   2.905   2.414   4.877  1.3390 -0.1154  0.3583
27250SOL    HW283758   2.873   2.291   4.795 -1.4357 -0.0129  1.1829
27251SOL     OW83759   8.785   4.641  10.466 -0.2118 -0.0140  0.0676
27251SOL    HW183760   8.783   4.610  10.376 -1.6880 -0.1179  0.1149
27251SOL    HW283761   8.878   4.649  10.486  0.1595 -1.0062 -1.1058
27252SOL     OW83762   2.002   5.694   1.724 -0.3967  0.0176  0.3682
27252SOL    HW183763   2.091   5.673   1.698  0.1853  3.0885 -0.5350
27252SOL    HW283764   2.004   5.694   1.820  0.5424 -0.0725  0.3508
27253SOL     OW83765   7.792   3.381  10.076  0.8825  0.6515 -0.0162
27253SOL    HW183766   7.820   3.324  10.005  0.6163  0.6370 -0.1114
27253SOL    HW283767   7.803   3.470  10.042  2.6678  0.7188  0.6364
27254SOL     OW83768   7.339   6.828  10.181  0.1461  0.0918  0.6978
27254SOL    HW183769   7.303   6.915  10.196  0.7542  0.0953  2.3149
27254SOL    HW283770   7.262   6.770  10.186 -0.1155  0.4325  0.6848
27255SOL     OW83771   6.329  10.193   9.843  0.0056  0.0793 -0.0911
27255SOL    HW183772   6.307  10.238   9.761 -0.3616 -1.0978 -0.6554
27255SOL    HW283773   6.265  10.226   9.906  0.2950  1.0035 -0.2571
27256SOL     OW83774   7.403   3.339   1.586  0.4854 -0.3731  0.7503
27256SOL    HW183775   7.408   3.244   1.579  0.3980 -0.3572  0.4492
27256SOL    HW283776   7.345   3.365   1.515  0.4664 -0.0991  0.8652
27257SOL     OW83777   3.503   9.134   6.236  0.2857 -0.2330  0.5761
27257SOL    HW183778   3.522   9.225   6.262 -0.2045 -0.7904  3.1975
27257SOL    HW283779   3.570   9.114   6.171  0.1063  2.1255 -0.4766
27258SOL     OW83780  10.106   4.047  10.435  0.1309  0.3468  0.3081
27258SOL    HW183781  10.055   4.125  10.455 -0.0850  0.3756 -0.3192
27258SOL    HW283782  10.186   4.056  10.486 -0.7089  0.0484  1.7215
27259SOL     OW83783  10.523   4.914   4.424 -0.2476 -0.1822  0.0898
27259SOL    HW183784  10.543   4.894   4.333  1.5928  0.0320  0.3913
27259SOL    HW283785  10.506   4.829   4.464 -2.5177 -0.1582 -0.7166
27260SOL     OW83786   2.592   0.258   8.416 -0.2075 -0.1330  0.0934
27260SOL    HW183787   2.533   0.232   8.486  0.5926  0.0024  0.8355
27260SOL    HW283788   2.583   0.353   8.411 -0.3263 -0.1510 -0.0521
27261SOL     OW83789   3.327   9.100   8.283  0.0198  0.0566  0.0883
27261SOL    HW183790   3.282   9.041   8.223  2.1222 -1.0317 -0.5351
27261SOL    HW283791   3.363   9.169   8.226 -0.7171  0.8417  0.5539
27262SOL     OW83792   9.776   5.400   1.131 -0.2057 -0.3987  0.0279
27262SOL    HW183793   9.810   5.454   1.202  0.3949 -1.7511  0.8313
27262SOL    HW283794   9.756   5.461   1.061  0.4594  0.8440  0.8818
27263SOL     OW83795   1.964   3.080   5.813 -0.0392  0.6401 -0.0694
27263SOL    HW183796   2.053   3.084   5.777 -0.2313 -1.0542 -0.8437
27263SOL    HW283797   1.975   3.107   5.904  1.3292  0.2246 -0.0761
27264SOL     OW83798   5.631   0.964   9.713  0.1995  0.7152 -0.3923
27264SOL    HW183799   5.630   0.955   9.618 -1.5044 -0.5377 -0.2983
27264SOL    HW283800   5.683   1.043   9.729  0.8179  0.7480 -2.3248
27265SOL     OW83801  10.411  10.543   6.686 -0.1155  0.5077 -0.1344
27265SOL    HW183802  10.375  10.503   6.607 -0.0266 -2.5872  1.2370
27265SOL    HW283803  10.425  10.634   6.663 -2.8538  0.4060 -2.7272
27266SOL     OW83804   5.937   4.704   6.503  0.4035 -0.8066 -0.6213
27266SOL    HW183805   5.844   4.679   6.501  0.3233 -0.4897 -0.9727
27266SOL    HW283806   5.948   4.749   6.587  0.3189 -1.1377 -0.4299
27267SOL     OW83807   6.058   5.574   7.393 -0.2595 -0.4765 -0.3144
27267SOL    HW183808   6.106   5.492   7.402 -1.0218 -0.9967 -0.8902
27267SOL    HW283809   6.006   5.564   7.313  0.7100  1.1205 -1.2063
27268SOL     OW83810   7.399   5.964   4.290 -0.4368  0.1726  0.1026
27268SOL    HW183811   7.352   5.885   4.318 -1.6717  0.9896  0.4404
27268SOL    HW283812   7.430   6.003   4.371 -0.6517  0.5214  0.0183
27269SOL     OW83813   1.346   8.260   4.378 -0.2916  0.0734 -0.2500
27269SOL    HW183814   1.319   8.178   4.337 -1.2990 -0.1700  0.8556
27269SOL    HW283815   1.326   8.327   4.312 -2.2208 -0.2719 -0.0797
27270SOL     OW83816   2.853   4.713   0.018  0.3485 -0.0749 -0.3353
27270SOL    HW183817   2.852   4.771  -0.058 -2.6051 -0.4461 -0.6904
27270SOL    HW283818   2.775   4.738   0.068  0.5668 -1.8735  0.9860
27271SOL     OW83819   6.427   4.004   3.880 -0.0589 -0.1955 -0.4779
27271SOL    HW183820   6.498   3.968   3.827 -0.6631 -0.6770 -0.9683
27271SOL    HW283821   6.464   4.009   3.969  1.1363  1.1417 -1.0176
27272SOL     OW83822   6.060   8.966   2.305  0.0111  0.6566 -0.6621
27272SOL    HW183823   6.065   9.059   2.286  0.9039  0.5165 -1.1810
27272SOL    HW283824   6.028   8.926   2.224  0.3146  0.4479 -0.6852
27273SOL     OW83825   0.869   6.486   2.143  0.3961  0.6619  0.2684
27273SOL    HW183826   0.794   6.536   2.112  1.6282  1.3266 -1.8703
27273SOL    HW283827   0.846   6.460   2.232 -2.4391  0.6472 -0.3738
27274SOL     OW83828   5.080   6.441   8.230  0.4265  0.0962 -0.0838
27274SOL    HW183829   5.140   6.514   8.211  1.2319 -0.5169  0.0440
27274SOL    HW283830   5.088   6.384   8.153 -0.4987  0.3271 -0.3614
27275SOL     OW83831   8.773   0.454   4.758 -0.1593  0.4858  0.4456
27275SOL    HW183832   8.858   0.424   4.727 -1.3156 -1.4489 -1.1057
27275SOL    HW283833   8.783   0.548   4.769  1.9055  0.4371 -0.5645
27276SOL     OW83834   2.700   7.472   6.820 -1.0382  0.5429 -0.2408
27276SOL    HW183835   2.661   7.476   6.908 -0.1820 -2.1221  0.3916
27276SOL    HW283836   2.653   7.400   6.777  1.6802 -1.4757 -0.1230
27277SOL     OW83837   3.364   0.618  10.834  0.5272 -0.1788 -0.0897
27277SOL    HW183838   3.326   0.706  10.835  0.1076 -0.3286 -1.4290
27277SOL    HW283839   3.294   0.561  10.805  1.2850 -0.7087 -0.9249
27278SOL     OW83840   1.607   4.812   0.634  0.4535 -0.4844  0.7595
27278SOL    HW183841   1.637   4.747   0.569  1.4654 -1.0736  1.7703
27278SOL    HW283842   1.527   4.774   0.670 -2.1134  1.4162 -2.4462
27279SOL     OW83843   9.392   4.847   6.477 -0.0675 -0.2755  0.4813
27279SOL    HW183844   9.474   4.851   6.426 -0.5430 -1.2901 -0.3997
27279SOL    HW283845   9.343   4.924   6.449 -0.4357 -0.9593 -0.8505
27280SOL     OW83846   6.551   9.643   3.294 -0.3013 -0.4220 -0.2256
27280SOL    HW183847   6.572   9.696   3.217 -0.9190  1.1522  0.6612
27280SOL    HW283848   6.495   9.699   3.348  0.4579 -1.3339  1.5803
27281SOL     OW83849   6.937  10.434   6.390 -0.2293 -0.1655 -0.4548
27281SOL    HW183850   6.904  10.521   6.410 -0.8157 -0.3329 -0.6588
27281SOL    HW283851   6.977  10.404   6.472 -0.5865  0.0454 -0.1981
27282SOL     OW83852  11.015   8.305   8.711 -0.2627 -0.4963  0.4040
27282SOL    HW183853  11.023   8.214   8.740  1.3856 -0.5577 -0.1314
27282SOL    HW283854  11.083   8.352   8.760  0.1037  0.0899 -0.6245
27283SOL     OW83855   1.750   5.353   9.424  0.2500 -0.3492 -0.6544
27283SOL    HW183856   1.845   5.343   9.426  0.2600 -0.2235 -0.5441
27283SOL    HW283857   1.725   5.373   9.514  0.4366  2.4820 -1.1193
27284SOL     OW83858  10.041   3.458   6.940  0.5347 -0.0869 -0.0827
27284SOL    HW183859  10.063   3.462   6.847 -0.2288  4.5166 -0.2773
27284SOL    HW283860  10.111   3.507   6.984 -0.8345  0.7279  1.3050
27285SOL     OW83861   5.366   1.762   7.288 -0.2233  0.3885  0.6145
27285SOL    HW183862   5.284   1.742   7.244  1.0550  0.8351 -2.1754
27285SOL    HW283863   5.344   1.763   7.381 -2.8603 -1.7664  0.1261
27286SOL     OW83864   7.529   5.616   1.520  0.2446  0.3985 -0.6138
27286SOL    HW183865   7.596   5.603   1.587  0.1605  0.8581 -0.4332
27286SOL    HW283866   7.448   5.627   1.569  0.2297  1.0388 -0.7657
27287SOL     OW83867   9.122   7.124   3.403 -0.3470  0.3187  0.1027
27287SOL    HW183868   9.139   7.218   3.408 -1.0569  0.5529 -1.4083
27287SOL    HW283869   9.189   7.085   3.458 -0.0733  1.7097  0.8122
27288SOL     OW83870   2.334   0.023   0.735  0.2861 -0.0469 -0.0442
27288SOL    HW183871   2.390   0.100   0.744 -2.5293  2.0949  0.6524
27288SOL    HW283872   2.335   0.003   0.642  1.0016  0.8848 -0.2538
27289SOL     OW83873  11.020   6.926   1.231 -0.1835  0.1716 -0.0916
27289SOL    HW183874  11.008   6.839   1.192 -2.1802  1.1477 -1.8888
27289SOL    HW283875  11.102   6.958   1.193 -0.6980  0.0162 -1.3683
27290SOL     OW83876   1.577   7.844   7.660 -0.5389 -0.0108  0.4505
27290SOL    HW183877   1.617   7.911   7.715 -1.6801  3.1004 -2.2070
27290SOL    HW283878   1.650   7.809   7.609 -0.4026  2.5506 -1.3018
27291SOL     OW83879   5.521   2.524   4.264  0.2012  0.1596  0.3222
27291SOL    HW183880   5.578   2.552   4.336 -0.5109  0.5501  0.7554
27291SOL    HW283881   5.433   2.546   4.294 -0.1516 -0.1239 -0.4730
27292SOL     OW83882   3.084   3.805   1.611 -0.0796  0.3464  0.4105
27292SOL    HW183883   3.037   3.844   1.685 -1.1024 -1.4114  0.7614
27292SOL    HW283884   3.152   3.751   1.653  1.5067  1.9167 -0.0616
27293SOL     OW83885   0.566   5.868   5.783  0.3296 -0.0130  0.2786
27293SOL    HW183886   0.642   5.817   5.754  1.3434  1.9489 -0.6596
27293SOL    HW283887   0.601   5.925   5.852 -0.7529 -0.4343  1.1997
27294SOL     OW83888   4.040   3.637   0.214 -0.4795 -0.2328 -0.0927
27294SOL    HW183889   3.996   3.578   0.275 -0.8419  0.5120  0.3870
27294SOL    HW283890   4.036   3.592   0.130  0.3296 -1.4284  0.4875
27295SOL     OW83891   7.581   4.984   9.074 -0.0535  0.7215 -0.2485
27295SOL    HW183892   7.602   5.005   9.165  0.7503  1.8319 -0.6622
27295SOL    HW283893   7.544   5.065   9.039  2.4485  1.3049 -1.7161
27296SOL     OW83894   8.293   6.248   6.292 -0.5441 -0.4276  0.5602
27296SOL    HW183895   8.326   6.310   6.357 -2.0017  0.4412  0.5114
27296SOL    HW283896   8.317   6.286   6.207  0.2401 -0.9126  0.5603
27297SOL     OW83897   9.508   0.003   9.500  0.4822 -0.1665  0.0878
27297SOL    HW183898   9.501   0.018   9.406 -0.7118 -1.1183 -0.0052
27297SOL    HW283899   9.541   0.086   9.535  1.7251 -0.0574 -1.2420
27298SOL     OW83900   0.524   1.199   7.506  0.2240 -0.2430 -0.0105
27298SOL    HW183901   0.596   1.262   7.498  0.2406 -0.0309  1.5263
27298SOL    HW283902   0.497   1.205   7.597 -1.1774 -0.9629 -0.3519
27299SOL     OW83903  10.541   4.042   7.308  0.1024 -0.7771  0.3478
27299SOL    HW183904  10.611   4.108   7.310 -0.1583 -0.4112 -1.2003
27299SOL    HW283905  10.580   3.967   7.264 -0.5725 -0.4108 -0.9257
27300SOL     OW83906  10.297   8.414   7.284 -0.4278  0.4937 -0.6837
27300SOL    HW183907  10.261   8.336   7.327 -0.9789  0.6942 -0.7698
27300SOL    HW283908  10.222   8.452   7.237  0.5124 -0.7640 -3.4084
27301SOL     OW83909   1.972   2.449   9.386 -0.0949 -0.6104  0.0115
27301SOL    HW183910   2.003   2.442   9.476  1.7853  0.8874 -0.4568
27301SOL    HW283911   1.954   2.542   9.373 -0.4782 -0.8169 -1.1319
27302SOL     OW83912   4.492   5.808   2.491 -0.3871  0.2343  1.2572
27302SOL    HW183913   4.541   5.857   2.556  2.2068 -1.9184  1.0968
27302SOL    HW283914   4.500   5.717   2.518 -0.6161 -0.5826 -1.1657
27303SOL     OW83915   2.258   0.345   8.552  0.2924  0.4364  0.4130
27303SOL    HW183916   2.163   0.353   8.558  0.2082 -0.2098  0.0074
27303SOL    HW283917   2.286   0.425   8.508 -0.2339 -0.0742 -0.9144
27304SOL     OW83918  10.080   9.599   7.115  0.0935  0.4215 -0.6319
27304SOL    HW183919  10.108   9.616   7.205  1.3417 -0.4266 -0.8300
27304SOL    HW283920  10.030   9.518   7.120  1.1159 -0.2430 -0.8361
27305SOL     OW83921  10.083   9.592   0.466  0.3872 -0.1721  0.3175
27305SOL    HW183922   9.992   9.573   0.485  0.3654  0.0980  0.4832
27305SOL    HW283923  10.081   9.666   0.406  0.4849 -0.4437 -0.0284
27306SOL     OW83924   4.605   5.711   4.301  0.5763  0.4578 -0.6196
27306SOL    HW183925   4.550   5.646   4.256 -0.2646 -0.1336  1.1733
27306SOL    HW283926   4.667   5.659   4.352 -0.5238  0.9576  1.3559
27307SOL     OW83927   7.968  10.584   2.277 -0.1697  0.3445 -0.1720
27307SOL    HW183928   7.932  10.672   2.286 -0.5842  0.4274 -2.0724
27307SOL    HW283929   8.063  10.595   2.285 -0.2793  0.7948  0.5903
27308SOL     OW83930   6.664   5.615   1.852  0.4158  0.2705  0.7312
27308SOL    HW183931   6.657   5.708   1.872 -0.5901  0.0868  1.3398
27308SOL    HW283932   6.630   5.607   1.763  0.4010  0.4786  0.7177
27309SOL     OW83933   9.229   9.372   6.945  0.6963  0.5605 -0.5286
27309SOL    HW183934   9.310   9.411   6.911 -0.1351  2.7876 -0.1020
27309SOL    HW283935   9.165   9.388   6.876 -0.0488  1.5020  0.3484
27310SOL     OW83936   2.627   6.509   5.771  0.5094  0.1292 -0.2263
27310SOL    HW183937   2.587   6.576   5.827  0.3228  0.1171 -0.3446
27310SOL    HW283938   2.571   6.432   5.783  1.5640 -0.4884  1.0728
27311SOL     OW83939   1.678   9.039  10.383  0.3590  0.6440 -0.2956
27311SOL    HW183940   1.635   9.098  10.320  1.1065  0.2965 -1.1512
27311SOL    HW283941   1.619   8.965  10.390 -1.1232  1.9073  1.5967
27312SOL     OW83942   6.182   1.410   8.708 -0.0876 -0.0872 -0.2943
27312SOL    HW183943   6.126   1.459   8.648  0.1653 -0.6862 -1.0500
27312SOL    HW283944   6.220   1.476   8.766 -0.3628  0.5041 -0.7778
27313SOL     OW83945   9.969   8.473   2.879 -0.3594  0.2653 -0.0929
27313SOL    HW183946   9.911   8.527   2.826 -0.3792 -1.4443 -1.9510
27313SOL    HW283947   9.910   8.414   2.926 -0.2705  0.9706  0.9508
27314SOL     OW83948   4.405   6.845   2.594  0.5946 -0.5123 -0.5621
27314SOL    HW183949   4.382   6.791   2.519 -0.2299 -1.2669  0.2087
27314SOL    HW283950   4.381   6.934   2.568  3.5403 -0.1304 -2.5180
27315SOL     OW83951   4.501   0.118   9.645  0.2582  0.1084 -0.0146
27315SOL    HW183952   4.420   0.133   9.695 -0.1163 -0.4201 -0.4521
27315SOL    HW283953   4.548   0.051   9.696  0.3178  0.2523  0.1208
27316SOL     OW83954   1.142   8.911   1.259 -0.0153 -0.0790  0.1720
27316SOL    HW183955   1.118   8.825   1.226 -0.2937 -0.2795  0.8812
27316SOL    HW283956   1.059   8.954   1.278  0.1291  0.2358  0.1155
27317SOL     OW83957   1.245   0.523   5.905 -0.3420  0.2157  0.2242
27317SOL    HW183958   1.199   0.528   5.989  0.9006  1.2723  0.8674
27317SOL    HW283959   1.176   0.532   5.840 -1.2330  0.1712  1.1346
27318SOL     OW83960   6.010   6.655   0.967  0.1333  0.5991  0.2273
27318SOL    HW183961   6.052   6.704   0.897 -1.5981 -1.1816 -2.2715
27318SOL    HW283962   5.938   6.711   0.996 -0.2026  0.6651 -0.6986
27319SOL     OW83963   3.108   4.297   9.875 -0.6142  0.2219 -0.2878
27319SOL    HW183964   3.118   4.246   9.794 -1.8731 -2.6256  1.2288
27319SOL    HW283965   3.181   4.359   9.873  0.1799 -0.6651 -2.9436
27320SOL     OW83966   8.061  10.131   6.062 -0.4443 -0.0900 -0.7872
27320SOL    HW183967   7.987  10.101   6.010 -0.1672 -1.9051 -0.2036
27320SOL    HW283968   8.042  10.101   6.151  0.3128  0.6978 -0.3457
27321SOL     OW83969   1.004   0.450   5.511 -0.0130 -0.3161 -0.1645
27321SOL    HW183970   0.946   0.427   5.439 -0.1098 -1.3393  0.2205
27321SOL    HW283971   1.092   0.440   5.475 -0.0191 -2.2781  0.2216
27322SOL     OW83972   5.298   3.256   2.811  0.1319 -0.2775  0.5844
27322SOL    HW183973   5.391   3.251   2.791 -0.3256 -1.8509 -1.5932
27322SOL    HW283974   5.294   3.264   2.906  2.4757 -0.2955  0.7406
27323SOL     OW83975   3.812   4.266   5.064 -0.0809 -0.1482  0.2768
27323SOL    HW183976   3.879   4.203   5.093 -0.7872 -1.3289 -0.5623
27323SOL    HW283977   3.857   4.350   5.065  1.5324 -0.9508 -0.5712
27324SOL     OW83978   3.821   0.119   1.032 -0.2351  0.7128 -0.7376
27324SOL    HW183979   3.746   0.148   1.085 -0.8728 -1.3735 -0.4134
27324SOL    HW283980   3.810   0.165   0.949 -1.5648  0.8881 -0.4888
27325SOL     OW83981   1.046   4.836   8.240  0.5958  0.3520  0.4148
27325SOL    HW183982   1.089   4.902   8.294  1.7027 -0.9496  1.1757
27325SOL    HW283983   1.033   4.761   8.298  0.4086 -0.5255 -0.7216
27326SOL     OW83984  10.996   1.437   7.767 -0.0814  0.3144 -0.4253
27326SOL    HW183985  11.002   1.414   7.675 -0.3504  0.0938 -0.3898
27326SOL    HW283986  11.047   1.518   7.776  0.8693 -0.2571 -0.5557
27327SOL     OW83987   7.443   6.362   6.897 -0.4295  0.0497 -0.2892
27327SOL    HW183988   7.374   6.425   6.877 -0.2463  0.3015 -0.1263
27327SOL    HW283989   7.473   6.386   6.984  1.0150  1.0067 -1.0030
27328SOL     OW83990   0.773  10.892   8.542 -0.2079 -0.6234 -0.6464
27328SOL    HW183991   0.717  10.851   8.477 -1.0472 -0.4169 -0.0637
27328SOL    HW283992   0.716  10.909   8.617  0.2746  0.9912 -0.6163
27329SOL     OW83993   4.393   6.420   2.626  0.6849 -0.4039 -0.1459
27329SOL    HW183994   4.438   6.473   2.691  1.2260 -0.6479 -0.3134
27329SOL    HW283995   4.455   6.414   2.553  0.7512 -1.4851 -0.0147
27330SOL     OW83996   3.312   9.166   4.092 -0.0799 -1.1506  0.2184
27330SOL    HW183997   3.297   9.261   4.093  0.0013 -1.0983 -1.2759
27330SOL    HW283998   3.315   9.141   4.184 -1.2351  0.1211  0.6288
27331SOL     OW83999   4.487   8.149   3.898 -0.0880 -0.3386 -0.2121
27331SOL    HW184000   4.431   8.225   3.883 -1.9082 -1.1264  2.0152
27331SOL    HW284001   4.573   8.186   3.919 -0.6906  1.0412 -0.0707
27332SOL     OW84002   1.488   0.924   4.932  0.4869 -0.3947  0.1533
27332SOL    HW184003   1.505   0.902   5.024  0.6992  0.3149  0.2952
27332SOL    HW284004   1.393   0.926   4.925  0.3884 -3.2275 -0.3520
27333SOL     OW84005   8.907   4.027   7.790 -0.1333 -0.2890  0.1279
27333SOL    HW184006   8.824   3.979   7.789  0.0647 -0.6513  0.5104
27333SOL    HW284007   8.969   3.967   7.831  0.4134 -0.1652 -0.5118
27334SOL     OW84008   7.884   3.966   9.161 -0.3877  0.0363 -0.0743
27334SOL    HW184009   7.807   3.911   9.150 -0.8480  0.2893  1.6471
27334SOL    HW284010   7.863   4.022   9.236  0.7757  1.3279 -0.6714
27335SOL     OW84011   6.639   0.507   0.967  0.3710  0.3089  0.0117
27335SOL    HW184012   6.556   0.460   0.963  0.8805 -0.5708 -0.4915
27335SOL    HW284013   6.705   0.440   0.951  1.3263  0.6035  2.2441
27336SOL     OW84014   2.977   8.972   4.752 -0.5091  0.0732  0.1487
27336SOL    HW184015   2.947   8.987   4.842 -0.8720  0.2647 -0.0013
27336SOL    HW284016   3.000   9.060   4.721  0.4116 -0.0948  0.3277
27337SOL     OW84017   0.555  10.304   8.969  0.2997 -0.2082 -0.0912
27337SOL    HW184018   0.521  10.333   9.053  0.3097  0.7813 -0.4095
27337SOL    HW284019   0.650  10.317   8.976  0.3685 -0.7076 -0.0451
27338SOL     OW84020   0.030   6.667   9.249 -0.5387  0.1225 -0.1085
27338SOL    HW184021  -0.021   6.744   9.224 -0.3452  0.6297  0.9826
27338SOL    HW284022   0.054   6.683   9.340 -0.3009 -1.1340  0.0698
27339SOL     OW84023   5.152   2.499   0.226  0.4271  0.2722 -0.0590
27339SOL    HW184024   5.132   2.409   0.252 -1.2713  0.3764 -0.8439
27339SOL    HW284025   5.172   2.544   0.308 -0.9401 -0.3223  0.6464
27340SOL     OW84026   8.348   0.945   7.526 -0.9015  0.0199  0.1185
27340SOL    HW184027   8.391   0.966   7.443 -0.7150 -0.5507  0.0720
27340SOL    HW284028   8.418   0.945   7.591 -0.8043 -0.9860  0.0298
27341SOL     OW84029   1.095   2.628   3.316 -0.2764 -0.2911 -0.1160
27341SOL    HW184030   1.120   2.546   3.359  1.5189  0.9606  1.3397
27341SOL    HW284031   1.137   2.697   3.367  0.8977  1.4003 -3.0855
27342SOL     OW84032   3.592  10.098   9.335 -0.1361 -0.4533  0.4292
27342SOL    HW184033   3.605  10.152   9.257  2.9971 -1.4128  0.1795
27342SOL    HW284034   3.581  10.161   9.406  0.2375  0.4788 -0.3142
27343SOL     OW84035   4.158   4.024   6.335  0.9972  0.6708  0.6797
27343SOL    HW184036   4.120   4.076   6.405  2.3617  0.6682  1.4619
27343SOL    HW284037   4.238   4.070   6.312  1.6619 -0.4757  0.6143
27344SOL     OW84038   5.307   3.010   7.348  0.1595  0.1403  0.3041
27344SOL    HW184039   5.371   3.073   7.383 -0.3866  0.2236  1.1988
27344SOL    HW284040   5.289   3.042   7.260  0.9369  0.4322  0.2362
27345SOL     OW84041   3.162   4.946   6.035  0.8991 -0.1775 -0.1388
27345SOL    HW184042   3.126   4.859   6.022  2.8914 -1.3260  1.3819
27345SOL    HW284043   3.091   4.996   6.076 -0.9422 -0.3805 -2.8083
27346SOL     OW84044   0.574   7.548   4.688  0.5293 -0.3831 -0.6247
27346SOL    HW184045   0.623   7.470   4.711 -0.5653 -0.7195  0.6665
27346SOL    HW284046   0.534   7.577   4.770 -0.1041  0.8086 -1.3240
27347SOL     OW84047   9.616   7.693   8.603 -0.2542  0.1539 -0.3639
27347SOL    HW184048   9.562   7.694   8.525  0.9462 -0.4405 -1.2383
27347SOL    HW284049   9.646   7.603   8.611 -0.0074  0.3052  0.5274
27348SOL     OW84050  10.454   1.783   4.716 -0.0672  0.6571 -0.1840
27348SOL    HW184051  10.511   1.708   4.735 -0.8214  0.2609  0.5729
27348SOL    HW284052  10.429   1.770   4.624  1.3270  1.0361 -0.6483
27349SOL     OW84053   1.095   9.178   4.098 -0.1119 -0.5702 -0.1369
27349SOL    HW184054   1.016   9.225   4.123  0.5033  0.2408  0.3262
27349SOL    HW284055   1.166   9.241   4.110  0.8068 -1.7801  1.0758
27350SOL     OW84056   6.794   0.747   3.941  0.6104 -0.5321  0.2101
27350SOL    HW184057   6.819   0.659   3.971  0.3759 -0.3644  0.9313
27350SOL    HW284058   6.699   0.749   3.949  0.5622 -0.4093 -0.3699
27351SOL     OW84059   1.469   8.312   3.991 -0.2837 -0.3265  0.6098
27351SOL    HW184060   1.490   8.405   3.983 -0.2004 -0.3253  0.8352
27351SOL    HW284061   1.412   8.306   4.067  2.5420 -0.8848  2.8721
27352SOL     OW84062   5.087   0.349   9.245 -0.6529  1.0653  0.6543
27352SOL    HW184063   5.082   0.413   9.317 -1.7114  0.1767  1.3990
27352SOL    HW284064   5.141   0.278   9.281 -0.9282  0.7594  0.4664
27353SOL     OW84065  10.542   6.462   1.932 -0.3122  0.2956 -0.1226
27353SOL    HW184066  10.613   6.511   1.973 -1.0578  1.6233 -0.3526
27353SOL    HW284067  10.531   6.385   1.988  2.5168 -0.9607 -1.1024
27354SOL     OW84068  10.672  10.271   8.585 -0.2779  0.1432 -0.0033
27354SOL    HW184069  10.730  10.208   8.542  0.4879 -0.2455  1.5475
27354SOL    HW284070  10.643  10.227   8.665 -0.0942  1.5639  0.8902
27355SOL     OW84071   9.375   8.002   2.579  0.3543 -0.3215  0.5498
27355SOL    HW184072   9.451   7.993   2.638  1.1965 -1.2614 -0.6308
27355SOL    HW284073   9.300   7.985   2.635  0.9871  0.6748  1.7679
27356SOL     OW84074   2.515   6.487   4.482  0.1602 -0.8534 -0.6137
27356SOL    HW184075   2.431   6.446   4.462 -1.8768  0.9163  3.3181
27356SOL    HW284076   2.547   6.441   4.559  0.0997  1.7660  1.1003
27357SOL     OW84077   7.181   9.824   9.992 -0.5078 -0.2800  0.1025
27357SOL    HW184078   7.146   9.900   9.946 -0.9633 -1.6748 -1.9592
27357SOL    HW284079   7.262   9.856  10.031 -0.5454  1.1839 -0.9233
27358SOL     OW84080   5.063   9.125   4.602 -0.0077 -0.2228  0.5018
27358SOL    HW184081   5.087   9.206   4.558  1.1616 -0.8551 -0.0558
27358SOL    HW284082   5.145   9.076   4.610 -0.9427 -2.2121 -0.9677
27359SOL     OW84083   4.276   1.200   2.256  0.0949 -0.3434 -0.4497
27359SOL    HW184084   4.191   1.156   2.260 -0.2189  0.1073 -1.6282
27359SOL    HW284085   4.284   1.227   2.165  0.9346  0.7420 -0.0745
27360SOL     OW84086   4.969   8.157   0.817  0.1683  0.2464 -0.5639
27360SOL    HW184087   4.918   8.238   0.825  1.0538  0.7487  0.1406
27360SOL    HW284088   4.943   8.105   0.893 -0.1018  0.0313 -0.8004
27361SOL     OW84089   6.184   2.555  10.198  0.0617  0.1228  0.8090
27361SOL    HW184090   6.260   2.507  10.232 -0.7375 -0.8561  1.2306
27361SOL    HW284091   6.206   2.572  10.106 -0.9961 -3.9826 -0.3681
27362SOL     OW84092  10.008   3.055   9.072  0.2197  0.0638 -0.0968
27362SOL    HW184093  10.097   3.090   9.073  0.1470  0.2858  1.2355
27362SOL    HW284094   9.952   3.132   9.083 -0.1388 -0.0698 -0.9654
27363SOL     OW84095   8.056   5.084   2.784  0.8020  0.2889 -0.4783
27363SOL    HW184096   7.971   5.127   2.793  1.1697  1.0431 -0.5058
27363SOL    HW284097   8.106   5.114   2.860  1.3470  0.5941 -0.9462
27364SOL     OW84098   7.617   5.860   7.123  0.0686 -0.2037 -0.0709
27364SOL    HW184099   7.686   5.816   7.171  0.3088  0.4798  0.2216
27364SOL    HW284100   7.560   5.896   7.191  0.1868  0.4203 -0.2987
27365SOL     OW84101   1.010   7.795   7.502 -0.0187  0.8114  0.4182
27365SOL    HW184102   1.039   7.814   7.413 -0.4267 -1.4383 -0.2608
27365SOL    HW284103   1.079   7.740   7.538 -0.4396  0.7048  1.0677
27366SOL     OW84104   0.530   7.184   6.938 -0.1064 -0.8363  0.6504
27366SOL    HW184105   0.596   7.164   6.872 -1.4303 -3.8004  0.0313
27366SOL    HW284106   0.460   7.227   6.890  1.2258  2.3272  1.3110
27367SOL     OW84107   7.114   3.132   9.798  0.3722  0.5156 -0.4138
27367SOL    HW184108   7.045   3.143   9.732  1.5851 -1.3356 -2.1266
27367SOL    HW284109   7.128   3.220   9.833 -0.8074  1.4580 -2.1479
27368SOL     OW84110   1.746   7.199   7.608 -0.2003 -0.3593  0.0615
27368SOL    HW184111   1.825   7.248   7.634  0.2116 -1.5203  1.0910
27368SOL    HW284112   1.677   7.233   7.664 -0.1178 -0.3222  0.1410
27369SOL     OW84113   9.154   4.992   6.453 -0.2182  0.4937 -0.1410
27369SOL    HW184114   9.074   4.973   6.504 -0.1693  1.0481  0.1549
27369SOL    HW284115   9.141   5.082   6.422  0.7363  0.9731  0.7827
27370SOL     OW84116   6.995   3.131   6.048 -0.0797  0.2037  0.0637
27370SOL    HW184117   6.948   3.206   6.085  0.9529  2.1083 -2.2227
27370SOL    HW284118   6.936   3.057   6.061 -1.9868  1.7524  0.7381
27371SOL     OW84119   4.094   2.458   5.235 -0.6278  0.1328 -0.0726
27371SOL    HW184120   4.184   2.481   5.213 -0.7363  0.6381 -0.0095
27371SOL    HW284121   4.083   2.369   5.204 -0.2303  0.2142 -0.4459
27372SOL     OW84122   8.768   1.770   9.513 -0.9594 -0.3526 -0.1368
27372SOL    HW184123   8.825   1.838   9.476 -2.5000  0.7766 -0.5918
27372SOL    HW284124   8.708   1.749   9.441 -1.9097 -0.5684  0.7052
27373SOL     OW84125   7.279   6.781   0.600 -0.5170  0.1368  0.4168
27373SOL    HW184126   7.318   6.694   0.593 -0.3973  0.2521 -0.5527
27373SOL    HW284127   7.185   6.767   0.588 -0.5621  0.0752  0.8428
27374SOL     OW84128   7.259   8.740   0.169 -0.1069 -0.1497  0.5190
27374SOL    HW184129   7.222   8.677   0.231 -1.0584  0.4861  0.6167
27374SOL    HW284130   7.353   8.740   0.188 -0.4502  0.5456  2.4770
27375SOL     OW84131   3.560   1.709   7.562 -0.9098 -0.1963  0.3099
27375SOL    HW184132   3.639   1.735   7.610 -0.2411 -1.2279 -0.2080
27375SOL    HW284133   3.521   1.641   7.616  0.0077 -1.5789 -0.6929
27376SOL     OW84134   2.401  10.757   7.228  0.3370  0.0920  0.1468
27376SOL    HW184135   2.414  10.797   7.141 -0.7916  1.0283  0.3754
27376SOL    HW284136   2.446  10.817   7.288 -0.6676  0.6051  0.4085
27377SOL     OW84137   0.195   0.336   1.127 -0.2083  0.0796 -0.1116
27377SOL    HW184138   0.119   0.388   1.098 -0.1978 -0.3333 -0.8988
27377SOL    HW284139   0.213   0.368   1.215 -1.0735  0.4423 -0.0525
27378SOL     OW84140   1.627   0.943   8.369  0.3547  0.6394  0.0517
27378SOL    HW184141   1.617   0.884   8.293 -2.7715  0.6843  0.2950
27378SOL    HW284142   1.602   0.889   8.444  0.0665  1.5361  0.6108
27379SOL     OW84143   9.883   5.977  10.444  0.0563  0.4939 -0.0059
27379SOL    HW184144   9.818   6.026  10.393 -1.8379 -2.5708 -0.7702
27379SOL    HW284145   9.859   5.995  10.535 -1.5461 -0.0748 -0.2703
27380SOL     OW84146   6.082   5.104   4.541  0.4414 -0.1619 -0.2312
27380SOL    HW184147   6.003   5.050   4.540 -0.3238  0.9031  0.3964
27380SOL    HW284148   6.134   5.073   4.468 -0.3036 -1.2680 -0.3067
27381SOL     OW84149   2.902   5.775   6.594  0.5143  0.1687 -0.0526
27381SOL    HW184150   2.973   5.834   6.567  2.4492 -0.6889  2.6473
27381SOL    HW284151   2.840   5.832   6.639  0.4151  0.6671 -0.7983
27382SOL     OW84152   7.229  10.209   2.713  0.6996 -0.7298  0.1275
27382SOL    HW184153   7.255  10.117   2.709  1.3540 -0.5628  0.4023
27382SOL    HW284154   7.310  10.258   2.698  0.9139 -0.1833  2.6176
27383SOL     OW84155   3.613   7.074   4.282  0.3550  0.1021 -0.9661
27383SOL    HW184156   3.670   7.028   4.343  1.5639  0.3041 -1.9064
27383SOL    HW284157   3.663   7.151   4.256 -1.3398  1.6083  0.0210
27384SOL     OW84158  10.403   2.189   1.055  0.0317 -0.5775 -0.1969
27384SOL    HW184159  10.478   2.141   1.089 -0.8884 -2.7882 -1.1529
27384SOL    HW284160  10.430   2.218   0.967  0.1340 -0.4487 -0.1229
27385SOL     OW84161   9.047   8.198   8.185 -0.1531  0.6139  0.0098
27385SOL    HW184162   9.002   8.268   8.233  0.0342  0.3694  0.5476
27385SOL    HW284163   8.995   8.119   8.202  0.3422  0.3772  0.4454
27386SOL     OW84164   7.418   6.497   2.351 -1.3287  0.2472  0.2161
27386SOL    HW184165   7.488   6.538   2.401  0.3389  0.2156 -1.9473
27386SOL    HW284166   7.395   6.562   2.284 -1.1982 -0.9188 -1.0011
27387SOL     OW84167  10.891   8.427   7.755  0.1643 -0.3861  0.3763
27387SOL    HW184168  10.840   8.438   7.836 -1.2465 -0.6374 -0.4542
27387SOL    HW284169  10.850   8.353   7.711 -1.9548  2.3055 -2.6525
27388SOL     OW84170   8.991   3.288   6.987 -0.6930  0.1167  0.0215
27388SOL    HW184171   9.073   3.329   7.014  0.2766 -0.9243 -1.2265
27388SOL    HW284172   8.971   3.227   7.058  0.7279 -1.1006 -0.5706
27389SOL     OW84173   6.314   8.787  10.303  0.4561 -0.0818  0.5319
27389SOL    HW184174   6.270   8.847  10.364  1.8252  0.9334  0.5703
27389SOL    HW284175   6.332   8.840  10.226 -0.4467 -1.1163 -0.4315
27390SOL     OW84176   2.627   5.948   1.737  0.3194 -0.3588  0.1055
27390SOL    HW184177   2.619   6.009   1.810 -1.7524  0.6515 -0.8914
27390SOL    HW284178   2.716   5.962   1.704  0.8307  0.0752  1.6183
27391SOL     OW84179   3.417   4.500   5.483 -0.0614  0.1665 -0.3235
27391SOL    HW184180   3.439   4.463   5.568  0.8350  0.8237 -0.2557
27391SOL    HW284181   3.379   4.427   5.434 -0.4441 -0.2533  0.5778
27392SOL     OW84182  10.403   2.060   6.498  0.0699  0.2740 -0.4150
27392SOL    HW184183  10.403   2.007   6.418  1.9864 -0.1455 -0.1931
27392SOL    HW284184  10.354   2.008   6.562  3.6943 -2.4621  0.4720
27393SOL     OW84185   0.338   1.129   5.692 -0.2055 -0.5059 -0.6210
27393SOL    HW184186   0.255   1.099   5.656  0.2275 -2.3324 -0.1680
27393SOL    HW284187   0.395   1.052   5.691  1.0999  0.3945  0.2244
27394SOL     OW84188   4.555   6.877   2.283  0.1570  0.5810  0.2844
27394SOL    HW184189   4.504   6.952   2.316 -2.2111 -1.5798  1.9465
27394SOL    HW284190   4.610   6.852   2.357 -0.3077 -0.3061  0.3414
27395SOL     OW84191   4.471   8.826   6.263 -0.6889 -0.7051 -0.7951
27395SOL    HW184192   4.551   8.848   6.216 -0.5344 -1.8353 -1.0758
27395SOL    HW284193   4.415   8.784   6.198 -1.9829  1.0553 -0.8852
27396SOL     OW84194   7.493   5.909   7.357  0.1289  0.2833  0.4408
27396SOL    HW184195   7.511   5.912   7.451 -0.2943  0.3684  0.5219
27396SOL    HW284196   7.427   5.840   7.347 -0.8044  1.1772  0.3725
27397SOL     OW84197   6.224   7.750   7.975 -0.2399  0.3509  0.0125
27397SOL    HW184198   6.317   7.745   7.999 -0.1842 -0.4736 -0.3645
27397SOL    HW284199   6.201   7.662   7.947 -1.2348  0.4588  0.4280
27398SOL     OW84200   0.562   2.708   4.071 -0.1954  0.0941 -0.4135
27398SOL    HW184201   0.610   2.666   4.000 -0.2444 -0.1497 -0.3040
27398SOL    HW284202   0.597   2.798   4.074  1.6012 -0.5746  0.8358
27399SOL     OW84203   7.781   6.943   4.394  0.1289 -0.6104 -0.4265
27399SOL    HW184204   7.859   6.921   4.445 -0.8118 -1.7276  0.5727
27399SOL    HW284205   7.726   6.993   4.454  0.9704  2.1886 -1.7913
27400SOL     OW84206   6.295   4.393   3.171 -0.2300  0.3252 -0.1275
27400SOL    HW184207   6.326   4.437   3.092 -3.0662 -1.1911 -2.3287
27400SOL    HW284208   6.257   4.311   3.138 -0.4834 -0.9596  3.0137
27401SOL     OW84209   8.308   7.622   2.923  0.1806  0.0178 -0.3212
27401SOL    HW184210   8.363   7.690   2.964  1.2427 -0.8928 -0.1892
27401SOL    HW284211   8.367   7.548   2.911 -0.9874 -0.9259 -0.3890
27402SOL     OW84212   3.785   0.100   7.434 -0.0842  0.0594 -0.1137
27402SOL    HW184213   3.869   0.145   7.426 -0.7519  1.3011 -0.4272
27402SOL    HW284214   3.805   0.007   7.420  1.1923  0.3693 -0.4048
27403SOL     OW84215   8.102   1.688   3.990  0.4045  0.3748  0.0437
27403SOL    HW184216   8.154   1.625   4.038  0.3290 -0.1018 -0.4948
27403SOL    HW284217   8.148   1.771   4.002  2.1624 -0.2896 -1.6862
27404SOL     OW84218   4.888   2.784   9.587 -0.0797  0.3189  0.2307
27404SOL    HW184219   4.899   2.761   9.495  0.2226  0.1207  0.3145
27404SOL    HW284220   4.876   2.700   9.632 -0.7629  0.4510  0.3029
27405SOL     OW84221   9.258   7.244   8.466 -0.5602 -0.0329  0.3704
27405SOL    HW184222   9.259   7.173   8.402 -0.6885 -0.9728  1.3899
27405SOL    HW284223   9.200   7.310   8.427 -0.2093 -0.3367 -0.7161
27406SOL     OW84224   9.180   3.150   0.972 -0.2880 -1.1994  0.2220
27406SOL    HW184225   9.245   3.086   1.002 -0.2722 -1.5368 -0.4995
27406SOL    HW284226   9.099   3.100   0.963 -0.9832 -0.5332  2.2638
27407SOL     OW84227   1.533   9.364   8.847  0.5874 -0.0543 -0.6514
27407SOL    HW184228   1.564   9.443   8.892 -0.7462 -0.8073  1.7378
27407SOL    HW284229   1.438   9.364   8.861  0.5230 -1.8968 -0.8639
27408SOL     OW84230   1.830   0.836   5.098 -0.8688  0.3144  0.3776
27408SOL    HW184231   1.865   0.877   5.178  0.6430  0.0870 -0.1259
27408SOL    HW284232   1.795   0.909   5.047  2.2271  1.1952 -0.7309
27409SOL     OW84233   8.589   7.770   1.484  0.6400  0.1914  0.2139
27409SOL    HW184234   8.672   7.812   1.464  0.8412  0.1860  0.9962
27409SOL    HW284235   8.535   7.786   1.406  0.8367  1.5848  0.3326
27410SOL     OW84236   8.188   4.896   5.998  0.0285  0.1606  0.1422
27410SOL    HW184237   8.104   4.935   6.022  0.6470  2.0596 -0.6285
27410SOL    HW284238   8.214   4.845   6.075 -1.1573  0.6938  0.9106
27411SOL     OW84239   1.691   5.054   0.642  0.2107  0.0023  0.0678
27411SOL    HW184240   1.665   4.968   0.676 -0.0392  0.2928  0.6151
27411SOL    HW284241   1.719   5.036   0.552 -0.5960 -0.5251 -0.0923
27412SOL     OW84242   7.817   4.921   3.409 -0.4953  0.2738 -0.1874
27412SOL    HW184243   7.911   4.905   3.413 -0.0343  2.7915  0.6037
27412SOL    HW284244   7.791   4.935   3.500 -1.3490  0.9953 -0.5312
27413SOL     OW84245   6.274   1.707   6.167 -0.5942  0.2690 -0.3243
27413SOL    HW184246   6.243   1.620   6.195 -0.5558  0.3956  0.1250
27413SOL    HW284247   6.226   1.768   6.223 -1.1988  0.5880 -1.1633
27414SOL     OW84248   4.844   2.834   2.948 -0.0439 -0.1350 -0.1151
27414SOL    HW184249   4.809   2.911   2.903 -1.8578  0.0189  1.4152
27414SOL    HW284250   4.862   2.771   2.878 -1.7458  0.4713 -1.1765
27415SOL     OW84251   7.925   7.158   5.573  0.4086  0.3076 -0.0008
27415SOL    HW184252   7.972   7.186   5.494 -0.2465  1.0392 -0.1464
27415SOL    HW284253   7.839   7.199   5.565 -0.1715 -0.8179  0.3764
27416SOL     OW84254   1.759   5.542   3.651 -0.2643  0.2498 -0.4171
27416SOL    HW184255   1.670   5.557   3.619  0.0581  2.5379 -0.4336
27416SOL    HW284256   1.815   5.586   3.587  0.5528  2.7869  1.8619
27417SOL     OW84257   2.947   7.037   1.133 -0.1052 -0.1279 -0.1161
27417SOL    HW184258   2.985   7.076   1.211  0.7105  0.6698 -0.8849
27417SOL    HW284259   2.929   7.111   1.075  2.0237 -0.8246 -1.8501
27418SOL     OW84260   1.693   1.941   5.246 -0.0882  0.3233 -0.1010
27418SOL    HW184261   1.780   1.903   5.235 -0.1883 -0.7664  2.2185
27418SOL    HW284262   1.633   1.874   5.214 -0.1273  0.8960 -1.2863
27419SOL     OW84263   0.953   7.944   6.411 -0.0626 -0.0521  0.0543
27419SOL    HW184264   0.890   7.930   6.341 -2.3717  0.6930  1.8854
27419SOL    HW284265   1.008   8.016   6.380  1.0120 -1.7649 -2.2434
27420SOL     OW84266   2.566   7.471   0.901  0.8494  0.5558 -0.2233
27420SOL    HW184267   2.506   7.544   0.909  0.9150  0.8366 -1.9732
27420SOL    HW284268   2.628   7.482   0.974 -0.9126  0.4795  1.3774
27421SOL     OW84269   5.407   0.566   3.772  0.0420 -0.6728 -0.6914
27421SOL    HW184270   5.405   0.578   3.677 -0.7616 -0.8178 -0.6989
27421SOL    HW284271   5.457   0.486   3.785  0.0594 -0.7138 -0.9986
27422SOL     OW84272   8.251   9.546   0.769  0.5072  0.1966  0.2328
27422SOL    HW184273   8.239   9.465   0.818 -2.7841  0.7007  0.4860
27422SOL    HW284274   8.238   9.615   0.834  0.4168  0.9083 -0.5293
27423SOL     OW84275   1.059   5.623   4.634 -0.9361 -0.2288 -0.7327
27423SOL    HW184276   1.060   5.579   4.719 -0.8062 -0.3306 -0.7861
27423SOL    HW284277   0.995   5.694   4.644 -1.2667 -0.5295 -0.6946
27424SOL     OW84278   6.113   2.148   6.390  0.1086  0.4139 -0.1128
27424SOL    HW184279   6.107   2.189   6.304  2.1616  0.5118 -0.2693
27424SOL    HW284280   6.032   2.173   6.434 -0.4255  1.4176 -1.5624
27425SOL     OW84281   5.666   4.484   1.201 -0.1589 -0.2324  0.0873
27425SOL    HW184282   5.574   4.510   1.203 -0.5252 -1.2906 -1.5985
27425SOL    HW284283   5.713   4.562   1.232 -1.5946  0.3596  0.8724
27426SOL     OW84284   4.216   4.536   1.712 -0.2074 -0.7870 -0.2273
27426SOL    HW184285   4.293   4.504   1.665 -0.7117 -1.0613 -0.8804
27426SOL    HW284286   4.164   4.581   1.645 -2.0274 -3.1035 -0.4816
27427SOL     OW84287   2.086   3.802   4.543 -0.5637  0.4245  0.0870
27427SOL    HW184288   2.044   3.883   4.514 -0.0906  0.0501 -1.8234
27427SOL    HW284289   2.155   3.787   4.478  0.3557 -0.7225  1.2699
27428SOL     OW84290  10.156  10.703   6.678 -0.1249  0.2961 -0.1616
27428SOL    HW184291  10.153  10.688   6.583 -3.5232 -3.0006  0.2299
27428SOL    HW284292  10.088  10.769   6.694 -1.6881 -1.3156  0.1349
27429SOL     OW84293   6.709   7.437   5.685 -0.7067  0.8229  0.1189
27429SOL    HW184294   6.757   7.370   5.734  1.1692  2.6083  0.8646
27429SOL    HW284295   6.617   7.423   5.709 -0.0976  0.1371  2.3078
27430SOL     OW84296   0.459   0.311   5.694 -0.2216 -0.2203 -0.0742
27430SOL    HW184297   0.385   0.352   5.738 -2.5503 -0.7258 -3.1474
27430SOL    HW284298   0.459   0.221   5.725 -1.2464 -0.3415 -0.4001
27431SOL     OW84299  10.417  10.991   9.794  0.1307 -0.1794 -0.4487
27431SOL    HW184300  10.484  10.976   9.727 -1.4820  1.2319 -2.5207
27431SOL    HW284301  10.381  10.904   9.812  2.0844 -0.8810  0.3153
27432SOL     OW84302   8.860  10.719   9.846 -0.6337 -0.1859  0.5317
27432SOL    HW184303   8.828  10.808   9.859 -0.0740  0.3693 -1.5269
27432SOL    HW284304   8.954  10.725   9.861 -0.3330 -0.0155 -1.1720
27433SOL     OW84305   3.782   9.451   5.884  0.0646  0.0726 -0.7567
27433SOL    HW184306   3.698   9.463   5.928 -0.2490 -0.7259 -1.1141
27433SOL    HW284307   3.836   9.524   5.914 -0.2422 -0.2556  0.6796
27434SOL     OW84308   0.449   6.591   0.095  0.0346 -0.4340 -0.0906
27434SOL    HW184309   0.472   6.659   0.159 -0.0679 -1.0839  0.6507
27434SOL    HW284310   0.398   6.528   0.144 -0.1854 -0.8721 -0.8625
27435SOL     OW84311   9.506   6.570   4.363 -0.4272  0.8499  0.2210
27435SOL    HW184312   9.553   6.508   4.417 -0.3923 -0.0271 -0.8007
27435SOL    HW284313   9.517   6.539   4.274 -2.4433  0.9316 -0.1056
27436SOL     OW84314   3.365   9.033   0.938  0.3207  0.0942 -0.6568
27436SOL    HW184315   3.424   8.969   0.978  0.1292 -1.1887 -2.3071
27436SOL    HW284316   3.419   9.078   0.873  0.2331  1.0581 -0.0869
27437SOL     OW84317  10.930   3.363   7.131  0.2437  0.7539 -0.1921
27437SOL    HW184318  10.864   3.328   7.070  2.2759  0.8189 -2.5828
27437SOL    HW284319  10.898   3.337   7.217 -2.9072  0.8228 -1.1996
27438SOL     OW84320   0.783   5.435   5.763  0.3862 -0.6955 -0.5197
27438SOL    HW184321   0.795   5.530   5.766 -0.4455 -0.5174 -1.7559
27438SOL    HW284322   0.691   5.421   5.787  0.1443 -1.0514 -1.5717
27439SOL     OW84323   0.442   9.266   6.645 -0.0226 -0.0674  0.2925
27439SOL    HW184324   0.372   9.207   6.674  0.1498 -0.0100  0.8352
27439SOL    HW284325   0.432   9.269   6.550  0.2799 -1.3790  0.1926
27440SOL     OW84326   9.961  10.565   2.603  0.7813  0.1771 -0.0971
27440SOL    HW184327  10.038  10.519   2.635  0.5705 -1.2840 -1.5473
27440SOL    HW284328   9.888  10.510   2.629  0.1287  1.7627  1.6386
27441SOL     OW84329   0.210   0.270   2.841  0.6420  0.3482 -0.2700
27441SOL    HW184330   0.251   0.353   2.814  0.4694  0.4669 -0.1682
27441SOL    HW284331   0.117   0.290   2.845  0.7746  0.8410  2.1384
27442SOL     OW84332   9.760   8.571   6.246 -0.0180  0.7197 -0.4820
27442SOL    HW184333   9.725   8.647   6.293 -1.3504 -0.7527  1.0060
27442SOL    HW284334   9.851   8.564   6.276 -0.7742 -0.0643  1.8260
27443SOL     OW84335   8.004   1.486   1.547 -0.1863  0.1328  0.4143
27443SOL    HW184336   8.091   1.482   1.587 -0.1462 -0.5896  0.2628
27443SOL    HW284337   8.011   1.433   1.468 -0.4475  1.0257 -0.2206
27444SOL     OW84338   9.794  10.614  10.005  0.3758  0.0426  0.2430
27444SOL    HW184339   9.770  10.702   9.975  1.1584  0.3137  0.3978
27444SOL    HW284340   9.880  10.598   9.966  0.0062 -0.8765 -0.2169
27445SOL     OW84341   2.021   0.829   9.170  1.2846 -0.2245  0.1584
27445SOL    HW184342   1.963   0.762   9.133 -0.2114 -0.0976  2.1019
27445SOL    HW284343   2.094   0.779   9.208  0.8132 -0.6876  0.4829
27446SOL     OW84344   5.505   9.756   3.337 -0.1612 -0.0115 -0.0924
27446SOL    HW184345   5.470   9.705   3.409  0.6866 -0.4823  0.0037
27446SOL    HW284346   5.438   9.751   3.269 -0.0123 -1.4438 -0.1615
27447SOL     OW84347   6.107   5.610   8.733 -0.7117  0.2356  0.5238
27447SOL    HW184348   6.082   5.519   8.749  0.3751 -0.3567 -0.9533
27447SOL    HW284349   6.096   5.653   8.818  1.5276 -1.9191  2.0333
27448SOL     OW84350   8.541   8.071   0.917  0.4827 -0.2434  0.0067
27448SOL    HW184351   8.588   8.055   0.999  2.1812 -1.5728 -1.1466
27448SOL    HW284352   8.602   8.042   0.849 -1.4770 -0.6673 -1.6576
27449SOL     OW84353   7.686   5.076   3.234 -0.2340  0.2414  0.4674
27449SOL    HW184354   7.744   5.015   3.280 -0.1245 -0.0724 -0.0855
27449SOL    HW284355   7.605   5.075   3.286  0.2800  0.7775  1.3153
27450SOL     OW84356   0.307   0.812  10.692  0.3223 -0.4613 -0.1508
27450SOL    HW184357   0.354   0.793  10.773  0.1684 -0.3554 -0.0358
27450SOL    HW284358   0.280   0.903  10.701 -2.6430 -1.3488  1.1937
27451SOL     OW84359   5.116   7.544  10.516 -0.4267  0.0725  0.3592
27451SOL    HW184360   5.191   7.484  10.505  0.1262  0.8929 -0.4322
27451SOL    HW284361   5.062   7.529  10.439 -1.6453 -1.2416  1.4022
27452SOL     OW84362   6.751   3.117   4.845 -0.4974  0.2515  0.4054
27452SOL    HW184363   6.706   3.113   4.760 -0.8708  2.1351  0.4799
27452SOL    HW284364   6.823   3.054   4.836 -1.5142 -0.8124 -0.6909
27453SOL     OW84365   8.255   8.969   7.884  0.0893  0.3270  0.1150
27453SOL    HW184366   8.313   8.978   7.960  1.1351  1.0589 -0.7368
27453SOL    HW284367   8.313   8.939   7.814 -0.9104 -0.5777 -0.3335
27454SOL     OW84368   2.705   8.069  10.958 -0.5202  0.3529 -0.3487
27454SOL    HW184369   2.745   8.139  10.906  3.1581 -1.3896 -0.1723
27454SOL    HW284370   2.698   8.105  11.046  1.5769  0.5338 -0.2022
27455SOL     OW84371   1.129   6.005   9.626 -0.8182  0.2279  0.2065
27455SOL    HW184372   1.218   6.034   9.644 -1.3420  0.7191  2.2161
27455SOL    HW284373   1.123   6.005   9.530  1.6409 -0.8571 -0.0217
27456SOL     OW84374   4.081   9.605   2.408 -0.2939 -0.1651 -1.0926
27456SOL    HW184375   4.160   9.654   2.389 -0.5887 -0.2010 -2.5170
27456SOL    HW284376   4.047   9.580   2.322 -2.4613  0.8125 -0.5780
27457SOL     OW84377   3.632   8.797  10.497  0.4484 -0.0732  0.7137
27457SOL    HW184378   3.653   8.823  10.587  0.7819  2.0122  0.0784
27457SOL    HW284379   3.703   8.832  10.444 -0.1882 -0.5262 -0.4780
27458SOL     OW84380   5.037   3.125   9.831  0.0873  0.3233  0.1808
27458SOL    HW184381   5.115   3.178   9.815 -0.3119  0.6965 -0.5600
27458SOL    HW284382   5.046   3.050   9.773  0.4251 -0.2014  0.8956
27459SOL     OW84383   8.038   7.396   6.370 -0.8260  0.0672 -0.3289
27459SOL    HW184384   8.002   7.474   6.328  0.9538  0.3917 -1.3479
27459SOL    HW284385   8.088   7.430   6.444 -1.5888 -0.2799  0.3581
27460SOL     OW84386   8.319   1.716   4.519 -0.0422  0.7063  0.1293
27460SOL    HW184387   8.339   1.690   4.609 -1.5588  0.1174  0.3177
27460SOL    HW284388   8.386   1.781   4.498 -0.6527  2.1468  2.2880
27461SOL     OW84389  10.403  10.277   3.627  0.0434 -0.1016 -0.1749
27461SOL    HW184390  10.412  10.183   3.615  1.3390 -0.0612  0.2754
27461SOL    HW284391  10.380  10.311   3.540 -2.0371 -0.9647 -0.0275
27462SOL     OW84392   2.878   0.922   6.222 -0.7142 -0.2175  0.1622
27462SOL    HW184393   2.908   0.835   6.247 -0.0456 -0.3097 -0.9139
27462SOL    HW284394   2.860   0.915   6.128  0.0567  0.9954 -0.0928
27463SOL     OW84395   9.091   2.015   6.385 -0.0984  0.2472  0.1256
27463SOL    HW184396   9.140   2.094   6.364 -0.7106  0.6995  0.3599
27463SOL    HW284397   9.071   2.024   6.478 -2.6028  1.2186 -0.4301
27464SOL     OW84398   9.648  10.109   4.686 -0.5054 -0.4642 -0.0146
27464SOL    HW184399   9.654  10.089   4.592 -0.7591 -1.7263  0.2169
27464SOL    HW284400   9.734  10.145   4.708 -0.6488  0.4306 -0.8519
27465SOL     OW84401  10.361   0.282   2.570  0.3483  0.4748 -0.3752
27465SOL    HW184402  10.407   0.216   2.621 -0.0081  0.2538 -0.3394
27465SOL    HW284403  10.289   0.235   2.528  0.3731  0.7454 -0.7249
27466SOL     OW84404   3.995   0.292   6.937  0.2122  0.7429 -0.1600
27466SOL    HW184405   3.997   0.347   6.858  1.5576 -2.0652 -2.2828
27466SOL    HW284406   4.054   0.219   6.916 -0.9773 -1.2059  2.6855
27467SOL     OW84407   2.137   5.672  10.854  0.3300 -0.0968 -0.3893
27467SOL    HW184408   2.119   5.748  10.909 -1.3037 -0.3678 -0.4899
27467SOL    HW284409   2.103   5.598  10.904  1.1983 -0.6812 -0.6409
27468SOL     OW84410   2.803   4.981   7.615 -0.7195  0.7582 -0.4741
27468SOL    HW184411   2.783   5.075   7.616 -0.6422  0.7730 -0.1228
27468SOL    HW284412   2.898   4.977   7.605 -0.7745  0.7068 -0.9991
27469SOL     OW84413   2.071   5.509   3.999 -0.1005 -0.0899  0.1039
27469SOL    HW184414   2.032   5.594   3.978 -1.1330 -0.2683  1.1713
27469SOL    HW284415   2.157   5.530   4.036 -0.3760  0.4990  0.4269
27470SOL     OW84416   7.540   0.290   2.441  0.4523  0.6005 -0.5416
27470SOL    HW184417   7.483   0.341   2.499  1.3278  0.6513  0.3091
27470SOL    HW284418   7.486   0.216   2.414 -0.1756  0.9000 -0.1448
27471SOL     OW84419   9.950   8.380   2.549 -0.0494 -0.6501  0.5674
27471SOL    HW184420  10.024   8.319   2.552  0.1166 -0.4432  0.6978
27471SOL    HW284421   9.975   8.445   2.483 -0.2546 -0.7597  0.3817
27472SOL     OW84422   6.908   9.093   3.188 -0.3036  0.0393 -0.3399
27472SOL    HW184423   6.952   9.138   3.116  0.3893  0.6855  0.4561
27472SOL    HW284424   6.893   9.161   3.254  1.2710 -0.9388  1.1256
27473SOL     OW84425   2.813   0.231   4.500  0.0005 -0.1753 -0.2160
27473SOL    HW184426   2.900   0.202   4.527  0.2066  0.0502 -0.6365
27473SOL    HW284427   2.829   0.309   4.447 -0.4966  0.2141  0.1970
27474SOL     OW84428   0.185   6.347   8.409  0.0994  0.0122 -0.3863
27474SOL    HW184429   0.259   6.401   8.436 -0.2275  0.3046 -0.0801
27474SOL    HW284430   0.107   6.394   8.439 -0.3026  0.5814 -2.2031
27475SOL     OW84431   1.916   1.976   7.134  0.6352 -0.1199 -0.2395
27475SOL    HW184432   2.007   1.959   7.108  1.0202 -0.5510  1.2724
27475SOL    HW284433   1.909   1.939   7.222 -0.7318  0.7891  0.0699
27476SOL     OW84434   6.097   8.250   4.975 -0.4854 -0.3166  0.3494
27476SOL    HW184435   6.177   8.200   4.989  0.0438  0.9336  2.1333
27476SOL    HW284436   6.115   8.336   5.012 -2.0921  0.5464 -0.7291
27477SOL     OW84437   7.567   6.306  10.499 -0.3540 -0.2888  0.1907
27477SOL    HW184438   7.502   6.374  10.480 -0.1896 -0.1217  0.2328
27477SOL    HW284439   7.614   6.293  10.417  0.3052  0.3805  0.4559
27478SOL     OW84440   7.173   9.072   5.456 -0.2401  0.1462 -0.1177
27478SOL    HW184441   7.202   9.078   5.547 -0.0031 -1.8752 -0.0167
27478SOL    HW284442   7.253   9.082   5.405 -0.4346  1.7415 -0.1611
27479SOL     OW84443   4.591   9.835   6.028 -0.2696 -0.4809 -0.1921
27479SOL    HW184444   4.604   9.833   6.122 -0.1258  1.3685 -0.1430
27479SOL    HW284445   4.600   9.744   6.001 -0.2344 -1.0321  1.5588
27480SOL     OW84446   4.207   2.641   3.913  0.1497 -0.1681  0.0749
27480SOL    HW184447   4.225   2.710   3.850  0.2065 -2.7682 -2.9877
27480SOL    HW284448   4.288   2.634   3.964  1.2045  0.1653 -1.4852
27481SOL     OW84449   0.604   4.229   3.640  0.1201 -0.2580 -0.4192
27481SOL    HW184450   0.568   4.186   3.718  1.0376  0.7107  0.5792
27481SOL    HW284451   0.671   4.168   3.608 -0.9655 -1.1361 -1.0949
27482SOL     OW84452   3.164   8.459   3.651  0.2928 -0.1518  0.0589
27482SOL    HW184453   3.221   8.405   3.705  1.9050  2.0980  0.7317
27482SOL    HW284454   3.096   8.491   3.711  1.0510  0.9056  0.3759
27483SOL     OW84455   9.737   5.592   2.222  0.5284 -0.9258 -0.2107
27483SOL    HW184456   9.771   5.653   2.288  2.4868 -1.0664 -1.0291
27483SOL    HW284457   9.723   5.647   2.145  0.5845 -1.2068 -0.4198
27484SOL     OW84458   0.033   7.556   0.446 -0.3649 -0.4253 -0.7217
27484SOL    HW184459   0.018   7.615   0.373  0.3639  0.4848 -0.1556
27484SOL    HW284460   0.013   7.469   0.411 -0.5080  0.0457 -1.8509
27485SOL     OW84461   3.520   2.541   1.504 -0.4411 -0.2339 -0.1259
27485SOL    HW184462   3.575   2.469   1.533 -1.4138 -0.4258  1.4073
27485SOL    HW284463   3.579   2.601   1.459  0.5109 -1.6333 -0.7967
27486SOL     OW84464   9.250  10.673   2.273 -0.4692 -0.1463  0.2353
27486SOL    HW184465   9.330  10.632   2.238 -1.2554 -0.7044 -0.9735
27486SOL    HW284466   9.282  10.734   2.340  1.1159  0.9092 -1.3798
27487SOL     OW84467   6.160   3.059   3.409  0.2259 -0.0209 -0.1600
27487SOL    HW184468   6.070   3.037   3.429  0.5733 -2.1252 -0.7424
27487SOL    HW284469   6.162   3.155   3.411 -1.9702  0.0667 -0.0264
27488SOL     OW84470   0.062  10.422   5.534  0.0036  0.2058 -0.1604
27488SOL    HW184471  -0.033  10.432   5.531 -0.0135 -0.1233 -0.9627
27488SOL    HW284472   0.080  10.379   5.618 -0.6014 -0.1732 -0.2230
27489SOL     OW84473   4.470   0.013   1.207  1.4614  0.1113  0.2145
27489SOL    HW184474   4.551   0.062   1.191  0.7669  0.6818 -1.8146
27489SOL    HW284475   4.423   0.065   1.272  2.4346  0.0870  0.9653
27490SOL     OW84476   4.303   1.597   3.602  1.0625 -0.8299 -0.2811
27490SOL    HW184477   4.261   1.564   3.681  1.2153  0.1088  0.2062
27490SOL    HW284478   4.231   1.608   3.540  0.9582 -1.6802 -0.3283
27491SOL     OW84479   5.333   5.544   6.814 -0.1467  0.2090  0.2149
27491SOL    HW184480   5.259   5.501   6.858 -0.7835  1.9008  0.8561
27491SOL    HW284481   5.408   5.525   6.871 -0.1577 -1.0183 -0.1348
27492SOL     OW84482   0.411   0.283   1.778 -0.3445 -0.0711  0.2754
27492SOL    HW184483   0.378   0.349   1.717 -2.5335  0.7191  2.1614
27492SOL    HW284484   0.499   0.313   1.800 -1.4069  2.5899  1.3920
27493SOL     OW84485   5.294  10.654   9.554 -0.1591 -0.6740  0.2763
27493SOL    HW184486   5.252  10.695   9.630  0.5642 -2.3721  1.6833
27493SOL    HW284487   5.386  10.646   9.580  0.1964 -0.8245 -1.0060
27494SOL     OW84488  10.160  10.271   6.933  0.1216  0.0359  0.2352
27494SOL    HW184489  10.232  10.217   6.966  0.2859  1.0930  1.7193
27494SOL    HW284490  10.103  10.284   7.008 -1.4165 -0.4068 -0.8171
27495SOL     OW84491  10.242   4.534   2.046 -0.5580  0.2466 -0.5784
27495SOL    HW184492  10.197   4.614   2.072 -2.3111 -0.0658 -2.4267
27495SOL    HW284493  10.261   4.490   2.128 -1.8418  1.3598  0.3651
27496SOL     OW84494   9.096   0.495   0.175 -0.7176  0.9210  0.2334
27496SOL    HW184495   9.124   0.462   0.261  1.6200 -0.8243 -1.0602
27496SOL    HW284496   9.166   0.554   0.148 -2.6005  3.4309  0.4571
27497SOL     OW84497   2.555   8.146   4.910 -0.7406 -0.1851  0.9045
27497SOL    HW184498   2.499   8.196   4.969 -0.8366  0.1395  0.5400
27497SOL    HW284499   2.637   8.135   4.958  0.1756  2.3730  0.1173
27498SOL     OW84500   3.488   1.622   9.947 -0.0276  0.0548 -0.6205
27498SOL    HW184501   3.432   1.664   9.882 -0.3037  1.5976  0.5481
27498SOL    HW284502   3.563   1.590   9.898  0.3227  2.1811 -1.5785
27499SOL     OW84503   1.536   1.080   6.890  0.2469 -0.3706  0.6585
27499SOL    HW184504   1.507   1.166   6.919  0.0086 -0.6123  1.1285
27499SOL    HW284505   1.504   1.074   6.800 -0.5358 -0.3464  0.9330
27500SOL     OW84506   2.049  10.554   7.385 -0.3135  1.1013  0.2801
27500SOL    HW184507   2.118  10.610   7.420  1.5654 -1.2657  0.5652
27500SOL    HW284508   2.075  10.539   7.294 -1.4317  1.5653 -0.1372
27501SOL     OW84509   1.247   0.415   2.971 -0.9300  0.5159 -0.6065
27501SOL    HW184510   1.295   0.429   3.053 -1.4507 -1.8312  0.1657
27501SOL    HW284511   1.161   0.455   2.986 -1.0835 -0.0580  0.0702
27502SOL     OW84512   8.100   7.881   3.469  0.2456 -0.0570 -0.3229
27502SOL    HW184513   8.083   7.792   3.438 -2.2447 -1.2950  3.7881
27502SOL    HW284514   8.022   7.931   3.446  1.1045  0.7792 -1.5181
27503SOL     OW84515   0.038   5.826  10.323 -0.0508 -0.2857 -0.1491
27503SOL    HW184516  -0.001   5.876  10.251 -2.9222 -1.3522  0.5174
27503SOL    HW284517   0.079   5.751  10.280 -0.4638 -0.1523 -0.7963
27504SOL     OW84518   2.263   1.758   7.674 -0.2860 -0.2306 -0.0685
27504SOL    HW184519   2.348   1.770   7.717  0.3053 -0.4780 -1.1316
27504SOL    HW284520   2.283   1.706   7.596 -1.5331 -0.9190  0.0502
27505SOL     OW84521  10.258  10.912   3.552 -0.3777 -0.1684 -0.1089
27505SOL    HW184522  10.178  10.938   3.507 -0.2740  0.9114  0.2912
27505SOL    HW284523  10.233  10.908   3.645 -0.6348 -2.5239 -0.2341
27506SOL     OW84524   5.160   5.381   6.379  0.7374 -0.2517 -0.2352
27506SOL    HW184525   5.174   5.324   6.303 -1.1943  0.1688 -0.9568
27506SOL    HW284526   5.120   5.460   6.342 -0.4602 -0.1339  1.2309
27507SOL     OW84527  10.592   6.869  10.269 -0.0601  0.1317  0.7221
27507SOL    HW184528  10.581   6.816  10.190 -1.1603 -0.1621  1.0471
27507SOL    HW284529  10.591   6.960  10.238  0.8622 -0.0011  0.2667
27508SOL     OW84530   5.225   3.301   8.661  0.4522 -0.2050  0.1718
27508SOL    HW184531   5.202   3.348   8.741  1.1721  1.5777 -0.6320
27508SOL    HW284532   5.228   3.368   8.593  1.8692 -1.3457 -0.9649
27509SOL     OW84533   7.791   9.870   8.905  0.1573 -0.5904 -0.1106
27509SOL    HW184534   7.802   9.915   8.821 -0.1658 -2.4674 -1.2223
27509SOL    HW284535   7.878   9.870   8.944  0.4659 -0.3139 -0.7851
27510SOL     OW84536   1.287   9.437   8.946 -0.1640  0.4357  0.4319
27510SOL    HW184537   1.259   9.501   9.011  0.7858 -0.2122  1.5067
27510SOL    HW284538   1.212   9.378   8.938 -0.6220  1.0251  0.2606
27511SOL     OW84539  10.243   2.357   0.798 -0.4457  0.3835 -0.3367
27511SOL    HW184540  10.250   2.450   0.775 -1.5678  0.0844 -2.0667
27511SOL    HW284541  10.281   2.311   0.724 -0.5018 -0.5755  0.2174
27512SOL     OW84542   9.510   4.988   4.883  0.0526  0.4709 -0.3860
27512SOL    HW184543   9.434   4.985   4.825 -0.3590 -1.8567  0.1825
27512SOL    HW284544   9.474   5.003   4.970  0.3062 -0.0030 -0.1977
27513SOL     OW84545   1.566   5.912  10.650 -0.5141  0.4205 -0.5958
27513SOL    HW184546   1.502   5.939  10.716 -0.5839  0.9479 -0.8681
27513SOL    HW284547   1.586   5.993  10.603 -1.4658 -0.1681 -2.0951
27514SOL     OW84548   0.955   6.609   6.221 -0.6048  0.0054 -0.2091
27514SOL    HW184549   0.979   6.579   6.134 -0.5384  0.9848 -0.5364
27514SOL    HW284550   0.983   6.538   6.279 -1.1377 -0.8843 -1.0207
27515SOL     OW84551   8.585   7.680   1.996  0.3654  0.2670 -0.0414
27515SOL    HW184552   8.602   7.770   1.970  0.5179 -0.2603 -1.8798
27515SOL    HW284553   8.630   7.671   2.081  2.0044  1.3638 -0.7379
27516SOL     OW84554   9.913   7.305   6.204 -0.7878  0.7613 -0.3873
27516SOL    HW184555   9.857   7.333   6.277 -1.4130  0.0520 -0.5803
27516SOL    HW284556   9.901   7.372   6.137  0.2772  1.7609  0.3706
27517SOL     OW84557   4.442   7.414   0.297  0.0856  0.7999  0.7080
27517SOL    HW184558   4.505   7.460   0.353  0.5639 -0.6161  1.3859
27517SOL    HW284559   4.437   7.467   0.217  2.7916  0.5617  0.2831
27518SOL     OW84560   5.924   8.965   1.371  0.1520 -0.4518 -0.1572
27518SOL    HW184561   5.893   9.051   1.397 -1.2926 -1.3201  1.1556
27518SOL    HW284562   5.864   8.936   1.302 -1.0792 -1.4685  1.2706
27519SOL     OW84563  10.168   8.268   6.404 -0.1863 -0.4510 -0.1855
27519SOL    HW184564  10.120   8.237   6.481 -1.7531 -0.6889 -1.2054
27519SOL    HW284565  10.157   8.198   6.340  0.7300 -0.0692 -0.7698
27520SOL     OW84566   0.016   4.040   5.070 -0.5320 -0.2533 -0.0931
27520SOL    HW184567   0.036   4.113   5.012  0.1696 -0.5332 -0.2111
27520SOL    HW284568  -0.017   3.971   5.012 -0.0195 -0.4632 -0.1367
27521SOL     OW84569   2.812   3.184   0.155  0.4983 -0.7097 -0.3006
27521SOL    HW184570   2.842   3.274   0.138 -0.6180 -0.8227 -3.3557
27521SOL    HW284571   2.873   3.129   0.106 -1.0138 -1.3259 -1.5739
27522SOL     OW84572   0.990   6.716   1.872  0.3528 -0.5026 -0.2765
27522SOL    HW184573   0.895   6.713   1.870 -0.0660  3.6522  2.3735
27522SOL    HW284574   1.015   6.737   1.782 -0.9109 -3.6062 -1.4851
27523SOL     OW84575   6.024   6.365   0.975 -0.3347 -0.3653 -0.3574
27523SOL    HW184576   6.061   6.333   0.893  0.4594  0.4656 -0.3446
27523SOL    HW284577   6.057   6.455   0.983  1.6711 -1.1859  2.0599
27524SOL     OW84578   1.066   9.755   7.812 -0.0450 -0.4965 -0.3897
27524SOL    HW184579   1.151   9.715   7.830  0.1611 -0.0371 -0.3386
27524SOL    HW284580   1.043   9.801   7.892 -0.7270 -1.2972 -0.1193
27525SOL     OW84581   2.124   1.864   8.687  0.7727 -0.0309 -0.4074
27525SOL    HW184582   2.207   1.871   8.734  0.4835  0.6450  0.0242
27525SOL    HW284583   2.149   1.842   8.597  1.3760 -0.5202 -0.1257
27526SOL     OW84584   4.396   1.453   8.687  0.3316 -0.0962 -0.3165
27526SOL    HW184585   4.396   1.506   8.767 -0.8054 -0.3876 -0.1095
27526SOL    HW284586   4.375   1.515   8.617 -0.0224 -0.0831 -0.2024
27527SOL     OW84587   2.676   7.751   0.207  0.3470  0.3347  1.1592
27527SOL    HW184588   2.663   7.840   0.237  0.3727  1.0507 -0.8158
27527SOL    HW284589   2.604   7.701   0.246  0.4351  1.1632  2.4158
27528SOL     OW84590  10.988  11.023   9.506 -0.0831 -0.2416  0.1588
27528SOL    HW184591  11.049  10.985   9.570  0.1302  0.9177  0.6577
27528SOL    HW284592  11.038  11.026   9.425  0.1088 -0.4319  0.2669
27529SOL     OW84593  11.013   5.433  10.226  0.4581  0.3304  0.0197
27529SOL    HW184594  11.050   5.521  10.237  1.2284  0.0563 -0.3648
27529SOL    HW284595  11.014   5.418  10.132 -0.1772  0.1140  0.0419
27530SOL     OW84596   7.058   0.776   8.996 -0.3445  0.3608  0.1071
27530SOL    HW184597   6.996   0.704   8.989  0.9294 -0.7651  0.0593
27530SOL    HW284598   7.143   0.737   8.977  1.0483  0.8769  4.1706
27531SOL     OW84599   4.812   5.560   7.794 -0.3688 -0.0359 -0.2680
27531SOL    HW184600   4.850   5.640   7.759  2.7090 -0.3270  1.9559
27531SOL    HW284601   4.782   5.512   7.717 -1.4787  2.7751 -1.7379
27532SOL     OW84602   4.458   1.250   2.699 -0.4521 -0.6043  0.1437
27532SOL    HW184603   4.437   1.321   2.638 -0.6120 -1.0904 -0.3800
27532SOL    HW284604   4.427   1.281   2.784 -0.6343 -0.1003 -0.1001
27533SOL     OW84605   0.667   9.911  10.894  0.4516  0.0232 -0.4125
27533SOL    HW184606   0.697   9.829  10.855  0.1427 -0.0104 -0.5866
27533SOL    HW284607   0.581   9.926  10.854  0.6157  0.5566 -0.5593
27534SOL     OW84608   8.250   8.118   6.965  0.0803 -0.5548  0.6517
27534SOL    HW184609   8.308   8.115   6.890 -0.8768 -0.7012 -0.1038
27534SOL    HW284610   8.164   8.140   6.929 -0.4132 -0.6827  1.6862
27535SOL     OW84611   1.647   2.730   1.698 -0.8722  0.3354  0.0822
27535SOL    HW184612   1.703   2.656   1.677  0.2397  0.6563  1.7088
27535SOL    HW284613   1.622   2.715   1.790 -0.7040  1.8929  0.4046
27536SOL     OW84614   1.217   0.109   5.715  0.4423 -0.2929 -0.1692
27536SOL    HW184615   1.227   0.107   5.620  1.2078 -1.1209 -0.0867
27536SOL    HW284616   1.301   0.140   5.747  0.5214 -0.9466  0.2719
27537SOL     OW84617   8.464   4.802   8.144  0.2696  0.2618  0.7734
27537SOL    HW184618   8.417   4.746   8.083 -1.1818  1.7418  0.4738
27537SOL    HW284619   8.424   4.783   8.229  0.0261  0.5670  0.7286
27538SOL     OW84620   9.901   1.294   4.331 -0.3900  0.1502  0.5422
27538SOL    HW184621   9.871   1.312   4.420 -1.2139  0.0503  0.2936
27538SOL    HW284622   9.822   1.299   4.277  0.1595  0.6096 -0.2490
27539SOL     OW84623   3.291   6.992   1.303  0.5801  0.0584 -0.4042
27539SOL    HW184624   3.366   6.973   1.246 -0.0162 -0.0342 -1.1850
27539SOL    HW284625   3.300   6.930   1.376  1.5168  0.3768 -0.2395
27540SOL     OW84626   5.552   9.174   7.338 -0.5514  0.8167  0.3255
27540SOL    HW184627   5.536   9.157   7.430 -0.2511 -0.2867  0.1901
27540SOL    HW284628   5.642   9.204   7.334  0.0828 -0.9404  0.2296
27541SOL     OW84629   0.477   1.954   6.719 -0.0473  0.5171 -0.0463
27541SOL    HW184630   0.436   2.017   6.660 -0.9677 -1.2019 -1.3395
27541SOL    HW284631   0.404   1.917   6.768  0.1617 -1.0496 -0.8530
27542SOL     OW84632  10.947   9.453   9.867  0.3832 -0.2050 -0.2240
27542SOL    HW184633  10.875   9.394   9.887  0.8907 -0.1588  2.0045
27542SOL    HW284634  10.998   9.406   9.800  0.3327 -1.9910  0.9039
27543SOL     OW84635   4.221   2.664  10.547  0.3194  0.1675 -0.1429
27543SOL    HW184636   4.220   2.645  10.453  0.9003 -1.2287  0.0983
27543SOL    HW284637   4.292   2.610  10.581 -0.7394 -0.3993  1.2954
27544SOL     OW84638   7.771  10.100   9.695 -0.1559  0.4114  0.4793
27544SOL    HW184639   7.708  10.149   9.642 -1.9159 -1.0003  1.1544
27544SOL    HW284640   7.743  10.114   9.786  0.4684 -0.2638  0.7900
27545SOL     OW84641   8.711   7.573   0.903 -0.2500  0.0809 -0.0017
27545SOL    HW184642   8.777   7.622   0.952  1.0722 -2.2612  0.6678
27545SOL    HW284643   8.637   7.635   0.896  1.1504  2.0079  1.1206
27546SOL     OW84644   7.282   6.952   9.543  0.4094  0.0534  0.3101
27546SOL    HW184645   7.269   6.906   9.626 -0.6192 -0.1763  0.0342
27546SOL    HW284646   7.308   7.040   9.568  1.6806 -0.4533  0.8540
27547SOL     OW84647   2.698   5.884   9.299  0.0040 -0.3099  0.3480
27547SOL    HW184648   2.726   5.801   9.336  1.2229 -0.6296 -1.1896
27547SOL    HW284649   2.626   5.913   9.355  0.9480 -1.3523  2.1587
27548SOL     OW84650   4.890   0.661   8.735 -0.4723  0.4510 -0.0942
27548SOL    HW184651   4.936   0.578   8.731 -0.2721  0.5684 -0.2602
27548SOL    HW284652   4.927   0.706   8.811 -0.6775  0.3332  0.0776
27549SOL     OW84653   6.737   1.859   4.455 -0.7342 -0.4117  0.6336
27549SOL    HW184654   6.708   1.769   4.466 -0.5029 -0.5226  0.3346
27549SOL    HW284655   6.686   1.891   4.381 -1.4483 -0.0227  1.2729
27550SOL     OW84656   8.356  10.035   9.772 -0.0160  0.4656 -0.1650
27550SOL    HW184657   8.303  10.041   9.852 -1.0758  1.2519 -0.8920
27550SOL    HW284658   8.380   9.942   9.766 -2.4779 -0.2264 -0.4730
27551SOL     OW84659  10.125   0.142   5.109 -0.4006 -0.0314  0.7381
27551SOL    HW184660  10.131   0.238   5.112 -0.8384 -0.0185  1.7296
27551SOL    HW284661  10.067   0.125   5.035 -0.5563  0.4867  0.7315
27552SOL     OW84662   2.164   3.290   9.019 -1.0776  0.0875  0.0121
27552SOL    HW184663   2.141   3.213   9.072  0.8682  1.0410  2.4593
27552SOL    HW284664   2.099   3.356   9.043 -3.1675 -0.8874 -2.6049
27553SOL     OW84665   9.418   1.002   5.829  0.0580 -0.2859  0.0391
27553SOL    HW184666   9.478   0.931   5.852  0.8738  0.4878  0.3635
27553SOL    HW284667   9.457   1.042   5.751 -0.5192 -0.3385 -0.2789
27554SOL     OW84668   5.865   7.886   0.796 -0.5394  0.3783 -0.4415
27554SOL    HW184669   5.780   7.919   0.826 -0.2378  0.0822  0.8131
27554SOL    HW284670   5.924   7.900   0.871  0.0811 -1.0934 -0.6241
27555SOL     OW84671   5.904   3.340   6.577  0.3314  0.9941  0.5119
27555SOL    HW184672   5.997   3.361   6.568  0.9439 -1.5031  0.1689
27555SOL    HW284673   5.903   3.248   6.603 -2.0609  0.4858 -1.0322
27556SOL     OW84674   0.821   0.047   0.683  0.3282 -0.0863  0.2074
27556SOL    HW184675   0.769   0.035   0.603 -0.6666 -0.8867  0.9368
27556SOL    HW284676   0.822  -0.040   0.724  4.0776 -0.6959 -0.7952
27557SOL     OW84677   0.316   4.330   6.145 -0.2668 -0.0603  0.0390
27557SOL    HW184678   0.302   4.352   6.237 -0.8684  2.3951 -0.5584
27557SOL    HW284679   0.411   4.326   6.135 -0.1991 -2.1841  1.0963
27558SOL     OW84680   2.956   3.775   5.666  0.0699 -0.2672 -0.6677
27558SOL    HW184681   2.945   3.787   5.572 -0.6412 -0.5075 -0.6218
27558SOL    HW284682   3.040   3.816   5.686  0.0680  0.0829 -1.3499
27559SOL     OW84683  10.612   6.613   0.990  0.1252 -0.7786 -0.0335
27559SOL    HW184684  10.538   6.623   0.930  0.2151 -0.8246 -0.1520
27559SOL    HW284685  10.615   6.696   1.038 -0.5668 -1.1097  0.6145
27560SOL     OW84686   5.520  10.025   4.367 -0.2461  0.1586  0.8583
27560SOL    HW184687   5.584  10.014   4.296  1.6121 -0.5909  2.5590
27560SOL    HW284688   5.442  10.060   4.324  0.5315 -1.0194 -1.6746
27561SOL     OW84689   8.380   6.710   1.606  0.5171  0.2283  0.1538
27561SOL    HW184690   8.358   6.630   1.559 -1.1793  1.0507 -0.5206
27561SOL    HW284691   8.472   6.727   1.582  0.4283 -0.6819 -0.9232
27562SOL     OW84692   0.225   7.715   3.172 -0.4312  0.0456 -0.0073
27562SOL    HW184693   0.231   7.716   3.268 -1.3969  0.7413  0.0649
27562SOL    HW284694   0.311   7.686   3.143  0.2376  0.8671  1.0489
27563SOL     OW84695   3.215   6.010   0.196 -0.1924  0.3145 -0.1066
27563SOL    HW184696   3.122   6.019   0.174 -0.1984 -1.7963 -1.2046
27563SOL    HW284697   3.215   5.982   0.288 -0.4981  2.1536  0.5037
27564SOL     OW84698   3.349   8.691   6.583  0.5892 -0.0526  0.1001
27564SOL    HW184699   3.375   8.755   6.516  0.2961  0.3359  0.3507
27564SOL    HW284700   3.304   8.622   6.534 -0.0501  0.4648 -0.0552
27565SOL     OW84701   0.724   2.367  10.995 -0.0940 -0.1289  0.4784
27565SOL    HW184702   0.714   2.293  10.935 -2.6195  1.0656 -0.7130
27565SOL    HW284703   0.761   2.329  11.074 -0.8443 -2.5829 -0.2614
27566SOL     OW84704  10.502   2.747   9.611 -0.6318 -0.1191  0.1010
27566SOL    HW184705  10.452   2.783   9.685 -0.5007  0.6609 -0.1863
27566SOL    HW284706  10.585   2.794   9.612 -0.5412 -0.2605 -0.4182
27567SOL     OW84707   1.585   2.085  10.944 -0.1622  0.7930  0.2733
27567SOL    HW184708   1.670   2.099  10.903  0.5864 -0.4807  1.3364
27567SOL    HW284709   1.553   2.174  10.963  0.9752  1.2854 -0.0494
27568SOL     OW84710   0.492   2.485   4.865 -0.4310 -0.3242 -0.3975
27568SOL    HW184711   0.515   2.560   4.811 -1.0456 -0.6532 -1.1513
27568SOL    HW284712   0.398   2.497   4.883 -0.0803  0.1505  1.2120
27569SOL     OW84713   1.212   2.070   7.444  0.1882 -0.2907  0.3563
27569SOL    HW184714   1.146   2.091   7.510 -0.0325 -1.0649  0.3967
27569SOL    HW284715   1.287   2.039   7.494  0.4871  0.3255  0.2972
27570SOL     OW84716   0.608  10.553   1.254  0.2801 -0.7800 -0.0711
27570SOL    HW184717   0.598  10.636   1.209  0.6849 -0.2165  0.8394
27570SOL    HW284718   0.670  10.504   1.200  1.3139  0.1620  0.2252
27571SOL     OW84719   7.841   7.549   3.808 -0.5115  0.5135  0.3574
27571SOL    HW184720   7.789   7.561   3.728  0.2180  0.7567 -0.0851
27571SOL    HW284721   7.819   7.625   3.862  0.7233  1.5913 -0.5859
27572SOL     OW84722   0.834   6.479   7.873  0.3577 -0.7276  1.0475
27572SOL    HW184723   0.792   6.406   7.918 -0.2764 -1.1808 -0.2423
27572SOL    HW284724   0.782   6.556   7.896 -0.8813 -1.1942 -0.0778
27573SOL     OW84725   8.664   6.665   3.700 -0.1388 -0.2728 -0.1559
27573SOL    HW184726   8.608   6.704   3.768 -1.6082  1.1144 -2.0248
27573SOL    HW284727   8.647   6.571   3.706 -0.8792 -0.0939  0.8379
27574SOL     OW84728   2.560   0.803   7.876 -0.1109  0.5561  0.0409
27574SOL    HW184729   2.613   0.730   7.843 -1.9320  0.4734 -3.0892
27574SOL    HW284730   2.622   0.875   7.884  1.0293 -0.2985 -0.6558
27575SOL     OW84731   9.516   3.889   5.540 -0.3063 -0.0967  0.8940
27575SOL    HW184732   9.559   3.967   5.574 -0.3721  0.0182  0.7178
27575SOL    HW284733   9.580   3.852   5.478  0.0817 -0.6690  1.6220
27576SOL     OW84734   2.688  11.030   7.173  0.7213  0.4390 -0.1749
27576SOL    HW184735   2.766  10.974   7.176  0.2006 -0.6818 -3.7037
27576SOL    HW284736   2.630  10.992   7.239  2.1008 -0.3430  0.6492
27577SOL     OW84737   5.515  10.701   1.791 -0.3270  0.2931  0.2634
27577SOL    HW184738   5.478  10.631   1.738 -1.2808  0.5918  0.5031
27577SOL    HW284739   5.576  10.658   1.850 -0.2142 -0.2102 -0.2210
27578SOL     OW84740   4.376   5.704   1.455 -0.3831  0.0955  0.1082
27578SOL    HW184741   4.445   5.715   1.520 -0.7845  0.0862  0.5448
27578SOL    HW284742   4.413   5.643   1.390 -0.0493 -0.0520  0.4326
27579SOL     OW84743   3.244  10.648   1.691 -0.1436  0.5773  0.7021
27579SOL    HW184744   3.236  10.639   1.786 -0.1884  1.5734  0.8054
27579SOL    HW284745   3.180  10.716   1.668  0.6178  1.1096  0.1096
27580SOL     OW84746   4.782   8.487  10.710 -0.1018  1.0769  0.2307
27580SOL    HW184747   4.838   8.507  10.635  0.5653 -0.1504  0.3639
27580SOL    HW284748   4.843   8.455  10.777 -0.8851  0.3229  0.6081
27581SOL     OW84749   6.122   2.334   6.637 -0.2816  0.1780 -0.4598
27581SOL    HW184750   6.180   2.261   6.613 -1.4727 -0.1628 -2.5165
27581SOL    HW284751   6.035   2.296   6.641 -0.7083  1.1700  0.2175
27582SOL     OW84752   1.893  10.019   6.029 -0.1359 -0.3849  0.6196
27582SOL    HW184753   1.974  10.042   6.074 -0.9248  1.9537  1.0158
27582SOL    HW284754   1.919   9.955   5.963  2.1742  0.8967  0.1838
27583SOL     OW84755   4.541   7.017   5.974 -0.1390 -0.3983 -0.1157
27583SOL    HW184756   4.567   7.048   6.061 -2.5964  0.4014  0.4017
27583SOL    HW284757   4.544   7.095   5.918 -3.3568  0.2838  0.4817
27584SOL     OW84758   2.593   9.394   8.141 -0.3367 -0.2228  0.1833
27584SOL    HW184759   2.601   9.449   8.063  1.6652  0.9795  1.1378
27584SOL    HW284760   2.520   9.432   8.190 -0.1098  0.4922 -0.0144
27585SOL     OW84761   1.106   4.933   3.949  0.2215  0.6671 -0.6930
27585SOL    HW184762   1.149   4.980   4.020 -1.0738 -1.1193  1.4079
27585SOL    HW284763   1.128   4.841   3.964 -1.1683  0.1072 -1.8337
27586SOL     OW84764  10.735   8.768   6.347  0.6839  0.6048  0.3817
27586SOL    HW184765  10.746   8.844   6.404 -0.5098  0.7962  0.3947
27586SOL    HW284766  10.823   8.734   6.333  1.0557  0.8556  1.9398
27587SOL     OW84767   6.988   6.335   0.533 -0.2805  0.1167 -0.6174
27587SOL    HW184768   6.909   6.375   0.496  0.3761  0.9431 -1.1710
27587SOL    HW284769   6.983   6.354   0.626 -1.1577 -0.5907 -0.5081
27588SOL     OW84770   4.298   6.263   5.121 -0.8532 -0.6999  0.5401
27588SOL    HW184771   4.355   6.262   5.198 -0.2868 -0.6474  0.1289
27588SOL    HW284772   4.291   6.171   5.095  1.7869 -0.4777 -1.3716
27589SOL     OW84773   5.882   0.786   9.321  0.1071 -0.8210  0.1076
27589SOL    HW184774   5.969   0.795   9.359 -0.0576 -0.2369  0.3512
27589SOL    HW284775   5.841   0.716   9.373 -0.9659  1.5369  2.6919
27590SOL     OW84776   4.299   8.039   5.143  0.0116  0.9317  0.2856
27590SOL    HW184777   4.389   8.010   5.124 -1.0308 -1.7296 -1.0347
27590SOL    HW284778   4.268   8.077   5.061 -0.2511  1.4829  0.6276
27591SOL     OW84779   3.700  10.645   9.617  0.2478 -0.7955  0.0100
27591SOL    HW184780   3.768  10.580   9.599  0.4950 -0.9974  1.5399
27591SOL    HW284781   3.632  10.627   9.552  1.3029 -1.0907 -1.0542
27592SOL     OW84782   6.630   9.932   4.513  0.5642 -0.8408 -0.0834
27592SOL    HW184783   6.581   9.943   4.431 -0.3406  1.9538  0.7148
27592SOL    HW284784   6.721   9.948   4.489  0.7494 -2.8319 -0.9755
27593SOL     OW84785   9.531   0.303   0.199 -0.7198 -0.4117 -0.0176
27593SOL    HW184786   9.520   0.391   0.164 -2.6970 -0.4406  0.3770
27593SOL    HW284787   9.620   0.301   0.233 -0.6297  1.4329 -0.0645
27594SOL     OW84788   5.414   5.706   2.212  0.1394  0.4733  0.3237
27594SOL    HW184789   5.349   5.775   2.227 -2.9328 -1.7536 -1.4673
27594SOL    HW284790   5.458   5.732   2.131 -0.2290  0.8709  0.2464
27595SOL     OW84791   6.836  10.583   0.007  0.0778  0.4603  0.5565
27595SOL    HW184792   6.829  10.566   0.101  0.5714  0.3098  0.5743
27595SOL    HW284793   6.804  10.503  -0.034 -0.7649  0.7795  0.5836
27596SOL     OW84794   4.140   4.014  10.005  0.1078 -0.2412 -0.3815
27596SOL    HW184795   4.191   3.933   9.999 -0.0520 -0.2603 -1.7052
27596SOL    HW284796   4.070   4.003   9.942  0.3288  1.1086 -0.8924
27597SOL     OW84797   4.569   1.603   0.724 -0.0792 -0.0836 -0.5056
27597SOL    HW184798   4.555   1.517   0.684 -1.8386  0.6243 -1.5185
27597SOL    HW284799   4.490   1.618   0.776  0.8120  0.3679  0.7740
27598SOL     OW84800   9.152   3.460   3.625  0.0090  0.1395 -0.4680
27598SOL    HW184801   9.240   3.443   3.591  0.6079  1.2577  0.4390
27598SOL    HW284802   9.120   3.534   3.573 -1.2563 -1.5332 -2.1818
27599SOL     OW84803   1.221   1.917  10.603 -0.1611 -0.2963  0.0135
27599SOL    HW184804   1.297   1.939  10.656  0.6988  1.8145 -1.9264
27599SOL    HW284805   1.151   1.901  10.666  0.8877  1.6869  1.7848
27600SOL     OW84806   6.319   8.316   2.225  0.1296  0.4675  0.5225
27600SOL    HW184807   6.267   8.243   2.260  0.3749  0.4271  0.8059
27600SOL    HW284808   6.343   8.368   2.302  1.7416 -0.3064  0.5760
27601SOL     OW84809   8.976   4.422   0.523  0.3416 -0.0374  0.3355
27601SOL    HW184810   8.933   4.502   0.553 -1.2745 -0.4796 -0.6568
27601SOL    HW284811   8.926   4.351   0.563  2.2946 -0.6198  1.9207
27602SOL     OW84812   3.432   6.590   9.739 -0.1557  0.1621  0.4048
27602SOL    HW184813   3.446   6.667   9.684  1.7556  1.3105  2.3166
27602SOL    HW284814   3.338   6.590   9.758 -0.3127  1.5550 -0.3029
27603SOL     OW84815   5.794   3.686   9.117  0.3687  0.2212  0.7755
27603SOL    HW184816   5.767   3.777   9.107 -0.1122  0.0299  0.2711
27603SOL    HW284817   5.713   3.636   9.108  0.7873 -0.3253 -0.1033
27604SOL     OW84818   3.305   2.804   4.785  0.0961  0.7037 -0.5319
27604SOL    HW184819   3.243   2.801   4.711  0.3696  0.9341 -0.7730
27604SOL    HW284820   3.386   2.838   4.747  0.5197 -0.0382 -0.3252
27605SOL     OW84821   9.785  10.451   7.409  0.1086 -0.2111  0.0050
27605SOL    HW184822   9.720  10.506   7.452  1.4148  0.6891  0.9363
27605SOL    HW284823   9.735  10.388   7.358 -1.4521  1.5207 -0.6813
27606SOL     OW84824  10.010   8.499   4.450  0.1869 -0.3636  0.0304
27606SOL    HW184825  10.066   8.509   4.373  1.9091 -0.5054  1.2122
27606SOL    HW284826   9.953   8.576   4.448  0.6050 -0.0647 -1.0654
27607SOL     OW84827   1.886   0.941   2.961 -0.2229  0.1696 -0.3087
27607SOL    HW184828   1.854   0.883   2.892 -1.0371  0.1360  0.0881
27607SOL    HW284829   1.902   1.024   2.916 -0.0133 -0.0671 -0.6823
27608SOL     OW84830   7.065   8.318   5.441 -0.3276 -0.2104  0.3349
27608SOL    HW184831   7.093   8.406   5.417  0.1986  0.0749  1.8705
27608SOL    HW284832   7.077   8.266   5.361  1.8252  0.5399  0.1157
27609SOL     OW84833   2.914   0.200   1.320  0.7168  0.5952  0.1024
27609SOL    HW184834   2.875   0.174   1.236  1.7727 -0.3087 -0.1270
27609SOL    HW284835   2.863   0.276   1.347  2.1954  2.8264 -2.8024
27610SOL     OW84836   8.027   2.674   7.174  0.7056  0.0711  0.1763
27610SOL    HW184837   8.042   2.652   7.082  1.1672 -0.2432  0.3205
27610SOL    HW284838   8.091   2.742   7.194 -0.6953  1.5794 -0.2560
27611SOL     OW84839   1.115   6.085   8.263  0.5602 -0.2470  0.6601
27611SOL    HW184840   1.048   6.122   8.321 -0.7377 -0.9713 -0.3061
27611SOL    HW284841   1.140   6.002   8.305 -0.1800 -0.6397  0.3587
27612SOL     OW84842   8.102   1.180   2.253 -0.2598 -0.0006 -0.2258
27612SOL    HW184843   8.102   1.105   2.194  0.6284 -0.5148  0.4070
27612SOL    HW284844   8.187   1.177   2.296 -0.0134  1.6374 -0.5258
27613SOL     OW84845   0.023   9.535   5.728 -0.1901 -0.1439  0.5816
27613SOL    HW184846   0.034   9.453   5.776 -0.6524 -0.3470  0.3445
27613SOL    HW284847  -0.066   9.530   5.692  0.0345  0.1472 -0.0238
27614SOL     OW84848   2.270   2.520   9.197  0.4015 -0.5621  0.0034
27614SOL    HW184849   2.234   2.431   9.207  1.0362 -0.7954  0.2310
27614SOL    HW284850   2.365   2.507   9.193  0.4293 -0.0682 -1.8203
27615SOL     OW84851   5.729   0.783   8.082 -0.3821  0.1708  0.5751
27615SOL    HW184852   5.703   0.853   8.022 -2.9756 -0.8047  0.4275
27615SOL    HW284853   5.668   0.712   8.064  2.4544 -2.4121  0.3323
27616SOL     OW84854  10.801  10.618   8.242 -0.2896  0.4353 -0.1236
27616SOL    HW184855  10.848  10.545   8.200  1.4460 -0.0825  2.4681
27616SOL    HW284856  10.870  10.673   8.278 -1.5543  3.6171 -2.1801
27617SOL     OW84857   0.195   4.196   7.691  0.2217  0.2736 -0.2335
27617SOL    HW184858   0.162   4.162   7.608  2.1114  0.2430 -1.0136
27617SOL    HW284859   0.176   4.127   7.755 -1.1146  0.2402 -0.6393
27618SOL     OW84860   4.208   8.814   3.255 -0.1918  0.1910  0.1298
27618SOL    HW184861   4.199   8.903   3.220 -1.0437  0.2914  0.5774
27618SOL    HW284862   4.272   8.822   3.325  0.2824  0.3016 -0.3037
27619SOL     OW84863  10.724   0.260   6.812  0.0216 -0.7871  0.3338
27619SOL    HW184864  10.630   0.272   6.823 -0.2092 -1.6104 -0.6445
27619SOL    HW284865  10.746   0.190   6.873 -0.5713 -2.6841 -1.5206
27620SOL     OW84866   1.540   1.982   3.161 -0.4711  0.6667 -0.0576
27620SOL    HW184867   1.537   1.896   3.120  0.4062  0.4318  0.3593
27620SOL    HW284868   1.468   1.981   3.224 -1.1332  0.6378 -0.7866
27621SOL     OW84869   1.943   3.230   6.444 -0.4542 -0.1706  0.8929
27621SOL    HW184870   1.994   3.306   6.473  1.7218 -0.2762 -2.1924
27621SOL    HW284871   1.880   3.265   6.381  0.5966 -0.8408 -0.5894
27622SOL     OW84872   9.239   8.568   7.336  0.3417 -0.2900 -0.5376
27622SOL    HW184873   9.222   8.489   7.387  0.6755 -0.9315 -1.3990
27622SOL    HW284874   9.154   8.592   7.299 -0.0370  0.5459  0.7974
27623SOL     OW84875   2.328   7.305   7.720  0.0928 -0.1806  0.0315
27623SOL    HW184876   2.382   7.344   7.788 -1.8046  0.7663  1.0497
27623SOL    HW284877   2.251   7.272   7.766  0.0684 -2.1297 -1.2766
27624SOL     OW84878  10.548   7.419   1.883  0.2335  0.3871  0.1428
27624SOL    HW184879  10.525   7.327   1.896  1.4923  0.3318  2.2543
27624SOL    HW284880  10.464   7.465   1.885 -0.3464 -0.6183 -0.2357
27625SOL     OW84881   1.915   3.565   6.602  0.2375 -0.4794 -0.2373
27625SOL    HW184882   1.865   3.644   6.622  1.4936  0.4237 -0.5122
27625SOL    HW284883   1.907   3.554   6.507  0.9745 -0.0055 -0.3685
27626SOL     OW84884   8.911   2.429   1.359 -0.2215  0.2229  0.2081
27626SOL    HW184885   8.826   2.447   1.397 -1.7364 -1.2167 -2.2207
27626SOL    HW284886   8.933   2.340   1.389 -2.2042 -1.6260 -3.1787
27627SOL     OW84887   0.559   4.917   9.952 -0.5896 -0.0547 -0.0986
27627SOL    HW184888   0.497   4.983   9.921 -2.3169 -0.7019  1.7517
27627SOL    HW284889   0.554   4.922  10.047  0.9218 -1.3458  0.0980
27628SOL     OW84890   5.395   5.899   0.004  0.1621  0.3382 -0.4179
27628SOL    HW184891   5.479   5.944   0.009 -0.0940  0.6985  1.9718
27628SOL    HW284892   5.343   5.952  -0.056  1.2909  0.7287 -1.0653
27629SOL     OW84893   1.975   0.422   8.254 -0.2195 -0.3601 -0.3439
27629SOL    HW184894   1.964   0.396   8.346  0.5350  0.6628  0.0600
27629SOL    HW284895   1.914   0.496   8.243  0.8095  0.5342 -0.1981
27630SOL     OW84896   5.824  10.384   1.701  0.4012 -0.3565 -0.0550
27630SOL    HW184897   5.780  10.347   1.624  2.8446  0.0396 -1.7724
27630SOL    HW284898   5.835  10.477   1.680  0.0206  0.0215  1.3548
27631SOL     OW84899   1.321   5.878   1.653  0.5508 -0.1293  0.4687
27631SOL    HW184900   1.259   5.916   1.589  0.1482  0.6904  1.3133
27631SOL    HW284901   1.400   5.931   1.643 -0.1281  1.2409  1.8918
27632SOL     OW84902   7.929   0.290   8.375  0.6316  0.8843 -0.4927
27632SOL    HW184903   7.986   0.288   8.452  0.6954  1.1991 -0.5302
27632SOL    HW284904   7.990   0.300   8.301  0.7143 -1.0367 -0.7430
27633SOL     OW84905   6.614   4.035   6.851 -0.4470  0.0198 -0.4435
27633SOL    HW184906   6.699   4.066   6.819 -0.4339 -0.1980 -0.6278
27633SOL    HW284907   6.562   4.114   6.864 -1.5147  0.0704 -3.9720
27634SOL     OW84908   3.427   3.115   0.006 -0.2053  0.0252 -0.3008
27634SOL    HW184909   3.341   3.150   0.031 -0.8050 -1.3771 -0.2928
27634SOL    HW284910   3.484   3.136   0.079 -0.0778  2.4507 -1.0014
27635SOL     OW84911   9.013   2.415   4.276 -0.9640 -0.5794  0.4708
27635SOL    HW184912   8.929   2.434   4.236 -0.0372  1.4598 -0.6766
27635SOL    HW284913   9.063   2.496   4.268  1.7112 -2.1564 -0.4492
27636SOL     OW84914  10.286   4.641   8.041  0.1689  0.1144  0.6069
27636SOL    HW184915  10.274   4.716   7.983 -1.2732  1.5824  2.6764
27636SOL    HW284916  10.354   4.668   8.102  0.7559 -0.9071  0.4250
27637SOL     OW84917   6.461   4.075  10.256 -0.3994  0.4781 -0.6037
27637SOL    HW184918   6.479   4.088  10.350  0.1647  0.8386 -0.7531
27637SOL    HW284919   6.366   4.066  10.251 -0.4497  0.6163 -0.0115
27638SOL     OW84920   4.161   2.132   8.255 -0.2595  0.4305 -0.0705
27638SOL    HW184921   4.165   2.130   8.350 -1.0520  1.9591  0.0346
27638SOL    HW284922   4.217   2.205   8.230 -1.5703  1.2834 -0.6183
27639SOL     OW84923   7.144   3.713   3.269  0.0764  0.4288  0.1743
27639SOL    HW184924   7.118   3.804   3.259 -0.0086  0.4468  0.5307
27639SOL    HW284925   7.133   3.695   3.363 -2.0617 -0.6037 -0.2172
27640SOL     OW84926  10.905   6.852  10.820 -0.3323  0.2809  0.9490
27640SOL    HW184927  10.905   6.935  10.773  1.7893 -0.4239 -0.4485
27640SOL    HW284928  10.970   6.865  10.890 -1.6635  0.5035  2.1835
27641SOL     OW84929   8.331   6.044   0.996 -0.0124 -0.3239 -0.1846
27641SOL    HW184930   8.354   6.133   1.021  0.0233 -0.1802 -0.7290
27641SOL    HW284931   8.246   6.052   0.953 -0.5140 -0.6940  0.7124
27642SOL     OW84932   6.945   1.511   9.653 -0.5465  0.5780 -0.0768
27642SOL    HW184933   7.013   1.529   9.588  0.0354 -0.9811  0.0571
27642SOL    HW284934   6.931   1.595   9.696  2.9788  0.5828  1.4623
27643SOL     OW84935   8.063   2.196   2.295  0.5774  0.6850  0.0803
27643SOL    HW184936   7.988   2.245   2.261  0.0037  0.0454  0.3924
27643SOL    HW284937   8.090   2.140   2.222 -0.0684 -0.0160  0.3710
27644SOL     OW84938  10.172   8.954   8.759  0.2020 -0.1489  0.0275
27644SOL    HW184939  10.223   8.873   8.747 -1.3128 -1.1325 -0.0347
27644SOL    HW284940  10.197   8.985   8.846  2.2275  0.4024 -0.6871
27645SOL     OW84941   8.141   5.711  10.215  0.0832 -0.0916  0.3945
27645SOL    HW184942   8.206   5.759  10.163 -0.7719  1.4402  0.6481
27645SOL    HW284943   8.192   5.661  10.278  1.1440 -1.8279 -1.7194
27646SOL     OW84944   8.047   6.576   5.247 -0.0125 -0.2462  0.3679
27646SOL    HW184945   8.047   6.671   5.257  0.1982 -0.1531 -0.4540
27646SOL    HW284946   8.139   6.551   5.249 -0.1353 -0.7306  3.0183
27647SOL     OW84947   1.134   3.783   6.854 -0.1407 -0.2236 -0.2336
27647SOL    HW184948   1.220   3.743   6.866  0.0698  0.4072  0.4255
27647SOL    HW284949   1.146   3.875   6.880 -1.0239 -0.1451 -0.0655
27648SOL     OW84950   4.513   2.692   7.571  0.5096 -0.0365 -0.2552
27648SOL    HW184951   4.459   2.714   7.494  1.4686  0.1386 -0.8925
27648SOL    HW284952   4.462   2.724   7.645  0.7425  2.2281 -0.9872
27649SOL     OW84953   7.186   9.027   9.715 -0.1851 -0.1122 -0.7889
27649SOL    HW184954   7.251   9.058   9.651  0.6545  1.0053  0.5390
27649SOL    HW284955   7.200   8.933   9.719  0.2533 -0.1022 -1.7051
27650SOL     OW84956   4.166   4.887   3.056 -0.2579 -0.2816 -0.1551
27650SOL    HW184957   4.108   4.868   2.982 -0.7132  1.0432 -0.1604
27650SOL    HW284958   4.108   4.887   3.132  0.1166 -1.0886  0.1442
27651SOL     OW84959   8.789   9.028   1.013  0.1176 -0.1015 -0.4546
27651SOL    HW184960   8.741   8.947   0.996 -1.8966  0.9961 -0.2970
27651SOL    HW284961   8.742   9.070   1.085  2.5621  0.0981  1.1514
27652SOL     OW84962   3.702   8.237   5.314 -0.0705  0.6515  0.1027
27652SOL    HW184963   3.695   8.183   5.393 -0.0040 -0.7310 -0.7973
27652SOL    HW284964   3.792   8.223   5.284 -0.9709 -1.4149 -1.9264
27653SOL     OW84965   2.315   9.766   2.201 -0.4286  0.3214  0.4664
27653SOL    HW184966   2.364   9.783   2.120 -1.2768 -2.0066 -0.6243
27653SOL    HW284967   2.225   9.748   2.171 -0.3263 -2.6450  1.6223
27654SOL     OW84968   2.153   0.947   5.934 -0.2846 -0.5215 -0.1430
27654SOL    HW184969   2.111   0.863   5.920 -0.3618 -0.4321 -0.4630
27654SOL    HW284970   2.238   0.939   5.891 -0.3274 -0.4064 -0.2500
27655SOL     OW84971   9.474   0.211   7.204  0.0124 -0.7338 -0.1677
27655SOL    HW184972   9.427   0.223   7.286  1.1284 -1.9196  0.6682
27655SOL    HW284973   9.462   0.294   7.157 -0.1131  0.1882  1.4392
27656SOL     OW84974   5.737   6.178   3.969  0.1815 -0.6354  0.1462
27656SOL    HW184975   5.809   6.169   3.906 -1.1327 -1.1693 -1.3495
27656SOL    HW284976   5.666   6.219   3.919 -0.5606 -0.0610  1.5954
27657SOL     OW84977   9.314   0.664   0.279  0.4772 -0.2127  0.0873
27657SOL    HW184978   9.357   0.598   0.334 -2.1313 -3.5262 -1.4862
27657SOL    HW284979   9.232   0.682   0.325  0.1416  0.1797 -0.6634
27658SOL     OW84980   6.112   1.925   5.028 -0.2791  0.5472 -0.0620
27658SOL    HW184981   6.044   1.961   5.085 -1.2720  1.0151 -1.5046
27658SOL    HW284982   6.128   1.837   5.063 -1.7515  0.3643  0.2075
27659SOL     OW84983   7.512   5.921   2.712 -0.2730  0.8735 -0.0946
27659SOL    HW184984   7.435   5.915   2.767  0.2456  2.4838  0.8708
27659SOL    HW284985   7.482   5.966   2.633 -0.9008 -0.9946 -0.9908
27660SOL     OW84986   1.566   7.647   4.388 -0.2595 -0.4915 -0.2299
27660SOL    HW184987   1.651   7.684   4.365 -0.1238  0.3346  1.5034
27660SOL    HW284988   1.503   7.717   4.370 -0.6419 -1.1397 -1.6223
27661SOL     OW84989   2.561   1.279   1.621  0.1053  0.2170  0.2887
27661SOL    HW184990   2.618   1.208   1.590 -0.4992  0.2603 -0.9520
27661SOL    HW284991   2.620   1.338   1.668  0.6827 -0.8949  1.0104
27662SOL     OW84992  10.798  10.213   5.806 -0.2854  0.2236 -0.4312
27662SOL    HW184993  10.761  10.274   5.870  1.2424  1.6644 -0.8380
27662SOL    HW284994  10.875  10.177   5.850  0.7033  1.1282 -1.3639
27663SOL     OW84995   0.706   1.543   5.930  0.0762  0.2030 -0.1307
27663SOL    HW184996   0.673   1.454   5.938  0.2512  0.1692  0.2578
27663SOL    HW284997   0.634   1.598   5.961 -1.5554  0.4928 -3.9451
27664SOL     OW84998   8.947   2.773   4.490 -0.0457 -0.1142 -0.3913
27664SOL    HW184999   8.863   2.756   4.446 -0.3222  2.4004 -0.9674
27664SOL    HW285000   9.011   2.767   4.419 -0.1409  1.0552 -0.5898
27665SOL     OW85001   1.241   5.284   9.644 -0.0579 -0.4965 -0.8539
27665SOL    HW185002   1.164   5.251   9.599 -1.7414  0.6106  1.0773
27665SOL    HW285003   1.208   5.351   9.704  2.0645 -1.5699  1.7241
27666SOL     OW85004   8.807   2.975   8.720 -0.7951 -0.3400  0.2889
27666SOL    HW185005   8.808   2.976   8.815 -1.1322 -0.5708  0.2962
27666SOL    HW285006   8.900   2.975   8.695 -0.7054 -0.2478  0.6117
27667SOL     OW85007   5.996   0.838   5.221  0.0230 -0.6331  0.1902
27667SOL    HW185008   6.047   0.917   5.209  1.0509 -1.2528  0.3435
27667SOL    HW285009   5.913   0.868   5.258  0.3931  0.3684  0.2315
27668SOL     OW85010  10.204   5.543   7.924  0.1636  0.0457  0.1307
27668SOL    HW185011  10.177   5.588   8.004  2.3098  1.5540  0.0873
27668SOL    HW285012  10.259   5.471   7.953  1.7586  1.1849  0.0349
27669SOL     OW85013   7.085   1.899   0.843  0.1415  0.7362  0.2187
27669SOL    HW185014   7.180   1.896   0.834  0.0084 -0.5293 -1.2976
27669SOL    HW285015   7.054   1.829   0.786 -1.6584  0.4082  1.5228
27670SOL     OW85016   5.951   1.407   9.596 -0.8813 -0.1883 -0.1303
27670SOL    HW185017   6.045   1.422   9.608 -0.9832  0.2326  0.1712
27670SOL    HW285018   5.936   1.425   9.503 -0.1899 -2.8981 -0.8557
27671SOL     OW85019  10.173   4.166   8.719 -0.1203 -0.1664 -0.2656
27671SOL    HW185020  10.084   4.141   8.696  0.0645 -0.0345 -1.1670
27671SOL    HW285021  10.222   4.083   8.717  0.0782 -0.0431 -1.2757
27672SOL     OW85022   9.845   3.754   1.852 -0.1232 -0.1886 -0.2596
27672SOL    HW185023   9.834   3.700   1.773  0.3597 -0.3301 -0.2293
27672SOL    HW285024   9.847   3.691   1.924 -0.9880 -0.0331 -0.0860
27673SOL     OW85025   3.910  10.958   1.737 -0.2776  0.2415  0.2678
27673SOL    HW185026   3.946  11.046   1.730 -0.8216  0.4713  0.3294
27673SOL    HW285027   3.848  10.951   1.665  0.5168 -0.4618 -0.3652
27674SOL     OW85028  11.001   4.475   2.499 -0.7648 -0.1393 -0.1346
27674SOL    HW185029  10.952   4.428   2.432 -0.8532  0.9024 -0.8095
27674SOL    HW285030  10.946   4.550   2.521  0.4835  1.0305 -0.8785
27675SOL     OW85031   0.239   4.711   6.258  0.3235  0.1190  0.4019
27675SOL    HW185032   0.239   4.800   6.293 -1.1406 -0.3795  1.8062
27675SOL    HW285033   0.232   4.722   6.164  1.0248  1.4880  0.4849
27676SOL     OW85034   5.209   1.494   0.195 -0.1691  0.0345 -0.2630
27676SOL    HW185035   5.180   1.553   0.264  0.2521 -1.6568  1.4517
27676SOL    HW285036   5.258   1.425   0.241 -0.8281 -1.7729 -2.1046
27677SOL     OW85037   4.905   4.959   2.025  0.2216  0.2081 -0.3329
27677SOL    HW185038   4.841   4.987   2.091 -0.0498  0.8191 -0.8445
27677SOL    HW285039   4.977   5.021   2.035  0.1561  0.3364 -0.6367
27678SOL     OW85040   9.662   1.287   4.194  0.2887  0.7906  0.5444
27678SOL    HW185041   9.633   1.374   4.221  0.9648  0.7854  1.3226
27678SOL    HW285042   9.583   1.234   4.198  0.1053  1.1015  1.2521
27679SOL     OW85043   6.225   5.906   0.840 -0.2302 -0.0172 -0.5496
27679SOL    HW185044   6.274   5.977   0.798  0.3689  0.8263  1.4236
27679SOL    HW285045   6.134   5.926   0.821 -0.0162  0.7334 -0.8457
27680SOL     OW85046   3.945   6.045   5.277  0.0512  0.0938 -0.3377
27680SOL    HW185047   3.853   6.043   5.303  0.4814  1.4062  1.5118
27680SOL    HW285048   3.944   6.080   5.188 -1.1591  1.8748  0.3185
27681SOL     OW85049   5.823   5.427   8.759 -0.0995 -0.0634 -0.3729
27681SOL    HW185050   5.746   5.387   8.719 -0.0078  0.2936 -0.9104
27681SOL    HW285051   5.791   5.507   8.800 -0.8332 -1.9397  3.0910
27682SOL     OW85052   1.288   0.464   8.672 -0.2127  0.0545 -0.4087
27682SOL    HW185053   1.316   0.422   8.754  2.5573  0.5517 -0.9907
27682SOL    HW285054   1.300   0.558   8.688 -2.1088  0.3715 -0.5940
27683SOL     OW85055  10.810   2.794   8.361  0.5376  0.5199  0.1206
27683SOL    HW185056  10.887   2.743   8.337  0.9577  1.0127  0.4121
27683SOL    HW285057  10.736   2.735   8.346  0.9018  0.3288 -0.9860
27684SOL     OW85058  10.811   6.092   1.177 -0.2587  0.5828  0.1208
27684SOL    HW185059  10.863   6.147   1.118  0.7210  0.1517  0.5572
27684SOL    HW285060  10.764   6.154   1.232  0.4800  0.9921  0.3046
27685SOL     OW85061   6.793  10.607   8.816  0.0870 -0.0494 -0.8217
27685SOL    HW185062   6.785  10.630   8.909 -2.0668  1.5776 -1.3397
27685SOL    HW285063   6.862  10.540   8.814  2.4176  2.0567  1.5552
27686SOL     OW85064   0.285   1.437   8.939 -0.0768 -0.0391 -0.0296
27686SOL    HW185065   0.304   1.530   8.936  2.0313 -0.4428 -1.1465
27686SOL    HW285066   0.195   1.429   8.907  0.0606  1.5214 -0.8633
27687SOL     OW85067   8.594   5.426   5.797  0.2056  0.7486  0.0936
27687SOL    HW185068   8.539   5.505   5.797  0.5635  1.0205 -1.5411
27687SOL    HW285069   8.653   5.437   5.723 -0.1344 -1.3384 -0.5532
27688SOL     OW85070   6.935   1.045   7.259 -0.2802 -0.1479 -0.3698
27688SOL    HW185071   6.899   1.022   7.173 -2.8162  2.5073 -0.1708
27688SOL    HW285072   7.001   1.111   7.241 -0.1242 -0.2932 -0.3321
27689SOL     OW85073   1.505   1.456   3.669  0.0811  0.0376 -0.6161
27689SOL    HW185074   1.471   1.543   3.649 -0.2458 -0.4009 -2.0453
27689SOL    HW285075   1.440   1.395   3.633  0.6930 -0.8004 -0.3356
27690SOL     OW85076   4.782   3.814   1.836 -0.4285 -0.6528 -0.1763
27690SOL    HW185077   4.787   3.721   1.818 -1.1933 -0.9850  1.1472
27690SOL    HW285078   4.813   3.823   1.926 -2.0890  0.0752  0.3797
27691SOL     OW85079   7.890   7.301   2.051  0.1925  0.3215  0.1005
27691SOL    HW185080   7.877   7.231   1.987  2.0706  0.3589 -0.3633
27691SOL    HW285081   7.972   7.279   2.095 -1.0712  0.2549  2.6030
27692SOL     OW85082   6.995   3.505  10.329  0.1555  0.0801  0.2408
27692SOL    HW185083   7.031   3.416  10.330 -0.8790 -0.3506 -0.0124
27692SOL    HW285084   6.919   3.502  10.386  0.1930  0.8437  0.3434
27693SOL     OW85085   1.512   3.620   5.004 -0.1563 -0.5388  0.4057
27693SOL    HW185086   1.516   3.526   4.986  2.6529 -0.9467  2.4589
27693SOL    HW285087   1.577   3.659   4.945  1.1420 -0.4130  1.8515
27694SOL     OW85088   6.610   3.319   9.607  0.1564  0.2330  0.5490
27694SOL    HW185089   6.660   3.379   9.661  0.0082  2.1925 -1.3681
27694SOL    HW285090   6.566   3.374   9.543  0.5380 -1.9422 -1.7564
27695SOL     OW85091  10.869   8.479   1.641  0.3408  0.3325 -0.4014
27695SOL    HW185092  10.890   8.553   1.698 -2.1850  1.1537 -0.4416
27695SOL    HW285093  10.892   8.508   1.553 -1.0186  1.2953 -0.4739
27696SOL     OW85094  10.203   3.627   9.086 -0.1707  0.1617 -0.0312
27696SOL    HW185095  10.211   3.566   9.012 -0.1639  0.6808 -0.4695
27696SOL    HW285096  10.278   3.686   9.075 -0.0194  0.0790  0.5504
27697SOL     OW85097   4.803   9.077   7.747  0.0848  0.2933 -0.0147
27697SOL    HW185098   4.893   9.102   7.729  0.8627 -2.5110 -0.5249
27697SOL    HW285099   4.797   9.074   7.842 -0.2084  2.6509  0.0996
27698SOL     OW85100   4.425   1.959   5.625  0.2188 -0.3765  0.5137
27698SOL    HW185101   4.452   2.007   5.546 -1.0658 -0.1614  0.1930
27698SOL    HW285102   4.330   1.970   5.628  0.1316 -1.3516  1.4715
27699SOL     OW85103   3.539   3.107   3.355 -0.1914  0.0108  0.1042
27699SOL    HW185104   3.576   3.173   3.296 -1.3339  0.3530 -0.2684
27699SOL    HW285105   3.566   3.135   3.442  2.4820 -1.1230 -0.2639
27700SOL     OW85106   0.209   6.699  10.707  0.4151 -0.2599 -0.4751
27700SOL    HW185107   0.191   6.611  10.672  0.0169 -0.3657 -0.0051
27700SOL    HW285108   0.191   6.692  10.800  0.2613  0.3572 -0.4565
27701SOL     OW85109   0.663   4.861   4.013 -0.2243 -0.1190 -0.5637
27701SOL    HW185110   0.643   4.899   3.927 -1.1715 -0.9985 -0.7556
27701SOL    HW285111   0.755   4.835   4.007  0.0373  0.8440 -0.9120
27702SOL     OW85112   5.578   8.620   5.455  0.0374 -0.4581 -0.0570
27702SOL    HW185113   5.650   8.581   5.405 -0.1167 -1.1149  0.2290
27702SOL    HW285114   5.622   8.670   5.524  0.2756  1.0611 -1.2578
27703SOL     OW85115   1.064   8.428   7.104 -0.3960  0.2880  0.2099
27703SOL    HW185116   1.073   8.507   7.050  0.1581  0.4689  0.5599
27703SOL    HW285117   1.148   8.419   7.148 -0.1767 -0.9825 -0.4573
27704SOL     OW85118   8.880   5.231   6.623 -0.0331 -0.6169  0.6711
27704SOL    HW185119   8.952   5.266   6.676 -0.4976  0.6536  0.4890
27704SOL    HW285120   8.917   5.223   6.535 -0.2382  0.5011  0.4709
27705SOL     OW85121   8.416   8.852   7.617  0.3888  0.0588 -0.1215
27705SOL    HW185122   8.340   8.891   7.575 -1.1159 -1.2359  1.2667
27705SOL    HW285123   8.393   8.760   7.629  1.9237 -0.2374  0.8641
27706SOL     OW85124   6.036   0.983   5.489 -0.0440  0.5334 -0.5300
27706SOL    HW185125   6.004   0.984   5.579 -0.3069 -0.7216 -0.6009
27706SOL    HW285126   5.977   1.042   5.442 -0.1564  0.8726  0.0298
27707SOL     OW85127   4.680  10.016   4.498 -0.3196  0.2935 -0.3488
27707SOL    HW185128   4.711   9.987   4.584  0.3230 -0.9260 -0.9693
27707SOL    HW285129   4.589  10.044   4.514  0.2642  1.5428  1.0049
27708SOL     OW85130   2.105   3.897   7.639  0.0953 -0.1930 -1.2321
27708SOL    HW185131   2.094   3.870   7.730  1.5447  1.3636 -0.5415
27708SOL    HW285132   2.147   3.822   7.596  2.9869  0.3595  0.3534
27709SOL     OW85133   1.381   5.151   4.116 -0.2403  0.1301 -0.4759
27709SOL    HW185134   1.433   5.131   4.038  0.7108  0.0104  0.1629
27709SOL    HW285135   1.443   5.197   4.174 -0.7622 -0.2815  0.4269
27710SOL     OW85136  10.792   8.195   7.661 -0.6230  0.0071 -0.1169
27710SOL    HW185137  10.792   8.162   7.751 -0.0030 -1.4423 -0.6079
27710SOL    HW285138  10.878   8.171   7.627 -1.1064 -0.1059 -1.3060
27711SOL     OW85139   3.942   1.726   0.480 -0.0027 -0.2711 -0.1333
27711SOL    HW185140   3.921   1.690   0.394 -2.6066 -1.0092  0.7167
27711SOL    HW285141   3.870   1.787   0.498  1.4926  1.3097  0.7572
27712SOL     OW85142   6.075   6.750   3.730  0.4758 -0.1902  0.6831
27712SOL    HW185143   6.146   6.689   3.748  1.3494  0.0866 -1.5144
27712SOL    HW285144   5.997   6.708   3.765  1.2087 -2.1002  0.1084
27713SOL     OW85145   2.160   2.628  10.506  0.6096 -0.0995  0.2403
27713SOL    HW185146   2.152   2.536  10.479 -1.6437 -0.2738  1.2353
27713SOL    HW285147   2.070   2.654  10.526  1.5462  1.3875  2.9958
27714SOL     OW85148  10.185   5.300   1.663  0.2408 -0.6283  0.3746
27714SOL    HW185149  10.223   5.293   1.750  1.6490 -1.0165 -0.2416
27714SOL    HW285150  10.163   5.210   1.639 -0.0338 -0.5384  0.2888
27715SOL     OW85151   8.356   3.681   7.876 -0.4188 -0.0108  0.1578
27715SOL    HW185152   8.288   3.687   7.943 -1.6460 -0.1676 -1.0444
27715SOL    HW285153   8.313   3.707   7.795 -0.0321 -3.3347 -1.2640
27716SOL     OW85154  10.792   3.967   4.637  0.3436  0.8380  0.0246
27716SOL    HW185155  10.833   4.029   4.576 -0.0875  1.8320  0.7098
27716SOL    HW285156  10.724   3.924   4.585 -0.4181  2.0974 -0.0783
27717SOL     OW85157   3.812   4.223   7.735 -0.6689  0.4639 -0.0915
27717SOL    HW185158   3.735   4.269   7.704 -2.4805 -1.2251  1.6273
27717SOL    HW285159   3.860   4.289   7.786 -0.5174  1.7287 -1.7875
27718SOL     OW85160   9.272   6.470   1.743  0.1203 -0.8882  0.1643
27718SOL    HW185161   9.263   6.417   1.663 -0.1729 -1.8089  0.7931
27718SOL    HW285162   9.211   6.543   1.730  0.2025 -0.9344 -0.5253
27719SOL     OW85163   2.088   0.978   8.333  0.2335 -0.2901 -0.4655
27719SOL    HW185164   2.029   1.012   8.266  0.5893 -0.5282 -0.9057
27719SOL    HW285165   2.044   0.997   8.416 -1.1371 -1.7114 -0.8176
27720SOL     OW85166   9.796   9.453   4.922  0.6352  0.4593  0.4737
27720SOL    HW185167   9.771   9.492   4.838 -0.5764 -0.5989  0.3021
27720SOL    HW285168   9.763   9.363   4.917 -0.7734  0.7872  2.6439
27721SOL     OW85169   6.630   7.377   5.061  0.0214  0.1168 -0.4205
27721SOL    HW185170   6.657   7.317   5.131 -0.9656 -0.6576 -0.6927
27721SOL    HW285171   6.589   7.450   5.106 -0.5346 -0.3415 -0.1740
27722SOL     OW85172   7.165  10.255   3.189  0.2456  0.0376  0.1244
27722SOL    HW185173   7.152  10.161   3.175 -0.7604  0.0138  1.0718
27722SOL    HW285174   7.195  10.261   3.279 -0.9990  0.7154  0.5067
27723SOL     OW85175   1.273   3.910   0.833 -0.9095 -0.6284 -0.1167
27723SOL    HW185176   1.351   3.870   0.872 -0.8830 -2.5309 -1.9503
27723SOL    HW285177   1.230   3.837   0.788 -1.7482  1.1140 -2.2642
27724SOL     OW85178   0.681   5.929   3.738 -0.6927 -0.3718  0.0822
27724SOL    HW185179   0.654   6.016   3.710 -1.5723 -0.5636  0.3149
27724SOL    HW285180   0.759   5.910   3.686 -0.4890  0.5487  0.0296
27725SOL     OW85181   6.432   8.677   4.720 -0.3785  0.5729 -0.0060
27725SOL    HW185182   6.447   8.583   4.709  1.3284  0.7851  0.2016
27725SOL    HW285183   6.344   8.683   4.756  0.3401 -1.1110  2.2808
27726SOL     OW85184  10.019   1.030   8.366  0.6975  0.0589 -0.4307
27726SOL    HW185185  10.062   1.035   8.280 -0.1990  0.5991 -0.8677
27726SOL    HW285186   9.926   1.042   8.346  0.3965 -0.6248  0.5409
27727SOL     OW85187   9.110   8.621   5.747 -0.3315  0.1381 -0.0611
27727SOL    HW185188   9.093   8.603   5.655  1.8028  0.0121 -0.4843
27727SOL    HW285189   9.187   8.568   5.768 -0.8976 -0.0141  1.8821
27728SOL     OW85190   0.053   3.334   1.319 -0.1972 -0.7931  0.0728
27728SOL    HW185191   0.058   3.421   1.360  0.4758  0.0110 -1.6158
27728SOL    HW285192   0.116   3.281   1.368  0.6511  0.1575  0.0404
27729SOL     OW85193  10.806   8.060   6.524  0.9704 -0.4973  0.3446
27729SOL    HW185194  10.805   8.051   6.619  1.1357 -0.0627  0.3899
27729SOL    HW285195  10.750   8.137   6.507  1.6063 -0.0708  0.1520
27730SOL     OW85196   6.835  10.540   0.296 -0.6701  0.0213  0.3026
27730SOL    HW185197   6.872  10.611   0.349 -0.4301 -0.3750  0.6735
27730SOL    HW285198   6.774  10.495   0.355 -0.0218 -0.7349  0.4118
27731SOL     OW85199   1.139   6.054   1.816 -0.0300  0.2594  0.2793
27731SOL    HW185200   1.170   6.026   1.730  0.4101 -0.1395  0.5671
27731SOL    HW285201   1.186   6.136   1.833  0.8667 -0.3221  0.6969
27732SOL     OW85202   4.852   2.392   4.464  0.3898 -0.2834  0.1295
27732SOL    HW185203   4.796   2.432   4.530  0.6421  0.2289  0.0395
27732SOL    HW285204   4.912   2.462   4.438 -0.2378 -0.2339 -1.2499
27733SOL     OW85205   3.967   2.646   5.574 -0.0492 -0.8283  0.2470
27733SOL    HW185206   3.971   2.741   5.559  0.0024 -1.1081 -1.7699
27733SOL    HW285207   3.938   2.638   5.665 -1.3328  1.1304  0.0858
27734SOL     OW85208   7.355   8.695   1.220 -0.1614 -0.4000 -0.5173
27734SOL    HW185209   7.307   8.624   1.264 -0.7759 -0.0192 -0.5527
27734SOL    HW285210   7.301   8.773   1.236  1.1797  0.3257  0.6590
27735SOL     OW85211  10.135   5.757   1.910 -0.3796 -0.6619  0.0028
27735SOL    HW185212  10.102   5.707   1.836  1.2007 -0.1712 -1.0842
27735SOL    HW285213  10.085   5.838   1.910  1.0456  0.2918 -1.9249
27736SOL     OW85214   4.359   5.439   3.090 -0.4385 -0.2220  0.2321
27736SOL    HW185215   4.452   5.423   3.079 -0.4402 -1.0394  1.2229
27736SOL    HW285216   4.324   5.355   3.120 -1.4286  0.1735  0.2222
27737SOL     OW85217   2.268   5.983   3.636  0.3006 -0.0437  0.2876
27737SOL    HW185218   2.259   5.915   3.702  0.1252  1.4853  1.8930
27737SOL    HW285219   2.298   6.060   3.683 -1.8391  1.7077 -0.9944
27738SOL     OW85220   7.964   2.946   6.315 -0.6794  0.1951 -0.5551
27738SOL    HW185221   8.052   2.956   6.351 -0.6527  0.4809 -0.6953
27738SOL    HW285222   7.969   2.983   6.227 -0.6991 -0.6663 -0.9257
27739SOL     OW85223   4.982   0.688   2.579 -0.3494 -0.3732 -0.1791
27739SOL    HW185224   5.009   0.737   2.501 -0.9250 -2.5599 -1.8424
27739SOL    HW285225   4.908   0.736   2.614  1.5446  2.1375  0.6790
27740SOL     OW85226   4.781   4.174   6.289  0.2783  0.0040 -0.3703
27740SOL    HW185227   4.716   4.226   6.241  0.4345 -0.8249 -1.5381
27740SOL    HW285228   4.794   4.221   6.371  0.4726  1.8528 -1.3955
27741SOL     OW85229   4.829   3.473   6.055 -0.0730 -0.5167 -0.4210
27741SOL    HW185230   4.914   3.453   6.094  1.4013  3.1160 -1.3704
27741SOL    HW285231   4.812   3.401   5.995  1.9158 -1.7366  0.3903
27742SOL     OW85232   5.569   9.012   3.429  0.1745 -0.0977  0.7411
27742SOL    HW185233   5.515   8.936   3.406  1.2595 -1.0359  1.2125
27742SOL    HW285234   5.509   9.086   3.425 -1.1364 -1.1000  1.1895
27743SOL     OW85235   1.263   5.866   3.570  0.0910  0.4289 -0.0606
27743SOL    HW185236   1.189   5.868   3.509 -0.0531  1.2774  0.1302
27743SOL    HW285237   1.283   5.958   3.587  1.4330  0.2194 -0.3848
27744SOL     OW85238   0.444   6.065   6.226 -0.2152  0.0414  0.4333
27744SOL    HW185239   0.412   6.070   6.316  1.9924 -0.6894  1.3197
27744SOL    HW285240   0.366   6.082   6.173 -1.5076  0.9241  2.4523
27745SOL     OW85241   0.987   6.555   9.588 -0.0227  0.2858 -0.6679
27745SOL    HW185242   0.895   6.527   9.584  0.4556 -1.2981 -2.2096
27745SOL    HW285243   0.998   6.610   9.510  0.4721 -0.0355 -0.8305
27746SOL     OW85244   9.783   6.133   5.983  0.1435  0.2856 -0.0322
27746SOL    HW185245   9.825   6.109   6.065 -2.2711  0.1821  1.2383
27746SOL    HW285246   9.759   6.049   5.943 -1.6649  0.3698  0.8151
27747SOL     OW85247   3.533   2.370  10.989  0.3644  0.5508 -0.1117
27747SOL    HW185248   3.511   2.449  10.939  2.9034  0.3407 -1.7711
27747SOL    HW285249   3.617   2.390  11.029  0.5001 -0.9076  0.3911
27748SOL     OW85250   2.085   8.175   2.555 -0.4605 -0.0069 -0.4414
27748SOL    HW185251   2.040   8.121   2.620  1.2758 -0.3869  0.5164
27748SOL    HW285252   2.091   8.261   2.597  0.0959 -0.0803 -0.3720
27749SOL     OW85253   0.713   3.763   1.991  0.5137 -0.6937  0.1725
27749SOL    HW185254   0.743   3.827   1.926  0.7412 -1.7965 -0.8509
27749SOL    HW285255   0.628   3.734   1.959 -0.4168  0.3713  1.5862
27750SOL     OW85256   0.333   5.449   5.898  0.0528  0.2372  0.0089
27750SOL    HW185257   0.316   5.471   5.989 -0.2517 -1.6583  0.4650
27750SOL    HW285258   0.373   5.527   5.861  0.1324  1.0664  1.7554
27751SOL     OW85259   2.381   3.899   7.987  0.1964  0.3047 -0.7770
27751SOL    HW185260   2.471   3.871   7.971 -0.0555 -0.4767 -0.9114
27751SOL    HW285261   2.330   3.818   7.982 -0.4529  0.6677 -0.2294
27752SOL     OW85262   3.588   6.667   1.255  0.2732  0.8079 -0.4380
27752SOL    HW185263   3.605   6.699   1.344 -0.5381 -1.0636  0.4308
27752SOL    HW285264   3.670   6.627   1.228  0.1465  0.2686 -0.0309
27753SOL     OW85265   6.049   4.676   4.985 -0.0213 -0.4426  0.0817
27753SOL    HW185266   6.050   4.661   5.079 -1.4630 -0.1381  0.1708
27753SOL    HW285267   6.041   4.589   4.946 -0.9915 -0.4712  0.3164
27754SOL     OW85268  10.752   0.550   4.675 -0.3673  0.1134 -0.2206
27754SOL    HW185269  10.772   0.607   4.748 -0.5982  0.5686 -0.5121
27754SOL    HW285270  10.741   0.463   4.714  3.2464 -0.4554 -0.1178
27755SOL     OW85271   5.643   3.359   5.319 -0.0178 -0.2865 -0.2198
27755SOL    HW185272   5.719   3.375   5.264 -0.0009 -0.2618 -0.1891
27755SOL    HW285273   5.611   3.447   5.343 -0.1659 -0.2953 -0.3838
27756SOL     OW85274   5.337   7.920   8.760 -0.2900 -0.1573 -0.0595
27756SOL    HW185275   5.338   8.001   8.709  0.2105  1.3741  2.2239
27756SOL    HW285276   5.427   7.888   8.755  0.6450  1.7324  2.2781
27757SOL     OW85277   6.704   1.830   8.599 -0.0546  0.2946 -0.0245
27757SOL    HW185278   6.628   1.794   8.553  0.1284 -1.7600  1.1838
27757SOL    HW285279   6.777   1.818   8.537 -0.3099  0.2244 -0.3155
27758SOL     OW85280   4.477   0.221   8.905  0.1178  0.5116  0.3690
27758SOL    HW185281   4.443   0.132   8.899  0.2666  0.4789  0.0225
27758SOL    HW285282   4.547   0.225   8.840 -1.9304  1.7929 -1.9394
27759SOL     OW85283   8.505  10.266   9.400 -0.2444  0.6122 -0.6269
27759SOL    HW185284   8.455  10.345   9.417  0.2398  0.5077  1.7455
27759SOL    HW285285   8.443  10.195   9.414  0.2447  0.5121  1.3682
27760SOL     OW85286  10.646   1.227  10.772 -0.1465  0.0548 -0.1536
27760SOL    HW185287  10.657   1.273  10.689 -0.1137  0.2068 -0.0657
27760SOL    HW285288  10.610   1.293  10.832 -0.1449 -0.0468 -0.0394
27761SOL     OW85289   6.527   8.957   3.984 -0.1618 -0.0454  0.6964
27761SOL    HW185290   6.530   8.932   4.076 -0.2593 -3.1952 -0.0429
27761SOL    HW285291   6.616   8.940   3.952 -0.2682  0.4982  0.0961
27762SOL     OW85292   9.440   9.695   0.027  0.7853 -0.4536 -0.6140
27762SOL    HW185293   9.383   9.632  -0.017  1.0613  0.5294 -2.4503
27762SOL    HW285294   9.516   9.704  -0.030  1.6297  0.1714  0.5455
27763SOL     OW85295   6.244  10.112   0.998 -0.2157 -0.4001  0.0844
27763SOL    HW185296   6.296  10.037   1.026  1.3684  0.7740  0.4191
27763SOL    HW285297   6.255  10.177   1.069 -0.9764  0.3991 -0.5096
27764SOL     OW85298   8.857   6.809   1.742  0.1675  0.3878  0.1877
27764SOL    HW185299   8.895   6.742   1.799 -0.5953  0.1844  0.4559
27764SOL    HW285300   8.933   6.846   1.697  0.7302  0.2080  0.9564
27765SOL     OW85301   3.781   1.416   0.468 -0.6181 -0.2117 -0.4739
27765SOL    HW185302   3.722   1.432   0.394 -0.7603 -0.0602 -0.3296
27765SOL    HW285303   3.788   1.321   0.474 -1.4004 -0.2474 -0.0568
27766SOL     OW85304   1.452   5.077   4.774 -0.0890 -0.6198  0.1914
27766SOL    HW185305   1.418   4.988   4.772  1.0242 -1.0945  0.9339
27766SOL    HW285306   1.522   5.077   4.708 -0.9882  0.1250 -0.7975
27767SOL     OW85307   0.033   4.088   4.670 -0.4371  0.1368  0.1639
27767SOL    HW185308  -0.041   4.060   4.723  0.9068 -0.8137  1.6234
27767SOL    HW285309   0.010   4.063   4.581 -0.8051 -2.5491  0.9314
27768SOL     OW85310   3.891   3.578   1.407 -0.4477  0.2893  0.0557
27768SOL    HW185311   3.836   3.510   1.366 -1.9458  1.1997  0.4710
27768SOL    HW285312   3.893   3.649   1.342 -1.8070  1.2340  0.9861
27769SOL     OW85313   3.407   5.728   5.262 -0.0938 -0.2173  0.1494
27769SOL    HW185314   3.357   5.699   5.186 -1.6554  2.1878  0.1421
27769SOL    HW285315   3.358   5.696   5.338 -0.1162 -0.1955  0.1439
27770SOL     OW85316   1.644   0.012   9.957 -0.0279  0.5679 -0.7395
27770SOL    HW185317   1.731   0.026   9.994  0.7043  0.6696 -2.3903
27770SOL    HW285318   1.597  -0.039  10.023  0.9225  1.4056  0.6382
27771SOL     OW85319  10.382   5.482  11.031 -0.3549 -0.3693  0.0219
27771SOL    HW185320  10.414   5.537  11.102 -1.4284  0.7642 -0.3461
27771SOL    HW285321  10.287   5.486  11.037 -0.4592 -1.2436 -0.7469
27772SOL     OW85322   6.399   0.569   4.517 -0.1516  0.2192  0.2907
27772SOL    HW185323   6.447   0.644   4.482  0.1474 -0.0053  0.2157
27772SOL    HW285324   6.464   0.498   4.521 -0.4793 -0.0928  0.1715
27773SOL     OW85325   9.244   5.888   9.160  0.5308 -0.6662  0.1739
27773SOL    HW185326   9.315   5.827   9.142 -0.5457 -1.2988 -2.4285
27773SOL    HW285327   9.178   5.837   9.207  1.5878 -0.1462  2.3507
27774SOL     OW85328  10.616   7.614   0.466  0.1495 -0.2917 -0.4846
27774SOL    HW185329  10.652   7.595   0.552 -0.4753  1.7913  0.2826
27774SOL    HW285330  10.689   7.654   0.418 -0.1137  0.5751 -0.1675
27775SOL     OW85331  10.034   2.660   7.038 -0.5654 -0.6112  0.1071
27775SOL    HW185332  10.105   2.692   7.094 -0.4527  0.2105 -0.4777
27775SOL    HW285333   9.968   2.626   7.099 -0.8598  1.1149  0.8244
27776SOL     OW85334   3.006   5.358   6.269 -0.1693 -0.2812  0.1075
27776SOL    HW185335   3.083   5.320   6.310  0.5339  0.3078 -0.6088
27776SOL    HW285336   2.997   5.311   6.186 -1.6598 -1.5660  0.9514
27777SOL     OW85337   2.911   2.808   5.602  0.1289 -0.7422 -0.0907
27777SOL    HW185338   2.827   2.826   5.560 -0.2939 -1.0197  0.6107
27777SOL    HW285339   2.888   2.759   5.681  0.8052  0.6020  0.9855
27778SOL     OW85340   0.630   3.305  10.811  0.7672  0.2043  0.3212
27778SOL    HW185341   0.554   3.296  10.870 -0.3313 -1.3071 -1.2223
27778SOL    HW285342   0.638   3.399  10.798 -1.4074  0.4027 -0.1049
27779SOL     OW85343   4.193   4.772   0.352  0.1746  0.2557 -0.1141
27779SOL    HW185344   4.273   4.799   0.396  0.3480  0.4440 -0.5361
27779SOL    HW285345   4.172   4.686   0.389  0.5558  0.2186  0.0161
27780SOL     OW85346   0.723   6.442   9.619  0.3400  0.4847  0.4233
27780SOL    HW185347   0.698   6.492   9.697  0.4302  0.1117  0.6968
27780SOL    HW285348   0.651   6.454   9.558  0.1673  0.6022  0.6490
27781SOL     OW85349   5.695   4.014   5.436  0.0006  0.6966  0.2173
27781SOL    HW185350   5.668   4.105   5.447  0.0024  0.6792  0.3630
27781SOL    HW285351   5.788   4.013   5.461  0.6600  1.1164 -1.9692
27782SOL     OW85352   4.132   4.764   9.259  0.1321 -0.1929 -0.8966
27782SOL    HW185353   4.195   4.719   9.203 -0.4815 -0.4694 -1.3781
27782SOL    HW285354   4.118   4.849   9.217  0.2728 -0.0875 -0.7290
27783SOL     OW85355   5.683   4.124   8.327 -0.1207 -0.3077 -0.1197
27783SOL    HW185356   5.616   4.139   8.394  1.7175 -0.8013  1.9532
27783SOL    HW285357   5.638   4.076   8.258 -2.8746  2.7830 -0.7517
27784SOL     OW85358  10.799   1.824  10.049 -0.2679 -0.0056 -0.2382
27784SOL    HW185359  10.867   1.792   9.990  0.0447 -0.4800  0.3711
27784SOL    HW285360  10.737   1.751  10.057  1.6982 -1.5303  3.0947
27785SOL     OW85361   2.622   0.041   8.896 -0.2037  0.2769  0.1624
27785SOL    HW185362   2.551   0.036   8.961  1.4134 -0.1493  2.0020
27785SOL    HW285363   2.666  -0.044   8.903  2.3391  1.5886  1.3681
27786SOL     OW85364   3.669   7.969   9.622  0.7597 -0.5067 -0.1906
27786SOL    HW185365   3.718   7.911   9.680  0.6727  0.6451  1.0816
27786SOL    HW285366   3.639   8.041   9.679  0.9829  0.8546 -1.7170
27787SOL     OW85367   7.974   4.580   8.054  0.5346 -0.6800 -0.0070
27787SOL    HW185368   8.037   4.513   8.083  3.2780  1.9230  0.5776
27787SOL    HW285369   8.026   4.639   8.000 -2.0298  0.4223 -1.4209
27788SOL     OW85370   9.343   3.699  10.658 -0.1639  0.6441 -0.4533
27788SOL    HW185371   9.351   3.751  10.578 -0.7250  1.4233 -0.0191
27788SOL    HW285372   9.248   3.685  10.668 -0.0625  0.0691 -0.2181
27789SOL     OW85373   4.467   9.900   3.458 -0.1401 -0.1363  0.3453
27789SOL    HW185374   4.427   9.983   3.482 -0.4347 -0.3086  0.4577
27789SOL    HW285375   4.552   9.924   3.421 -0.7341  0.3072 -0.7740
27790SOL     OW85376  10.718   5.448   4.807 -0.2351 -0.0065  0.3500
27790SOL    HW185377  10.792   5.466   4.865 -0.8395 -1.0577  1.4921
27790SOL    HW285378  10.736   5.361   4.771 -0.2179  0.3405 -0.5164
27791SOL     OW85379   2.983   3.934   1.824 -0.6438 -0.0849  0.7101
27791SOL    HW185380   2.991   3.858   1.882 -0.5360 -0.0404  0.7551
27791SOL    HW285381   3.024   4.005   1.873 -0.6207 -0.0296  0.6105
27792SOL     OW85382   9.893   9.812   7.411 -0.6720  0.3916 -0.0293
27792SOL    HW185383   9.977   9.766   7.410 -0.2214  1.2071 -0.6837
27792SOL    HW285384   9.888   9.850   7.499 -1.1231 -1.0023  0.5770
27793SOL     OW85385   5.201   5.494   2.220 -0.3043  0.3776  0.3635
27793SOL    HW185386   5.284   5.539   2.202  0.3812 -1.2201 -0.7344
27793SOL    HW285387   5.222   5.401   2.211 -2.4753 -0.0324 -1.2756
27794SOL     OW85388   9.939   7.113   4.176 -0.2667 -0.7074  0.4673
27794SOL    HW185389   9.883   7.165   4.119  0.8000 -0.9132 -0.8036
27794SOL    HW285390  10.012   7.171   4.198 -0.6672 -0.6243  1.6674
27795SOL     OW85391   3.424   5.799   6.667 -0.2239 -0.1313  0.1222
27795SOL    HW185392   3.430   5.854   6.746 -0.3754 -0.6982  0.5360
27795SOL    HW285393   3.511   5.761   6.658 -0.0448  0.3694 -0.3129
27796SOL     OW85394   8.900   4.642   2.938  0.0800 -0.1771  0.5523
27796SOL    HW185395   8.825   4.625   2.881 -0.4749 -0.1796  1.2637
27796SOL    HW285396   8.968   4.676   2.879 -0.3369 -0.5587 -0.1654
27797SOL     OW85397   0.348   0.437   4.719  0.3910 -0.3900  0.3105
27797SOL    HW185398   0.306   0.412   4.801  0.8121 -0.6416  0.4469
27797SOL    HW285399   0.342   0.359   4.664 -0.4298 -0.0388 -0.1232
27798SOL     OW85400   0.857   2.327   4.279 -0.4775  0.1866  0.5406
27798SOL    HW185401   0.762   2.324   4.287 -0.6520 -0.2332 -1.1540
27798SOL    HW285402   0.878   2.420   4.276 -0.9503  0.2847  0.0524
27799SOL     OW85403  10.610   4.190   8.306  0.5468 -0.2443  0.2626
27799SOL    HW185404  10.633   4.237   8.385 -1.7973  1.2098  0.1662
27799SOL    HW285405  10.692   4.148   8.278  1.7761  0.4894  2.5425
27800SOL     OW85406   7.045   7.774   6.326  0.4158  0.1619 -0.6037
27800SOL    HW185407   6.982   7.705   6.344  0.6550 -0.1092 -0.7979
27800SOL    HW285408   6.999   7.833   6.266 -0.6339  1.4427  1.3560
27801SOL     OW85409   6.491   9.051   3.599 -0.0272 -0.3854 -0.0896
27801SOL    HW185410   6.459   9.091   3.518 -0.7746 -1.6749 -0.4631
27801SOL    HW285411   6.470   9.115   3.667  0.7993  0.8113 -0.9195
27802SOL     OW85412   5.153   9.911   2.964 -0.1172 -0.2857  0.2899
27802SOL    HW185413   5.188   9.941   2.880  0.1329  0.5688  0.6890
27802SOL    HW285414   5.118   9.990   3.005  2.5862  0.0075  2.3737
27803SOL     OW85415   4.803   4.925   6.419  0.1940  0.9918 -0.1749
27803SOL    HW185416   4.881   4.964   6.380  0.5278 -1.5704 -2.3257
27803SOL    HW285417   4.777   4.856   6.358 -1.9997 -0.2561  1.9806
27804SOL     OW85418   1.497   4.188  10.683 -0.2271 -0.0804  0.0049
27804SOL    HW185419   1.492   4.094  10.701 -2.9391  0.5337  3.3734
27804SOL    HW285420   1.437   4.202  10.609  0.1342 -0.9607 -0.4635
27805SOL     OW85421   1.717   5.673   4.327  0.5672 -0.6169  0.6979
27805SOL    HW185422   1.774   5.624   4.268  0.9172 -0.5640  0.9953
27805SOL    HW285423   1.755   5.661   4.414 -0.1856 -1.0506  0.9825
27806SOL     OW85424  10.175   1.747   4.289  0.6060 -0.0257  0.2167
27806SOL    HW185425  10.102   1.690   4.314  1.1942 -0.5415  0.7745
27806SOL    HW285426  10.182   1.737   4.194  0.9405 -1.1861  0.3514
27807SOL     OW85427   2.785   6.230   0.885  0.3045 -0.2106 -0.4135
27807SOL    HW185428   2.825   6.278   0.957 -0.5492 -0.4899  0.2598
27807SOL    HW285429   2.759   6.297   0.822  0.0849  0.1221  0.0321
27808SOL     OW85430   4.970   9.252  10.224 -0.3286  0.0922  0.5040
27808SOL    HW185431   4.898   9.204  10.182  0.5200  0.8106 -1.9100
27808SOL    HW285432   4.969   9.221  10.315 -1.5662 -2.3706 -0.2631
27809SOL     OW85433   6.911   8.262   9.960 -0.2917  0.0145  0.5211
27809SOL    HW185434   6.905   8.304   9.874 -0.0886 -0.2469  0.3752
27809SOL    HW285435   6.863   8.180   9.949  1.7688 -1.1883 -0.0957
27810SOL     OW85436   2.690   8.806   3.177 -0.5195 -0.1871  0.2005
27810SOL    HW185437   2.770   8.754   3.180 -0.1982  0.0780 -2.0181
27810SOL    HW285438   2.625   8.747   3.139 -0.8726  0.1851  0.2208
27811SOL     OW85439  10.698   8.400   0.833  0.3855 -0.7152  0.7190
27811SOL    HW185440  10.624   8.440   0.877  0.7054  0.2848  0.3690
27811SOL    HW285441  10.760   8.378   0.903  1.9093  2.9101  0.7470
27812SOL     OW85442   8.489   2.230   3.282  0.4748 -0.9732  0.2055
27812SOL    HW185443   8.490   2.192   3.369 -2.6458  1.0887  1.3483
27812SOL    HW285444   8.494   2.325   3.297 -2.4515 -0.3884 -1.5187
27813SOL     OW85445   1.979   0.025   7.735 -0.1598 -0.2154 -0.5807
27813SOL    HW185446   1.995   0.119   7.730  1.5829 -0.4431 -0.1807
27813SOL    HW285447   1.955   0.010   7.826  1.3971 -0.3576 -0.1598
27814SOL     OW85448   1.332   9.039   3.913  0.9986 -0.3604 -0.5592
27814SOL    HW185449   1.249   8.991   3.921 -0.0373  1.5173  1.0490
27814SOL    HW285450   1.357   9.057   4.003  1.5017  1.7610 -1.0700
27815SOL     OW85451   7.600   6.390   1.944 -0.2997 -0.4908  0.0282
27815SOL    HW185452   7.670   6.331   1.917  0.2250 -1.0372  2.3483
27815SOL    HW285453   7.636   6.477   1.933  0.0146 -0.7006 -0.6284
27816SOL     OW85454   6.015   2.801   7.636 -0.0771  0.0128 -0.5767
27816SOL    HW185455   5.989   2.786   7.546 -0.8744  0.1767 -0.3869
27816SOL    HW285456   5.950   2.864   7.670 -0.1202 -0.4633  0.2629
27817SOL     OW85457   7.787   0.920   8.240 -0.1062 -0.8581  0.4396
27817SOL    HW185458   7.861   0.918   8.302 -0.7728  0.5887  1.3517
27817SOL    HW285459   7.786   1.011   8.208 -0.5814 -1.2571 -0.7230
27818SOL     OW85460   2.058   1.254   5.130  0.5029  0.3052 -0.6792
27818SOL    HW185461   2.034   1.193   5.061 -1.0441 -0.1740  0.2222
27818SOL    HW285462   2.099   1.199   5.198 -1.1006  0.1775  0.2342
27819SOL     OW85463  10.084   2.811   7.403  0.0621 -0.3751 -0.1061
27819SOL    HW185464  10.048   2.789   7.490  0.6444 -0.5104  0.1023
27819SOL    HW285465  10.166   2.762   7.398 -0.2320 -0.7945 -0.9573
27820SOL     OW85466   1.351   1.963   3.336  0.1929  0.3394 -0.4036
27820SOL    HW185467   1.308   1.897   3.281 -1.1638  1.9568 -1.3562
27820SOL    HW285468   1.289   1.980   3.406 -0.7834  2.6361 -1.7411
27821SOL     OW85469   0.220   5.520   4.928  0.0972  0.6151 -0.4200
27821SOL    HW185470   0.259   5.500   5.013 -0.2241  1.2186 -0.1191
27821SOL    HW285471   0.282   5.486   4.864  0.1726 -0.1653  0.0517
27822SOL     OW85472   2.855   9.385   6.446 -0.0992  0.1590  0.6068
27822SOL    HW185473   2.850   9.295   6.479  0.5715  0.4995  1.7032
27822SOL    HW285474   2.839   9.439   6.523  1.0053  0.9968  0.2759
27823SOL     OW85475   5.772   6.669   9.797 -0.7069 -0.6815  0.1582
27823SOL    HW185476   5.724   6.589   9.820 -2.6990  0.2489 -0.5396
27823SOL    HW285477   5.834   6.641   9.730 -0.3552 -1.8968  0.9520
27824SOL     OW85478   5.191   7.611   3.978 -0.1399  0.2409  0.0305
27824SOL    HW185479   5.171   7.592   4.070 -0.2430 -0.4046 -0.1160
27824SOL    HW285480   5.136   7.550   3.929  0.3721  0.1457 -0.4416
27825SOL     OW85481   5.658   4.855   1.164  0.7471 -0.0479 -0.1279
27825SOL    HW185482   5.676   4.866   1.071 -0.4610 -1.4206 -0.5619
27825SOL    HW285483   5.563   4.869   1.172  0.8966  0.4606  0.9706
27826SOL     OW85484   3.038   7.736   9.337 -0.0508  0.2583  0.4742
27826SOL    HW185485   2.959   7.714   9.386  0.3707  0.8743  1.4543
27826SOL    HW285486   3.007   7.791   9.265 -0.4305  1.1691  1.3217
27827SOL     OW85487   7.871   4.109   1.730  0.2542  0.1866 -0.0456
27827SOL    HW185488   7.894   4.029   1.683  2.7400  0.0233  1.2885
27827SOL    HW285489   7.946   4.166   1.717  1.0949  0.1142  3.6568
27828SOL     OW85490   8.966   8.511   9.983 -1.1792  0.3548  0.2009
27828SOL    HW185491   8.905   8.540   9.916 -1.8021  0.6748  0.8954
27828SOL    HW285492   8.915   8.509  10.064 -0.1813  1.0189  0.8793
27829SOL     OW85493   2.851  10.951   5.184 -0.2337  0.1492  0.1785
27829SOL    HW185494   2.792  11.010   5.232  0.2190 -0.1472  1.1258
27829SOL    HW285495   2.915  11.009   5.143 -1.3467  0.5002 -1.1202
27830SOL     OW85496   4.651  10.308   8.890 -0.0889 -0.0096 -0.1638
27830SOL    HW185497   4.599  10.259   8.954 -1.2101  1.0271 -0.2510
27830SOL    HW285498   4.650  10.253   8.811 -0.2593 -0.4375  0.1363
27831SOL     OW85499   8.621   5.846   2.551  0.2948 -0.1055 -0.0662
27831SOL    HW185500   8.529   5.822   2.563 -0.0490  0.3403 -1.5869
27831SOL    HW285501   8.617   5.932   2.509  1.4252 -0.0162 -0.0047
27832SOL     OW85502   6.304   6.604   4.669  0.0262  0.1527  0.5014
27832SOL    HW185503   6.400   6.605   4.663 -0.0393  1.9353 -1.4392
27832SOL    HW285504   6.285   6.648   4.752  0.8479 -1.8692  1.8399
27833SOL     OW85505   6.430  10.854  10.894 -0.2193  0.0747  0.0303
27833SOL    HW185506   6.357  10.912  10.872 -0.5962 -0.5595 -0.4319
27833SOL    HW285507   6.453  10.877  10.984  0.1485  1.4698 -0.3911
27834SOL     OW85508  10.630   2.496   2.665  0.7838  0.0774 -0.0463
27834SOL    HW185509  10.627   2.433   2.593 -1.4682  0.8924 -0.7492
27834SOL    HW285510  10.698   2.463   2.723  0.8197 -2.0639 -1.2133
27835SOL     OW85511   2.175   4.928   2.885  0.4474 -0.1246 -0.1668
27835SOL    HW185512   2.259   4.882   2.886  1.0783  0.9036 -1.9857
27835SOL    HW285513   2.194   5.012   2.926  0.5004  0.4011 -1.2573
27836SOL     OW85514   5.510   0.839   6.968  0.3440 -0.3491 -0.1039
27836SOL    HW185515   5.451   0.806   6.901  2.0586 -0.5837 -1.5798
27836SOL    HW285516   5.559   0.761   6.997  1.5564  0.1822 -0.6470
27837SOL     OW85517   3.637   7.621   4.420 -0.0820 -0.0469  0.1223
27837SOL    HW185518   3.570   7.639   4.487  0.1489  1.3272  0.0181
27837SOL    HW285519   3.711   7.677   4.445  0.4152 -0.3397 -0.6734
27838SOL     OW85520   3.864   5.669   9.591  0.3994  0.1427  0.5792
27838SOL    HW185521   3.942   5.648   9.540  0.9466 -0.5599  1.6813
27838SOL    HW285522   3.887   5.747   9.641  0.5267 -0.2578  1.1579
27839SOL     OW85523   5.293   9.988   3.462  0.0928  0.1076  0.0526
27839SOL    HW185524   5.365   9.943   3.419  0.9305  1.4194  0.0470
27839SOL    HW285525   5.216   9.935   3.441  0.6674  0.0219 -1.9881
27840SOL     OW85526   8.983   3.151   6.736  0.7429 -0.5003  0.1770
27840SOL    HW185527   9.005   3.174   6.826  0.0884  1.3723 -0.1058
27840SOL    HW285528   8.890   3.170   6.729  1.1948  1.3885 -1.4544
27841SOL     OW85529   0.854   1.788   4.562  0.2086 -0.0106  0.0264
27841SOL    HW185530   0.937   1.815   4.601  0.5014  1.3435 -1.4541
27841SOL    HW285531   0.875   1.767   4.471 -0.9442 -0.4193 -0.1734
27842SOL     OW85532   8.500   6.097   9.710  0.4763  0.1071 -0.3393
27842SOL    HW185533   8.414   6.077   9.674  0.1520  0.3985  0.2555
27842SOL    HW285534   8.489   6.183   9.752  1.4966  0.9560 -1.7108
27843SOL     OW85535   8.140   7.021   6.507  0.0265  0.2741  0.1935
27843SOL    HW185536   8.108   7.041   6.419  0.3701 -0.0894 -0.0160
27843SOL    HW285537   8.060   7.016   6.560 -0.3775 -1.4653 -0.4922
27844SOL     OW85538   1.310   3.370   1.550 -0.2328  0.7140 -0.3884
27844SOL    HW185539   1.267   3.288   1.526 -0.8993  0.6968  0.8157
27844SOL    HW285540   1.253   3.438   1.513 -0.0256  0.6550 -0.8242
27845SOL     OW85541   9.504   8.923   9.381 -0.1755  0.0542 -0.0837
27845SOL    HW185542   9.500   8.908   9.286 -0.6304 -0.3308 -0.0076
27845SOL    HW285543   9.486   9.017   9.391 -0.6385 -0.0047 -0.3460
27846SOL     OW85544   5.658   8.816   1.346 -0.1490  0.5065 -0.0001
27846SOL    HW185545   5.681   8.854   1.431  1.4233  2.0452 -1.0594
27846SOL    HW285546   5.588   8.873   1.313 -0.2504  0.3396 -0.0771
27847SOL     OW85547   7.871   4.864   3.002 -0.2941 -0.3769 -0.0843
27847SOL    HW185548   7.778   4.843   3.010  0.4616 -4.3048  0.6660
27847SOL    HW285549   7.905   4.800   2.940  2.0125  0.5033  0.1718
27848SOL     OW85550   9.606   1.091   3.832 -0.1221 -0.0234 -0.3680
27848SOL    HW185551   9.687   1.053   3.865 -0.3484 -2.1373 -1.9662
27848SOL    HW285552   9.562   1.125   3.909  2.3444  1.3841  0.5105
27849SOL     OW85553   7.121   2.406   0.199  0.0179 -0.0569 -0.3476
27849SOL    HW185554   7.209   2.403   0.161 -0.5553 -0.7771 -1.7070
27849SOL    HW285555   7.130   2.461   0.276  1.8889 -0.9860  0.1644
27850SOL     OW85556   0.128   6.821   6.740 -0.2802  0.1994  0.3227
27850SOL    HW185557   0.073   6.822   6.662  0.7034  1.8200 -0.4153
27850SOL    HW285558   0.187   6.747   6.727 -0.8167 -0.1796  0.0340
27851SOL     OW85559   4.236   2.513   7.324  0.1299 -0.2841  0.3625
27851SOL    HW185560   4.257   2.467   7.405  1.1874 -0.8360 -0.2098
27851SOL    HW285561   4.277   2.599   7.335 -1.0573  0.2185  1.0436
27852SOL     OW85562   0.322   8.938   5.321  0.4144  0.5589  0.2746
27852SOL    HW185563   0.416   8.933   5.304  0.4045  0.4377  0.2533
27852SOL    HW285564   0.291   8.848   5.309  0.4579  0.4072  1.2458
27853SOL     OW85565   2.996  10.270   0.774  0.2887  0.0355  0.3493
27853SOL    HW185566   2.925  10.209   0.796 -0.2706 -0.3875 -2.3223
27853SOL    HW285567   2.963  10.355   0.804 -1.1527 -0.2321 -0.3761
27854SOL     OW85568  10.839   2.032   1.692 -0.3189 -0.0757 -0.4748
27854SOL    HW185569  10.807   1.985   1.614  0.5111  0.6675 -1.2858
27854SOL    HW285570  10.771   2.018   1.758 -1.3795 -0.1519 -1.5462
27855SOL     OW85571   1.669   7.370   1.613 -0.0853 -0.4275  0.1232
27855SOL    HW185572   1.606   7.340   1.548 -0.5370  1.8086 -0.5585
27855SOL    HW285573   1.619   7.380   1.694 -0.2496 -0.2355 -0.0009
27856SOL     OW85574   1.895   4.279   7.889  0.2907  0.3962  0.1313
27856SOL    HW185575   1.971   4.297   7.835  0.6794  1.5166  1.0295
27856SOL    HW285576   1.823   4.270   7.826  0.8954  0.7507 -0.6313
27857SOL     OW85577   0.312   8.916   7.341 -0.0112 -0.1206  0.0049
27857SOL    HW185578   0.256   8.838   7.338  0.8790 -0.8155  0.8426
27857SOL    HW285579   0.260   8.984   7.297 -2.1845 -0.3105  2.0708
27858SOL     OW85580   5.254   5.578   3.344 -0.0997  0.2027  0.9385
27858SOL    HW185581   5.244   5.544   3.432  1.2716 -0.7606  0.7549
27858SOL    HW285582   5.317   5.519   3.302 -0.8146  0.5682 -0.7255
27859SOL     OW85583  10.129   7.932   5.650  0.1470 -0.1237 -0.4358
27859SOL    HW185584  10.143   7.844   5.684  1.7582  0.6660  1.1376
27859SOL    HW285585  10.037   7.950   5.667  0.4544 -0.4643  2.0037
27860SOL     OW85586   3.376   2.708   9.070  0.5837  0.3507 -0.3939
27860SOL    HW185587   3.286   2.722   9.040  0.3936 -0.3283 -0.1715
27860SOL    HW285588   3.430   2.723   8.993  0.2132  0.0364 -0.7187
27861SOL     OW85589   8.328   5.905   6.995  0.3619 -0.5383 -0.0763
27861SOL    HW185590   8.354   5.973   7.057  0.5390  0.0714 -0.7997
27861SOL    HW285591   8.233   5.911   6.992  0.3976 -0.0866 -0.3935
27862SOL     OW85592   3.607   4.107   6.962  0.2447 -0.9746 -0.0361
27862SOL    HW185593   3.543   4.179   6.967  0.6828 -0.5962  0.2313
27862SOL    HW285594   3.605   4.067   7.049  2.8859  1.2623  1.2160
27863SOL     OW85595   1.485   1.483   6.284  0.2144 -0.3562 -0.7470
27863SOL    HW185596   1.399   1.453   6.253 -1.3584  0.4623  2.2997
27863SOL    HW285597   1.464   1.532   6.364  3.6095 -0.6624  0.4651
27864SOL     OW85598   5.867   2.658  10.674 -0.0118  0.2519 -0.0060
27864SOL    HW185599   5.842   2.662  10.766 -1.4050  0.5089 -0.3640
27864SOL    HW285600   5.914   2.739  10.658 -0.9001  0.8241  0.1903
27865SOL     OW85601   8.575   9.543   1.784 -0.4974 -0.3974  0.0523
27865SOL    HW185602   8.611   9.454   1.790  5.2874  1.6312  2.7185
27865SOL    HW285603   8.591   9.568   1.693 -0.4740 -1.5054 -0.2666
27866SOL     OW85604   3.572   0.442   4.477  0.3886  0.1364  0.2236
27866SOL    HW185605   3.525   0.513   4.434 -0.5930 -1.1445 -0.9050
27866SOL    HW285606   3.655   0.435   4.429  0.8909  1.0775  0.9198
27867SOL     OW85607   2.427   1.098   1.246 -0.7590  0.0760  0.2496
27867SOL    HW185608   2.389   1.042   1.178  0.3234 -0.4058  0.0221
27867SOL    HW285609   2.508   1.053   1.271 -0.9581  0.4449  1.5950
27868SOL     OW85610   5.675   8.029   8.383 -0.3225 -0.0972  0.0379
27868SOL    HW185611   5.735   8.058   8.314 -0.0134  0.2352  0.4335
27868SOL    HW285612   5.730   7.976   8.441  0.1354  1.8184  1.4926
27869SOL     OW85613  10.594   7.594  10.500 -0.1050 -0.4737 -0.3295
27869SOL    HW185614  10.532   7.523  10.479  0.9413 -1.5534  0.0822
27869SOL    HW285615  10.648   7.603  10.422 -0.8589  0.5968 -0.7575
27870SOL     OW85616   0.304   7.264   5.212  0.6355  0.6130  0.3947
27870SOL    HW185617   0.388   7.304   5.191  0.9267  0.5470  1.3769
27870SOL    HW285618   0.273   7.313   5.289 -0.7035  1.2928 -0.5432
27871SOL     OW85619   4.112   0.843   2.095  0.3589  0.0206 -0.1365
27871SOL    HW185620   4.055   0.775   2.130 -0.2404  0.7205  0.2498
27871SOL    HW285621   4.101   0.917   2.153  0.5859  0.6495 -0.8782
27872SOL     OW85622   8.380  10.016   0.958 -0.2872 -0.7211 -0.3822
27872SOL    HW185623   8.418  10.013   0.869 -0.9027 -1.2463 -0.6297
27872SOL    HW285624   8.366   9.924   0.981 -3.2021 -0.5462 -1.0791
27873SOL     OW85625   3.708   2.281   1.332  0.2944  0.1312  0.3550
27873SOL    HW185626   3.688   2.270   1.425 -0.1670 -1.9427  0.0480
27873SOL    HW285627   3.648   2.221   1.288  2.1685 -0.7066 -1.1283
27874SOL     OW85628   1.351   5.559   5.373  0.4947  0.2913 -0.1300
27874SOL    HW185629   1.374   5.512   5.454 -0.4264  1.6023  0.9349
27874SOL    HW285630   1.368   5.496   5.303  0.3499 -1.2310  1.1618
27875SOL     OW85631   5.893   5.169   5.377  0.0332 -0.0629  0.3547
27875SOL    HW185632   5.912   5.185   5.284  0.8453 -1.1548  0.3247
27875SOL    HW285633   5.800   5.190   5.385 -0.2361 -0.6641 -0.8832
27876SOL     OW85634   9.156   5.958   1.683 -0.3464 -0.3285  0.1010
27876SOL    HW185635   9.143   5.938   1.590 -2.4702  0.6320  0.1459
27876SOL    HW285636   9.205   6.040   1.682  0.3646 -0.7400 -0.1327
27877SOL     OW85637   6.373   2.143   6.317  0.0678 -0.2176 -0.5071
27877SOL    HW185638   6.279   2.134   6.335  0.2709 -1.9468 -0.1722
27877SOL    HW285639   6.415   2.122   6.401  0.7888 -0.5103 -0.9391
27878SOL     OW85640   8.570   6.940   4.747 -0.1648  0.1898  0.3672
27878SOL    HW185641   8.598   6.851   4.769 -0.2919  0.0089 -0.1993
27878SOL    HW285642   8.651   6.987   4.728 -0.1084  0.1564  0.5280
27879SOL     OW85643   7.771   0.865   1.447 -0.2401 -0.1885  0.0058
27879SOL    HW185644   7.715   0.924   1.396  1.2128  1.2151 -0.0516
27879SOL    HW285645   7.722   0.783   1.450 -1.2470  0.2558 -2.0135
27880SOL     OW85646   7.869  10.486   6.954  0.1496 -0.1648 -0.3906
27880SOL    HW185647   7.930  10.532   6.896 -0.4355  0.2709 -0.6694
27880SOL    HW285648   7.801  10.453   6.896 -0.9083  1.0322  0.1427
27881SOL     OW85649   7.126   1.892   0.488 -0.1939 -0.3571  0.1861
27881SOL    HW185650   7.188   1.894   0.415  0.3659 -1.0030  0.6318
27881SOL    HW285651   7.109   1.984   0.508 -1.1924 -0.1460 -1.4483
27882SOL     OW85652  10.840   7.883   1.769  0.3835  0.0931  0.3085
27882SOL    HW185653  10.806   7.795   1.760 -0.5871  0.4712  0.1849
27882SOL    HW285654  10.780   7.926   1.830 -0.1089  1.1504 -0.8889
27883SOL     OW85655  10.623   7.913   7.851  0.4125 -0.1496  0.2806
27883SOL    HW185656  10.699   7.971   7.850  0.8474 -0.7270 -0.5411
27883SOL    HW285657  10.620   7.879   7.941  1.3675 -0.4383  0.2101
27884SOL     OW85658   0.105   0.941   0.632  0.0848 -0.0442  0.2288
27884SOL    HW185659   0.090   1.033   0.654  1.2260  0.2868 -0.3263
27884SOL    HW285660   0.146   0.904   0.710 -0.4283 -0.1109  0.4744
27885SOL     OW85661   5.635   0.582   3.101 -0.5055  0.1386 -0.2353
27885SOL    HW185662   5.645   0.542   3.015 -2.5449  0.3220 -0.6067
27885SOL    HW285663   5.581   0.521   3.151 -0.6586  0.7589  0.3822
27886SOL     OW85664   1.782   3.481  11.026  0.1573 -0.2834 -0.1762
27886SOL    HW185665   1.731   3.431  11.090 -0.7512  1.6780  0.7246
27886SOL    HW285666   1.806   3.561  11.072  1.4539  0.1900 -1.5915
27887SOL     OW85667   0.815   4.133   4.630  0.1739  0.2588 -0.0375
27887SOL    HW185668   0.903   4.107   4.603  0.4972  1.2110  0.0876
27887SOL    HW285669   0.793   4.071   4.700  0.4056 -0.5053 -0.6279
27888SOL     OW85670   8.970  10.368   5.403 -0.3645  0.2791 -0.6921
27888SOL    HW185671   8.919  10.421   5.343 -0.7036 -0.4402 -1.0535
27888SOL    HW285672   9.033  10.323   5.348 -0.4742 -0.1471 -0.4772
27889SOL     OW85673   7.598  10.716   2.549 -0.2707  0.2441 -0.0488
27889SOL    HW185674   7.637  10.791   2.503 -1.0130  0.6846  0.0177
27889SOL    HW285675   7.516  10.751   2.585  0.3405 -0.0406  1.7258
27890SOL     OW85676   2.624   4.776   3.672 -0.1696  0.5832 -0.4990
27890SOL    HW185677   2.646   4.867   3.650 -1.1924  0.6698 -1.2658
27890SOL    HW285678   2.551   4.784   3.733 -1.0617  0.2925 -1.4922
27891SOL     OW85679   4.328   4.739   8.083 -0.4008  0.2236 -0.2302
27891SOL    HW185680   4.360   4.687   8.157  0.5734 -0.1848 -0.9308
27891SOL    HW285681   4.383   4.817   8.081 -0.5443  0.3237 -0.4239
27892SOL     OW85682   7.693   4.038   7.074 -0.3805  0.4376 -0.0415
27892SOL    HW185683   7.752   3.965   7.055  1.4306  1.7408  0.3368
27892SOL    HW285684   7.610   3.997   7.096  1.1399 -1.6322  2.2903
27893SOL     OW85685   1.945   9.969   2.099 -0.3693  0.3169  0.1780
27893SOL    HW185686   1.981  10.051   2.065  1.0038 -0.1384  0.4987
27893SOL    HW285687   1.919   9.990   2.188 -3.9863  1.5187 -0.9607
27894SOL     OW85688  10.685   0.064   1.178 -0.4987 -0.3028  0.8802
27894SOL    HW185689  10.682   0.089   1.270 -0.0784 -0.6216  0.9824
27894SOL    HW285690  10.763   0.009   1.170 -0.4170 -0.1104  0.2938
27895SOL     OW85691   5.598   4.947   5.505  0.1904 -0.2169  0.5380
27895SOL    HW185692   5.676   4.907   5.467 -0.4114 -1.0920  0.1781
27895SOL    HW285693   5.631   5.012   5.567  1.1932 -0.3970  0.2028
27896SOL     OW85694   5.990   7.559   4.091  0.3181  0.2885  0.1380
27896SOL    HW185695   5.964   7.601   4.173  0.8371  1.0178 -0.0632
27896SOL    HW285696   5.909   7.551   4.041 -0.4643 -2.3262  1.6433
27897SOL     OW85697   9.022   8.743   9.649  0.0890 -0.6982  0.6867
27897SOL    HW185698   9.114   8.729   9.671 -0.5623 -2.2709  2.7116
27897SOL    HW285699   9.018   8.731   9.554  2.4111  2.4469  0.0253
27898SOL     OW85700  10.787   6.736   0.574 -0.2618 -0.7157  0.4698
27898SOL    HW185701  10.867   6.766   0.531  0.8551 -0.7957  2.4040
27898SOL    HW285702  10.810   6.653   0.614 -1.4741 -0.9874  0.6452
27899SOL     OW85703   9.069   8.708   7.708 -0.2488  0.0083 -0.1591
27899SOL    HW185704   8.974   8.711   7.721 -0.1832  0.8726  0.2070
27899SOL    HW285705   9.090   8.792   7.667  0.3614 -0.1737 -0.2273
27900SOL     OW85706   0.513   4.340   0.879  0.2599  0.0093  0.2529
27900SOL    HW185707   0.476   4.260   0.842  1.7630 -0.1809 -0.8987
27900SOL    HW285708   0.579   4.309   0.941  0.7126  0.3471 -0.0577
27901SOL     OW85709   4.036   6.894  10.666  0.1593  0.7623  0.3096
27901SOL    HW185710   3.960   6.884  10.723  1.2411  1.6188  1.9793
27901SOL    HW285711   4.108   6.917  10.725  1.6721  0.2642 -1.2412
27902SOL     OW85712   3.799   8.194   0.932 -0.6230  0.3973  0.4683
27902SOL    HW185713   3.736   8.265   0.942 -0.4754  0.5191  0.5289
27902SOL    HW285714   3.745   8.115   0.930 -0.7591  0.4784  0.8244
27903SOL     OW85715   7.999  10.271   2.319 -0.0562 -0.0444 -0.2085
27903SOL    HW185716   7.945  10.349   2.336 -1.6356 -1.3153  0.9546
27903SOL    HW285717   8.054  10.295   2.245 -1.6463  1.6186 -0.9127
27904SOL     OW85718   1.965   8.287   7.576  0.0430 -0.9425 -0.6781
27904SOL    HW185719   2.043   8.266   7.526  0.1938  0.6610 -1.1504
27904SOL    HW285720   1.998   8.316   7.661 -0.1119 -1.5399 -0.4094
27905SOL     OW85721   8.553   8.395   2.755 -0.1067  0.3992  0.7043
27905SOL    HW185722   8.616   8.325   2.739 -1.6619 -0.7731 -0.6127
27905SOL    HW285723   8.504   8.366   2.833  0.6171  1.0608  1.4187
27906SOL     OW85724   4.599   4.946   1.143 -0.5179  0.3594  0.2521
27906SOL    HW185725   4.595   4.964   1.237 -0.9991  3.0245 -0.2059
27906SOL    HW285726   4.514   4.907   1.122 -0.8808  0.8889  0.7237
27907SOL     OW85727   1.196   6.133   0.902  0.6014  0.4623 -0.6420
27907SOL    HW185728   1.117   6.185   0.913  0.9246  1.3151 -2.0973
27907SOL    HW285729   1.182   6.055   0.956 -1.4836  0.2947 -1.3579
27908SOL     OW85730   4.329   0.043   0.457  0.3356  0.5496 -0.0166
27908SOL    HW185731   4.352   0.025   0.548  0.6007  0.8499 -0.0233
27908SOL    HW285732   4.254  -0.014   0.439 -0.0909  0.9264  0.5678
27909SOL     OW85733  10.605   6.169   7.906 -0.0271 -0.2903 -0.3512
27909SOL    HW185734  10.689   6.196   7.869  0.5201 -0.4758  0.7186
27909SOL    HW285735  10.566   6.115   7.838 -0.5241  1.9695 -1.9866
27910SOL     OW85736   2.061   2.940  10.844  0.1106  0.0290 -0.3284
27910SOL    HW185737   2.130   2.987  10.797 -2.2004  2.7923 -1.2996
27910SOL    HW285738   2.057   2.983  10.929 -1.0199  0.6710 -0.6689
27911SOL     OW85739   8.586  10.515   8.773  0.5413  0.2106  0.2977
27911SOL    HW185740   8.633  10.456   8.832  0.9074  1.6856  1.5474
27911SOL    HW285741   8.641  10.593   8.767  0.0137  0.5049 -1.2037
27912SOL     OW85742  10.327   7.705   1.060  0.0601  0.2058 -0.5415
27912SOL    HW185743  10.299   7.726   1.149  0.3286 -0.7409 -0.2165
27912SOL    HW285744  10.363   7.786   1.026 -0.6555  0.7492 -0.0251
27913SOL     OW85745   5.144   3.883   1.346 -0.4168 -0.1511  0.2077
27913SOL    HW185746   5.117   3.952   1.406  0.4946 -1.2115  1.9191
27913SOL    HW285747   5.107   3.909   1.262 -1.9817  1.2498  1.2586
27914SOL     OW85748   3.148   2.905   7.742  1.0319 -0.3186 -0.2952
27914SOL    HW185749   3.181   2.942   7.660  1.0052  1.5069  0.4599
27914SOL    HW285750   3.054   2.896   7.728  1.1512 -0.8544 -0.7651
27915SOL     OW85751   0.728   7.815   9.002 -0.1481  0.4722  0.1201
27915SOL    HW185752   0.682   7.826   8.919 -0.6008 -0.4775  0.2315
27915SOL    HW285753   0.667   7.848   9.068 -1.4521 -2.2504  0.4406
27916SOL     OW85754   9.795   5.335   2.257  0.1294  0.1724 -0.4688
27916SOL    HW185755   9.788   5.423   2.220  0.1611  0.2315 -0.3343
27916SOL    HW285756   9.734   5.335   2.331  1.5456  0.7155  0.7490
27917SOL     OW85757  10.097   3.747   6.909  0.0985  0.1902 -0.6730
27917SOL    HW185758  10.041   3.789   6.974 -0.0167  0.2663 -0.8224
27917SOL    HW285759  10.054   3.763   6.826 -0.2057 -0.6381 -0.6899
27918SOL     OW85760   0.991   0.414   0.439  0.1783 -0.3514  0.0778
27918SOL    HW185761   0.935   0.464   0.380  1.0596  0.6590  0.0882
27918SOL    HW285762   0.987   0.324   0.406 -2.5326 -0.6272  0.8688
27919SOL     OW85763   5.892   2.840   7.880 -0.2229 -0.7948 -0.1113
27919SOL    HW185764   5.968   2.831   7.939 -1.6632 -1.5570  1.7228
27919SOL    HW285765   5.816   2.836   7.938 -1.7001 -0.4171 -1.9400
27920SOL     OW85766  10.024  10.177  10.110  0.1219 -0.1935  0.5329
27920SOL    HW185767   9.966  10.242  10.151  0.3642  1.8006 -2.0701
27920SOL    HW285768  10.094  10.164  10.174 -1.2334  0.1327  2.1677
27921SOL     OW85769   2.879  10.167   4.375  0.4714 -0.2723  0.2518
27921SOL    HW185770   2.883  10.071   4.366  0.6666 -0.2740  0.3417
27921SOL    HW285771   2.971  10.194   4.379  0.4220 -0.0544 -0.0649
27922SOL     OW85772   9.400   9.402   0.942  0.2862  0.8326 -0.5878
27922SOL    HW185773   9.478   9.411   0.887  0.3119 -1.5651 -1.0568
27922SOL    HW285774   9.433   9.369   1.025 -0.2803 -1.3484 -1.1782
27923SOL     OW85775   1.138   8.541   4.924  0.3591 -0.7604 -0.1037
27923SOL    HW185776   1.151   8.507   4.836  1.1874 -0.5089 -0.0817
27923SOL    HW285777   1.222   8.531   4.967 -0.4216 -2.2804  1.1656
27924SOL     OW85778   4.904  10.029   0.739  0.6182  0.5275  0.2790
27924SOL    HW185779   4.938   9.969   0.673  1.6966 -0.2513  1.4975
27924SOL    HW285780   4.956  10.011   0.818 -1.2983  0.6760  1.6580
27925SOL     OW85781   3.401   1.625   0.005  0.0735 -0.1463  0.1473
27925SOL    HW185782   3.360   1.693   0.058  0.8462  1.5171 -1.2725
27925SOL    HW285783   3.493   1.651   0.000  0.2609 -0.9362 -0.9682
27926SOL     OW85784   9.559  10.022   7.613 -0.9074 -0.5464 -0.4697
27926SOL    HW185785   9.579   9.933   7.641 -0.7776 -0.9596 -1.8167
27926SOL    HW285786   9.639  10.072   7.633  0.2375 -1.4272 -2.5646
27927SOL     OW85787   1.902   2.302   0.746 -0.4929 -0.6721  0.1137
27927SOL    HW185788   1.919   2.230   0.806  0.3045  0.0211  0.7516
27927SOL    HW285789   1.839   2.358   0.792 -1.0542 -0.9172 -0.3464
27928SOL     OW85790   9.550   1.938   1.214  0.9499 -0.1956  0.5670
27928SOL    HW185791   9.535   2.030   1.233  1.3457  0.2514 -1.1367
27928SOL    HW285792   9.464   1.897   1.226  0.5747  0.5474  0.4840
27929SOL     OW85793  10.453  10.059  10.433  0.2520 -0.2367 -0.5712
27929SOL    HW185794  10.452  10.035  10.526 -0.9396  1.5240 -0.0860
27929SOL    HW285795  10.539  10.028  10.402  0.2728 -1.7528  0.8286
27930SOL     OW85796   9.136   1.705   8.293 -0.8040  0.6376  0.6672
27930SOL    HW185797   9.196   1.689   8.366 -1.4471  2.2733  1.6147
27930SOL    HW285798   9.192   1.702   8.216 -0.1697 -1.5318  1.1361
27931SOL     OW85799   2.085   5.085   5.712 -0.1578 -0.1496 -0.0575
27931SOL    HW185800   2.072   5.133   5.794 -0.9591 -0.7471  0.1873
27931SOL    HW285801   1.996   5.069   5.680  0.1455  0.6555 -1.4062
27932SOL     OW85802   5.062   8.092   7.387 -0.8578 -0.6345  0.0934
27932SOL    HW185803   5.151   8.127   7.383 -0.7933 -0.8229 -2.9388
27932SOL    HW285804   5.031   8.113   7.475  1.8003  0.3736  0.8675
27933SOL     OW85805   0.695   6.037   2.438  0.0288  0.5009 -0.0431
27933SOL    HW185806   0.631   6.010   2.504 -1.7110 -1.1145 -2.2529
27933SOL    HW285807   0.753   5.961   2.428  0.7968  1.0444  0.1553
27934SOL     OW85808   2.829   7.236   8.848  0.1084 -0.5911  0.2483
27934SOL    HW185809   2.920   7.241   8.821 -0.8575 -0.8866 -3.5439
27934SOL    HW285810   2.797   7.327   8.843  0.3445 -0.3182  2.5578
27935SOL     OW85811   2.382   5.853   7.610 -0.4776  0.1825 -0.1531
27935SOL    HW185812   2.426   5.825   7.530 -1.1742  0.4295 -0.6360
27935SOL    HW285813   2.418   5.939   7.629 -0.3213  0.1287 -0.2118
27936SOL     OW85814   9.169  10.963   1.033 -0.2142 -0.2998 -0.6406
27936SOL    HW185815   9.194  11.053   1.057 -1.5711  0.1642 -0.8874
27936SOL    HW285816   9.073  10.965   1.031 -0.2648 -1.8189 -0.4423
27937SOL     OW85817   0.332   8.248   8.694 -0.2325 -0.8426 -0.2706
27937SOL    HW185818   0.399   8.285   8.637  1.4004 -1.2760  1.2728
27937SOL    HW285819   0.295   8.324   8.739  0.5131 -0.7430  0.1914
27938SOL     OW85820   9.291   2.240   6.328  0.5105  0.3889  0.1153
27938SOL    HW185821   9.289   2.317   6.271 -1.6814  0.0000 -0.4316
27938SOL    HW285822   9.316   2.274   6.414 -0.5094  1.7361 -0.0928
27939SOL     OW85823   6.155   7.309   3.237 -0.0957  0.9451 -0.2336
27939SOL    HW185824   6.170   7.222   3.272 -1.3252  1.0478  0.6287
27939SOL    HW285825   6.236   7.357   3.256  1.0784 -0.3120 -1.8374
27940SOL     OW85826   6.095   8.492  10.197 -0.2268 -0.0469  0.3244
27940SOL    HW185827   6.029   8.474  10.264  0.0849  1.2764  1.0219
27940SOL    HW285828   6.103   8.587  10.196  0.3902 -0.0816 -1.0226
27941SOL     OW85829   0.385   0.958   4.184 -0.5722  0.0475  0.4700
27941SOL    HW185830   0.426   0.993   4.264 -2.0540  0.1434  1.2217
27941SOL    HW285831   0.426   0.872   4.172  2.1446  1.3756 -0.6402
27942SOL     OW85832   5.339   5.305   0.532  0.1221 -0.2439  0.3737
27942SOL    HW185833   5.244   5.305   0.534  0.1184  0.5270  0.6574
27942SOL    HW285834   5.363   5.395   0.552  0.9088 -0.3901  0.1235
27943SOL     OW85835   0.097   2.333   4.597  0.6517  0.4132 -0.2295
27943SOL    HW185836   0.063   2.422   4.587  2.5773  1.4078  1.3193
27943SOL    HW285837   0.118   2.326   4.691 -0.2109 -1.9824 -0.1509
27944SOL     OW85838   4.642   7.063   8.552 -0.1844  0.4249 -0.9301
27944SOL    HW185839   4.642   7.143   8.499  0.7130  1.4162  0.4758
27944SOL    HW285840   4.729   7.025   8.539 -0.1347  0.4119 -0.5759
27945SOL     OW85841   5.715   1.967   7.939  0.2127 -0.0187 -0.1048
27945SOL    HW185842   5.801   1.944   7.905  0.1563 -0.6671  0.1808
27945SOL    HW285843   5.725   1.961   8.034  0.3292  1.6171  0.0324
27946SOL     OW85844   1.643   2.278   8.738 -0.3410  0.3529  0.1938
27946SOL    HW185845   1.680   2.326   8.664 -0.4132  0.9603  0.5422
27946SOL    HW285846   1.684   2.192   8.734  0.4633  0.7319  0.0701
27947SOL     OW85847   8.981   5.621   9.063 -0.2165  0.3579 -0.2808
27947SOL    HW185848   8.896   5.665   9.075 -0.7748 -0.6784 -0.3333
27947SOL    HW285849   8.984   5.557   9.134  1.2149  1.3870  0.6576
27948SOL     OW85850   5.528   5.739   6.592  0.2202 -0.0430 -0.1822
27948SOL    HW185851   5.472   5.817   6.596 -1.1876 -1.0540  1.5278
27948SOL    HW285852   5.475   5.674   6.546  1.5741  0.0872 -2.0361
27949SOL     OW85853   5.695   8.616   6.294  0.0951  0.0303  0.6601
27949SOL    HW185854   5.705   8.575   6.380  0.9104 -1.8337 -0.2714
27949SOL    HW285855   5.636   8.558   6.246  0.2585  0.6319 -0.2990
27950SOL     OW85856   0.873   7.326   3.800 -0.6156 -0.6208 -0.4283
27950SOL    HW185857   0.882   7.253   3.739  3.1407 -1.2658  0.6311
27950SOL    HW285858   0.859   7.284   3.885  0.2740 -0.0933 -0.0047
27951SOL     OW85859   3.899   6.432   5.606 -0.1298 -0.1867 -0.3352
27951SOL    HW185860   3.839   6.410   5.677  0.9992 -1.4826  0.2806
27951SOL    HW285861   3.984   6.444   5.649 -0.0034  2.0705 -1.1219
27952SOL     OW85862   3.804   3.143   5.045  0.1094  0.1665  0.0870
27952SOL    HW185863   3.727   3.135   4.988 -0.1149 -0.6729  0.4999
27952SOL    HW285864   3.768   3.172   5.129  0.3492  0.6199  0.0358
27953SOL     OW85865   1.582   5.284   5.299 -0.1158 -0.1561  0.7869
27953SOL    HW185866   1.525   5.210   5.321 -1.5089  0.8638  0.7445
27953SOL    HW285867   1.669   5.245   5.290 -0.6404 -1.6276  1.7167
27954SOL     OW85868   1.819   3.990   5.458 -0.7885  0.4580 -0.1627
27954SOL    HW185869   1.899   3.941   5.475 -0.7193  0.0640 -1.4845
27954SOL    HW285870   1.802   4.039   5.539  0.6440  0.3566  0.2182
27955SOL     OW85871   3.851   4.911   0.040 -0.4282  0.0886 -0.3828
27955SOL    HW185872   3.928   4.911   0.097 -0.2031 -1.0277 -0.6497
27955SOL    HW285873   3.802   4.989   0.065 -1.1544 -1.1521  2.4900
27956SOL     OW85874  10.410   8.116   9.722  0.1764  0.0339 -0.4154
27956SOL    HW185875  10.414   8.173   9.799  0.1171 -1.7191  0.9710
27956SOL    HW285876  10.355   8.043   9.750  0.5854 -0.9123 -1.9644
27957SOL     OW85877   3.485   9.323   5.883  0.5271 -0.1874 -0.0218
27957SOL    HW185878   3.449   9.396   5.832  1.5945  0.1658 -0.2899
27957SOL    HW285879   3.417   9.303   5.947 -0.0404  0.6260 -0.3513
27958SOL     OW85880   7.667   1.526   0.145 -0.3410  0.0992  0.2559
27958SOL    HW185881   7.695   1.498   0.057 -3.4460  0.7024 -1.0714
27958SOL    HW285882   7.662   1.621   0.139  0.2685  0.2257  1.4348
27959SOL     OW85883   1.070   1.628  10.410 -0.1886 -0.0187 -0.6979
27959SOL    HW185884   1.142   1.617  10.473  0.0189 -0.7790 -1.0534
27959SOL    HW285885   1.000   1.669  10.461  0.3810  0.4500 -0.2656
27960SOL     OW85886   0.401   9.189   7.713 -0.2201  0.3747  0.0399
27960SOL    HW185887   0.366   9.278   7.713  0.2886  0.5757  0.2693
27960SOL    HW285888   0.387   9.158   7.802 -0.1241  0.3339  0.0413
27961SOL     OW85889   4.580  10.560   7.435  0.5360  0.0300 -0.1939
27961SOL    HW185890   4.548  10.478   7.472  1.1629  0.3267  1.0515
27961SOL    HW285891   4.500  10.605   7.406 -0.0571  0.0018  1.2939
27962SOL     OW85892   5.004   4.822   3.634  0.4788  0.4433  0.3041
27962SOL    HW185893   4.951   4.793   3.560  0.1786 -0.9242  1.0280
27962SOL    HW285894   4.963   4.905   3.662  1.4015  1.7004 -1.8482
27963SOL     OW85895   6.548   0.996   7.069  0.0965 -0.0845  0.3941
27963SOL    HW185896   6.577   1.087   7.066 -0.0178  0.0729  2.6824
27963SOL    HW285897   6.581   0.958   6.988  1.3157  1.6435  0.0258
27964SOL     OW85898   2.899  10.259   5.464 -0.7169 -0.6873  0.5413
27964SOL    HW185899   2.857  10.175   5.445 -2.3080  0.3751 -1.0015
27964SOL    HW285900   2.991  10.245   5.444 -0.9066 -2.1276  0.5632
27965SOL     OW85901   2.415   2.872   3.486 -0.0040  0.0162  0.3338
27965SOL    HW185902   2.359   2.796   3.499 -0.3638 -0.0442 -1.3977
27965SOL    HW285903   2.418   2.885   3.391  0.7522  1.6378  0.5338
27966SOL     OW85904  10.946   9.125   7.200 -0.4505 -0.5197 -1.0655
27966SOL    HW185905  10.908   9.210   7.223  0.6408 -0.7596  2.1068
27966SOL    HW285906  10.902   9.101   7.118 -2.9055  1.7514 -0.5694
27967SOL     OW85907   1.993   6.574   0.363 -0.1398 -0.0822 -0.2081
27967SOL    HW185908   1.926   6.625   0.409  0.0264  1.0500 -1.1743
27967SOL    HW285909   1.989   6.488   0.404 -0.3362  0.7147  1.5849
27968SOL     OW85910  10.131  10.007   9.922  0.0383 -0.2068 -1.0623
27968SOL    HW185911  10.086  10.057   9.990  0.7527 -0.3467 -0.4712
27968SOL    HW285912  10.100   9.917   9.934  1.3143 -0.5275  0.1092
27969SOL     OW85913   8.529   3.521   8.015  0.1354  0.1885  0.1822
27969SOL    HW185914   8.539   3.579   8.091  1.5918 -0.8236  0.8019
27969SOL    HW285915   8.468   3.567   7.958 -3.4025 -0.2527  3.2018
27970SOL     OW85916   8.052   0.131  10.128  0.2400 -0.4010 -1.1944
27970SOL    HW185917   8.107   0.206  10.109 -0.2493  0.4166  0.3962
27970SOL    HW285918   8.112   0.057  10.131  1.2846  0.4594  0.4540
27971SOL     OW85919   1.466   5.938   2.939  0.1586 -0.3031  0.0738
27971SOL    HW185920   1.385   5.988   2.955 -0.1476 -0.8396  0.2062
27971SOL    HW285921   1.534   6.006   2.931 -0.3820  0.1785 -0.5450
27972SOL     OW85922   2.287   9.004   7.209  0.4131 -0.3026 -0.6037
27972SOL    HW185923   2.298   8.914   7.239  2.6100  0.4229  1.0353
27972SOL    HW285924   2.312   9.058   7.284  1.5032  1.6589 -2.2560
27973SOL     OW85925   8.893   4.719   8.923  0.1615  1.0262 -0.4647
27973SOL    HW185926   8.838   4.788   8.886 -0.9961 -0.1544 -1.0360
27973SOL    HW285927   8.863   4.712   9.014  0.2505  1.2473 -0.4175
27974SOL     OW85928   2.894   5.626   1.858 -0.1594  0.4357  0.1535
27974SOL    HW185929   2.951   5.554   1.830  0.3172  1.0050 -0.3809
27974SOL    HW285930   2.854   5.658   1.777  0.3668  1.3774  0.2459
27975SOL     OW85931   7.801   0.206   5.302  0.1003  0.2792 -0.3159
27975SOL    HW185932   7.855   0.141   5.257  1.4187  0.0709  1.4682
27975SOL    HW285933   7.828   0.290   5.264  0.6994  0.0558 -0.3861
27976SOL     OW85934   7.190   5.098  10.897 -0.8684  0.5077  0.1285
27976SOL    HW185935   7.233   5.074  10.979  1.4015  1.4726 -0.7045
27976SOL    HW285936   7.211   5.191  10.885 -2.9239  0.9375 -0.5437
27977SOL     OW85937   9.166   9.918   6.285 -0.3676 -0.2554 -0.2229
27977SOL    HW185938   9.204   9.835   6.256 -0.0153 -0.9048  1.9073
27977SOL    HW285939   9.241   9.976   6.298 -0.1140 -1.0120  2.3683
27978SOL     OW85940   0.907   5.555   3.363 -0.0527 -0.1515 -0.3576
27978SOL    HW185941   0.862   5.482   3.321 -1.4807 -0.0655  0.9575
27978SOL    HW285942   0.976   5.514   3.415 -0.2616 -0.4944 -0.3516
27979SOL     OW85943   1.928   0.032   8.331  0.2458  0.3301 -0.0696
27979SOL    HW185944   1.880  -0.025   8.391 -1.3350  0.7239 -0.8929
27979SOL    HW285945   1.889   0.118   8.342  1.2247  0.8257 -0.3087
27980SOL     OW85946   0.586   2.290   4.270  0.3894  0.2694 -0.2306
27980SOL    HW185947   0.562   2.237   4.194 -1.1848  0.7559 -0.1021
27980SOL    HW285948   0.524   2.363   4.269  1.4497  1.2077  0.5475
27981SOL     OW85949   6.931   4.914   4.025  0.1438  0.0188  0.4912
27981SOL    HW185950   6.900   4.856   3.955  1.0935  0.7971 -0.6179
27981SOL    HW285951   6.908   5.002   3.995  1.8155  0.4739  0.4815
27982SOL     OW85952   9.503   0.538   2.399 -0.3031  0.2828 -0.1713
27982SOL    HW185953   9.459   0.469   2.449  1.1598 -1.1100 -0.7390
27982SOL    HW285954   9.556   0.492   2.335 -0.6684  1.9826 -1.8074
27983SOL     OW85955   5.039   2.230   1.081  0.6441  0.7809 -0.1352
27983SOL    HW185956   4.955   2.277   1.072 -0.1470 -0.6650 -0.5851
27983SOL    HW285957   5.104   2.300   1.086 -0.6244  1.9629  0.8414
27984SOL     OW85958   3.775   8.798  10.036  0.1253 -0.7594 -0.5804
27984SOL    HW185959   3.711   8.744  10.081  0.5104 -0.0523  0.8703
27984SOL    HW285960   3.785   8.875  10.091 -0.4644  0.8663 -2.6150
27985SOL     OW85961   8.713   5.011   5.624 -0.1992  0.2481  0.9108
27985SOL    HW185962   8.681   5.077   5.685 -0.3698  0.0422  1.0424
27985SOL    HW285963   8.635   4.981   5.577 -0.0622  0.4544  0.5379
27986SOL     OW85964   4.496   9.146   5.733  0.0242  0.2744 -0.7049
27986SOL    HW185965   4.579   9.119   5.773 -0.6271  0.1147  0.6126
27986SOL    HW285966   4.429   9.110   5.791 -0.9214  3.3385  0.2783
27987SOL     OW85967  10.619  10.399   6.475  0.2677 -0.5752 -0.2214
27987SOL    HW185968  10.611  10.321   6.420 -1.8110 -0.0955 -0.7004
27987SOL    HW285969  10.585  10.371   6.560  0.1352 -0.3775 -0.2094
27988SOL     OW85970   4.196   0.246   8.129  0.3981  0.4600  0.1956
27988SOL    HW185971   4.234   0.303   8.063 -0.5205  1.5550  0.5963
27988SOL    HW285972   4.212   0.157   8.096  2.6402  0.8699 -0.0055
27989SOL     OW85973   3.842   1.443   7.971  0.0691 -0.0797 -0.1108
27989SOL    HW185974   3.876   1.531   7.959  1.6562 -0.4032  1.6291
27989SOL    HW285975   3.828   1.410   7.882  0.2766  1.5888 -0.7894
27990SOL     OW85976   8.970  10.866   5.478 -0.2086  0.0162 -0.1313
27990SOL    HW185977   9.059  10.901   5.486  0.0566 -0.3332 -1.3059
27990SOL    HW285978   8.914  10.943   5.480  0.2751  0.4328 -1.3034
27991SOL     OW85979   7.661   0.208   6.492 -0.3140  0.6462 -0.0563
27991SOL    HW185980   7.635   0.298   6.470  0.6617  0.7331 -0.9015
27991SOL    HW285981   7.582   0.156   6.479 -0.3137  1.0330 -1.7998
27992SOL     OW85982   5.313   7.423   1.735 -0.1192 -0.2260 -0.6021
27992SOL    HW185983   5.397   7.431   1.779 -0.6798  0.3809  0.4227
27992SOL    HW285984   5.267   7.505   1.756 -2.4257 -1.9930  2.1645
27993SOL     OW85985   8.003   0.156   7.778  0.2791 -0.3926  0.0146
27993SOL    HW185986   7.978   0.155   7.686  0.4389 -0.8306 -0.0240
27993SOL    HW285987   7.979   0.244   7.808  0.3698 -0.1927 -0.4814
27994SOL     OW85988   9.702   3.980   1.893  0.5149 -0.9350  0.7874
27994SOL    HW185989   9.711   3.979   1.797  0.7153  0.0882  0.7879
27994SOL    HW285990   9.745   3.900   1.922  4.0021  0.5851  0.2932
27995SOL     OW85991   9.456   2.125   5.044 -0.0576  0.1592  0.1290
27995SOL    HW185992   9.440   2.180   5.121 -0.2820 -0.6086  0.6455
27995SOL    HW285993   9.370   2.114   5.004 -0.1090 -0.2572  0.3426
27996SOL     OW85994   6.483   7.006   6.668  0.6565  0.0062  0.1417
27996SOL    HW185995   6.558   6.946   6.670  1.2876  0.7848  2.3044
27996SOL    HW285996   6.487   7.052   6.752 -2.0974  0.2936  0.1882
27997SOL     OW85997   7.149   2.010   4.330  0.0451 -0.3773  0.2193
27997SOL    HW185998   7.078   2.004   4.393 -0.2187  1.8860  0.2112
27997SOL    HW285999   7.115   2.067   4.261  1.0016 -1.2920 -1.0662
27998SOL     OW86000   4.330   2.771   4.520  0.2666  0.0774  0.3253
27998SOL    HW186001   4.363   2.744   4.606 -0.8790 -0.4224  0.6169
27998SOL    HW286002   4.383   2.722   4.457  0.4141 -0.3300  0.7692
27999SOL     OW86003   0.665   1.082   7.225  0.0328 -0.2984 -0.1378
27999SOL    HW186004   0.604   1.008   7.225 -1.4833  0.8731  1.2953
27999SOL    HW286005   0.716   1.071   7.305  0.9147 -0.6123 -0.7244
28000SOL     OW86006   4.621   1.612   0.372 -0.5036  0.0875  0.3907
28000SOL    HW186007   4.697   1.608   0.430 -0.7064 -1.7396  0.5713
28000SOL    HW286008   4.656   1.644   0.289 -0.3488  3.6476  1.6414
28001SOL     OW86009   0.126   3.747   8.674  0.1381  0.2795  0.2508
28001SOL    HW186010   0.222   3.751   8.670  0.0999  0.5870 -0.4588
28001SOL    HW286011   0.102   3.685   8.605 -0.1106 -0.8013  1.2873
28002SOL     OW86012   5.702   1.363   9.388  0.1742  0.0452  0.2600
28002SOL    HW186013   5.664   1.400   9.468  0.6419  0.3964  0.3235
28002SOL    HW286014   5.705   1.437   9.327 -0.3224 -0.2563 -0.1367
28003SOL     OW86015   3.863   0.886   5.602 -0.0783  0.0053 -0.3561
28003SOL    HW186016   3.952   0.856   5.623  0.0830  1.5580  1.4070
28003SOL    HW286017   3.873   0.934   5.520  0.6819  0.0437 -0.2467
28004SOL     OW86018   2.911   0.166  10.487  0.6544  0.4914  0.4691
28004SOL    HW186019   2.983   0.119  10.444 -1.3801 -1.7463 -0.7206
28004SOL    HW286020   2.926   0.153  10.580  0.9062 -1.4093  0.1924
28005SOL     OW86021   1.946   3.142   7.301 -0.6227  0.1037  0.4341
28005SOL    HW186022   2.013   3.160   7.236 -0.1461 -1.5614  0.4204
28005SOL    HW286023   1.902   3.063   7.270 -0.8822 -0.2936  1.7154
28006SOL     OW86024   6.569   4.135   5.709  0.6326 -0.3160  0.0733
28006SOL    HW186025   6.622   4.059   5.733  0.3459 -0.5872 -0.1385
28006SOL    HW286026   6.539   4.116   5.620 -0.2625 -0.4240  0.3898
28007SOL     OW86027   6.080   8.886   9.288  0.0626  0.1185 -0.4491
28007SOL    HW186028   6.145   8.862   9.354  0.6254 -0.2524 -1.1310
28007SOL    HW286029   6.003   8.835   9.311  0.5148 -0.6229 -0.5500
28008SOL     OW86030   0.788   8.136   3.345 -0.2016  0.3681  0.7076
28008SOL    HW186031   0.863   8.127   3.404 -1.3149  0.0470  2.1085
28008SOL    HW286032   0.712   8.145   3.402 -1.7017 -2.7377 -0.5588
28009SOL     OW86033   5.288   5.523   8.323  0.0507  0.1611 -0.3300
28009SOL    HW186034   5.323   5.464   8.256 -2.2174  1.0249 -2.4337
28009SOL    HW286035   5.360   5.582   8.344  1.0203 -0.5707 -1.5101
28010SOL     OW86036   4.156   9.753   3.369  0.1807 -0.4115  0.2223
28010SOL    HW186037   4.193   9.743   3.456 -0.6418  0.0957  0.6404
28010SOL    HW286038   4.229   9.737   3.310  0.3764 -2.5087  0.9540
28011SOL     OW86039   1.068   4.982   3.322  0.0420 -0.2089  0.2192
28011SOL    HW186040   1.118   5.050   3.366  1.3388 -2.6955  2.9740
28011SOL    HW286041   1.127   4.906   3.319 -1.2674 -1.2896 -2.7691
28012SOL     OW86042   3.581   9.478  10.556  0.0769 -0.2727 -0.1963
28012SOL    HW186043   3.566   9.571  10.570 -0.2680 -0.3570 -0.0104
28012SOL    HW286044   3.589   9.442  10.644  2.1216 -0.1130 -0.2629
28013SOL     OW86045  10.457   9.670   2.598  0.4550 -0.4167  0.3297
28013SOL    HW186046  10.524   9.672   2.666 -1.0763  0.0627  1.8978
28013SOL    HW286047  10.409   9.752   2.610 -0.1259 -0.5275 -1.0573
28014SOL     OW86048   6.118   4.771   1.384 -0.4570  0.0245 -0.1771
28014SOL    HW186049   6.024   4.754   1.373 -0.5560  0.7428 -0.4846
28014SOL    HW286050   6.122   4.860   1.417  0.1721  0.4672 -1.3975
28015SOL     OW86051   4.175   7.209   9.177  0.2871 -0.2328 -0.6935
28015SOL    HW186052   4.147   7.192   9.267  1.5642  0.4619 -0.1435
28015SOL    HW286053   4.243   7.144   9.160  1.5782  0.9854 -0.3708
28016SOL     OW86054   6.072   4.957   5.736 -0.4128  0.6766 -0.3116
28016SOL    HW186055   6.065   4.959   5.641  0.5694 -0.2474 -0.4200
28016SOL    HW286056   5.982   4.971   5.767 -0.7436  0.9650 -1.3644
28017SOL     OW86057   4.124   7.971   5.350  0.0199 -0.2761 -0.0559
28017SOL    HW186058   4.188   7.976   5.279  0.8745  0.4859  0.7548
28017SOL    HW286059   4.174   7.990   5.430 -0.7139 -2.0181  0.8878
28018SOL     OW86060  10.324  10.284   8.830 -0.0465 -0.6503 -0.1326
28018SOL    HW186061  10.368  10.224   8.890 -0.8322 -0.6528  0.4559
28018SOL    HW286062  10.235  10.248   8.821 -1.5464  1.9242  2.5367
28019SOL     OW86063   6.741   8.656   2.426 -0.4347 -0.0592 -0.0733
28019SOL    HW186064   6.719   8.569   2.393  1.0263 -0.6914  0.5407
28019SOL    HW286065   6.731   8.649   2.521 -0.9462  0.6505 -0.0669
28020SOL     OW86066   7.399   1.340  10.918  0.4122 -0.3993 -0.4503
28020SOL    HW186067   7.399   1.402  10.991  0.6688 -1.9433  0.9349
28020SOL    HW286068   7.412   1.394  10.840 -0.5427  1.3827  0.5655
28021SOL     OW86069   2.852   5.633   0.720  0.2287  0.4722 -0.3830
28021SOL    HW186070   2.863   5.573   0.794 -2.1626  1.3678  0.8101
28021SOL    HW286071   2.757   5.639   0.708  0.5043 -0.2500 -4.1031
28022SOL     OW86072   1.581   2.750   2.897 -0.1569 -0.8005 -0.1618
28022SOL    HW186073   1.524   2.825   2.917  0.4975 -0.3636  0.1026
28022SOL    HW286074   1.667   2.789   2.885 -0.1856 -1.2522 -2.1657
28023SOL     OW86075   9.737   5.342   9.629  0.0374  0.1624  0.1946
28023SOL    HW186076   9.705   5.252   9.622  0.6889  0.0440 -1.6409
28023SOL    HW286077   9.667   5.388   9.675 -0.5914 -1.1259  0.5903
28024SOL     OW86078   3.719   2.825  10.976  0.1507  0.9422 -0.8978
28024SOL    HW186079   3.786   2.840  11.043  0.8167 -0.2917 -1.2532
28024SOL    HW286080   3.764   2.774  10.909 -1.4831 -1.1812 -0.4893
28025SOL     OW86081   7.313   5.573   0.842  0.3396  0.4568  0.4594
28025SOL    HW186082   7.373   5.553   0.771  0.7297  0.3327  0.8238
28025SOL    HW286083   7.226   5.572   0.801  0.4370 -0.8706  0.2456
28026SOL     OW86084   8.776   6.595   8.638  0.0033 -0.3328  0.7702
28026SOL    HW186085   8.804   6.647   8.714 -1.3327 -0.1988  1.1963
28026SOL    HW286086   8.705   6.540   8.671  0.7783 -1.8020  0.0973
28027SOL     OW86087   1.155   0.551   2.465  0.2984 -0.6157  0.1529
28027SOL    HW186088   1.211   0.482   2.501  1.5191 -0.0724 -0.6337
28027SOL    HW286089   1.181   0.630   2.511  0.7795 -0.2061 -0.7853
28028SOL     OW86090   4.160   3.682   9.742 -0.1787  0.2200 -0.2449
28028SOL    HW186091   4.111   3.641   9.813  1.4871  0.3258  1.0408
28028SOL    HW286092   4.093   3.719   9.685 -1.5953 -0.2372  1.0452
28029SOL     OW86093   0.415   6.254   4.753  0.6685  0.6228 -0.2823
28029SOL    HW186094   0.507   6.258   4.777  0.3162  1.7375  0.9411
28029SOL    HW286095   0.368   6.288   4.829 -0.8743 -1.4458 -0.2207
28030SOL     OW86096   2.785   1.709   2.941  0.2016  0.3810 -0.2788
28030SOL    HW186097   2.801   1.645   2.872  0.8179 -0.0333  0.2405
28030SOL    HW286098   2.691   1.727   2.936  0.2495  0.3865 -1.2433
28031SOL     OW86099   1.730  10.536   6.098  0.2942 -0.2859 -0.4026
28031SOL    HW186100   1.688  10.557   6.014  1.2015  0.5242 -0.6697
28031SOL    HW286101   1.665  10.561   6.164  0.3750  1.0794 -0.8093
28032SOL     OW86102   0.994   8.154  10.430 -0.1212 -0.1817 -0.0870
28032SOL    HW186103   0.994   8.059  10.443  0.4642 -0.0958  0.5949
28032SOL    HW286104   1.071   8.185  10.478  0.2611  0.5300 -1.1326
28033SOL     OW86105   8.450   5.163   6.935 -0.3542  0.1145 -0.0616
28033SOL    HW186106   8.399   5.230   6.889 -1.0274 -1.6866 -2.1173
28033SOL    HW286107   8.530   5.154   6.883 -0.7565 -1.3924 -0.4709
28034SOL     OW86108   1.862  10.194   9.217 -0.1157  0.8998  0.2990
28034SOL    HW186109   1.886  10.211   9.307 -0.8250  0.5956  0.5567
28034SOL    HW286110   1.837  10.280   9.182  2.4691  1.4649 -0.3666
28035SOL     OW86111   1.628   4.652   8.990 -0.0673 -0.1086  0.1767
28035SOL    HW186112   1.565   4.677   9.056  0.1883 -1.5879  1.0230
28035SOL    HW286113   1.576   4.613   8.920 -0.5623  3.2396 -1.5363
28036SOL     OW86114   2.888   8.491   8.466 -0.7143 -0.2544 -0.2355
28036SOL    HW186115   2.912   8.477   8.557  3.2004 -0.8450 -1.1770
28036SOL    HW286116   2.882   8.586   8.457  1.0549 -0.0628  0.2404
28037SOL     OW86117   0.771   7.429   0.353  0.2212  0.0349  0.7693
28037SOL    HW186118   0.866   7.442   0.343  0.3194 -1.0456  0.0566
28037SOL    HW286119   0.761   7.334   0.356 -0.8691  0.1405  0.5537
28038SOL     OW86120   0.859   2.557  10.859  0.4130  0.4903 -0.3244
28038SOL    HW186121   0.820   2.629  10.909 -1.8806  0.2631 -1.6632
28038SOL    HW286122   0.818   2.478  10.895  1.6486 -0.0375 -0.0074
28039SOL     OW86123   4.400  10.187   3.497  0.6481  0.4972 -0.2892
28039SOL    HW186124   4.459  10.263   3.503 -0.0403  1.0531 -0.4043
28039SOL    HW286125   4.386  10.175   3.403  1.6853 -0.5266 -0.3380
28040SOL     OW86126   7.550  10.705   1.666 -0.1475 -0.3283  0.2469
28040SOL    HW186127   7.589  10.781   1.622 -0.0477 -0.9156 -0.7040
28040SOL    HW286128   7.456  10.725   1.669  0.0363  0.4387  1.2317
28041SOL     OW86129  10.344   0.838   6.531  0.0607  0.1775 -0.2719
28041SOL    HW186130  10.274   0.878   6.479  0.3939  0.3447 -0.6059
28041SOL    HW286131  10.300   0.777   6.589 -0.2988 -0.2407 -0.9677
28042SOL     OW86132   8.166   6.559   4.092  0.5435  0.5397  0.0920
28042SOL    HW186133   8.127   6.580   4.007  0.9831  1.3824  0.0830
28042SOL    HW286134   8.100   6.506   4.136  0.5429 -0.3981 -0.9885
28043SOL     OW86135   3.539   6.706   3.132  0.6928  0.1141  0.8557
28043SOL    HW186136   3.589   6.664   3.061  0.7115 -0.2859  1.1027
28043SOL    HW286137   3.500   6.633   3.179 -1.5725  0.4644 -0.3582
28044SOL     OW86138   7.326   9.412   4.449 -0.0719  0.0193  0.0573
28044SOL    HW186139   7.232   9.423   4.431  0.0051  0.1090 -0.2959
28044SOL    HW286140   7.369   9.476   4.393  0.3352 -1.5653 -1.5340
28045SOL     OW86141   4.465   7.262   7.345 -0.4332 -0.5982  0.4950
28045SOL    HW186142   4.552   7.300   7.335 -0.4057  0.2541  3.2923
28045SOL    HW286143   4.473   7.200   7.417 -1.9856 -1.0076  0.3647
28046SOL     OW86144   2.086   6.916   4.597  0.7879  0.6121  0.6183
28046SOL    HW186145   2.166   6.948   4.555 -0.0933  1.5854 -0.3807
28046SOL    HW286146   2.049   6.993   4.641  0.6591  0.0534  1.5242
28047SOL     OW86147   1.216   3.024  10.677  0.3938  0.0727 -0.1833
28047SOL    HW186148   1.166   3.100  10.706  1.8310  0.4136  1.5579
28047SOL    HW286149   1.305   3.056  10.665  1.0041 -1.2819  0.4668
28048SOL     OW86150   6.635   2.816   0.907 -0.3335  0.2793 -0.1799
28048SOL    HW186151   6.617   2.763   0.984  1.0594  0.5847  0.3878
28048SOL    HW286152   6.685   2.891   0.940 -0.0841  0.6445 -1.3168
28049SOL     OW86153  10.083   6.938   4.998  0.4504  0.0787 -0.5966
28049SOL    HW186154  10.011   6.937   5.061 -0.3661 -1.0363 -1.5158
28049SOL    HW286155  10.162   6.930   5.052 -0.2630 -1.5910  0.2682
28050SOL     OW86156   1.703   0.542   3.843  0.2676 -0.2575  0.0806
28050SOL    HW186157   1.662   0.627   3.830  0.8526 -0.1888 -1.6634
28050SOL    HW286158   1.630   0.481   3.853 -0.1566  0.3960  1.1120
28051SOL     OW86159   2.622   5.592   8.626  0.4155  0.0900  0.1047
28051SOL    HW186160   2.544   5.647   8.625  0.9016  0.7824 -0.0698
28051SOL    HW286161   2.677   5.630   8.695  0.2533 -0.8866  0.7927
28052SOL     OW86162   4.457   8.823  10.492 -0.2518  0.4726  0.1528
28052SOL    HW186163   4.364   8.840  10.484 -0.4465 -1.2206 -2.3383
28052SOL    HW286164   4.493   8.902  10.533 -2.6358  1.4981  0.4134
28053SOL     OW86165  10.408   4.384  10.895 -0.4887 -0.3299 -0.2184
28053SOL    HW186166  10.399   4.295  10.860  1.0500 -0.8052  0.5018
28053SOL    HW286167  10.349   4.386  10.970  0.5488 -1.2830  0.6724
28054SOL     OW86168   5.043   7.860   3.599  0.1031 -0.0185  0.0434
28054SOL    HW186169   5.122   7.896   3.559 -0.1014  0.6317  0.2228
28054SOL    HW286170   5.046   7.767   3.577  0.1725  0.2626 -1.1790
28055SOL     OW86171   0.349   4.522   9.410  0.5957 -0.1396 -0.0124
28055SOL    HW186172   0.367   4.607   9.370 -1.5555  0.8051  0.8979
28055SOL    HW286173   0.424   4.506   9.467  1.0005  1.1806 -0.1523
28056SOL     OW86174   6.227   3.824   4.362 -0.4039 -0.4778 -0.5183
28056SOL    HW186175   6.228   3.728   4.369  0.4054 -0.5712 -1.5521
28056SOL    HW286176   6.225   3.855   4.453 -0.3592 -1.4767 -0.1628
28057SOL     OW86177   1.346   1.785   1.990 -0.1767 -0.6938 -0.4314
28057SOL    HW186178   1.380   1.807   1.903  0.2875 -1.0254 -0.3404
28057SOL    HW286179   1.312   1.696   1.980 -1.4615 -0.2011 -0.6375
28058SOL     OW86180   4.176   6.829   5.649 -0.2586 -0.2438 -0.2714
28058SOL    HW186181   4.107   6.893   5.667  0.5230  0.9482 -1.3605
28058SOL    HW286182   4.223   6.821   5.732 -1.4179 -0.7463  0.3610
28059SOL     OW86183   3.112   6.721   5.837 -0.2189  0.1464 -0.2317
28059SOL    HW186184   3.126   6.693   5.927 -0.8851 -1.3098 -0.5626
28059SOL    HW286185   3.200   6.734   5.802  0.0434  0.9026  0.6665
28060SOL     OW86186  10.186   7.897   6.609  0.3233  0.3910  0.3526
28060SOL    HW186187  10.177   7.819   6.554 -0.2855 -0.8734  2.1424
28060SOL    HW286188  10.268   7.937   6.580  1.3436 -1.6307  0.2148
28061SOL     OW86189   9.296   4.139   3.230 -0.8528 -0.1258 -0.6588
28061SOL    HW186190   9.376   4.100   3.196  0.7149  1.0413  1.3884
28061SOL    HW286191   9.283   4.218   3.178  1.1063  1.2610  0.7865
28062SOL     OW86192  10.694   8.531   3.064 -0.3833  0.2882 -0.2710
28062SOL    HW186193  10.719   8.456   3.010 -1.0976  0.2763 -0.6075
28062SOL    HW286194  10.613   8.564   3.023 -0.1181  1.1977 -0.0875
28063SOL     OW86195   7.318   5.171   7.258 -0.0396  0.2958  0.0193
28063SOL    HW186196   7.338   5.112   7.331  3.3560  1.0466 -0.1173
28063SOL    HW286197   7.386   5.238   7.262  0.5543  0.1974 -3.9672
28064SOL     OW86198   2.058   3.488   7.328  0.3877 -0.2724  0.5736
28064SOL    HW186199   2.028   3.503   7.418  1.9734  1.3637  0.8916
28064SOL    HW286200   2.150   3.463   7.338  1.5017  2.8279 -0.6295
28065SOL     OW86201   0.083   2.283   6.176  0.0393 -0.1691 -0.4198
28065SOL    HW186202   0.040   2.367   6.195 -0.9863 -0.7068 -0.3278
28065SOL    HW286203   0.012   2.224   6.153  0.5985 -1.3964  0.8511
28066SOL     OW86204   5.109   0.138   3.440  0.7211 -0.0419 -0.5505
28066SOL    HW186205   5.197   0.175   3.447  0.7704 -0.3467  0.6916
28066SOL    HW286206   5.123   0.044   3.428  0.5792 -0.2126  0.5025
28067SOL     OW86207   8.685   6.413  10.283 -0.3284 -0.0789  0.2129
28067SOL    HW186208   8.680   6.424  10.188  0.4900 -1.2906 -0.0036
28067SOL    HW286209   8.731   6.491  10.314  1.3880 -0.6796 -0.6731
28068SOL     OW86210   6.130   9.313   4.127 -0.2097 -0.1604 -0.0716
28068SOL    HW186211   6.137   9.293   4.033  1.1903 -0.2529  0.0262
28068SOL    HW286212   6.071   9.246   4.161 -1.0602  0.1174 -0.9523
28069SOL     OW86213   8.134  10.433   7.444 -0.3226 -0.0132  0.8664
28069SOL    HW186214   8.161  10.445   7.535  1.6647 -2.2008  0.6423
28069SOL    HW286215   8.111  10.340   7.437 -0.8716  0.2025 -0.7748
28070SOL     OW86216   6.784   0.742   4.751 -0.2658 -0.0961  0.6274
28070SOL    HW186217   6.816   0.758   4.839  0.3965 -1.1363  0.5929
28070SOL    HW286218   6.857   0.699   4.706 -1.3487 -1.6046  0.2337
28071SOL     OW86219   2.039   2.777   8.339 -0.1541  0.0202 -0.2058
28071SOL    HW186220   1.953   2.812   8.315  0.0073  0.8112  0.3326
28071SOL    HW286221   2.045   2.791   8.433  0.5023 -0.1682 -0.2187
28072SOL     OW86222   9.523   3.241   7.274 -0.0396 -0.1371 -0.1802
28072SOL    HW186223   9.609   3.253   7.314 -0.4147  0.1241  0.5576
28072SOL    HW286224   9.469   3.202   7.343 -1.1298  1.7674  0.0921
28073SOL     OW86225   6.505   8.724   6.994 -0.0849 -0.0683 -0.4393
28073SOL    HW186226   6.425   8.727   7.046 -1.6873  0.2189 -2.7538
28073SOL    HW286227   6.550   8.805   7.016 -0.6035 -0.0538  0.6359
28074SOL     OW86228   6.524   6.808   8.308 -0.4938  0.1036 -0.3751
28074SOL    HW186229   6.590   6.745   8.280 -2.1035 -2.4148  1.0815
28074SOL    HW286230   6.519   6.871   8.236  0.3722 -2.1289 -2.5495
28075SOL     OW86231   7.670   2.901   7.505 -0.1705 -0.1812  0.2882
28075SOL    HW186232   7.720   2.881   7.426 -1.0835 -1.0221 -0.0871
28075SOL    HW286233   7.733   2.946   7.562  0.1740  1.6767 -1.4150
28076SOL     OW86234   3.509   0.745   7.004 -0.1165  0.1560  0.6982
28076SOL    HW186235   3.580   0.735   7.067  1.0328  1.3852 -0.3234
28076SOL    HW286236   3.551   0.738   6.919 -1.5520 -0.9850  0.0333
28077SOL     OW86237   6.791   8.014   9.248 -0.1888 -0.0373 -0.4905
28077SOL    HW186238   6.869   8.066   9.268  0.3580 -1.0499  0.1098
28077SOL    HW286239   6.718   8.072   9.268  0.4009  0.3241  0.7303
28078SOL     OW86240  10.849   5.577   0.043  0.1969  0.4427 -0.2508
28078SOL    HW186241  10.826   5.537  -0.040 -0.3905 -0.6526  0.4231
28078SOL    HW286242  10.941   5.601   0.033  0.8295 -1.8244 -0.4196
28079SOL     OW86243   8.300   4.282   7.825 -0.3669 -0.4671 -0.2767
28079SOL    HW186244   8.330   4.348   7.761  0.2989  0.1406  0.6324
28079SOL    HW286245   8.371   4.218   7.827 -0.6726 -0.8220 -0.5987
28080SOL     OW86246   9.010   3.926   8.387  0.1437 -0.2369 -0.7620
28080SOL    HW186247   9.079   3.988   8.410 -0.5191  0.8790 -1.7223
28080SOL    HW286248   9.050   3.840   8.403  0.8406  0.3908  1.2586
28081SOL     OW86249   3.831   7.368  10.098 -0.1718 -0.6943  0.0221
28081SOL    HW186250   3.919   7.404  10.084 -0.9096  0.5080 -2.0697
28081SOL    HW286251   3.842   7.274  10.083  0.8245 -0.6258  0.2210
28082SOL     OW86252   9.782   4.205   2.101  0.4628  0.2195 -0.1762
28082SOL    HW186253   9.777   4.128   2.044 -0.4741 -0.5160  0.8479
28082SOL    HW286254   9.817   4.274   2.045 -2.5261  0.1875 -2.3526
28083SOL     OW86255   9.766   0.984   2.284  0.4920 -0.4697 -0.2176
28083SOL    HW186256   9.708   0.950   2.216 -0.5771 -0.2607  0.5503
28083SOL    HW286257   9.807   0.907   2.321 -1.6088 -0.9832  1.2406
28084SOL     OW86258   1.434   9.504   1.190  0.4512  0.1451  0.0146
28084SOL    HW186259   1.460   9.425   1.237 -1.6232 -0.3987  0.3487
28084SOL    HW286260   1.340   9.493   1.175  0.5297  1.5775 -1.8474
28085SOL     OW86261   4.543   3.463   7.477  0.4604 -0.5837 -0.4112
28085SOL    HW186262   4.589   3.537   7.516  0.6215 -0.9727  0.1429
28085SOL    HW286263   4.451   3.479   7.497  0.4465 -0.2832 -0.7147
28086SOL     OW86264  10.520   7.905   2.750  0.2749 -0.7344 -0.7515
28086SOL    HW186265  10.451   7.962   2.785  0.1945 -2.5004  2.3850
28086SOL    HW286266  10.498   7.818   2.784  2.4972 -1.9215 -2.1067
28087SOL     OW86267   9.568   9.497   0.752  0.1369 -0.2589  0.4771
28087SOL    HW186268   9.663   9.488   0.762  0.3088  0.8355 -0.1185
28087SOL    HW286269   9.550   9.588   0.774 -1.0033 -0.8412  2.1425
28088SOL     OW86270  10.597   4.466   9.836  0.1195  0.0272  0.5973
28088SOL    HW186271  10.511   4.441   9.870 -0.2143  1.2311  0.6890
28088SOL    HW286272  10.646   4.384   9.833 -1.5488 -0.9938 -1.0255
28089SOL     OW86273   0.904   0.450   2.384 -0.0779  0.0285  0.0351
28089SOL    HW186274   0.998   0.453   2.403 -0.1514 -0.1019  0.4159
28089SOL    HW286275   0.876   0.364   2.415 -0.3887  0.2003  0.2302
28090SOL     OW86276   8.303  10.936   5.818  0.3241  0.4187 -0.2209
28090SOL    HW186277   8.390  10.897   5.826  0.4060  0.2617 -1.7031
28090SOL    HW286278   8.242  10.864   5.837  0.4715  0.9015  2.4542
28091SOL     OW86279  11.012   9.410   0.906  0.5971  0.5217  0.0325
28091SOL    HW186280  11.095   9.408   0.954  0.8258 -0.5950 -0.3847
28091SOL    HW286281  10.996   9.319   0.883 -0.9660  0.6587  0.4670
28092SOL     OW86282   6.613   3.359   4.681  0.1373 -0.3619  0.4060
28092SOL    HW186283   6.602   3.307   4.602  0.6537 -0.3661  0.3307
28092SOL    HW286284   6.564   3.311   4.748 -1.3603  0.3113 -0.1797
28093SOL     OW86285   0.741   4.766   8.275 -0.2603 -0.4769 -0.5344
28093SOL    HW186286   0.671   4.708   8.244 -0.4474 -0.4679 -0.1268
28093SOL    HW286287   0.771   4.727   8.357 -0.8912  0.3989  0.1314
28094SOL     OW86288   4.603  10.237   6.060 -0.5288  0.0264  0.5234
28094SOL    HW186289   4.583  10.183   6.136 -0.9343  0.7860  0.9627
28094SOL    HW286290   4.620  10.173   5.990  0.3958 -0.6960  1.3575
28095SOL     OW86291   5.807   5.133  10.040  0.2810  0.6637  0.6444
28095SOL    HW186292   5.756   5.071  10.092  1.5012 -1.0032 -0.0668
28095SOL    HW286293   5.784   5.219  10.076  0.1015 -0.3217  3.0563
28096SOL     OW86294   3.285   7.037   6.617  0.1264  0.0136 -0.2925
28096SOL    HW186295   3.316   6.967   6.560 -2.3648 -0.3827 -1.2728
28096SOL    HW286296   3.276   7.113   6.559 -2.3113 -0.3604 -0.5051
28097SOL     OW86297   1.367   1.372  10.614  0.0318 -0.0399 -0.2485
28097SOL    HW186298   1.460   1.377  10.590  0.2024  1.3768  0.6030
28097SOL    HW286299   1.327   1.448  10.571 -0.7911 -0.7206 -0.7365
28098SOL     OW86300  11.013   8.134   3.385  0.1269 -0.2150  0.4170
28098SOL    HW186301  11.057   8.077   3.322  0.7636 -0.2748  0.9136
28098SOL    HW286302  10.943   8.175   3.334  0.8579  0.0206 -0.4385
28099SOL     OW86303   8.053   7.764   5.884  0.1753  0.0116  0.2483
28099SOL    HW186304   8.113   7.690   5.876  1.2643  0.9039 -0.0076
28099SOL    HW286305   8.020   7.779   5.796  1.4530  1.0319 -0.0862
28100SOL     OW86306   5.804   0.000   6.786 -0.2102  0.0607 -0.5004
28100SOL    HW186307   5.817   0.084   6.742  0.4245 -0.3562 -1.1381
28100SOL    HW286308   5.872  -0.003   6.853 -2.3585  1.5498  1.9266
28101SOL     OW86309   5.229   6.041  10.844  0.9000 -0.2024  0.4748
28101SOL    HW186310   5.149   6.092  10.830  0.8278 -0.2262  0.7913
28101SOL    HW286311   5.300   6.101  10.821  0.8380  0.2337  1.3797
28102SOL     OW86312   3.567  10.272   1.564 -0.3744 -0.0545 -0.2849
28102SOL    HW186313   3.651  10.227   1.557  0.4569  1.5680 -1.0800
28102SOL    HW286314   3.581  10.358   1.524 -2.3551  0.3404 -0.2615
28103SOL     OW86315   6.342   6.070   3.926  0.5980 -0.1749 -0.0464
28103SOL    HW186316   6.316   6.024   3.847  0.2904 -0.2051  0.0686
28103SOL    HW286317   6.260   6.106   3.961  0.6021 -0.8834  0.7199
28104SOL     OW86318   4.512   7.104   0.008  0.3710  0.3762 -0.1316
28104SOL    HW186319   4.542   7.153   0.085  1.9073 -1.8617  0.8021
28104SOL    HW286320   4.417   7.095   0.022  0.2956  1.7970  0.4047
28105SOL     OW86321   2.885   5.171  10.319  0.2852  0.0732 -0.0171
28105SOL    HW186322   2.908   5.131  10.403 -1.0202 -0.1866  0.2481
28105SOL    HW286323   2.820   5.237  10.342  1.2123  1.2389 -0.6408
28106SOL     OW86324   1.122   5.572   1.125 -0.3689  0.5130 -0.4827
28106SOL    HW186325   1.118   5.477   1.108 -0.5472  0.6540 -1.2745
28106SOL    HW286326   1.088   5.581   1.214  1.3237 -0.3443  0.2927
28107SOL     OW86327   7.923   8.182   0.348  0.0060  0.3897  0.2063
28107SOL    HW186328   7.889   8.263   0.309  0.4233  0.1732 -0.6428
28107SOL    HW286329   7.969   8.139   0.276  1.9873  0.6095  1.2583
28108SOL     OW86330   3.734   7.650   5.638 -0.2242  0.2751  0.0386
28108SOL    HW186331   3.714   7.560   5.661  2.2871 -0.2787  0.3378
28108SOL    HW286332   3.787   7.683   5.711 -1.3875  2.1619  0.1267
28109SOL     OW86333   4.006   2.963   2.438  0.1115 -0.0383  0.1173
28109SOL    HW186334   4.044   2.902   2.375  1.8237 -0.2535  1.2771
28109SOL    HW286335   4.069   2.965   2.511 -0.1787  2.6155  0.4200
28110SOL     OW86336   1.638  10.252   4.706  0.2210 -0.1882 -0.0568
28110SOL    HW186337   1.564  10.206   4.747 -2.1475  3.2451 -0.0300
28110SOL    HW286338   1.708  10.248   4.771 -0.0975 -2.8421  0.2638
28111SOL     OW86339   7.769   7.859   9.437 -0.0943  0.8414 -0.0602
28111SOL    HW186340   7.849   7.898   9.403  0.3721  0.6297  0.7569
28111SOL    HW286341   7.763   7.774   9.394  2.2112 -0.8567  2.5762
28112SOL     OW86342   2.244   6.858   5.632 -0.1258 -0.0724  0.1445
28112SOL    HW186343   2.188   6.916   5.683  0.4179  0.6516 -0.0680
28112SOL    HW286344   2.333   6.885   5.654  0.1620 -1.3903  0.6892
28113SOL     OW86345   3.388   9.441   1.619  0.1058  0.1032  0.3442
28113SOL    HW186346   3.386   9.537   1.623 -1.7734  0.3095 -2.6483
28113SOL    HW286347   3.480   9.418   1.631  0.8637  2.4047 -0.5512
28114SOL     OW86348   7.703   9.617   6.305  0.5711  0.3100 -0.3394
28114SOL    HW186349   7.778   9.558   6.311 -0.2102 -0.5618  1.5108
28114SOL    HW286350   7.631   9.560   6.278  0.1869  0.7950 -0.3328
28115SOL     OW86351   3.714   4.879   8.412 -0.0383  0.1060 -0.3999
28115SOL    HW186352   3.717   4.878   8.507 -1.0874  0.1969 -0.3600
28115SOL    HW286353   3.679   4.793   8.388 -0.2715  0.2761 -0.6809
28116SOL     OW86354   0.569   1.952   1.703 -0.1584 -0.0485  0.6612
28116SOL    HW186355   0.619   1.926   1.625 -0.3126 -0.4384  0.6871
28116SOL    HW286356   0.631   1.941   1.776 -0.4475 -1.0977  0.7634
28117SOL     OW86357   6.591   3.720   2.443  0.1718 -0.4956 -0.3414
28117SOL    HW186358   6.610   3.691   2.354  0.1474 -0.7181 -0.2745
28117SOL    HW286359   6.498   3.701   2.455 -0.2203  0.9827 -0.8190
28118SOL     OW86360   0.396   9.907   5.102  0.4785  0.4230  0.4430
28118SOL    HW186361   0.416   9.963   5.027  0.5250 -1.4395 -0.9997
28118SOL    HW286362   0.463   9.929   5.167  1.6622  0.6800 -0.8279
28119SOL     OW86363   6.414   5.120   7.504  0.2555  0.3716  0.5291
28119SOL    HW186364   6.478   5.191   7.515 -0.1174  0.7916  0.0594
28119SOL    HW286365   6.428   5.089   7.414 -1.3245  1.6297 -0.2046
28120SOL     OW86366   5.328  10.746   6.376  0.3850  0.2508 -0.2325
28120SOL    HW186367   5.412  10.783   6.350 -0.0151  1.7723  0.5315
28120SOL    HW286368   5.321  10.764   6.470 -0.8491  0.3009 -0.3160
28121SOL     OW86369   7.659   4.145   1.167  0.2120  0.1018  0.6448
28121SOL    HW186370   7.691   4.125   1.254  2.1362  0.0387 -0.0225
28121SOL    HW286371   7.738   4.147   1.112 -0.9032  0.4078 -1.0379
28122SOL     OW86372   6.033   1.897   3.794 -0.9861 -0.2409 -0.5485
28122SOL    HW186373   5.941   1.893   3.768 -1.0494  2.7784 -1.2190
28122SOL    HW286374   6.073   1.955   3.729  0.6554  1.0336  1.4756
28123SOL     OW86375   1.254   3.053   4.058  0.0635  0.0019  0.6665
28123SOL    HW186376   1.340   3.019   4.084  1.3290  0.5067 -2.4098
28123SOL    HW286377   1.226   2.995   3.988 -2.1968 -0.1768  1.6580
28124SOL     OW86378  10.409   0.391   5.750  0.7445 -0.2098 -0.1791
28124SOL    HW186379  10.319   0.409   5.724  1.1508 -0.0802 -1.5854
28124SOL    HW286380  10.418   0.435   5.835  0.7786  3.8924 -2.0237
28125SOL     OW86381   1.649   9.280   7.967  0.3685 -0.8108 -0.7724
28125SOL    HW186382   1.593   9.220   7.918  0.4508 -1.0166 -0.6134
28125SOL    HW286383   1.613   9.367   7.948 -0.0377 -0.9455 -0.6359
28126SOL     OW86384   7.864   2.043   9.815 -0.1638 -0.2048 -0.4398
28126SOL    HW186385   7.769   2.038   9.823 -0.3636  1.9198 -0.9805
28126SOL    HW286386   7.896   2.042   9.906 -0.8435  0.8190 -0.1726
28127SOL     OW86387   3.913   4.914   3.546  0.1331  0.9260  0.4497
28127SOL    HW186388   3.908   4.892   3.639 -0.4282 -0.7363  0.0592
28127SOL    HW286389   3.845   4.861   3.505  3.0379 -1.6947 -1.4765
28128SOL     OW86390   9.747   1.661   1.413  0.5694 -0.5051 -0.2315
28128SOL    HW186391   9.743   1.663   1.318  4.5521 -1.1081 -0.6125
28128SOL    HW286392   9.806   1.733   1.436 -1.5806  0.6724  1.9880
28129SOL     OW86393   6.471   7.820   4.711  0.5433  0.4446  0.0247
28129SOL    HW186394   6.421   7.828   4.792  1.0582 -0.2114  0.4167
28129SOL    HW286395   6.409   7.845   4.642 -0.5607 -1.0376  0.4281
28130SOL     OW86396   6.282   1.382   4.780 -0.1860  0.3230 -0.4804
28130SOL    HW186397   6.189   1.362   4.791  0.4645 -3.0498  0.0222
28130SOL    HW286398   6.305   1.343   4.695  1.1324 -0.7105  0.3075
28131SOL     OW86399   0.379   6.923   5.307  0.6623  0.6001  0.0396
28131SOL    HW186400   0.430   6.885   5.236  0.4852 -1.3144  0.8748
28131SOL    HW286401   0.440   6.924   5.382  0.1730  0.4808  0.4412
28132SOL     OW86402  11.004   0.314   3.493 -0.1052 -0.0529 -0.3716
28132SOL    HW186403  10.969   0.401   3.514  0.8100  0.0910  0.6511
28132SOL    HW286404  10.929   0.267   3.457 -1.2185  0.4534  1.1556
28133SOL     OW86405   7.260   9.970   5.900  0.6284  0.1401  0.2334
28133SOL    HW186406   7.203   9.901   5.867  1.0720 -0.4470  0.6796
28133SOL    HW286407   7.244   9.971   5.995 -0.8476  1.9976  0.0273
28134SOL     OW86408  10.037   6.245   3.880 -0.0193  0.2309  0.2539
28134SOL    HW186409  10.072   6.262   3.967  0.3226  0.2837  0.1063
28134SOL    HW286410  10.080   6.164   3.852  0.1131  0.3887  0.0025
28135SOL     OW86411   1.278   6.250   1.562 -0.1119 -0.5088 -0.1658
28135SOL    HW186412   1.224   6.306   1.617  1.0619  0.0457  0.4638
28135SOL    HW286413   1.274   6.290   1.475 -2.3096 -1.6192 -0.6633
28136SOL     OW86414   0.253   0.473   1.634  0.1461 -0.0869 -0.0544
28136SOL    HW186415   0.211   0.445   1.715  0.0246  0.9639  0.2620
28136SOL    HW286416   0.252   0.569   1.638  1.3183 -0.0317 -0.6905
28137SOL     OW86417   3.403   6.561   0.248  0.0825  0.2815  0.8559
28137SOL    HW186418   3.428   6.572   0.156 -3.0519  0.7422 -0.0711
28137SOL    HW286419   3.367   6.472   0.253  0.6429  0.0847  1.7990
28138SOL     OW86420   2.624   6.822   1.564  0.4158 -0.5432  0.3797
28138SOL    HW186421   2.537   6.799   1.531 -0.5986  1.6703  1.2891
28138SOL    HW286422   2.656   6.888   1.502 -0.2865  1.5277  2.0882
28139SOL     OW86423   1.583   5.331   6.296  0.0535 -0.2793 -0.0637
28139SOL    HW186424   1.656   5.292   6.249  1.2702  1.0653  0.6066
28139SOL    HW286425   1.579   5.421   6.263  0.0846  0.2896  1.4214
28140SOL     OW86426   2.034  10.706   3.401 -0.2923 -0.1429  0.3545
28140SOL    HW186427   2.092  10.700   3.325 -0.4188 -0.9509  0.3190
28140SOL    HW286428   2.093  10.699   3.476 -0.3234 -0.8412  0.3189
28141SOL     OW86429   7.914   3.194   7.249 -0.1224  0.2520 -0.2631
28141SOL    HW186430   7.900   3.216   7.342 -1.7822  0.4271 -0.5262
28141SOL    HW286431   7.827   3.171   7.217  0.6980 -1.4153 -1.3894
28142SOL     OW86432   6.893   2.681   8.025 -0.2800  0.3740 -0.2359
28142SOL    HW186433   6.939   2.657   8.105 -0.7735 -0.2320 -0.1169
28142SOL    HW286434   6.961   2.686   7.958 -0.0013 -0.2272 -0.0052
28143SOL     OW86435   5.218   6.982  10.401 -0.3045  0.0890  0.5402
28143SOL    HW186436   5.138   7.024  10.371  1.2676  2.5427 -0.5374
28143SOL    HW286437   5.288   7.024  10.350  1.5714 -3.0882  0.2253
28144SOL     OW86438   7.484   7.777   1.974  0.4002  0.0465 -0.3920
28144SOL    HW186439   7.467   7.687   2.004 -0.4736  0.1520 -0.5372
28144SOL    HW286440   7.397   7.813   1.958  0.7230  1.0859  0.1320
28145SOL     OW86441   9.500   9.968  10.005  0.4361  0.5322 -0.1972
28145SOL    HW186442   9.534  10.052  10.035  1.6414  0.5910 -1.6575
28145SOL    HW286443   9.493   9.977   9.910  2.5400 -1.6757 -0.6275
28146SOL     OW86444   0.923   2.113   2.395  0.2863  0.5884 -0.2475
28146SOL    HW186445   0.872   2.080   2.322  0.5613 -0.0092 -0.1761
28146SOL    HW286446   0.881   2.077   2.473  1.1981 -0.4630 -0.2203
28147SOL     OW86447   5.991   2.730   0.392 -0.2910  0.4541 -0.2460
28147SOL    HW186448   5.971   2.641   0.422  1.1597 -0.1562 -0.9911
28147SOL    HW286449   5.990   2.783   0.471 -0.8446 -0.2925  0.2590
28148SOL     OW86450   7.421   9.137   4.982 -0.1289 -0.1425 -0.3713
28148SOL    HW186451   7.385   9.049   4.973 -1.3574  0.5477 -4.0503
28148SOL    HW286452   7.344   9.193   4.989  0.6435  0.7261  2.8954
28149SOL     OW86453   2.548   6.149   9.406  0.0431 -0.4051  0.3813
28149SOL    HW186454   2.536   6.228   9.459 -2.7994  1.1469 -2.1880
28149SOL    HW286455   2.528   6.077   9.465  1.6714  0.8069  2.5492
28150SOL     OW86456   3.650  10.057   8.481  0.3690  0.3866 -0.1956
28150SOL    HW186457   3.561  10.088   8.498  0.8151  0.6404  1.9918
28150SOL    HW286458   3.698  10.136   8.456  0.0904  0.3108 -1.0105
28151SOL     OW86459   3.456   3.141  10.773 -0.2275  0.1062  0.0811
28151SOL    HW186460   3.442   3.149  10.867 -0.6371 -1.7706  0.2167
28151SOL    HW286461   3.418   3.056  10.750  1.2965 -0.2066 -1.4941
28152SOL     OW86462   3.220   2.362   4.782 -0.3527 -0.6003  0.2388
28152SOL    HW186463   3.212   2.294   4.715 -1.3535  0.3531 -0.6657
28152SOL    HW286464   3.134   2.364   4.824 -0.1158 -0.3669  0.7215
28153SOL     OW86465   9.337   2.081   4.085 -0.1987  0.3516 -0.0141
28153SOL    HW186466   9.327   2.036   4.169 -1.0130 -1.8351 -1.1965
28153SOL    HW286467   9.424   2.056   4.054 -0.4958 -0.1261 -0.4899
28154SOL     OW86468   1.885   9.389   0.418  0.0879 -0.5170 -0.1695
28154SOL    HW186469   1.944   9.465   0.415 -0.5115 -0.0026  0.5788
28154SOL    HW286470   1.936   9.317   0.381  0.6143  0.2893 -1.0592
28155SOL     OW86471   5.377   0.434   0.175  0.1988  0.8736  0.2340
28155SOL    HW186472   5.438   0.366   0.202 -0.0015  0.2914 -0.7269
28155SOL    HW286473   5.290   0.397   0.194  0.0899  0.8419 -0.2986
28156SOL     OW86474  10.514  10.782   4.211 -0.3244  0.0252 -0.0467
28156SOL    HW186475  10.449  10.713   4.225 -1.9763  1.5017 -0.1003
28156SOL    HW286476  10.494  10.818   4.125  1.1441 -0.0359 -0.4516
28157SOL     OW86477   1.256   8.296   1.573 -0.0821 -0.1986 -0.1303
28157SOL    HW186478   1.352   8.290   1.566  0.0659  2.0651 -1.0238
28157SOL    HW286479   1.241   8.336   1.659 -0.1790 -0.0375 -0.2212
28158SOL     OW86480   0.640   3.599  10.082 -0.0245  0.0172 -0.0063
28158SOL    HW186481   0.691   3.629  10.007  0.1488  0.1013  0.1449
28158SOL    HW286482   0.687   3.521  10.113 -0.0610  0.0186  0.0524
28159SOL     OW86483   1.466   7.782   6.569  0.0872 -0.3965  0.1213
28159SOL    HW186484   1.400   7.809   6.633  0.6816 -0.2781  0.6995
28159SOL    HW286485   1.513   7.711   6.613  1.4422  0.6454  0.4150
28160SOL     OW86486   3.901   2.874   2.059  0.0547 -0.1480 -0.5899
28160SOL    HW186487   3.913   2.936   1.987  0.3056 -1.5073 -1.7745
28160SOL    HW286488   3.982   2.878   2.109  0.2429  0.1449 -0.9189
28161SOL     OW86489  10.414   8.211   6.702 -0.0883  0.1106 -0.3993
28161SOL    HW186490  10.323   8.196   6.729  0.1926  0.6138  0.9172
28161SOL    HW286491  10.455   8.250   6.779  1.3356 -0.4076 -0.8769
28162SOL     OW86492   3.679   0.741  10.375  0.1114  0.2122  0.3155
28162SOL    HW186493   3.735   0.792  10.434  2.9364  0.1561 -2.1071
28162SOL    HW286494   3.693   0.779  10.289 -1.4617 -1.6215 -0.8362
28163SOL     OW86495   6.036   1.751   9.224  0.3101 -0.4129  0.4320
28163SOL    HW186496   5.974   1.712   9.162 -1.1962 -0.0333  1.6434
28163SOL    HW286497   6.122   1.730   9.188 -0.5036 -0.5846 -1.5384
28164SOL     OW86498   0.451   0.841   4.821  0.4249 -0.4316 -0.0325
28164SOL    HW186499   0.394   0.918   4.826 -0.9904 -1.4080 -0.3509
28164SOL    HW286500   0.435   0.793   4.902  0.5011 -0.9080 -0.2907
28165SOL     OW86501   6.248   4.965   9.603  0.1122 -0.0339  0.8384
28165SOL    HW186502   6.270   4.903   9.533  1.4690 -0.9323  1.9986
28165SOL    HW286503   6.331   5.010   9.621 -0.8406  2.1544  0.0496
28166SOL     OW86504   6.553  10.048   6.460 -0.4524 -0.2068  0.2726
28166SOL    HW186505   6.479  10.014   6.409 -0.1697  1.1595 -1.1351
28166SOL    HW286506   6.566  10.137   6.427  3.5169 -1.2356 -1.5473
28167SOL     OW86507   1.724   8.504   4.110 -0.3809 -0.2100 -0.6230
28167SOL    HW186508   1.688   8.431   4.162 -0.6508  1.1591  1.2088
28167SOL    HW286509   1.667   8.509   4.034 -2.0389 -0.2601  0.5493
28168SOL     OW86510   7.526   7.033  10.063 -0.5599  0.1781  0.1121
28168SOL    HW186511   7.505   7.085  10.141  2.3710 -0.2539  1.3012
28168SOL    HW286512   7.492   6.946  10.084  1.3989 -0.3004  1.6365
28169SOL     OW86513   1.868  10.525   9.449 -0.5414 -0.1268  0.2478
28169SOL    HW186514   1.843  10.528   9.541 -0.1051  0.6005  0.3470
28169SOL    HW286515   1.946  10.580   9.443  1.2567 -2.5372 -0.0079
28170SOL     OW86516   6.629   9.334   6.111  0.8255 -0.8139 -0.0961
28170SOL    HW186517   6.716   9.360   6.141  0.4660  1.7244 -1.0433
28170SOL    HW286518   6.632   9.346   6.016  0.5855 -4.5253 -0.7525
28171SOL     OW86519   7.926   8.691   0.206  0.2424 -0.0608  0.1027
28171SOL    HW186520   8.003   8.744   0.226  0.1357  0.6786 -1.3056
28171SOL    HW286521   7.926   8.683   0.111 -0.7688 -1.0563  0.1576
28172SOL     OW86522   2.317   7.401   6.938 -0.2770  0.7634 -0.6336
28172SOL    HW186523   2.412   7.398   6.951 -0.0908 -1.8919 -1.9888
28172SOL    HW286524   2.306   7.451   6.858  0.0788  0.2310 -1.0228
28173SOL     OW86525   4.751   7.289   0.122  0.0867 -0.1128  0.1665
28173SOL    HW186526   4.840   7.314   0.147  1.1530 -1.8147 -1.6797
28173SOL    HW286527   4.756   7.273   0.028 -1.9003 -1.3218  0.2099
28174SOL     OW86528   0.723   6.783   6.605 -0.2832  0.6928 -0.0354
28174SOL    HW186529   0.763   6.770   6.519  1.5136  0.5780  0.7814
28174SOL    HW286530   0.659   6.854   6.591  0.9114  1.5849 -1.1923
28175SOL     OW86531   7.696   0.306   8.504  0.7163 -0.4871  0.0620
28175SOL    HW186532   7.780   0.306   8.458  1.0426 -0.2487  0.6404
28175SOL    HW286533   7.700   0.231   8.563  0.5795 -0.3994  0.1847
28176SOL     OW86534  10.076   5.421   3.525  0.2189 -0.0738 -0.1423
28176SOL    HW186535  10.144   5.489   3.528 -0.0090  0.1150  2.0539
28176SOL    HW286536  10.078   5.381   3.612 -2.0196 -0.5313 -0.2438
28177SOL     OW86537   6.331   6.955   5.807 -0.0699  0.2734 -0.1418
28177SOL    HW186538   6.245   6.914   5.818  0.6835 -1.2036  0.4524
28177SOL    HW286539   6.366   6.961   5.896  0.7534  0.1460 -0.4525
28178SOL     OW86540   4.795   4.357  10.545 -0.0146  0.3333 -0.4525
28178SOL    HW186541   4.741   4.280  10.530 -1.2928  1.5370 -2.6572
28178SOL    HW286542   4.872   4.344  10.490 -0.5537  0.8727 -1.3698
28179SOL     OW86543   0.978   6.760   8.827 -0.0105  0.2800  0.9901
28179SOL    HW186544   1.018   6.676   8.804 -0.8046 -0.1718  1.2374
28179SOL    HW286545   0.932   6.787   8.748  1.9033  1.5144  0.2044
28180SOL     OW86546   3.999  11.030   7.042  0.1679 -0.3856 -0.3257
28180SOL    HW186547   3.949  11.049   6.963  0.5755 -0.8372 -0.6995
28180SOL    HW286548   3.946  10.966   7.089  0.7205 -1.4093 -1.0717
28181SOL     OW86549   9.450   9.134   2.321  0.4225  0.2523  0.6490
28181SOL    HW186550   9.452   9.045   2.356 -0.3852  0.4542  1.2326
28181SOL    HW286551   9.358   9.158   2.322  0.4767  0.6051 -0.7810
28182SOL     OW86552   0.556  10.913  10.751  0.2738 -0.1906  0.2945
28182SOL    HW186553   0.648  10.932  10.729  0.0038  1.8738  0.7043
28182SOL    HW286554   0.561  10.851  10.823  1.3137 -0.8887 -0.3397
28183SOL     OW86555   9.115   2.154   8.702  0.1497  0.3664  0.5445
28183SOL    HW186556   9.149   2.146   8.613  0.9272  0.7440  0.8017
28183SOL    HW286557   9.075   2.242   8.704  1.5110  0.9983  1.0139
28184SOL     OW86558   9.551   4.880   0.713  0.4736  0.1273  0.2216
28184SOL    HW186559   9.463   4.915   0.717  0.0932 -0.5923 -1.2391
28184SOL    HW286560   9.540   4.785   0.718  0.9394 -0.1129 -2.2160
28185SOL     OW86561   4.694   9.070  10.318  0.4615 -0.4748  0.0191
28185SOL    HW186562   4.725   9.148  10.363  1.4595 -0.3859 -0.7912
28185SOL    HW286563   4.643   9.103  10.244 -0.1869 -0.6094  0.3981
28186SOL     OW86564   5.752   5.103   0.151  0.1154 -0.3210  0.1307
28186SOL    HW186565   5.816   5.162   0.111  1.4852 -1.0070  1.2245
28186SOL    HW286566   5.751   5.128   0.243 -2.0342  0.3871 -0.0359
28187SOL     OW86567   5.732   2.271   5.234  0.0967 -0.0028  0.1702
28187SOL    HW186568   5.743   2.335   5.164  0.9079  1.2506  1.3779
28187SOL    HW286569   5.645   2.287   5.268  0.1066  0.1129  0.1406
28188SOL     OW86570   4.727   1.911   3.619  0.6243 -0.3608 -0.5124
28188SOL    HW186571   4.643   1.870   3.639 -0.3473  1.6147 -0.2442
28188SOL    HW286572   4.721   1.935   3.527  0.4292  0.7405 -0.2303
28189SOL     OW86573   1.579   3.502   1.141 -0.2429 -0.1207  0.2575
28189SOL    HW186574   1.504   3.468   1.190  1.3251 -0.4098  2.5758
28189SOL    HW286575   1.614   3.425   1.096 -1.8287  0.1899 -1.6707
28190SOL     OW86576   2.380   2.881  10.907  0.2297  0.2079 -0.0703
28190SOL    HW186577   2.355   2.956  10.853 -0.1740  0.1697  0.0607
28190SOL    HW286578   2.410   2.920  10.989  0.3401  0.2415 -0.1263
28191SOL     OW86579   3.609   2.197   5.123 -0.0664  0.5617  0.5440
28191SOL    HW186580   3.652   2.229   5.202  0.6681 -0.3217  0.5208
28191SOL    HW286581   3.660   2.234   5.051  1.2048 -1.1294  0.5183
28192SOL     OW86582  10.537   0.488   5.988  0.0420  0.3117  0.1844
28192SOL    HW186583  10.573   0.510   6.074  0.3863 -1.4342  0.5326
28192SOL    HW286584  10.467   0.553   5.974  1.9685  2.5476  0.3576
28193SOL     OW86585   9.926   2.805   9.754  0.2628  0.8820  0.2009
28193SOL    HW186586  10.006   2.777   9.799 -0.7740 -0.7589  1.1119
28193SOL    HW286587   9.934   2.901   9.750  2.0948  0.7933  0.5771
28194SOL     OW86588   2.168   6.279   3.387  0.3544 -0.2167 -0.2613
28194SOL    HW186589   2.175   6.297   3.481 -0.5239 -1.6097  0.1035
28194SOL    HW286590   2.235   6.213   3.370  1.0437  0.5994 -0.7967
28195SOL     OW86591   2.237   4.707   0.912  0.3479 -0.8386 -0.1837
28195SOL    HW186592   2.152   4.665   0.927 -0.1873  0.7785  1.7922
28195SOL    HW286593   2.300   4.636   0.915 -0.7919 -1.8964 -0.2455
28196SOL     OW86594   5.662   7.062   3.137  0.3201 -0.0717  0.4598
28196SOL    HW186595   5.682   7.153   3.160 -0.5618 -0.1104  1.4510
28196SOL    HW286596   5.584   7.067   3.082  0.7935 -0.1723 -0.2233
28197SOL     OW86597   4.154   8.103   2.071 -0.1871 -0.1862 -0.1596
28197SOL    HW186598   4.218   8.074   2.006 -1.6792  1.2994 -2.4656
28197SOL    HW286599   4.073   8.114   2.021 -1.5504  0.6337  2.0753
28198SOL     OW86600   0.269   7.338   4.664  0.6773 -0.4218  0.2137
28198SOL    HW186601   0.215   7.323   4.741  1.1534 -0.7758  0.4879
28198SOL    HW286602   0.328   7.262   4.661 -0.7012 -1.4863 -1.6885
28199SOL     OW86603   1.387   0.438   1.576 -1.0808 -0.3142  0.9829
28199SOL    HW186604   1.430   0.385   1.509  1.2218  1.0416  1.2740
28199SOL    HW286605   1.351   0.513   1.528 -0.1655  0.2290  1.1176
28200SOL     OW86606   2.096   1.115   0.153  0.0217 -0.0637  0.0131
28200SOL    HW186607   2.119   1.133   0.062 -1.4126  1.6546 -0.0653
28200SOL    HW286608   2.010   1.072   0.148  0.0245 -0.1373  0.5542
28201SOL     OW86609   0.738   5.383   1.371 -0.0824 -0.2811  0.1725
28201SOL    HW186610   0.744   5.334   1.289  0.4470 -1.1892  0.7442
28201SOL    HW286611   0.796   5.337   1.432  1.2735  1.6312  0.4387
28202SOL     OW86612   0.207   6.985   9.567 -0.1222 -0.1945  0.3779
28202SOL    HW186613   0.206   6.904   9.619 -1.5974  0.2315  1.0555
28202SOL    HW286614   0.273   7.040   9.609  0.9823 -1.0565 -0.1593
28203SOL     OW86615   4.790  10.890   7.694 -0.5412  0.1620  0.1304
28203SOL    HW186616   4.728  10.860   7.628 -0.1464 -0.8662  0.2013
28203SOL    HW286617   4.736  10.939   7.757 -1.0778  0.3032 -0.4317
28204SOL     OW86618   5.583   0.412   9.484  0.1358  0.3307 -0.2085
28204SOL    HW186619   5.504   0.464   9.499 -0.6642 -0.7894 -0.3885
28204SOL    HW286620   5.570   0.373   9.398  1.6010  1.3198 -0.9189
28205SOL     OW86621   1.702   9.614   7.643  0.5518 -0.2772  0.0629
28205SOL    HW186622   1.776   9.670   7.621 -0.7270  1.5846  0.3132
28205SOL    HW286623   1.628   9.651   7.595 -0.5156 -1.2602  0.8805
28206SOL     OW86624   6.740   2.229  10.415  0.1164 -0.2923 -0.0496
28206SOL    HW186625   6.733   2.285  10.339 -0.6816 -0.4350 -0.0837
28206SOL    HW286626   6.768   2.144  10.380 -0.8210 -0.5197 -0.2539
28207SOL     OW86627   3.489   7.662   6.481  0.2107 -0.1134  0.0605
28207SOL    HW186628   3.397   7.636   6.473 -0.2405  0.5348  2.2561
28207SOL    HW286629   3.530   7.589   6.527  0.7836 -0.3315 -0.7742
28208SOL     OW86630  10.224   2.995  10.543 -0.2249 -0.3902  0.8319
28208SOL    HW186631  10.319   2.998  10.536 -0.0947 -1.4748  1.7111
28208SOL    HW286632  10.204   3.046  10.621 -0.4320  0.3890  0.2758
28209SOL     OW86633   2.723   0.077   1.129  0.2452  0.1165  0.0508
28209SOL    HW186634   2.678   0.143   1.077  1.7727  1.5518  0.4638
28209SOL    HW286635   2.677   0.078   1.213  1.2304  1.8964  0.6285
28210SOL     OW86636   7.495  10.225   1.571 -0.5064  0.6493 -0.1857
28210SOL    HW186637   7.448  10.305   1.548  0.1467  0.9671 -0.4201
28210SOL    HW286638   7.434  10.154   1.548 -0.8538  1.0532 -0.5214
28211SOL     OW86639   5.451   9.438   0.832  0.3114 -0.4241  0.0243
28211SOL    HW186640   5.397   9.360   0.824  1.6707 -1.3331 -0.5394
28211SOL    HW286641   5.519   9.414   0.895 -0.7462  1.2174  1.9604
28212SOL     OW86642   0.437   1.818   8.192 -0.1757  0.1832 -0.3407
28212SOL    HW186643   0.407   1.819   8.102  1.6892  0.8601 -1.0151
28212SOL    HW286644   0.397   1.895   8.232 -0.4200  0.2962 -0.8062
28213SOL     OW86645   2.754   9.180   9.640 -0.6353  0.1752 -0.4160
28213SOL    HW186646   2.686   9.166   9.707 -1.5162  0.1132 -1.3030
28213SOL    HW286647   2.836   9.175   9.689 -1.2125 -0.8182  0.5230
28214SOL     OW86648  10.805   5.365   4.546  0.0683 -0.0570 -0.6940
28214SOL    HW186649  10.781   5.299   4.482 -1.4536 -1.3894  1.1233
28214SOL    HW286650  10.859   5.318   4.610 -0.7893  0.4911  0.4717
28215SOL     OW86651   0.237   1.855   3.510 -0.9117 -0.1188  0.5334
28215SOL    HW186652   0.254   1.884   3.420  2.4448 -2.2856  0.2854
28215SOL    HW286653   0.165   1.792   3.502 -1.3772  0.5168 -0.4377
28216SOL     OW86654   7.003   9.203   0.279 -0.7449 -0.1993 -0.3310
28216SOL    HW186655   7.077   9.147   0.299 -0.0808  1.4325  2.2784
28216SOL    HW286656   6.960   9.161   0.204  1.6710 -2.2129 -0.7082
28217SOL     OW86657   3.775   8.723   5.459  0.2622  0.2799 -0.7307
28217SOL    HW186658   3.742   8.684   5.540  0.0348  0.2292 -0.8464
28217SOL    HW286659   3.707   8.785   5.432 -0.3040 -0.6750 -1.5988
28218SOL     OW86660   7.792   0.562   7.511  0.2014  0.3935 -0.3637
28218SOL    HW186661   7.828   0.618   7.580  0.6646 -1.3328  0.8758
28218SOL    HW286662   7.707   0.601   7.490  0.0664  0.9910  1.1714
28219SOL     OW86663   5.496   0.060  10.529  0.1230  0.1528  0.1007
28219SOL    HW186664   5.464  -0.027  10.504  2.0098 -0.1835 -1.3865
28219SOL    HW286665   5.460   0.118  10.462  2.0604 -0.1649 -1.3274
28220SOL     OW86666   0.296   2.062   2.454  0.1588  0.0190 -0.6872
28220SOL    HW186667   0.382   2.100   2.475  1.2450 -1.5187 -2.0731
28220SOL    HW286668   0.300   2.044   2.360 -1.5437 -0.4540 -0.7039
28221SOL     OW86669   4.861   3.566   4.882 -0.3711  0.4105 -0.6367
28221SOL    HW186670   4.847   3.591   4.973 -0.4245 -1.6803 -0.0118
28221SOL    HW286671   4.879   3.648   4.837 -2.3817  1.7604  0.8466
28222SOL     OW86672   6.797   1.413   0.030 -0.2725  0.5197  0.1590
28222SOL    HW186673   6.852   1.346   0.071 -0.2278  0.8861  0.7045
28222SOL    HW286674   6.845   1.494   0.043 -1.1539  0.9190  1.0520
28223SOL     OW86675   0.301   1.918   8.620 -0.5023 -0.1153 -0.2615
28223SOL    HW186676   0.334   1.909   8.710 -0.3514  1.4101 -0.1310
28223SOL    HW286677   0.366   1.875   8.565 -0.0469 -0.1237  0.2797
28224SOL     OW86678   7.326   7.375   5.551  0.1700 -0.2061  0.2192
28224SOL    HW186679   7.255   7.388   5.489  0.2145  1.8286  0.5279
28224SOL    HW286680   7.373   7.299   5.518 -1.6615 -1.1271 -0.4253
28225SOL     OW86681   3.757   8.736   1.804  0.1681 -0.8784 -0.0232
28225SOL    HW186682   3.669   8.709   1.830 -0.7380  0.8207 -1.1015
28225SOL    HW286683   3.813   8.662   1.826 -1.8010 -2.7495 -0.9537
28226SOL     OW86684   0.796   3.578   0.566 -0.2813 -0.3410 -0.1507
28226SOL    HW186685   0.787   3.511   0.634  0.8021 -0.2501  0.0988
28226SOL    HW286686   0.837   3.652   0.611  1.9442 -0.8386 -1.2038
28227SOL     OW86687   6.459   9.339   2.446 -0.0578 -0.6695  0.1961
28227SOL    HW186688   6.440   9.430   2.469 -0.0255 -0.4953 -0.4456
28227SOL    HW286689   6.390   9.289   2.490 -0.4809 -0.2710  0.0030
28228SOL     OW86690   9.980   6.863   0.275 -0.1916  0.6326 -0.1516
28228SOL    HW186691   9.899   6.821   0.245 -0.0188  0.7131 -0.7436
28228SOL    HW286692   9.965   6.956   0.261 -0.5891  0.8030  1.1923
28229SOL     OW86693   7.150   8.379   4.422  0.0794 -0.4350 -0.0953
28229SOL    HW186694   7.078   8.362   4.483 -0.1402 -1.1421 -0.5441
28229SOL    HW286695   7.161   8.474   4.424  0.9172 -0.5216  2.0182
28230SOL     OW86696  10.976   2.375   1.632  0.6878 -0.2438 -0.5650
28230SOL    HW186697  10.888   2.338   1.625  0.6375 -0.5890  1.3630
28230SOL    HW286698  10.963   2.470   1.622 -0.1423 -0.1444  1.1249
28231SOL     OW86699   3.167   2.886  10.084 -0.2374  0.6234  0.0038
28231SOL    HW186700   3.139   2.906   9.995  1.9103  3.2738 -0.2071
28231SOL    HW286701   3.251   2.841  10.073 -1.0240 -1.0793  0.7040
28232SOL     OW86702   0.667   7.915   6.445  0.2492  0.8924 -0.0246
28232SOL    HW186703   0.615   7.925   6.525 -0.6072  0.7867 -0.5557
28232SOL    HW286704   0.719   7.995   6.440  0.5046  0.7906  0.7635
28233SOL     OW86705  10.658   9.043  10.125  0.5711 -0.1856  0.0481
28233SOL    HW186706  10.592   9.112  10.131  0.9471  0.1115  0.7853
28233SOL    HW286707  10.648   8.992  10.205  0.1425 -1.1376 -0.5930
28234SOL     OW86708   2.459  10.847   6.990 -0.4642 -0.7049 -0.1598
28234SOL    HW186709   2.406  10.775   6.957  1.1986 -2.0670  0.0327
28234SOL    HW286710   2.544  10.836   6.948 -0.1232  1.0786 -0.0114
28235SOL     OW86711   8.510   2.877  10.696 -0.4159 -0.1840  0.1381
28235SOL    HW186712   8.504   2.801  10.754  0.2137 -0.5559 -0.2722
28235SOL    HW286713   8.591   2.921  10.722 -0.2446 -0.2294 -0.3104
28236SOL     OW86714  10.918   5.723   5.509 -0.0422 -0.4282 -0.1833
28236SOL    HW186715  10.828   5.750   5.488  0.4471  2.8108  1.2615
28236SOL    HW286716  10.973   5.775   5.450  0.9376  0.9688  1.8186
28237SOL     OW86717   4.724   9.825   9.107 -0.4353 -0.1044  0.1829
28237SOL    HW186718   4.686   9.888   9.170 -0.1808 -0.2899  0.5285
28237SOL    HW286719   4.651   9.771   9.080 -0.6135  0.1921  0.0637
28238SOL     OW86720  10.353   0.365   1.214 -0.5783  0.7144 -0.1034
28238SOL    HW186721  10.420   0.356   1.147 -1.6443 -0.2992 -1.0757
28238SOL    HW286722  10.352   0.280   1.258 -0.1789  1.2328  0.9321
28239SOL     OW86723   0.710   4.486   7.238  0.2349  0.1256  0.8071
28239SOL    HW186724   0.693   4.452   7.327  0.1632  2.2235  1.6502
28239SOL    HW286725   0.636   4.454   7.186  0.7709 -1.9541  1.2118
28240SOL     OW86726   9.017   4.987   3.368 -0.2386  0.0004 -0.0152
28240SOL    HW186727   9.000   5.037   3.288  0.1679  1.0124  0.5082
28240SOL    HW286728   9.033   5.054   3.435 -0.6902 -0.8182  0.9458
28241SOL     OW86729  10.614   1.180   4.881  0.2108  0.6964  0.2542
28241SOL    HW186730  10.555   1.125   4.829  0.5967  0.5375 -0.0189
28241SOL    HW286731  10.562   1.258   4.901 -0.9193 -0.4370  2.0402
28242SOL     OW86732   5.274   8.629   5.872  0.0264  0.1137  0.0958
28242SOL    HW186733   5.263   8.583   5.955  2.3430 -0.9778 -0.1319
28242SOL    HW286734   5.364   8.660   5.873  0.2638 -0.3181 -2.1995
28243SOL     OW86735   6.722   4.356  10.019  0.2975  0.5841  0.0332
28243SOL    HW186736   6.764   4.319   9.941  0.0111  1.7642 -0.7038
28243SOL    HW286737   6.735   4.289  10.087  0.6871 -0.3978 -0.9742
28244SOL     OW86738   0.758   9.896   7.521 -0.2626  0.7796  0.0177
28244SOL    HW186739   0.842   9.941   7.532  0.6572 -0.8932  0.1450
28244SOL    HW286740   0.774   9.807   7.552 -1.6348 -0.0209 -1.4226
28245SOL     OW86741   6.572   3.947   2.795  0.3972  0.0244 -0.0156
28245SOL    HW186742   6.500   4.000   2.828  1.3711  0.3162  1.7346
28245SOL    HW286743   6.633   4.010   2.756  1.0010  0.0925  1.0129
28246SOL     OW86744   3.010   4.659   9.596  0.2316 -0.3444 -0.1104
28246SOL    HW186745   2.953   4.630   9.525  0.3738 -1.7380  0.3113
28246SOL    HW286746   2.965   4.631   9.676 -0.0701  1.4623  0.3983
28247SOL     OW86747   5.503   4.334   4.270  0.1536  0.2303  0.2482
28247SOL    HW186748   5.529   4.248   4.302  1.1842  0.1084 -0.8280
28247SOL    HW286749   5.417   4.349   4.307  0.1492 -1.0733  0.8126
28248SOL     OW86750   8.798   1.583   5.496 -0.0102  0.1327 -0.0161
28248SOL    HW186751   8.855   1.575   5.572  0.0569 -0.8513 -0.1576
28248SOL    HW286752   8.744   1.660   5.515 -0.1467 -0.2167  1.1358
28249SOL     OW86753   9.853   1.654   3.729  0.2128 -0.2327 -0.3173
28249SOL    HW186754   9.793   1.683   3.798 -0.1396 -1.0534 -0.2612
28249SOL    HW286755   9.892   1.734   3.695 -0.4823  0.2646  0.0467
28250SOL     OW86756   1.985   3.140   6.780  0.3210  0.3264 -0.1388
28250SOL    HW186757   2.042   3.125   6.705 -0.2804 -1.9472 -0.2256
28250SOL    HW286758   1.928   3.063   6.782 -1.6124  1.6982  0.9494
28251SOL     OW86759   9.508   5.101   0.073 -0.2180 -0.7912  0.6703
28251SOL    HW186760   9.485   5.018   0.115 -2.9698 -0.2366  0.4482
28251SOL    HW286761   9.489   5.086  -0.020 -0.5800  0.0158  0.6072
28252SOL     OW86762   1.916   9.525  10.241  0.0389  0.1061  0.1957
28252SOL    HW186763   1.855   9.548  10.311 -0.9263 -0.0022 -0.5942
28252SOL    HW286764   1.876   9.450  10.198 -0.2892  1.2415 -1.5875
28253SOL     OW86765   3.503   8.172   6.541  0.0192  0.0667  0.3757
28253SOL    HW186766   3.597   8.156   6.537  0.1537  0.5113  1.3947
28253SOL    HW286767   3.494   8.253   6.591 -0.9016  0.1108  0.1668
28254SOL     OW86768   3.952   4.852  10.275 -0.1266  0.2958  0.1567
28254SOL    HW186769   4.037   4.842  10.233 -0.3133 -1.5749  0.1245
28254SOL    HW286770   3.890   4.863  10.203 -0.0630  0.3092  0.1041
28255SOL     OW86771  10.943   8.973   4.429  0.0537 -0.0020 -0.0333
28255SOL    HW186772  10.914   8.990   4.339  0.4177 -1.2528 -0.4014
28255SOL    HW286773  10.863   8.980   4.481 -0.4087 -0.5980 -0.6423
28256SOL     OW86774   2.205   1.619   3.474  0.4944  0.5895 -0.1260
28256SOL    HW186775   2.245   1.643   3.558 -1.1554 -0.6849  1.0867
28256SOL    HW286776   2.166   1.700   3.442  1.7837  1.2576 -0.0684
28257SOL     OW86777   5.321   9.759  10.804  0.4795  0.0824  0.3749
28257SOL    HW186778   5.294   9.733  10.892  1.8010 -0.2441  0.6922
28257SOL    HW286779   5.415   9.776  10.811  0.6597 -0.2104 -1.0350
28258SOL     OW86780   8.570   0.705  10.511  0.3212 -0.1503  0.1135
28258SOL    HW186781   8.653   0.679  10.471  0.8006  1.4675 -0.0198
28258SOL    HW286782   8.511   0.717  10.437  1.0779  2.3901 -0.1594
28259SOL     OW86783   7.055   3.246   7.976  0.2632 -0.4446 -0.5235
28259SOL    HW186784   7.062   3.156   8.006  1.5809  0.2551  1.4594
28259SOL    HW286785   6.999   3.241   7.898 -1.0218 -2.7563  0.4379
28260SOL     OW86786   0.691   8.695   3.254  0.4726 -0.1543 -0.6617
28260SOL    HW186787   0.708   8.634   3.326 -0.7029 -1.6745 -1.6119
28260SOL    HW286788   0.777   8.730   3.231  0.7546  1.4070  2.2996
28261SOL     OW86789   0.828   9.005   4.163 -0.5528 -0.1948 -0.1439
28261SOL    HW186790   0.868   9.092   4.162  1.2641 -0.9875 -2.0148
28261SOL    HW286791   0.770   9.003   4.087 -0.5387 -0.6609 -0.1469
28262SOL     OW86792   3.320   3.455   6.116 -0.0980 -0.3708 -0.1636
28262SOL    HW186793   3.268   3.376   6.107 -0.1313 -0.3778  0.0701
28262SOL    HW286794   3.308   3.502   6.034  0.4317 -0.9150 -0.5617
28263SOL     OW86795   8.347   5.275   3.939  0.5651  0.0367  0.7908
28263SOL    HW186796   8.394   5.228   3.870 -0.7027 -0.8011  0.4626
28263SOL    HW286797   8.334   5.363   3.904 -0.9302 -0.6522 -0.5024
28264SOL     OW86798  10.954   4.590   1.995 -0.7117  0.2769  0.5040
28264SOL    HW186799  10.866   4.607   2.028 -0.3291 -0.1990  1.8604
28264SOL    HW286800  10.981   4.510   2.039  0.9881  1.2634  1.3756
28265SOL     OW86801   5.067   5.590   5.479 -0.3173 -0.6413  0.3247
28265SOL    HW186802   5.005   5.619   5.411  0.5694  0.6114  0.0263
28265SOL    HW286803   5.036   5.633   5.559 -0.1808 -0.4971  0.2995
28266SOL     OW86804   1.493   2.626   9.006  0.1584 -0.2370  0.1599
28266SOL    HW186805   1.470   2.533   9.006 -1.6768  0.1393  1.7093
28266SOL    HW286806   1.411   2.670   8.984  1.0160  1.0381 -0.6095
28267SOL     OW86807   5.841   4.645  10.917  0.2431  0.2058 -0.2578
28267SOL    HW186808   5.784   4.570  10.902  0.4891  0.3289 -2.0306
28267SOL    HW286809   5.783   4.714  10.949 -0.3252 -0.1599 -0.4957
28268SOL     OW86810   1.632   9.495   1.581  0.4600 -0.0577 -0.1825
28268SOL    HW186811   1.568   9.566   1.572  0.6404 -0.1541 -2.9323
28268SOL    HW286812   1.707   9.536   1.625 -0.9599  0.3567  1.9941
28269SOL     OW86813   6.271   2.165   5.078 -0.1254  0.1109  0.0227
28269SOL    HW186814   6.242   2.074   5.068 -1.0529  0.4578 -0.6559
28269SOL    HW286815   6.246   2.206   4.995 -1.0546  1.3251  0.8771
28270SOL     OW86816   7.331   5.796   5.739 -0.3474  0.4316  0.5514
28270SOL    HW186817   7.415   5.835   5.764 -0.3541  0.9025 -0.1409
28270SOL    HW286818   7.266   5.854   5.779 -0.3718 -0.6994  2.2676
28271SOL     OW86819   2.824   6.613  10.229 -0.0214  0.2807 -0.7953
28271SOL    HW186820   2.778   6.595  10.147 -1.1716  0.3511 -0.1776
28271SOL    HW286821   2.878   6.535  10.244 -0.8262 -0.3081 -0.9340
28272SOL     OW86822   2.599   4.459  10.721 -0.4058  0.6894 -0.3414
28272SOL    HW186823   2.692   4.476  10.705  0.8316 -2.7125  1.9514
28272SOL    HW286824   2.574   4.521  10.789  1.0629 -0.0389  0.9305
28273SOL     OW86825   6.692   3.505   2.751  0.1280  1.2554 -0.2786
28273SOL    HW186826   6.693   3.453   2.670  1.0972  1.6462 -0.5319
28273SOL    HW286827   6.755   3.574   2.735 -0.3490  1.8774  0.4795
28274SOL     OW86828   3.397   6.378   4.668  0.0752 -0.0188  0.2067
28274SOL    HW186829   3.478   6.335   4.695  0.7417  0.6897 -0.6209
28274SOL    HW286830   3.338   6.307   4.643  0.0591 -0.6019  1.7667
28275SOL     OW86831   9.455   9.572   3.758  0.0540  0.2722  0.1146
28275SOL    HW186832   9.399   9.563   3.681  0.6793 -1.3738 -0.1976
28275SOL    HW286833   9.520   9.502   3.748  1.5468  1.4789  0.9672
28276SOL     OW86834   5.151   6.984   9.163 -0.1163  0.0791 -0.1090
28276SOL    HW186835   5.126   6.953   9.075 -0.9234  0.0351  0.1320
28276SOL    HW286836   5.178   7.075   9.149  2.7916 -0.7850 -0.9181
28277SOL     OW86837   6.243   3.444   1.944 -0.1162  0.1650 -0.4846
28277SOL    HW186838   6.272   3.368   1.993  0.1270  0.8698  0.4815
28277SOL    HW286839   6.148   3.447   1.958  0.2027  1.5972  1.7921
28278SOL     OW86840   3.301   5.813   9.141 -0.8280 -0.2507  0.6949
28278SOL    HW186841   3.217   5.854   9.120 -1.4924 -2.6168 -1.8200
28278SOL    HW286842   3.291   5.721   9.114  3.1655 -0.2351 -1.6829
28279SOL     OW86843   3.150   6.787   7.515  0.3001  0.4722 -0.2344
28279SOL    HW186844   3.241   6.797   7.489  0.0969 -0.1093 -1.1947
28279SOL    HW286845   3.106   6.752   7.438 -0.7121  0.6062  0.2624
28280SOL     OW86846  10.454   2.673  10.931  0.1475 -0.1097 -0.3670
28280SOL    HW186847  10.512   2.722  10.873  0.5269  0.1717  0.2338
28280SOL    HW286848  10.443   2.729  11.007  0.8346 -1.0655  0.4727
28281SOL     OW86849   3.641   0.962   7.396 -0.5801  0.3775 -0.0976
28281SOL    HW186850   3.662   0.903   7.324  1.5254 -0.2103  0.9564
28281SOL    HW286851   3.709   0.948   7.461 -0.8945  2.8383  0.8785
28282SOL     OW86852   8.470  10.826   2.397 -0.0498  0.1042  0.0995
28282SOL    HW186853   8.440  10.865   2.315  2.3304  0.0166 -0.8908
28282SOL    HW286854   8.420  10.745   2.404  0.6884 -0.6168 -2.0597
28283SOL     OW86855   1.644  10.554   4.159 -0.1367 -0.5098  0.6217
28283SOL    HW186856   1.643  10.626   4.096  0.5429 -1.0765 -0.0579
28283SOL    HW286857   1.554  10.550   4.192 -0.4817 -0.1410 -0.2454
28284SOL     OW86858   5.937   1.857   1.351 -0.3772 -0.2302 -0.3927
28284SOL    HW186859   5.936   1.833   1.259 -0.2474 -0.6978 -0.2733
28284SOL    HW286860   5.853   1.902   1.365  0.4473  1.6565 -1.2081
28285SOL     OW86861   8.464   0.148   1.208  0.1474 -0.4068  0.0638
28285SOL    HW186862   8.433   0.087   1.275 -0.5889 -1.9696 -1.6114
28285SOL    HW286863   8.545   0.184   1.244 -0.1423 -1.2906  1.7062
28286SOL     OW86864   8.808   8.408   4.240 -0.1018 -0.4898  0.4751
28286SOL    HW186865   8.852   8.482   4.198 -1.8083  0.6208  0.5638
28286SOL    HW286866   8.731   8.446   4.282 -0.9414 -2.2985  0.6829
28287SOL     OW86867   1.435   7.369  10.396  0.3109 -0.3392  0.1434
28287SOL    HW186868   1.461   7.336  10.482 -0.9661  0.0344  0.6815
28287SOL    HW286869   1.358   7.423  10.412  0.6025  0.5114 -1.1173
28288SOL     OW86870   1.546   6.325   4.669 -0.3660 -0.4474 -0.2593
28288SOL    HW186871   1.636   6.302   4.646 -0.7830  0.4662 -3.0693
28288SOL    HW286872   1.550   6.418   4.691 -0.7612 -0.1859 -1.2737
28289SOL     OW86873   1.170   9.637  10.237  0.2928 -0.5535  0.5984
28289SOL    HW186874   1.137   9.551  10.263  0.4182 -0.9225 -0.4127
28289SOL    HW286875   1.260   9.639  10.271 -0.2549 -0.1400  2.0689
28290SOL     OW86876   9.130   2.578   7.334 -0.0673 -0.4400  0.2492
28290SOL    HW186877   9.123   2.664   7.292  2.4649  0.4669  1.5028
28290SOL    HW286878   9.151   2.518   7.263  0.3695  0.3886 -0.3310
28291SOL     OW86879   2.930   6.302   8.166 -0.5860  0.9689 -0.1908
28291SOL    HW186880   3.014   6.277   8.127 -0.1948 -1.0377  1.7446
28291SOL    HW286881   2.866   6.287   8.096  0.4583  0.8897 -1.1645
28292SOL     OW86882   3.679   8.253   4.858 -0.4802  0.0970 -0.4387
28292SOL    HW186883   3.745   8.184   4.867 -1.1970 -0.4318  1.5135
28292SOL    HW286884   3.728   8.332   4.839  0.4120 -0.8261 -2.2575
28293SOL     OW86885  10.123   4.542   0.428  0.2529  0.0196  0.5347
28293SOL    HW186886  10.091   4.530   0.339 -0.7608 -1.1462  1.0178
28293SOL    HW286887  10.205   4.492   0.431 -0.5032 -1.2818  0.6461
28294SOL     OW86888   5.621   5.742   3.570  0.4069  0.4706 -0.6381
28294SOL    HW186889   5.559   5.776   3.634 -0.1259 -0.1212 -0.8249
28294SOL    HW286890   5.672   5.818   3.542  0.9357  0.6739  0.7919
28295SOL     OW86891   6.768   0.450   5.810 -0.1134  0.8976  0.0734
28295SOL    HW186892   6.695   0.511   5.804 -0.4925  0.4885  0.4653
28295SOL    HW286893   6.825   0.474   5.737 -0.5485  1.3385 -0.1273
28296SOL     OW86894   0.789   9.176   5.340  0.1876  0.0752  0.4178
28296SOL    HW186895   0.781   9.145   5.249  1.3921  0.9215  0.0030
28296SOL    HW286896   0.698   9.192   5.367 -0.1638  0.4415 -0.8719
28297SOL     OW86897   1.236   6.286   7.704  0.3692 -0.0660 -0.4339
28297SOL    HW186898   1.179   6.363   7.713  2.1078  1.4238 -1.3990
28297SOL    HW286899   1.198   6.236   7.631  0.2192  0.8604 -1.0115
28298SOL     OW86900  10.774   2.719   5.167  0.0819  0.1149  0.4262
28298SOL    HW186901  10.789   2.630   5.136 -0.0254 -0.2172  1.3038
28298SOL    HW286902  10.830   2.773   5.112 -0.5672 -0.3738 -0.7612
28299SOL     OW86903   9.844   0.583   6.112  0.2064 -0.5572 -0.3426
28299SOL    HW186904   9.912   0.645   6.086 -0.0789 -0.9524 -2.1988
28299SOL    HW286905   9.766   0.637   6.128  0.0681 -0.3764 -1.5598
28300SOL     OW86906   6.390   3.434   2.649 -0.0093 -0.0536  0.0124
28300SOL    HW186907   6.445   3.489   2.706 -2.4206  1.5368  0.9501
28300SOL    HW286908   6.375   3.487   2.571 -1.7964  0.4161  0.6284
28301SOL     OW86909   8.162   3.197   9.429 -0.0899  0.1505  0.3016
28301SOL    HW186910   8.116   3.243   9.499 -0.8397  0.1439 -0.1838
28301SOL    HW286911   8.094   3.152   9.380  0.4059  0.2991 -0.5464
28302SOL     OW86912   7.258  10.952   1.216 -0.1788  0.1166  0.3565
28302SOL    HW186913   7.224  10.863   1.208  0.2779 -0.0796  0.5523
28302SOL    HW286914   7.212  11.002   1.148  2.3398 -1.0937 -2.4416
28303SOL     OW86915   5.960   8.592   3.794  0.4221 -0.4200 -0.1302
28303SOL    HW186916   6.037   8.566   3.844  1.4443  0.6152 -1.1012
28303SOL    HW286917   5.992   8.602   3.704 -0.9676 -0.4712 -0.6575
28304SOL     OW86918   0.052   8.788   6.490  0.3767 -0.0131  0.3431
28304SOL    HW186919   0.072   8.879   6.469 -2.2371  0.8312  1.0368
28304SOL    HW286920   0.133   8.753   6.526  1.9971  1.4441 -1.6800
28305SOL     OW86921   4.068   8.366  10.799 -0.2098 -0.2354 -0.6026
28305SOL    HW186922   4.092   8.396  10.886 -1.2356  0.9494 -0.6908
28305SOL    HW286923   4.097   8.275  10.796  2.0116  0.3789  0.0951
28306SOL     OW86924   8.308   6.218   5.792 -0.0214  0.4589  0.4495
28306SOL    HW186925   8.343   6.263   5.715  0.8648  1.3583  1.3438
28306SOL    HW286926   8.385   6.179   5.834 -0.8050 -2.4420 -0.5752
28307SOL     OW86927   0.277   2.015   7.321  0.1084 -0.2326 -0.4896
28307SOL    HW186928   0.344   1.962   7.366 -0.7333 -0.8031  0.1167
28307SOL    HW286929   0.214   2.037   7.390 -0.5329 -0.0333 -1.1306
28308SOL     OW86930   1.915   6.972   9.526 -0.1186  0.6441  0.0522
28308SOL    HW186931   2.007   7.000   9.527 -0.0202  0.4972 -1.5436
28308SOL    HW286932   1.918   6.878   9.547 -0.0393  0.9012  1.2344
28309SOL     OW86933   6.741   2.583   6.096 -0.9538 -0.6214 -0.1200
28309SOL    HW186934   6.807   2.531   6.050 -1.2851  0.4820 -1.9348
28309SOL    HW286935   6.661   2.573   6.044 -2.2665 -1.8196  1.9518
28310SOL     OW86936   1.137   4.916   5.304  0.1372 -0.2708 -0.3888
28310SOL    HW186937   1.190   4.889   5.229  0.1571  3.1214 -1.7993
28310SOL    HW286938   1.047   4.913   5.273  0.1238  0.9024 -0.5225
28311SOL     OW86939   6.214   4.164   1.881 -0.3208  0.1753 -0.5464
28311SOL    HW186940   6.187   4.229   1.946  0.1031  0.4601 -0.6421
28311SOL    HW286941   6.263   4.216   1.816  0.4546 -0.3201 -0.3639
28312SOL     OW86942   2.757   9.263   7.830 -0.1353  0.4529 -0.2144
28312SOL    HW186943   2.780   9.349   7.865  0.4259 -0.0284  0.6374
28312SOL    HW286944   2.705   9.222   7.899 -0.9061  0.3246 -0.8562
28313SOL     OW86945   7.819   9.363   0.028 -0.3614 -0.2582 -0.3035
28313SOL    HW186946   7.852   9.365  -0.061 -1.3889  0.9726 -0.6941
28313SOL    HW286947   7.897   9.365   0.084  0.2615 -0.0217 -1.1712
28314SOL     OW86948   6.806   0.767   7.319  0.2331 -0.1304 -0.8825
28314SOL    HW186949   6.828   0.858   7.299  0.6863 -0.0740 -0.1462
28314SOL    HW286950   6.821   0.720   7.237  2.0346  0.0989 -0.7215
28315SOL     OW86951   9.094   7.389   2.071  0.7297 -0.2317  0.2497
28315SOL    HW186952   9.104   7.303   2.113  0.3202  0.5884  2.1176
28315SOL    HW286953   9.000   7.401   2.064  0.7457  0.5289  1.0840
28316SOL     OW86954   9.340   3.293   7.060 -0.0459 -0.0068  0.4121
28316SOL    HW186955   9.284   3.346   7.117  2.7731  2.5576  1.0229
28316SOL    HW286956   9.389   3.236   7.120 -0.4871 -0.7738  0.0657
28317SOL     OW86957   9.016   9.948   6.800 -0.0732  0.0406 -0.1066
28317SOL    HW186958   9.088   9.888   6.781  0.6675  0.8710  0.0259
28317SOL    HW286959   8.937   9.899   6.776  0.4009 -1.5270  1.3667
28318SOL     OW86960   5.952  10.264   6.575 -0.0838  0.2436 -0.6761
28318SOL    HW186961   6.008  10.189   6.559 -1.3491 -0.5089 -1.8098
28318SOL    HW286962   5.893  10.266   6.500 -1.3348  1.2153  0.2899
28319SOL     OW86963   7.504   1.479   2.201  0.1192 -0.7485  0.1719
28319SOL    HW186964   7.420   1.438   2.225 -0.8143 -0.2345 -2.0129
28319SOL    HW286965   7.518   1.545   2.268 -0.1758 -2.1603  1.7100
28320SOL     OW86966   4.838   1.964   3.158 -0.0032 -0.7626 -0.4451
28320SOL    HW186967   4.760   1.908   3.157  0.8421 -2.0048  0.1769
28320SOL    HW286968   4.854   1.983   3.065 -1.5541  0.3096 -0.5406
28321SOL     OW86969  10.492   9.892   0.982 -0.2429 -0.6581  0.3038
28321SOL    HW186970  10.472   9.964   0.922 -0.5356 -0.2623  0.8704
28321SOL    HW286971  10.570   9.920   1.028 -0.5366 -0.5640  0.7490
28322SOL     OW86972   9.777  10.738   3.836  0.4820  0.0283 -0.0872
28322SOL    HW186973   9.772  10.810   3.773 -0.0787  1.3193  1.3560
28322SOL    HW286974   9.847  10.681   3.803  1.6745  1.7921 -0.7411
28323SOL     OW86975   2.935   0.679   6.292 -0.6136 -0.0399 -0.3208
28323SOL    HW186976   3.010   0.676   6.351 -1.2123 -1.4462  0.4021
28323SOL    HW286977   2.957   0.617   6.222  0.0740  1.5771 -1.6385
28324SOL     OW86978   8.157  10.939  10.708  0.2547  0.1603  0.0169
28324SOL    HW186979   8.233  10.881  10.709 -0.8026 -1.2669  0.1796
28324SOL    HW286980   8.122  10.932  10.797 -0.3825  0.3834 -0.2176
28325SOL     OW86981   3.850   1.247   8.186  0.1405 -0.1417  0.0889
28325SOL    HW186982   3.920   1.198   8.143 -0.3930 -1.2417  0.4460
28325SOL    HW286983   3.844   1.329   8.136  0.5696 -0.7299 -0.9588
28326SOL     OW86984   2.656   3.042   2.868  0.0142  0.0694 -0.1139
28326SOL    HW186985   2.635   3.058   2.961  0.4652  0.5320 -0.0911
28326SOL    HW286986   2.724   3.106   2.847 -0.7598  0.6394 -1.0312
28327SOL     OW86987   3.211   5.811   1.172 -0.1438  0.2161 -0.6099
28327SOL    HW186988   3.121   5.839   1.159 -0.4651 -1.4193 -2.4186
28327SOL    HW286989   3.245   5.798   1.084  1.7749  0.4867  0.0401
28328SOL     OW86990  10.492   6.756   0.531 -0.1890 -0.2319 -0.2597
28328SOL    HW186991  10.484   6.759   0.626  1.4511  0.0764 -0.0911
28328SOL    HW286992  10.530   6.670   0.513 -0.9231 -0.4739 -0.6836
28329SOL     OW86993   5.001   6.636   7.104  0.0659  0.4957  0.0982
28329SOL    HW186994   4.909   6.657   7.085 -0.3918 -0.3619  1.2843
28329SOL    HW286995   4.998   6.556   7.155  1.6345 -0.9374 -1.8837
28330SOL     OW86996   3.891   6.434   6.290 -0.0854 -0.4608  0.5147
28330SOL    HW186997   3.868   6.522   6.319  0.4923 -0.0807 -0.1299
28330SOL    HW286998   3.965   6.409   6.344 -0.6752 -0.8403  1.1659
28331SOL     OW86999   2.208  10.771  10.663 -0.4554  0.1174 -0.1119
28331SOL    HW187000   2.219  10.678  10.681 -1.6223  0.1516  0.8596
28331SOL    HW287001   2.138  10.775  10.599 -0.1570  0.3177 -0.4323
28332SOL     OW87002   8.940  10.883   6.306 -0.4084  0.2635  0.0910
28332SOL    HW187003   9.019  10.835   6.331 -0.1707  0.9367  0.6348
28332SOL    HW287004   8.955  10.908   6.215  1.1672  2.6120  0.9031
28333SOL     OW87005   7.843   0.734   4.440  0.2265 -0.5742 -0.4059
28333SOL    HW187006   7.858   0.742   4.535 -0.9056 -0.2054 -0.2502
28333SOL    HW287007   7.910   0.790   4.401  0.6355 -0.6410  0.1663
28334SOL     OW87008   2.104   6.725   3.915 -0.2705  0.0316  0.1177
28334SOL    HW187009   2.134   6.805   3.959  0.1539 -0.0709  0.0237
28334SOL    HW287010   2.110   6.657   3.982  0.5953 -0.1704 -0.1430
28335SOL     OW87011  10.054   8.201   3.760  0.0470  0.0993 -0.1543
28335SOL    HW187012  10.037   8.206   3.666 -0.3479 -1.3890 -0.1915
28335SOL    HW287013  10.022   8.284   3.795  0.5909  0.8462 -1.3764
28336SOL     OW87014   8.558   1.398   5.896 -0.6705  0.2525  0.2628
28336SOL    HW187015   8.556   1.418   5.802  0.7958 -0.4025  0.0625
28336SOL    HW287016   8.556   1.484   5.938  0.7734  0.6833 -0.4559
28337SOL     OW87017   8.224   6.775   4.993  0.2323  0.4743 -0.3899
28337SOL    HW187018   8.163   6.734   4.932  0.5413 -0.9702  0.2325
28337SOL    HW287019   8.301   6.719   4.991  0.6093  0.9335  0.6259
28338SOL     OW87020   7.795   6.981   8.629 -0.1121  0.2400  0.1125
28338SOL    HW187021   7.826   7.055   8.577 -0.6702 -0.0621 -0.6650
28338SOL    HW287022   7.871   6.922   8.633 -0.1705  0.0969 -0.6839
28339SOL     OW87023   2.270   6.770   0.528 -0.5416  0.0645  0.3843
28339SOL    HW187024   2.195   6.805   0.577 -0.0983  0.5893  0.6944
28339SOL    HW287025   2.230   6.720   0.457 -1.1947 -0.1301  0.8708
28340SOL     OW87026  10.572   4.438   6.372  0.4960 -0.0329  0.0806
28340SOL    HW187027  10.551   4.390   6.452 -1.0279  0.1309 -0.1889
28340SOL    HW287028  10.526   4.521   6.380  1.5525  0.6126 -0.3117
28341SOL     OW87029   5.873   3.684   8.352  0.1077 -0.7755  0.1294
28341SOL    HW187030   5.968   3.692   8.341 -0.0267  0.5614 -0.2498
28341SOL    HW287031   5.863   3.632   8.431  1.2038  0.9513  1.4983
28342SOL     OW87032   7.016   7.491   0.798  0.6323  0.5252 -0.9530
28342SOL    HW187033   7.080   7.559   0.817  1.3566  0.4942 -3.0697
28342SOL    HW287034   6.942   7.511   0.855  0.8523  3.0695 -1.4727
28343SOL     OW87035   6.395   3.358  10.361 -0.1589  0.0855  0.5913
28343SOL    HW187036   6.313   3.408  10.363 -0.7523 -0.8622  0.9641
28343SOL    HW287037   6.372   3.277  10.315  1.0784  0.6331 -1.0933
28344SOL     OW87038   6.448   8.500   5.050  0.6669 -0.0369 -0.0859
28344SOL    HW187039   6.510   8.570   5.068  1.4705 -0.4898 -1.0033
28344SOL    HW287040   6.501   8.428   5.016  0.0362 -1.5482  1.9026
28345SOL     OW87041   8.818   2.501   3.287  0.6133  0.3846 -0.1332
28345SOL    HW187042   8.794   2.523   3.377  1.2597 -0.2558  0.2064
28345SOL    HW287043   8.891   2.440   3.296  1.0932  0.7905 -1.1017
28346SOL     OW87044   2.171   3.183   7.140  0.4883  0.4635  0.1583
28346SOL    HW187045   2.190   3.230   7.058  0.8225  0.1427  0.0457
28346SOL    HW287046   2.219   3.100   7.131 -0.0923  0.1029  0.3548
28347SOL     OW87047   0.607   3.169   1.150 -0.3219  0.0338  0.2251
28347SOL    HW187048   0.531   3.190   1.205  0.4004  3.7359  0.0284
28347SOL    HW287049   0.658   3.107   1.203 -1.3254  0.8675  2.2739
28348SOL     OW87050  10.625   1.428   7.178  0.3349 -0.6175 -0.4123
28348SOL    HW187051  10.617   1.337   7.207 -2.0123 -0.2963  0.1188
28348SOL    HW287052  10.696   1.464   7.231 -1.2724 -1.1239  2.2123
28349SOL     OW87053   6.376   0.184   0.439 -0.6871 -0.0405  0.7201
28349SOL    HW187054   6.429   0.177   0.519 -0.3865  2.3998  0.8017
28349SOL    HW287055   6.440   0.189   0.368 -0.7848  1.9349  0.7322
28350SOL     OW87056   4.333   0.657  10.406  0.3883 -0.5284 -0.0536
28350SOL    HW187057   4.335   0.590  10.475 -1.0222 -1.0775 -0.5135
28350SOL    HW287058   4.398   0.627  10.342  1.4836 -0.1804  0.8731
28351SOL     OW87059  10.563   7.148   4.302  0.0638  0.0919 -0.4480
28351SOL    HW187060  10.583   7.057   4.277  0.4065  0.2587 -0.7804
28351SOL    HW287061  10.646   7.194   4.297  0.0816  0.1988  0.7429
28352SOL     OW87062   5.466   5.640   1.632 -0.2484  0.4670 -0.2902
28352SOL    HW187063   5.553   5.599   1.629  0.1970  1.3786 -1.9971
28352SOL    HW287064   5.405   5.568   1.622  0.2120 -0.3374  2.1479
28353SOL     OW87065   2.900   3.406   3.577 -0.3904  0.0934 -0.4131
28353SOL    HW187066   2.949   3.344   3.523 -0.1201  0.9388 -1.1574
28353SOL    HW287067   2.967   3.457   3.623 -0.5489  1.1476 -1.3129
28354SOL     OW87068   3.431   7.600   0.016 -0.6882  0.4850 -0.1399
28354SOL    HW187069   3.428   7.626   0.108 -0.1458  1.1540 -0.3009
28354SOL    HW287070   3.440   7.505   0.017  0.4423  0.5949  0.5142
28355SOL     OW87071   6.517   2.424   3.488 -0.2679  0.6249 -0.2989
28355SOL    HW187072   6.439   2.438   3.434 -0.9871  0.5013  0.6785
28355SOL    HW287073   6.512   2.492   3.555 -0.5495 -0.5232  0.8803
28356SOL     OW87074   7.621   9.137   5.313  0.2787  0.2365  0.4024
28356SOL    HW187075   7.665   9.179   5.387  2.5017 -0.1955 -0.5868
28356SOL    HW287076   7.593   9.052   5.347  1.6616 -0.1375  0.6887
28357SOL     OW87077   6.406   7.327   6.167 -0.1592 -0.0727 -0.4434
28357SOL    HW187078   6.381   7.400   6.225 -0.5150  0.2406 -0.9788
28357SOL    HW287079   6.502   7.325   6.170 -0.1932 -0.4959  0.6785
28358SOL     OW87080   8.329   5.325   2.226  0.0245  0.5881 -0.4242
28358SOL    HW187081   8.357   5.335   2.136  1.8749 -0.8023 -0.0627
28358SOL    HW287082   8.410   5.322   2.277 -0.8497 -0.9808  1.0086
28359SOL     OW87083  10.477   4.940   7.658 -0.3467  0.5587 -0.7718
28359SOL    HW187084  10.386   4.966   7.665 -0.3158  0.2328  1.3685
28359SOL    HW287085  10.524   5.020   7.635 -0.8829  1.3386  0.7246
28360SOL     OW87086   5.891   7.170   5.984 -0.5696 -0.0218  0.0170
28360SOL    HW187087   5.867   7.107   5.915  1.0001 -0.5101 -0.1153
28360SOL    HW287088   5.923   7.115   6.056 -1.0322  0.5552  0.6777
28361SOL     OW87089   7.684   5.982   1.690  0.3088 -0.9393 -0.1031
28361SOL    HW187090   7.682   6.031   1.608 -0.4739  0.6149  0.7777
28361SOL    HW287091   7.740   5.906   1.672  2.5675  0.8564 -1.2525
28362SOL     OW87092   5.979   3.075   8.519 -0.1551 -0.0724 -0.3556
28362SOL    HW187093   5.967   3.078   8.424  0.3300  0.1653 -0.4106
28362SOL    HW287094   5.990   3.166   8.545 -0.7527 -0.0937 -0.0032
28363SOL     OW87095   1.184   7.606   3.097  0.0171  0.0272 -0.0552
28363SOL    HW187096   1.100   7.613   3.053  0.1583 -0.9237 -0.4860
28363SOL    HW287097   1.249   7.618   3.028  0.2564  1.3608  0.3708
28364SOL     OW87098   5.849   8.052  10.360 -0.6737  0.2458 -0.4844
28364SOL    HW187099   5.887   8.062  10.273  0.3374  1.3989  0.0619
28364SOL    HW287100   5.909   7.993  10.405 -0.4826  0.6725 -0.1744
28365SOL     OW87101   1.187   2.779  10.549  0.3349  0.2714 -0.0590
28365SOL    HW187102   1.184   2.859  10.601 -0.3877  0.3253 -0.1706
28365SOL    HW287103   1.181   2.810  10.458 -5.8759  0.0613 -0.2109
28366SOL     OW87104   4.148  10.309   3.759 -0.4240 -0.3337 -0.4179
28366SOL    HW187105   4.243  10.320   3.760 -0.4861  0.1723 -0.0051
28366SOL    HW287106   4.135  10.214   3.763  0.0532 -0.3691  0.7908
28367SOL     OW87107   4.659   8.180  10.773  0.3492  0.7399 -0.0373
28367SOL    HW187108   4.703   8.135  10.702 -0.0205  2.7363 -1.6204
28367SOL    HW287109   4.630   8.263  10.735 -0.5217  1.5695  2.2464
28368SOL     OW87110   4.507   5.025   4.865 -0.1893 -0.7380 -0.1478
28368SOL    HW187111   4.587   5.072   4.840 -0.6978  0.0079 -0.4212
28368SOL    HW287112   4.513   5.017   4.960  0.9296 -2.0485 -0.2918
28369SOL     OW87113   5.713   9.526   0.125 -0.4698 -0.0030 -0.4374
28369SOL    HW187114   5.722   9.537   0.031 -1.4502 -1.4019 -0.7339
28369SOL    HW287115   5.619   9.538   0.142 -0.1102  1.6374  0.5900
28370SOL     OW87116   9.434   0.241   5.045 -0.2686 -0.2104 -0.5356
28370SOL    HW187117   9.386   0.314   5.084  0.6930 -0.0141  0.3427
28370SOL    HW287118   9.386   0.220   4.965 -1.4472  0.3680 -0.0079
28371SOL     OW87119   6.193   0.132   2.641 -0.4925 -0.2388 -0.0447
28371SOL    HW187120   6.112   0.180   2.657  0.0825  0.7970 -0.1260
28371SOL    HW287121   6.165   0.045   2.614 -1.5542 -0.4395  1.5562
28372SOL     OW87122   5.484   6.444   0.137 -0.5515  0.4260 -0.3594
28372SOL    HW187123   5.484   6.529   0.182 -0.7030  1.5315 -2.3445
28372SOL    HW287124   5.434   6.386   0.195  0.4655  1.3608  1.5645
28373SOL     OW87125   6.859   0.052   8.671 -0.0115 -0.3624  0.2448
28373SOL    HW187126   6.902  -0.024   8.632 -1.5309 -1.0020 -0.2337
28373SOL    HW287127   6.874   0.123   8.609 -0.6974 -0.8807 -0.5192
28374SOL     OW87128   0.632   4.529   8.916  0.0553  0.0125 -0.0737
28374SOL    HW187129   0.568   4.476   8.964  1.2998 -0.5960  0.9473
28374SOL    HW287130   0.712   4.476   8.915  0.4507  0.5996 -1.6647
28375SOL     OW87131   5.473  10.354  10.267 -0.2702 -0.4169 -0.1557
28375SOL    HW187132   5.521  10.355  10.350 -1.3353 -1.7418  0.5152
28375SOL    HW287133   5.503  10.433  10.222 -0.2792  0.8157  1.8374
28376SOL     OW87134   5.829   7.944   1.220  0.5455 -0.5853  0.3886
28376SOL    HW187135   5.805   7.854   1.201 -0.4909 -0.7952  2.4591
28376SOL    HW287136   5.810   7.992   1.139  0.9197 -2.1488 -0.6617
28377SOL     OW87137   7.099   2.985   8.348 -0.0305 -0.2188  1.1354
28377SOL    HW187138   7.035   2.936   8.399 -0.4812 -0.6815  0.1499
28377SOL    HW287139   7.152   3.031   8.414  0.7254 -2.3799  2.1262
28378SOL     OW87140   9.938  10.186   5.865 -0.1839 -0.3057 -0.8454
28378SOL    HW187141  10.011  10.165   5.808 -0.0630  2.1540 -1.7313
28378SOL    HW287142   9.972  10.172   5.954  0.4531 -1.7267 -1.2858
28379SOL     OW87143   2.486   1.762   4.337 -0.5637  0.1265 -0.0100
28379SOL    HW187144   2.530   1.677   4.345 -0.5210  0.3078  2.6848
28379SOL    HW287145   2.397   1.745   4.367 -0.6407  0.9611  0.2561
28380SOL     OW87146   9.307  10.428   7.822 -0.0256  0.1552  0.0926
28380SOL    HW187147   9.283  10.510   7.866  1.5701 -0.2465  1.8273
28380SOL    HW287148   9.332  10.369   7.893  0.1625 -1.4069 -1.2174
28381SOL     OW87149   0.892   7.152   8.599 -0.1553 -0.0114 -0.4293
28381SOL    HW187150   0.805   7.148   8.560 -0.1355  1.6880 -0.7368
28381SOL    HW287151   0.907   7.064   8.634 -2.5386 -0.0113  0.8284
28382SOL     OW87152   2.737   2.477  10.874 -0.3080 -0.5600  0.0065
28382SOL    HW187153   2.649   2.499  10.905 -0.5173 -1.8936  0.4058
28382SOL    HW287154   2.735   2.499  10.781 -1.0575 -0.5439  0.0189
28383SOL     OW87155   9.863   1.473   5.658  0.1878 -0.3108 -0.2460
28383SOL    HW187156   9.874   1.426   5.575  1.7622  0.0297 -0.2626
28383SOL    HW287157   9.826   1.407   5.718  0.8383 -1.1172 -0.7078
28384SOL     OW87158   0.508   3.455   9.541 -0.0878 -0.1311  0.3737
28384SOL    HW187159   0.484   3.433   9.632 -1.2227  0.2855  0.1932
28384SOL    HW287160   0.468   3.385   9.489 -1.4793  0.8821  0.0208
28385SOL     OW87161   8.413   4.457   6.098  0.2289  0.2531 -0.3889
28385SOL    HW187162   8.452   4.500   6.173 -0.0851  1.6913 -1.0246
28385SOL    HW287163   8.463   4.488   6.023 -0.4847  0.0986 -0.9427
28386SOL     OW87164   5.785   5.783   3.999  0.7740 -0.4017  0.1753
28386SOL    HW187165   5.877   5.793   3.976  1.0920 -0.3671  1.4187
28386SOL    HW287166   5.785   5.722   4.073 -0.0583  0.8519  1.2517
28387SOL     OW87167   3.535   4.358   3.816 -0.1116  0.2555 -0.0201
28387SOL    HW187168   3.575   4.408   3.744  1.2388 -0.0236  0.5206
28387SOL    HW287169   3.442   4.353   3.792  0.4700 -0.7866 -2.3185
28388SOL     OW87170   4.902   2.545  10.366  0.4255 -0.6551  0.1263
28388SOL    HW187171   4.890   2.517  10.456 -0.4615  1.0424  0.5904
28388SOL    HW287172   4.975   2.608  10.370 -0.6078  0.6022 -0.0223
28389SOL     OW87173   3.709   3.379   9.190  0.0961 -0.0864  0.4827
28389SOL    HW187174   3.670   3.325   9.121  0.5781  0.9135 -0.6280
28389SOL    HW287175   3.662   3.462   9.183  0.8756  0.3747  0.6435
28390SOL     OW87176   5.168   2.963  10.325  0.2130  0.3586  0.4079
28390SOL    HW187177   5.084   2.927  10.298  0.3386 -0.1991  0.7433
28390SOL    HW287178   5.232   2.923  10.266  0.2152  1.0135 -0.0437
28391SOL     OW87179   4.376  10.002   3.728 -0.3334  0.2061 -0.4054
28391SOL    HW187180   4.283   9.988   3.750 -0.3181  1.3390  0.5201
28391SOL    HW287181   4.378  10.090   3.691  0.7114  1.3512  2.1513
28392SOL     OW87182   8.501   0.406   4.764 -0.2266  0.9215  0.2498
28392SOL    HW187183   8.493   0.311   4.757 -1.5653  1.1291 -1.6776
28392SOL    HW287184   8.595   0.422   4.751 -0.1191 -0.0835 -0.3536
28393SOL     OW87185   0.970   3.170   2.948 -0.3675 -0.0618  0.1879
28393SOL    HW187186   0.884   3.210   2.936 -0.5981 -0.6318 -0.0830
28393SOL    HW287187   0.998   3.199   3.035 -0.9070 -0.0034  0.3459
28394SOL     OW87188   8.227   1.015   9.179  0.1841  0.1600 -0.6372
28394SOL    HW187189   8.214   0.942   9.240 -0.5213  0.5547 -0.2994
28394SOL    HW287190   8.227   1.093   9.234 -0.1017  0.4940 -1.1001
28395SOL     OW87191   0.156   0.694   1.016 -0.0235 -0.2603  0.2095
28395SOL    HW187192   0.241   0.651   1.005  0.2233 -0.2313  1.7551
28395SOL    HW287193   0.093   0.622   1.017  0.1651 -0.4237  0.6686
28396SOL     OW87194   0.042   5.958   9.121  0.2129  0.0576 -0.1428
28396SOL    HW187195   0.026   5.866   9.101  0.6874 -0.0482 -0.0434
28396SOL    HW287196  -0.021   6.006   9.068  0.6974 -0.2767 -1.0291
28397SOL     OW87197   9.310   5.379   0.228  0.2965  0.2269 -0.8338
28397SOL    HW187198   9.327   5.313   0.295  3.5718  2.1575  0.4624
28397SOL    HW287199   9.274   5.453   0.276  0.0135  0.6621 -1.6955
28398SOL     OW87200   7.923   6.428  10.377  0.0201  0.0313 -0.3394
28398SOL    HW187201   7.882   6.502  10.421 -0.5543 -0.0877 -0.6619
28398SOL    HW287202   7.984   6.467  10.315 -0.6370  0.2487 -0.8524
28399SOL     OW87203   8.883   3.555   6.595 -0.3661 -0.1948 -0.1366
28399SOL    HW187204   8.969   3.513   6.591 -0.6131 -0.6607 -0.7328
28399SOL    HW287205   8.898   3.644   6.563 -0.0694 -0.2193 -0.0688
28400SOL     OW87206   0.055   1.123   1.926 -0.6981  0.0328  0.0942
28400SOL    HW187207   0.057   1.160   2.014  1.2357  1.8348 -0.6079
28400SOL    HW287208   0.125   1.057   1.926  1.8384  2.5221 -0.9511
28401SOL     OW87209   9.694   8.732   5.550  0.3187  0.1413  0.5417
28401SOL    HW187210   9.715   8.821   5.520  0.7797  0.2505  1.1781
28401SOL    HW287211   9.621   8.745   5.612  0.1720  0.0391  0.3918
28402SOL     OW87212   7.204  10.889   6.115  0.0655 -0.3163  0.0001
28402SOL    HW187213   7.190  10.970   6.066  2.0561 -0.6780 -1.3271
28402SOL    HW287214   7.163  10.821   6.062  0.8681 -0.5119 -0.3883
28403SOL     OW87215   2.971   7.935   7.345  0.1881  0.2983  0.2196
28403SOL    HW187216   2.975   7.842   7.325 -0.0791  0.2237  0.5027
28403SOL    HW287217   2.877   7.954   7.354  0.1007  1.0066 -1.7102
28404SOL     OW87218   5.141   3.079   5.882 -0.2969 -0.0368  0.3801
28404SOL    HW187219   5.075   3.033   5.830 -1.8760  2.9928 -0.5150
28404SOL    HW287220   5.212   3.096   5.820 -1.4842  2.1393 -0.5266
28405SOL     OW87221   0.018   1.768   6.143  0.3374  0.0617 -0.0893
28405SOL    HW187222   0.063   1.850   6.160  0.0045  0.0606  0.8490
28405SOL    HW287223  -0.045   1.759   6.215 -0.3578 -0.4976 -0.7455
28406SOL     OW87224  10.347   2.660   5.501 -0.3955 -0.3605  0.4210
28406SOL    HW187225  10.323   2.604   5.428 -0.1280 -1.6616  1.3043
28406SOL    HW287226  10.435   2.632   5.526  0.0181  0.9021  0.4757
28407SOL     OW87227   7.915   1.466   7.528 -0.3496  0.2600  0.1476
28407SOL    HW187228   7.863   1.546   7.539 -1.4482 -0.3630 -0.2494
28407SOL    HW287229   7.931   1.461   7.433  1.3483  0.9693  0.3647
28408SOL     OW87230   1.042   6.414   6.379 -0.1560 -0.4582  0.3783
28408SOL    HW187231   1.107   6.445   6.442  1.1091 -0.8899 -0.6676
28408SOL    HW287232   0.980   6.363   6.432 -1.7984  2.9022  2.0132
28409SOL     OW87233  10.253   1.880   6.651 -0.1701  0.3433 -0.1732
28409SOL    HW187234  10.338   1.837   6.638 -0.1163  0.3450  0.1702
28409SOL    HW287235  10.233   1.867   6.743 -1.9009 -2.1398 -0.8059
28410SOL     OW87236   9.688   6.757   6.200  0.2559 -0.1868 -0.2800
28410SOL    HW187237   9.715   6.840   6.161  1.3869 -0.2384  0.3721
28410SOL    HW287238   9.748   6.692   6.163  0.4359 -0.4523  0.4596
28411SOL     OW87239   6.406  10.444   5.461  0.2771 -0.3103 -0.5101
28411SOL    HW187240   6.341  10.468   5.528 -1.4920  0.7034 -2.4506
28411SOL    HW287241   6.369  10.365   5.420  1.1393 -0.6895 -0.5704
28412SOL     OW87242   8.357   3.470   1.298  0.3455 -0.0753 -0.1192
28412SOL    HW187243   8.394   3.431   1.378  1.0255 -1.5973 -1.1341
28412SOL    HW287244   8.402   3.554   1.290 -0.1197  0.3587  1.3631
28413SOL     OW87245   6.074   6.147   1.735  0.1535 -0.7076  0.2622
28413SOL    HW187246   6.162   6.141   1.774  1.4006 -0.2489 -2.2457
28413SOL    HW287247   6.064   6.239   1.712 -0.0998 -1.0787 -1.2419
28414SOL     OW87248   2.555   8.767   1.856  0.1427  0.1067  0.7668
28414SOL    HW187249   2.594   8.765   1.768 -1.3088 -0.6048  0.0870
28414SOL    HW287250   2.599   8.839   1.900  0.1237  1.2267 -0.9381
28415SOL     OW87251   2.535   0.788  10.113 -0.0111 -0.3545  0.0457
28415SOL    HW187252   2.622   0.828  10.115  0.9044 -2.2210 -0.0569
28415SOL    HW287253   2.493   0.818  10.194  0.8094  0.3886  0.2110
28416SOL     OW87254   2.114   9.190   6.427  0.0614 -0.2255  0.1152
28416SOL    HW187255   2.203   9.165   6.452 -0.4817 -1.8835  0.5692
28416SOL    HW287256   2.058   9.132   6.480 -1.2713  0.4828 -0.4839
28417SOL     OW87257   2.385   4.146   5.481  0.0021  0.2251  0.0675
28417SOL    HW187258   2.426   4.097   5.410 -0.2505 -0.5744  0.4564
28417SOL    HW287259   2.308   4.186   5.441  0.5190  0.7748 -0.3884
28418SOL     OW87260   8.187   6.532   6.454  0.1407 -0.1250  0.1725
28418SOL    HW187261   8.206   6.626   6.464  1.5950 -0.5382  1.8976
28418SOL    HW287262   8.148   6.524   6.367 -1.6459  2.3050  0.6470
28419SOL     OW87263   8.890   4.090   3.853  0.2128 -0.3754  0.3877
28419SOL    HW187264   8.797   4.107   3.867  0.3043  1.2035 -0.7181
28419SOL    HW287265   8.935   4.166   3.890  1.1200 -1.3165  1.3097
28420SOL     OW87266   4.369  10.018   0.646 -0.0780 -0.6264  0.1569
28420SOL    HW187267   4.293  10.076   0.640  0.7690  0.5610  0.5913
28420SOL    HW287268   4.444  10.077   0.649  0.9407 -1.7883 -1.1666
28421SOL     OW87269   2.326   8.873   6.356 -0.1342  0.3821  0.0274
28421SOL    HW187270   2.231   8.866   6.361 -0.0803  0.1627  1.2794
28421SOL    HW287271   2.347   8.947   6.414  0.5157 -0.3007  0.6864
28422SOL     OW87272   5.355   7.420   5.982  0.2132  0.2194 -0.4631
28422SOL    HW187273   5.308   7.459   6.055 -0.1816  2.0102 -1.6066
28422SOL    HW287274   5.430   7.478   5.968  0.3058 -0.1111 -1.4324
28423SOL     OW87275   4.733   5.312   2.051  0.1066 -0.1159  0.2185
28423SOL    HW187276   4.702   5.321   1.961  0.3067 -0.8365  0.0665
28423SOL    HW287277   4.826   5.333   2.048 -0.1531  1.1717  0.5127
28424SOL     OW87278   2.350   4.927   3.422  0.1594 -0.5419  0.1373
28424SOL    HW187279   2.263   4.888   3.410 -0.1694 -0.0322  0.7925
28424SOL    HW287280   2.386   4.881   3.498  0.3696 -0.5856  0.0115
28425SOL     OW87281  10.118   6.048   9.196  0.2628  0.8706  0.0065
28425SOL    HW187282  10.085   6.135   9.219  0.7054  0.8331  0.7927
28425SOL    HW287283  10.165   6.018   9.274  1.2642  0.4833 -0.7214
28426SOL     OW87284   0.418   1.623   8.768  0.1185  0.8057 -0.0246
28426SOL    HW187285   0.365   1.684   8.820 -0.5264  0.8165 -0.6853
28426SOL    HW287286   0.509   1.645   8.791 -0.1344  1.3388  0.4990
28427SOL     OW87287   8.637   0.533   7.042  0.2255 -0.8177 -0.2917
28427SOL    HW187288   8.654   0.537   6.948  0.0838  0.1001 -0.2895
28427SOL    HW287289   8.564   0.593   7.056 -0.2864 -1.5529  0.2978
28428SOL     OW87290   4.824   2.631   0.149  0.0863  0.6411  0.3606
28428SOL    HW187291   4.854   2.629   0.240 -0.2132  1.4559  0.4804
28428SOL    HW287292   4.901   2.607   0.098 -0.2141 -1.8135  0.9170
28429SOL     OW87293   5.522  10.130   1.117 -0.1797 -0.1565  0.4055
28429SOL    HW187294   5.499  10.175   1.036 -1.2188  1.1553  1.3809
28429SOL    HW287295   5.540  10.201   1.180 -1.4058 -1.0838  1.8802
28430SOL     OW87296   1.653   1.419   5.165  0.5671  0.1490  0.5676
28430SOL    HW187297   1.707   1.342   5.179 -0.8837 -0.8291  1.0082
28430SOL    HW287298   1.662   1.438   5.071  2.4179  0.6239  0.8144
28431SOL     OW87299   8.112   9.400   8.335  0.4119  0.9206 -0.2521
28431SOL    HW187300   8.161   9.326   8.299  0.8711 -0.3361  2.6943
28431SOL    HW287301   8.176   9.470   8.345  0.3994  1.0902 -1.2263
28432SOL     OW87302   2.436   6.138   9.120 -0.0398 -0.7372  0.5527
28432SOL    HW187303   2.490   6.112   9.194 -0.7332 -1.7287  0.7418
28432SOL    HW287304   2.448   6.069   9.055  0.5706  0.1257 -0.2917
28433SOL     OW87305  10.529   7.573   4.808 -0.0589 -0.3098  0.2084
28433SOL    HW187306  10.542   7.511   4.735  1.1047 -0.1628  0.2741
28433SOL    HW287307  10.593   7.642   4.792 -0.7232  0.4137  0.6462
28434SOL     OW87308  10.822  10.880   5.190  0.1246 -0.4948 -0.2596
28434SOL    HW187309  10.787  10.794   5.170  1.6746 -1.2508  0.1194
28434SOL    HW287310  10.794  10.935   5.117 -1.7638 -1.0330  0.0017
28435SOL     OW87311   9.982   6.662   6.958 -0.3666  0.1514 -0.1953
28435SOL    HW187312   9.961   6.574   6.991 -1.8677 -0.3823 -2.3673
28435SOL    HW287313  10.078   6.666   6.960 -0.1574 -2.2731 -1.7170
28436SOL     OW87314   2.568   1.412   9.779  0.6148 -0.1218 -0.5677
28436SOL    HW187315   2.653   1.445   9.809 -0.0418 -0.1338  1.4595
28436SOL    HW287316   2.571   1.319   9.800 -0.8141  0.3255  1.9691
28437SOL     OW87317   1.929   8.869   0.915  0.2979  0.0826 -0.1628
28437SOL    HW187318   1.952   8.924   0.990 -0.6635  2.4308 -1.4535
28437SOL    HW287319   1.982   8.903   0.844  0.4575 -1.4244 -0.8017
28438SOL     OW87320   2.278   0.803   3.475 -0.3826 -0.9622  0.0530
28438SOL    HW187321   2.303   0.711   3.471  1.2925 -0.5906  1.2222
28438SOL    HW287322   2.319   0.836   3.555 -0.5508  0.9137 -0.5912
28439SOL     OW87323   4.275   8.729   4.475  0.2253  0.0115 -0.0145
28439SOL    HW187324   4.199   8.765   4.431 -0.9905  0.4200  2.2589
28439SOL    HW287325   4.283   8.781   4.556  1.8834 -1.1335  0.6250
28440SOL     OW87326   6.777   8.833   6.698 -0.2535 -0.2829  0.2482
28440SOL    HW187327   6.729   8.867   6.623 -2.3453 -0.4744  1.4110
28440SOL    HW287328   6.732   8.869   6.774 -0.3107 -2.6942  1.4572
28441SOL     OW87329   3.869   4.509   2.658 -0.4432 -0.4014  0.0025
28441SOL    HW187330   3.874   4.554   2.742 -0.3406 -0.3458 -0.0332
28441SOL    HW287331   3.820   4.429   2.677  0.9503 -1.1750  0.4651
28442SOL     OW87332   7.373   3.550   1.781 -0.0243 -0.0138  0.4116
28442SOL    HW187333   7.294   3.510   1.817  0.1308 -0.4584  0.2671
28442SOL    HW287334   7.408   3.484   1.721  0.0382  0.4895 -0.1133
28443SOL     OW87335   9.187   2.654   9.745  0.1154  0.5269  0.4962
28443SOL    HW187336   9.144   2.730   9.706 -0.1111 -0.0921 -0.4939
28443SOL    HW287337   9.207   2.682   9.834 -0.4239  1.5690  0.3160
28444SOL     OW87338   0.836   8.542   8.319 -0.0902  0.0490 -0.8747
28444SOL    HW187339   0.879   8.459   8.300 -0.5105  0.0991 -2.1202
28444SOL    HW287340   0.743   8.521   8.322 -0.2352  0.5586 -1.6717
28445SOL     OW87341   1.021   7.177  10.108  0.1242  0.6786 -0.1693
28445SOL    HW187342   0.957   7.112  10.078 -0.7770  0.5897  1.7687
28445SOL    HW287343   1.105   7.132  10.102 -0.0125  0.6204 -2.2821
28446SOL     OW87344   5.601   4.203   2.061 -0.4285 -0.0004 -0.0607
28446SOL    HW187345   5.600   4.222   1.967 -1.4744 -0.7565 -0.2206
28446SOL    HW287346   5.552   4.275   2.100 -2.6717 -1.1995 -0.4591
28447SOL     OW87347   4.672   7.873   0.784  0.3134 -0.4049 -0.0742
28447SOL    HW187348   4.645   7.960   0.812 -0.0033 -0.6626  0.4401
28447SOL    HW287349   4.701   7.830   0.865  1.3800 -0.4561 -0.4612
28448SOL     OW87350   2.792   0.527   2.886 -0.1454 -0.3037 -0.1217
28448SOL    HW187351   2.828   0.574   2.961 -0.2030  0.8272 -0.7833
28448SOL    HW287352   2.865   0.519   2.825 -0.3568 -0.2653 -0.3869
28449SOL     OW87353   6.529   8.496   6.393  0.3636  0.2526 -0.7498
28449SOL    HW187354   6.538   8.475   6.486 -0.0101  1.7158 -0.3680
28449SOL    HW287355   6.522   8.591   6.390  0.6675  0.2522 -2.3104
28450SOL     OW87356   5.483   3.612   3.281  0.6596  0.0616  0.6441
28450SOL    HW187357   5.444   3.525   3.275 -0.0372  0.4538 -1.0057
28450SOL    HW287358   5.425   3.660   3.340 -0.8174  0.3271 -0.9554
28451SOL     OW87359   5.863   5.689   5.522  0.2634 -0.6480 -0.6005
28451SOL    HW187360   5.864   5.598   5.549  1.5155 -1.0996 -2.0369
28451SOL    HW287361   5.792   5.695   5.457 -0.2444 -0.4313 -0.0377
28452SOL     OW87362  10.358   8.377   8.197 -0.0309 -0.7606  0.2884
28452SOL    HW187363  10.291   8.324   8.154 -1.1042 -0.1378  1.1645
28452SOL    HW287364  10.361   8.343   8.286 -1.2943  1.1114  1.1018
28453SOL     OW87365   8.262  10.043   3.504  0.0471  0.1108  0.3752
28453SOL    HW187366   8.237  10.111   3.442 -2.4573 -1.2925 -0.2848
28453SOL    HW287367   8.230  10.075   3.589  2.6703  1.6084  0.9172
28454SOL     OW87368   2.692   1.598   7.926  0.5649 -0.3806 -0.0359
28454SOL    HW187369   2.771   1.568   7.882 -0.2518  0.1084 -1.9490
28454SOL    HW287370   2.718   1.676   7.974  1.2328 -0.1619 -0.7361
28455SOL     OW87371  10.574   5.169   1.780 -0.0627  0.6798  0.4401
28455SOL    HW187372  10.605   5.139   1.866  0.5569  1.3411  0.4603
28455SOL    HW287373  10.561   5.264   1.791 -1.3261  0.5463  0.1936
28456SOL     OW87374   6.786   6.656   8.800 -0.3828  0.0163  0.6087
28456SOL    HW187375   6.700   6.628   8.832 -0.4486 -0.2826  0.1818
28456SOL    HW287376   6.817   6.582   8.747 -0.4687  0.6510 -0.3660
28457SOL     OW87377   6.981   9.304   4.064  0.4576 -0.5371  0.3188
28457SOL    HW187378   6.978   9.238   3.995  0.0943  1.0930 -1.3402
28457SOL    HW287379   7.049   9.365   4.036 -0.6929  0.9506  0.6122
28458SOL     OW87380   4.840  10.778   7.965  0.1449  0.3927  0.2692
28458SOL    HW187381   4.790  10.813   7.891 -1.5024 -0.3803  0.9695
28458SOL    HW287382   4.930  10.804   7.947 -0.3838  1.2166 -1.4194
28459SOL     OW87383   4.465   8.176   0.339 -0.6175  0.3463 -0.3657
28459SOL    HW187384   4.505   8.131   0.265 -0.5840 -0.6820  0.2496
28459SOL    HW287385   4.539   8.204   0.393 -0.6300 -1.9627  1.0092
28460SOL     OW87386   0.167   0.871   3.184  0.8028 -0.3915  0.1092
28460SOL    HW187387   0.099   0.829   3.133  0.1901  0.1998  0.4300
28460SOL    HW287388   0.186   0.809   3.255  1.3165 -0.9966 -0.5453
28461SOL     OW87389   0.171   0.551   9.446 -0.0879  0.0086  0.3078
28461SOL    HW187390   0.157   0.614   9.375  1.2627 -0.0117 -0.0027
28461SOL    HW287391   0.145   0.599   9.525  0.0298  0.6371 -0.0219
28462SOL     OW87392   1.912   2.151   7.997  0.3037  0.3393 -0.2976
28462SOL    HW187393   1.834   2.110   7.960  2.5840 -0.7196 -4.4465
28462SOL    HW287394   1.908   2.242   7.966 -0.1614  0.8477  1.1556
28463SOL     OW87395   3.978   1.976   9.016  0.0482 -0.5162  0.1087
28463SOL    HW187396   3.901   2.021   8.981 -0.0842  0.7038  1.8237
28463SOL    HW287397   4.002   2.027   9.093  0.4043 -2.9458  1.7091
28464SOL     OW87398  10.176   6.244   1.131 -0.0046  0.0521 -0.1726
28464SOL    HW187399  10.247   6.307   1.122  0.1985 -0.0957  0.4077
28464SOL    HW287400  10.172   6.200   1.046 -1.3299  2.0797 -1.2482
28465SOL     OW87401   4.514   7.468   5.793  0.5215  0.3324  0.0620
28465SOL    HW187402   4.509   7.389   5.739  0.9263 -0.1906  0.7707
28465SOL    HW287403   4.424   7.499   5.799  0.6338  1.2864 -2.1651
28466SOL     OW87404   6.012   8.066   2.159 -0.0815 -0.3558  0.1974
28466SOL    HW187405   5.925   8.053   2.197 -0.9160 -0.2952 -1.5823
28466SOL    HW287406   6.009   8.155   2.123  0.5061 -0.5567 -0.3771
28467SOL     OW87407   0.877   3.242   2.523  0.4399  0.6817 -0.7084
28467SOL    HW187408   0.788   3.237   2.559  0.4840 -0.7897 -0.7510
28467SOL    HW287409   0.922   3.166   2.560  2.2950  2.4539  0.8892
28468SOL     OW87410   2.811   9.498   5.348 -0.2453 -0.1057 -0.8205
28468SOL    HW187411   2.859   9.420   5.375  0.5698  0.5113 -0.4703
28468SOL    HW287412   2.816   9.557   5.423 -1.9380 -0.1865 -0.5972
28469SOL     OW87413   4.905   9.665   7.625 -0.2291 -0.1223 -0.1072
28469SOL    HW187414   4.829   9.696   7.575 -0.8372  0.1984  0.9889
28469SOL    HW287415   4.878   9.581   7.662  0.4356 -0.6546 -0.7782
28470SOL     OW87416   8.501  10.287   0.731 -0.0375  0.1712  0.2463
28470SOL    HW187417   8.571  10.224   0.749 -2.2637 -2.5773  0.1632
28470SOL    HW287418   8.482  10.276   0.638  0.5172  2.1981 -0.1574
28471SOL     OW87419   3.083   3.340   9.311 -0.1135 -0.0267  0.4262
28471SOL    HW187420   3.080   3.434   9.331  0.4601 -0.2830  1.8500
28471SOL    HW287421   3.174   3.324   9.287 -0.0246 -0.3591  0.9705
28472SOL     OW87422   0.696   1.431   9.331 -0.4056  0.2018 -0.6914
28472SOL    HW187423   0.697   1.339   9.359 -0.6382 -0.5032 -2.7488
28472SOL    HW287424   0.782   1.465   9.356 -0.0270 -0.8213 -0.5536
28473SOL     OW87425   4.136   5.662   2.081 -0.0847 -0.3985 -0.0310
28473SOL    HW187426   4.214   5.610   2.056  0.7084  0.0326  1.4407
28473SOL    HW287427   4.098   5.613   2.154 -1.0348 -0.4250 -0.5312
28474SOL     OW87428   4.974   5.906   1.087  0.3589 -0.0805 -0.6241
28474SOL    HW187429   4.969   5.825   1.137  0.3703  0.3414  0.0676
28474SOL    HW287430   4.902   5.900   1.024 -0.9220  0.2564  0.7613
28475SOL     OW87431   6.706   1.156   9.203 -0.3994  0.2199 -0.5504
28475SOL    HW187432   6.716   1.108   9.121  0.3855 -1.3967  0.4425
28475SOL    HW287433   6.774   1.121   9.260 -2.0615 -0.0339  1.4027
28476SOL     OW87434   2.855   8.247   3.059  0.7106  0.2656  0.2577
28476SOL    HW187435   2.781   8.304   3.082  0.2488 -0.4802  0.6636
28476SOL    HW287436   2.894   8.224   3.144  1.2442  0.4400  0.0608
28477SOL     OW87437   9.175   1.251   5.674  0.0581  0.2981 -0.5534
28477SOL    HW187438   9.163   1.340   5.640 -1.4424 -0.7179 -2.9606
28477SOL    HW287439   9.256   1.221   5.633  0.4073  0.4303  0.0269
28478SOL     OW87440   5.621   6.927   9.009  0.0351 -0.4107 -0.6304
28478SOL    HW187441   5.556   6.915   8.940 -0.6359 -1.0040  0.0966
28478SOL    HW287442   5.703   6.942   8.962 -0.3048 -1.3684 -1.5553
28479SOL     OW87443   7.864   9.880   5.393 -1.1858  0.3814 -0.0845
28479SOL    HW187444   7.788   9.864   5.449 -1.2814  0.0394 -0.3064
28479SOL    HW287445   7.938   9.881   5.454 -1.1310 -1.2660 -0.0661
28480SOL     OW87446   8.962   1.645   2.448  0.1692 -0.1856  0.3134
28480SOL    HW187447   9.030   1.686   2.394  0.1944  2.3811  2.0919
28480SOL    HW287448   8.919   1.719   2.492 -2.5576 -1.8584  0.6672
28481SOL     OW87449   3.387   1.994   2.361 -0.3349  0.0695  0.3742
28481SOL    HW187450   3.466   2.032   2.400 -1.1245  0.3498  1.7763
28481SOL    HW287451   3.316   2.048   2.395 -1.2750 -1.2257  0.5162
28482SOL     OW87452   8.640   8.169   3.211 -0.3145  0.1933  0.4284
28482SOL    HW187453   8.622   8.083   3.174 -1.4364  0.2150  0.9077
28482SOL    HW287454   8.736   8.172   3.217 -0.0237  0.2752 -2.6267
28483SOL     OW87455   0.538   9.188   1.286 -0.3797  0.5074  0.2265
28483SOL    HW187456   0.473   9.210   1.219 -1.4765 -3.0134 -0.1184
28483SOL    HW287457   0.622   9.201   1.242 -1.0630 -0.9857 -1.6829
28484SOL     OW87458   6.071  10.116   4.545 -0.1215  0.2339 -0.4030
28484SOL    HW187459   6.090  10.027   4.516  1.0650 -0.0423  1.0872
28484SOL    HW287460   6.151  10.165   4.526  0.6197  0.0867  2.0718
28485SOL     OW87461   8.418   1.876   6.558 -0.2755 -0.2334  0.4607
28485SOL    HW187462   8.443   1.798   6.508  0.0594 -0.9275  1.6695
28485SOL    HW287463   8.482   1.943   6.532 -1.4190  0.1452 -1.6798
28486SOL     OW87464   9.177   8.552   0.360 -0.2196  0.6755  0.3658
28486SOL    HW187465   9.200   8.539   0.268  1.1109  1.0503  0.6180
28486SOL    HW287466   9.083   8.535   0.365 -0.1409 -0.1965 -0.8951
28487SOL     OW87467   8.017   1.048   9.802 -0.1260 -0.0299 -0.7115
28487SOL    HW187468   7.965   0.971   9.776 -1.1943  0.8248 -1.1689
28487SOL    HW287469   8.065   1.019   9.879 -0.0333 -1.3540 -1.2267
28488SOL     OW87470   2.180   2.636   2.141 -0.5310  0.1691  0.2966
28488SOL    HW187471   2.094   2.603   2.113 -0.7504 -0.8290  1.9639
28488SOL    HW287472   2.236   2.558   2.143  0.4427  0.8168 -0.7909
28489SOL     OW87473   9.029   2.858   8.247  0.4392 -0.2360  0.1773
28489SOL    HW187474   8.956   2.878   8.306  0.8649 -0.7924  0.9153
28489SOL    HW287475   9.107   2.882   8.297  0.7511  1.6055 -1.0888
28490SOL     OW87476   6.670   9.410   8.567 -0.2148 -0.5792 -0.5896
28490SOL    HW187477   6.603   9.416   8.635 -0.2863 -2.0047 -0.4898
28490SOL    HW287478   6.749   9.445   8.607 -0.7072  0.3794 -0.4378
28491SOL     OW87479   1.282   7.765   9.450  0.2548 -0.0598 -0.0724
28491SOL    HW187480   1.296   7.720   9.367 -0.3286 -1.8838  0.7648
28491SOL    HW287481   1.361   7.819   9.461  1.0415 -0.9484 -1.0877
28492SOL     OW87482   2.629   8.962   0.197  0.3865  0.0505 -0.2395
28492SOL    HW187483   2.541   8.997   0.187  0.9563  1.6883  0.3077
28492SOL    HW287484   2.626   8.878   0.150 -1.5192 -0.0615  0.0099
28493SOL     OW87485   2.021  11.032   0.477 -0.4549  0.3432  0.1142
28493SOL    HW187486   2.045  11.013   0.568 -1.5106 -2.6711 -0.1216
28493SOL    HW287487   2.105  11.048   0.434  0.2931 -0.4975  1.1842
28494SOL     OW87488   6.649   9.310   7.161  0.7578  0.3154  0.0316
28494SOL    HW187489   6.577   9.247   7.157  0.2156  0.9608 -2.4552
28494SOL    HW287490   6.608   9.395   7.142  1.6743  1.2619  2.0215
28495SOL     OW87491   0.797   1.157   0.679 -0.3281  0.2248  0.0395
28495SOL    HW187492   0.790   1.068   0.714  0.2401 -0.0649 -0.5518
28495SOL    HW287493   0.865   1.150   0.612  0.9431  1.4509  1.1261
28496SOL     OW87494  10.749   3.306   4.675 -0.1140 -0.6314  0.5583
28496SOL    HW187495  10.732   3.214   4.695  1.1988 -1.0488 -0.1200
28496SOL    HW287496  10.727   3.316   4.583  3.3860 -1.3171 -0.4957
28497SOL     OW87497   9.762   6.973  10.922  0.5246  0.1478 -1.2495
28497SOL    HW187498   9.705   7.039  10.883 -1.1024 -0.8576 -0.6666
28497SOL    HW287499   9.725   6.889  10.895 -0.0376 -0.5909  1.4569
28498SOL     OW87500   1.933   4.242   5.125  0.1548 -0.3777 -0.3343
28498SOL    HW187501   2.026   4.264   5.125  0.1889 -0.4518  0.8075
28498SOL    HW287502   1.890   4.319   5.163 -0.2674 -0.2847 -0.9914
28499SOL     OW87503   0.310   1.199   6.244 -0.2787 -0.0314  0.0313
28499SOL    HW187504   0.282   1.235   6.160 -1.0335 -0.5370  0.0633
28499SOL    HW287505   0.392   1.154   6.224  0.4188  1.2307 -0.1054
28500SOL     OW87506   4.916   6.585   4.026  0.8922  0.3995 -0.5217
28500SOL    HW187507   4.927   6.666   4.075  0.0905  0.2443 -0.0531
28500SOL    HW287508   4.977   6.524   4.067  0.2312  0.2713  0.3084
28501SOL     OW87509   2.694   6.913   7.227  0.3872 -0.2950 -0.3552
28501SOL    HW187510   2.600   6.929   7.231  0.2943 -0.5342 -1.3347
28501SOL    HW287511   2.721   6.948   7.141  1.0437 -0.9369 -0.4208
28502SOL     OW87512   6.517   4.901   6.827 -0.0357  0.2331  0.4452
28502SOL    HW187513   6.432   4.939   6.806  0.6089  1.1938 -0.5698
28502SOL    HW287514   6.539   4.848   6.750  0.6271  0.6560  0.3303
28503SOL     OW87515   1.828   0.014  10.129  0.2683 -0.0645 -0.2432
28503SOL    HW187516   1.815   0.086  10.191  1.4730 -0.4064  0.4318
28503SOL    HW287517   1.827  -0.065  10.183  0.0194 -0.4817 -0.8450
28504SOL     OW87518   6.877   3.700   8.559 -1.0073  0.4308 -0.5384
28504SOL    HW187519   6.814   3.657   8.617 -2.2163  1.6814 -0.8634
28504SOL    HW287520   6.827   3.715   8.478  0.5516 -1.0246 -1.8516
28505SOL     OW87521   6.199   2.210   9.828 -0.2115  0.1645 -0.1630
28505SOL    HW187522   6.217   2.216   9.921 -0.8696  1.1155 -0.0826
28505SOL    HW287523   6.274   2.254   9.786  0.6163 -1.1886 -0.1585
28506SOL     OW87524   5.479   9.753   4.361 -0.0180 -0.1661  0.0457
28506SOL    HW187525   5.509   9.842   4.383 -0.8710 -0.5964  3.5569
28506SOL    HW287526   5.391   9.765   4.325 -0.1568  0.4110  0.5707
28507SOL     OW87527  10.757   0.058   7.028  0.4806 -0.4727  0.0712
28507SOL    HW187528  10.730  -0.031   7.007  2.5127 -1.2268  0.3704
28507SOL    HW287529  10.766   0.058   7.123 -1.0240  0.5644  0.2530
28508SOL     OW87530   1.085   1.221   4.547 -0.8142  0.6297  0.1734
28508SOL    HW187531   1.044   1.202   4.462 -3.3265  2.2320  0.9159
28508SOL    HW287532   1.028   1.180   4.611 -0.5801  1.8419  1.1992
28509SOL     OW87533   3.374   2.570   4.938 -0.0275  0.4176  0.0700
28509SOL    HW187534   3.360   2.644   4.879 -1.5093  1.3241  1.4747
28509SOL    HW287535   3.351   2.493   4.886 -2.2716  1.2710 -0.2944
28510SOL     OW87536   8.225   3.405   7.384 -0.1505  0.4859  0.5005
28510SOL    HW187537   8.215   3.361   7.300  0.7726  0.0034  0.6251
28510SOL    HW287538   8.158   3.473   7.384 -0.0695  0.5834 -0.6851
28511SOL     OW87539   2.050   6.981   5.807 -0.1185  0.1311 -0.1904
28511SOL    HW187540   1.999   6.901   5.818  0.3413 -0.0687  0.5514
28511SOL    HW287541   1.987   7.052   5.818 -0.2897 -0.1143  0.4362
28512SOL     OW87542   7.079   7.036   9.951  0.5758 -0.1735  0.1348
28512SOL    HW187543   7.111   7.121   9.983 -0.5184  0.1348  0.4451
28512SOL    HW287544   7.050   7.055   9.861  0.5777 -0.2777  0.1130
28513SOL     OW87545   3.608   6.040  10.541  0.1105  0.6163  0.2407
28513SOL    HW187546   3.636   6.105  10.605 -0.1751  1.7161 -0.7213
28513SOL    HW287547   3.689   5.999  10.511  0.4370  1.6056 -0.2587
28514SOL     OW87548   0.212   1.187   3.522  0.3438 -0.2843  0.3987
28514SOL    HW187549   0.147   1.141   3.575 -0.8931  2.1711  1.1666
28514SOL    HW287550   0.162   1.251   3.473  2.0427  0.8042 -0.0018
28515SOL     OW87551   3.506  10.827   7.417 -0.1836  0.2684 -0.1815
28515SOL    HW187552   3.459  10.868   7.345  2.0153 -0.0618 -1.8972
28515SOL    HW287553   3.472  10.737   7.420  0.2524  0.0484 -1.3560
28516SOL     OW87554   4.941   2.533   7.540  0.0699  0.1298 -0.6321
28516SOL    HW187555   4.929   2.480   7.619  0.4449 -0.9194 -1.2619
28516SOL    HW287556   5.018   2.588   7.559  0.4398 -0.4491 -0.4375
28517SOL     OW87557   5.897   5.745   6.744 -0.4749  0.1530 -0.1368
28517SOL    HW187558   5.806   5.773   6.747  0.0728  1.9842  1.1378
28517SOL    HW287559   5.947   5.826   6.748  1.2324 -0.9105  1.5838
28518SOL     OW87560   1.079   5.644   8.982  0.3044 -0.1167 -0.1426
28518SOL    HW187561   1.122   5.729   8.977 -1.3998  0.7556 -0.9335
28518SOL    HW287562   0.990   5.663   9.012 -0.0992 -1.6196 -0.2744
28519SOL     OW87563   1.838   5.330   7.007  0.4555 -0.2457  0.6487
28519SOL    HW187564   1.781   5.322   6.930  1.2225  0.4976 -0.0217
28519SOL    HW287565   1.875   5.242   7.018 -0.6362 -0.6812  0.9597
28520SOL     OW87566   0.829   9.643   5.101  0.1946  0.0643 -0.0226
28520SOL    HW187567   0.884   9.641   5.180  0.4830 -0.9916 -0.2355
28520SOL    HW287568   0.740   9.629   5.134  0.3877 -0.9810  0.0618
28521SOL     OW87569   0.181  10.323   1.758 -0.0606  0.3280  0.5234
28521SOL    HW187570   0.154  10.280   1.676 -0.9168  1.2784  0.2876
28521SOL    HW287571   0.236  10.258   1.802 -0.1455 -0.4551 -0.4942
28522SOL     OW87572   9.031   1.814   6.211 -0.0363 -0.4635 -0.1721
28522SOL    HW187573   9.060   1.884   6.269 -0.6007 -0.1077 -0.3090
28522SOL    HW287574   8.999   1.746   6.270  0.6143 -0.6616 -0.0358
28523SOL     OW87575   1.383  10.462   2.209  0.2715  0.1621  0.2575
28523SOL    HW187576   1.379  10.366   2.213  0.1789  0.2000  1.7757
28523SOL    HW287577   1.296  10.487   2.177 -0.5155 -0.2086  1.9894
28524SOL     OW87578   8.018   9.158   9.117  0.5781 -0.3611 -0.5456
28524SOL    HW187579   8.082   9.185   9.051 -0.0944 -0.6589 -1.3422
28524SOL    HW287580   8.029   9.063   9.123 -0.2325 -0.5072 -1.1847
28525SOL     OW87581   7.081   9.406   2.335 -0.3868  0.1725 -0.4710
28525SOL    HW187582   7.069   9.312   2.326 -0.5175  0.2778 -1.5344
28525SOL    HW287583   7.045   9.427   2.422 -0.4087 -0.7389 -0.2528
28526SOL     OW87584   6.926   8.683   7.055 -0.0375  0.2030  0.5314
28526SOL    HW187585   6.938   8.767   7.011  2.7332 -0.4399 -0.1225
28526SOL    HW287586   6.954   8.698   7.145  1.9323 -0.2997  0.0498
28527SOL     OW87587   3.395   6.432   5.450 -0.2921  0.0010 -0.0425
28527SOL    HW187588   3.491   6.439   5.458 -0.1799  1.3897 -1.9106
28527SOL    HW287589   3.369   6.375   5.522  1.8492  0.2852  1.0335
28528SOL     OW87590   6.876   0.702   1.898  0.1241  0.1362 -0.3126
28528SOL    HW187591   6.943   0.734   1.957 -1.6730 -0.8712  2.4820
28528SOL    HW287592   6.847   0.619   1.936 -1.9154 -0.0239 -1.9855
28529SOL     OW87593   2.626   9.620   2.862  0.1637  0.1376 -0.4624
28529SOL    HW187594   2.700   9.673   2.833  0.4494 -0.0825 -0.1339
28529SOL    HW287595   2.562   9.629   2.791  0.2152  0.8997 -0.4216
28530SOL     OW87596   3.918   6.874   3.373 -0.1711  0.3440  0.1817
28530SOL    HW187597   3.914   6.796   3.317 -1.2628  0.2146  0.4315
28530SOL    HW287598   3.878   6.943   3.320  0.3470  0.6311  0.1549
28531SOL     OW87599   6.248   7.848   0.971  0.3429  0.0478 -0.4414
28531SOL    HW187600   6.252   7.786   0.897 -0.8405 -0.3266 -0.2115
28531SOL    HW287601   6.317   7.818   1.030  0.8023 -0.1109 -1.0413
28532SOL     OW87602   1.323   8.631   1.560  0.0600 -0.0025  0.3701
28532SOL    HW187603   1.362   8.561   1.612  0.6276  0.8443  1.1268
28532SOL    HW287604   1.229   8.628   1.581 -0.1842 -1.4987 -0.7940
28533SOL     OW87605   3.268   9.785   6.156 -0.2417  0.3532 -0.8195
28533SOL    HW187606   3.249   9.727   6.230  0.0900  0.3835 -0.7106
28533SOL    HW287607   3.277   9.872   6.196  0.4588  0.2859 -0.8255
28534SOL     OW87608   1.248   3.053   4.807  0.4920 -0.3077  0.2562
28534SOL    HW187609   1.198   2.980   4.843  0.7943  0.3060  1.9974
28534SOL    HW287610   1.339   3.031   4.825  0.7015 -0.2397 -0.6643
28535SOL     OW87611   1.006   2.152   3.265 -0.4327 -0.3719  0.3307
28535SOL    HW187612   0.956   2.228   3.235 -1.2095 -1.3471 -0.9505
28535SOL    HW287613   1.022   2.101   3.185  4.2541  0.7388  0.2668
28536SOL     OW87614   3.524   8.182   4.638 -0.4898 -0.3465  0.3957
28536SOL    HW187615   3.571   8.177   4.721  1.3855  1.3785 -0.4796
28536SOL    HW287616   3.495   8.092   4.621 -0.3150 -0.8560  2.5559
28537SOL     OW87617   7.664   1.315   6.747  0.1932 -0.4729  0.4365
28537SOL    HW187618   7.733   1.367   6.706 -0.5802  0.0600 -0.2254
28537SOL    HW287619   7.693   1.303   6.838  0.1237  1.6532  0.7842
28538SOL     OW87620   3.344   3.915   7.803 -0.2343 -0.0621  0.3847
28538SOL    HW187621   3.353   4.004   7.767 -0.2485  0.1892  0.9766
28538SOL    HW287622   3.434   3.884   7.810 -0.0788  0.6466  1.9370
28539SOL     OW87623  10.407   2.093   3.113  0.2541 -0.4735  0.3898
28539SOL    HW187624  10.402   2.001   3.140  0.3181 -0.1250  1.6778
28539SOL    HW287625  10.320   2.128   3.133  0.1354 -0.3109 -0.3754
28540SOL     OW87626   6.268   9.477   9.869  0.5598  0.0691  0.1690
28540SOL    HW187627   6.345   9.532   9.884 -0.9654  1.9332  1.8043
28540SOL    HW287628   6.211   9.530   9.813 -1.0722  0.3945  2.0179
28541SOL     OW87629   4.422   2.718   0.677 -0.3649 -0.0247  0.2986
28541SOL    HW187630   4.422   2.716   0.581  3.2801  0.8132  0.1307
28541SOL    HW287631   4.493   2.658   0.702  0.1707  1.3565  2.3398
28542SOL     OW87632   4.206   5.780   8.882  0.1167  0.7964  0.8386
28542SOL    HW187633   4.177   5.806   8.795 -1.4185  1.0846  1.4079
28542SOL    HW287634   4.128   5.745   8.925  0.7864  0.8597  2.1748
28543SOL     OW87635   2.829   0.952   5.950 -0.5389 -0.4216 -0.1419
28543SOL    HW187636   2.771   0.888   5.909 -2.3751  1.7994 -1.2266
28543SOL    HW287637   2.854   1.011   5.879 -0.8251  1.4264  1.2235
28544SOL     OW87638   3.488   3.731   5.117 -0.4512 -0.1523 -0.0552
28544SOL    HW187639   3.531   3.705   5.199 -0.5475 -1.2075 -0.3232
28544SOL    HW287640   3.490   3.826   5.118  1.6395 -0.1549  0.0919
28545SOL     OW87641   9.510  10.974   0.182  0.2413 -0.2796 -0.1378
28545SOL    HW187642   9.572  11.030   0.134 -0.0848  1.3137  1.2126
28545SOL    HW287643   9.472  10.918   0.115  1.8072 -0.0311 -1.2934
28546SOL     OW87644   5.175   0.815   6.876 -0.1251  0.3686 -0.3245
28546SOL    HW187645   5.218   0.763   6.943 -1.4902 -1.7125 -0.9558
28546SOL    HW287646   5.207   0.780   6.793 -0.5182  1.0405 -0.7761
28547SOL     OW87647   0.736   3.457   5.125 -0.3176 -0.1423  0.0906
28547SOL    HW187648   0.767   3.479   5.038  0.1022 -0.1762  0.2293
28547SOL    HW287649   0.706   3.540   5.162 -0.1752 -0.0709  0.0430
28548SOL     OW87650   9.018   8.532   5.507  0.1894 -0.2593  0.2573
28548SOL    HW187651   8.937   8.536   5.455 -0.2987  2.9501  1.0528
28548SOL    HW287652   9.011   8.451   5.556 -2.2248 -0.4127 -0.2170
28549SOL     OW87653   7.765   7.657   5.453 -0.2059  0.9147 -0.2117
28549SOL    HW187654   7.777   7.629   5.362  1.9005 -1.6699  0.7322
28549SOL    HW287655   7.737   7.578   5.499 -0.3284  1.9313  1.5598
28550SOL     OW87656   4.081   5.012   1.958 -0.6903 -0.0055  0.4520
28550SOL    HW187657   4.165   4.999   2.002 -1.0686 -0.7124  0.9949
28550SOL    HW287658   4.020   5.035   2.029 -1.0358  0.1158  0.1177
28551SOL     OW87659   1.549   8.710   5.592 -0.0733  0.1426  0.6617
28551SOL    HW187660   1.528   8.801   5.614  0.8014  0.3950  0.5071
28551SOL    HW287661   1.468   8.675   5.554 -0.8753  0.4034  2.0638
28552SOL     OW87662   1.345   0.167  10.672  0.3246  0.3323  0.4413
28552SOL    HW187663   1.383   0.153  10.759 -1.1523  1.2524  1.2627
28552SOL    HW287664   1.291   0.245  10.681 -0.9052 -0.3041 -0.9744
28553SOL     OW87665   8.088  10.869   5.408 -0.1694 -0.1855 -0.3419
28553SOL    HW187666   8.041  10.942   5.449  0.2415  0.0373 -0.2621
28553SOL    HW287667   8.031  10.793   5.422  1.2004 -0.7540  3.2212
28554SOL     OW87668  10.920   0.450   8.003 -0.3854  0.1122  0.3306
28554SOL    HW187669  10.997   0.461   7.948 -0.1344 -2.9546 -0.1127
28554SOL    HW287670  10.847   0.478   7.948  0.2181  1.3082  0.1029
28555SOL     OW87671   8.233   5.347   9.633  0.0011 -0.1472  0.1604
28555SOL    HW187672   8.220   5.442   9.633 -0.2380 -0.1688 -0.7467
28555SOL    HW287673   8.320   5.335   9.671  0.5771  0.5342 -0.9040
28556SOL     OW87674   4.934   5.873   0.562  0.1660 -0.0383  0.2022
28556SOL    HW187675   4.890   5.849   0.643  0.7305  0.9545  0.8273
28556SOL    HW287676   5.010   5.815   0.557 -0.5783 -0.9905 -0.3027
28557SOL     OW87677   0.539   7.594   9.566 -0.4179  0.3530  0.7294
28557SOL    HW187678   0.616   7.622   9.615  0.4780 -0.3643 -0.2160
28557SOL    HW287679   0.507   7.518   9.614  0.3582 -0.2458  0.3373
28558SOL     OW87680   7.964   4.626   5.936 -0.2823  0.0034  0.0274
28558SOL    HW187681   7.980   4.601   5.845 -0.0087  2.8854 -0.8086
28558SOL    HW287682   8.050   4.627   5.977 -0.2386  0.0735 -0.0672
28559SOL     OW87683   7.350   2.565   1.892 -0.1738 -0.0870 -1.4384
28559SOL    HW187684   7.422   2.611   1.936 -1.6236  1.0178 -0.1437
28559SOL    HW287685   7.362   2.473   1.918 -1.4907  0.6167  2.1902
28560SOL     OW87686   9.131   8.716   6.205  0.0935  0.5205 -0.0149
28560SOL    HW187687   9.113   8.763   6.123 -0.3880  0.8003  0.2532
28560SOL    HW287688   9.055   8.733   6.260  0.5885  0.6328  0.6339
28561SOL     OW87689   7.733   7.676   5.167  0.6111 -0.1416 -0.3072
28561SOL    HW187690   7.799   7.740   5.194  0.4974  0.2143 -0.8506
28561SOL    HW287691   7.782   7.595   5.151  0.6543 -0.4131  1.1286
28562SOL     OW87692   0.963   4.690   4.118  0.0375  0.4464 -0.2437
28562SOL    HW187693   1.054   4.720   4.127 -0.8955  3.8774 -0.8583
28562SOL    HW287694   0.957   4.662   4.027  0.2489  1.1691 -0.4869
28563SOL     OW87695   8.974   8.670   7.297 -0.1823 -0.2675  0.2604
28563SOL    HW187696   8.893   8.662   7.247  0.8334 -0.1963 -1.4463
28563SOL    HW287697   8.956   8.622   7.378 -1.1324 -2.3012 -1.0641
28564SOL     OW87698   7.692   9.370   9.028  0.0665 -0.1608 -0.3576
28564SOL    HW187699   7.744   9.438   8.984 -0.9750  0.4164 -0.7311
28564SOL    HW287700   7.729   9.287   8.997  0.3284  0.2386 -1.1336
28565SOL     OW87701  10.336   7.694   0.463  0.5749  0.0656 -0.3868
28565SOL    HW187702  10.402   7.651   0.517 -1.9854  0.2175  3.2039
28565SOL    HW287703  10.255   7.646   0.481 -1.6279  3.7745  0.7295
28566SOL     OW87704   8.817   3.378   9.066 -0.3678  0.2472  1.0413
28566SOL    HW187705   8.824   3.371   9.162  1.4691  0.5119  0.9717
28566SOL    HW287706   8.873   3.308   9.033 -0.2763  0.7136  0.1771
28567SOL     OW87707   2.245   4.462  10.282 -0.3328  0.3074 -0.3610
28567SOL    HW187708   2.325   4.416  10.256 -2.2999 -3.1101 -1.0841
28567SOL    HW287709   2.259   4.486  10.373  2.0320  1.2111 -0.8968
28568SOL     OW87710   4.623   9.835   3.752  0.6138 -0.1179  0.0738
28568SOL    HW187711   4.674   9.876   3.683  0.6301 -1.2688 -0.6139
28568SOL    HW287712   4.535   9.873   3.743  0.9987  0.8721  0.4132
28569SOL     OW87713   4.479   7.595   5.131  0.3529  0.2149 -0.4136
28569SOL    HW187714   4.498   7.685   5.158 -1.4235  0.2222  1.0148
28569SOL    HW287715   4.509   7.541   5.204  1.6167 -0.4116 -1.3613
28570SOL     OW87716  10.620   5.286   2.565 -0.5860 -0.1924  0.3461
28570SOL    HW187717  10.675   5.363   2.578  0.0995 -0.5011 -0.6192
28570SOL    HW287718  10.663   5.237   2.496 -2.6228  0.0615 -1.1861
28571SOL     OW87719   8.605   7.191   1.022  0.0681  0.8561 -0.5972
28571SOL    HW187720   8.698   7.200   1.039  0.1621  1.0211 -1.1855
28571SOL    HW287721   8.575   7.126   1.086  0.8402 -0.1509 -1.2181
28572SOL     OW87722   5.838   9.843   7.243  0.2593 -0.1758  0.6415
28572SOL    HW187723   5.791   9.896   7.178 -0.4887 -0.5143  0.9012
28572SOL    HW287724   5.773   9.781   7.275  1.1599 -1.3825  0.2212
28573SOL     OW87725   2.031  10.368   3.144 -0.7888 -0.0501 -0.9343
28573SOL    HW187726   2.121  10.377   3.175 -1.0361  1.4657 -0.5710
28573SOL    HW287727   2.037  10.308   3.070  0.2037 -1.6073  0.3385
28574SOL     OW87728   3.751   5.788   4.889  0.2375 -0.0787 -0.2780
28574SOL    HW187729   3.823   5.726   4.878 -1.2665 -1.9653  0.0066
28574SOL    HW287730   3.718   5.771   4.977 -1.1485  0.0728 -0.7437
28575SOL     OW87731   8.277   9.011   1.114 -0.0259 -0.1166  0.3233
28575SOL    HW187732   8.238   8.926   1.094 -0.2271 -0.1363  0.7713
28575SOL    HW287733   8.223   9.045   1.186  1.2009 -0.4558  1.4412
28576SOL     OW87734   0.329   5.763   9.332 -0.0639  0.4888 -0.1026
28576SOL    HW187735   0.385   5.693   9.299 -1.3802 -1.3693  1.3573
28576SOL    HW287736   0.300   5.810   9.254  2.1694  0.5029 -0.9993
28577SOL     OW87737   4.464   5.607   5.087  0.2214 -0.2413  0.0369
28577SOL    HW187738   4.398   5.556   5.040  1.1315 -0.3780 -1.1679
28577SOL    HW287739   4.531   5.625   5.020  0.7353  1.0653  0.8737
28578SOL     OW87740   4.364   9.726   5.024  0.5243  0.0305  0.4875
28578SOL    HW187741   4.372   9.793   4.956  0.3200  0.2090  0.6361
28578SOL    HW287742   4.446   9.676   5.019  0.3531 -0.2007 -0.1450
28579SOL     OW87743   3.028   1.403   7.174  0.0484 -0.8959 -0.4287
28579SOL    HW187744   3.097   1.360   7.224  1.7358 -0.1096 -1.9447
28579SOL    HW287745   2.983   1.331   7.130 -0.8068 -1.5052  1.3594
28580SOL     OW87746   8.198   2.785   5.706 -0.6474  0.2412  0.6719
28580SOL    HW187747   8.136   2.793   5.634 -0.2138  2.2029  0.4437
28580SOL    HW287748   8.204   2.874   5.742  1.9144  0.1088  0.7524
28581SOL     OW87749   8.519   7.336   1.560  0.6109  0.2555  0.5857
28581SOL    HW187750   8.563   7.418   1.581 -1.9902  1.7429  0.6339
28581SOL    HW287751   8.527   7.328   1.465  1.1785  0.3414  0.6198
28582SOL     OW87752   3.725   2.677   3.715  0.0255 -0.0377 -0.5430
28582SOL    HW187753   3.687   2.642   3.635  0.1935  2.8262 -2.0133
28582SOL    HW287754   3.813   2.707   3.688  0.2729  0.5264  0.8111
28583SOL     OW87755   5.878   1.915   1.717 -0.4395  0.0723 -0.0379
28583SOL    HW187756   5.820   1.893   1.644  0.1010 -2.0747  0.1033
28583SOL    HW287757   5.819   1.938   1.789 -1.0764 -0.5221 -0.3628
28584SOL     OW87758   3.832   9.865   1.095 -0.6074  0.4320 -0.2452
28584SOL    HW187759   3.793   9.778   1.092  2.0785 -0.9201  0.8015
28584SOL    HW287760   3.809   9.904   1.011 -1.4114 -1.5117 -0.9940
28585SOL     OW87761   7.056   2.864  11.038 -0.2734  0.2146  0.3695
28585SOL    HW187762   7.073   2.772  11.058 -1.1727  0.6021  3.5004
28585SOL    HW287763   6.981   2.887  11.092  0.8707  3.1633  0.9126
28586SOL     OW87764   3.936   3.566   5.588  0.0053 -0.1766  0.7868
28586SOL    HW187765   3.949   3.575   5.494 -2.6253 -0.4912  0.3178
28586SOL    HW287766   3.933   3.471   5.602 -0.2963 -0.1252  1.0713
28587SOL     OW87767   1.680   5.088   6.238 -0.3578  0.2359  0.0523
28587SOL    HW187768   1.697   5.005   6.195  0.5349  0.2304  0.3850
28587SOL    HW287769   1.608   5.070   6.299  0.4343 -0.5334  0.7821
28588SOL     OW87770   9.477   0.070   6.956  0.0417 -0.5257 -0.0988
28588SOL    HW187771   9.499  -0.018   6.986  0.2095 -1.6080 -3.0290
28588SOL    HW287772   9.453   0.118   7.035  0.5578 -3.0056  1.6649
28589SOL     OW87773   9.584   2.585   0.075 -0.8123 -0.4291 -0.0006
28589SOL    HW187774   9.603   2.675   0.049 -2.1266 -0.0872  0.1486
28589SOL    HW287775   9.517   2.555   0.014 -0.0429 -1.4899 -0.3515
28590SOL     OW87776   4.741   2.150   9.538 -0.7556 -0.4382  0.7155
28590SOL    HW187777   4.753   2.096   9.616 -0.6087  0.2927  1.2091
28590SOL    HW287778   4.646   2.156   9.527 -0.8561 -3.5956 -1.3478
28591SOL     OW87779   9.229   9.821   8.074  0.4721  0.6163 -0.0069
28591SOL    HW187780   9.146   9.799   8.030  1.5888  0.1377 -2.0036
28591SOL    HW287781   9.213   9.801   8.166 -1.2456 -0.6826 -0.5297
28592SOL     OW87782   1.598   9.178   3.769 -0.6768  0.1673  0.0053
28592SOL    HW187783   1.690   9.199   3.751 -0.6841 -0.4865 -0.8366
28592SOL    HW287784   1.593   9.175   3.865  0.5448 -1.3194  0.0696
28593SOL     OW87785   9.039   8.881   3.791 -0.4676  0.1015  0.5362
28593SOL    HW187786   9.113   8.842   3.837  0.3833 -0.5607 -1.3352
28593SOL    HW287787   9.046   8.975   3.809  0.8553  0.0501  0.3314
28594SOL     OW87788   5.238  10.776   3.195 -0.1302  0.5313  0.2301
28594SOL    HW187789   5.241  10.837   3.269 -0.1653 -0.7194  1.2916
28594SOL    HW287790   5.219  10.691   3.235 -0.4597 -0.1172 -1.2590
28595SOL     OW87791   7.663   2.384   0.085 -0.5312  0.3891 -0.1993
28595SOL    HW187792   7.734   2.323   0.065 -2.5455 -1.7712 -1.2645
28595SOL    HW287793   7.653   2.436   0.005 -0.8207 -0.0675 -0.4685
28596SOL     OW87794   2.382   7.125   2.958 -0.2897 -0.3212  0.8285
28596SOL    HW187795   2.439   7.114   2.882 -0.6149 -0.4255  0.5977
28596SOL    HW287796   2.397   7.046   3.010 -0.4062 -0.4680  0.6432
28597SOL     OW87797   8.124   1.835   9.773 -0.5670 -0.0374  0.7474
28597SOL    HW187798   8.060   1.770   9.743 -1.2273  0.3393  1.3193
28597SOL    HW287799   8.074   1.916   9.778  0.1150  0.3909  0.6020
28598SOL     OW87800   3.427   7.462   0.362 -0.6032 -0.3546 -0.3864
28598SOL    HW187801   3.350   7.405   0.357  0.1398 -1.2770 -2.6147
28598SOL    HW287802   3.500   7.405   0.337  0.8537  0.5044  1.6459
28599SOL     OW87803  10.997   1.705   1.699  0.6624 -0.2647  0.4521
28599SOL    HW187804  11.082   1.712   1.656  1.2619 -1.3162  1.4174
28599SOL    HW287805  10.999   1.620   1.743 -0.7074 -0.0969  0.8904
28600SOL     OW87806   5.599   2.372   7.402 -0.0165 -0.3945 -0.7175
28600SOL    HW187807   5.624   2.351   7.492  0.0447  0.4573 -0.5274
28600SOL    HW287808   5.608   2.289   7.355 -0.3249 -0.9166  0.1174
28601SOL     OW87809   6.447   1.490   9.214  0.3852  0.0139  0.3968
28601SOL    HW187810   6.537   1.484   9.182  1.9947 -0.7597  4.5257
28601SOL    HW287811   6.420   1.399   9.224 -0.5408  0.2482  0.1037
28602SOL     OW87812   2.014   1.536   5.169 -0.4298 -0.2781  0.1229
28602SOL    HW187813   2.029   1.582   5.086 -0.5968 -0.9780 -0.3027
28602SOL    HW287814   2.008   1.444   5.145  0.3094 -0.5720  1.0208
28603SOL     OW87815   4.213  10.685   2.875  0.2045 -0.0970  0.7522
28603SOL    HW187816   4.135  10.629   2.876  0.9616 -1.2155  2.0174
28603SOL    HW287817   4.181  10.772   2.894 -0.8277 -0.3931  0.4169
28604SOL     OW87818   0.086   5.702   1.956  0.6844 -0.5541 -0.0328
28604SOL    HW187819   0.176   5.713   1.924  0.0247  1.5470 -1.3273
28604SOL    HW287820   0.076   5.771   2.022  0.3591 -1.5207  0.9578
28605SOL     OW87821   1.051   3.255   9.321  0.0451  0.0216  0.0506
28605SOL    HW187822   1.082   3.250   9.231 -1.1970 -0.2545 -0.3926
28605SOL    HW287823   0.988   3.183   9.328 -1.1872  1.1155  0.5857
28606SOL     OW87824   0.771   9.659  10.803  0.3585  0.3126 -0.1170
28606SOL    HW187825   0.852   9.626  10.842  0.7613  1.1175 -0.2412
28606SOL    HW287826   0.765   9.616  10.718  0.0979 -0.5487  0.3273
28607SOL     OW87827   5.947   7.787   9.048  0.3739  0.2212  0.2354
28607SOL    HW187828   6.031   7.797   9.092  0.4416 -2.5063  0.8753
28607SOL    HW287829   5.961   7.826   8.961  2.8006 -1.3426 -0.1843
28608SOL     OW87830   4.045   0.661   0.075 -0.1233 -0.0695 -0.3373
28608SOL    HW187831   4.138   0.660   0.098 -0.0409 -0.9250 -0.6681
28608SOL    HW287832   4.010   0.581   0.114 -1.3255  1.5016  2.0768
28609SOL     OW87833   8.734  10.299   2.198  0.0585  0.5552  0.2478
28609SOL    HW187834   8.742  10.349   2.280  0.1547 -2.7124  2.4062
28609SOL    HW287835   8.696  10.215   2.225 -0.4186 -0.4689 -3.2019
28610SOL     OW87836   1.900   8.239   6.190 -0.3209  0.1226 -0.6586
28610SOL    HW187837   1.988   8.242   6.152  0.7273  0.2468  1.6336
28610SOL    HW287838   1.897   8.156   6.238 -1.0241  0.6482  0.2454
28611SOL     OW87839   4.381   0.207   1.414 -0.0644  0.1336 -0.9652
28611SOL    HW187840   4.316   0.233   1.479  0.6457 -2.2066  0.8052
28611SOL    HW287841   4.443   0.280   1.412 -0.7965  0.8140  0.0337
28612SOL     OW87842   4.719   2.250   3.978  0.4114 -0.2008  0.0835
28612SOL    HW187843   4.743   2.253   4.071 -2.8118  1.5258  1.0227
28612SOL    HW287844   4.718   2.157   3.957  1.8537 -0.6047  1.5647
28613SOL     OW87845   5.346   0.216   9.729 -0.2209  0.5984  0.1574
28613SOL    HW187846   5.409   0.288   9.737 -0.7218  1.1948 -1.1488
28613SOL    HW287847   5.273   0.242   9.785  1.0260 -0.5445  2.4702
28614SOL     OW87848   3.459   0.627   4.948  0.0611 -0.5109 -0.2069
28614SOL    HW187849   3.482   0.541   4.912 -0.2212 -0.4283 -0.5896
28614SOL    HW287850   3.523   0.687   4.910  0.5014 -0.6080  0.3651
28615SOL     OW87851   7.320   1.679   7.991 -0.3779  0.3641  0.1697
28615SOL    HW187852   7.369   1.637   8.061 -0.9621 -0.2397  0.2292
28615SOL    HW287853   7.241   1.625   7.981 -1.2587  1.5678  0.4045
28616SOL     OW87854  10.850   9.784  10.001 -0.2671 -0.7879  0.6427
28616SOL    HW187855  10.873   9.875   9.984  0.5000 -1.3558 -1.7763
28616SOL    HW287856  10.765   9.789  10.045 -0.0545  1.0967  0.9383
28617SOL     OW87857   6.946   3.705   7.843 -0.2426  0.1319  0.1938
28617SOL    HW187858   7.004   3.720   7.918  0.5140 -2.2653  0.1813
28617SOL    HW287859   6.994   3.738   7.768 -0.4824  1.4342  0.5871
28618SOL     OW87860   5.244   1.353   9.415  0.3907 -0.4260 -0.3259
28618SOL    HW187861   5.167   1.318   9.370  0.8956 -1.9382 -0.0806
28618SOL    HW287862   5.315   1.347   9.350  0.6794 -0.7192  0.0094
28619SOL     OW87863   2.226   4.719   6.419  0.3450  0.2032 -0.4559
28619SOL    HW187864   2.227   4.815   6.420 -2.0669  0.3115 -1.0800
28619SOL    HW287865   2.210   4.695   6.511  2.8893  0.2464  0.0716
28620SOL     OW87866   6.685   2.352   9.236  0.6452  0.2140 -0.7742
28620SOL    HW187867   6.614   2.319   9.181  0.4114  1.3354 -1.1804
28620SOL    HW287868   6.730   2.416   9.181  0.4075  1.3666  0.3167
28621SOL     OW87869   5.299  11.017   1.948  0.0437 -0.6710 -0.4254
28621SOL    HW187870   5.342  10.969   2.020 -0.8961 -0.1824  0.4770
28621SOL    HW287871   5.335  11.105   1.953 -1.4620 -0.0921  0.7128
28622SOL     OW87872   7.582   0.732   9.774 -0.1134 -0.0545  0.6468
28622SOL    HW187873   7.598   0.694   9.860  0.0941  0.8144  0.9974
28622SOL    HW287874   7.656   0.790   9.759 -0.5133  0.3440  0.1946
28623SOL     OW87875   8.342   4.415   3.523 -0.4447 -0.3191 -0.3948
28623SOL    HW187876   8.325   4.326   3.552 -1.1344  0.3128  1.2689
28623SOL    HW287877   8.409   4.406   3.456  1.1315 -1.9155  1.2832
28624SOL     OW87878   3.963   6.861   5.196  0.1502 -0.2363  0.0859
28624SOL    HW187879   3.890   6.892   5.250  0.4321 -1.0068  0.9413
28624SOL    HW287880   4.014   6.805   5.255  1.7308  0.7012 -0.3349
28625SOL     OW87881   5.921   5.285   0.073 -0.0484  0.4024 -0.2204
28625SOL    HW187882   6.000   5.263   0.024 -0.4449  0.0297 -0.6965
28625SOL    HW287883   5.925   5.381   0.082  0.2621  0.4259 -0.5762
28626SOL     OW87884   3.895   2.273   3.987 -0.1857 -0.3309 -0.1529
28626SOL    HW187885   3.831   2.343   4.001  0.0992  0.2444 -1.4913
28626SOL    HW287886   3.880   2.245   3.896  1.5054 -0.0975 -0.5409
28627SOL     OW87887   9.052   6.176  10.583 -0.2994  0.3651 -0.3058
28627SOL    HW187888   9.075   6.129  10.502  1.0948 -0.6946  0.6577
28627SOL    HW287889   8.966   6.215  10.564 -0.3046 -0.3891 -2.0672
28628SOL     OW87890   7.030   4.519   1.134 -0.1347 -0.2963  0.6126
28628SOL    HW187891   7.071   4.447   1.181 -1.4121 -1.9499 -0.6675
28628SOL    HW287892   6.992   4.479   1.056 -1.7025  1.6004  0.2995
28629SOL     OW87893   1.236   6.206   5.485 -0.0482  0.5964 -0.1539
28629SOL    HW187894   1.140   6.203   5.488 -0.0662  1.5232  0.8094
28629SOL    HW287895   1.264   6.155   5.561  0.2407  0.1444 -0.5545
28630SOL     OW87896   4.331   8.240   1.402 -0.9339  0.4664  0.1620
28630SOL    HW187897   4.288   8.313   1.357  0.9621  1.2658 -0.4580
28630SOL    HW287898   4.288   8.162   1.368  0.1458  1.0596 -2.8599
28631SOL     OW87899   3.280  10.646   8.865 -0.2950  0.1053 -0.3513
28631SOL    HW187900   3.293  10.730   8.821  1.7778  0.1760  0.2903
28631SOL    HW287901   3.345  10.588   8.825 -0.1956 -0.5638  0.7483
28632SOL     OW87902   0.616   6.123   1.178  0.2190  0.2508  0.5193
28632SOL    HW187903   0.587   6.095   1.091  0.2303  0.1764  0.5396
28632SOL    HW287904   0.576   6.060   1.238  0.6348 -0.0069  0.5272
28633SOL     OW87905   2.110  10.063   6.904 -0.4788  0.0370  0.1257
28633SOL    HW187906   2.038  10.122   6.881 -0.8042 -0.4888 -0.2252
28633SOL    HW287907   2.137  10.091   6.991 -0.7773  0.5600  0.0548
28634SOL     OW87908   4.060   1.130   4.671  0.1964  0.7216 -0.0641
28634SOL    HW187909   4.114   1.162   4.599 -0.6460  1.4570 -0.3844
28634SOL    HW287910   4.013   1.207   4.702  0.2501  0.3319  1.0176
28635SOL     OW87911   6.184   9.817   2.458  0.2203  0.0465 -0.5822
28635SOL    HW187912   6.201   9.901   2.417  2.7084  0.8686  1.8431
28635SOL    HW287913   6.153   9.761   2.386 -2.0466  3.0691 -2.1682
28636SOL     OW87914   6.386   9.682   4.378 -0.3605  0.1664 -0.1137
28636SOL    HW187915   6.332   9.643   4.309  0.4234 -1.0210 -0.0945
28636SOL    HW287916   6.462   9.717   4.332 -0.5795  0.7802 -0.0147
28637SOL     OW87917   1.410   4.991   8.810 -0.5027 -0.2184 -0.0146
28637SOL    HW187918   1.429   4.899   8.829 -0.7345 -0.0589  1.0457
28637SOL    HW287919   1.428   5.037   8.892  2.0905  1.1088 -1.1974
28638SOL     OW87920   4.547  10.306   7.555 -0.2342  0.6814  1.0651
28638SOL    HW187921   4.483  10.239   7.577  1.2835 -1.2645 -0.1179
28638SOL    HW287922   4.631  10.270   7.582  0.6779  1.9954  0.1435
28639SOL     OW87923   7.431   9.257   3.545 -0.0944 -0.1924  0.3660
28639SOL    HW187924   7.526   9.271   3.551 -0.2005  0.1500  1.4091
28639SOL    HW287925   7.409   9.211   3.626 -0.6467 -1.3477 -0.4179
28640SOL     OW87926   7.041   7.228   2.299  0.1807  0.1172  0.2774
28640SOL    HW187927   7.062   7.181   2.380  0.8792  0.0234  0.0491
28640SOL    HW287928   7.105   7.195   2.236  0.2325  0.8734 -0.0698
28641SOL     OW87929   4.613   2.528   6.376  0.4371 -0.0146 -0.3327
28641SOL    HW187930   4.580   2.439   6.365  1.2273 -0.1268 -2.0422
28641SOL    HW287931   4.692   2.518   6.428 -0.1790 -0.1464  0.6050
28642SOL     OW87932   7.283   1.821   7.413 -0.2586  0.5449  0.4146
28642SOL    HW187933   7.308   1.893   7.355 -1.7809  2.8296  2.3556
28642SOL    HW287934   7.325   1.744   7.376 -0.5403  1.9420 -3.2350
28643SOL     OW87935  10.019   0.911   9.510  0.1137  0.0649  0.2517
28643SOL    HW187936  10.025   0.938   9.602 -1.2896  0.1192  0.3392
28643SOL    HW287937   9.990   0.989   9.464  0.0126 -0.1846 -0.1110
28644SOL     OW87938   8.070   2.354   3.033  0.2912 -0.9883  0.1994
28644SOL    HW187939   8.052   2.442   3.065  2.2281 -0.8829  1.1522
28644SOL    HW287940   8.067   2.362   2.938  0.8533  0.2205  0.2635
28645SOL     OW87941   7.057   7.728   9.539 -0.3650  0.6301 -0.0470
28645SOL    HW187942   7.145   7.760   9.561 -0.5029  1.0279 -0.0617
28645SOL    HW287943   7.049   7.645   9.585  0.7948 -0.4274 -1.6588
28646SOL     OW87944   3.911   1.735   9.499 -0.5908  0.7651  0.1212
28646SOL    HW187945   3.828   1.710   9.458  1.2005 -1.5653 -2.5231
28646SOL    HW287946   3.904   1.702   9.588 -2.3897  0.3011 -0.1333
28647SOL     OW87947   1.230   4.722   4.109 -0.1964 -0.1549  0.0159
28647SOL    HW187948   1.324   4.734   4.122 -0.2700 -0.3210  0.7735
28647SOL    HW287949   1.221   4.630   4.085 -0.1219 -0.0099 -0.5870
28648SOL     OW87950   2.771   1.860   6.382 -0.3254  0.0689  0.0917
28648SOL    HW187951   2.758   1.857   6.288  1.8783  1.5478 -0.3232
28648SOL    HW287952   2.775   1.769   6.410 -0.3619 -0.3783 -1.3345
28649SOL     OW87953   9.579   1.819   2.103 -0.7305  0.0273 -0.3455
28649SOL    HW187954   9.610   1.853   2.187 -1.5555  0.1859 -0.0940
28649SOL    HW287955   9.535   1.894   2.062 -0.2400 -0.0189 -0.9703
28650SOL     OW87956  10.376   1.289   3.703 -0.2289 -0.2510  0.2780
28650SOL    HW187957  10.363   1.197   3.723  0.0070 -1.0404 -2.6879
28650SOL    HW287958  10.304   1.311   3.644  0.7021  0.9439 -0.4599
28651SOL     OW87959   7.035  10.953   2.506 -0.4052 -0.7604  0.2197
28651SOL    HW187960   7.123  10.987   2.520 -0.3290 -1.4643  1.6766
28651SOL    HW287961   7.022  10.891   2.578 -1.3944 -2.0538 -1.0309
28652SOL     OW87962   8.567   5.983   8.800  0.8782 -0.1071 -0.2734
28652SOL    HW187963   8.650   6.016   8.766  0.5451  0.7363 -0.2827
28652SOL    HW287964   8.549   6.037   8.877  0.5871 -0.6180  0.0225
28653SOL     OW87965   7.599   8.914  10.321 -0.0570 -0.2371  0.3539
28653SOL    HW187966   7.566   8.980  10.259 -0.9975  0.5238  1.6315
28653SOL    HW287967   7.526   8.854  10.334  1.0514 -2.0995 -1.4442
28654SOL     OW87968   3.595   3.344   2.582  0.1198  0.0028 -0.2008
28654SOL    HW187969   3.590   3.353   2.487 -0.0710 -0.9731 -0.2941
28654SOL    HW287970   3.531   3.277   2.603 -0.1636  0.5229  0.6778
28655SOL     OW87971   9.289   8.286  10.838  0.1576 -0.1171  0.0361
28655SOL    HW187972   9.355   8.350  10.865  0.8289 -0.7609 -0.0432
28655SOL    HW287973   9.215   8.338  10.809  1.3139  0.6744 -1.6433
28656SOL     OW87974   0.714   8.478   3.424  0.2639 -0.1222 -0.7141
28656SOL    HW187975   0.647   8.475   3.492  0.7596 -1.2882 -0.2507
28656SOL    HW287976   0.795   8.498   3.471  0.1488  2.1251 -1.3740
28657SOL     OW87977   6.914   2.348  10.841  0.5772 -0.2539 -0.6247
28657SOL    HW187978   6.971   2.411  10.886  0.8945 -0.9164 -0.0827
28657SOL    HW287979   6.832   2.395  10.830  0.5639  0.0208  0.4530
28658SOL     OW87980   2.209   3.659  10.576  0.2780  1.1400  0.5926
28658SOL    HW187981   2.189   3.709  10.496  0.6939  0.3258 -0.0397
28658SOL    HW287982   2.161   3.703  10.645 -1.9062  0.5651 -0.4865
28659SOL     OW87983   9.222   7.003   4.927 -0.0903 -0.4877 -0.5489
28659SOL    HW187984   9.263   7.078   4.883 -1.0128  1.0791  1.1511
28659SOL    HW287985   9.263   7.000   5.013 -0.8191 -1.2891 -0.2211
28660SOL     OW87986   7.228   6.823   9.788 -0.3564 -0.2192 -0.2716
28660SOL    HW187987   7.187   6.881   9.852 -0.4567  0.4126 -0.8936
28660SOL    HW287988   7.155   6.783   9.742 -0.3079  1.0961 -1.5487
28661SOL     OW87989   7.141   2.394   9.137 -0.5500 -0.7858  0.7464
28661SOL    HW187990   7.130   2.304   9.107  1.0984 -0.5504 -0.7114
28661SOL    HW287991   7.234   2.413   9.124 -1.1421  1.6335 -0.5581
28662SOL     OW87992   6.218   0.161   5.357 -0.4623 -0.4698  0.0203
28662SOL    HW187993   6.151   0.149   5.289  0.4105 -0.7732 -0.8013
28662SOL    HW287994   6.194   0.243   5.399 -1.0456 -0.2898 -0.6337
28663SOL     OW87995   4.648   2.423   6.793 -0.4555  0.3993 -0.2581
28663SOL    HW187996   4.676   2.399   6.881  1.2285  0.2477 -0.8090
28663SOL    HW287997   4.677   2.514   6.783 -0.4108  0.3308 -0.7563
28664SOL     OW87998   6.954   4.013   5.919  0.1011 -0.4738 -0.2005
28664SOL    HW187999   6.878   3.958   5.933 -0.2828 -0.3514 -1.6021
28664SOL    HW288000   6.918   4.098   5.895  0.6630 -0.4406 -0.9703
28665SOL     OW88001   4.309   5.816   8.157 -0.2198  0.1782 -0.0721
28665SOL    HW188002   4.380   5.837   8.097  0.3789 -0.1979  0.4912
28665SOL    HW288003   4.237   5.788   8.101 -0.1783  1.2642 -0.6875
28666SOL     OW88004   7.059   8.403   2.535  0.0959  0.0014  0.1647
28666SOL    HW188005   7.103   8.323   2.563 -0.4199 -1.1658 -2.1353
28666SOL    HW288006   6.976   8.402   2.583  0.4883 -0.3261  0.8574
28667SOL     OW88007   4.168   5.593   4.122 -0.5773  0.2963 -0.1690
28667SOL    HW188008   4.102   5.649   4.164 -1.8793 -0.9483 -0.4658
28667SOL    HW288009   4.252   5.634   4.144 -1.4648  2.2560 -0.2726
28668SOL     OW88010   2.260   0.360   7.737 -0.1473  0.1028  0.2304
28668SOL    HW188011   2.255   0.312   7.819  1.4615  1.0505  0.9232
28668SOL    HW288012   2.353   0.381   7.727 -0.2357 -0.3202 -2.0321
28669SOL     OW88013   1.770   8.506   6.900 -0.3263 -0.4828 -0.0692
28669SOL    HW188014   1.855   8.467   6.877 -0.0487 -0.1041  0.2892
28669SOL    HW288015   1.793   8.583   6.952 -0.9077 -0.7931  0.6784
28670SOL     OW88016   6.273   0.677   4.969 -0.4111  0.0398 -1.2225
28670SOL    HW188017   6.196   0.622   4.985  0.9257 -1.4267  0.4727
28670SOL    HW288018   6.331   0.623   4.916  1.1441 -0.4756  0.8871
28671SOL     OW88019   7.192   6.276   9.716  0.8677 -0.4416  0.2318
28671SOL    HW188020   7.174   6.285   9.810  0.2976 -0.4880  0.1324
28671SOL    HW288021   7.273   6.325   9.702  0.0992  0.9310  0.4546
28672SOL     OW88022  10.083   0.931   2.890  0.2312  0.2655  0.1405
28672SOL    HW188023  10.113   0.857   2.838  2.2992  0.0280  1.5589
28672SOL    HW288024  10.061   0.892   2.975 -1.1533  0.9302  0.1142
28673SOL     OW88025   1.428   9.562   5.797 -0.1545  0.2468 -0.0019
28673SOL    HW188026   1.505   9.600   5.839  0.3894  0.2132 -0.9541
28673SOL    HW288027   1.354   9.611   5.834  0.1837 -0.5574  1.8522
28674SOL     OW88028   7.361   0.045   4.715  0.0053  0.7895 -0.2364
28674SOL    HW188029   7.311   0.026   4.795 -1.3183  2.1321 -0.7061
28674SOL    HW288030   7.416   0.119   4.739  0.2099  0.6714 -0.3426
28675SOL     OW88031   6.736   5.974   9.407  0.4328 -0.2654 -0.6887
28675SOL    HW188032   6.643   5.995   9.419 -0.2568 -0.9833 -3.7902
28675SOL    HW288033   6.748   5.893   9.456 -0.0760  0.7272  1.1719
28676SOL     OW88034   8.815   9.151   6.133 -0.3381 -0.4883  1.0100
28676SOL    HW188035   8.733   9.107   6.110 -0.5454 -0.1392  1.0691
28676SOL    HW288036   8.815   9.231   6.081  0.1701 -0.6890  0.6961
28677SOL     OW88037   2.343   8.247   1.314  0.6957  0.1971  0.0464
28677SOL    HW188038   2.376   8.271   1.401  1.8945  1.6353 -0.7677
28677SOL    HW288039   2.299   8.325   1.283 -1.5239 -0.9470  0.1314
28678SOL     OW88040  10.346   6.979  10.646  0.6633  0.8367 -0.0177
28678SOL    HW188041  10.289   6.902  10.655  0.3186  0.9813 -0.8849
28678SOL    HW288042  10.428   6.944  10.612  0.2903  0.9311 -1.0242
28679SOL     OW88043   6.135  10.322   0.332  0.6274  0.0010  0.0870
28679SOL    HW188044   6.204  10.300   0.269  0.7933 -3.6370  1.2913
28679SOL    HW288045   6.180  10.369   0.402  1.4143 -0.1393 -0.3087
28680SOL     OW88046   5.179   6.981   5.179 -0.1479  0.2194 -0.1307
28680SOL    HW188047   5.189   6.940   5.093  1.3612  0.7276 -0.2132
28680SOL    HW288048   5.186   7.075   5.163  0.5006  0.3022  0.5890
28681SOL     OW88049   1.609   2.327   4.007  0.0157  0.0095  0.6576
28681SOL    HW188050   1.684   2.379   3.979 -0.3617  0.4193  0.3924
28681SOL    HW288051   1.536   2.389   4.007 -0.3426 -0.4091  0.8136
28682SOL     OW88052  10.407   7.448  10.189  0.2381  0.1631  0.4514
28682SOL    HW188053  10.336   7.386  10.174  1.0222 -0.8657  0.8960
28682SOL    HW288054  10.454   7.412  10.264 -0.8678  2.7141  2.5383
28683SOL     OW88055   1.102  10.362   7.302 -0.2078 -0.1740 -0.8233
28683SOL    HW188056   1.121  10.412   7.381  0.8589  0.7646 -1.6384
28683SOL    HW288057   1.108  10.270   7.328 -1.2236  0.0982  0.4769
28684SOL     OW88058  10.333   7.675   4.345  0.4982 -0.6162  0.1942
28684SOL    HW188059  10.352   7.582   4.356  0.5560 -0.6810 -0.4287
28684SOL    HW288060  10.239   7.679   4.330  0.6944 -0.7238 -1.2266
28685SOL     OW88061  10.578   2.633   8.349 -0.1248 -0.4556  0.0014
28685SOL    HW188062  10.555   2.607   8.438 -1.6745 -0.9537 -0.5069
28685SOL    HW288063  10.653   2.578   8.326 -0.1827 -0.8458  0.7339
28686SOL     OW88064   1.644   1.292   6.469 -0.4869  0.1441  0.0051
28686SOL    HW188065   1.639   1.386   6.455  0.2385 -0.0230 -1.6898
28686SOL    HW288066   1.697   1.282   6.548 -0.1850  1.1536 -0.0535
28687SOL     OW88067   7.348   5.744   4.051 -0.0003 -0.2180 -0.0699
28687SOL    HW188068   7.296   5.720   4.127  0.6325 -0.2076  0.3732
28687SOL    HW288069   7.292   5.723   3.976 -0.6442 -0.1897  0.3937
28688SOL     OW88070   7.897   4.499   5.677 -0.0771  0.4085  0.0997
28688SOL    HW188071   7.821   4.461   5.722  0.4028 -2.0580 -0.9976
28688SOL    HW288072   7.868   4.585   5.647 -1.7824  0.3139  1.3652
28689SOL     OW88073   2.140   4.754   9.799 -0.5031  0.5890 -0.2551
28689SOL    HW188074   2.100   4.835   9.828 -1.1469  0.5552 -1.0335
28689SOL    HW288075   2.116   4.746   9.707  0.8740  0.3086 -0.6099
28690SOL     OW88076   4.441   5.371   5.620  0.4507  0.2193 -0.3208
28690SOL    HW188077   4.388   5.419   5.556  0.5518  0.0204 -0.5588
28690SOL    HW288078   4.383   5.301   5.651  0.8549 -0.5607 -1.2582
28691SOL     OW88079   8.899  10.477   7.256  0.3382  0.3655 -0.0769
28691SOL    HW188080   8.825  10.517   7.303  1.0932  2.6714 -0.7402
28691SOL    HW288081   8.924  10.402   7.310 -1.0744  0.8385  1.3053
28692SOL     OW88082   8.897   6.682   7.441  0.3115 -0.4673 -0.1267
28692SOL    HW188083   8.977   6.710   7.397 -0.2418  0.4588 -0.5789
28692SOL    HW288084   8.876   6.754   7.501 -1.3271  0.3131 -1.5624
28693SOL     OW88085   3.258   6.888  10.342  0.4306 -0.0092  0.5219
28693SOL    HW188086   3.193   6.913  10.407 -2.7071 -2.3026 -1.4390
28693SOL    HW288087   3.301   6.811  10.379 -1.9763 -1.8686 -0.2889
28694SOL     OW88088   1.637   1.906   0.113  0.9000 -0.3822  0.4132
28694SOL    HW188089   1.678   1.962   0.179  0.3532  0.6665 -0.1176
28694SOL    HW288090   1.632   1.961   0.035 -1.3765 -0.4996  0.4150
28695SOL     OW88091   5.574   7.817   8.030  0.0805 -0.3879 -0.0164
28695SOL    HW188092   5.626   7.819   7.950 -1.1654 -1.4863 -0.9131
28695SOL    HW288093   5.484   7.804   7.999 -0.2970 -1.9831  1.5830
28696SOL     OW88094   1.089  10.955   2.493 -0.4389 -0.3011 -0.3676
28696SOL    HW188095   1.148  10.886   2.522 -1.5521 -1.7020 -1.2844
28696SOL    HW288096   1.037  10.976   2.570  0.9962  0.7457  0.3696
28697SOL     OW88097   4.297   3.710   2.245 -0.3125 -0.1221 -0.3554
28697SOL    HW188098   4.327   3.729   2.156 -0.4195  0.8197 -0.1980
28697SOL    HW288099   4.376   3.685   2.292 -0.4686 -2.1969 -1.0922
28698SOL     OW88100   2.284   8.663   9.591  0.0853 -0.3218  0.0954
28698SOL    HW188101   2.352   8.596   9.601 -0.9076 -1.3812  0.0056
28698SOL    HW288102   2.300   8.700   9.504  0.7260 -0.3627  0.1947
28699SOL     OW88103   9.444   8.661   7.511 -0.0294  0.7198 -0.1373
28699SOL    HW188104   9.408   8.712   7.583 -1.6432 -0.7513  0.1562
28699SOL    HW288105   9.368   8.634   7.460  0.9397  0.1701 -1.3367
28700SOL     OW88106   7.083   6.385   6.145 -0.3569  0.1269 -0.2824
28700SOL    HW188107   7.176   6.387   6.164 -0.2359 -0.2413 -0.8207
28700SOL    HW288108   7.058   6.477   6.136  0.1907  0.1839 -1.2665
28701SOL     OW88109   4.692  10.648   8.419 -0.1169 -0.1019  0.6837
28701SOL    HW188110   4.724  10.631   8.508  0.3299 -0.3571  0.4749
28701SOL    HW288111   4.617  10.705   8.432  0.1408  0.1266  1.2059
28702SOL     OW88112   2.320   5.573   7.068 -0.4454 -0.3127  0.2926
28702SOL    HW188113   2.410   5.546   7.086 -0.3450 -1.3178 -1.4817
28702SOL    HW288114   2.270   5.492   7.072 -0.7816 -0.2278 -1.4030
28703SOL     OW88115   7.395   8.453   1.641  0.6083 -0.1410 -0.1324
28703SOL    HW188116   7.471   8.487   1.689  0.7218  0.8130 -0.9481
28703SOL    HW288117   7.433   8.410   1.564  0.3444  0.1440 -0.4269
28704SOL     OW88118  10.803   0.081   9.158 -0.1063 -0.4702  0.2398
28704SOL    HW188119  10.795   0.035   9.074 -1.5989  1.4719 -0.7528
28704SOL    HW288120  10.875   0.142   9.145  0.8450 -1.3919  1.0278
28705SOL     OW88121  10.117   5.972  10.224  0.3662 -0.5019 -0.1074
28705SOL    HW188122  10.160   6.055  10.243 -1.0643  0.1751  0.2734
28705SOL    HW288123  10.119   5.925  10.307  1.4395 -1.0007 -0.3949
28706SOL     OW88124   0.873   0.590  10.068 -0.1121 -0.3622  0.3660
28706SOL    HW188125   0.869   0.664  10.129 -2.5519  0.3821 -0.5709
28706SOL    HW288126   0.940   0.615  10.004 -0.2495  0.6180  0.5869
28707SOL     OW88127   4.717  10.426  10.060  0.2500 -0.3027 -0.0165
28707SOL    HW188128   4.703  10.518  10.081  0.6060  0.1402 -1.5808
28707SOL    HW288129   4.632  10.385  10.071 -0.5411  0.7557 -1.7417
28708SOL     OW88130   9.243   4.010   5.876  0.4292  0.3614 -0.7068
28708SOL    HW188131   9.264   3.947   5.806  0.2960 -0.5439  0.0467
28708SOL    HW288132   9.148   4.020   5.871  0.1961 -0.9647  0.3478
28709SOL     OW88133   4.028   1.869   4.649  0.0941  0.2802  0.0948
28709SOL    HW188134   3.993   1.881   4.561  0.0813  1.8463  0.2832
28709SOL    HW288135   3.960   1.821   4.696  0.2693 -0.9169 -0.8430
28710SOL     OW88136   0.271   3.695   5.394 -0.5185 -0.1653  0.0214
28710SOL    HW188137   0.304   3.635   5.326  1.6777  0.6728  0.2698
28710SOL    HW288138   0.206   3.748   5.349  0.1040 -0.3637 -1.1578
28711SOL     OW88139   7.280   3.692   5.074  0.0041 -0.5599  0.0715
28711SOL    HW188140   7.357   3.708   5.129  1.5849  2.0099 -2.6160
28711SOL    HW288141   7.241   3.778   5.061 -0.4557 -1.0673 -2.5178
28712SOL     OW88142  10.038   5.167   1.254 -0.0526  0.6994  0.2516
28712SOL    HW188143  10.105   5.100   1.267 -2.2652 -1.9201 -0.6798
28712SOL    HW288144  10.004   5.184   1.342 -1.1099 -1.4064  0.3372
28713SOL     OW88145   5.887   3.656   4.138 -0.2084  0.1240  0.2024
28713SOL    HW188146   5.942   3.594   4.186  2.0573  2.5966  1.0790
28713SOL    HW288147   5.950   3.714   4.095 -2.1878  1.7752 -0.6197
28714SOL     OW88148   0.635   0.783   4.107 -0.1846  0.2450  0.2422
28714SOL    HW188149   0.713   0.769   4.054 -0.3009  1.4574 -0.2820
28714SOL    HW288150   0.569   0.726   4.068 -0.2018  0.9487 -0.7942
28715SOL     OW88151   3.239   9.138   4.342  0.4711 -0.1427 -0.1456
28715SOL    HW188152   3.219   9.209   4.404  1.9371 -0.5292  0.8214
28715SOL    HW288153   3.215   9.058   4.389 -0.2781 -0.3548 -0.8674
28716SOL     OW88154   3.806  11.016   9.041 -0.3298 -0.0879 -0.6812
28716SOL    HW188155   3.798  11.111   9.051 -0.6986 -0.2727  1.1584
28716SOL    HW288156   3.756  10.995   8.962 -0.1196  1.2572 -1.1843
28717SOL     OW88157   5.195   3.465   5.516  0.2889 -0.3339  0.4549
28717SOL    HW188158   5.135   3.438   5.586  1.0238 -2.1918  0.4308
28717SOL    HW288159   5.240   3.542   5.552 -0.4903 -0.2826  1.3711
28718SOL     OW88160   1.837   9.986  10.747 -0.1217  0.0335  0.2806
28718SOL    HW188161   1.823  10.041  10.670  0.5133  0.4445  0.4501
28718SOL    HW288162   1.778  10.022  10.814  0.4221  0.6368  0.4475
28719SOL     OW88163   6.403   9.080   8.369 -0.6153 -0.1383 -0.2829
28719SOL    HW188164   6.393   9.123   8.284  0.5430 -1.0710 -0.9180
28719SOL    HW288165   6.389   9.150   8.433 -2.1920  0.4246 -1.2134
28720SOL     OW88166  10.560   8.283   1.265  0.0570  0.5826  0.1387
28720SOL    HW188167  10.517   8.221   1.324  0.6781 -1.7883 -1.7321
28720SOL    HW288168  10.489   8.335   1.229 -1.1642 -2.0946 -1.5835
28721SOL     OW88169   4.948   5.529   3.626 -0.1399 -0.2042  0.2395
28721SOL    HW188170   4.916   5.514   3.715 -0.5565 -1.8768 -0.1535
28721SOL    HW288171   4.999   5.451   3.605  1.2646  0.8578 -0.4471
28722SOL     OW88172   6.375   0.366   9.321 -0.5746 -0.3191 -0.2672
28722SOL    HW188173   6.445   0.306   9.294  0.6834  0.7969  0.3804
28722SOL    HW288174   6.331   0.390   9.240  0.7946  0.1601 -0.8959
28723SOL     OW88175   0.172   1.992   6.210  0.4237 -0.0698  0.0589
28723SOL    HW188176   0.128   2.027   6.287  0.2778  1.0355 -0.5116
28723SOL    HW288177   0.262   1.975   6.240 -0.1143 -1.4865  0.9774
28724SOL     OW88178   7.872   0.915   9.006 -0.0557  0.0518 -0.6078
28724SOL    HW188179   7.888   1.004   8.974  0.1223  0.9306  1.7454
28724SOL    HW288180   7.777   0.911   9.019 -0.0583 -0.0937 -0.6721
28725SOL     OW88181   0.494   4.627   5.911  0.3164 -0.0214 -0.0036
28725SOL    HW188182   0.579   4.608   5.872  1.2031  1.4508  1.1017
28725SOL    HW288183   0.431   4.591   5.850  1.7239 -0.5964 -1.1679
28726SOL     OW88184   8.602   9.743   9.117  0.6318  0.0062 -0.3234
28726SOL    HW188185   8.620   9.811   9.052  1.1927  1.0272  0.8763
28726SOL    HW288186   8.604   9.661   9.067 -1.2156  0.9065 -2.0251
28727SOL     OW88187   3.649   1.547   1.174 -0.6121 -0.3690 -0.3965
28727SOL    HW188188   3.619   1.539   1.083 -0.6240 -0.2912 -0.3988
28727SOL    HW288189   3.630   1.461   1.212 -0.7263 -0.3598 -0.4314
28728SOL     OW88190  10.601   4.414   8.517 -0.1208  0.5454  0.3834
28728SOL    HW188191  10.691   4.428   8.490  0.2587 -0.2340  1.2077
28728SOL    HW288192  10.561   4.502   8.514 -0.1903  0.5218 -2.8112
28729SOL     OW88193   7.241   1.059   7.689  0.4560  0.1695  0.5097
28729SOL    HW188194   7.264   0.970   7.717 -1.8293 -0.7554 -0.3423
28729SOL    HW288195   7.153   1.051   7.654  1.0683  2.3376 -1.8020
28730SOL     OW88196   5.527   4.455  10.342 -0.4790  1.0844 -0.1510
28730SOL    HW188197   5.566   4.368  10.334 -0.8251  1.0250 -1.4283
28730SOL    HW288198   5.589   4.504  10.396  0.5052  0.4957 -0.7125
28731SOL     OW88199   7.531   6.651   6.429  0.1124  0.1952 -0.0679
28731SOL    HW188200   7.621   6.638   6.459  0.7115  2.6402 -0.5972
28731SOL    HW288201   7.480   6.660   6.509  0.4875 -0.2098  0.2240
28732SOL     OW88202   0.506   2.528   0.554 -0.1391 -0.1096 -0.4802
28732SOL    HW188203   0.431   2.484   0.593  0.1237 -1.3333 -1.2919
28732SOL    HW288204   0.539   2.466   0.489  0.5591  1.0916 -1.3165
28733SOL     OW88205   8.400   3.553   3.661 -0.0884 -0.0036  0.0387
28733SOL    HW188206   8.315   3.598   3.658 -0.8108 -1.3592 -2.3305
28733SOL    HW288207   8.381   3.468   3.700  0.8494  0.7566  2.3627
28734SOL     OW88208   2.612   5.474   0.290  0.1228 -0.3294 -0.7145
28734SOL    HW188209   2.689   5.449   0.342  1.4131 -0.0659 -2.3881
28734SOL    HW288210   2.560   5.394   0.286 -0.3670 -0.1785  1.4840
28735SOL     OW88211   0.043   2.253   0.806  0.0540  0.3281 -0.7431
28735SOL    HW188212   0.002   2.340   0.812  2.7059  1.8463 -2.5895
28735SOL    HW288213   0.026   2.226   0.716  0.4316 -0.4563 -0.5819
28736SOL     OW88214   9.187   7.276  10.594 -0.0503  0.5029 -0.4779
28736SOL    HW188215   9.132   7.306  10.667 -1.1686  1.0527 -1.5146
28736SOL    HW288216   9.128   7.225  10.539 -0.7063  4.3422 -3.7168
28737SOL     OW88217   2.725   2.881   8.229 -0.6910 -0.5298 -0.4323
28737SOL    HW188218   2.660   2.855   8.294 -1.4594  2.0008 -0.0719
28737SOL    HW288219   2.808   2.880   8.276 -0.6326 -2.3516 -0.4983
28738SOL     OW88220   1.402  10.933   6.780  0.3745  0.2829  0.2892
28738SOL    HW188221   1.494  10.943   6.756  0.2859 -0.4883 -0.4070
28738SOL    HW288222   1.403  10.915   6.874  1.0463 -1.1869  0.0185
28739SOL     OW88223   1.133   0.108   1.190  0.0547  0.0854 -0.2901
28739SOL    HW188224   1.085   0.027   1.211  1.4257 -0.7502 -0.2791
28739SOL    HW288225   1.143   0.152   1.274 -1.0597  0.4897 -0.3549
28740SOL     OW88226  10.390   4.613   0.903  0.2169  0.0527 -0.3837
28740SOL    HW188227  10.465   4.555   0.889  0.1933 -0.0443 -0.1128
28740SOL    HW288228  10.313   4.558   0.888  0.1880 -0.0943  0.2620
28741SOL     OW88229   5.613   3.539   2.786 -0.0597 -0.2858  0.0436
28741SOL    HW188230   5.707   3.549   2.767  0.6193 -1.4745  2.3419
28741SOL    HW288231   5.606   3.556   2.880 -1.5748 -3.1712  0.5787
28742SOL     OW88232   2.331   8.538   2.550 -0.0601 -0.2407 -0.2840
28742SOL    HW188233   2.236   8.528   2.548 -0.2344  1.2140 -0.4710
28742SOL    HW288234   2.357   8.507   2.636 -0.4936 -2.1117 -0.7791
28743SOL     OW88235  10.620   4.027   7.996 -0.2760 -0.3392  1.1457
28743SOL    HW188236  10.539   4.016   8.046 -0.7883  0.9968  0.6431
28743SOL    HW288237  10.644   4.118   8.008 -0.5876  0.1251 -1.2762
28744SOL     OW88238   2.593   8.449   5.516  0.1261  0.1094 -0.0297
28744SOL    HW188239   2.608   8.370   5.465  0.7600  1.1172 -1.4861
28744SOL    HW288240   2.498   8.460   5.516  0.1450  0.6746 -2.0168
28745SOL     OW88241   9.643   8.452   2.310 -0.3347 -0.7476  0.6928
28745SOL    HW188242   9.647   8.441   2.215  1.6918 -0.3500  0.6762
28745SOL    HW288243   9.684   8.373   2.345 -0.0926 -0.4147  1.1784
28746SOL     OW88244   3.840   4.366  10.920  0.1698 -0.4469 -0.3011
28746SOL    HW188245   3.895   4.435  10.884 -1.0193  0.2014 -0.9166
28746SOL    HW288246   3.901   4.308  10.965  1.2622  0.6615 -0.3120
28747SOL     OW88247   6.225   6.474   9.272 -0.6657  0.3482  0.8457
28747SOL    HW188248   6.164   6.449   9.342 -1.2576 -3.0083 -0.6169
28747SOL    HW288249   6.269   6.392   9.249 -0.3613  1.2961 -2.5182
28748SOL     OW88250  10.057   2.703   4.532 -0.2821  0.0750  0.2652
28748SOL    HW188251   9.985   2.648   4.503  1.7428 -2.0145 -1.2011
28748SOL    HW288252  10.072   2.764   4.460  0.9612 -1.1870 -0.5988
28749SOL     OW88253   2.914   7.146   5.991  0.6927 -0.2586 -0.0861
28749SOL    HW188254   2.856   7.181   5.923  1.8594  0.9900 -0.4947
28749SOL    HW288255   2.983   7.101   5.942  2.4403  2.0368  0.0920
28750SOL     OW88256   8.209   5.299   0.239 -0.4423  0.1523 -0.7311
28750SOL    HW188257   8.212   5.282   0.145  0.9087 -1.5242 -0.4344
28750SOL    HW288258   8.283   5.359   0.255  0.4120 -0.9278 -0.5251
28751SOL     OW88259   7.924   8.059   7.515  0.1969  0.3803  0.3685
28751SOL    HW188260   7.994   8.114   7.549 -0.4269  0.5193  1.4702
28751SOL    HW288261   7.846   8.114   7.517  0.1190  0.3745 -1.2644
28752SOL     OW88262   1.025  10.862   8.671 -0.4853 -0.5126 -0.2937
28752SOL    HW188263   1.074  10.813   8.606  0.1026  0.2841 -0.4766
28752SOL    HW288264   0.946  10.891   8.626  0.1528  0.4564 -0.8269
28753SOL     OW88265  10.521   7.987   2.168  0.6111  0.1548  0.0276
28753SOL    HW188266  10.528   7.968   2.262  2.7695  0.8807  0.0774
28753SOL    HW288267  10.525   7.901   2.126  3.1583 -0.0628  0.5187
28754SOL     OW88268   5.890   1.342   3.283 -0.3556  0.3873 -0.4029
28754SOL    HW188269   5.932   1.332   3.197  0.8931  0.2507  0.2013
28754SOL    HW288270   5.870   1.435   3.288  0.5965  0.6108 -0.4104
28755SOL     OW88271   2.713   4.280   5.123  0.4342 -0.4527  0.7735
28755SOL    HW188272   2.727   4.368   5.090  0.9270 -0.5890  0.6146
28755SOL    HW288273   2.801   4.242   5.131  0.2335 -0.9041  0.9047
28756SOL     OW88274   3.410   0.849   6.554  0.5321 -0.2109 -0.2821
28756SOL    HW188275   3.335   0.794   6.532  0.8390 -1.3081  1.2440
28756SOL    HW288276   3.379   0.907   6.623  0.6626  0.4369 -0.7562
28757SOL     OW88277   7.489   2.181   5.598  0.2000 -0.5832  0.2838
28757SOL    HW188278   7.480   2.273   5.622  0.1540 -0.3469 -0.6010
28757SOL    HW288279   7.529   2.139   5.674 -0.8800 -0.0676  1.1509
28758SOL     OW88280   4.037   5.231   5.451 -0.6400 -0.3438 -0.3720
28758SOL    HW188281   4.105   5.260   5.511  1.0034 -0.6692 -1.9650
28758SOL    HW288282   3.955   5.260   5.490  0.2104 -1.5212  2.5576
28759SOL     OW88283   9.501   5.620   0.480 -0.2714  0.0860  0.5169
28759SOL    HW188284   9.587   5.583   0.461  0.9562  2.0503  1.8986
28759SOL    HW288285   9.483   5.677   0.405 -0.3882 -0.3090  0.2374
28760SOL     OW88286  10.424   9.430   7.395  0.3458 -0.0793 -0.6046
28760SOL    HW188287  10.351   9.369   7.396  0.6899 -0.4884  0.1321
28760SOL    HW288288  10.436   9.451   7.302 -0.1835 -0.6341 -0.8062
28761SOL     OW88289   7.612   9.984   1.293  0.4985 -0.3718 -0.0180
28761SOL    HW188290   7.560   9.905   1.274  3.3545 -2.1889 -0.9819
28761SOL    HW288291   7.557  10.056   1.262 -0.7955 -2.2662 -2.5301
28762SOL     OW88292   4.301   6.389   1.799  0.3861 -0.2492 -0.1434
28762SOL    HW188293   4.231   6.328   1.823 -0.0006  0.5092  0.6896
28762SOL    HW288294   4.275   6.472   1.837  0.6266  0.6059 -1.7784
28763SOL     OW88295  10.529   8.190   7.523 -0.1198 -0.2891 -0.6309
28763SOL    HW188296  10.540   8.258   7.456 -0.6019 -0.7105 -1.1590
28763SOL    HW288297  10.610   8.192   7.573 -0.0253  0.4994 -0.7994
28764SOL     OW88298  11.017   1.403  10.757 -0.2894 -0.3958 -0.3084
28764SOL    HW188299  11.011   1.397  10.662 -0.6767  0.8006 -0.3766
28764SOL    HW288300  11.065   1.484  10.773 -0.1984 -0.6046  0.5187
28765SOL     OW88301   0.926   4.895   9.467  0.0084  0.6349  0.2329
28765SOL    HW188302   0.948   4.848   9.387 -0.9591 -0.5733  0.6543
28765SOL    HW288303   0.836   4.869   9.487  0.5637  0.0850  2.2593
28766SOL     OW88304   8.390   8.867  10.077 -0.4555 -0.1989  0.2345
28766SOL    HW188305   8.455   8.888  10.010  1.1182 -1.5503  1.2640
28766SOL    HW288306   8.340   8.948  10.087  0.7793  0.7642 -0.9221
28767SOL     OW88307   3.298   6.820   1.540 -0.1914 -0.3137  0.3458
28767SOL    HW188308   3.278   6.728   1.526 -2.4650  0.1159  0.3648
28767SOL    HW288309   3.233   6.849   1.605  1.3422  0.9903  1.3688
28768SOL     OW88310   6.256   3.984   1.675  0.0274 -0.2820 -0.2328
28768SOL    HW188311   6.262   4.051   1.742  2.1689  0.6273 -1.2337
28768SOL    HW288312   6.162   3.979   1.654 -0.4163  0.8892  1.3065
28769SOL     OW88313   6.032   2.601   5.894  0.0233  0.3072 -0.4934
28769SOL    HW188314   5.984   2.520   5.875  0.1032 -0.3392  1.8057
28769SOL    HW288315   5.966   2.670   5.889 -0.3607 -0.0815 -0.9276
28770SOL     OW88316   6.439   9.050   6.980 -0.4294  0.0667 -0.0254
28770SOL    HW188317   6.491   9.043   7.060 -1.3158 -1.1500  0.4824
28770SOL    HW288318   6.349   9.060   7.011 -0.6503  0.7683 -0.8805
28771SOL     OW88319   8.968   4.775   9.708 -0.0875  0.2427  0.3828
28771SOL    HW188320   9.046   4.766   9.764 -0.0510  1.6195  0.5949
28771SOL    HW288321   8.928   4.857   9.736 -3.7874 -2.1456  2.9131
28772SOL     OW88322   6.860   5.571   4.554 -0.3003  0.0192  0.2645
28772SOL    HW188323   6.801   5.645   4.541 -0.4853 -0.2426 -0.4087
28772SOL    HW288324   6.895   5.552   4.467 -1.0689 -1.3687  0.2348
28773SOL     OW88325   4.156   3.235  10.852 -0.4816  0.0457 -0.0216
28773SOL    HW188326   4.133   3.306  10.792  2.2191 -0.3304 -1.6765
28773SOL    HW288327   4.198   3.279  10.926 -1.9317  0.3743  0.6221
28774SOL     OW88328   0.318   9.468   1.731 -0.1501  0.3083 -0.0803
28774SOL    HW188329   0.333   9.553   1.689  0.8920  1.6943  2.8084
28774SOL    HW288330   0.404   9.425   1.729  0.2126  0.9006  1.5635
28775SOL     OW88331   0.521   4.031   8.209  0.4555 -0.0419  0.2748
28775SOL    HW188332   0.431   4.019   8.238  0.0904  2.4602  0.4294
28775SOL    HW288333   0.521   4.002   8.118 -0.4628 -0.1786  0.3087
28776SOL     OW88334   2.263   5.516   7.971 -0.0316 -0.4480  0.1301
28776SOL    HW188335   2.327   5.572   8.015  0.2321 -0.1683 -0.6043
28776SOL    HW288336   2.266   5.543   7.880 -0.3397 -1.2487 -0.1244
28777SOL     OW88337   2.600   6.876   5.046 -0.1607 -0.2215  0.3102
28777SOL    HW188338   2.641   6.962   5.060  1.2868 -1.1724  2.2186
28777SOL    HW288339   2.511   6.886   5.081 -0.0482  0.5293  0.4030
28778SOL     OW88340  10.810   7.726  10.627 -0.5065 -0.1394  0.7190
28778SOL    HW188341  10.744   7.672  10.583 -0.1024 -0.0154 -0.0501
28778SOL    HW288342  10.789   7.716  10.720 -1.8260  0.1659  0.4850
28779SOL     OW88343   9.014   0.992   4.906 -0.3595  0.2265 -0.5297
28779SOL    HW188344   9.007   0.896   4.903 -1.0229  0.2305  0.2829
28779SOL    HW288345   9.060   1.016   4.826 -0.8340 -0.7183 -1.0984
28780SOL     OW88346   8.650   3.907   7.776 -0.2413 -0.4768  0.0159
28780SOL    HW188347   8.664   3.894   7.870 -2.7280  0.3328  0.5717
28780SOL    HW288348   8.658   3.819   7.738 -0.7201 -1.0557  1.2144
28781SOL     OW88349   6.322   6.729   4.306 -0.5464 -0.1521 -0.4349
28781SOL    HW188350   6.315   6.640   4.272 -0.9999 -0.1779 -0.2719
28781SOL    HW288351   6.280   6.784   4.240  3.2049  0.4772 -2.5988
28782SOL     OW88352   6.518   2.248   8.995 -0.0360 -0.6530 -0.0946
28782SOL    HW188353   6.456   2.229   8.924 -0.6457  1.5846 -0.2374
28782SOL    HW288354   6.465   2.256   9.073  0.3643 -0.9628  0.2142
28783SOL     OW88355   6.396   4.635   9.664  0.4637 -0.0645 -0.6488
28783SOL    HW188356   6.407   4.709   9.724 -2.3227  0.0888 -0.1711
28783SOL    HW288357   6.456   4.568   9.696 -0.0565  0.4661  1.5791
28784SOL     OW88358   7.078   0.395   7.914 -0.2824  0.1284 -0.3010
28784SOL    HW188359   7.172   0.408   7.903 -0.3485 -0.2260 -1.3628
28784SOL    HW288360   7.070   0.308   7.955 -0.1517  0.1256 -0.2819
28785SOL     OW88361  10.740  10.396   6.000 -0.2357  0.5097 -0.2345
28785SOL    HW188362  10.665  10.405   6.058  0.5401 -1.6715  1.2615
28785SOL    HW288363  10.815  10.420   6.054  0.3234  0.6522 -1.0570
28786SOL     OW88364   6.613   0.972   8.338 -0.2247  0.1429  0.3971
28786SOL    HW188365   6.657   0.909   8.394 -1.0021 -0.4709  0.3366
28786SOL    HW288366   6.574   0.919   8.268  0.9210  0.9053 -0.8839
28787SOL     OW88367   4.391   4.016   1.373 -0.0506 -0.3722  0.0459
28787SOL    HW188368   4.410   4.088   1.313 -1.9828  0.1156 -0.0451
28787SOL    HW288369   4.477   3.988   1.405  1.0293 -0.3593 -2.5818
28788SOL     OW88370   7.524   4.819   3.654 -0.0026 -0.5842  0.1634
28788SOL    HW188371   7.522   4.733   3.696 -0.5399 -0.3779  0.5798
28788SOL    HW288372   7.438   4.856   3.673 -0.5260 -0.7456 -1.6763
28789SOL     OW88373   1.288   0.500   6.448  0.5861 -0.3215 -0.6213
28789SOL    HW188374   1.274   0.441   6.522  1.5319 -0.4071 -0.5089
28789SOL    HW288375   1.296   0.587   6.488 -0.4567 -0.1443 -0.7603
28790SOL     OW88376   0.002   5.230   1.981 -0.2875  0.4054 -0.1601
28790SOL    HW188377  -0.054   5.286   1.927 -2.8255 -1.0865  0.7541
28790SOL    HW288378   0.048   5.174   1.918  0.4812  1.8533 -0.9424
28791SOL     OW88379   5.771   4.349   4.170 -0.0529  0.3637 -0.1860
28791SOL    HW188380   5.801   4.260   4.152  0.2615 -0.0232  1.9841
28791SOL    HW288381   5.676   4.344   4.163  0.0457  0.2951 -1.7606
28792SOL     OW88382   6.881   8.242   6.110 -0.1670  0.2762 -0.0255
28792SOL    HW188383   6.859   8.303   6.040 -1.1668  0.4605  0.4353
28792SOL    HW288384   6.915   8.165   6.065  1.2394  1.1985 -0.6125
28793SOL     OW88385   1.707   5.401   9.966  0.3347 -0.2848  0.3347
28793SOL    HW188386   1.619   5.386   9.999 -0.2577  1.1206 -0.5243
28793SOL    HW288387   1.751   5.449  10.036  0.4860 -1.1130  0.8221
28794SOL     OW88388   2.694   9.555   8.376 -0.0400 -0.0772 -0.0406
28794SOL    HW188389   2.693   9.491   8.305  0.3870  0.2521 -0.3477
28794SOL    HW288390   2.784   9.554   8.408 -0.2637 -0.3319  0.6043
28795SOL     OW88391   0.908   7.838   1.516  0.1990  0.0494  0.3402
28795SOL    HW188392   0.910   7.770   1.448  0.8824 -0.2692  0.6656
28795SOL    HW288393   0.856   7.909   1.477 -0.3042 -0.5484 -0.1078
28796SOL     OW88394   7.583   9.322   3.047 -0.4485  0.2959  0.2058
28796SOL    HW188395   7.492   9.312   3.071  0.2148 -0.1230  2.8066
28796SOL    HW288396   7.619   9.382   3.112  1.5052 -0.8724  0.2740
28797SOL     OW88397   6.470   1.537   4.903 -0.7245  0.4750 -0.5217
28797SOL    HW188398   6.524   1.459   4.888  0.0255  1.3555 -3.0075
28797SOL    HW288399   6.383   1.512   4.870 -0.5295  0.5998 -1.1523
28798SOL     OW88400   2.728  10.647   4.430 -0.1653 -0.5183  0.4798
28798SOL    HW188401   2.690  10.588   4.495 -1.9659 -0.5030 -0.4788
28798SOL    HW288402   2.731  10.595   4.349  1.3464 -0.3155  0.3874
28799SOL     OW88403   2.550   1.690   1.579 -0.3053  0.1235 -0.5393
28799SOL    HW188404   2.646   1.686   1.582 -0.1008  2.1522 -2.1506
28799SOL    HW288405   2.523   1.678   1.670  1.4310 -0.9784 -0.1221
28800SOL     OW88406   0.181   0.485  10.838 -0.1425  0.4102  0.0637
28800SOL    HW188407   0.100   0.522  10.803  0.7672  0.6002 -1.9317
28800SOL    HW288408   0.234   0.464  10.761  1.7075  0.2726  1.3057
28801SOL     OW88409   3.353  10.280  10.577  0.8354 -0.6951  0.5164
28801SOL    HW188410   3.313  10.193  10.577  1.0249 -0.8437 -1.8137
28801SOL    HW288411   3.366  10.300  10.485 -0.1074  2.2528  0.9329
28802SOL     OW88412  10.684   4.552   4.172  0.8810 -0.8679  0.4052
28802SOL    HW188413  10.676   4.613   4.098  1.9925 -1.4265 -0.1976
28802SOL    HW288414  10.601   4.505   4.173  0.7234 -0.6210 -0.2785
28803SOL     OW88415   8.813   6.958   7.115 -0.2389 -0.2533  0.2835
28803SOL    HW188416   8.717   6.957   7.111 -0.2374 -1.7261  0.0918
28803SOL    HW288417   8.840   6.959   7.023 -0.1020 -1.7194  0.2790
28804SOL     OW88418   2.714   7.110   5.121 -0.0004 -0.6076 -0.0827
28804SOL    HW188419   2.781   7.042   5.133 -0.2939 -0.9594 -0.3896
28804SOL    HW288420   2.736   7.178   5.184  0.9186 -0.5086 -0.4953
28805SOL     OW88421   7.918   0.593   9.385  0.1981  0.4960 -0.2421
28805SOL    HW188422   7.833   0.637   9.394  0.6092  1.4300 -0.7409
28805SOL    HW288423   7.970   0.653   9.330  1.0108 -0.2990 -0.3586
28806SOL     OW88424   3.391   4.554   6.791 -0.0457  0.0547 -0.0041
28806SOL    HW188425   3.480   4.587   6.800 -0.4613  1.5602 -0.9723
28806SOL    HW288426   3.395   4.492   6.719  0.4494 -0.8863  0.8101
28807SOL     OW88427   1.864   1.766   8.767 -0.0988 -0.1790 -0.2646
28807SOL    HW188428   1.861   1.671   8.761 -1.2440 -0.2990  1.4488
28807SOL    HW288429   1.956   1.788   8.751 -0.1079 -1.3998 -2.2973
28808SOL     OW88430   4.302   1.872   6.906  0.3553 -0.1280 -0.0858
28808SOL    HW188431   4.254   1.859   6.824  0.4304  0.2250 -0.1900
28808SOL    HW288432   4.262   1.950   6.944  1.4542  0.7300 -0.6301
28809SOL     OW88433   6.222   2.087   0.010  0.3911  0.1169  0.0908
28809SOL    HW188434   6.309   2.113  -0.019 -0.1762  1.5773 -0.3877
28809SOL    HW288435   6.230   2.079   0.105  1.0765  0.0959  0.0376
28810SOL     OW88436   3.250   0.450   0.827 -0.6109 -0.9267  0.1335
28810SOL    HW188437   3.230   0.409   0.743  1.4052  2.4909 -2.2559
28810SOL    HW288438   3.345   0.450   0.831 -0.6513  0.1310  1.8088
28811SOL     OW88439   0.762   6.777   6.324  0.4340 -0.5101 -0.4700
28811SOL    HW188440   0.828   6.758   6.258 -1.5199 -2.3024 -2.0639
28811SOL    HW288441   0.732   6.865   6.302  1.7784  0.0586 -0.1285
28812SOL     OW88442   1.236   7.834   6.799 -0.6362 -0.1447 -0.1918
28812SOL    HW188443   1.168   7.888   6.759  0.3815 -0.4906 -2.5580
28812SOL    HW288444   1.189   7.777   6.860 -2.0210  1.7833  0.6431
28813SOL     OW88445   1.964   1.452   3.859 -0.1732 -0.5822  0.1355
28813SOL    HW188446   1.957   1.535   3.906  1.3815  0.1015 -0.7751
28813SOL    HW288447   2.005   1.475   3.776  0.4399 -2.2773 -0.0643
28814SOL     OW88448   6.546   3.070   8.094 -0.1020 -0.3494  0.2412
28814SOL    HW188449   6.626   3.031   8.059 -0.8885 -1.7898 -0.0569
28814SOL    HW288450   6.535   3.151   8.046  0.9389 -0.3477 -0.0171
28815SOL     OW88451   8.546  10.354   1.668  0.2917 -0.6200  0.3717
28815SOL    HW188452   8.636  10.351   1.637  0.3657 -3.2436  0.6388
28815SOL    HW288453   8.509  10.268   1.644 -2.5126  0.7456 -0.7542
28816SOL     OW88454   6.251   4.286   2.831  0.3445  0.3279  0.4884
28816SOL    HW188455   6.211   4.214   2.782  0.1198  0.4622  0.4742
28816SOL    HW288456   6.305   4.242   2.898 -0.8407  0.1310  1.3559
28817SOL     OW88457   3.315   5.123  10.118  0.0035 -0.1394  0.0454
28817SOL    HW188458   3.219   5.121  10.115 -0.0148 -0.6514 -3.1564
28817SOL    HW288459   3.341   5.033  10.138 -0.1264  0.1987  1.8836
28818SOL     OW88460   3.783   3.796   2.024  0.3200  0.7848 -0.2453
28818SOL    HW188461   3.735   3.720   1.991  2.0040 -0.3127 -0.3253
28818SOL    HW288462   3.795   3.851   1.947  1.8430 -0.4540 -0.9726
28819SOL     OW88463   2.536   6.253  10.271 -0.3496  0.2549 -0.2579
28819SOL    HW188464   2.608   6.276  10.211 -0.7119  2.2243 -0.0076
28819SOL    HW288465   2.558   6.165  10.301  2.4138  1.0381  0.3989
28820SOL     OW88466   9.701   5.416   7.962 -0.1444  0.1732  0.1112
28820SOL    HW188467   9.748   5.451   7.887 -0.7203  0.6932 -0.0169
28820SOL    HW288468   9.610   5.441   7.947 -0.0416  1.8040  1.7957
28821SOL     OW88469   5.370   3.014  11.014  0.1125 -0.5908  0.2878
28821SOL    HW188470   5.461   2.987  11.005  0.3538  0.5153 -0.8108
28821SOL    HW288471   5.325   2.976  10.939 -0.3699 -1.2071  0.8706
28822SOL     OW88472   1.322   7.408   2.888  0.1070  0.4325  0.2296
28822SOL    HW188473   1.270   7.392   2.966 -0.7836  0.3847 -0.3548
28822SOL    HW288474   1.261   7.393   2.815  1.1289 -0.3242 -0.4959
28823SOL     OW88475  10.645   6.998   4.880  0.3551  0.4300  0.6844
28823SOL    HW188476  10.631   6.958   4.965  0.3447 -0.6165  0.2118
28823SOL    HW288477  10.560   7.038   4.858  0.0260 -0.2482  0.6903
28824SOL     OW88478   5.192   6.891   1.082  0.3505 -0.2762 -0.3562
28824SOL    HW188479   5.185   6.915   1.175  0.9932  1.0767 -0.6294
28824SOL    HW288480   5.130   6.819   1.071  1.5811 -1.7367  1.5452
28825SOL     OW88481   0.081   3.787   9.720  0.4715 -0.7700 -0.2223
28825SOL    HW188482   0.134   3.709   9.701  0.8460 -0.8860  1.1836
28825SOL    HW288483   0.090   3.842   9.643  3.5976 -0.2772  0.3619
28826SOL     OW88484   8.154   1.713  10.569 -0.3806 -0.1285  0.3525
28826SOL    HW188485   8.110   1.675  10.493  0.4964 -1.8312  0.6550
28826SOL    HW288486   8.245   1.688  10.559 -0.4561 -1.6257  2.6409
28827SOL     OW88487   0.240   6.953   7.069 -0.0055 -0.6847  0.3400
28827SOL    HW188488   0.185   6.990   7.000 -1.1723 -0.9250  1.1124
28827SOL    HW288489   0.306   6.901   7.022 -0.3696 -0.3034 -0.6130
28828SOL     OW88490   8.658  10.204   9.636 -0.9763 -0.2933  0.2536
28828SOL    HW188491   8.626  10.226   9.549 -0.6190  2.3618  0.6933
28828SOL    HW288492   8.648  10.109   9.643  0.0628 -0.7636 -3.0680
28829SOL     OW88493   0.051   0.588   0.528 -0.4029 -0.4246 -0.6459
28829SOL    HW188494   0.004   0.623   0.453 -1.9259 -1.7567 -0.3744
28829SOL    HW288495  -0.016   0.579   0.596  1.3837  3.4969  2.0076
28830SOL     OW88496  10.823   5.743   8.255  0.0265 -0.3299 -0.2567
28830SOL    HW188497  10.899   5.685   8.264  0.5518  0.5226  1.2865
28830SOL    HW288498  10.776   5.710   8.179  2.7077 -0.0118 -2.1788
28831SOL     OW88499   6.032   7.569   1.300 -0.4399 -0.1258  0.1820
28831SOL    HW188500   5.965   7.507   1.329 -1.3642  0.6395 -0.2642
28831SOL    HW288501   5.998   7.604   1.218  0.2829  0.6423  0.2048
28832SOL     OW88502  10.984   0.678   2.116  0.4994  0.7481 -0.1307
28832SOL    HW188503  10.956   0.759   2.158 -0.9019  0.6042 -0.7210
28832SOL    HW288504  10.981   0.698   2.022 -2.1102 -0.5946 -0.4257
28833SOL     OW88505   5.875   8.863   5.424 -0.4081  0.1627  0.3011
28833SOL    HW188506   5.862   8.926   5.354  2.3928 -0.8667 -1.3498
28833SOL    HW288507   5.867   8.778   5.381 -1.3485 -0.5683  1.8577
28834SOL     OW88508   1.915   0.921  11.033  0.1301  0.0919 -0.0893
28834SOL    HW188509   1.974   0.847  11.049  0.6857  0.7206  0.8443
28834SOL    HW288510   1.942   0.954  10.947  0.4993 -0.2123 -0.0967
28835SOL     OW88511   3.977   0.987   2.991  0.3665 -0.4849  0.1015
28835SOL    HW188512   4.049   0.981   3.054  0.6470 -0.5074 -0.2157
28835SOL    HW288513   4.013   0.951   2.910  0.1876  0.0432 -0.2230
28836SOL     OW88514  10.621   0.957   7.558  0.0291  0.1913 -0.5211
28836SOL    HW188515  10.635   0.890   7.491 -1.3729 -1.1743  0.4583
28836SOL    HW288516  10.544   1.005   7.527  0.2521  0.5110 -0.5850
28837SOL     OW88517   3.275   7.530   5.161 -0.1786  0.2483 -0.4229
28837SOL    HW188518   3.235   7.532   5.248  0.9362  1.7422  0.0920
28837SOL    HW288519   3.363   7.495   5.177 -0.2505 -0.2552 -1.0959
28838SOL     OW88520  10.559   1.139   7.208  0.2179  0.2671 -0.0417
28838SOL    HW188521  10.639   1.143   7.261  1.1785  1.9688 -1.5117
28838SOL    HW288522  10.574   1.066   7.148 -0.2955 -0.8043  1.1033
28839SOL     OW88523   7.084   5.743   2.756  0.2401 -0.0682  0.0698
28839SOL    HW188524   7.056   5.712   2.842  0.5928 -0.9176 -0.1167
28839SOL    HW288525   7.066   5.670   2.697  0.3543  0.3718 -0.5198
28840SOL     OW88526   3.694   3.074   8.344  1.2598  0.2101  0.6678
28840SOL    HW188527   3.739   3.148   8.303 -0.5851  1.5645  0.9750
28840SOL    HW288528   3.740   3.061   8.426  1.1204  1.5766  0.9870
28841SOL     OW88529   0.648   4.890   9.464  0.1924 -0.4136 -0.2078
28841SOL    HW188530   0.605   4.968   9.429  0.4090  0.8761  2.1715
28841SOL    HW288531   0.578   4.825   9.471 -0.6509  0.5223  0.3793
28842SOL     OW88532   1.195   0.709   9.952 -0.0112  0.2508  0.2217
28842SOL    HW188533   1.123   0.727   9.892 -0.6141 -3.8211 -0.5272
28842SOL    HW288534   1.164   0.740  10.037 -1.2673  1.4594 -0.6311
28843SOL     OW88535   7.505   4.609   7.232 -0.1153  0.2006 -0.1279
28843SOL    HW188536   7.502   4.681   7.295  0.9485 -1.7367  2.2946
28843SOL    HW288537   7.413   4.589   7.216 -0.4170  1.4372 -0.0840
28844SOL     OW88538   8.303   9.774   8.117 -0.2562 -0.7579 -0.6949
28844SOL    HW188539   8.227   9.797   8.065 -0.2568  1.0403  0.0314
28844SOL    HW288540   8.373   9.759   8.053 -1.0809 -2.0215 -1.3399
28845SOL     OW88541   7.945   9.043   3.176  0.1473 -0.2750 -0.1609
28845SOL    HW188542   7.989   8.963   3.206  0.4626  0.1627  0.5501
28845SOL    HW288543   7.961   9.107   3.245 -2.0987 -0.2458  0.4113
28846SOL     OW88544   3.539   2.397   8.106  0.4561 -0.3180 -0.0885
28846SOL    HW188545   3.532   2.489   8.079  0.8977  0.1294  1.2827
28846SOL    HW288546   3.608   2.361   8.050 -1.4574 -0.5605 -2.4930
28847SOL     OW88547   3.681  10.279   2.517 -0.3995  0.1398 -0.3464
28847SOL    HW188548   3.640  10.196   2.544 -0.2927  0.3877  0.6013
28847SOL    HW288549   3.676  10.334   2.594 -1.0527  1.2639 -1.1653
28848SOL     OW88550   9.571   4.775   9.663  0.1031  0.2390 -0.3359
28848SOL    HW188551   9.666   4.786   9.664 -0.0756  2.1170  0.3590
28848SOL    HW288552   9.558   4.681   9.649  2.0769 -0.3595  1.3086
28849SOL     OW88553   1.209   3.487  11.019 -0.5518 -0.1885  0.0367
28849SOL    HW188554   1.170   3.574  11.014 -0.2653 -0.0755 -0.2689
28849SOL    HW288555   1.185   3.455  11.106 -1.9272 -0.4015 -0.3910
28850SOL     OW88556   8.499   8.633  10.186  0.3371 -0.5595 -0.1560
28850SOL    HW188557   8.467   8.711  10.141 -1.0364 -1.5272 -0.9249
28850SOL    HW288558   8.558   8.667  10.253  0.9281  1.0509 -1.4026
28851SOL     OW88559   7.499   6.291   1.219 -0.0432  0.0864  0.1125
28851SOL    HW188560   7.496   6.264   1.310 -0.3961  0.9413  0.3640
28851SOL    HW288561   7.407   6.293   1.192 -0.1041  1.7202  0.3265
28852SOL     OW88562   0.825   3.817   3.540  0.4163 -0.7407  0.3248
28852SOL    HW188563   0.895   3.775   3.489 -0.1187 -1.9970  0.5956
28852SOL    HW288564   0.744   3.789   3.498  0.0418  0.4800  0.1876
28853SOL     OW88565   3.783   1.863   0.793  0.3247 -0.0800  0.6247
28853SOL    HW188566   3.827   1.892   0.713 -0.3733 -0.7862 -0.0349
28853SOL    HW288567   3.796   1.768   0.794  1.4353  0.0451  2.0494
28854SOL     OW88568   1.700   8.212   5.448 -0.0377 -0.2299  0.5997
28854SOL    HW188569   1.785   8.169   5.435  0.1699  0.7581 -1.7519
28854SOL    HW288570   1.646   8.181   5.375 -0.8287  1.2187  0.5287
28855SOL     OW88571   4.305   7.209   9.434  0.0493  1.1371 -0.1625
28855SOL    HW188572   4.386   7.216   9.485  0.5598  0.5618 -0.8637
28855SOL    HW288573   4.278   7.118   9.445 -1.0616  1.5682  0.8660
28856SOL     OW88574   3.944   7.816   9.098 -0.0119 -0.4435  0.2648
28856SOL    HW188575   3.979   7.811   9.187 -1.0957 -0.0319  0.7376
28856SOL    HW288576   4.011   7.774   9.043  2.5513  2.7335  0.6886
28857SOL     OW88577   5.949   1.764   2.568  0.1449  0.6538 -0.1270
28857SOL    HW188578   5.898   1.683   2.557 -1.3466  1.6135 -0.5296
28857SOL    HW288579   5.943   1.783   2.662  0.8709  0.0770  0.0443
28858SOL     OW88580   3.893   8.419   9.111 -0.5073 -0.1639  0.0104
28858SOL    HW188581   3.813   8.434   9.162 -1.2305 -0.5671 -0.9585
28858SOL    HW288582   3.902   8.324   9.109  0.7438 -0.1019  1.1860
28859SOL     OW88583  10.442   7.213   2.269 -0.4318  0.0382  0.4358
28859SOL    HW188584  10.397   7.133   2.244 -1.0614  0.7009 -0.6506
28859SOL    HW288585  10.523   7.184   2.311 -0.7112 -1.1483  0.1788
28860SOL     OW88586   1.780   1.083   9.160 -0.0254  0.4018 -0.3429
28860SOL    HW188587   1.744   0.997   9.139 -0.3375  0.7564 -1.2919
28860SOL    HW288588   1.874   1.070   9.165  0.0031  0.1861 -1.3721
28861SOL     OW88589   6.393   0.384   0.990  0.6989 -0.0573 -0.3571
28861SOL    HW188590   6.407   0.353   1.080  1.0938 -0.1107 -0.4371
28861SOL    HW288591   6.345   0.312   0.948 -3.8485  1.7516  1.0709
28862SOL     OW88592  10.775   6.429   0.792  0.4825  0.0647 -0.2886
28862SOL    HW188593  10.718   6.491   0.838  0.2844 -1.1423  1.1704
28862SOL    HW288594  10.736   6.420   0.705  0.1754  1.5018 -0.3300
28863SOL     OW88595   3.174   7.358   6.662 -0.1466 -0.0144  0.0833
28863SOL    HW188596   3.111   7.288   6.680  1.2533 -1.2136  0.5496
28863SOL    HW288597   3.250   7.336   6.717  1.8815 -0.3372 -2.6700
28864SOL     OW88598   3.826   8.430   4.367  0.4679  0.8905  0.2924
28864SOL    HW188599   3.868   8.413   4.282  0.4029  1.3166  0.1768
28864SOL    HW288600   3.814   8.342   4.404  1.0489  0.7311  0.1314
28865SOL     OW88601   7.661   8.941   3.660 -0.0721  0.6435  0.1316
28865SOL    HW188602   7.607   8.895   3.596 -1.3525  1.8084  0.3289
28865SOL    HW288603   7.703   9.011   3.610 -0.6761  1.2413  0.4482
28866SOL     OW88604   3.588   2.556   3.514 -0.2848 -0.1365  0.1613
28866SOL    HW188605   3.605   2.465   3.491  0.0533  0.0024 -0.1541
28866SOL    HW288606   3.509   2.579   3.466  0.3998  0.1427 -0.8547
28867SOL     OW88607   0.297   3.821   1.777 -0.1825  0.4833 -0.1429
28867SOL    HW188608   0.298   3.726   1.783 -0.9602  0.5389  4.8660
28867SOL    HW288609   0.215   3.847   1.820  1.3917  3.3919  1.4105
28868SOL     OW88610   3.049   2.542   2.274 -0.3521  0.3774  0.0139
28868SOL    HW188611   2.988   2.580   2.210 -0.5545 -0.6821 -0.4382
28868SOL    HW288612   3.021   2.451   2.284  0.6793  0.0838  0.3857
28869SOL     OW88613   2.488  10.855   5.593 -0.0656  0.0925  0.0301
28869SOL    HW188614   2.557  10.804   5.550 -0.2273  0.0946 -0.2272
28869SOL    HW288615   2.536  10.914   5.652  0.2907  1.6972 -1.7861
28870SOL     OW88616   1.640   9.609   7.902 -0.2726  0.4358  0.4616
28870SOL    HW188617   1.671   9.598   7.812 -0.4088 -1.0343  0.5793
28870SOL    HW288618   1.680   9.691   7.930  1.3041 -0.0207 -0.3154
28871SOL     OW88619   4.720   1.386   4.403  0.1537  0.1085  0.4909
28871SOL    HW188620   4.745   1.415   4.491 -0.9794 -1.4881  1.3894
28871SOL    HW288621   4.766   1.303   4.391  0.9279  0.6834 -0.7868
28872SOL     OW88622   4.336   0.220   3.039  0.0669  0.3953 -0.3254
28872SOL    HW188623   4.401   0.229   2.969  0.3483 -1.3601 -0.3305
28872SOL    HW288624   4.386   0.187   3.114 -0.9751 -2.5545 -0.7884
28873SOL     OW88625   4.986   8.743   3.357  0.3792  0.7254  0.1146
28873SOL    HW188626   5.068   8.695   3.358  0.3774  0.6393  2.1916
28873SOL    HW288627   4.945   8.721   3.274  1.6092 -0.7048 -0.1468
28874SOL     OW88628   0.039  10.739   0.799  0.2205 -0.1753 -0.2349
28874SOL    HW188629   0.132  10.744   0.779  0.0599  0.0909 -0.9370
28874SOL    HW288630   0.029  10.793   0.878  1.1326 -2.5906  1.6394
28875SOL     OW88631   1.458   2.317   3.371 -0.1642 -0.2016  0.4415
28875SOL    HW188632   1.440   2.346   3.282 -0.6532 -0.3721  0.4765
28875SOL    HW288633   1.546   2.280   3.368  0.3054  0.8921  0.3049
28876SOL     OW88634   9.552   9.762   1.323 -0.1317 -0.1410 -0.3328
28876SOL    HW188635   9.546   9.724   1.236 -1.1189 -0.0396 -0.3257
28876SOL    HW288636   9.525   9.692   1.382  1.7101 -0.5957  0.0134
28877SOL     OW88637  10.403   3.616   1.773  0.2101  0.2340 -0.4112
28877SOL    HW188638  10.397   3.708   1.746 -1.4657  0.3556  0.2940
28877SOL    HW288639  10.313   3.585   1.772  0.5797 -0.9693  0.8683
28878SOL     OW88640   9.375   4.337   5.731  0.3233 -0.5987  0.1902
28878SOL    HW188641   9.431   4.268   5.766  1.4633  0.0358 -0.3167
28878SOL    HW288642   9.347   4.387   5.808 -0.6890 -1.7326  0.5804
28879SOL     OW88643   4.994   4.882  10.027 -0.5480  0.5922  0.2130
28879SOL    HW188644   4.974   4.789  10.038  0.4552  0.5979  2.7883
28879SOL    HW288645   4.915   4.927  10.059 -0.0425  0.5887  1.5337
28880SOL     OW88646   6.884   4.535  10.137  0.2121  0.4821  0.3440
28880SOL    HW188647   6.821   4.487  10.083 -0.2285  0.2707  1.0378
28880SOL    HW288648   6.836   4.556  10.217  0.7625  1.0704  0.5278
28881SOL     OW88649   5.318   3.504   3.695  0.5759 -0.9885 -0.0195
28881SOL    HW188650   5.362   3.421   3.715  2.0589 -0.1419  0.3153
28881SOL    HW288651   5.376   3.571   3.729 -1.1810  0.1801  0.8217
28882SOL     OW88652   1.638   3.595   7.307 -0.5816  0.0259  0.0291
28882SOL    HW188653   1.704   3.656   7.340  1.2299 -1.8382  0.0321
28882SOL    HW288654   1.688   3.526   7.264 -2.6224 -0.7145 -1.3256
28883SOL     OW88655   4.914   8.098   9.292 -0.4224 -0.1504 -0.6978
28883SOL    HW188656   4.885   8.032   9.229 -0.8805  1.7415 -2.5834
28883SOL    HW288657   5.008   8.083   9.301 -0.3138 -0.3502 -2.0130
28884SOL     OW88658  10.911  10.944   0.050 -0.5759 -0.1478 -0.0286
28884SOL    HW188659  10.890  11.037   0.040 -0.4152 -0.1447 -0.3268
28884SOL    HW288660  10.978  10.927  -0.015 -2.5803 -1.1348 -1.9596
28885SOL     OW88661   3.200   8.267   4.020 -0.1099 -0.4040 -0.9726
28885SOL    HW188662   3.240   8.214   4.088 -0.0609 -0.5035 -1.0789
28885SOL    HW288663   3.120   8.301   4.060 -1.2011 -2.1563 -1.5377
28886SOL     OW88664   3.113   4.722   1.350 -0.1136  0.7602  0.0446
28886SOL    HW188665   3.025   4.705   1.317 -0.0118  0.5852 -0.1394
28886SOL    HW288666   3.107   4.708   1.444 -0.3302  0.9481  0.0610
28887SOL     OW88667   5.520   8.148   6.857 -0.3515  0.2155 -0.6668
28887SOL    HW188668   5.503   8.125   6.949 -0.7817 -2.4255 -1.3032
28887SOL    HW288669   5.484   8.236   6.847 -1.7104 -0.0357  1.3295
28888SOL     OW88670   3.765   6.822  10.012  0.1005  0.0174  0.1051
28888SOL    HW188671   3.775   6.732  10.041 -0.0901 -0.1011 -0.1871
28888SOL    HW288672   3.670   6.835  10.008  0.1243  0.0714 -0.3320
28889SOL     OW88673   1.981   4.599   9.996  0.1113 -0.1953  0.1204
28889SOL    HW188674   1.919   4.661   9.956  0.7611  1.8410  2.0247
28889SOL    HW288675   2.067   4.633   9.973  0.5996 -2.2905 -1.4483
28890SOL     OW88676   9.251   6.332   0.830 -0.1986  0.5477  0.2500
28890SOL    HW188677   9.172   6.304   0.876 -0.3899 -0.0879 -0.4513
28890SOL    HW288678   9.309   6.256   0.835 -0.8088 -0.1356 -1.8757
28891SOL     OW88679   8.718   7.942   5.242 -0.3617  0.4057 -0.1045
28891SOL    HW188680   8.697   7.854   5.272  1.3912 -1.1724 -3.0086
28891SOL    HW288681   8.778   7.976   5.307  0.1704 -1.1965  0.2869
28892SOL     OW88682   9.677   0.926   1.152  0.1982 -0.2000  0.0900
28892SOL    HW188683   9.693   0.974   1.070  0.1886  0.0356  0.2248
28892SOL    HW288684   9.591   0.957   1.181 -1.1527 -2.4087 -1.3016
28893SOL     OW88685   5.461   4.939   3.099  0.1306 -0.2975 -0.0088
28893SOL    HW188686   5.407   5.016   3.084  0.5128  0.3129  1.5684
28893SOL    HW288687   5.549   4.974   3.113  0.2944 -0.9889  0.7963
28894SOL     OW88688   4.696  10.420   5.600  0.0850  0.3127  0.0447
28894SOL    HW188689   4.764  10.361   5.633  0.6063  1.8294  1.8780
28894SOL    HW288690   4.614  10.374   5.619  0.5113 -1.0646 -1.2271
28895SOL     OW88691   0.156   1.660   2.719 -0.6045 -0.2161 -0.3761
28895SOL    HW188692   0.239   1.663   2.672  0.0186 -2.0543  0.4957
28895SOL    HW288693   0.119   1.748   2.710  0.8313  0.2771 -1.8341
28896SOL     OW88694   0.869   3.186   4.534 -0.3597  0.1255  0.0973
28896SOL    HW188695   0.890   3.257   4.595 -1.6374 -0.5750  1.4008
28896SOL    HW288696   0.882   3.106   4.585 -2.0908 -0.4540 -0.3231
28897SOL     OW88697   8.142   5.092   7.335  0.1448  0.0516 -0.1112
28897SOL    HW188698   8.203   5.110   7.263  0.2009  0.3626  0.0153
28897SOL    HW288699   8.130   5.176   7.378  0.1076 -0.1348  0.2435
28898SOL     OW88700   7.495   1.654   8.803 -0.1852  0.0183  0.0382
28898SOL    HW188701   7.569   1.662   8.864  0.1944 -0.5837 -0.3285
28898SOL    HW288702   7.535   1.624   8.721 -0.8774 -0.6688 -0.0628
28899SOL     OW88703   0.265   9.328   1.356  0.2273  0.0741  0.2852
28899SOL    HW188704   0.255   9.416   1.391 -1.8500 -0.2283  0.5946
28899SOL    HW288705   0.263   9.271   1.433  2.9519 -0.2325  0.2227
28900SOL     OW88706   5.078   8.431   5.808  0.2781 -0.9373  0.5266
28900SOL    HW188707   5.143   8.502   5.810 -0.7925  0.0640  1.3681
28900SOL    HW288708   5.129   8.352   5.796  1.6553 -0.1716  1.0925
28901SOL     OW88709   8.981   5.569   0.046 -0.1853  0.2789  0.2617
28901SOL    HW188710   8.908   5.525   0.090 -0.9242  0.0425 -1.1468
28901SOL    HW288711   9.049   5.576   0.114 -2.0614  1.9737  2.0982
28902SOL     OW88712   2.472   6.793   8.237 -0.1622  0.4421  0.6675
28902SOL    HW188713   2.555   6.808   8.281  1.4827 -0.9660 -1.7172
28902SOL    HW288714   2.443   6.880   8.209  1.5668  0.7742 -0.1918
28903SOL     OW88715   0.773   2.378   3.320 -0.0869 -0.4540 -0.0366
28903SOL    HW188716   0.825   2.423   3.254  1.2729  0.0602  1.3315
28903SOL    HW288717   0.684   2.410   3.307  0.1883 -0.1921 -1.4451
28904SOL     OW88718   5.896   4.422   2.178  1.0467 -0.8490 -0.6789
28904SOL    HW188719   5.940   4.457   2.256  1.4969 -0.3599 -1.1370
28904SOL    HW288720   5.932   4.334   2.167  0.4785 -1.1847  0.0438
28905SOL     OW88721   5.007   2.493   3.382 -0.4838 -0.0606  0.6058
28905SOL    HW188722   4.927   2.459   3.420 -0.5046 -0.7959 -0.0730
28905SOL    HW288723   4.980   2.572   3.334 -0.7675 -0.2178  0.5092
28906SOL     OW88724   5.212   9.036   3.007 -0.4151 -0.6250 -1.0100
28906SOL    HW188725   5.253   9.086   2.937 -0.4261 -0.1620 -0.6876
28906SOL    HW288726   5.249   8.948   2.998  0.0141 -0.4236 -1.2444
28907SOL     OW88727   7.279   3.345   8.992 -0.2929  0.1781  0.1829
28907SOL    HW188728   7.343   3.395   9.043 -0.2371  0.0696  0.2195
28907SOL    HW288729   7.305   3.253   9.004 -0.7483  0.0980  0.5932
28908SOL     OW88730   2.012   5.502   0.975  0.2870 -0.0053 -0.4850
28908SOL    HW188731   2.012   5.596   0.954 -0.5117  0.3485  0.9889
28908SOL    HW288732   2.097   5.487   1.018 -0.2470  0.4104  0.7461
28909SOL     OW88733   8.034   9.149   6.907 -0.1053 -0.6773 -0.4864
28909SOL    HW188734   8.020   9.072   6.962 -3.1606  0.7715  0.9741
28909SOL    HW288735   8.089   9.207   6.960  0.9516 -1.2036 -0.9811
28910SOL     OW88736   7.301   9.506   8.587 -0.3346  0.9672  0.3890
28910SOL    HW188737   7.311   9.487   8.680 -0.7806  2.1337  0.6994
28910SOL    HW288738   7.282   9.600   8.584 -2.5113  0.5577 -0.7027
28911SOL     OW88739   3.515   3.369   1.531  0.1653  0.5135  0.0124
28911SOL    HW188740   3.439   3.426   1.520 -0.1152 -0.2244 -2.2934
28911SOL    HW288741   3.581   3.405   1.472  0.5878 -0.5263 -0.1755
28912SOL     OW88742   9.823   2.661   6.639 -0.4523 -0.3402 -0.2278
28912SOL    HW188743   9.915   2.672   6.617  0.0537  0.3209  1.9684
28912SOL    HW288744   9.822   2.649   6.734 -2.6889  0.4031 -0.0918
28913SOL     OW88745   5.789   7.763   0.141 -0.4827  0.2692  0.4885
28913SOL    HW188746   5.757   7.688   0.191  0.2394  0.3085  1.0202
28913SOL    HW288747   5.843   7.725   0.072 -0.1114  0.2989  0.7618
28914SOL     OW88748   5.833   3.320   6.032  0.8088  0.5542  0.5068
28914SOL    HW188749   5.826   3.318   5.937  1.3450  0.2130  0.4715
28914SOL    HW288750   5.885   3.399   6.050 -0.6211  1.5130  0.6162
28915SOL     OW88751   6.443   6.830   3.282 -0.2865  0.3118  0.4574
28915SOL    HW188752   6.514   6.799   3.340  0.7292  0.9742 -0.3958
28915SOL    HW288753   6.435   6.761   3.216  0.4812  0.8437 -0.2001
28916SOL     OW88754   4.202   9.534   3.009  0.0105  0.1119 -0.1667
28916SOL    HW188755   4.255   9.612   3.029  1.2909 -0.2441 -1.9116
28916SOL    HW288756   4.249   9.491   2.937 -0.7610 -2.1990  0.6265
28917SOL     OW88757   6.560   6.630   4.682 -0.3151 -0.0666 -0.0913
28917SOL    HW188758   6.641   6.669   4.652  0.6808 -2.2931 -0.4665
28917SOL    HW288759   6.583   6.587   4.765 -1.2640 -0.2092  0.1127
28918SOL     OW88760   3.213   0.051   1.213 -0.1770  0.2589  0.3157
28918SOL    HW188761   3.124   0.020   1.194 -0.1199 -0.2980  0.9126
28918SOL    HW288762   3.226   0.124   1.152 -1.6543  1.4129  1.2935
28919SOL     OW88763   2.937   8.849   6.443  0.3309  0.0203  0.4331
28919SOL    HW188764   2.887   8.773   6.471  0.6180  0.1862  1.4266
28919SOL    HW288765   2.966   8.827   6.354 -1.6173 -0.0058 -0.2288
28920SOL     OW88766   3.474   6.066   7.941  0.0250 -0.4622 -0.5285
28920SOL    HW188767   3.425   6.121   7.880  0.1085 -1.1713 -1.2498
28920SOL    HW288768   3.550   6.037   7.891  0.2420 -0.8314  0.0083
28921SOL     OW88769   3.113   0.084   5.072 -0.4110 -0.2457 -0.5500
28921SOL    HW188770   3.129   0.092   4.978  0.4179  1.7053 -0.3017
28921SOL    HW288771   3.031   0.132   5.087 -0.8158 -0.9845 -0.3245
28922SOL     OW88772   1.382   6.908   1.772  0.7118 -0.8747 -0.3369
28922SOL    HW188773   1.465   6.922   1.727  2.1911 -0.3623  2.3300
28922SOL    HW288774   1.342   6.995   1.777  2.1656 -0.2424  2.0933
28923SOL     OW88775   9.525   1.244   5.691  0.3984 -0.2059  0.1428
28923SOL    HW188776   9.599   1.216   5.744 -0.3255  1.2868  2.0737
28923SOL    HW288777   9.546   1.333   5.664  1.0229 -1.0977 -2.7605
28924SOL     OW88778   0.848   6.030   6.237  0.0371 -0.3119 -0.1684
28924SOL    HW188779   0.920   6.093   6.230 -0.6234  0.4064 -0.6677
28924SOL    HW288780   0.889   5.952   6.274  0.5856  0.9134  1.9823
28925SOL     OW88781   1.695   1.772   4.546 -0.1841  0.0274  0.2921
28925SOL    HW188782   1.665   1.855   4.510  0.9435 -0.4809 -1.9674
28925SOL    HW288783   1.614   1.727   4.572 -0.9965  0.8164 -0.7750
28926SOL     OW88784   2.808  10.435   0.901  0.6293 -0.2449 -0.0893
28926SOL    HW188785   2.760  10.369   0.951  0.0459  0.4992  0.3601
28926SOL    HW288786   2.799  10.515   0.953  0.2236  0.4899 -1.2503
28927SOL     OW88787   8.772  10.700   0.049  0.7017  0.3256  0.0972
28927SOL    HW188788   8.698  10.759   0.033 -0.4387 -1.1331 -0.1973
28927SOL    HW288789   8.803  10.677  -0.038 -1.8516 -3.0867 -0.1240
28928SOL     OW88790   4.046   0.917   4.358  0.6436 -0.0891 -0.4169
28928SOL    HW188791   4.061   0.958   4.273 -2.7381  1.0766 -0.5779
28928SOL    HW288792   4.006   0.985   4.411  1.4995 -1.1775  1.7658
28929SOL     OW88793   7.744   6.189   7.581  0.6538  0.5401 -0.5371
28929SOL    HW188794   7.685   6.120   7.609  0.8434  0.5081 -0.2163
28929SOL    HW288795   7.755   6.175   7.486  1.6161 -0.5807 -0.2857
28930SOL     OW88796   5.021   2.775  10.676 -0.2380 -0.4827  0.0111
28930SOL    HW188797   5.054   2.704  10.620  0.7273 -1.3477  1.5742
28930SOL    HW288798   5.051   2.855  10.633  2.2209 -1.1782  0.2479
28931SOL     OW88799   3.742   5.542   6.897 -0.4420 -0.1366 -1.0536
28931SOL    HW188800   3.689   5.538   6.976 -1.7605 -0.4716 -1.9193
28931SOL    HW288801   3.698   5.482   6.836  0.0217  0.7872 -2.3400
28932SOL     OW88802   1.553   0.301   1.733 -0.0430  0.2620 -1.2596
28932SOL    HW188803   1.484   0.356   1.698 -0.1452 -0.5093 -2.2996
28932SOL    HW288804   1.511   0.250   1.802 -0.0315  1.1980 -0.5401
28933SOL     OW88805   3.375   8.067   3.468 -0.1148 -0.2530  0.0011
28933SOL    HW188806   3.454   8.049   3.519 -1.3164 -0.5038  1.8409
28933SOL    HW288807   3.363   8.162   3.475 -0.3288 -0.2993  0.2444
28934SOL     OW88808   6.602  10.287   6.315 -0.1956  0.4536  0.5027
28934SOL    HW188809   6.616  10.289   6.220 -0.5500 -1.1161  0.3899
28934SOL    HW288810   6.660  10.356   6.349  1.3454 -0.1784 -0.6957
28935SOL     OW88811   3.729   9.490   7.445  0.0847  0.2352  0.5285
28935SOL    HW188812   3.745   9.498   7.351 -0.7474  2.9095  0.5559
28935SOL    HW288813   3.634   9.499   7.455  0.1579 -0.0042  1.6366
28936SOL     OW88814   9.231   8.501   1.265 -0.1825  0.5061 -0.1978
28936SOL    HW188815   9.176   8.467   1.195 -0.4254 -0.7354  0.5598
28936SOL    HW288816   9.238   8.595   1.247 -0.0312  0.1851 -2.0005
28937SOL     OW88817   0.034   1.624   0.072 -0.2645 -0.0081 -0.0329
28937SOL    HW188818  -0.032   1.690   0.050  0.4244  0.5020 -0.6090
28937SOL    HW288819  -0.016   1.552   0.110 -1.1730  0.2934 -0.6260
28938SOL     OW88820   9.194   5.104   5.624  0.2675  0.0255  0.5062
28938SOL    HW188821   9.181   5.102   5.719 -2.7622 -0.9493  0.1857
28938SOL    HW288822   9.110   5.134   5.589  0.9659 -0.6082 -1.9232
28939SOL     OW88823   1.771   3.550   8.945  0.3223  0.0479  0.4415
28939SOL    HW188824   1.864   3.576   8.943  0.6117 -0.9775 -0.3944
28939SOL    HW288825   1.758   3.513   9.032  1.1642 -1.3570 -0.0009
28940SOL     OW88826   4.830   6.899   0.164 -0.0867  0.8705  0.5004
28940SOL    HW188827   4.874   6.936   0.088 -0.8669 -0.0189 -0.4244
28940SOL    HW288828   4.830   6.969   0.229  1.3030  1.3800 -0.0237
28941SOL     OW88829   5.533   6.385   6.435  0.1135  0.5500  0.1813
28941SOL    HW188830   5.509   6.404   6.344 -0.6278 -1.5783 -0.1097
28941SOL    HW288831   5.598   6.453   6.457 -0.6213  1.8682 -1.4901
28942SOL     OW88832   6.023   2.512   5.121  0.0263  0.3662 -0.3410
28942SOL    HW188833   6.051   2.447   5.186 -0.2862 -0.7267 -1.2682
28942SOL    HW288834   6.104   2.536   5.075  0.1565  0.7069  0.0613
28943SOL     OW88835   3.478   4.018   8.749  0.1359  0.0907 -0.9432
28943SOL    HW188836   3.383   4.009   8.743  0.1993 -1.2299 -0.3051
28943SOL    HW288837   3.501   3.981   8.835  1.2386  0.2609 -1.1445
28944SOL     OW88838   4.475  10.889   3.562  0.2063  0.4692  0.2308
28944SOL    HW188839   4.400  10.851   3.608  0.0859  1.5704  0.9904
28944SOL    HW288840   4.469  10.983   3.581  0.7298  0.8183 -1.2301
28945SOL     OW88841   1.895   1.990   2.141 -0.5204 -0.3732  0.6330
28945SOL    HW188842   1.965   1.925   2.136 -0.1402  0.1110 -1.4680
28945SOL    HW288843   1.814   1.939   2.133 -0.2912 -0.7192  0.4844
28946SOL     OW88844   4.842   6.209   5.097 -0.1146  0.0625  0.1759
28946SOL    HW188845   4.776   6.155   5.054  0.6359  0.1091 -1.0562
28946SOL    HW288846   4.871   6.156   5.172 -0.8551 -0.3627  0.1674
28947SOL     OW88847   8.012   1.741  10.266 -0.1814  0.2435 -0.5222
28947SOL    HW188848   7.949   1.786  10.210 -0.7528  1.5888  1.0949
28947SOL    HW288849   8.084   1.803  10.275 -1.0005  0.9674  1.7810
28948SOL     OW88850   8.502   6.442   3.694  0.6361 -0.1890 -0.3508
28948SOL    HW188851   8.456   6.364   3.663 -1.3348 -0.1265  2.1365
28948SOL    HW288852   8.500   6.435   3.789  0.8314  2.6877 -0.0543
28949SOL     OW88853   2.323   8.756   7.304  0.0788  0.2242 -0.3493
28949SOL    HW188854   2.381   8.686   7.273 -0.2728  0.4737 -1.6642
28949SOL    HW288855   2.290   8.725   7.388  1.4895 -0.2732  0.0549
28950SOL     OW88856   6.371   7.851   2.611  0.3465  0.0391  0.2504
28950SOL    HW188857   6.458   7.814   2.626  0.0217 -1.0152 -0.3559
28950SOL    HW288858   6.312   7.799   2.666 -0.2720 -1.1719 -1.4374
28951SOL     OW88859   0.084   3.126   4.205  0.0236 -0.1866 -0.3362
28951SOL    HW188860   0.142   3.201   4.218 -0.3384  0.0817 -0.2601
28951SOL    HW288861   0.009   3.161   4.157 -1.1885 -0.0035  1.5588
28952SOL     OW88862   5.514   2.006   8.670 -0.3673  0.2513  0.0332
28952SOL    HW188863   5.482   2.080   8.721 -0.3086 -0.8215  1.7306
28952SOL    HW288864   5.519   1.934   8.733  0.4436 -0.9643 -1.3430
28953SOL     OW88865   5.258   6.059  10.019 -0.2124 -0.0971  0.0467
28953SOL    HW188866   5.190   6.120   9.992 -0.6710  0.3712  2.0640
28953SOL    HW288867   5.279   6.010   9.940 -2.0562  0.5374 -0.9013
28954SOL     OW88868   4.519   4.143   4.020 -0.2387 -0.0733  0.1009
28954SOL    HW188869   4.525   4.048   4.012 -0.9553 -0.1928  0.7959
28954SOL    HW288870   4.517   4.175   3.930 -1.3850 -0.8280 -0.1713
28955SOL     OW88871   3.458   0.549   3.945  0.4421  0.0590  0.2708
28955SOL    HW188872   3.415   0.551   4.030  1.6097 -0.3711  0.8902
28955SOL    HW288873   3.515   0.471   3.948  2.2446  1.3058 -0.0141
28956SOL     OW88874   4.542   6.024   0.605 -0.4438 -0.4264 -0.0218
28956SOL    HW188875   4.557   5.933   0.629  0.2668 -0.5348 -0.8199
28956SOL    HW288876   4.510   6.021   0.515 -1.4546  0.0575  0.3107
28957SOL     OW88877   9.166   2.851   1.170 -0.1008  0.6875  0.8098
28957SOL    HW188878   9.202   2.848   1.258 -0.6668 -0.3297  1.0205
28957SOL    HW288879   9.227   2.907   1.121  2.4670 -1.8831  0.8170
28958SOL     OW88880   1.578   5.777   7.001 -0.2751 -0.0557  0.2621
28958SOL    HW188881   1.549   5.751   6.913 -0.0640  0.1040  0.1462
28958SOL    HW288882   1.654   5.722   7.018 -0.8884 -0.7794  0.7406
28959SOL     OW88883  10.642   0.991   2.138  0.0803  0.3592  0.5624
28959SOL    HW188884  10.609   0.901   2.140  0.4899  0.1866 -0.3939
28959SOL    HW288885  10.563   1.045   2.145 -0.0670 -0.0371  2.9219
28960SOL     OW88886   6.952   7.441   4.312  0.4585 -0.2105 -0.4589
28960SOL    HW188887   6.984   7.530   4.294  0.8511 -0.3625 -0.5178
28960SOL    HW288888   6.926   7.444   4.405 -0.8926  0.3658 -0.8292
28961SOL     OW88889  10.661   0.602  10.156 -0.5744  0.3005  0.0446
28961SOL    HW188890  10.703   0.671  10.106 -0.6875  1.1715  1.1122
28961SOL    HW288891  10.598   0.563  10.095 -0.7634  1.3791 -0.4683
28962SOL     OW88892   0.759   1.697   7.015 -0.0723 -0.1773  0.0865
28962SOL    HW188893   0.719   1.769   7.063  3.7224  2.1338  0.1979
28962SOL    HW288894   0.732   1.711   6.924  0.6321  1.4867  0.0953
28963SOL     OW88895   6.835   0.956   4.404  0.5542  0.7658 -0.2974
28963SOL    HW188896   6.862   0.973   4.314 -2.0494  2.0192 -0.9237
28963SOL    HW288897   6.842   0.861   4.414 -0.9528  0.3653 -2.4858
28964SOL     OW88898   3.167   0.024   4.803 -0.4525  0.2260 -0.2910
28964SOL    HW188899   3.200  -0.051   4.754  0.1197 -0.4744  1.1080
28964SOL    HW288900   3.246   0.067   4.838 -0.8749  0.1074  0.8493
28965SOL     OW88901  10.970   3.279   7.755  0.0254  0.4963  0.6227
28965SOL    HW188902  10.918   3.354   7.726 -1.1794 -0.0400  1.3126
28965SOL    HW288903  10.905   3.210   7.771  1.0896 -0.6853  0.0583
28966SOL     OW88904   2.716   3.076   9.166  0.1120  0.1840 -0.4340
28966SOL    HW188905   2.744   3.068   9.075  0.9738  1.0600 -0.2590
28966SOL    HW288906   2.623   3.098   9.160  0.4576  1.5763 -1.1650
28967SOL     OW88907   4.172   5.094   4.279  0.2105 -0.2401  0.0360
28967SOL    HW188908   4.171   5.184   4.311  1.1268  0.0519 -0.6877
28967SOL    HW288909   4.191   5.041   4.356 -0.3165  0.1821  0.4642
28968SOL     OW88910   3.669   1.763   2.663 -0.5796  0.1743 -0.3870
28968SOL    HW188911   3.737   1.732   2.604 -0.3467 -0.0096 -0.0219
28968SOL    HW288912   3.694   1.853   2.683 -1.1156  0.5275 -1.2378
28969SOL     OW88913   4.930   5.045   6.613  0.0891 -0.4845  0.2269
28969SOL    HW188914   4.885   4.972   6.571  0.5319 -0.7663  0.2268
28969SOL    HW288915   4.933   5.021   6.705  0.5338 -0.6329  0.1779
28970SOL     OW88916  10.221  10.847   2.781  0.1806  0.0816 -0.4758
28970SOL    HW188917  10.138  10.884   2.810 -0.2490 -1.1963  0.0227
28970SOL    HW288918  10.284  10.873   2.848  0.0257  0.4483 -0.4725
28971SOL     OW88919   2.441   9.813   0.011 -0.7338 -0.1179 -0.4587
28971SOL    HW188920   2.348   9.797   0.028 -0.5327 -2.8012 -1.5056
28971SOL    HW288921   2.486   9.770   0.084 -0.2617  0.2417 -0.5328
28972SOL     OW88922   1.270   2.840   9.349  0.3197  0.2477 -0.0516
28972SOL    HW188923   1.222   2.763   9.381 -0.0866  0.2953 -0.5293
28972SOL    HW288924   1.249   2.844   9.255  2.5432 -0.6700 -0.6357
28973SOL     OW88925   7.476   3.102   1.278 -0.3972 -0.3188 -0.1242
28973SOL    HW188926   7.437   3.129   1.361 -1.3263 -1.3127 -0.2079
28973SOL    HW288927   7.418   3.033   1.246 -0.7733  0.8718 -2.1955
28974SOL     OW88928   8.028   2.641   6.916 -0.3188 -0.3215 -0.6354
28974SOL    HW188929   7.973   2.606   6.846 -0.6575 -0.1982 -0.4320
28974SOL    HW288930   8.053   2.728   6.887 -2.0245  0.4974  0.2301
28975SOL     OW88931   7.747   8.801   7.806 -0.3694  0.2731 -0.1939
28975SOL    HW188932   7.725   8.757   7.888  0.9219 -2.5210 -1.2321
28975SOL    HW288933   7.827   8.850   7.826 -0.6686  0.5165  0.4518
28976SOL     OW88934   0.133   2.054   7.054  0.0372 -0.0422 -0.0863
28976SOL    HW188935   0.048   2.097   7.052  0.2383  0.3515 -0.9203
28976SOL    HW288936   0.163   2.061   7.144 -1.0787 -0.7300  0.3547
28977SOL     OW88937   2.145   1.994   6.774  0.1672 -0.4035 -0.2634
28977SOL    HW188938   2.083   1.988   6.847  0.7746 -1.3720  0.1918
28977SOL    HW288939   2.097   1.959   6.699  0.5463 -2.4053  0.3646
28978SOL     OW88940   2.265   2.340   1.237  0.0450 -0.0414 -0.1878
28978SOL    HW188941   2.252   2.258   1.284 -1.4653 -0.1400 -0.7352
28978SOL    HW288942   2.360   2.351   1.233  0.2287 -0.6343  1.8031
28979SOL     OW88943   0.441   8.852   6.712 -0.2964  0.3818 -0.2562
28979SOL    HW188944   0.536   8.845   6.700 -0.5257  1.0250 -3.0591
28979SOL    HW288945   0.430   8.926   6.772  0.9465  0.2116  0.2225
28980SOL     OW88946   1.389   6.430  10.917  0.0187  0.0708 -0.3868
28980SOL    HW188947   1.386   6.337  10.940 -1.2626  0.4802  1.2593
28980SOL    HW288948   1.335   6.437  10.838  0.5932 -0.6368 -0.8627
28981SOL     OW88949   7.811   0.504   4.110 -0.4507  0.1653  0.0278
28981SOL    HW188950   7.777   0.483   4.197 -0.6943  0.5464  0.0251
28981SOL    HW288951   7.758   0.451   4.050  0.0969 -0.5353  0.1477
28982SOL     OW88952   5.346   5.121   2.480 -0.2436 -0.1633 -0.2394
28982SOL    HW188953   5.407   5.051   2.457  0.8047  0.5756  0.2683
28982SOL    HW288954   5.308   5.147   2.396  1.5622  0.6749 -0.8276
28983SOL     OW88955   2.140   3.208  10.513 -0.4287  0.2805 -0.5763
28983SOL    HW188956   2.147   3.303  10.519 -0.1431  0.4173 -2.4086
28983SOL    HW288957   2.088   3.193  10.435  0.2068 -1.0727 -0.7692
28984SOL     OW88958   5.737  10.621   2.017 -0.4814  0.2645  0.3083
28984SOL    HW188959   5.709  10.672   2.092 -1.0879 -0.2645  0.4481
28984SOL    HW288960   5.738  10.530   2.048 -1.6470 -0.0737 -0.5663
28985SOL     OW88961   3.414   2.957   9.219  0.2054 -0.1590  0.0406
28985SOL    HW188962   3.390   2.869   9.190 -3.1978 -0.1123  2.1163
28985SOL    HW288963   3.485   2.943   9.282  0.4947 -1.2738 -0.5113
28986SOL     OW88964   8.735   1.092   5.249  0.1380 -0.3841 -0.0364
28986SOL    HW188965   8.689   1.019   5.289 -1.5451  0.6312 -0.0231
28986SOL    HW288966   8.757   1.061   5.161  0.6931 -1.3702  0.4330
28987SOL     OW88967   7.162   1.557   9.156 -0.1123  0.2051 -0.5356
28987SOL    HW188968   7.216   1.495   9.205 -0.4653  0.5254  0.2620
28987SOL    HW288969   7.184   1.540   9.064  0.6361 -0.3186 -0.2671
28988SOL     OW88970   0.123   1.623   7.153  0.1887 -0.1589 -0.1841
28988SOL    HW188971   0.042   1.622   7.203  0.4792 -0.7381  0.2824
28988SOL    HW288972   0.105   1.681   7.079 -0.7945 -0.6592 -0.3418
28989SOL     OW88973   5.174   1.269   1.815  0.5583 -0.1158 -0.6640
28989SOL    HW188974   5.193   1.241   1.905 -1.0512  1.7498  0.3503
28989SOL    HW288975   5.117   1.200   1.780  0.3010 -0.3199  0.1409
28990SOL     OW88976   7.893   0.728   6.030  0.2954 -0.7183  0.1112
28990SOL    HW188977   7.950   0.789   6.076  0.3434 -0.2864 -0.5158
28990SOL    HW288978   7.876   0.659   6.094 -0.2625  0.2521  1.0385
28991SOL     OW88979   7.556   5.177   4.678  0.0232 -0.3359  0.1805
28991SOL    HW188980   7.462   5.194   4.681 -0.0331 -0.5610 -0.1621
28991SOL    HW288981   7.596   5.249   4.727 -0.3554 -0.4998  0.7325
28992SOL     OW88982   7.040   7.419   7.348 -0.3651  0.5531 -0.0220
28992SOL    HW188983   7.036   7.388   7.257 -0.1754  0.7239 -0.0903
28992SOL    HW288984   6.959   7.467   7.361  0.2752  1.8360 -0.5881
28993SOL     OW88985   0.495   9.624   3.458 -0.6453  0.3364  0.2252
28993SOL    HW188986   0.473   9.572   3.535  0.7425 -1.5604 -0.5757
28993SOL    HW288987   0.523   9.708   3.492 -1.2145 -0.0438  1.6973
28994SOL     OW88988   2.896   5.285   7.143  0.8008 -0.1957 -0.6566
28994SOL    HW188989   2.835   5.342   7.097 -0.1114 -0.1255  0.5952
28994SOL    HW288990   2.904   5.323   7.230 -1.5430 -3.0648  0.9995
28995SOL     OW88991   1.430  10.822   7.041  0.3338  0.1217  0.2776
28995SOL    HW188992   1.389  10.798   7.124  1.7494 -2.4461  0.3219
28995SOL    HW288993   1.523  10.808   7.055  0.4974 -1.8451 -2.1092
28996SOL     OW88994   7.173   0.723   7.429 -0.3339  0.3622  0.2302
28996SOL    HW188995   7.261   0.719   7.392  0.2905 -3.9262  1.6728
28996SOL    HW288996   7.180   0.682   7.514 -3.9532 -1.4774 -0.1573
28997SOL     OW88997   4.790   9.242   0.163  0.1066  0.0560  0.2315
28997SOL    HW188998   4.818   9.315   0.218  1.5803 -1.0782  1.0479
28997SOL    HW288999   4.697   9.230   0.186  0.7456 -0.6419  2.8726
28998SOL     OW89000   9.923   4.730   2.075 -0.0775 -0.3691 -0.0743
28998SOL    HW189001   9.955   4.762   1.990 -0.7626 -0.9331 -0.5544
28998SOL    HW289002   9.828   4.723   2.064 -0.6422  2.5686  1.7463
28999SOL     OW89003   6.743   7.694   0.320 -0.2026  0.0208 -0.9470
28999SOL    HW189004   6.726   7.607   0.356 -0.2301  0.5989  0.5267
28999SOL    HW289005   6.826   7.720   0.361 -0.6721  1.0555 -0.6314
29000SOL     OW89006   8.403   1.273   4.981  0.1608  0.2972 -0.1442
29000SOL    HW189007   8.427   1.181   4.973  1.0066  0.4484  0.5774
29000SOL    HW289008   8.434   1.314   4.899 -0.5670 -0.1228 -0.6374
29001SOL     OW89009  10.173   2.632   6.199 -0.3708 -0.5953 -0.3819
29001SOL    HW189010  10.198   2.698   6.264 -0.7303  0.6880 -1.5064
29001SOL    HW289011  10.081   2.616   6.216 -0.5512 -0.0090 -0.7629
29002SOL     OW89012   1.080  10.012   9.885 -0.5649 -0.4232  0.6984
29002SOL    HW189013   1.073   9.935   9.942  1.5906  0.2721  2.0238
29002SOL    HW289014   1.108  10.082   9.944 -0.5677  0.9176 -0.8342
29003SOL     OW89015   4.412  10.633   8.789  0.0630  0.1500  0.1390
29003SOL    HW189016   4.416  10.537   8.796  1.1560  0.2952  2.2069
29003SOL    HW289017   4.319  10.652   8.775 -0.5729 -1.1250  2.2061
29004SOL     OW89018   8.780   2.294   9.768  0.2263 -0.4768 -0.4147
29004SOL    HW189019   8.828   2.369   9.803 -0.5409 -0.4597  0.6406
29004SOL    HW289020   8.786   2.305   9.673  0.9803  0.3622 -0.2923
29005SOL     OW89021   3.730   4.183  10.011 -0.0336  0.7917 -0.0398
29005SOL    HW189022   3.714   4.166  10.104  1.8440  0.8102  0.3189
29005SOL    HW289023   3.691   4.269   9.996  0.6471  1.3271  1.0488
29006SOL     OW89024   2.788   6.468   1.616  0.2403  0.1410  0.1124
29006SOL    HW189025   2.828   6.431   1.695  0.1327  1.9111  1.0499
29006SOL    HW289026   2.726   6.402   1.587 -0.4001 -0.1929  2.0691
29007SOL     OW89027   6.822   2.624   8.913 -0.2601  0.0405  0.2640
29007SOL    HW189028   6.811   2.719   8.913 -1.1434 -0.0104 -1.5582
29007SOL    HW289029   6.738   2.591   8.945 -0.0273 -0.1288  0.6998
29008SOL     OW89030   8.851   8.636   0.498  0.0544  0.0218  0.2102
29008SOL    HW189031   8.787   8.701   0.528  0.1108  0.6145 -0.9071
29008SOL    HW289032   8.913   8.628   0.571 -2.4686 -2.2818  2.2937
29009SOL     OW89033   4.688   4.947   2.788  0.0651 -0.2833  0.0654
29009SOL    HW189034   4.776   4.918   2.765  0.3319 -1.5215  2.4050
29009SOL    HW289035   4.670   4.907   2.873 -1.3347  2.8696  1.4259
29010SOL     OW89036   9.895   6.867   7.969  0.3881 -0.3863 -0.2515
29010SOL    HW189037   9.889   6.962   7.973 -3.0745 -0.3156 -2.8190
29010SOL    HW289038   9.811   6.836   8.002  0.6909 -2.4375 -1.2252
29011SOL     OW89039   9.249   7.473  10.933 -0.1801 -0.2143  0.7205
29011SOL    HW189040   9.238   7.563  10.965  0.3536 -0.2249  0.9411
29011SOL    HW289041   9.184   7.422  10.983 -1.3626  0.2406 -0.3045
29012SOL     OW89042  10.999   4.452  10.185 -0.7287  0.0944  0.3712
29012SOL    HW189043  11.022   4.540  10.216  1.1688  0.4439 -1.7956
29012SOL    HW289044  10.978   4.464  10.093  3.3764 -2.1295 -1.0952
29013SOL     OW89045   2.363   2.037   4.761 -0.1042 -0.3682  0.3559
29013SOL    HW189046   2.435   1.975   4.776  0.8580  0.1768 -1.6016
29013SOL    HW289047   2.309   1.995   4.693  1.0501  1.2034 -1.6527
29014SOL     OW89048   6.349  10.842   3.678 -0.0084 -0.3701  0.3926
29014SOL    HW189049   6.404  10.919   3.663  0.1306 -0.7348 -1.1156
29014SOL    HW289050   6.290  10.840   3.603 -2.7745  0.5412  2.3740
29015SOL     OW89051   2.885   5.384  10.936 -0.5828  0.1343  0.5136
29015SOL    HW189052   2.912   5.475  10.934  0.4358 -0.0584  2.5556
29015SOL    HW289053   2.799   5.383  10.896 -0.1886  1.8158 -0.4487
29016SOL     OW89054   0.507   0.286   1.396  0.1061  0.2933  0.3271
29016SOL    HW189055   0.476   0.373   1.369 -1.9215 -0.7437 -0.8772
29016SOL    HW289056   0.472   0.226   1.330 -1.4045 -1.8513  2.8669
29017SOL     OW89057   9.816   2.823  10.692  0.0921  0.8973 -0.2686
29017SOL    HW189058   9.792   2.887  10.760 -1.5204 -0.1117  0.1683
29017SOL    HW289059   9.733   2.787  10.662  0.8655  0.3110 -1.8111
29018SOL     OW89060   3.068   9.663   3.102  0.3436 -0.4246  0.2027
29018SOL    HW189061   2.997   9.616   3.060 -1.6848  1.9094  0.7836
29018SOL    HW289062   3.123   9.694   3.030 -0.7131 -0.0760 -0.4886
29019SOL     OW89063   7.139   4.007  10.317  0.1737 -0.5281 -0.2356
29019SOL    HW189064   7.108   3.928  10.361 -1.1771 -1.2422 -2.3337
29019SOL    HW289065   7.143   3.983  10.225 -0.8480  2.0001 -1.0199
29020SOL     OW89066   4.252   5.965   1.355  0.8257 -0.2918  0.5804
29020SOL    HW189067   4.300   6.043   1.382  0.8439 -0.1487  0.1363
29020SOL    HW289068   4.304   5.892   1.390  1.2704 -0.1318  0.2628
29021SOL     OW89069   9.891   6.873   3.907 -0.1032 -0.3545 -0.4551
29021SOL    HW189070   9.939   6.844   3.985 -1.7529 -1.8335  0.1037
29021SOL    HW289071   9.954   6.922   3.856  1.2648 -0.0353  1.4374
29022SOL     OW89072   5.321   2.037   2.566  0.0648 -0.8773  0.1090
29022SOL    HW189073   5.403   2.082   2.586 -0.3546 -0.9352  2.1142
29022SOL    HW289074   5.348   1.959   2.517  1.1585 -0.6658  0.3491
29023SOL     OW89075   3.419   8.549   4.188  0.4344  0.1641 -0.1241
29023SOL    HW189076   3.455   8.637   4.197  0.8455  0.1245 -1.2030
29023SOL    HW289077   3.372   8.551   4.104 -0.9055 -0.1953  0.5919
29024SOL     OW89078   4.194   4.302   1.492 -0.1163 -0.5713  0.2287
29024SOL    HW189079   4.205   4.339   1.404 -2.1388 -0.9309 -0.2116
29024SOL    HW289080   4.278   4.260   1.511  0.7363  0.4784 -1.0554
29025SOL     OW89081   9.116   5.234   8.171 -0.6808  0.6857  0.1323
29025SOL    HW189082   9.106   5.143   8.199 -2.3741  0.4391 -1.1367
29025SOL    HW289083   9.085   5.235   8.080  0.4266  2.3113 -0.2802
29026SOL     OW89084   4.352   3.050   7.079 -0.2026 -0.6911  0.7184
29026SOL    HW189085   4.393   3.079   7.160 -0.6016 -0.1421  0.7297
29026SOL    HW289086   4.278   2.996   7.107 -0.6544 -0.0784  0.7435
29027SOL     OW89087   1.490   5.070   5.438 -0.0426 -0.5715  0.0889
29027SOL    HW189088   1.403   5.065   5.399 -0.2890  2.8797 -0.1418
29027SOL    HW289089   1.490   5.003   5.506 -2.3366 -1.6062 -0.8269
29028SOL     OW89090   4.349   7.148   4.249 -0.3383 -0.2882  0.3674
29028SOL    HW189091   4.420   7.084   4.256 -0.4833 -0.5681 -0.5533
29028SOL    HW289092   4.277   7.110   4.299 -0.3978 -0.8151 -0.1089
29029SOL     OW89093  10.035   8.124   6.611  0.3466 -0.3246  0.6008
29029SOL    HW189094  10.099   8.055   6.628  0.4220  0.0826  2.0936
29029SOL    HW289095  10.019   8.164   6.697 -1.3220  0.0899  0.1400
29030SOL     OW89096   0.163   2.245   8.628 -0.1807 -0.0355 -0.1977
29030SOL    HW189097   0.147   2.337   8.647  0.0206  0.1072 -0.6877
29030SOL    HW289098   0.230   2.218   8.691 -1.7897 -0.4547  1.4129
29031SOL     OW89099   1.903   5.463   7.945  0.0809  0.1143  0.3648
29031SOL    HW189100   1.943   5.534   7.996  2.9650 -0.7652 -0.4807
29031SOL    HW289101   1.853   5.508   7.877  0.5158  1.3400  0.8230
29032SOL     OW89102   0.784   5.804   1.729  0.2298 -0.0816  0.2112
29032SOL    HW189103   0.809   5.732   1.672  0.8903 -1.1890  1.8144
29032SOL    HW289104   0.811   5.883   1.682  2.3108 -1.0231 -0.2930
29033SOL     OW89105   0.082  10.819   2.847 -0.4282 -0.0931  0.1221
29033SOL    HW189106   0.023  10.806   2.773 -0.1826 -2.4621  0.2714
29033SOL    HW289107   0.031  10.795   2.924  0.9924 -3.5964  0.1480
29034SOL     OW89108   2.089   4.689   6.668  0.3928 -0.3839  0.0927
29034SOL    HW189109   2.003   4.661   6.698  0.4267 -0.4141  0.1617
29034SOL    HW289110   2.148   4.671   6.742  0.4119 -0.1178  0.1434
29035SOL     OW89111   3.303   8.234   5.770  0.2099  0.3039  0.3854
29035SOL    HW189112   3.228   8.292   5.767  0.2076  0.3349 -3.3911
29035SOL    HW289113   3.268   8.148   5.748  0.9781 -0.1098  0.7319
29036SOL     OW89114   9.678   9.413   4.239  0.1798 -0.3600  0.1965
29036SOL    HW189115   9.653   9.394   4.330  1.3609 -1.9123  0.2457
29036SOL    HW289116   9.664   9.330   4.193  3.6004 -0.8996 -0.0879
29037SOL     OW89117   1.238   0.719  10.777  0.2382  0.0096  0.8596
29037SOL    HW189118   1.158   0.678  10.744  0.6608 -1.2862  1.3652
29037SOL    HW289119   1.250   0.796  10.722 -1.3124  0.1936  0.7260
29038SOL     OW89120   2.213   7.229   5.749 -0.1974  0.3134  0.4144
29038SOL    HW189121   2.158   7.306   5.732 -1.2830 -0.7944 -1.3875
29038SOL    HW289122   2.150   7.161   5.773  0.6163 -0.4259  0.4568
29039SOL     OW89123   9.106  10.423   5.639 -0.6117  0.8085 -0.2217
29039SOL    HW189124   9.063  10.410   5.555  0.9570  1.5376 -1.2007
29039SOL    HW289125   9.122  10.335   5.672 -1.3684  0.5185 -0.6152
29040SOL     OW89126   2.415   9.329  10.163 -0.1493 -0.3561 -0.0319
29040SOL    HW189127   2.416   9.261  10.231  1.1022 -1.2367 -0.8774
29040SOL    HW289128   2.329   9.371  10.171 -0.6503 -1.5360  1.0125
29041SOL     OW89129  10.220   7.824   8.015  0.3957  0.5836  0.2913
29041SOL    HW189130  10.272   7.892   8.058  2.3019  0.5561 -1.7813
29041SOL    HW289131  10.243   7.831   7.922 -1.4241 -1.1418 -0.3796
29042SOL     OW89132   3.364   8.618   3.045 -0.5071 -0.2171 -0.4003
29042SOL    HW189133   3.327   8.626   3.133 -1.4687 -0.6510 -0.7528
29042SOL    HW289134   3.362   8.524   3.027 -2.6906  0.0371 -1.8465
29043SOL     OW89135   1.653   1.181   6.224  0.1951  0.4419  0.1806
29043SOL    HW189136   1.692   1.098   6.253  1.0055  0.5072 -0.6918
29043SOL    HW289137   1.635   1.228   6.306 -1.1566 -0.9622  0.7404
29044SOL     OW89138   3.587   0.343   5.183  0.0793 -0.1619  0.1379
29044SOL    HW189139   3.600   0.357   5.277 -0.4246 -1.7389  0.4891
29044SOL    HW289140   3.623   0.255   5.167 -1.8756 -0.8817 -0.6456
29045SOL     OW89141   2.871   4.811   6.783 -0.3220  0.5067  0.2674
29045SOL    HW189142   2.862   4.717   6.774 -0.2488  0.3650  1.4584
29045SOL    HW289143   2.793   4.839   6.831 -0.2042  1.0034  0.1841
29046SOL     OW89144   3.756   0.511   7.904  0.0559  0.0308  0.2555
29046SOL    HW189145   3.686   0.564   7.865 -1.3540 -1.3952  0.7244
29046SOL    HW289146   3.782   0.450   7.834 -0.9544 -1.0884  0.8233
29047SOL     OW89147   9.819   9.991   2.684  0.6166  0.3164 -0.2579
29047SOL    HW189148   9.793   9.921   2.623 -1.5512  0.6685  0.1841
29047SOL    HW289149   9.897  10.030   2.643 -0.1364 -0.1412 -2.2686
29048SOL     OW89150   5.945   7.158   9.946 -0.0857 -0.1866  0.2203
29048SOL    HW189151   5.909   7.078   9.907 -0.0810  0.3427 -0.9220
29048SOL    HW289152   6.034   7.134   9.973  0.5636 -0.1465 -1.7012
29049SOL     OW89153   1.750   0.304   5.572  0.6322  0.0462 -0.2996
29049SOL    HW189154   1.724   0.363   5.642 -3.8019 -0.4776 -1.2442
29049SOL    HW289155   1.733   0.216   5.607  3.4289 -0.6077 -0.3051
29050SOL     OW89156   0.187  10.505   0.401  0.2670  0.0344  0.1561
29050SOL    HW189157   0.122  10.561   0.445  0.4890  0.5078 -0.1117
29050SOL    HW289158   0.140  10.424   0.383 -1.2396  1.3976 -2.7470
29051SOL     OW89159   9.468  10.076   1.883  0.7199  0.1716 -0.3684
29051SOL    HW189160   9.488  10.065   1.790  0.7089  2.2824 -0.6672
29051SOL    HW289161   9.422   9.995   1.907  0.6118 -0.3652 -2.2242
29052SOL     OW89162  10.959   8.643   6.295  0.1820 -0.0248 -0.1632
29052SOL    HW189163  11.005   8.684   6.367  0.1687 -0.2626 -0.0199
29052SOL    HW289164  10.997   8.556   6.288  0.3591  0.0819 -0.6051
29053SOL     OW89165   0.549   0.606   4.742 -0.1140  0.2701  0.7093
29053SOL    HW189166   0.471   0.552   4.737  0.4475 -1.0388  3.7846
29053SOL    HW289167   0.518   0.693   4.767 -0.7100  0.3165 -0.1695
29054SOL     OW89168   1.775   0.787   8.725 -0.2082  0.6226 -0.4563
29054SOL    HW189169   1.731   0.705   8.703  1.0684 -0.5173  1.0222
29054SOL    HW289170   1.703   0.848   8.743 -1.3254 -1.2999  2.3281
29055SOL     OW89171   5.754   3.392   1.504 -0.5041  0.0390 -0.4455
29055SOL    HW189172   5.681   3.329   1.508 -1.2026  0.8561  0.0867
29055SOL    HW289173   5.741   3.439   1.422 -0.4632  0.0454 -0.4482
29056SOL     OW89174   7.257   3.200   6.851  0.4240 -0.5292 -0.1553
29056SOL    HW189175   7.183   3.204   6.790  0.0670 -2.6058  0.0837
29056SOL    HW289176   7.216   3.184   6.936  1.1520 -2.3429 -0.1151
29057SOL     OW89177   9.588   7.137   7.221  0.0840  0.3588 -0.6050
29057SOL    HW189178   9.530   7.199   7.267 -0.8269  0.4329 -1.8128
29057SOL    HW289179   9.633   7.091   7.291 -1.6221  0.1257  0.4072
29058SOL     OW89180   7.965   9.313   7.244  0.3308  0.0060 -0.0070
29058SOL    HW189181   7.988   9.236   7.296  0.3325  1.4589  2.3283
29058SOL    HW289182   8.046   9.337   7.199  0.7182 -0.5211  0.4053
29059SOL     OW89183   3.637   5.289   3.571  0.0982  0.8094  0.2623
29059SOL    HW189184   3.625   5.250   3.658 -1.1247  1.3114  0.3417
29059SOL    HW289185   3.647   5.383   3.588  2.6511  0.6278  0.0470
29060SOL     OW89186   6.768   1.072   8.112  0.6929  0.3096 -0.2769
29060SOL    HW189187   6.863   1.082   8.117  1.0835 -2.9433  1.2516
29060SOL    HW289188   6.738   1.086   8.202 -0.5221  2.3798 -0.9230
29061SOL     OW89189   3.563   0.442   7.167 -0.1250  0.0767  0.6026
29061SOL    HW189190   3.516   0.428   7.250  0.4211 -1.3399  0.6916
29061SOL    HW289191   3.654   0.419   7.187 -0.2070 -1.5094 -0.6807
29062SOL     OW89192   8.908   9.336   3.811  0.7042 -0.0381  0.3020
29062SOL    HW189193   8.925   9.420   3.855 -0.1717  0.1707  0.2449
29062SOL    HW289194   8.821   9.345   3.774  1.6414  0.0551 -2.0926
29063SOL     OW89195   8.795  10.660   8.732 -0.2965  0.1967 -0.0137
29063SOL    HW189196   8.865  10.603   8.701  1.2437  1.5883  0.7822
29063SOL    HW289197   8.795  10.734   8.671 -0.9689  0.3122  0.1103
29064SOL     OW89198   6.890   0.158   9.369 -0.3518  0.2438  0.4594
29064SOL    HW189199   6.905   0.215   9.444 -0.5031  0.1504  0.5623
29064SOL    HW289200   6.956   0.089   9.377 -1.3613 -0.6526  1.3960
29065SOL     OW89201   6.050   8.335   2.937  0.3585 -0.1837 -0.6534
29065SOL    HW189202   6.039   8.350   3.031  1.6457 -0.2585 -0.4693
29065SOL    HW289203   6.124   8.391   2.912  0.0461 -0.1832 -1.6239
29066SOL     OW89204  10.904   2.504   8.607 -0.7318 -0.4011  0.2608
29066SOL    HW189205  10.964   2.516   8.533  1.2341  0.5683  1.9289
29066SOL    HW289206  10.882   2.593   8.634  0.6611 -0.6601  2.4287
29067SOL     OW89207   1.730   8.150   1.427 -0.3791  0.4454  0.2426
29067SOL    HW189208   1.759   8.087   1.493 -0.5269  0.0243 -0.0947
29067SOL    HW289209   1.810   8.172   1.378 -0.3491  0.4399  0.2888
29068SOL     OW89210   9.139   5.612   0.342  0.4338  0.0579 -0.1029
29068SOL    HW189211   9.067   5.663   0.379  0.0313 -0.1510 -0.5799
29068SOL    HW289212   9.150   5.539   0.403  1.0297  0.7183  0.5961
29069SOL     OW89213   3.024   5.364   1.790 -0.4739 -0.1156  0.4698
29069SOL    HW189214   2.975   5.303   1.735 -0.8276 -0.0120  0.6722
29069SOL    HW289215   3.113   5.363   1.753 -0.7821  0.1917 -0.2911
29070SOL     OW89216  11.008   3.946   9.507  0.4022  0.1295  0.3147
29070SOL    HW189217  10.924   3.992   9.502  0.2442 -0.2320 -0.5180
29070SOL    HW289218  11.063   3.992   9.443  1.6098  1.8644  2.4436
29071SOL     OW89219  10.811   1.752  10.612 -0.1979 -0.0791  0.6650
29071SOL    HW189220  10.889   1.741  10.558 -2.2489 -0.8495 -2.4056
29071SOL    HW289221  10.780   1.663  10.628 -1.2119  0.2369  0.5556
29072SOL     OW89222   8.442   6.476   2.204 -0.1686 -0.1573 -0.2825
29072SOL    HW189223   8.509   6.409   2.190  0.8877  0.5960  0.9334
29072SOL    HW289224   8.491   6.558   2.210 -0.9853  0.2269  2.2179
29073SOL     OW89225   3.491   5.307  10.219  0.2704  0.0364 -0.1117
29073SOL    HW189226   3.571   5.254  10.211  0.9316  1.0240 -0.2709
29073SOL    HW289227   3.420   5.245  10.205  0.9461 -1.1666  1.4738
29074SOL     OW89228   1.899   2.049   2.576  0.2979 -0.2362  0.3728
29074SOL    HW189229   1.988   2.020   2.556 -0.1627  0.2260 -2.8258
29074SOL    HW289230   1.843   1.983   2.535 -0.7598  2.0705 -2.1879
29075SOL     OW89231   5.460  10.573   0.231  0.2241 -0.1911  0.4729
29075SOL    HW189232   5.555  10.580   0.226  0.2435  0.6863  1.8197
29075SOL    HW289233   5.428  10.662   0.219 -0.4872 -0.5455 -0.5036
29076SOL     OW89234   6.225   6.325   5.054  0.5261  0.0415  0.0578
29076SOL    HW189235   6.246   6.250   4.998 -1.7606 -1.1007  0.6086
29076SOL    HW289236   6.152   6.368   5.010 -0.1453  0.1619  1.2497
29077SOL     OW89237   1.715   8.971   6.182 -0.0846 -0.0478 -0.0457
29077SOL    HW189238   1.624   8.972   6.153 -0.1279  1.4762  0.0766
29077SOL    HW289239   1.766   8.971   6.101 -0.1891 -0.3585 -0.1128
29078SOL     OW89240   7.444   0.751   2.510  0.0340  0.3850  0.2800
29078SOL    HW189241   7.473   0.772   2.421 -0.2365 -1.3770 -0.2635
29078SOL    HW289242   7.517   0.777   2.566  1.7557 -1.6866 -0.8224
29079SOL     OW89243   3.828   2.308  10.550  0.2513 -0.3719 -0.3465
29079SOL    HW189244   3.741   2.343  10.570  0.7100  2.1737 -2.3175
29079SOL    HW289245   3.886   2.384  10.553  2.1882 -1.7635 -0.4746
29080SOL     OW89246   7.063   5.308   6.091  0.2929  0.0716 -0.1689
29080SOL    HW189247   7.128   5.340   6.029 -1.4733  2.9646 -0.7111
29080SOL    HW289248   6.988   5.282   6.037 -0.7738  1.3867  0.6019
29081SOL     OW89249   2.325   8.448   7.036  0.2237  0.0345 -0.0684
29081SOL    HW189250   2.324   8.354   7.020  0.6682 -0.0215  0.2066
29081SOL    HW289251   2.397   8.461   7.098  0.3919  0.5950 -0.3670
29082SOL     OW89252   3.283   4.542   0.495  0.5584  0.4753  0.3944
29082SOL    HW189253   3.345   4.495   0.551  0.1875 -0.0641  0.3528
29082SOL    HW289254   3.287   4.495   0.411 -0.0865  0.2898  0.4661
29083SOL     OW89255   4.605   4.458   7.113 -0.1458 -0.2184 -0.1335
29083SOL    HW189256   4.571   4.533   7.063 -0.0015  0.3082  0.5419
29083SOL    HW289257   4.637   4.398   7.046  4.5448  2.5138 -0.8305
29084SOL     OW89258   8.454   6.766   1.268 -0.3231 -0.3255  0.0144
29084SOL    HW189259   8.539   6.747   1.228 -0.8510 -0.6711 -0.9762
29084SOL    HW289260   8.390   6.745   1.200 -1.1383  1.3201  0.2228
29085SOL     OW89261   6.605   0.966   1.546 -0.2527 -0.1619  0.5786
29085SOL    HW189262   6.600   1.061   1.541 -0.8575 -0.2443 -0.8858
29085SOL    HW289263   6.521   0.940   1.585  0.2627 -0.0789  1.8053
29086SOL     OW89264   6.008   9.224   8.756  0.5210 -0.0171 -0.0579
29086SOL    HW189265   6.049   9.299   8.713 -0.4273 -0.1811 -1.3145
29086SOL    HW289266   5.919   9.253   8.776 -0.1361 -1.0475 -1.3387
29087SOL     OW89267   1.161   9.072   5.688  0.2908 -0.3626  0.7611
29087SOL    HW189268   1.088   9.110   5.638 -1.8544 -1.9416  2.4559
29087SOL    HW289269   1.211   9.147   5.718  0.3938  0.7127 -1.8624
29088SOL     OW89270  10.775   7.796   4.124 -0.6193  0.6295  0.5948
29088SOL    HW189271  10.680   7.805   4.135 -0.7366 -0.4193  0.5558
29088SOL    HW289272  10.785   7.713   4.077  0.1519  2.1552 -2.1305
29089SOL     OW89273   1.887   3.490   8.644  0.2119 -0.0441 -0.0732
29089SOL    HW189274   1.821   3.556   8.625 -0.6111 -0.3368  1.5957
29089SOL    HW289275   1.861   3.453   8.729  2.6251 -0.0231  0.7677
29090SOL     OW89276   5.571   4.637   7.461  0.1101  0.0592 -0.2054
29090SOL    HW189277   5.617   4.708   7.415  2.7736 -0.5631  1.2938
29090SOL    HW289278   5.604   4.557   7.422 -0.3842 -0.4100  0.3200
29091SOL     OW89279   3.317   9.735   9.715 -0.0103  0.3170  0.0525
29091SOL    HW189280   3.279   9.778   9.638  1.0378 -0.3469 -0.8586
29091SOL    HW289281   3.356   9.807   9.765 -0.7820  0.7648  0.0242
29092SOL     OW89282   5.096   5.565   7.354 -0.6117 -0.0015  0.1673
29092SOL    HW189283   5.177   5.567   7.302 -0.3110  1.7147  0.6390
29092SOL    HW289284   5.032   5.609   7.298 -1.1066 -0.8820  0.0202
29093SOL     OW89285   3.242   4.564   3.183 -0.2546 -0.0616  0.0555
29093SOL    HW189286   3.251   4.469   3.182 -0.6297 -0.1034  0.3516
29093SOL    HW289287   3.299   4.592   3.255 -1.7032 -0.2527  1.3471
29094SOL     OW89288  10.638   9.337   4.908  0.3393  0.6139 -1.1204
29094SOL    HW189289  10.688   9.353   4.988  1.0074  0.3008 -1.4580
29094SOL    HW289290  10.647   9.242   4.894  0.8119  0.7684 -1.9278
29095SOL     OW89291   4.435   3.696   7.289  0.3032 -0.1578  0.7010
29095SOL    HW189292   4.527   3.668   7.290 -0.3377 -2.4629  0.5465
29095SOL    HW289293   4.387   3.621   7.324 -1.6711  0.3400 -0.7696
29096SOL     OW89294   7.501   6.109   8.505 -0.1523 -0.4794 -0.1620
29096SOL    HW189295   7.480   6.167   8.431 -0.4009 -0.7825 -0.3310
29096SOL    HW289296   7.424   6.115   8.562 -0.0108 -0.3387  0.0138
29097SOL     OW89297   6.068   0.950   0.316 -1.3378  0.3148  0.0105
29097SOL    HW189298   6.152   0.993   0.331 -1.4966  0.7290 -0.2817
29097SOL    HW289299   6.037   0.986   0.233 -2.7038  1.6285  1.0368
29098SOL     OW89300   6.566   1.184  10.561  0.3193 -0.4505  0.1161
29098SOL    HW189301   6.571   1.217  10.471 -1.2535 -1.8029 -0.5275
29098SOL    HW289302   6.565   1.262  10.616  2.1801  0.3980 -0.9476
29099SOL     OW89303   2.652   1.965   2.624 -0.1927  0.0872  0.2072
29099SOL    HW189304   2.649   2.037   2.686 -2.2826  0.1011  0.1641
29099SOL    HW289305   2.734   1.920   2.643  0.2283  1.3430  1.5238
29100SOL     OW89306   1.376   2.078   0.272 -0.1746  0.4005 -0.3860
29100SOL    HW189307   1.380   1.983   0.281 -0.6315  0.2167 -1.8568
29100SOL    HW289308   1.435   2.098   0.200  1.3523  1.4640  1.0968
29101SOL     OW89309  10.509   1.281   1.039 -0.9698 -0.6027 -0.2533
29101SOL    HW189310  10.491   1.189   1.059  1.1918 -0.9843  0.1579
29101SOL    HW289311  10.472   1.329   1.113  0.0105 -1.3608  0.7581
29102SOL     OW89312   1.249   0.737   3.082 -0.2448  0.4421 -0.3494
29102SOL    HW189313   1.226   0.708   2.994  0.4506  0.8126 -0.6665
29102SOL    HW289314   1.184   0.803   3.104  0.8913  2.0400 -1.5378
29103SOL     OW89315   0.739   2.363   8.470  0.4541 -0.7801  0.3670
29103SOL    HW189316   0.828   2.387   8.442 -0.3664 -0.3313 -2.0933
29103SOL    HW289317   0.683   2.428   8.429 -1.0414 -0.9349  2.0654
29104SOL     OW89318   5.547   5.272   2.208 -0.0053  0.5206  0.5117
29104SOL    HW189319   5.581   5.196   2.256 -0.7465  0.3609  0.7962
29104SOL    HW289320   5.570   5.255   2.117 -1.6267 -0.9108  0.3031
29105SOL     OW89321   6.639   4.353   7.267 -0.0257  0.3158  0.1658
29105SOL    HW189322   6.615   4.399   7.347 -1.3719 -0.4402  0.2344
29105SOL    HW289323   6.653   4.262   7.294  0.2744  0.2041 -0.3341
29106SOL     OW89324   4.490   4.378   9.144  0.1713 -0.3066 -1.1329
29106SOL    HW189325   4.492   4.313   9.215  1.1615  1.0863  0.1809
29106SOL    HW289326   4.456   4.330   9.069 -0.4794 -1.9704  0.1535
29107SOL     OW89327  10.354   4.178   2.148 -0.1651  0.2775 -0.1759
29107SOL    HW189328  10.429   4.237   2.142  0.6860 -0.7429  0.0554
29107SOL    HW289329  10.342   4.162   2.241  0.1668 -0.5784 -0.2696
29108SOL     OW89330   4.922   5.745  10.134  0.2753 -0.6908  0.2402
29108SOL    HW189331   4.981   5.670  10.127 -0.1002 -0.8640 -1.6355
29108SOL    HW289332   4.854   5.716  10.196  1.7624 -0.7027  1.9462
29109SOL     OW89333   4.242   1.498   4.447 -0.0580 -0.4176  0.3942
29109SOL    HW189334   4.334   1.514   4.425 -0.3631  0.7783 -0.0794
29109SOL    HW289335   4.239   1.502   4.543  0.2309  0.4521  0.3723
29110SOL     OW89336   4.937   7.868   8.551  0.0701 -0.1200  0.5030
29110SOL    HW189337   4.948   7.889   8.644  0.2093 -1.2924  0.7674
29110SOL    HW289338   4.885   7.787   8.551 -0.1314  0.0019 -0.4486
29111SOL     OW89339   9.224   6.277   4.499 -0.1821 -0.2573 -0.0723
29111SOL    HW189340   9.254   6.334   4.428 -1.4805  0.8247  0.2002
29111SOL    HW289341   9.240   6.327   4.578 -2.1951  0.1727  0.1109
29112SOL     OW89342   2.774   1.877   2.213  0.4190 -0.5847  0.0322
29112SOL    HW189343   2.768   1.783   2.225 -2.5999 -0.6868 -1.1385
29112SOL    HW289344   2.781   1.888   2.118  0.0415  0.3528  0.1022
29113SOL     OW89345   5.688   0.997  10.004 -0.0505 -0.2676 -0.0425
29113SOL    HW189346   5.626   1.025   9.937  0.0611  0.8357  0.2890
29113SOL    HW289347   5.633   0.974  10.080 -0.0591  2.8906  1.0562
29114SOL     OW89348   2.579   1.291   6.797  0.2003  0.1059 -0.0772
29114SOL    HW189349   2.565   1.283   6.702  0.9873  0.1771 -0.2144
29114SOL    HW289350   2.499   1.259   6.836 -0.1143  0.0147 -0.7727
29115SOL     OW89351   5.194   6.296   5.949  0.6725  0.2173  0.1742
29115SOL    HW189352   5.188   6.377   5.999  1.9203 -0.7130  1.9379
29115SOL    HW289353   5.169   6.227   6.010 -0.2824 -0.7701 -1.2576
29116SOL     OW89354   1.468   8.258   0.728 -0.2411 -0.1892 -0.1308
29116SOL    HW189355   1.533   8.198   0.692  0.3493  0.7876 -0.7357
29116SOL    HW289356   1.474   8.336   0.673 -2.7058 -0.4689 -0.9218
29117SOL     OW89357   8.359   2.111   1.859 -0.5776  0.6851 -0.1789
29117SOL    HW189358   8.403   2.036   1.821  0.6616  0.9250  0.7185
29117SOL    HW289359   8.354   2.175   1.788  1.7544  1.1529  0.0051
29118SOL     OW89360   9.343  10.519   3.565 -0.2614 -0.5724  0.0925
29118SOL    HW189361   9.269  10.458   3.568 -0.8375  0.1554  0.8357
29118SOL    HW289362   9.418  10.464   3.539 -0.8386 -1.5220  0.3833
29119SOL     OW89363   5.444   6.740   4.883  0.3548 -0.1673  0.1893
29119SOL    HW189364   5.513   6.804   4.865 -0.3054  0.5595  0.2172
29119SOL    HW289365   5.427   6.699   4.799 -0.7036  1.2010 -0.2988
29120SOL     OW89366   0.312   9.773   7.967 -1.2857  0.0921 -0.2053
29120SOL    HW189367   0.371   9.831   8.016 -1.3932  1.3329 -1.4699
29120SOL    HW289368   0.362   9.748   7.889 -1.5131 -0.9412 -0.0279
29121SOL     OW89369  10.076   1.902   9.260 -0.5370  0.3003 -0.1748
29121SOL    HW189370  10.111   1.900   9.171 -1.0396  1.1546 -0.4048
29121SOL    HW289371  10.143   1.946   9.311 -0.1834 -0.3208 -0.0942
29122SOL     OW89372   7.285   7.673   1.538  0.4185  0.0290 -0.1403
29122SOL    HW189373   7.212   7.721   1.578  0.3931  0.9727 -1.2428
29122SOL    HW289374   7.360   7.694   1.593 -0.2948 -1.9450  1.7494
29123SOL     OW89375  10.974   2.293   9.345  0.4861 -0.1256  0.2707
29123SOL    HW189376  10.933   2.228   9.287 -1.5775  1.9686 -0.7913
29123SOL    HW289377  11.054   2.318   9.299  0.4816 -0.7635 -0.1049
29124SOL     OW89378   0.076   4.212   0.036 -0.3273 -0.0616 -0.5429
29124SOL    HW189379   0.063   4.191  -0.057 -1.4051 -1.7075 -0.0523
29124SOL    HW289380  -0.013   4.217   0.072 -0.0419  2.6720  0.0270
29125SOL     OW89381   5.013   1.494  10.903  0.2189 -0.2420 -0.1139
29125SOL    HW189382   5.100   1.526  10.926  0.5248 -1.9634  1.3691
29125SOL    HW289383   4.956   1.569  10.916  1.5010  1.0487 -1.5190
29126SOL     OW89384   3.100   7.577   4.719  0.9800  0.1232 -0.1720
29126SOL    HW189385   3.060   7.583   4.806  0.9944 -0.9397 -0.0783
29126SOL    HW289386   3.036   7.530   4.666  0.6751  1.3633 -0.9383
29127SOL     OW89387  10.788   9.421   5.131  0.2113 -0.4216 -0.0255
29127SOL    HW189388  10.707   9.410   5.180 -0.4661 -1.8406 -1.3578
29127SOL    HW289389  10.846   9.470   5.189 -1.9951  1.7351  0.5292
29128SOL     OW89390   7.613   8.807   5.758 -0.4149  0.4931 -0.4214
29128SOL    HW189391   7.559   8.876   5.719 -2.9206 -2.3618 -2.5387
29128SOL    HW289392   7.602   8.732   5.700  1.7018 -1.9040  1.9722
29129SOL     OW89393  10.001   5.955   1.774 -0.1217  0.6555 -0.4389
29129SOL    HW189394   9.917   5.959   1.729 -1.2750  1.3250  1.6026
29129SOL    HW289395  10.065   5.937   1.706 -2.2023 -2.6585 -1.7296
29130SOL     OW89396   2.831   5.337   9.854 -0.1689  0.2310  0.0931
29130SOL    HW189397   2.862   5.248   9.871  0.9284  0.1689 -1.9133
29130SOL    HW289398   2.901   5.394   9.884  0.1184  0.2931 -0.6762
29131SOL     OW89399   5.459   5.352   9.790  0.2529  0.0670  0.1215
29131SOL    HW189400   5.435   5.306   9.710  2.9043 -0.2121 -0.6256
29131SOL    HW289401   5.435   5.293   9.861  0.3623 -0.9047 -0.6318
29132SOL     OW89402   6.352   3.448   7.413  0.9437 -0.4125  0.9452
29132SOL    HW189403   6.353   3.353   7.427 -0.7889 -0.4825  0.8414
29132SOL    HW289404   6.330   3.458   7.321  0.1934  0.0746  1.1669
29133SOL     OW89405   2.741   3.779   7.665 -0.1947 -0.2224 -0.1159
29133SOL    HW189406   2.794   3.822   7.597  0.3928 -0.9604 -0.1315
29133SOL    HW289407   2.651   3.784   7.632  0.2203 -1.7098 -1.5824
29134SOL     OW89408   6.399  10.603   2.402 -0.0519  0.1637  0.3708
29134SOL    HW189409   6.403  10.513   2.432  1.6913  0.1810  0.2480
29134SOL    HW289410   6.461  10.608   2.329 -1.4707  1.0267 -0.8410
29135SOL     OW89411   8.215   1.407   3.981  0.2818 -0.1970  0.4814
29135SOL    HW189412   8.155   1.347   4.026  0.7702  0.0656  1.5318
29135SOL    HW289413   8.204   1.387   3.888 -1.7246  0.1195  0.5948
29136SOL     OW89414   2.310   6.556   9.109 -0.5838  0.4642 -0.7338
29136SOL    HW189415   2.248   6.490   9.140 -1.2533  1.2987 -0.2529
29136SOL    HW289416   2.373   6.507   9.056 -0.0731 -0.8266  0.9893
29137SOL     OW89417   7.138   2.908   5.904 -0.0654 -0.2300 -0.0236
29137SOL    HW189418   7.189   2.988   5.898 -1.5415  0.7424 -0.0562
29137SOL    HW289419   7.060   2.932   5.955 -1.4583 -1.1331 -1.5949
29138SOL     OW89420   5.279   3.057   4.276 -0.2187  0.0643 -0.1356
29138SOL    HW189421   5.228   3.067   4.195  0.7866 -0.9833 -0.9312
29138SOL    HW289422   5.347   3.125   4.269  1.7419 -1.9046 -1.7116
29139SOL     OW89423   9.979   1.271   5.958 -0.2497 -0.2809  0.2617
29139SOL    HW189424  10.016   1.344   5.908  1.2809 -1.8720 -1.0698
29139SOL    HW289425   9.980   1.301   6.049  1.4649  0.9496 -0.1156
29140SOL     OW89426   7.337   8.794   1.623  0.8491 -0.2792  0.1247
29140SOL    HW189427   7.365   8.812   1.713 -0.6770 -0.2829  0.6340
29140SOL    HW289428   7.307   8.703   1.625 -0.0784  0.0072 -0.1238
29141SOL     OW89429   6.300   1.208  10.848 -0.1996  0.4294 -0.2224
29141SOL    HW189430   6.377   1.158  10.823  0.1225  0.3548  0.8668
29141SOL    HW289431   6.245   1.209  10.769  0.3345 -0.5939 -0.6273
29142SOL     OW89432   4.179   8.011   1.385 -0.0287  0.7174 -0.8579
29142SOL    HW189433   4.156   8.011   1.478  0.1236  1.8945 -0.8071
29142SOL    HW289434   4.095   8.003   1.340  0.0303 -2.1195 -0.6457
29143SOL     OW89435   8.492   1.739   2.331  0.5583 -0.2538 -0.0344
29143SOL    HW189436   8.539   1.820   2.311 -0.1702 -0.0750 -1.1135
29143SOL    HW289437   8.560   1.677   2.356  1.0846  0.8258  1.3207
29144SOL     OW89438   9.069   4.924  10.362 -0.1183 -0.8488 -0.4022
29144SOL    HW189439   9.059   4.845  10.415 -0.0825 -0.6627 -0.1198
29144SOL    HW289440   9.139   4.902  10.300  1.0806 -0.4536  0.7683
29145SOL     OW89441   7.707   5.103   5.631  0.2870 -0.4068  0.0881
29145SOL    HW189442   7.780   5.058   5.588  0.0150 -1.1499  0.3693
29145SOL    HW289443   7.749   5.166   5.690  0.6718 -0.0311 -0.5803
29146SOL     OW89444   9.289   4.460   6.931  0.2651  0.9560  0.0547
29146SOL    HW189445   9.316   4.425   7.016  0.6105 -0.4560 -0.6170
29146SOL    HW289446   9.363   4.442   6.873 -0.9242 -0.3147 -1.1223
29147SOL     OW89447   3.527  10.168   0.336  0.3464  0.4744 -0.0450
29147SOL    HW189448   3.567  10.167   0.249  0.9171 -1.0689  0.1998
29147SOL    HW289449   3.592  10.212   0.391 -0.2930  2.0385 -0.4900
29148SOL     OW89450   9.321   2.513   7.501 -0.1175 -0.2736  0.1155
29148SOL    HW189451   9.304   2.441   7.562 -1.1848  0.8559  1.1940
29148SOL    HW289452   9.237   2.528   7.458  0.3322 -0.2675 -0.7888
29149SOL     OW89453   6.397  10.981   0.105  0.2237 -0.2835  0.0636
29149SOL    HW189454   6.430  11.064   0.069  3.3757 -0.6946  1.6702
29149SOL    HW289455   6.339  11.008   0.176  1.0022  0.6072  0.3998
29150SOL     OW89456   7.185  10.058   7.806 -0.3021 -0.3807 -0.3567
29150SOL    HW189457   7.272  10.090   7.782 -0.4459 -0.2273 -0.6947
29150SOL    HW289458   7.200  10.000   7.880 -0.1346  1.2098  0.9235
29151SOL     OW89459   6.409   6.189   0.866 -0.3051  0.0705 -0.6217
29151SOL    HW189460   6.500   6.205   0.889  0.8047 -1.9528 -3.0327
29151SOL    HW289461   6.370   6.276   0.856  1.9182  1.0465 -1.4017
29152SOL     OW89462   6.264   1.920   4.302  0.5619 -0.1511 -0.5714
29152SOL    HW189463   6.356   1.947   4.305  0.0189  1.8075 -0.4811
29152SOL    HW289464   6.215   2.001   4.291 -1.1678 -1.1729 -0.7874
29153SOL     OW89465   7.919   7.030   3.122 -0.3152 -0.0470 -0.5337
29153SOL    HW189466   7.925   7.009   3.216 -0.1061  0.5540 -0.4031
29153SOL    HW289467   7.930   7.126   3.119  1.0644 -0.2066 -1.2878
29154SOL     OW89468   8.397   9.260   3.142  0.3421 -0.5953 -0.4622
29154SOL    HW189469   8.373   9.180   3.189  2.1570 -0.2699  1.1263
29154SOL    HW289470   8.458   9.232   3.074  0.1336 -0.6907 -0.6093
29155SOL     OW89471  10.354   1.883   0.463  0.2771  0.4796 -0.0574
29155SOL    HW189472  10.268   1.858   0.495  1.3019 -0.3343  2.2708
29155SOL    HW289473  10.358   1.978   0.476 -0.2848  0.5419 -0.2987
29156SOL     OW89474   5.198   7.233   2.286  0.5118  0.3057 -0.1188
29156SOL    HW189475   5.158   7.216   2.371 -0.1412  0.1527 -0.4545
29156SOL    HW289476   5.134   7.201   2.223  1.6300 -1.0269 -0.6464
29157SOL     OW89477   8.505   9.020   1.604 -0.2768  0.4070 -0.3562
29157SOL    HW189478   8.466   9.085   1.545 -0.3007  0.5561 -0.1788
29157SOL    HW289479   8.536   8.951   1.546 -0.2524  0.5763 -0.5481
29158SOL     OW89480   5.192   8.805   8.266  0.1803  0.1467 -0.3340
29158SOL    HW189481   5.287   8.794   8.273  0.3034  0.5551 -1.2160
29158SOL    HW289482   5.177   8.819   8.173 -1.0137 -2.3333 -0.6055
29159SOL     OW89483   3.255   1.817   9.060  0.3442 -0.1058  0.0756
29159SOL    HW189484   3.301   1.781   8.984  1.9359 -0.6267  1.2290
29159SOL    HW289485   3.165   1.787   9.049  0.8084 -1.2505 -0.9505
29160SOL     OW89486   5.282   5.741   5.366 -0.4163 -0.1295  0.2519
29160SOL    HW189487   5.354   5.695   5.323 -2.7422 -1.5535 -2.4511
29160SOL    HW289488   5.216   5.673   5.383 -3.0522  1.7081 -1.8006
29161SOL     OW89489   2.789   2.763  10.035  0.2752 -0.1708 -0.5280
29161SOL    HW189490   2.865   2.737   9.982  0.4187  0.1482 -0.4857
29161SOL    HW289491   2.799   2.858  10.045  0.1801 -0.2089 -0.0383
29162SOL     OW89492   1.562   6.380   6.499 -0.2635  0.2113 -0.2792
29162SOL    HW189493   1.546   6.455   6.556  0.4645  0.5645 -0.5304
29162SOL    HW289494   1.605   6.417   6.421  2.6466 -0.7337  0.7314
29163SOL     OW89495   2.368   7.848   9.511 -0.0819 -0.1636 -0.1658
29163SOL    HW189496   2.378   7.784   9.581 -0.6493 -1.5462 -1.3172
29163SOL    HW289497   2.424   7.921   9.537  2.2854 -1.9968  0.1161
29164SOL     OW89498   9.435   3.239   6.296 -0.3469  0.2509  0.0439
29164SOL    HW189499   9.463   3.263   6.208 -0.5480  0.7997  0.1202
29164SOL    HW289500   9.384   3.315   6.326  0.1562  0.2963  0.8287
29165SOL     OW89501   3.840   6.535   8.740 -0.2208 -0.2146 -0.1813
29165SOL    HW189502   3.868   6.452   8.779 -0.0642 -0.2094 -0.2832
29165SOL    HW289503   3.749   6.545   8.769 -0.0488 -0.1179  0.3487
29166SOL     OW89504   8.048   0.566  10.945 -0.1533 -0.3305 -0.1702
29166SOL    HW189505   8.082   0.653  10.966 -1.5744  0.3824 -0.7055
29166SOL    HW289506   7.961   0.564  10.984  0.2017 -1.8829  0.6279
29167SOL     OW89507   1.439   4.438   3.558 -0.3704  0.6421  0.7580
29167SOL    HW189508   1.354   4.403   3.580  0.4873 -1.1965  1.3161
29167SOL    HW289509   1.446   4.428   3.463 -0.8539  1.0329  0.6786
29168SOL     OW89510   3.263  10.515  10.740 -0.6726  0.3917 -0.1110
29168SOL    HW189511   3.271  10.430  10.696 -1.7739 -0.5549  1.4492
29168SOL    HW289512   3.353  10.544  10.750 -0.3302  0.0825 -1.8903
29169SOL     OW89513   0.604   9.855   1.506 -0.1121 -0.6325  0.1323
29169SOL    HW189514   0.682   9.910   1.503 -0.5746 -0.0111 -1.4642
29169SOL    HW289515   0.625   9.779   1.453 -0.5239 -0.5392 -0.1711
29170SOL     OW89516   2.188   2.321   5.345 -0.3850  0.5776  0.5954
29170SOL    HW189517   2.170   2.230   5.368 -0.8946  1.3320  3.5728
29170SOL    HW289518   2.271   2.318   5.297 -0.4908 -1.4611  0.4705
29171SOL     OW89519   1.159   6.016   4.373  0.1435  0.4031 -0.3029
29171SOL    HW189520   1.158   5.949   4.441 -0.4163 -0.3547 -1.0450
29171SOL    HW289521   1.084   6.073   4.394 -1.2026 -0.9172 -1.3172
29172SOL     OW89522   7.309   2.069   9.834 -0.3211  0.3702  0.4937
29172SOL    HW189523   7.286   2.106   9.749 -0.1984 -0.1314  0.2385
29172SOL    HW289524   7.234   2.015   9.858 -0.9187  1.5157  1.3119
29173SOL     OW89525   3.653   3.382   2.290  0.0039 -0.2037 -1.1936
29173SOL    HW189526   3.682   3.471   2.270 -1.7995  0.3696 -1.4695
29173SOL    HW289527   3.727   3.326   2.267  1.5584  1.2824 -0.0509
29174SOL     OW89528   9.009   0.104   0.543  0.5932  0.5664 -0.1556
29174SOL    HW189529   8.967   0.124   0.626 -0.0620  0.5730 -0.4808
29174SOL    HW289530   8.938   0.108   0.479  1.2606  1.4701 -0.8506
29175SOL     OW89531   1.192   0.601   2.188 -0.0023 -0.5569  0.1110
29175SOL    HW189532   1.100   0.593   2.164 -0.5670  1.6007  1.2822
29175SOL    HW289533   1.194   0.585   2.282  0.5822  0.7531  0.3397
29176SOL     OW89534   0.160   0.897   2.470  0.4002 -0.5819  0.4641
29176SOL    HW189535   0.170   0.904   2.565 -0.7094 -0.1269  0.5564
29176SOL    HW289536   0.174   0.986   2.438  1.1790 -0.8068  0.1409
29177SOL     OW89537   3.998   9.552   2.160  0.1613  0.4934 -0.0368
29177SOL    HW189538   4.019   9.487   2.093  0.0028  0.5246 -0.1165
29177SOL    HW289539   3.903   9.566   2.151  0.2180  0.8436 -0.1176
29178SOL     OW89540   9.311  10.780   7.297  0.2258 -0.3141 -0.9484
29178SOL    HW189541   9.254  10.712   7.261 -2.9109  1.3118  0.5340
29178SOL    HW289542   9.276  10.862   7.262  0.6880  0.8814  1.1902
29179SOL     OW89543   2.582  10.182   6.714 -0.2473  0.6549  0.3070
29179SOL    HW189544   2.609  10.118   6.648 -1.4015  1.4402 -0.9848
29179SOL    HW289545   2.645  10.254   6.706  0.6008  0.0453  1.2420
29180SOL     OW89546   8.205  10.408   8.594 -0.5013  0.3264  0.1882
29180SOL    HW189547   8.236  10.445   8.677  4.5274 -2.7823  0.1438
29180SOL    HW289548   8.139  10.344   8.620  0.9718 -0.5884  1.9464
29181SOL     OW89549   3.682   9.834   9.481 -0.0577  0.0699  0.1546
29181SOL    HW189550   3.622   9.892   9.433  1.8176  1.0476 -1.1436
29181SOL    HW289551   3.682   9.753   9.431 -2.1733 -0.9007  1.5981
29182SOL     OW89552   1.541   5.620   0.379 -0.0743  0.0004  0.6212
29182SOL    HW189553   1.587   5.547   0.340 -0.8541 -0.6944  0.9704
29182SOL    HW289554   1.460   5.582   0.413  0.4353  0.6315  2.6452
29183SOL     OW89555   6.821   7.555   0.982  0.9640 -0.1909  0.1349
29183SOL    HW189556   6.850   7.631   1.032 -0.8697  1.5443 -1.2576
29183SOL    HW289557   6.795   7.491   1.048 -1.8119  2.1831  1.5607
29184SOL     OW89558   5.705   0.937   4.026  0.0965  0.1463  0.0585
29184SOL    HW189559   5.620   0.976   4.045  0.5196  0.6774  0.9889
29184SOL    HW289560   5.692   0.885   3.948 -0.4455  2.4288 -1.4620
29185SOL     OW89561   8.136   5.919   4.045  0.2834  0.3172  0.1237
29185SOL    HW189562   8.148   5.895   4.137 -0.0897  0.3677  0.1859
29185SOL    HW289563   8.044   5.944   4.039 -0.1644 -1.4097 -0.6523
29186SOL     OW89564   4.832   2.012   2.244  0.1785 -0.0614  0.7261
29186SOL    HW189565   4.791   1.929   2.221  1.2701 -0.8475  1.5274
29186SOL    HW289566   4.842   2.009   2.339  1.6189  0.3069  0.6090
29187SOL     OW89567  10.154   0.189  10.596 -0.4528 -0.1648  0.0500
29187SOL    HW189568  10.209   0.265  10.614 -1.2016  0.5804 -0.7440
29187SOL    HW289569  10.216   0.120  10.570  0.2062  0.2335  0.5241
29188SOL     OW89570   1.620  10.376   5.492 -0.1657 -0.2144 -0.5061
29188SOL    HW189571   1.712  10.398   5.501 -0.3449  0.4071 -0.1311
29188SOL    HW289572   1.575  10.432   5.555 -0.7741 -0.7052 -0.4891
29189SOL     OW89573   8.898   8.110  10.324 -0.4191  0.3221 -0.3048
29189SOL    HW189574   8.979   8.115  10.374  0.5228 -0.2362 -1.7163
29189SOL    HW289575   8.912   8.167  10.249 -1.3111  0.1745 -0.5966
29190SOL     OW89576   3.196   9.003   0.355  0.0988  0.4264 -0.4706
29190SOL    HW189577   3.250   8.991   0.433  1.7114 -0.7237 -1.6841
29190SOL    HW289578   3.232   8.941   0.291 -4.4700 -2.6830 -0.5617
29191SOL     OW89579   6.696   8.647   7.621 -0.3757  0.4044 -0.7718
29191SOL    HW189580   6.758   8.574   7.626 -0.7559  0.0937 -0.5270
29191SOL    HW289581   6.743   8.722   7.656 -0.5455 -0.1004  0.5939
29192SOL     OW89582   2.824   4.386   7.867 -0.2869 -0.4835  0.1910
29192SOL    HW189583   2.858   4.470   7.898 -2.6913  0.8385 -0.5261
29192SOL    HW289584   2.828   4.329   7.944 -3.0249  1.7298  2.1960
29193SOL     OW89585   4.679   5.614   4.914 -0.1041  0.2651 -0.2830
29193SOL    HW189586   4.686   5.539   4.974  0.3645  0.1963 -0.4194
29193SOL    HW289587   4.741   5.678   4.949  0.3330  0.1381 -0.8215
29194SOL     OW89588   3.113   5.217   6.969  0.1239  0.1975 -0.0550
29194SOL    HW189589   3.048   5.253   7.030  0.9033  1.6067 -0.0067
29194SOL    HW289590   3.062   5.166   6.907 -1.0222  1.0919  0.1103
29195SOL     OW89591   4.439   4.816   3.421  0.1954  0.1970 -0.0829
29195SOL    HW189592   4.345   4.806   3.437 -0.3356  0.6143 -2.5722
29195SOL    HW289593   4.470   4.866   3.496 -1.7486  0.8700  0.3504
29196SOL     OW89594   7.204   5.566   2.152  0.1277 -0.2870  0.0408
29196SOL    HW189595   7.287   5.613   2.143 -0.3011  0.4176 -0.2665
29196SOL    HW289596   7.228   5.474   2.143  0.6902 -0.0253 -1.6177
29197SOL     OW89597   4.949   4.807   0.847 -0.0377  0.2661  0.1565
29197SOL    HW189598   4.980   4.886   0.803  1.4751 -0.9246 -1.0486
29197SOL    HW289599   4.867   4.786   0.802  0.6250  0.0178 -0.9831
29198SOL     OW89600   1.931   1.248   8.886 -0.3188  0.4890 -0.3495
29198SOL    HW189601   1.885   1.216   8.809  1.3340  0.2295 -1.2839
29198SOL    HW289602   1.969   1.169   8.926 -0.5765  0.7018  0.3284
29199SOL     OW89603   4.288   9.435   9.483  0.3909  0.5759 -0.3275
29199SOL    HW189604   4.297   9.358   9.426 -1.9894 -0.6012  0.7130
29199SOL    HW289605   4.194   9.454   9.482  0.7285  2.4990  0.6991
29200SOL     OW89606   4.117   5.973   0.835  0.3226 -0.0714  0.5197
29200SOL    HW189607   4.183   5.993   0.902 -0.5420 -0.3174  1.4732
29200SOL    HW289608   4.107   6.054   0.786  0.8913  0.1472  0.7575
29201SOL     OW89609   0.263   3.833   4.099 -0.0224 -0.0675  0.7974
29201SOL    HW189610   0.249   3.802   4.010  0.3512  3.6772 -0.7391
29201SOL    HW289611   0.175   3.832   4.139 -0.4827 -0.2145 -0.1980
29202SOL     OW89612   9.006  10.550   1.175  0.2226  0.4719  0.4313
29202SOL    HW189613   9.046  10.522   1.257 -0.4774 -0.4133  0.4868
29202SOL    HW289614   9.057  10.627   1.148  0.0584  1.1614  2.0152
29203SOL     OW89615   0.196  10.545   1.046  0.1857 -0.2071  0.0616
29203SOL    HW189616   0.227  10.454   1.044  2.6871  0.5494  0.2894
29203SOL    HW289617   0.277  10.597   1.051 -1.1684  2.0388 -0.1804
29204SOL     OW89618   5.560   0.340   8.846 -0.5031  0.8180  0.7594
29204SOL    HW189619   5.567   0.256   8.891 -0.6735  0.7454  0.6550
29204SOL    HW289620   5.607   0.328   8.764  0.7248  1.2849  1.3691
29205SOL     OW89621  10.149   6.494   0.528  0.7590  0.3130 -0.3936
29205SOL    HW189622  10.128   6.579   0.566 -0.4661  0.1560 -0.6872
29205SOL    HW289623  10.133   6.432   0.599  0.3297  0.1969 -0.5948
29206SOL     OW89624   1.117   4.155   0.183 -0.8618  0.8884 -0.4300
29206SOL    HW189625   1.033   4.173   0.141 -0.3849  2.9648 -0.6180
29206SOL    HW289626   1.128   4.227   0.246  0.3948  0.2021  0.1625
29207SOL     OW89627   3.420  10.923   5.618 -0.2837  0.2225 -0.0954
29207SOL    HW189628   3.327  10.906   5.635 -0.0893  0.3146  1.1190
29207SOL    HW289629   3.436  10.884   5.532 -0.6870 -2.6483  1.0159
29208SOL     OW89630   8.561   3.547   0.061  0.1699  0.2521  0.2710
29208SOL    HW189631   8.616   3.478   0.098 -1.1542 -0.4506  0.9939
29208SOL    HW289632   8.599   3.628   0.094 -0.1933 -0.3024  2.1430
29209SOL     OW89633   1.734   8.201  10.839  0.0448  0.4059 -0.2612
29209SOL    HW189634   1.724   8.292  10.809 -0.5481 -0.0537 -1.4990
29209SOL    HW289635   1.829   8.189  10.843  0.1351  0.7726 -1.0792
29210SOL     OW89636  10.177   6.898   6.963  0.3273 -1.0632  0.2944
29210SOL    HW189637  10.198   6.902   7.056  0.1325 -2.9938  0.4551
29210SOL    HW289638  10.085   6.924   6.958  0.4107 -0.6978  0.5966
29211SOL     OW89639   8.236   1.382   2.816  0.1227  0.1888  0.0085
29211SOL    HW189640   8.295   1.387   2.740  1.1931 -0.7335  0.7496
29211SOL    HW289641   8.238   1.290   2.841 -0.6195  0.3953  0.8591
29212SOL     OW89642   3.174   2.932   1.761  0.4367 -0.0740  0.1365
29212SOL    HW189643   3.137   2.912   1.675  0.9822 -1.2949  0.1690
29212SOL    HW289644   3.269   2.925   1.749  0.5289 -0.0705  0.8000
29213SOL     OW89645   7.524   0.403   1.992 -0.1284 -0.4068 -0.1526
29213SOL    HW189646   7.509   0.422   1.900  0.2280  0.5133 -0.0365
29213SOL    HW289647   7.441   0.425   2.035 -0.2638 -0.7449 -0.2444
29214SOL     OW89648   8.470   6.576   4.979 -0.3744  0.3480 -0.6587
29214SOL    HW189649   8.562   6.592   5.002 -0.3475 -1.4933  0.8270
29214SOL    HW289650   8.475   6.511   4.908 -0.3832 -2.7019  1.8743
29215SOL     OW89651   7.599   6.307   0.124 -0.4670 -0.7068 -0.4231
29215SOL    HW189652   7.681   6.337   0.163 -0.6625  0.6402 -0.9930
29215SOL    HW289653   7.597   6.213   0.140  0.1406 -0.4139  1.5278
29216SOL     OW89654   2.150   0.511   0.530 -0.1241 -0.3201  0.1241
29216SOL    HW189655   2.176   0.454   0.457  1.8325 -0.2010  0.6809
29216SOL    HW289656   2.188   0.596   0.509 -1.9553  0.4948 -0.0715
29217SOL     OW89657  10.595   4.143   9.970 -0.6151  0.0023  0.3988
29217SOL    HW189658  10.504   4.120   9.949 -0.6752 -0.0401  0.6943
29217SOL    HW289659  10.588   4.196  10.050 -0.5071  1.3012 -0.4135
29218SOL     OW89660   6.925   9.650  10.520  0.3884 -0.4209 -0.2541
29218SOL    HW189661   6.896   9.735  10.554  1.1468  0.3517 -1.4346
29218SOL    HW289662   6.897   9.587  10.586  1.2915  0.9264  1.5239
29219SOL     OW89663   4.448   3.313   1.112 -0.5340  0.0419  0.5613
29219SOL    HW189664   4.509   3.327   1.184 -0.7020 -0.9655  0.9197
29219SOL    HW289665   4.379   3.258   1.150 -0.6510 -0.4594 -0.3473
29220SOL     OW89666   2.098   7.907  10.998  0.1367  0.0272  0.3258
29220SOL    HW189667   2.046   7.987  10.993 -0.0792 -0.1767 -0.8060
29220SOL    HW289668   2.062   7.849  10.931  1.8792 -0.0767 -0.5945
29221SOL     OW89669   5.115   9.782   0.060  0.2104  0.7083  0.7469
29221SOL    HW189670   5.024   9.808   0.047  0.2419  1.1857  1.4654
29221SOL    HW289671   5.144   9.830   0.138  1.3580  1.2912 -0.0038
29222SOL     OW89672   2.039   2.336   2.441  0.6557 -0.2795 -0.3049
29222SOL    HW189673   2.057   2.430   2.445  0.4073 -0.1618 -1.5995
29222SOL    HW289674   1.974   2.321   2.510  1.8890  0.1878  1.0233
29223SOL     OW89675   1.094   4.638   2.591 -0.1888  0.2843 -0.3562
29223SOL    HW189676   1.047   4.699   2.535  1.4282  0.8468 -1.1595
29223SOL    HW289677   1.025   4.581   2.627 -1.3570  0.2383 -2.4675
29224SOL     OW89678   5.767   8.212   1.915  0.6463  0.5070  0.3098
29224SOL    HW189679   5.696   8.229   1.976  0.6205  1.1058  0.1274
29224SOL    HW289680   5.724   8.191   1.832  0.6767  0.9909  0.1679
29225SOL     OW89681   3.353   0.431   0.421 -0.1588 -0.1486 -0.1620
29225SOL    HW189682   3.422   0.366   0.435  0.3265 -0.9409 -4.6500
29225SOL    HW289683   3.394   0.515   0.445  0.9376 -0.9780  0.9799
29226SOL     OW89684   6.213   7.373   1.283 -0.5374  0.2090  0.5068
29226SOL    HW189685   6.279   7.407   1.223 -0.3631  0.3916  0.7998
29226SOL    HW289686   6.154   7.447   1.298 -1.9027 -0.4326 -1.2006
29227SOL     OW89687   2.394   6.886   3.135  0.7774  0.1557  0.7615
29227SOL    HW189688   2.454   6.840   3.194  1.1171  0.6221  0.7833
29227SOL    HW289689   2.309   6.844   3.151  0.9937 -0.1688  1.0974
29228SOL     OW89690   6.016   2.855   8.664 -0.4381  0.2049 -0.2235
29228SOL    HW189691   6.019   2.939   8.617 -0.6341 -0.1185 -0.8155
29228SOL    HW289692   5.923   2.837   8.675 -0.4076 -0.2138 -0.6059
29229SOL     OW89693   5.181   5.130  10.417 -0.4581 -0.0494 -0.0466
29229SOL    HW189694   5.216   5.049  10.454  0.4965  0.2286 -0.3010
29229SOL    HW289695   5.138   5.174  10.490  0.5128  0.0129  0.5034
29230SOL     OW89696   1.331  10.578   6.859 -0.1953 -0.0075  0.1344
29230SOL    HW189697   1.293  10.529   6.932 -2.0677  1.1710  0.0370
29230SOL    HW289698   1.358  10.661   6.898  2.9362 -0.9968  0.2973
29231SOL     OW89699   6.508   6.869   5.201 -0.3637  0.2750 -0.6130
29231SOL    HW189700   6.486   6.802   5.266 -0.2451  1.1968  0.4028
29231SOL    HW289701   6.555   6.822   5.132 -1.4236 -0.9127 -0.5715
29232SOL     OW89702   3.742   5.165   9.434  0.4660 -0.7321 -0.2757
29232SOL    HW189703   3.678   5.120   9.489  0.2086  0.0997  0.1286
29232SOL    HW289704   3.745   5.254   9.470  2.1267 -0.8506 -0.0388
29233SOL     OW89705   6.563   8.200   8.496  0.0455  0.1179 -0.4375
29233SOL    HW189706   6.578   8.191   8.590  0.9301 -1.5682 -0.7061
29233SOL    HW289707   6.575   8.112   8.460  0.8238  0.9079 -2.2872
29234SOL     OW89708   6.607   8.378   5.374  0.7133  0.2427 -0.7614
29234SOL    HW189709   6.565   8.459   5.347  2.2130  0.3862 -2.9112
29234SOL    HW289710   6.540   8.332   5.425 -0.4662  2.4001 -0.2596
29235SOL     OW89711   6.239   4.082   9.231 -0.3961 -0.3068 -0.5949
29235SOL    HW189712   6.164   4.028   9.208 -1.5249  0.8234  0.2637
29235SOL    HW289713   6.221   4.167   9.190  0.1710  0.1088 -0.0117
29236SOL     OW89714   0.435   5.180   3.925  0.4146  0.6822  0.3414
29236SOL    HW189715   0.458   5.115   3.859  3.0083  1.3253  0.4893
29236SOL    HW289716   0.467   5.263   3.890  1.7584  1.0622  2.2802
29237SOL     OW89717   3.354   4.009  10.803  0.0141  0.0239  0.4745
29237SOL    HW189718   3.443   3.991  10.832  0.0018 -0.2113  0.3711
29237SOL    HW289719   3.301   4.006  10.883  0.5759  3.7051  1.1593
29238SOL     OW89720   3.424   7.553   0.629  0.1521 -0.8427 -0.2344
29238SOL    HW189721   3.348   7.608   0.650 -0.2855 -0.8533 -1.6582
29238SOL    HW289722   3.402   7.514   0.544  1.1961 -1.8760 -0.0492
29239SOL     OW89723   5.716   1.871   2.318  0.1240  0.3788  0.0008
29239SOL    HW189724   5.697   1.878   2.224  0.6073  1.4393 -0.0325
29239SOL    HW289725   5.805   1.838   2.322  0.1781  0.5305  0.0770
29240SOL     OW89726   4.580   8.446   8.739 -0.2431  0.3477 -0.5874
29240SOL    HW189727   4.672   8.437   8.717  0.6209 -0.5835  2.7443
29240SOL    HW289728   4.546   8.356   8.738 -0.3008  0.3161  0.9041
29241SOL     OW89729  10.453   0.069   0.221  0.2833  0.7550  0.0860
29241SOL    HW189730  10.406   0.049   0.140  1.0391  0.7387 -0.3694
29241SOL    HW289731  10.404   0.024   0.289 -0.1801  0.4882 -0.4122
29242SOL     OW89732   6.624   7.031   3.865 -0.1793 -0.2769 -0.4811
29242SOL    HW189733   6.571   6.984   3.800 -1.1775 -0.9640  0.7789
29242SOL    HW289734   6.579   7.015   3.948  1.5796 -0.2239  0.5280
29243SOL     OW89735   3.636   5.036  10.867 -0.4786  0.5027  0.1344
29243SOL    HW189736   3.602   4.985  10.941 -0.3630  0.2734  0.0313
29243SOL    HW289737   3.643   5.125  10.901  0.0816  0.3023  0.5702
29244SOL     OW89738   6.515   3.523   6.585 -0.3264  0.5094 -0.0746
29244SOL    HW189739   6.468   3.606   6.586  2.4295  2.2206  1.9775
29244SOL    HW289740   6.491   3.481   6.668 -1.4612 -0.6622 -0.9604
29245SOL     OW89741   3.440   3.928   1.728  0.9880 -0.5306 -0.3434
29245SOL    HW189742   3.396   3.923   1.813  0.8858  0.0390 -0.3606
29245SOL    HW289743   3.387   3.871   1.671 -0.3737  0.9466 -0.6276
29246SOL     OW89744   9.682  10.814   2.558 -0.8409 -0.1207  0.8876
29246SOL    HW189745   9.641  10.729   2.576 -3.3502  0.9272  0.4630
29246SOL    HW289746   9.649  10.871   2.627  1.6459  0.3404  1.7864
29247SOL     OW89747   9.616   0.288   1.647  0.3705  0.2262 -1.1893
29247SOL    HW189748   9.688   0.351   1.641  0.4078  0.0486 -4.1091
29247SOL    HW289749   9.659   0.203   1.657  0.4958  0.2865 -1.2041
29248SOL     OW89750   7.967  10.010   6.310  0.0656 -0.5601 -0.3680
29248SOL    HW189751   7.887  10.062   6.314  1.3631  1.5572 -0.5858
29248SOL    HW289752   8.006  10.020   6.397  0.3601 -1.1406 -0.4287
29249SOL     OW89753   2.623   0.045   3.603 -0.7842 -0.4168 -0.8614
29249SOL    HW189754   2.611   0.083   3.516 -2.4822  0.4599 -0.2956
29249SOL    HW289755   2.716   0.024   3.608 -0.0590  2.1632 -1.8549
29250SOL     OW89756   1.769   6.873   3.184  0.6991 -0.0376 -0.1916
29250SOL    HW189757   1.770   6.957   3.137  4.4945  0.1853 -0.0731
29250SOL    HW289758   1.770   6.807   3.115 -0.1877  0.0754 -0.3155
29251SOL     OW89759   9.626   5.265   4.388 -0.1068  0.4861 -0.5199
29251SOL    HW189760   9.605   5.223   4.305  1.3202 -1.2004 -0.0847
29251SOL    HW289761   9.608   5.198   4.454 -0.4046  1.5113  0.4730
29252SOL     OW89762   5.808   6.338   9.398  0.0666 -0.3509  0.4106
29252SOL    HW189763   5.716   6.328   9.374  0.0427 -1.5201  0.9237
29252SOL    HW289764   5.852   6.263   9.359  0.6843 -0.1742  0.7399
29253SOL     OW89765   9.960   1.286  10.233 -0.4278  0.8105 -0.3046
29253SOL    HW189766  10.021   1.308  10.303 -1.7594  0.8920  0.8745
29253SOL    HW289767   9.893   1.354  10.237 -1.2485  0.0467 -0.7504
29254SOL     OW89768   0.899   3.583  10.444  0.3772  0.1233 -0.8471
29254SOL    HW189769   0.897   3.656  10.506  2.0132 -0.3713 -0.1260
29254SOL    HW289770   0.897   3.505  10.500  1.6598 -0.3316 -1.3865
29255SOL     OW89771   7.265   5.278   4.306 -0.4463 -0.5891 -0.0378
29255SOL    HW189772   7.310   5.298   4.388  0.0664 -1.7704 -0.0011
29255SOL    HW289773   7.335   5.274   4.241 -0.9527  1.3109 -0.7697
29256SOL     OW89774   4.759   9.117   5.007  0.4013  0.0348 -0.1777
29256SOL    HW189775   4.695   9.084   5.071 -0.8843 -1.4799 -2.1087
29256SOL    HW289776   4.833   9.057   5.015  0.8530  0.7106  0.8411
29257SOL     OW89777   2.669   6.156   5.699 -0.6801 -0.1373 -0.1982
29257SOL    HW189778   2.756   6.168   5.660 -0.5184  0.9985  0.4681
29257SOL    HW289779   2.637   6.074   5.660 -0.5426  0.9175 -2.7243
29258SOL     OW89780   1.627   7.974   0.672 -0.0520  0.2541  0.0131
29258SOL    HW189781   1.552   7.934   0.630 -0.8467  0.2523  1.3858
29258SOL    HW289782   1.632   7.933   0.758  0.2683  1.7049  0.7248
29259SOL     OW89783   3.996   3.369   9.229  0.5071  0.0616 -0.0237
29259SOL    HW189784   3.908   3.382   9.194  0.6159  1.5004  0.1786
29259SOL    HW289785   4.054   3.376   9.153  0.5811  1.1760  0.1071
29260SOL     OW89786   2.515   0.153   9.770  0.0134  0.6513  0.9180
29260SOL    HW189787   2.494   0.063   9.797 -0.2088 -0.3141 -2.1245
29260SOL    HW289788   2.430   0.198   9.770 -0.4166 -0.1083 -0.6854
29261SOL     OW89789  10.657  10.119   2.034 -0.1932  0.4129  0.3756
29261SOL    HW189790  10.739  10.168   2.024  0.1454 -0.5546 -2.7661
29261SOL    HW289791  10.589  10.185   2.034  0.1989  1.1483 -4.4543
29262SOL     OW89792   5.186   2.363   9.837 -0.0648 -0.0941 -0.5141
29262SOL    HW189793   5.220   2.307   9.907  0.0006  1.6377  0.8848
29262SOL    HW289794   5.236   2.336   9.759  0.9266 -1.0302  0.4102
29263SOL     OW89795   2.396   1.274   2.498 -0.1003 -0.1986  0.0316
29263SOL    HW189796   2.456   1.220   2.445 -0.7893 -0.2049 -0.7776
29263SOL    HW289797   2.453   1.337   2.542  0.5055 -0.1246 -0.8110
29264SOL     OW89798   7.051   6.473   2.093  0.8219  0.3894  0.0387
29264SOL    HW189799   7.050   6.502   2.002  1.7957  1.2199  0.2750
29264SOL    HW289800   7.098   6.390   2.091  2.5190  1.3092  0.0038
29265SOL     OW89801   5.620   6.475   0.662 -0.2224  0.4754  0.1876
29265SOL    HW189802   5.552   6.438   0.606  1.0106 -0.6924 -0.5984
29265SOL    HW289803   5.649   6.402   0.716  0.7982  0.8099  0.1057
29266SOL     OW89804   7.660  10.261   2.038 -0.1081 -0.3479  0.5268
29266SOL    HW189805   7.606  10.308   1.975 -0.2443 -1.1593  0.0131
29266SOL    HW289806   7.749  10.268   2.003 -0.3127 -1.6713 -0.3580
29267SOL     OW89807   5.453  10.043   3.092 -0.0385  0.4445  0.0795
29267SOL    HW189808   5.429   9.953   3.114 -0.1015  0.7109  1.1856
29267SOL    HW289809   5.424  10.055   3.002  0.3221 -0.7607 -0.2194
29268SOL     OW89810   6.052   3.640   9.009 -0.9884  0.1027 -0.1356
29268SOL    HW189811   5.970   3.661   9.054 -0.8024  0.6296 -0.0325
29268SOL    HW289812   6.114   3.623   9.080 -0.5917  1.3209 -0.1626
29269SOL     OW89813   8.989   3.953   6.869 -0.2829 -0.2898 -0.2469
29269SOL    HW189814   9.036   3.879   6.909  2.4457  1.8288  0.8111
29269SOL    HW289815   8.957   4.004   6.944  0.8297  1.3059 -0.8052
29270SOL     OW89816  10.337   1.611   3.732 -0.0451 -0.5382  0.1433
29270SOL    HW189817  10.256   1.562   3.744  0.6589 -1.6337  0.4720
29270SOL    HW289818  10.364   1.635   3.820 -0.1560  0.0952  0.0132
29271SOL     OW89819   9.528   3.730   1.719 -0.4739  0.0218 -0.3802
29271SOL    HW189820   9.533   3.815   1.673 -2.1865 -0.2451 -1.1538
29271SOL    HW289821   9.579   3.670   1.664  0.2180  0.3981 -0.1648
29272SOL     OW89822   8.193   1.481   9.779  0.0425  0.1442  0.0153
29272SOL    HW189823   8.140   1.501   9.856 -0.1933 -1.4345  0.3031
29272SOL    HW289824   8.150   1.404   9.740  0.3175  0.7469 -1.5384
29273SOL     OW89825   9.893   6.165   1.024  0.0343 -0.1221  0.0344
29273SOL    HW189826   9.984   6.153   0.999  0.6433  1.1965  1.4200
29273SOL    HW289827   9.843   6.139   0.947  1.6704  1.7813 -1.7909
29274SOL     OW89828  10.433   8.664   8.111  0.5773 -0.1693 -0.2479
29274SOL    HW189829  10.482   8.590   8.076 -0.6758 -0.7786 -0.7815
29274SOL    HW289830  10.410   8.717   8.034  1.3024  0.6969  0.1081
29275SOL     OW89831   5.188   6.576   2.705 -0.5709 -0.7780 -0.0162
29275SOL    HW189832   5.127   6.593   2.777 -0.9575  0.5352 -0.6220
29275SOL    HW289833   5.262   6.635   2.723  0.5767 -2.3662  0.7263
29276SOL     OW89834   7.507  10.127   8.389 -0.4450  0.0098  0.0201
29276SOL    HW189835   7.456  10.208   8.385 -1.1797 -0.4235  0.4882
29276SOL    HW289836   7.454  10.063   8.342 -0.9623 -0.7584  1.5630
29277SOL     OW89837   8.908  10.845   7.898 -0.0613 -0.3652  0.8500
29277SOL    HW189838   8.951  10.781   7.955  0.0891  0.1968  1.3714
29277SOL    HW289839   8.883  10.917   7.956 -1.3759 -0.5071  0.4845
29278SOL     OW89840   1.800   2.304   9.008 -0.3959 -0.0617 -0.2740
29278SOL    HW189841   1.766   2.374   9.063  1.0823  1.7681 -1.5346
29278SOL    HW289842   1.751   2.312   8.926 -0.6139 -0.8859 -0.2277
29279SOL     OW89843   1.931   5.524   4.894 -0.0147  0.1825 -0.3060
29279SOL    HW189844   1.904   5.502   4.805 -0.7965 -1.9733  0.3999
29279SOL    HW289845   1.869   5.593   4.921  1.2443  2.0617 -1.9039
29280SOL     OW89846   3.314   0.392   7.012  0.1982 -0.3667  0.5840
29280SOL    HW189847   3.256   0.357   6.944 -1.0778 -0.1060  1.5167
29280SOL    HW289848   3.399   0.402   6.967 -0.7602  0.4185 -1.1626
29281SOL     OW89849   3.416   7.240  10.138 -0.1960  0.4627  0.1397
29281SOL    HW189850   3.429   7.325  10.179  3.6342 -0.3018  0.9224
29281SOL    HW289851   3.461   7.247  10.054 -1.4511 -0.2698 -0.6194
29282SOL     OW89852   5.632   1.428   7.673 -0.0157 -0.2838 -0.3427
29282SOL    HW189853   5.654   1.460   7.761  1.1337  0.9239 -1.0242
29282SOL    HW289854   5.682   1.485   7.614 -2.3185  0.2871 -1.8907
29283SOL     OW89855   3.068   8.486   9.978  0.7307 -0.3822  0.6901
29283SOL    HW189856   3.159   8.489   9.949  0.9145 -0.1688  1.2649
29283SOL    HW289857   3.070   8.435  10.059  0.2262 -1.0034  0.3199
29284SOL     OW89858   7.938   9.225  10.178 -0.3073 -0.1163 -0.1482
29284SOL    HW189859   7.909   9.173  10.103  0.6322  0.2874 -0.8121
29284SOL    HW289860   8.009   9.174  10.216 -1.2582 -0.6777  0.9431
29285SOL     OW89861   9.736   1.685   8.891 -0.1034  0.3145 -0.6789
29285SOL    HW189862   9.759   1.727   8.974 -1.5210  0.9704 -0.5772
29285SOL    HW289863   9.647   1.717   8.872  0.3742  0.6202 -2.7141
29286SOL     OW89864   5.189   3.335   3.077 -0.0608 -0.2811  0.1206
29286SOL    HW189865   5.122   3.394   3.112 -0.3972 -0.8130  0.3929
29286SOL    HW289866   5.151   3.247   3.087 -0.3026 -0.4512 -1.8604
29287SOL     OW89867   6.544   6.128   2.332  0.1321 -0.1342 -0.3022
29287SOL    HW189868   6.494   6.058   2.290 -1.9162  1.8116 -1.2990
29287SOL    HW289869   6.603   6.159   2.264  1.7120 -1.4150  0.4173
29288SOL     OW89870   2.897   9.108   6.847 -0.1182 -0.3036  0.5736
29288SOL    HW189871   2.920   9.130   6.757 -1.4657 -0.0314  0.2686
29288SOL    HW289872   2.909   9.190   6.896 -0.1920 -0.2291  0.4672
29289SOL     OW89873   7.957   4.177   1.093  0.6576 -0.2133  0.5662
29289SOL    HW189874   7.963   4.107   1.158  0.0913 -1.7815 -0.9871
29289SOL    HW289875   8.031   4.161   1.034  1.5937  1.6164  1.1723
29290SOL     OW89876   3.258   2.850   0.025  0.2399  0.2120  0.0980
29290SOL    HW189877   3.330   2.890   0.074 -0.2243  1.5021 -0.2249
29290SOL    HW289878   3.280   2.867  -0.067 -0.3438  0.3942 -0.0103
29291SOL     OW89879   5.351   6.720   4.444 -0.6341  0.3198 -0.1359
29291SOL    HW189880   5.416   6.655   4.418  1.0046  1.4516  0.8931
29291SOL    HW289881   5.298   6.677   4.511 -0.6431 -0.4668 -0.6425
29292SOL     OW89882   6.593   4.458   5.403  0.8110 -0.4122  0.0327
29292SOL    HW189883   6.596   4.550   5.378 -0.5679 -0.3644 -0.0375
29292SOL    HW289884   6.611   4.458   5.497  0.9679 -0.0906  0.0042
29293SOL     OW89885   2.876   8.045   4.705  0.0794  0.3096 -0.3126
29293SOL    HW189886   2.808   7.985   4.675 -0.0562 -0.2148  0.9826
29293SOL    HW289887   2.902   8.011   4.790  0.4643  1.7184  0.1601
29294SOL     OW89888   3.889   0.680   2.386  0.2694  0.3284 -0.3193
29294SOL    HW189889   3.931   0.645   2.308 -0.0148  1.0323 -0.8007
29294SOL    HW289890   3.952   0.743   2.421  0.7780 -0.6146  0.5398
29295SOL     OW89891   6.020   1.771   4.263  0.2268 -0.5349 -0.6169
29295SOL    HW189892   5.979   1.826   4.330  0.0546 -1.9307  0.4509
29295SOL    HW289893   6.017   1.825   4.184 -0.3579  0.8094  0.2765
29296SOL     OW89894   2.245   9.306   6.186 -0.1961 -0.1331 -0.2739
29296SOL    HW189895   2.331   9.271   6.161 -1.4088 -2.5821 -1.3436
29296SOL    HW289896   2.202   9.234   6.233 -2.4343  0.2379 -1.6090
29297SOL     OW89897   4.497   8.033  10.929  0.0946  0.0069 -0.1226
29297SOL    HW189898   4.431   8.102  10.942 -1.0612 -0.8923 -1.0205
29297SOL    HW289899   4.561   8.073  10.870  0.3287  0.8666  0.6942
29298SOL     OW89900   1.399   5.585   0.813  0.1639  0.0387  0.4309
29298SOL    HW189901   1.319   5.637   0.807  0.4489  0.4442  0.1231
29298SOL    HW289902   1.470   5.648   0.803  0.5001 -0.5186 -0.9393
29299SOL     OW89903   2.678   5.257   6.814  0.2445  0.0623  0.2841
29299SOL    HW189904   2.707   5.337   6.770 -1.0564  0.4360  0.0600
29299SOL    HW289905   2.755   5.200   6.815  0.6134  0.4750 -1.5002
29300SOL     OW89906   8.697   2.224   2.165 -0.4820  0.2992 -0.0106
29300SOL    HW189907   8.608   2.222   2.199 -0.6634  1.4582 -0.3923
29300SOL    HW289908   8.751   2.246   2.241 -0.5648  0.0388  0.1260
29301SOL     OW89909   7.402   6.554   5.492 -0.0147  0.6509  0.1296
29301SOL    HW189910   7.387   6.470   5.450  0.8968  0.9629 -0.8757
29301SOL    HW289911   7.331   6.610   5.461  0.9338  1.0254 -1.4724
29302SOL     OW89912   9.003   9.995   0.611  0.5022  0.2064 -0.0858
29302SOL    HW189913   8.974   9.967   0.525  1.2422  2.5459 -1.1776
29302SOL    HW289914   9.095   9.968   0.615  0.2706 -0.5559  0.3040
29303SOL     OW89915  10.058   4.976   6.919  0.4227  0.1903  0.6263
29303SOL    HW189916  10.034   5.063   6.948  1.2382  0.6226  0.0451
29303SOL    HW289917  10.024   4.917   6.987 -0.9292  0.8715  0.5674
29304SOL     OW89918   2.760   2.028  10.068  0.0684 -0.3137  0.3409
29304SOL    HW189919   2.727   2.088  10.002  1.7672 -1.7345 -1.9816
29304SOL    HW289920   2.855   2.042  10.068  0.2638 -1.4311  1.3701
29305SOL     OW89921  10.834   7.346   3.045 -0.4497 -0.0524  0.0104
29305SOL    HW189922  10.913   7.379   3.089 -0.7344 -0.0067  0.4926
29305SOL    HW289923  10.801   7.422   2.997  0.8960 -0.5588 -1.8481
29306SOL     OW89924   7.047   5.992   8.025 -0.3283 -0.2530 -0.0240
29306SOL    HW189925   7.093   6.064   7.983 -0.7368  0.7083  1.1341
29306SOL    HW289926   6.954   6.011   8.012 -0.4885  0.3780  1.7281
29307SOL     OW89927   4.986  10.304   6.811 -0.0286  0.1871 -0.6482
29307SOL    HW189928   5.071  10.346   6.801  0.5875 -1.1487 -1.3675
29307SOL    HW289929   4.929  10.372   6.848  1.6434  0.7524  1.0467
29308SOL     OW89930   4.006   1.105   0.784  0.1885  0.5330  0.0323
29308SOL    HW189931   3.987   1.077   0.873 -1.3647  0.0127 -0.4323
29308SOL    HW289932   4.066   1.179   0.794  1.4344 -0.5851  1.4276
29309SOL     OW89933   8.463   3.598   6.049 -0.2488  0.6933 -0.1361
29309SOL    HW189934   8.495   3.656   5.980  1.1622  1.3369  1.0085
29309SOL    HW289935   8.381   3.638   6.078 -0.1902  1.1235 -0.5529
29310SOL     OW89936   3.769   7.359   8.200  0.8243  0.1287 -0.1678
29310SOL    HW189937   3.781   7.450   8.172  0.6726 -0.2049 -1.4148
29310SOL    HW289938   3.859   7.324   8.207  0.8534 -0.1016 -1.4426
29311SOL     OW89939   6.799   9.823   9.083 -0.1582 -0.0726  0.2058
29311SOL    HW189940   6.720   9.864   9.117 -1.1776 -0.9276 -1.0445
29311SOL    HW289941   6.777   9.731   9.076  1.1276 -0.4025  0.2761
29312SOL     OW89942   7.007   2.285   9.990  0.1880  0.3248  0.2775
29312SOL    HW189943   7.094   2.282   9.950 -1.2603 -0.2322 -3.2138
29312SOL    HW289944   6.984   2.378   9.992  0.0483  0.3235 -0.8506
29313SOL     OW89945   1.612   0.296   8.867  0.8723 -0.2525 -0.0477
29313SOL    HW189946   1.517   0.294   8.871  0.9040 -0.9654  0.6486
29313SOL    HW289947   1.639   0.347   8.943  1.0309  0.9191 -0.8588
29314SOL     OW89948   3.811   6.964   6.778 -0.0546  0.4772  0.0380
29314SOL    HW189949   3.718   6.985   6.773  0.0053  0.5482 -0.8830
29314SOL    HW289950   3.853   7.047   6.802 -0.1373  0.6657 -0.4631
29315SOL     OW89951   7.708   0.693   8.591  0.8117  0.3944 -0.3275
29315SOL    HW189952   7.780   0.682   8.529  0.8332 -1.7652 -0.0302
29315SOL    HW289953   7.724   0.625   8.657 -2.0552 -0.9429 -0.8476
29316SOL     OW89954   7.504   6.425   4.458  0.0544  0.1469  0.1566
29316SOL    HW189955   7.465   6.437   4.371  0.1948 -0.9752 -0.0759
29316SOL    HW289956   7.591   6.466   4.451  0.2527 -0.3506 -0.3915
29317SOL     OW89957   1.724  10.195   1.536 -0.1099  0.4199 -0.0499
29317SOL    HW189958   1.760  10.284   1.544 -0.0759  0.6577 -2.2951
29317SOL    HW289959   1.685  10.193   1.449 -1.4186 -1.3333  0.5351
29318SOL     OW89960   3.314   6.072   1.639 -0.4825  0.2851 -0.5663
29318SOL    HW189961   3.344   5.982   1.625 -1.7873 -0.4662  1.1585
29318SOL    HW289962   3.330   6.115   1.555  0.8028 -1.3545 -1.2302
29319SOL     OW89963   6.044   1.080   7.734  0.3774  0.1196  0.1855
29319SOL    HW189964   5.984   1.023   7.781 -0.1232 -1.1044 -1.8134
29319SOL    HW289965   5.995   1.110   7.658  1.8188  0.2374 -0.7482
29320SOL     OW89966   9.180  10.689   4.260  0.8271  0.3850 -0.5032
29320SOL    HW189967   9.232  10.667   4.183 -0.0379  0.2327 -1.0557
29320SOL    HW289968   9.095  10.715   4.225 -0.2099 -1.4696  0.4464
29321SOL     OW89969   8.225   8.807   1.408  0.1237  0.0062  0.2485
29321SOL    HW189970   8.180   8.852   1.336  0.5556 -0.3962 -0.2818
29321SOL    HW289971   8.166   8.815   1.482 -0.4249  0.2439 -0.2076
29322SOL     OW89972   8.075   4.877  10.620  0.5953  0.0752 -0.3702
29322SOL    HW189973   7.997   4.880  10.676  0.2584 -0.5383 -0.8046
29322SOL    HW289974   8.078   4.788  10.586  0.8865  0.3911 -1.2072
29323SOL     OW89975   5.790   7.749   5.448 -0.1282  0.2464 -0.3937
29323SOL    HW189976   5.739   7.780   5.523 -0.5259 -1.7001  0.1967
29323SOL    HW289977   5.873   7.720   5.485 -1.1148 -2.7647 -0.2415
29324SOL     OW89978   9.510   3.056  10.141  0.1144 -0.3545  0.0483
29324SOL    HW189979   9.602   3.056  10.116 -0.5246  0.0291 -2.4861
29324SOL    HW289980   9.492   2.964  10.164  0.8910 -0.6154 -0.3541
29325SOL     OW89981  10.723   6.095   8.740  0.3941  0.0514 -0.2160
29325SOL    HW189982  10.755   6.185   8.742 -0.0168  0.1797  1.2671
29325SOL    HW289983  10.788   6.048   8.688  1.5309  0.8661  0.4353
29326SOL     OW89984   2.790   7.333   0.629  0.1224  0.4870  0.3798
29326SOL    HW189985   2.741   7.411   0.604  4.2009  2.4531 -2.6838
29326SOL    HW289986   2.870   7.367   0.670  0.5996 -2.3163  2.0099
29327SOL     OW89987   1.795   9.101   7.617 -0.4718 -0.2708 -0.0335
29327SOL    HW189988   1.753   9.187   7.608 -0.5734 -0.4352 -1.2480
29327SOL    HW289989   1.761   9.066   7.699  0.0898  1.1341  0.8245
29328SOL     OW89990   4.050   0.342   6.427 -0.2235  0.2268 -1.1199
29328SOL    HW189991   4.076   0.408   6.363  0.5648  1.0864  0.0474
29328SOL    HW289992   4.106   0.267   6.409 -1.3044 -0.2651 -2.6248
29329SOL     OW89993   0.838   8.086   7.202 -0.6748  0.5302 -0.1077
29329SOL    HW189994   0.931   8.097   7.183 -0.3064 -1.0182  0.6758
29329SOL    HW289995   0.812   8.009   7.152 -0.9879 -0.3634  1.3784
29330SOL     OW89996   7.101   4.772   0.226 -0.3862  0.1558 -0.2260
29330SOL    HW189997   7.008   4.792   0.235 -0.5189 -0.7565  0.5068
29330SOL    HW289998   7.109   4.736   0.138 -1.2823 -2.5666  0.7109
29331SOL     OW89999   9.439   1.523   2.413 -0.0454 -0.1240 -0.5725
29331SOL    HW190000   9.468   1.480   2.332  0.5171 -2.5125  0.8000
29331SOL    HW290001   9.511   1.508   2.474 -1.3258 -0.2290  0.9710
29332SOL     OW90002   2.082   4.561   3.176 -0.1352  0.0233 -1.0998
29332SOL    HW190003   2.009   4.599   3.225  0.6162 -1.8323  1.7513
29332SOL    HW290004   2.155   4.620   3.194  0.2133 -0.8127  0.4191
29333SOL     OW90005  10.837   2.606   0.364  0.2063 -1.0421 -0.4372
29333SOL    HW190006  10.900   2.591   0.435  0.3184 -0.2610 -0.3694
29333SOL    HW290007  10.889   2.602   0.284  0.2534 -0.8938 -0.4130
29334SOL     OW90008  10.135   9.060   1.174  0.5484  0.0193 -0.3120
29334SOL    HW190009  10.190   9.031   1.102 -0.4700 -0.0505 -1.0864
29334SOL    HW290010  10.086   9.134   1.138 -0.2531 -0.2567  0.1884
29335SOL     OW90011  10.590   9.493   5.937  0.2408  0.4143 -0.5018
29335SOL    HW190012  10.671   9.456   5.971  0.5792  0.4440 -1.2658
29335SOL    HW290013  10.565   9.435   5.865 -1.9293 -1.2502  1.4280
29336SOL     OW90014   5.845   8.224   9.630 -0.5450  0.0595  0.2374
29336SOL    HW190015   5.923   8.182   9.667 -0.5258  0.6567  0.8738
29336SOL    HW290016   5.843   8.311   9.669 -0.0970  1.0127 -1.7323
29337SOL     OW90017   2.793  10.464  10.044  0.0136 -0.4795  0.4880
29337SOL    HW190018   2.791  10.470   9.949  1.8908 -1.8404  0.2853
29337SOL    HW290019   2.720  10.518  10.074 -0.2030  0.5278 -1.6795
29338SOL     OW90020   3.018  10.087   2.889 -0.2736 -0.1005  0.0154
29338SOL    HW190021   3.086  10.020   2.884 -0.4774 -0.3203  0.1776
29338SOL    HW290022   3.057  10.163   2.847  0.6314  0.2368  1.3905
29339SOL     OW90023   9.953   7.868   5.136  0.2318 -0.3032 -0.2309
29339SOL    HW190024   9.929   7.956   5.106  0.7301 -0.5405 -1.3788
29339SOL    HW290025  10.020   7.883   5.203 -1.2051  0.2524  1.1424
29340SOL     OW90026   9.839   7.252  10.521 -0.1952 -0.3367 -0.1907
29340SOL    HW190027   9.758   7.301  10.505 -0.0331  0.3921  1.1395
29340SOL    HW290028   9.813   7.160  10.514 -1.1394 -0.1080  0.2438
29341SOL     OW90029   9.205   0.609   2.023  0.0868 -0.3316  0.7043
29341SOL    HW190030   9.150   0.686   2.008  0.4428 -0.3077 -0.6400
29341SOL    HW290031   9.235   0.619   2.113  1.0065  1.7299  0.2418
29342SOL     OW90032   9.428   0.667   5.223 -0.4517 -0.1730 -0.3824
29342SOL    HW190033   9.383   0.690   5.304  0.2029  0.3571 -0.1532
29342SOL    HW290034   9.469   0.749   5.195  1.1895 -0.8378 -0.0441
29343SOL     OW90035   4.896   5.030   9.341 -0.3328 -0.0773 -0.5406
29343SOL    HW190036   4.900   5.108   9.285  2.2443  2.7308  3.0443
29343SOL    HW290037   4.832   5.053   9.409  0.0285 -1.3375  0.2644
29344SOL     OW90038   5.642   6.848   5.917  0.3263 -0.1720 -0.2186
29344SOL    HW190039   5.586   6.892   5.981 -0.8620 -0.4423 -1.0482
29344SOL    HW290040   5.701   6.795   5.969  1.3899  1.8791  0.8037
29345SOL     OW90041   7.633   8.313   3.903  1.0021 -0.5632  0.1142
29345SOL    HW190042   7.614   8.354   3.819  0.2421  0.0951  0.5836
29345SOL    HW290043   7.550   8.272   3.929  1.4889 -1.6061  0.1026
29346SOL     OW90044   5.050   3.080   8.685 -0.1543 -0.1541  0.1488
29346SOL    HW190045   5.041   3.042   8.598 -0.5166 -0.5698  0.3657
29346SOL    HW290046   5.131   3.131   8.681  0.4592 -1.1389 -0.0677
29347SOL     OW90047   2.176  10.566   4.993  0.3804  0.2757  0.4837
29347SOL    HW190048   2.246  10.501   5.008 -0.4928 -0.4526  1.6128
29347SOL    HW290049   2.104  10.536   5.050 -1.6731 -0.2161 -2.1993
29348SOL     OW90050   3.755   7.322   2.949 -0.3447  0.3130 -0.3841
29348SOL    HW190051   3.690   7.270   2.901 -1.5309  2.1511 -0.8701
29348SOL    HW290052   3.779   7.392   2.889 -1.1337  2.1128  1.3066
29349SOL     OW90053   3.170   0.200   9.923  0.2831  0.2511 -0.3973
29349SOL    HW190054   3.211   0.262   9.982 -0.6468  0.0887  0.4416
29349SOL    HW290055   3.086   0.241   9.900  1.2575  1.0640 -2.8931
29350SOL     OW90056   7.012   5.800   7.745  0.3767  0.0205 -0.0784
29350SOL    HW190057   7.077   5.731   7.759 -0.5074 -0.4341  2.3322
29350SOL    HW290058   7.061   5.882   7.750  1.0316 -0.3589 -0.1771
29351SOL     OW90059   1.488   0.605   8.190 -0.1047  0.0303 -0.1655
29351SOL    HW190060   1.458   0.685   8.146 -0.8341  0.4172  0.9805
29351SOL    HW290061   1.448   0.534   8.141  1.4971  0.2683 -1.9266
29352SOL     OW90062   7.990   0.771   7.538 -0.2988 -0.2091  0.1883
29352SOL    HW190063   8.053   0.820   7.590 -0.0701  1.0643 -1.2153
29352SOL    HW290064   8.041   0.701   7.498 -0.0478  0.0238  0.0952
29353SOL     OW90065   5.778   0.766   8.355  0.4179 -0.7639  0.5080
29353SOL    HW190066   5.759   0.782   8.263  0.6119  0.2687  0.6365
29353SOL    HW290067   5.862   0.810   8.371  0.8004 -1.6308  0.9842
29354SOL     OW90068   5.759   7.061   7.290  0.0338  0.2883 -0.2589
29354SOL    HW190069   5.731   7.129   7.351 -0.4758  0.4686 -0.6824
29354SOL    HW290070   5.679   7.036   7.243  0.2102 -0.5983 -0.1152
29355SOL     OW90071   0.788   1.767   8.464  0.1860  0.3825  0.4538
29355SOL    HW190072   0.837   1.687   8.484 -0.5973  0.0691  1.1625
29355SOL    HW290073   0.792   1.774   8.368  1.9714  0.6042  0.4992
29356SOL     OW90074   1.374   6.883   1.322  0.0518 -0.4268 -0.3400
29356SOL    HW190075   1.359   6.932   1.402  0.7111 -0.3072 -0.2897
29356SOL    HW290076   1.339   6.796   1.340  1.1515 -0.7213  0.4570
29357SOL     OW90077   8.631   9.835   6.369  0.3270  0.0010  0.4257
29357SOL    HW190078   8.710   9.881   6.340  0.5430 -1.8976 -2.3758
29357SOL    HW290079   8.558   9.883   6.330  0.2427  0.3781  1.0338
29358SOL     OW90080   9.736   7.161   1.417 -0.1136  0.4101  0.4318
29358SOL    HW190081   9.721   7.070   1.443  1.6176  0.6166  2.3996
29358SOL    HW290082   9.689   7.213   1.482  1.2315  0.9209  1.0309
29359SOL     OW90083   0.773   1.450   7.164 -0.1029 -0.0480 -0.2460
29359SOL    HW190084   0.775   1.465   7.259 -1.7468 -0.7980 -0.0669
29359SOL    HW290085   0.766   1.537   7.126 -0.2588  0.2054  0.3518
29360SOL     OW90086   0.006   5.134  10.359 -0.2999 -0.2440  0.1280
29360SOL    HW190087  -0.078   5.179  10.372 -0.6519 -1.2453  1.5162
29360SOL    HW290088   0.020   5.085  10.440  1.5858 -0.1893 -0.1225
29361SOL     OW90089   1.447   7.354   4.763  0.4315 -0.4326 -0.7014
29361SOL    HW190090   1.525   7.338   4.710  0.8504  0.2739 -0.3227
29361SOL    HW290091   1.376   7.363   4.700  1.0933  1.4119 -1.2575
29362SOL     OW90092   0.643   8.673   0.160 -0.6679 -0.0811  0.3038
29362SOL    HW190093   0.571   8.731   0.135 -0.3743 -0.6362 -2.1527
29362SOL    HW290094   0.721   8.713   0.120  0.6561  1.0025  3.6703
29363SOL     OW90095   3.958   2.398   6.788 -0.9791 -0.0773  0.2626
29363SOL    HW190096   4.004   2.359   6.863 -1.7271  0.3806  0.9709
29363SOL    HW290097   3.934   2.486   6.818  0.7018  1.0007 -1.3132
29364SOL     OW90098   6.807   8.033   5.929 -0.3373 -0.1489 -0.0491
29364SOL    HW190099   6.842   7.991   5.851 -0.9074  1.3945 -1.1818
29364SOL    HW290100   6.732   8.083   5.898 -2.1058 -1.4085  1.8921
29365SOL     OW90101   0.455   7.498   7.843  0.4207 -0.1852  0.2575
29365SOL    HW190102   0.412   7.413   7.835  1.7840 -1.0893  1.9197
29365SOL    HW290103   0.400   7.557   7.791 -1.3115 -1.7828  0.1434
29366SOL     OW90104   7.660   8.861   9.017 -0.5670  0.0055 -0.0404
29366SOL    HW190105   7.658   8.778   9.066 -0.8917 -0.5499 -0.9614
29366SOL    HW290106   7.598   8.847   8.945 -1.4887  1.4725  0.4396
29367SOL     OW90107   0.017   8.258   4.156 -0.0506  0.6664 -0.2610
29367SOL    HW190108   0.084   8.303   4.105  0.5113 -1.0158 -1.0980
29367SOL    HW290109   0.056   8.246   4.242 -0.3339  2.0156  0.0732
29368SOL     OW90110   2.727   7.104   0.265 -0.0862 -0.3271 -0.5580
29368SOL    HW190111   2.735   7.014   0.232  1.5275 -0.2951 -0.3350
29368SOL    HW290112   2.693   7.094   0.354  1.0344 -0.7961 -0.1704
29369SOL     OW90113   9.775   8.845   6.645  0.0227 -0.0176 -0.3616
29369SOL    HW190114   9.719   8.891   6.582  0.4794  1.8232  0.5085
29369SOL    HW290115   9.717   8.782   6.687 -0.7215 -0.0314 -1.3684
29370SOL     OW90116   9.766   1.093   8.271 -0.4488  0.0023 -0.1773
29370SOL    HW190117   9.756   1.187   8.285 -0.6744 -0.1634  0.8491
29370SOL    HW290118   9.681   1.056   8.292  0.4837 -0.7651  2.7910
29371SOL     OW90119   5.929  10.985  10.039  0.0953 -0.1164 -0.0658
29371SOL    HW190120   6.003  11.037  10.008 -1.8658  3.8227  1.1634
29371SOL    HW290121   5.946  10.972  10.132 -0.4161  0.2922  0.0920
29372SOL     OW90122   4.576   8.470   9.908 -0.6953 -0.2413 -0.1576
29372SOL    HW190123   4.619   8.402   9.857  0.8600  0.9081 -0.4451
29372SOL    HW290124   4.518   8.513   9.845 -1.1370 -0.8231 -0.1536
29373SOL     OW90125   9.456   2.309   5.699 -0.2527 -0.5789  0.2530
29373SOL    HW190126   9.378   2.277   5.744 -0.8072 -0.1346 -0.3848
29373SOL    HW290127   9.507   2.231   5.679 -0.6604 -0.8900  0.4342
29374SOL     OW90128   8.490   4.397   3.312 -0.2990  0.0858  0.2779
29374SOL    HW190129   8.493   4.448   3.231  2.7842  0.2821  0.3870
29374SOL    HW290130   8.501   4.306   3.284 -2.0966 -0.1858  0.3418
29375SOL     OW90131   0.377   4.788   0.838  0.1604 -0.1709  0.3679
29375SOL    HW190132   0.332   4.712   0.876 -1.3864  0.2873 -0.4677
29375SOL    HW290133   0.436   4.817   0.907  2.2214 -3.2120  0.1021
29376SOL     OW90134   4.662   2.005   4.578 -0.1646  0.0730 -0.1627
29376SOL    HW190135   4.570   2.030   4.569 -0.8772 -2.4518 -0.6750
29376SOL    HW290136   4.688   1.976   4.490  0.3756 -1.4137  0.4457
29377SOL     OW90137   0.601   7.122   4.013 -0.1262 -0.1365  0.2061
29377SOL    HW190138   0.687   7.093   3.982 -0.2346 -2.0527  1.4888
29377SOL    HW290139   0.540   7.058   3.978 -1.5083  2.5699 -2.7898
29378SOL     OW90140  10.483   3.592   8.040  0.2922  0.6169 -0.5640
29378SOL    HW190141  10.424   3.530   7.998  0.3605  1.7765 -2.4859
29378SOL    HW290142  10.469   3.579   8.134 -0.2937 -1.6899 -0.9167
29379SOL     OW90143  10.925  10.204   8.923  0.2576  0.2764  0.4253
29379SOL    HW190144  10.864  10.277   8.911  0.1619  0.0228 -0.7168
29379SOL    HW290145  10.891  10.134   8.868  1.2243 -0.0824  0.2537
29380SOL     OW90146   6.228   3.119   0.150  0.7694  0.7153 -0.0395
29380SOL    HW190147   6.136   3.125   0.174  0.9227 -1.0252  1.2555
29380SOL    HW290148   6.231   3.145   0.058 -0.9403  1.1991  0.0044
29381SOL     OW90149   2.707   9.809   9.838  0.1253 -0.0547 -0.3367
29381SOL    HW190150   2.710   9.717   9.809 -2.8684 -0.4635  0.4006
29381SOL    HW290151   2.632   9.846   9.792  0.9130  1.9061 -0.1279
29382SOL     OW90152   3.322  10.656   9.528  0.7999 -0.5593 -0.3595
29382SOL    HW190153   3.244  10.711   9.534  1.1788 -0.1277  0.7031
29382SOL    HW290154   3.380  10.703   9.469  0.5636 -0.5154 -0.5596
29383SOL     OW90155   9.388   1.521   1.188  0.0642 -0.2449 -0.0195
29383SOL    HW190156   9.404   1.535   1.282  1.8777 -1.8997 -0.0050
29383SOL    HW290157   9.300   1.484   1.185  1.5797 -4.9070  1.7604
29384SOL     OW90158   6.533   5.607   8.584 -0.5155 -0.0484  0.3618
29384SOL    HW190159   6.526   5.547   8.510  0.0999 -1.8137  1.6784
29384SOL    HW290160   6.619   5.648   8.573 -0.4701 -0.2234  0.0476
29385SOL     OW90161   9.103   6.588   9.199 -0.1237  0.6974 -0.1634
29385SOL    HW190162   9.093   6.644   9.123 -0.0420 -1.5945 -1.9643
29385SOL    HW290163   9.180   6.534   9.180 -0.1612 -0.0192  1.4894
29386SOL     OW90164   1.960  10.943  10.615 -0.3356 -0.0898 -0.0380
29386SOL    HW190165   1.977  10.939  10.709 -0.8339 -2.0681  0.0023
29386SOL    HW290166   1.882  10.998  10.607  0.1977  0.7851  0.6143
29387SOL     OW90167   8.323   5.224   7.175 -0.1812 -0.3721  0.1974
29387SOL    HW190168   8.395   5.260   7.228 -0.7726 -0.6723  1.2326
29387SOL    HW290169   8.360   5.217   7.087 -0.1440  3.2314 -0.2445
29388SOL     OW90170   6.939   6.511   0.758  0.0355 -0.6698 -0.0102
29388SOL    HW190171   6.970   6.574   0.693  0.3441 -0.8540 -0.0386
29388SOL    HW290172   6.992   6.528   0.835 -0.4425 -0.3379  0.2541
29389SOL     OW90173   8.843   5.306   4.951 -0.2800 -0.7463 -0.0899
29389SOL    HW190174   8.845   5.379   5.014  0.0997 -1.4197  0.6960
29389SOL    HW290175   8.866   5.229   5.003  0.1174 -1.3110 -1.0786
29390SOL     OW90176   6.878   0.680   8.070 -0.4001 -0.4423 -0.0699
29390SOL    HW190177   6.974   0.684   8.064 -0.3703  0.0490  0.6107
29390SOL    HW290178   6.848   0.755   8.018 -0.3298  0.5950  1.3212
29391SOL     OW90179   0.928   0.277   9.285 -0.1890  0.2412 -0.3092
29391SOL    HW190180   0.839   0.280   9.321  0.3072  0.4212  0.9385
29391SOL    HW290181   0.918   0.308   9.195 -1.8942 -2.7162 -1.2737
29392SOL     OW90182   4.248   4.352   3.734  0.1306  0.2792  0.4673
29392SOL    HW190183   4.342   4.355   3.746  0.4006 -1.3821 -0.7424
29392SOL    HW290184   4.236   4.362   3.639 -0.9794  1.3569  0.7020
29393SOL     OW90185  10.955  10.770   3.474  0.5721  0.7764  0.2238
29393SOL    HW190186  10.889  10.748   3.539 -0.3005 -1.2475 -1.2351
29393SOL    HW290187  11.012  10.693   3.470  0.3041  0.6242 -1.7018
29394SOL     OW90188   9.505   5.109   7.812  0.0896  0.1971  0.5530
29394SOL    HW190189   9.555   5.036   7.776 -1.2005  0.2537 -1.4931
29394SOL    HW290190   9.535   5.116   7.903  2.0974 -1.2042  0.0578
29395SOL     OW90191   3.144   4.136   0.683  0.3518 -0.0883 -0.1292
29395SOL    HW190192   3.165   4.044   0.666 -0.6059 -0.7210  1.8553
29395SOL    HW290193   3.169   4.150   0.774 -2.8267  0.5653  0.7492
29396SOL     OW90194   0.907   9.763   6.150  0.0670 -0.3290 -0.2845
29396SOL    HW190195   0.815   9.788   6.155  0.0904 -0.3937  0.6729
29396SOL    HW290196   0.951   9.842   6.118 -0.1215  0.2425  0.7977
29397SOL     OW90197   6.956   2.665   0.194  0.6471 -0.1981  0.0065
29397SOL    HW190198   6.903   2.587   0.205  0.7127 -0.1870  0.3915
29397SOL    HW290199   6.979   2.693   0.282  0.1439  0.5920 -0.1027
29398SOL     OW90200   1.275   7.272   6.068  0.4101 -0.2802 -0.2006
29398SOL    HW190201   1.186   7.305   6.082  1.0718  1.1344  0.9791
29398SOL    HW290202   1.289   7.279   5.974 -0.9309 -1.1222 -0.4875
29399SOL     OW90203   9.238   0.211   1.032  0.2330  0.0380 -0.1471
29399SOL    HW190204   9.326   0.244   1.017 -0.3395  2.0536  0.7209
29399SOL    HW290205   9.182   0.263   0.974 -0.4709 -0.9579 -0.4056
29400SOL     OW90206   7.616   4.246   2.393 -0.5670  0.1798 -0.2143
29400SOL    HW190207   7.669   4.243   2.473  0.3271  1.0379 -0.7468
29400SOL    HW290208   7.643   4.169   2.344 -1.4736 -0.6197  0.5040
29401SOL     OW90209   2.022   5.267   5.960 -0.3067 -0.6382 -0.2661
29401SOL    HW190210   2.004   5.246   6.051 -1.1595 -0.9357 -0.4952
29401SOL    HW290211   1.936   5.287   5.922  0.0490 -0.4080 -0.9741
29402SOL     OW90212   1.313   5.444   6.063  0.2543  0.1355 -0.0570
29402SOL    HW190213   1.374   5.497   6.114  0.4843  0.3042 -0.4981
29402SOL    HW290214   1.254   5.507   6.023 -0.3224 -0.0413  0.5071
29403SOL     OW90215   3.856   8.617   6.415 -0.0052  0.2530 -0.0484
29403SOL    HW190216   3.805   8.543   6.381 -2.3509  1.7971 -0.1747
29403SOL    HW290217   3.789   8.677   6.448  1.8763  1.8555  1.0052
29404SOL     OW90218   0.968   8.977   5.947 -0.0555 -0.7673  0.6875
29404SOL    HW190219   1.012   9.061   5.955  0.4554 -0.8358 -0.9470
29404SOL    HW290220   0.974   8.938   6.035  0.0897  0.6905  1.3512
29405SOL     OW90221  10.759   2.996  10.803  0.5872  0.6340 -0.1955
29405SOL    HW190222  10.682   2.942  10.785  1.3711 -1.0316  1.1615
29405SOL    HW290223  10.768   3.052  10.726 -0.0332 -1.4653 -1.8834
29406SOL     OW90224   0.927   3.932   9.957  0.6329 -0.3948  0.3739
29406SOL    HW190225   0.874   3.921  10.036 -0.5256  4.0463  0.4793
29406SOL    HW290226   1.016   3.909   9.985  0.3342  1.3632  3.2427
29407SOL     OW90227   6.087   2.221   6.911 -0.4119 -0.6839  0.6506
29407SOL    HW190228   6.068   2.253   6.823  0.9523 -0.4121  0.4360
29407SOL    HW290229   6.040   2.281   6.969 -2.1476 -1.4533  0.1230
29408SOL     OW90230   4.365   3.672   5.175  0.2893  0.0049  0.5348
29408SOL    HW190231   4.337   3.717   5.095  0.9909  0.9299  0.7784
29408SOL    HW290232   4.312   3.713   5.244  0.4411 -0.0302  0.6714
29409SOL     OW90233   6.616   5.290   2.642 -0.2140  0.2241 -0.3266
29409SOL    HW190234   6.699   5.336   2.653 -0.4854  0.3906  1.1645
29409SOL    HW290235   6.595   5.301   2.549  1.5155  0.0013 -0.7882
29410SOL     OW90236   4.171   9.919   4.098  0.3469  0.0717  0.3040
29410SOL    HW190237   4.190   9.850   4.161  0.5660  1.0506  1.3467
29410SOL    HW290238   4.187  10.000   4.146  1.2673  0.8489 -1.2579
29411SOL     OW90239   5.665   3.205   4.866 -0.0494 -0.5534 -0.1732
29411SOL    HW190240   5.698   3.295   4.872  2.0229 -1.2364 -0.4847
29411SOL    HW290241   5.579   3.215   4.825  0.1084  1.2853 -0.1792
29412SOL     OW90242   3.769   9.287   0.880 -0.2889  0.0519  0.3624
29412SOL    HW190243   3.733   9.340   0.809  1.3116 -0.1505 -0.6528
29412SOL    HW290244   3.788   9.203   0.840 -0.5303 -0.4874  1.3576
29413SOL     OW90245   6.855   7.232   5.762  0.2127  0.1459 -0.3441
29413SOL    HW190246   6.911   7.212   5.837  3.3071 -0.5540 -2.6415
29413SOL    HW290247   6.802   7.154   5.750  0.2323 -0.0294  0.6619
29414SOL     OW90248   9.956   8.250   3.517  0.4715 -0.1340 -0.0976
29414SOL    HW190249   9.992   8.266   3.430  0.0081 -2.8831 -0.9138
29414SOL    HW290250   9.863   8.268   3.509  0.0633 -2.2205 -0.8355
29415SOL     OW90251   4.891  10.064   9.393  0.2021  0.4102 -0.0106
29415SOL    HW190252   4.947  10.007   9.340 -0.7006  0.1777 -0.7563
29415SOL    HW290253   4.936  10.071   9.477  1.3133  0.1940 -0.5690
29416SOL     OW90254   9.827   3.598   7.041  0.6597 -0.1771 -0.0095
29416SOL    HW190255   9.826   3.572   7.133  1.8317 -0.3606 -0.0353
29416SOL    HW290256   9.899   3.548   7.003 -0.3189 -0.6968 -1.2170
29417SOL     OW90257   0.414   6.546   8.557  0.3772 -0.1218  0.0233
29417SOL    HW190258   0.378   6.514   8.640 -0.4767  0.0559 -0.2641
29417SOL    HW290259   0.506   6.521   8.559  0.0320 -1.4408  0.3755
29418SOL     OW90260   1.720  10.664   8.985 -0.1760 -0.1999  0.0229
29418SOL    HW190261   1.795  10.711   9.021  1.5553 -2.0579 -0.9611
29418SOL    HW290262   1.697  10.713   8.906  0.8460 -0.3305 -0.3656
29419SOL     OW90263   0.576   7.023   2.740  1.4630 -0.4712  0.6210
29419SOL    HW190264   0.563   7.097   2.681 -2.0329 -0.5485  1.1061
29419SOL    HW290265   0.579   6.947   2.682 -0.0469 -0.3736  0.3873
29420SOL     OW90266   4.782   1.553   5.496  0.0932  0.1668  0.3758
29420SOL    HW190267   4.824   1.588   5.417 -1.0146  1.1855  0.2077
29420SOL    HW290268   4.705   1.608   5.508 -1.6056 -2.0499  0.2718
29421SOL     OW90269   0.883   2.695   2.953  0.0410  0.3936  0.9140
29421SOL    HW190270   0.951   2.755   2.924  0.1884 -0.5279 -0.8112
29421SOL    HW290271   0.929   2.614   2.976 -0.4642 -0.5733 -1.2063
29422SOL     OW90272   5.906   2.781   6.873 -0.1920 -0.4013 -0.0029
29422SOL    HW190273   5.948   2.754   6.955  0.6257 -0.0496 -0.2935
29422SOL    HW290274   5.979   2.802   6.814 -0.7248 -2.1244 -1.3499
29423SOL     OW90275   4.898   0.884   6.432 -0.1001 -0.2358  0.3352
29423SOL    HW190276   4.884   0.861   6.340 -0.3471 -0.3652  0.4035
29423SOL    HW290277   4.920   0.977   6.431  1.6099 -0.6148 -0.0171
29424SOL     OW90278   9.986   1.906  10.769  0.4545 -0.2105  0.1583
29424SOL    HW190279  10.011   1.994  10.742 -0.8252  0.2472  0.3605
29424SOL    HW290280  10.023   1.897  10.857 -1.8223  1.3117  1.3871
29425SOL     OW90281   1.516   4.478   3.081  0.3652  0.2896 -0.3228
29425SOL    HW190282   1.517   4.534   3.004  0.6724 -1.5656 -1.7388
29425SOL    HW290283   1.562   4.399   3.054 -1.9946 -1.6098  0.8304
29426SOL     OW90284   7.570   7.787   3.746 -0.9760 -0.2179  0.0120
29426SOL    HW190285   7.609   7.724   3.685  1.9438  1.1434  0.3217
29426SOL    HW290286   7.534   7.856   3.690  0.5989  0.4190 -0.2649
29427SOL     OW90287   0.671   2.329   5.559  0.5485 -0.1905  0.0395
29427SOL    HW190288   0.609   2.262   5.530  1.5803 -1.9375  1.6444
29427SOL    HW290289   0.745   2.321   5.500  1.0957 -1.2216  0.8253
29428SOL     OW90290   4.610  10.539   6.599  0.1549  0.0136 -0.4550
29428SOL    HW190291   4.526  10.574   6.568 -0.0942  1.0972  1.3147
29428SOL    HW290292   4.587  10.484   6.673  0.8311 -1.6442 -1.4313
29429SOL     OW90293   6.614   3.134   0.610 -0.3644 -0.3201  0.8770
29429SOL    HW190294   6.596   3.127   0.516  0.4161  0.4310  0.6612
29429SOL    HW290295   6.709   3.142   0.615 -0.3427 -1.0713  1.7848
29430SOL     OW90296   1.955   5.973   5.192 -0.1102  0.0904  0.7926
29430SOL    HW190297   1.864   6.001   5.201 -0.0365 -0.0628  2.2656
29430SOL    HW290298   1.998   6.045   5.146 -1.3249 -0.6415 -1.6614
29431SOL     OW90299   6.868   8.176   0.955  0.5380  0.2541  0.6519
29431SOL    HW190300   6.856   8.271   0.950  0.0425  0.1321 -1.0201
29431SOL    HW290301   6.918   8.154   0.876  1.4047 -0.7799  1.4651
29432SOL     OW90302   7.749   7.133  10.791 -0.4250 -0.2748 -0.7691
29432SOL    HW190303   7.821   7.102  10.846 -1.6009 -1.4656  0.1583
29432SOL    HW290304   7.757   7.082  10.710  0.6985  0.7593 -1.3527
29433SOL     OW90305   1.521   8.228   1.590 -0.4452  0.3965  0.2145
29433SOL    HW190306   1.580   8.179   1.533 -0.3451  0.8606 -0.0932
29433SOL    HW290307   1.578   8.269   1.655 -0.3836  1.0683 -0.2475
29434SOL     OW90308   6.957   1.033  10.387  0.6022 -0.0447 -0.3559
29434SOL    HW190309   6.950   0.941  10.415  1.1733  0.0217  0.0305
29434SOL    HW290310   6.928   1.033  10.296 -0.9502 -0.3381  0.1054
29435SOL     OW90311   1.835   0.422   9.499 -0.0580 -0.0508  0.0692
29435SOL    HW190312   1.898   0.351   9.512  0.9586  1.0700  1.6289
29435SOL    HW290313   1.870   0.494   9.551 -3.3034  0.2583  2.0769
29436SOL     OW90314  10.814   3.559   6.050  0.3210 -0.0247 -0.1488
29436SOL    HW190315  10.748   3.626   6.069 -0.7411 -0.6813 -1.3489
29436SOL    HW290316  10.848   3.582   5.964 -0.4381 -1.2796 -0.8135
29437SOL     OW90317   3.207   1.949   1.566  0.0986  0.0278 -0.4989
29437SOL    HW190318   3.244   1.971   1.651  2.6509 -1.6060 -1.0979
29437SOL    HW290319   3.254   2.004   1.503  0.8022 -1.2736 -1.1616
29438SOL     OW90320   1.494   3.025   9.719 -0.3329 -0.4137 -0.2591
29438SOL    HW190321   1.532   2.937   9.723 -0.7760 -0.5655  1.2453
29438SOL    HW290322   1.560   3.081   9.760 -0.9901 -0.4125  0.8271
29439SOL     OW90323   4.715   4.773   3.774  0.1342 -0.4895 -0.8587
29439SOL    HW190324   4.705   4.867   3.788 -1.2642 -0.9590  2.3077
29439SOL    HW290325   4.781   4.746   3.837 -0.5490 -1.8140 -0.6597
29440SOL     OW90326   8.768   3.368   6.077 -0.0938 -0.2187  0.4062
29440SOL    HW190327   8.837   3.395   6.138  1.4260  0.6109 -1.5518
29440SOL    HW290328   8.723   3.450   6.054  0.2607 -0.2985 -0.6163
29441SOL     OW90329   8.012  10.123   9.356  0.0394 -0.3297  0.1453
29441SOL    HW190330   8.068  10.153   9.285 -1.6768  0.4611 -0.9554
29441SOL    HW290331   7.972  10.043   9.323  0.8545 -1.1534  1.1102
29442SOL     OW90332   7.541  10.884   4.101  0.2261  0.0138 -0.1424
29442SOL    HW190333   7.577  10.926   4.180  0.1091  0.7616 -0.4789
29442SOL    HW290334   7.467  10.939   4.076 -2.1183 -2.2418  1.3194
29443SOL     OW90335   7.238   5.553   5.126  0.5649  0.1817 -0.1010
29443SOL    HW190336   7.192   5.637   5.128 -0.9459 -0.6319  1.2027
29443SOL    HW290337   7.225   5.521   5.037 -1.1765  0.1035  0.1637
29444SOL     OW90338   4.656  10.797   5.609 -0.6352  0.8734  0.2975
29444SOL    HW190339   4.603  10.720   5.629 -2.9004  2.3386  0.2777
29444SOL    HW290340   4.623  10.866   5.667  1.4144  1.8463  0.4206
29445SOL     OW90341   9.756   1.205   5.791 -0.3646 -0.5650 -0.2211
29445SOL    HW190342   9.814   1.135   5.761 -1.0062 -1.0819 -0.2628
29445SOL    HW290343   9.794   1.232   5.875  0.9198  0.2719 -1.0265
29446SOL     OW90344   2.372   5.714   4.418 -1.4544  0.0207  0.8529
29446SOL    HW190345   2.334   5.686   4.334  0.6620 -2.2536  0.5475
29446SOL    HW290346   2.424   5.791   4.397  0.2588 -1.3807 -0.3091
29447SOL     OW90347   0.835  10.027  10.678 -0.5436 -0.3789  0.0910
29447SOL    HW190348   0.769  10.095  10.663 -0.2586  0.0676  0.8300
29447SOL    HW290349   0.844  10.022  10.773  1.4650  0.5375  0.0050
29448SOL     OW90350   4.096   6.418   7.315  0.1609  0.0030 -0.5080
29448SOL    HW190351   4.184   6.454   7.302  0.2077  0.3453  0.6078
29448SOL    HW290352   4.088   6.410   7.410 -1.0229 -0.0074 -0.5967
29449SOL     OW90353   4.706   0.469   1.782 -0.1048  0.3010 -0.2574
29449SOL    HW190354   4.631   0.528   1.789 -0.3544 -0.1726  1.5347
29449SOL    HW290355   4.732   0.452   1.873  0.9075 -1.1526 -0.7775
29450SOL     OW90356   8.683   7.757   4.343 -0.1279 -0.1937  0.1585
29450SOL    HW190357   8.725   7.805   4.414  1.8472 -3.6157  1.4774
29450SOL    HW290358   8.589   7.761   4.363 -0.1643  3.3152 -0.0916
29451SOL     OW90359   9.060   6.413  10.390  0.3160 -0.2528 -0.4462
29451SOL    HW190360   8.973   6.375  10.389  0.7437 -1.2991  0.3022
29451SOL    HW290361   9.056   6.481  10.458  0.1232 -0.3824 -0.3297
29452SOL     OW90362   9.349   1.166   8.562 -0.2179  0.5249  0.7375
29452SOL    HW190363   9.425   1.209   8.600  0.6241  2.5471 -2.7427
29452SOL    HW290364   9.288   1.238   8.544 -1.0174 -0.4162 -0.5444
29453SOL     OW90365   2.618   9.461   6.194  0.5159 -0.1385  0.3674
29453SOL    HW190366   2.663   9.485   6.275 -0.7477  1.3925  0.6668
29453SOL    HW290367   2.623   9.539   6.139  0.3290 -0.7632 -0.5686
29454SOL     OW90368   8.220   8.452   9.292 -0.3357 -0.0045 -0.6889
29454SOL    HW190369   8.181   8.516   9.351 -0.1940 -1.1120  0.6428
29454SOL    HW290370   8.262   8.505   9.224  2.5541  1.5371  2.0231
29455SOL     OW90371   1.792   9.940   4.953  0.3363 -0.2827 -0.0529
29455SOL    HW190372   1.847   9.992   4.894  0.3381 -1.9286 -1.5911
29455SOL    HW290373   1.776   9.998   5.028  3.7382  0.4613  0.2591
29456SOL     OW90374   9.073   8.276   7.931 -0.1743  0.3791 -0.3994
29456SOL    HW190375   9.087   8.249   8.021  3.1813  0.5017 -0.7431
29456SOL    HW290376   9.074   8.194   7.881 -0.6208  0.4004 -0.4381
29457SOL     OW90377   8.550   9.860   6.627  0.6004  0.1810 -0.3565
29457SOL    HW190378   8.493   9.937   6.634  0.9585  0.6239 -1.8814
29457SOL    HW290379   8.554   9.842   6.533  3.6739  0.7566 -0.4383
29458SOL     OW90380   3.023   4.608   8.621  0.0680 -0.1770 -0.7103
29458SOL    HW190381   2.964   4.673   8.583 -2.2415 -1.6673  0.1262
29458SOL    HW290382   2.997   4.526   8.580  1.6976 -0.8702 -0.4178
29459SOL     OW90383   6.392   5.175   1.390 -0.2531  0.4543 -0.6266
29459SOL    HW190384   6.431   5.094   1.354  0.3106  0.4308  0.0073
29459SOL    HW290385   6.298   5.165   1.375 -0.0913  0.1572 -1.5071
29460SOL     OW90386   0.454   9.784   4.081  0.3295  0.0770  0.0563
29460SOL    HW190387   0.480   9.876   4.073 -0.9456  0.3785 -0.8269
29460SOL    HW290388   0.446   9.754   3.991 -1.5840 -0.2091  0.2938
29461SOL     OW90389   5.674   4.577   6.505 -0.7795  0.3020 -0.1090
29461SOL    HW190390   5.687   4.487   6.535  0.1180 -0.0393 -1.4393
29461SOL    HW290391   5.593   4.573   6.454  0.4220 -0.2876 -2.0602
29462SOL     OW90392   1.446   2.453   1.034 -0.6608 -0.1890  0.1655
29462SOL    HW190393   1.429   2.518   0.966 -0.2150 -0.0093  0.2273
29462SOL    HW290394   1.382   2.473   1.102 -1.4341 -0.6665 -0.3947
29463SOL     OW90395   7.110   1.999   5.761  1.0875 -0.7638 -0.4798
29463SOL    HW190396   7.073   2.056   5.828  2.4395 -1.2248  0.6807
29463SOL    HW290397   7.072   2.032   5.679 -0.5109 -0.1323  0.4717
29464SOL     OW90398   7.009   9.075   3.874  0.4494  0.0700 -0.0536
29464SOL    HW190399   7.010   9.098   3.781 -0.0373 -1.4290 -0.4542
29464SOL    HW290400   7.098   9.043   3.891  0.4891  0.1850 -0.0419
29465SOL     OW90401   2.817   1.353   6.538  0.1101 -0.7444  0.1779
29465SOL    HW190402   2.906   1.330   6.564  0.4755  0.5141  0.1085
29465SOL    HW290403   2.771   1.269   6.533  1.0792 -1.3455  0.9725
29466SOL     OW90404   6.393   1.574   5.435  0.3004  0.1327  0.5503
29466SOL    HW190405   6.359   1.630   5.506  0.5442  0.4792  0.3943
29466SOL    HW290406   6.421   1.494   5.480 -1.0738 -0.3338  0.6438
29467SOL     OW90407   7.309   3.326   7.649  0.1305 -0.2718 -0.2919
29467SOL    HW190408   7.291   3.419   7.637 -5.4564 -0.9784 -0.2740
29467SOL    HW290409   7.322   3.292   7.561  1.1007  0.3159 -0.3895
29468SOL     OW90410   2.575   7.172   0.837 -0.2271  0.2765  0.0150
29468SOL    HW190411   2.521   7.122   0.777 -1.4340  1.8167 -0.2555
29468SOL    HW290412   2.539   7.261   0.834  1.1265  0.9267  1.2838
29469SOL     OW90413   4.657   1.912   8.615 -0.6584 -0.2996  0.0087
29469SOL    HW190414   4.702   1.955   8.543 -2.3030  0.2441 -0.7472
29469SOL    HW290415   4.675   1.819   8.604  0.0095 -0.1162 -0.4488
29470SOL     OW90416   1.652   9.565   9.003  0.5481 -0.0604 -0.4305
29470SOL    HW190417   1.619   9.655   9.006 -0.6676 -0.4924  0.0297
29470SOL    HW290418   1.677   9.546   9.094  0.1874 -0.3938 -0.3991
29471SOL     OW90419   7.288   9.770   4.468 -1.0752  0.2646 -0.1441
29471SOL    HW190420   7.264   9.763   4.375  0.1126 -0.1030 -0.4487
29471SOL    HW290421   7.382   9.751   4.469 -1.3353 -1.1492  1.3077
29472SOL     OW90422   8.572   3.423   7.722  0.0751 -0.1792  0.4943
29472SOL    HW190423   8.539   3.419   7.811 -1.4132  2.1934  0.1226
29472SOL    HW290424   8.507   3.375   7.670 -0.9609  1.4423  0.2474
29473SOL     OW90425   5.028   2.817   7.120 -0.6321 -1.1355 -0.0224
29473SOL    HW190426   5.023   2.889   7.183 -0.8392 -2.2131  1.2421
29473SOL    HW290427   5.072   2.855   7.044 -0.3238  0.1967  0.7750
29474SOL     OW90428   9.939   9.478   2.958 -0.3723  0.1863  0.4953
29474SOL    HW190429   9.965   9.560   3.001  1.3792  0.8254 -1.5767
29474SOL    HW290430  10.004   9.414   2.988 -1.5790 -0.4220  1.9022
29475SOL     OW90431   7.103   5.486   0.687  0.4079 -0.4379 -0.0872
29475SOL    HW190432   7.057   5.505   0.605  0.6728 -0.3616 -0.2177
29475SOL    HW290433   7.175   5.428   0.662 -0.2527 -1.4487  0.2723
29476SOL     OW90434   1.417   9.756   1.394  0.6929  0.2290 -0.1163
29476SOL    HW190435   1.428   9.830   1.455 -1.1450  0.2281  0.2766
29476SOL    HW290436   1.324   9.758   1.372  0.7562 -1.5716 -0.6330
29477SOL     OW90437   9.102   8.992   4.557  0.0287  0.3275  0.2876
29477SOL    HW190438   9.137   9.078   4.581  2.4947 -0.1060 -1.3003
29477SOL    HW290439   9.147   8.931   4.615  1.1500 -0.1524 -1.0289
29478SOL     OW90440   2.418  10.703   2.601  0.0864  0.0708 -0.2837
29478SOL    HW190441   2.470  10.778   2.630 -0.8379  0.5502  0.1654
29478SOL    HW290442   2.480  10.649   2.552  0.8515  0.9429 -0.3062
29479SOL     OW90443   7.567   1.779   9.237  0.9572 -0.2345 -0.4177
29479SOL    HW190444   7.510   1.855   9.230  1.6926  0.4279  0.5497
29479SOL    HW290445   7.646   1.802   9.189  1.1537 -0.4055 -0.1829
29480SOL     OW90446   5.133   1.465   7.868 -0.0114  0.2030 -0.1498
29480SOL    HW190447   5.040   1.455   7.886  0.1305  0.5878  0.8913
29480SOL    HW290448   5.146   1.559   7.860  0.4837  0.2439  0.9479
29481SOL     OW90449   2.074   7.938   7.746 -0.8323  0.3925 -0.0494
29481SOL    HW190450   2.082   7.854   7.791  3.1806  0.2226 -0.6584
29481SOL    HW290451   2.052   8.001   7.815  2.4751 -0.2836  1.8771
29482SOL     OW90452  10.287   1.804   5.069 -0.3485 -0.5980 -0.0530
29482SOL    HW190453  10.358   1.844   5.120 -0.0802 -1.8975  0.6517
29482SOL    HW290454  10.295   1.843   4.982  0.3891  0.2623  0.3789
29483SOL     OW90455   9.962   0.955   1.208  0.1116  0.3843 -0.7407
29483SOL    HW190456   9.867   0.963   1.198  0.1207  2.0196  0.0625
29483SOL    HW290457   9.998   0.993   1.128  0.0777  0.5393 -0.6843
29484SOL     OW90458   9.575   6.114  10.945 -0.1501 -0.2860 -0.4000
29484SOL    HW190459   9.651   6.063  10.972  0.7927  1.4143  0.3368
29484SOL    HW290460   9.547   6.075  10.862  0.7598 -1.7066 -0.0665
29485SOL     OW90461  10.669   8.016   0.979 -0.2135  0.3044 -0.0023
29485SOL    HW190462  10.750   7.971   0.954 -0.4340  0.6427 -1.4257
29485SOL    HW290463  10.698   8.101   1.010  0.0033  0.3287 -0.2624
29486SOL     OW90464   2.445  10.842   8.145  0.4416  0.3992  0.5778
29486SOL    HW190465   2.418  10.931   8.165  0.8980  0.4212  1.1175
29486SOL    HW290466   2.468  10.844   8.052 -2.4569  0.1168 -0.2310
29487SOL     OW90467   3.296   9.208   0.128  0.1288  1.0855  0.2610
29487SOL    HW190468   3.324   9.134   0.182  0.1881  1.8736  1.3324
29487SOL    HW290469   3.376   9.235   0.082 -0.3517 -0.8884 -1.8667
29488SOL     OW90470   6.323   2.543   5.973  0.1632 -0.1376  0.0570
29488SOL    HW190471   6.264   2.606   5.933 -2.0188 -2.3271 -0.4401
29488SOL    HW290472   6.274   2.461   5.974  3.3928 -2.3048 -0.9090
29489SOL     OW90473   5.727   3.351   7.828 -0.6437  0.2283 -0.1026
29489SOL    HW190474   5.674   3.280   7.793  0.2096 -0.1202 -0.7123
29489SOL    HW290475   5.757   3.319   7.914  0.7130 -0.6732 -0.8709
29490SOL     OW90476   4.855   5.085  10.994  0.7698 -0.5738 -0.2437
29490SOL    HW190477   4.774   5.036  10.986  1.5513 -1.9581  0.0984
29490SOL    HW290478   4.861   5.136  10.913  0.1583 -1.3673 -0.7930
29491SOL     OW90479   3.770  10.756   7.686 -0.1333 -0.4397  0.2891
29491SOL    HW190480   3.677  10.779   7.696 -0.1340  0.3322 -1.1282
29491SOL    HW290481   3.816  10.817   7.743 -0.3547  1.0563 -1.0592
29492SOL     OW90482   6.046   4.876   7.901 -0.1836  0.1210 -0.2946
29492SOL    HW190483   6.139   4.898   7.899 -0.0114 -0.5446  0.1298
29492SOL    HW290484   6.044   4.780   7.895 -0.8679  0.1693 -0.9849
29493SOL     OW90485   5.256   9.269   1.927 -0.4318 -0.2773 -0.4324
29493SOL    HW190486   5.164   9.247   1.943 -1.5179  3.8466  0.3280
29493SOL    HW290487   5.253   9.354   1.883  2.8737  2.2229  3.3434
29494SOL     OW90488   8.899  10.017   9.089 -0.4625  0.2695 -0.1976
29494SOL    HW190489   8.813  10.013   9.048 -0.5717  0.6646 -0.0098
29494SOL    HW290490   8.888   9.970   9.172  0.2267 -2.1882 -1.3943
29495SOL     OW90491   0.997   7.207   1.146  0.1262  0.6126  0.0129
29495SOL    HW190492   1.041   7.237   1.067 -0.0318 -0.8641 -0.6640
29495SOL    HW290493   0.911   7.177   1.117  1.3689 -3.5061 -0.0288
29496SOL     OW90494   4.714   3.463   4.584  0.2164  0.8327 -0.8486
29496SOL    HW190495   4.784   3.422   4.635  0.2289  0.6451 -1.0164
29496SOL    HW290496   4.671   3.390   4.539 -1.4125  0.6377  0.8607
29497SOL     OW90497  10.085   4.200   5.921  0.2397 -0.4556  0.5272
29497SOL    HW190498  10.174   4.179   5.948  0.1965 -0.7615  0.4276
29497SOL    HW290499  10.029   4.152   5.982  0.1236  1.1528  1.7586
29498SOL     OW90500   4.431   1.702   5.781  0.0326  0.1348 -0.2777
29498SOL    HW190501   4.523   1.687   5.802 -0.0112  1.5405  1.1070
29498SOL    HW290502   4.420   1.797   5.785 -1.1431  0.1225 -1.9908
29499SOL     OW90503   8.661   6.319   8.673  0.6585 -0.2121  0.3063
29499SOL    HW190504   8.749   6.342   8.703  0.5274  1.8673 -0.7086
29499SOL    HW290505   8.674   6.242   8.617  1.8201  0.0288  0.2294
29500SOL     OW90506   7.342   4.467   5.663  0.5488  0.4079  0.2626
29500SOL    HW190507   7.406   4.516   5.611 -0.8029  0.7655 -1.1389
29500SOL    HW290508   7.258   4.484   5.620 -0.4120 -0.5361  1.6866
29501SOL     OW90509   3.851   3.953   8.256  0.0660 -0.1229  0.0568
29501SOL    HW190510   3.808   3.898   8.191 -0.7320  0.8278 -0.2470
29501SOL    HW290511   3.804   4.036   8.252  0.8818  0.4020  0.8943
29502SOL     OW90512   2.868   4.373   1.258 -0.5494 -0.2073 -0.1970
29502SOL    HW190513   2.921   4.371   1.338  0.4546  0.9140 -0.8065
29502SOL    HW290514   2.837   4.283   1.248  1.1585 -0.8842  0.2405
29503SOL     OW90515   3.608   4.267   1.967  0.2690 -0.2115  0.0773
29503SOL    HW190516   3.581   4.177   1.987  0.1051  0.0228  0.9082
29503SOL    HW290517   3.559   4.322   2.028  2.9228  0.2024  1.9829
29504SOL     OW90518   1.479   6.008   9.386 -0.3155  0.4987 -0.2106
29504SOL    HW190519   1.464   6.014   9.481 -1.2974  2.7476 -0.4660
29504SOL    HW290520   1.432   5.929   9.360 -0.6573  0.2517  1.0587
29505SOL     OW90521  10.355   7.661   1.390  1.1762 -0.3979 -0.6233
29505SOL    HW190522  10.331   7.571   1.366  0.4740  0.0086 -1.5306
29505SOL    HW290523  10.398   7.652   1.474  2.3667 -1.7399 -1.3220
29506SOL     OW90524   8.938   4.367   0.222  0.3100  0.4221 -0.0033
29506SOL    HW190525   8.929   4.325   0.307  0.1623  0.9290  0.2350
29506SOL    HW290526   8.858   4.344   0.175 -0.7136  2.0659  0.8537
29507SOL     OW90527   6.778  10.851   4.505 -0.4579 -0.0677  0.5047
29507SOL    HW190528   6.728  10.771   4.492 -0.9710  0.2160  0.6957
29507SOL    HW290529   6.845  10.827   4.570 -1.5995  0.0501  1.7863
29508SOL     OW90530   7.866   8.207   4.010 -0.1094 -0.3951 -0.1549
29508SOL    HW190531   7.784   8.227   3.965 -0.7816 -1.4648  0.5611
29508SOL    HW290532   7.889   8.119   3.981  0.5844 -0.2663 -0.0258
29509SOL     OW90533   9.717   0.720  10.364  0.1854 -0.2633  0.5826
29509SOL    HW190534   9.625   0.722  10.340 -0.0077  0.9192  1.3205
29509SOL    HW290535   9.718   0.683  10.452  0.7276 -2.9956 -0.4726
29510SOL     OW90536   3.287   5.257   3.263  0.9935  0.5876  0.8124
29510SOL    HW190537   3.261   5.171   3.231 -0.0227  1.5188 -1.0954
29510SOL    HW290538   3.205   5.296   3.295  1.3117  1.0775  1.0463
29511SOL     OW90539   7.373   6.133   6.714 -0.1799 -0.0985 -0.1918
29511SOL    HW190540   7.396   6.211   6.764  0.7597  0.0368 -0.8094
29511SOL    HW290541   7.423   6.062   6.756  0.4031 -0.0307 -0.7567
29512SOL     OW90542   1.885   2.544   5.212 -0.2790  0.1827 -0.5263
29512SOL    HW190543   1.952   2.561   5.277 -0.2273  1.3177 -0.8686
29512SOL    HW290544   1.855   2.630   5.184 -0.9421 -0.2934 -1.3435
29513SOL     OW90545   2.015   1.673   0.334 -0.3863 -0.2620 -0.8402
29513SOL    HW190546   1.964   1.644   0.410 -0.0174  0.1617 -0.4161
29513SOL    HW290547   1.977   1.627   0.260  0.0494 -1.6526 -0.2301
29514SOL     OW90548   7.134   0.711   9.456  0.1102 -0.1277  0.0289
29514SOL    HW190549   7.225   0.698   9.429 -0.4686  0.2180 -2.2153
29514SOL    HW290550   7.132   0.678   9.546  2.8927  1.6834  0.8875
29515SOL     OW90551   9.330   2.563   6.719  0.6663 -0.0572 -0.6516
29515SOL    HW190552   9.248   2.586   6.675 -0.2412  0.3518  1.1554
29515SOL    HW290553   9.371   2.500   6.660  1.2110  2.8692 -3.7164
29516SOL     OW90554   6.342   1.422   7.694  0.0177  0.2266  0.7560
29516SOL    HW190555   6.425   1.423   7.647 -0.1327 -1.5386  0.3832
29516SOL    HW290556   6.332   1.512   7.727  1.7009  0.6565  0.2017
29517SOL     OW90557   9.320   6.286   8.948 -0.1078  0.4789  0.7399
29517SOL    HW190558   9.296   6.364   8.899  0.3770 -0.6119 -1.3781
29517SOL    HW290559   9.414   6.296   8.965  0.5115 -0.5613 -1.5649
29518SOL     OW90560   2.146   2.003   5.115 -0.0340 -0.2229  0.3100
29518SOL    HW190561   2.198   2.003   5.034 -0.7226 -1.8767 -0.1762
29518SOL    HW290562   2.210   2.013   5.185  0.8211 -0.9809 -0.3416
29519SOL     OW90563   6.711   3.376  10.523  1.2011 -0.5774  0.5978
29519SOL    HW190564   6.668   3.311  10.467  0.4696  1.4670 -1.3788
29519SOL    HW290565   6.802   3.346  10.527  0.7975 -1.9523  0.0963
29520SOL     OW90566   7.188   8.870   4.639 -0.2426 -0.4064 -0.7134
29520SOL    HW190567   7.132   8.895   4.566 -1.1535 -1.7583 -0.5090
29520SOL    HW290568   7.273   8.850   4.599 -0.0551  1.0565 -1.0959
29521SOL     OW90569   0.168   8.194   4.371 -0.0598 -0.3842  0.0245
29521SOL    HW190570   0.138   8.116   4.324  3.2986 -1.1776 -1.0553
29521SOL    HW290571   0.246   8.165   4.418  0.2945  1.9392  0.9892
29522SOL     OW90572   3.295   6.086   3.759 -0.2964  0.6771  0.3378
29522SOL    HW190573   3.390   6.099   3.761 -0.1734 -0.0096 -0.3829
29522SOL    HW290574   3.285   5.991   3.756 -1.0114  0.7566  0.2419
29523SOL     OW90575   1.983   4.879   2.061 -0.4224  0.0674 -1.0841
29523SOL    HW190576   1.920   4.831   2.114 -2.1403  1.9316 -1.3300
29523SOL    HW290577   2.061   4.887   2.117 -0.1266 -2.7015 -0.9608
29524SOL     OW90578   1.790   4.750   9.773  0.4839 -0.2431  0.8415
29524SOL    HW190579   1.827   4.748   9.684 -0.2345  0.8481  0.4913
29524SOL    HW290580   1.760   4.840   9.784  0.3681 -0.4208  2.1241
29525SOL     OW90581   1.687   1.042   1.103  0.1287  0.2832  0.0215
29525SOL    HW190582   1.754   0.992   1.149  1.1807  1.1928 -0.4645
29525SOL    HW290583   1.674   0.994   1.021 -1.4573 -1.1149  1.0260
29526SOL     OW90584   0.263   1.890   7.954  0.0087 -0.0735 -0.1478
29526SOL    HW190585   0.244   1.796   7.952 -0.7532  0.0682 -1.7695
29526SOL    HW290586   0.177   1.931   7.944  0.1715  0.8651  1.8427
29527SOL     OW90587   5.266   5.138   5.517  0.5143 -0.5270 -0.1077
29527SOL    HW190588   5.308   5.135   5.603 -1.0177  0.2528  0.7328
29527SOL    HW290589   5.334   5.113   5.455  1.6071 -1.3066  1.3507
29528SOL     OW90590   9.026   9.949   5.296 -0.3562 -0.6423 -0.0128
29528SOL    HW190591   9.012  10.019   5.360  0.1852  0.6694 -1.2772
29528SOL    HW290592   8.968   9.879   5.325 -1.7779  0.7420  0.6696
29529SOL     OW90593   2.247   3.450   1.402  0.5006 -0.6664  0.3374
29529SOL    HW190594   2.265   3.453   1.309 -0.4439 -0.4871  0.1513
29529SOL    HW290595   2.164   3.403   1.410  0.2569 -0.1571  1.0280
29530SOL     OW90596   2.575   9.406  10.550 -0.4064 -0.0936  0.5742
29530SOL    HW190597   2.557   9.498  10.570 -1.0887 -0.4406  1.6378
29530SOL    HW290598   2.513   9.384  10.480  0.6484  0.5844 -0.6255
29531SOL     OW90599   3.649   2.046   8.298  0.2945  0.5713  0.1625
29531SOL    HW190600   3.714   2.113   8.277  0.5662 -0.0527 -1.0593
29531SOL    HW290601   3.577   2.063   8.237  0.0327  0.2321  0.3750
29532SOL     OW90602   2.463   4.985   9.078  0.0603  0.0386  0.1425
29532SOL    HW190603   2.476   4.891   9.064  0.4740  0.2127 -0.7063
29532SOL    HW290604   2.528   5.027   9.021 -1.1666  0.8681 -0.7020
29533SOL     OW90605  10.247   9.429   3.002 -0.0303  0.0572 -0.5640
29533SOL    HW190606  10.202   9.347   3.022 -1.9741  0.9007 -1.2240
29533SOL    HW290607  10.269   9.465   3.088  1.2042 -1.3033 -0.2775
29534SOL     OW90608   3.842   7.286   3.823  0.2928 -0.1119  0.3993
29534SOL    HW190609   3.746   7.293   3.823  0.1870 -1.4124 -0.0979
29534SOL    HW290610   3.870   7.348   3.891 -0.9917 -0.9831  1.7792
29535SOL     OW90611   5.991   3.480   4.356 -0.0777  0.1712 -0.2479
29535SOL    HW190612   5.986   3.389   4.325 -1.3549  0.5472 -1.2680
29535SOL    HW290613   6.084   3.501   4.353  0.1084 -0.6787 -1.3302
29536SOL     OW90614   2.906   1.846   7.283 -0.3508  0.6513  0.1652
29536SOL    HW190615   2.856   1.892   7.351  0.5495  1.1853  0.4983
29536SOL    HW290616   2.960   1.915   7.243 -1.6501  0.5613 -1.8711
29537SOL     OW90617   8.026   1.169   1.003  0.9126  0.0919 -0.4898
29537SOL    HW190618   8.034   1.169   0.907  1.3783  2.6097 -0.5252
29537SOL    HW290619   7.996   1.257   1.024 -0.2432 -0.7396  1.6526
29538SOL     OW90620   2.495   3.337   5.324  0.1451 -0.3112  0.8167
29538SOL    HW190621   2.550   3.317   5.248  0.0060 -0.6284  0.7985
29538SOL    HW290622   2.523   3.424   5.351  0.2268 -0.2157  0.4308
29539SOL     OW90623   2.283   3.183   2.441  0.4992  0.4558 -0.1503
29539SOL    HW190624   2.359   3.127   2.426  1.8991  1.9646  0.8651
29539SOL    HW290625   2.281   3.241   2.365 -1.8021 -1.7133 -1.9268
29540SOL     OW90626   7.285   9.034   3.394 -0.1811 -0.2457 -0.4433
29540SOL    HW190627   7.362   9.067   3.442  0.2023  0.4431 -1.5043
29540SOL    HW290628   7.212   9.084   3.430 -0.5174 -2.2495  1.9830
29541SOL     OW90629   9.034   5.142   1.232 -0.3244 -1.1821 -0.0639
29541SOL    HW190630   9.088   5.082   1.182 -1.6156 -0.0711 -3.0299
29541SOL    HW290631   9.071   5.229   1.214 -1.5276 -0.6499 -0.1160
29542SOL     OW90632   5.711   6.086  10.997 -0.2807 -0.6357  0.5927
29542SOL    HW190633   5.802   6.063  11.013  0.1964 -2.2459 -3.1720
29542SOL    HW290634   5.676   6.012  10.947 -2.7995  1.1531 -0.5438
29543SOL     OW90635   3.846   0.457   3.362 -0.0408  0.0147 -0.4291
29543SOL    HW190636   3.877   0.375   3.400 -0.5465 -0.3228 -0.7298
29543SOL    HW290637   3.859   0.522   3.432  0.4714 -0.2947 -0.2322
29544SOL     OW90638   3.831   6.373   5.252  0.2139  0.0786 -0.2299
29544SOL    HW190639   3.873   6.430   5.187  0.1882  0.0592 -0.2635
29544SOL    HW290640   3.904   6.330   5.297  0.2879  1.3349  0.8899
29545SOL     OW90641   6.750   5.539   0.999  0.2136  0.0718  0.1335
29545SOL    HW190642   6.753   5.537   1.095  1.7425  1.3211  0.1617
29545SOL    HW290643   6.675   5.485   0.976 -0.9025  0.6946  2.0878
29546SOL     OW90644   9.179  10.441   9.600 -0.3025  0.4438  0.2459
29546SOL    HW190645   9.130  10.465   9.521  1.3012  0.1503 -0.8991
29546SOL    HW290646   9.237  10.515   9.615 -0.5085  0.4392  1.0997
29547SOL     OW90647  10.489   6.274   2.131  0.4525  0.5232 -0.0866
29547SOL    HW190648  10.486   6.182   2.105 -0.9607  1.2532 -2.9189
29547SOL    HW290649  10.526   6.273   2.220  3.1863 -2.5107 -1.0543
29548SOL     OW90650   3.164   8.166  10.470  0.6009  0.1363 -0.1968
29548SOL    HW190651   3.224   8.203  10.406  1.2054 -2.2101 -1.1041
29548SOL    HW290652   3.079   8.162  10.425  0.3190  1.1797  0.2164
29549SOL     OW90653   4.680   9.270   3.455 -0.1886  0.0612 -0.4375
29549SOL    HW190654   4.773   9.263   3.435 -0.0385  1.5111 -0.3649
29549SOL    HW290655   4.655   9.357   3.423 -0.9548  0.6979  1.6927
29550SOL     OW90656   9.721   3.856   1.163 -0.0722  0.0556  0.3806
29550SOL    HW190657   9.756   3.768   1.177 -1.2289 -0.5167 -0.1950
29550SOL    HW290658   9.673   3.850   1.081 -2.4883  0.4761  1.6834
29551SOL     OW90659   4.112   7.714   5.986  0.9677  0.1351  0.2152
29551SOL    HW190660   4.176   7.656   5.946  0.6237  0.2058 -0.4420
29551SOL    HW290661   4.102   7.786   5.924  1.2116  0.7832  0.9089
29552SOL     OW90662   5.749   0.202  10.718 -0.4359  0.5264 -0.1095
29552SOL    HW190663   5.822   0.200  10.655 -1.7898 -0.7156 -1.7533
29552SOL    HW290664   5.790   0.181  10.802  1.1035 -0.1927 -0.9838
29553SOL     OW90665   1.482   1.513   0.487  0.0248  0.4322  0.0201
29553SOL    HW190666   1.531   1.595   0.478  0.1366  0.4965  1.0811
29553SOL    HW290667   1.391   1.540   0.488 -0.0635  0.3364 -1.6912
29554SOL     OW90668   0.472   6.725   0.545 -0.0835  0.2583  0.0148
29554SOL    HW190669   0.469   6.631   0.558  2.5683  0.1962  0.7671
29554SOL    HW290670   0.443   6.763   0.628 -0.2852  0.0926  0.0190
29555SOL     OW90671   7.691   1.484   5.833  0.0703  0.9365  0.4734
29555SOL    HW190672   7.644   1.525   5.761  0.5367  2.7624  1.1503
29555SOL    HW290673   7.739   1.412   5.792 -0.3382  1.4058 -0.8829
29556SOL     OW90674   4.172   8.466   0.288  0.0180 -0.2720 -0.3483
29556SOL    HW190675   4.207   8.425   0.367 -0.8796 -0.1243  0.1471
29556SOL    HW290676   4.224   8.545   0.276 -0.1065 -0.0743  0.3491
29557SOL     OW90677   3.417   8.884   1.473  0.3886  0.6003 -0.0203
29557SOL    HW190678   3.418   8.856   1.565  1.9963 -1.0255 -0.4562
29557SOL    HW290679   3.456   8.971   1.474 -1.5032  1.4843  1.0238
29558SOL     OW90680   3.249   5.781   3.121 -0.6885 -0.8429  0.2082
29558SOL    HW190681   3.338   5.754   3.145  0.2774  2.0706  0.2269
29558SOL    HW290682   3.237   5.865   3.165 -2.9566 -0.5141 -0.9298
29559SOL     OW90683   4.711   1.279  10.007  0.3425 -0.5476 -0.2994
29559SOL    HW190684   4.715   1.345   9.938 -1.5707  0.3086  0.3333
29559SOL    HW290685   4.640   1.221   9.980  0.6685 -1.1668  0.1549
29560SOL     OW90686   8.545   7.506   3.623  0.2792 -0.2434 -0.0740
29560SOL    HW190687   8.486   7.439   3.588  0.6485 -1.1190  0.9326
29560SOL    HW290688   8.538   7.578   3.561  2.4031 -2.4226 -3.1535
29561SOL     OW90689   3.137   2.010   7.124  0.0052  0.4073  0.7534
29561SOL    HW190690   3.210   2.007   7.185  0.7981  1.4831 -0.0855
29561SOL    HW290691   3.146   1.932   7.070 -0.8295 -0.6656  2.1091
29562SOL     OW90692   7.225   5.291   9.645 -0.1949 -0.9340 -0.1826
29562SOL    HW190693   7.185   5.367   9.602  1.7601  0.4071  0.2679
29562SOL    HW290694   7.227   5.314   9.737  0.6137 -1.4413 -0.0691
29563SOL     OW90695   6.581   5.981   4.303 -0.1574 -0.0402 -0.2646
29563SOL    HW190696   6.485   5.989   4.301 -0.2058 -0.6473 -0.8520
29563SOL    HW290697   6.613   6.067   4.273 -0.5228  0.0894 -0.2877
29564SOL     OW90698  10.467  10.742   9.548 -0.3810 -0.3416 -0.1934
29564SOL    HW190699  10.454  10.761   9.455  1.2052 -0.3321 -0.4473
29564SOL    HW290700  10.510  10.820   9.583 -0.3324 -0.6232  0.3940
29565SOL     OW90701   9.533   0.737   4.466  0.2284  0.2249 -0.5147
29565SOL    HW190702   9.513   0.812   4.521  2.4863  1.2133 -0.9571
29565SOL    HW290703   9.457   0.679   4.476  0.1536  0.7141  2.9725
29566SOL     OW90704   1.084  10.305  11.007 -0.5966  0.6529  0.0380
29566SOL    HW190705   1.082  10.284  11.101  0.2832  1.2491  0.2004
29566SOL    HW290706   1.176  10.296  10.982 -0.8581  0.2913 -0.8277
29567SOL     OW90707   1.190   5.134   5.767  0.0985 -0.4833 -0.0023
29567SOL    HW190708   1.181   5.129   5.672 -1.5823 -0.2464  0.1095
29567SOL    HW290709   1.128   5.203   5.793 -0.4160 -1.4142  1.3609
29568SOL     OW90710   2.641   8.208   5.387 -0.1085  0.4743  0.1314
29568SOL    HW190711   2.571   8.145   5.406 -1.4967  2.3158  1.5719
29568SOL    HW290712   2.673   8.183   5.300 -2.7051 -0.3702 -0.6894
29569SOL     OW90713   1.040   3.456   1.900  0.1282  0.1797 -0.3519
29569SOL    HW190714   0.987   3.484   1.974  0.0573  3.0674 -1.3970
29569SOL    HW290715   1.009   3.507   1.826  2.4155 -0.1472 -1.6468
29570SOL     OW90716   1.552   5.258   4.327  0.0961  0.3651 -0.4319
29570SOL    HW190717   1.526   5.204   4.402 -1.6784  1.1587 -0.4269
29570SOL    HW290718   1.648   5.251   4.325  0.3311  1.0963  2.5299
29571SOL     OW90719   5.623   1.655   0.702 -0.2564  0.8379  0.2255
29571SOL    HW190720   5.631   1.560   0.715 -2.6258  0.3956 -0.9212
29571SOL    HW290721   5.639   1.668   0.609 -0.4358  1.4968  0.2813
29572SOL     OW90722   3.696   5.981   0.245  0.0320  0.0384 -0.0856
29572SOL    HW190723   3.622   6.041   0.250 -0.3833 -0.4927  0.2311
29572SOL    HW290724   3.770   6.031   0.280  0.0905  0.9698 -1.4611
29573SOL     OW90725   3.007  10.310   6.254 -0.3626  0.4318  0.4058
29573SOL    HW190726   3.077  10.374   6.265 -1.9391  2.3578 -0.1135
29573SOL    HW290727   3.025  10.268   6.170  0.8689 -0.0919  0.9039
29574SOL     OW90728   6.624  10.589   3.042 -0.0544 -0.2684 -0.0736
29574SOL    HW190729   6.697  10.633   2.999 -0.4130  0.4605  0.0487
29574SOL    HW290730   6.661  10.508   3.076  0.2990 -0.7204 -1.4907
29575SOL     OW90731   8.032   7.653  10.085 -0.0090  0.0282 -0.1937
29575SOL    HW190732   8.121   7.654  10.049  0.3142 -1.5500  0.4685
29575SOL    HW290733   7.978   7.616  10.015  0.1346 -0.4209 -0.0738
29576SOL     OW90734   2.123   9.370  10.551 -0.1956  0.5219  0.0925
29576SOL    HW190735   2.098   9.453  10.592 -2.1558 -0.0514  0.1670
29576SOL    HW290736   2.039   9.328  10.529  0.7651 -0.8269 -1.1846
29577SOL     OW90737   4.930   4.666   3.006 -0.1864 -0.2105  0.1084
29577SOL    HW190738   4.979   4.743   3.032 -0.1159 -0.6316  1.2798
29577SOL    HW290739   4.876   4.695   2.933 -1.0988  1.2918  1.3263
29578SOL     OW90740   2.654   2.227   8.836  0.5463 -0.2731 -0.3838
29578SOL    HW190741   2.703   2.150   8.805  2.4577  0.3545  0.9453
29578SOL    HW290742   2.706   2.302   8.808 -0.5838  0.5167 -0.4540
29579SOL     OW90743   0.616   9.227   0.063 -0.1779  0.0146  0.0793
29579SOL    HW190744   0.710   9.236   0.046  0.1044 -1.3607  0.7896
29579SOL    HW290745   0.596   9.136   0.040 -1.3546  0.2911 -0.0790
29580SOL     OW90746   5.387   6.445   9.976 -0.0429  0.0317  0.3795
29580SOL    HW190747   5.384   6.533   9.938 -0.7151  0.5530  1.5941
29580SOL    HW290748   5.306   6.404   9.945  0.0269  0.0068  0.2259
29581SOL     OW90749   3.234   1.673   0.655  0.0415 -0.0303 -0.3197
29581SOL    HW190750   3.142   1.681   0.629  0.1161  1.3534 -0.1862
29581SOL    HW290751   3.280   1.738   0.603  0.6878  0.4896  0.8608
29582SOL     OW90752   2.657   0.421   5.327  0.1810 -0.1398  0.6220
29582SOL    HW190753   2.712   0.499   5.319  2.3869 -1.5979  0.7428
29582SOL    HW290754   2.669   0.392   5.418  1.8127 -2.2265 -0.1739
29583SOL     OW90755   5.117   2.255   8.228  0.6985 -0.4246  0.3344
29583SOL    HW190756   5.039   2.309   8.218 -0.7871 -2.5873 -0.5408
29583SOL    HW290757   5.119   2.233   8.321  0.6684  0.1591  0.4794
29584SOL     OW90758   3.470   2.436   8.382 -0.2344 -0.3001  0.4524
29584SOL    HW190759   3.448   2.400   8.296 -0.5461  0.7563  0.0617
29584SOL    HW290760   3.561   2.464   8.374  0.0936 -1.2302  0.8429
29585SOL     OW90761   9.891   9.709   6.706 -0.3168  0.2013  1.1465
29585SOL    HW190762   9.805   9.748   6.691 -0.1117  0.2418 -0.0721
29585SOL    HW290763   9.953   9.776   6.678  0.0704 -0.4097  0.5017
29586SOL     OW90764  10.734   9.295  10.705 -0.0013  0.1501 -0.0857
29586SOL    HW190765  10.665   9.235  10.733  0.4329 -0.1512  0.3434
29586SOL    HW290766  10.807   9.238  10.680  0.2120  0.4784 -0.2195
29587SOL     OW90767   4.120   8.152   8.313 -0.6705 -0.0296 -0.4351
29587SOL    HW190768   4.104   8.169   8.406  0.7122 -1.3457  0.0846
29587SOL    HW290769   4.139   8.238   8.276 -1.7824  0.5866  0.3685
29588SOL     OW90770   0.694  10.296   3.087 -0.2334 -0.2347  0.1737
29588SOL    HW190771   0.780  10.334   3.104  0.6233 -1.5778 -0.8755
29588SOL    HW290772   0.703  10.204   3.111 -2.0530  0.0061  2.0588
29589SOL     OW90773   4.636   1.418   9.789 -0.0334  0.2010  0.4886
29589SOL    HW190774   4.573   1.490   9.787 -2.0683 -1.4870 -0.5231
29589SOL    HW290775   4.709   1.449   9.735 -0.5272  1.7464  0.6596
29590SOL     OW90776   9.889   4.649   8.714  0.0313 -0.4787 -0.0269
29590SOL    HW190777   9.939   4.569   8.698 -0.3254 -0.8243  0.5654
29590SOL    HW290778   9.864   4.679   8.627 -0.3912 -1.3700 -0.2247
29591SOL     OW90779   3.334   9.540   8.139  0.8852  0.4476  0.0915
29591SOL    HW190780   3.367   9.563   8.226  2.6017 -1.8548  0.1406
29591SOL    HW290781   3.241   9.563   8.141  1.3632  2.5568  1.7089
29592SOL     OW90782   3.594   3.246  10.574  0.2271 -0.1292  0.5960
29592SOL    HW190783   3.521   3.207  10.622  0.6794 -1.2495  0.4099
29592SOL    HW290784   3.672   3.210  10.616  0.6432 -0.2443 -0.2544
29593SOL     OW90785   2.325   6.320   4.401 -0.6219 -0.5804  0.2953
29593SOL    HW190786   2.348   6.300   4.311 -0.0938 -0.7115  0.4554
29593SOL    HW290787   2.285   6.239   4.434 -1.0593 -0.4455  0.1032
29594SOL     OW90788   1.718   7.383   2.010  0.4721 -0.0870  0.0773
29594SOL    HW190789   1.632   7.345   1.992 -0.1755  1.0593  0.5789
29594SOL    HW290790   1.703   7.478   2.006  2.1918  0.1647 -1.9076
29595SOL     OW90791   8.728   3.045   3.029  0.1153  0.2346  0.3043
29595SOL    HW190792   8.730   3.056   3.124 -0.4020  0.4891  0.2839
29595SOL    HW290793   8.657   3.101   2.999 -0.4061 -0.6264 -0.1282
29596SOL     OW90794  10.159   5.260   7.448  0.8151  0.0070  0.5666
29596SOL    HW190795  10.143   5.288   7.538 -1.3736  1.0583 -0.0850
29596SOL    HW290796  10.119   5.174   7.441  0.0456  0.3750  0.3420
29597SOL     OW90797  10.643   3.006   0.078  0.4549 -0.1580 -0.2408
29597SOL    HW190798  10.687   2.988  -0.005  0.6544 -0.9768  0.0336
29597SOL    HW290799  10.714   3.024   0.140  0.2700  2.4332 -0.6429
29598SOL     OW90800   5.403   3.044   3.901  0.1746  0.0580  0.0320
29598SOL    HW190801   5.428   2.995   3.980 -0.3826 -0.3386 -0.0287
29598SOL    HW290802   5.350   3.116   3.933 -0.6330 -0.4971 -0.0218
29599SOL     OW90803   2.390   1.022   1.957  0.5704  0.0926  0.1996
29599SOL    HW190804   2.355   1.098   2.006 -1.6603 -1.3990  1.1204
29599SOL    HW290805   2.355   0.946   2.004  0.7830 -1.4811 -2.0484
29600SOL     OW90806   7.213   2.510   2.211 -0.2543 -0.4861 -0.4447
29600SOL    HW190807   7.307   2.524   2.195 -0.0525 -1.3073 -0.0013
29600SOL    HW290808   7.172   2.590   2.178  0.7685  0.7578  1.1262
29601SOL     OW90809   0.510   8.255   9.376 -0.6262 -0.2515 -0.4707
29601SOL    HW190810   0.552   8.189   9.431  1.0931  2.8104  2.2637
29601SOL    HW290811   0.584   8.300   9.334 -1.7292  0.1741 -2.0297
29602SOL     OW90812   3.157   3.230   0.049 -0.2872 -0.0190 -0.1440
29602SOL    HW190813   3.112   3.173   0.111 -0.4875 -0.1123 -0.3742
29602SOL    HW290814   3.114   3.212  -0.035 -0.5131  0.6429 -0.1730
29603SOL     OW90815   4.535   1.512   9.362  0.4616  0.7715  0.2349
29603SOL    HW190816   4.502   1.423   9.378  3.3628 -0.4915 -0.1962
29603SOL    HW290817   4.511   1.530   9.271 -0.5058  0.6432  0.4495
29604SOL     OW90818   7.613   3.481   2.851 -0.4414 -0.1794 -0.1918
29604SOL    HW190819   7.525   3.512   2.828  0.1914  1.6338 -0.3754
29604SOL    HW290820   7.671   3.548   2.816  1.0566 -1.5115 -0.3632
29605SOL     OW90821   6.698   3.759   3.105 -0.0378  0.9190 -0.3635
29605SOL    HW190822   6.756   3.775   3.031  1.0835 -0.6204  0.1371
29605SOL    HW290823   6.735   3.683   3.149 -1.2136  1.2197  1.2478
29606SOL     OW90824   9.890   0.917   7.132 -0.1187 -0.9896 -0.4171
29606SOL    HW190825   9.945   0.927   7.054  1.8856 -2.4119  0.6994
29606SOL    HW290826   9.933   0.972   7.198 -1.3403 -0.4162 -0.0683
29607SOL     OW90827   5.044   0.005   7.081 -0.4120  0.2602  0.8906
29607SOL    HW190828   4.980  -0.065   7.094  0.3710 -0.7902 -0.6073
29607SOL    HW290829   5.110  -0.011   7.149 -0.5437 -0.0687  0.9430
29608SOL     OW90830   5.374   4.582   4.067  0.0203  0.3997  0.3470
29608SOL    HW190831   5.314   4.605   3.996  0.6952 -0.5285 -0.5585
29608SOL    HW290832   5.323   4.595   4.147 -1.0629  0.5677 -0.3544
29609SOL     OW90833   1.843   0.005   0.245 -0.0861  0.1271 -0.3060
29609SOL    HW190834   1.881   0.071   0.188 -0.4992  1.5378  0.9867
29609SOL    HW290835   1.890   0.015   0.328 -0.6312 -0.7382  0.1244
29610SOL     OW90836   7.888   0.646   1.776 -0.1464  0.6665 -0.2119
29610SOL    HW190837   7.893   0.638   1.681  0.5735 -1.2126 -0.0636
29610SOL    HW290838   7.797   0.626   1.797  0.1531 -1.0957 -0.3977
29611SOL     OW90839   1.839   9.635   7.048 -0.2313  0.5609  0.2092
29611SOL    HW190840   1.828   9.730   7.043 -0.0190  0.6877  1.6406
29611SOL    HW290841   1.875   9.620   7.136  0.7727 -0.7510 -0.3960
29612SOL     OW90842   1.301   2.002   0.628  0.1288 -0.1649  0.3047
29612SOL    HW190843   1.317   1.907   0.623  0.1303 -0.1390 -0.1986
29612SOL    HW290844   1.370   2.040   0.574  0.4026  0.1562  0.8654
29613SOL     OW90845   0.378   7.660   8.210 -0.5753  0.2889  0.0057
29613SOL    HW190846   0.337   7.643   8.295 -1.5621  0.1363 -0.4819
29613SOL    HW290847   0.318   7.722   8.168  0.7527  1.6667  0.0597
29614SOL     OW90848   8.209   5.971   2.682  0.5763 -0.6355 -0.5615
29614SOL    HW190849   8.209   6.064   2.704  3.6262 -0.9586  1.1695
29614SOL    HW290850   8.146   5.931   2.743 -0.0563  0.1304 -0.7026
29615SOL     OW90851   1.922   6.568   7.281  0.0280 -0.5653  0.0810
29615SOL    HW190852   1.996   6.548   7.224  0.1736 -2.2944  0.8089
29615SOL    HW290853   1.906   6.487   7.329 -1.8517  0.0105  0.5108
29616SOL     OW90854   0.178   1.641   9.537  0.1157  0.1364  0.1391
29616SOL    HW190855   0.132   1.713   9.495 -1.4908 -2.0838 -2.2145
29616SOL    HW290856   0.218   1.592   9.465  0.4074 -1.8023  1.5161
29617SOL     OW90857   6.227   1.313   3.648  0.0922  0.0240 -0.1601
29617SOL    HW190858   6.196   1.357   3.568 -0.0967 -0.4266 -0.3349
29617SOL    HW290859   6.230   1.383   3.713 -0.2769  0.2880 -0.4194
29618SOL     OW90860   7.860   8.265   3.520  0.5677 -0.3140  0.7815
29618SOL    HW190861   7.932   8.230   3.468  0.3010  0.1106  0.1070
29618SOL    HW290862   7.892   8.263   3.610  1.5067  0.0679  0.4702
29619SOL     OW90863  10.070   7.441   5.247 -0.0954  0.2133 -0.0093
29619SOL    HW190864  10.095   7.474   5.161 -2.9067  0.6557 -0.7617
29619SOL    HW290865  10.071   7.345   5.238  1.5680  0.1870  0.1379
29620SOL     OW90866   5.593   9.596   3.099  0.0237  0.0351  0.1306
29620SOL    HW190867   5.548   9.676   3.072  0.2715 -0.0864 -0.6736
29620SOL    HW290868   5.528   9.527   3.087  0.7477 -0.3330 -2.2752
29621SOL     OW90869   8.196   8.281   0.787  0.0308 -0.0448  0.1908
29621SOL    HW190870   8.104   8.255   0.784  0.3085 -1.2609  1.3252
29621SOL    HW290871   8.212   8.305   0.878  0.8345  0.1965 -0.0037
29622SOL     OW90872   5.781   1.146   3.735 -0.5337  0.2696  0.2350
29622SOL    HW190873   5.777   1.204   3.659 -1.4145  1.0631  0.8603
29622SOL    HW290874   5.873   1.122   3.743 -0.2309  1.2170 -0.3054
29623SOL     OW90875   5.793   7.434   1.388  0.4392  0.0652 -0.4133
29623SOL    HW190876   5.811   7.354   1.436  0.3756 -0.3232 -1.0265
29623SOL    HW290877   5.725   7.478   1.439  0.1307 -0.5019 -0.3265
29624SOL     OW90878   7.721   5.544   5.212  0.6767  0.0746  0.0196
29624SOL    HW190879   7.804   5.524   5.169 -0.0573 -3.2627 -0.1235
29624SOL    HW290880   7.708   5.471   5.273 -3.0582 -0.6537 -1.4231
29625SOL     OW90881   8.324   2.625   8.444  0.3370  0.2808 -0.0494
29625SOL    HW190882   8.269   2.551   8.471  1.3492 -0.0023  1.3856
29625SOL    HW290883   8.288   2.700   8.491  0.8573  0.1794  0.5359
29626SOL     OW90884   3.506   0.961   5.398 -0.0136  0.4930  0.4235
29626SOL    HW190885   3.413   0.985   5.401  0.4481  2.3884  1.7780
29626SOL    HW290886   3.531   0.949   5.490  0.8052 -1.2736  0.0036
29627SOL     OW90887   2.056   9.931   7.927 -0.3031 -0.1904 -0.1369
29627SOL    HW190888   1.993   9.970   7.987 -0.0764 -0.1264  0.0573
29627SOL    HW290889   2.090   9.854   7.973 -1.5468 -1.2764 -0.9350
29628SOL     OW90890   7.005   5.102  10.547  0.2159 -0.0946 -0.1306
29628SOL    HW190891   7.045   5.159  10.481  1.4828 -0.2366  0.4785
29628SOL    HW290892   7.038   5.015  10.526 -1.4250 -0.6023 -0.8357
29629SOL     OW90893   7.105  11.039   8.423 -0.0664 -0.3039 -0.5341
29629SOL    HW190894   7.031  11.064   8.367 -0.0026 -0.6103 -0.7547
29629SOL    HW290895   7.148  10.968   8.376  0.1868 -0.3356 -0.2560
29630SOL     OW90896   6.153   0.671  10.155 -0.8209 -0.2016  0.0293
29630SOL    HW190897   6.215   0.679  10.228 -0.6995  0.4050 -0.1353
29630SOL    HW290898   6.125   0.580  10.157  1.8812 -1.1908 -1.3406
29631SOL     OW90899  10.568   5.198   2.926 -0.0674  0.5322  0.2088
29631SOL    HW190900  10.626   5.155   2.989 -0.9209 -0.8793  0.0617
29631SOL    HW290901  10.621   5.269   2.889  1.0459  0.2344  1.1813
29632SOL     OW90902   3.863   6.717   6.309 -0.0449  0.1371 -0.0330
29632SOL    HW190903   3.875   6.774   6.233  1.0516 -0.5135 -0.3760
29632SOL    HW290904   3.782   6.747   6.350  0.1583  1.4989 -0.5862
29633SOL     OW90905   5.262   0.897   6.315  0.4364  0.1662 -0.4113
29633SOL    HW190906   5.227   0.941   6.237 -1.3992 -0.8262 -0.1989
29633SOL    HW290907   5.330   0.839   6.281 -0.8459 -0.8077 -1.4054
29634SOL     OW90908   3.659  10.583   8.049  0.0314  0.4392 -0.4835
29634SOL    HW190909   3.752  10.568   8.064  0.1675 -0.3512 -1.8969
29634SOL    HW290910   3.651  10.591   7.954 -1.4370 -0.2288 -0.4517
29635SOL     OW90911   0.866   0.077   5.453 -0.0042 -0.3979 -0.1818
29635SOL    HW190912   0.881   0.078   5.358  1.5161  2.8024  0.0010
29635SOL    HW290913   0.778   0.113   5.463 -0.2831 -1.0095 -0.3477
29636SOL     OW90914   1.509   8.098   3.796 -0.2790 -0.0851 -0.4851
29636SOL    HW190915   1.480   8.150   3.871  2.1264  0.9962 -0.2168
29636SOL    HW290916   1.506   8.160   3.722 -0.5396 -0.5240 -0.8481
29637SOL     OW90917  10.078   5.364   0.391  0.4267  0.0603  0.3292
29637SOL    HW190918  10.063   5.458   0.385  0.8362  0.0679 -1.0857
29637SOL    HW290919  10.082   5.335   0.300 -0.6016 -1.4872  0.7387
29638SOL     OW90920   9.739   6.822   1.985 -0.7162 -0.7395 -0.2009
29638SOL    HW190921   9.691   6.837   1.904 -0.4133 -0.7283 -0.3805
29638SOL    HW290922   9.734   6.905   2.032 -0.0938 -0.4430 -0.6355
29639SOL     OW90923   9.907   7.896  10.915  0.9209 -0.2511  0.2744
29639SOL    HW190924   9.970   7.913  10.985 -0.2754  0.4440  1.2185
29639SOL    HW290925   9.834   7.955  10.933  0.1594 -0.7578 -1.0080
29640SOL     OW90926   7.273   6.906  10.616 -0.1009  0.1524  0.1485
29640SOL    HW190927   7.240   6.841  10.677  0.7144 -1.4722 -1.0610
29640SOL    HW290928   7.210   6.906  10.544  1.3550 -1.5320 -1.2387
29641SOL     OW90929   5.045  10.666   4.988 -0.5548 -0.9977  0.0196
29641SOL    HW190930   5.120  10.663   5.047 -0.3912 -0.1927 -0.1288
29641SOL    HW290931   5.064  10.600   4.922  0.2022 -0.5532 -0.2203
29642SOL     OW90932   6.497   9.508   6.683 -0.3274  0.0583 -0.1535
29642SOL    HW190933   6.468   9.461   6.762 -0.4787  1.3427  0.5851
29642SOL    HW290934   6.445   9.468   6.612  0.5867 -1.8562  0.1807
29643SOL     OW90935   6.360   1.799   0.211 -0.2169 -0.2454 -0.2679
29643SOL    HW190936   6.382   1.767   0.299 -0.9702  1.1082  0.4394
29643SOL    HW290937   6.335   1.890   0.224 -0.4384 -0.0492 -1.8905
29644SOL     OW90938   8.245  10.614   8.107  0.0934 -0.6127 -0.0996
29644SOL    HW190939   8.198  10.641   8.027  0.2092 -0.2337 -0.0441
29644SOL    HW290940   8.186  10.553   8.151  0.5742 -1.8674 -1.1341
29645SOL     OW90941   1.620   9.601   3.332  0.3185  0.1456 -0.5513
29645SOL    HW190942   1.656   9.650   3.406 -0.9771  1.2680 -0.6245
29645SOL    HW290943   1.676   9.624   3.258  0.7456  0.1525 -0.2302
29646SOL     OW90944   8.146   6.664   7.270  0.1774 -0.1844  0.1098
29646SOL    HW190945   8.159   6.750   7.310 -0.3383 -0.0682  0.0364
29646SOL    HW290946   8.228   6.617   7.286  0.7851  0.6094 -0.5830
29647SOL     OW90947   8.415   6.973  10.886  0.6215 -0.9760  0.3232
29647SOL    HW190948   8.396   7.042  10.949 -0.7822 -0.1125 -0.9932
29647SOL    HW290949   8.402   7.014  10.800  1.8357 -2.3001 -0.5395
29648SOL     OW90950   1.221   1.804   9.344 -0.1239  0.6804  0.5910
29648SOL    HW190951   1.190   1.715   9.359  0.0646  0.7506  1.4551
29648SOL    HW290952   1.310   1.793   9.311 -1.0775  0.4669 -2.1637
29649SOL     OW90953   4.333   3.912   7.442 -0.3315  0.0584  0.5441
29649SOL    HW190954   4.385   3.992   7.432 -1.0452  0.5201  0.4342
29649SOL    HW290955   4.369   3.853   7.376 -0.1397  0.4791  0.2614
29650SOL     OW90956   3.147   1.873  10.429  0.0542  0.0599 -0.2698
29650SOL    HW190957   3.227   1.913  10.461 -0.4974  0.9789 -0.0228
29650SOL    HW290958   3.095   1.946  10.395 -1.1653 -0.3629  0.6092
29651SOL     OW90959   1.446   7.525   5.199 -0.4623  0.1869  0.0823
29651SOL    HW190960   1.356   7.549   5.219 -0.5783  1.6296 -1.9187
29651SOL    HW290961   1.450   7.524   5.103  1.9138  1.3602  0.0942
29652SOL     OW90962   8.856   8.368   8.296 -0.3314 -0.2983 -0.2149
29652SOL    HW190963   8.861   8.433   8.227 -0.3234 -0.1399 -0.0664
29652SOL    HW290964   8.855   8.419   8.377 -0.7833 -0.4649 -0.1152
29653SOL     OW90965   3.648   6.856  10.299  0.1783  0.1884  0.0401
29653SOL    HW190966   3.614   6.836  10.211  0.5775  1.2953 -0.3845
29653SOL    HW290967   3.594   6.929  10.329 -1.2977 -1.4500  1.5823
29654SOL     OW90968   9.918  10.249   7.917 -0.8188 -0.0531 -0.5415
29654SOL    HW190969  10.002  10.294   7.907  0.6202 -2.6522 -1.2113
29654SOL    HW290970   9.891  10.268   8.007  0.8210  0.3431 -0.1033
29655SOL     OW90971   3.698  10.702   8.850  0.2193  0.0719 -0.1735
29655SOL    HW190972   3.752  10.630   8.816  0.3369  0.3080 -0.4929
29655SOL    HW290973   3.647  10.732   8.775  0.3865  0.5143 -0.1150
29656SOL     OW90974  10.021   3.659   9.760  0.4495  0.7104 -0.0632
29656SOL    HW190975   9.926   3.662   9.768  0.5595  0.7909  1.4618
29656SOL    HW290976  10.054   3.692   9.844  1.8276  1.0419 -0.6990
29657SOL     OW90977   8.300   2.925   8.027  0.1453 -0.2238  0.6497
29657SOL    HW190978   8.214   2.955   8.059 -0.1609 -0.4982  0.1010
29657SOL    HW290979   8.360   2.995   8.052 -0.2291 -0.0602  1.1064
29658SOL     OW90980   8.185   7.438   1.327  0.0892 -0.4158 -0.2154
29658SOL    HW190981   8.261   7.450   1.271 -0.3691 -0.9974 -0.9946
29658SOL    HW290982   8.215   7.462   1.415  1.0070 -0.1218 -0.5984
29659SOL     OW90983   2.801   1.960   5.776  0.2445 -0.1091 -0.2544
29659SOL    HW190984   2.873   1.899   5.795 -0.8434 -0.7952  2.1347
29659SOL    HW290985   2.755   1.920   5.703  1.2269 -0.6282 -0.6149
29660SOL     OW90986  10.651   1.941   3.065  0.2326  0.0656 -0.2944
29660SOL    HW190987  10.605   1.889   3.000  0.0735  1.3304 -1.2416
29660SOL    HW290988  10.671   1.880   3.136 -1.7001 -0.8142 -0.4592
29661SOL     OW90989   7.247   1.878   9.152  0.5792 -0.1295 -0.7237
29661SOL    HW190990   7.251   1.788   9.184  1.2855  0.5343  1.1941
29661SOL    HW290991   7.168   1.915   9.192  0.5279  0.2405 -1.1532
29662SOL     OW90992   2.407   8.233   8.639  0.1434 -0.0792  0.2502
29662SOL    HW190993   2.461   8.192   8.707 -1.3254 -2.1339  0.2951
29662SOL    HW290994   2.379   8.316   8.677  1.2094 -0.1487  1.2355
29663SOL     OW90995   2.062   3.239   2.604  0.0102 -0.1958 -0.5520
29663SOL    HW190996   2.135   3.201   2.555  1.2743  0.4553  0.7476
29663SOL    HW290997   2.094   3.244   2.694 -1.2642  1.0438 -0.1379
29664SOL     OW90998   4.561   7.029   1.580  0.4365 -0.3105  0.0212
29664SOL    HW190999   4.652   7.007   1.602  0.2568 -1.4643 -0.3485
29664SOL    HW291000   4.514   7.025   1.663  0.3264 -1.7889 -0.0917
29665SOL     OW91001   9.826   9.840   1.734 -0.4131 -0.4764  0.4254
29665SOL    HW191002   9.920   9.823   1.731 -0.1653  0.7801  0.5239
29665SOL    HW291003   9.790   9.769   1.788  0.6079 -0.4678  1.1495
29666SOL     OW91004   8.364   0.736   6.713 -0.1455 -0.4521 -0.0634
29666SOL    HW191005   8.303   0.810   6.720  2.0625  1.4177  0.8056
29666SOL    HW291006   8.357   0.709   6.622  0.4986  2.3495 -1.0728
29667SOL     OW91007   5.880  11.039   8.157  0.0217 -0.4287  0.0779
29667SOL    HW191008   5.899  11.011   8.246  0.7250  0.2874  0.1627
29667SOL    HW291009   5.953  11.096   8.133 -1.4710  1.5574  0.0144
29668SOL     OW91010   6.828   1.753   2.096  0.5609  0.0707 -0.1054
29668SOL    HW191011   6.835   1.847   2.112  0.3127  0.5821 -2.5796
29668SOL    HW291012   6.918   1.723   2.085  0.7689 -0.3760  2.3210
29669SOL     OW91013  11.024   8.820   2.271 -0.0260 -0.5978  0.0228
29669SOL    HW191014  10.940   8.789   2.303 -1.2085  2.6324  0.4695
29669SOL    HW291015  11.047   8.892   2.330  2.3470 -0.4412 -0.9696
29670SOL     OW91016   6.854   8.525   6.648 -0.0183 -0.5492 -0.1882
29670SOL    HW191017   6.894   8.600   6.604  1.1146 -0.3312  1.1417
29670SOL    HW291018   6.792   8.564   6.709 -1.7718 -0.8575 -1.6860
29671SOL     OW91019   4.078  10.307   4.712 -0.5117  0.2406 -0.0670
29671SOL    HW191020   3.994  10.268   4.686 -0.9658  1.3710 -0.3540
29671SOL    HW291021   4.134  10.232   4.732 -1.4271 -0.5480 -0.3784
29672SOL     OW91022   2.690   1.299   2.046  0.0475  0.4673 -0.9331
29672SOL    HW191023   2.770   1.269   2.088 -1.0979 -0.3716  0.7956
29672SOL    HW291024   2.674   1.237   1.976  0.6381  0.3504 -0.9675
29673SOL     OW91025   8.850   7.786   1.434  0.1150  0.0492  0.1814
29673SOL    HW191026   8.926   7.795   1.492  0.3288 -0.6183  0.0089
29673SOL    HW291027   8.883   7.808   1.347  0.0379  0.0391  0.1493
29674SOL     OW91028   1.625   2.660   8.738  0.3164  0.0606 -0.5118
29674SOL    HW191029   1.691   2.727   8.752  0.0059  0.0609  1.1944
29674SOL    HW291030   1.565   2.670   8.812 -0.3309 -1.4044 -0.8025
29675SOL     OW91031   9.207   0.180   3.053  0.0043  0.8332  0.0742
29675SOL    HW191032   9.207   0.274   3.038  2.2625  0.5891 -2.1076
29675SOL    HW291033   9.246   0.170   3.140  2.4797  1.9327 -0.7950
29676SOL     OW91034   3.713   5.734   3.689 -0.3336  0.3573  0.1341
29676SOL    HW191035   3.668   5.653   3.666  1.2995 -1.1155  1.7562
29676SOL    HW291036   3.733   5.775   3.605  0.4069 -1.8720 -0.8756
29677SOL     OW91037   2.426   9.195  10.858 -0.5494 -0.5256 -0.4539
29677SOL    HW191038   2.369   9.241  10.921 -0.5226 -1.4860  0.2930
29677SOL    HW291039   2.514   9.212  10.889 -0.5635 -1.6918  0.2885
29678SOL     OW91040   4.643   4.881   6.029 -0.1705 -0.0618  0.3616
29678SOL    HW191041   4.639   4.931   5.948 -1.3028 -0.8234 -0.0850
29678SOL    HW291042   4.567   4.912   6.079  0.1785 -0.0252  0.8732
29679SOL     OW91043   6.539   1.349   8.903  0.2239  0.2106 -0.2307
29679SOL    HW191044   6.593   1.374   8.977 -0.4661 -1.0126  0.7196
29679SOL    HW291045   6.601   1.325   8.834  0.8656  0.7235  0.1654
29680SOL     OW91046   8.264   0.656   1.730  0.2973  0.1738  0.6198
29680SOL    HW191047   8.331   0.718   1.759 -1.5054  1.7605  1.6784
29680SOL    HW291048   8.217   0.702   1.661 -0.9459 -0.0458  1.2805
29681SOL     OW91049  10.492   4.195   9.398  0.1562  0.6891 -0.4599
29681SOL    HW191050  10.487   4.264   9.332 -0.3008  1.6318  0.5396
29681SOL    HW291051  10.404   4.192   9.436  0.8053  1.2633  1.1796
29682SOL     OW91052   1.549   1.005   0.438  0.1805  0.0082  0.1005
29682SOL    HW191053   1.576   1.094   0.463  2.3885 -1.3814  3.3693
29682SOL    HW291054   1.622   0.950   0.463 -1.2550 -2.8439 -1.4920
29683SOL     OW91055   9.021   3.528   9.475  0.8618  0.2234 -0.6087
29683SOL    HW191056   9.101   3.522   9.528  0.6221 -0.5512 -0.3121
29683SOL    HW291057   8.965   3.590   9.521 -0.1930 -1.9456  1.2652
29684SOL     OW91058   7.451   0.892   7.156  0.1383 -0.1665 -0.2861
29684SOL    HW191059   7.485   0.813   7.198 -0.1049 -0.9756 -1.5609
29684SOL    HW291060   7.468   0.962   7.220  2.6228 -0.8019 -0.1137
29685SOL     OW91061  10.860   1.714   6.373  0.6344 -0.4985  0.3969
29685SOL    HW191062  10.815   1.667   6.303  0.1803 -1.3599  1.2453
29685SOL    HW291063  10.885   1.646   6.435  1.3079  0.2148  0.9203
29686SOL     OW91064   6.458   0.091   4.680 -0.0518 -0.0813 -0.1614
29686SOL    HW191065   6.491   0.027   4.617  0.8523 -0.2269  0.4569
29686SOL    HW291066   6.433   0.166   4.627 -1.7222 -1.1528 -0.9769
29687SOL     OW91067   7.244   8.827   0.457 -0.4686 -0.1236 -0.6326
29687SOL    HW191068   7.321   8.778   0.486  0.5922  2.0961  0.6393
29687SOL    HW291069   7.172   8.792   0.509  0.4623  0.3475  1.0634
29688SOL     OW91070   4.519   6.826  10.983  0.4250 -0.3791 -0.0493
29688SOL    HW191071   4.517   6.921  10.994 -1.7543 -0.2534 -1.0203
29688SOL    HW291072   4.465   6.792  11.054  0.5992 -0.8594 -0.1383
29689SOL     OW91073   6.667   6.789  10.950 -0.0496 -0.0188 -0.6266
29689SOL    HW191074   6.723   6.860  10.918 -0.6199  0.2636 -1.0263
29689SOL    HW291075   6.603   6.775  10.880 -1.7712  1.0864  0.6098
29690SOL     OW91076   2.161   2.842   6.764 -0.0563 -0.2177  0.0123
29690SOL    HW191077   2.139   2.934   6.750 -0.0371  0.0209  1.4022
29690SOL    HW291078   2.229   2.824   6.699  1.0618  1.1966  0.7316
29691SOL     OW91079   5.508   5.251   5.124 -0.2221 -0.1543  0.0063
29691SOL    HW191080   5.493   5.182   5.058  1.3125 -0.5196 -0.0132
29691SOL    HW291081   5.498   5.333   5.076  0.5606 -0.4161 -0.6351
29692SOL     OW91082   2.262   1.095   2.711  0.0838 -0.0491 -0.5347
29692SOL    HW191083   2.322   1.170   2.712  0.1145 -0.0764 -0.2277
29692SOL    HW291084   2.291   1.042   2.638  2.4427 -1.6934  1.4508
29693SOL     OW91085   6.538   9.181   6.327 -0.3448 -0.2977 -0.0102
29693SOL    HW191086   6.607   9.129   6.369  0.0681  0.2080 -0.0502
29693SOL    HW291087   6.572   9.201   6.240 -0.2005  0.6021  0.2410
29694SOL     OW91088   2.421   8.018   3.080 -0.2967 -0.2706  0.2452
29694SOL    HW191089   2.483   7.972   3.023 -1.2965 -0.3463 -0.8256
29694SOL    HW291090   2.338   8.018   3.031 -0.9311  0.5788  1.2585
29695SOL     OW91091   3.222   3.925   6.586 -0.2421  0.3969  0.2417
29695SOL    HW191092   3.306   3.892   6.553  0.3440  1.3260  0.7811
29695SOL    HW291093   3.171   3.846   6.602  1.2542 -0.3203  1.8164
29696SOL     OW91094  10.676  10.541   7.717  0.2946  0.0716  0.1103
29696SOL    HW191095  10.696  10.459   7.671  0.6324 -1.0550  2.1698
29696SOL    HW291096  10.635  10.596   7.650  1.6528 -1.0841 -1.7991
29697SOL     OW91097  10.878   6.876  10.223 -0.2241 -0.2549 -0.1961
29697SOL    HW191098  10.919   6.867  10.309  0.1189  0.7077 -0.2493
29697SOL    HW291099  10.784   6.879  10.241 -0.2938 -2.0687 -0.0391
29698SOL     OW91100   8.438  10.177   8.219  0.0764  0.5489  0.3456
29698SOL    HW191101   8.367  10.151   8.161 -0.8853 -0.8731  2.0537
29698SOL    HW291102   8.456  10.268   8.197 -0.3532  0.1107 -2.0143
29699SOL     OW91103   3.932   6.298  10.954  0.6148  0.4663  0.0994
29699SOL    HW191104   4.000   6.287  11.020  0.1437  1.1513  0.7179
29699SOL    HW291105   3.976   6.337  10.879  1.2192 -0.6036 -0.1206
29700SOL     OW91106   0.024  10.243   6.365  0.0706 -1.0827  0.4464
29700SOL    HW191107  -0.026  10.170   6.401 -1.0615 -0.5934 -0.0828
29700SOL    HW291108  -0.042  10.309   6.344  1.0530  0.0229  0.7385
29701SOL     OW91109   8.683   7.034  10.661  0.4815  0.0276  0.0609
29701SOL    HW191110   8.686   7.091  10.584 -0.2079 -0.8357 -0.6186
29701SOL    HW291111   8.600   7.054  10.703  0.0098 -0.8021 -0.4503
29702SOL     OW91112   4.285  10.116   1.892 -0.2231  0.4368  0.0713
29702SOL    HW191113   4.236  10.057   1.835  1.4953  0.5088 -1.5872
29702SOL    HW291114   4.218  10.172   1.931 -1.5257  0.1382 -1.6142
29703SOL     OW91115   5.958   1.799   2.197 -0.3120 -0.2566  0.2716
29703SOL    HW191116   5.987   1.877   2.150 -2.7368  0.8283  0.4144
29703SOL    HW291117   6.030   1.778   2.255  0.5672  1.7007 -0.0201
29704SOL     OW91118   4.591   7.259   0.984 -0.6432  0.4661 -0.4370
29704SOL    HW191119   4.501   7.289   0.970 -0.6803 -0.1955 -1.7437
29704SOL    HW291120   4.587   7.164   0.974 -0.4162 -0.0286  2.9858
29705SOL     OW91121   8.254   0.784   5.258  0.5649  0.5117  0.0184
29705SOL    HW191122   8.235   0.809   5.349  3.5917  1.0006  0.5925
29705SOL    HW291123   8.176   0.734   5.231  0.7012 -2.1831  3.8308
29706SOL     OW91124   8.389   8.225   4.527 -0.0981 -0.1650  0.1870
29706SOL    HW191125   8.321   8.162   4.501  0.5311 -0.0892 -1.7851
29706SOL    HW291126   8.458   8.171   4.565 -0.4835 -0.4118  0.5590
29707SOL     OW91127   6.350   4.585   7.794 -0.0331 -0.1188 -0.2172
29707SOL    HW191128   6.257   4.605   7.806 -0.2662 -1.0231 -0.4579
29707SOL    HW291129   6.382   4.654   7.736 -0.6511 -0.0356 -0.4651
29708SOL     OW91130   2.591   7.434   4.866 -0.4613 -0.7546 -0.5534
29708SOL    HW191131   2.576   7.341   4.884  1.2232 -0.8473  0.6746
29708SOL    HW291132   2.507   7.466   4.832 -1.1222 -2.6709 -0.8527
29709SOL     OW91133   3.934   2.879   4.818 -0.5030  0.2269 -0.0426
29709SOL    HW191134   4.018   2.925   4.828 -0.4106  0.9258 -3.0701
29709SOL    HW291135   3.958   2.788   4.801 -0.4936 -0.0640  1.4410
29710SOL     OW91136   8.211   6.953  10.533  0.5430 -0.0639 -0.1597
29710SOL    HW191137   8.208   6.878  10.473  0.2124 -0.5446  0.4399
29710SOL    HW291138   8.160   6.924  10.609 -1.0959  1.3965 -0.6289
29711SOL     OW91139   8.450   0.693   5.715  0.0724 -0.2703  0.4615
29711SOL    HW191140   8.417   0.693   5.805  0.8646 -3.1128  0.8626
29711SOL    HW291141   8.378   0.656   5.663 -0.6637  2.0372 -0.2796
29712SOL     OW91142   7.440   5.362   0.993 -0.1916 -0.4615  0.0745
29712SOL    HW191143   7.396   5.444   0.972  3.3810  1.5332 -0.4817
29712SOL    HW291144   7.437   5.311   0.912 -0.1970  0.3078 -0.4186
29713SOL     OW91145   8.812   1.891   9.166 -0.0161 -0.4009  0.2470
29713SOL    HW191146   8.737   1.839   9.196 -0.7754  0.5179 -0.0029
29713SOL    HW291147   8.811   1.968   9.222  2.0509 -1.3239  1.6931
29714SOL     OW91148  10.078   1.138   2.677 -0.1505  1.2827  0.4082
29714SOL    HW191149  10.069   1.074   2.748  2.8078  0.1465 -0.0666
29714SOL    HW291150  10.063   1.087   2.597 -0.7875  1.9089  0.1303
29715SOL     OW91151   0.689   6.427   5.508 -0.0488  0.0335 -0.4503
29715SOL    HW191152   0.609   6.377   5.493  0.5157 -1.0854  0.1414
29715SOL    HW291153   0.693   6.438   5.603  0.5416  0.0053 -0.4683
29716SOL     OW91154   7.362   7.225   0.859 -0.2694 -0.3784  0.4343
29716SOL    HW191155   7.319   7.265   0.934  0.8441 -2.8221  2.5709
29716SOL    HW291156   7.319   7.140   0.850  0.3886 -0.5832 -0.9614
29717SOL     OW91157   6.798   8.595  10.486 -0.4657  0.1371 -0.2477
29717SOL    HW191158   6.803   8.506  10.452 -0.9080  0.3539 -0.8947
29717SOL    HW291159   6.705   8.617  10.483 -0.4582  0.3325  0.6722
29718SOL     OW91160   3.971   9.602   3.218 -0.0399  0.3681  0.0258
29718SOL    HW191161   4.015   9.673   3.265  0.2186 -0.0931  0.4903
29718SOL    HW291162   3.900   9.646   3.170  1.0890  1.1721 -0.9786
29719SOL     OW91163   0.328  10.114   4.216 -0.1331 -0.1447  0.0020
29719SOL    HW191164   0.250  10.093   4.268 -0.9294 -1.1240 -1.5231
29719SOL    HW291165   0.323  10.208   4.202  0.7393  0.3943  2.6185
29720SOL     OW91166   5.008   5.869  10.440 -0.3319  0.1512 -0.0419
29720SOL    HW191167   5.079   5.908  10.389 -0.9530  0.3498 -0.7728
29720SOL    HW291168   4.996   5.782  10.402 -0.5377  0.1536  0.0143
29721SOL     OW91169   2.348   0.958   4.139 -0.9446  0.7618  0.1687
29721SOL    HW191170   2.344   1.020   4.066 -1.0863  0.2942 -0.2275
29721SOL    HW291171   2.272   0.978   4.193 -1.5494  0.2799 -0.4947
29722SOL     OW91172   0.039   6.809   2.517  0.7435  0.1855 -0.7085
29722SOL    HW191173   0.043   6.866   2.439  1.7388  2.3621  0.8166
29722SOL    HW291174  -0.010   6.860   2.581  0.3956 -1.3423  0.2882
29723SOL     OW91175   8.037   8.101   4.853 -0.1669  0.5816  0.0072
29723SOL    HW191176   7.946   8.120   4.876 -0.5119  0.4297 -1.1238
29723SOL    HW291177   8.087   8.123   4.931 -0.8422  3.5030 -0.2587
29724SOL     OW91178   8.191   6.684  10.947 -0.2586 -0.2112  0.6013
29724SOL    HW191179   8.280   6.703  10.918  0.1705  1.4559  2.7540
29724SOL    HW291180   8.186   6.589  10.948  1.4292 -0.3352  0.2172
29725SOL     OW91181   2.274   5.171   9.191 -0.0268  0.4135  0.2348
29725SOL    HW191182   2.323   5.228   9.250 -0.8678 -1.2730  2.7135
29725SOL    HW291183   2.338   5.105   9.164 -0.1681 -0.0689  1.0564
29726SOL     OW91184   9.987   6.085   2.913  0.5340 -0.1241 -0.2075
29726SOL    HW191185   9.903   6.047   2.890 -0.4318  1.0862  1.1834
29726SOL    HW291186  10.048   6.048   2.849 -0.4078 -3.5333  0.6197
29727SOL     OW91187   5.234   4.836  10.161  0.2229  0.3264  0.1209
29727SOL    HW191188   5.220   4.770  10.229  0.3808  1.5107  1.3509
29727SOL    HW291189   5.146   4.859  10.131  0.1869 -0.7555 -0.6566
29728SOL     OW91190   8.546   6.827   3.965 -0.0536 -0.6944 -0.1633
29728SOL    HW191191   8.529   6.757   4.028 -0.0603 -0.8758 -0.3627
29728SOL    HW291192   8.460   6.859   3.941 -0.0101  1.1872  1.8906
29729SOL     OW91193   6.660  10.110   9.379 -0.3613  0.0938 -0.1294
29729SOL    HW191194   6.742  10.123   9.332 -0.6796 -1.0014 -1.0336
29729SOL    HW291195   6.614  10.194   9.370  1.1145  1.1380  1.3996
29730SOL     OW91196   9.160   1.883   1.858 -0.7804 -0.5477 -0.3121
29730SOL    HW191197   9.182   1.793   1.833 -1.5093 -0.8460  0.0637
29730SOL    HW291198   9.130   1.924   1.776  1.8397  0.1285 -1.0138
29731SOL     OW91199   5.025   4.091   0.439  0.4190  0.7440 -0.2177
29731SOL    HW191200   5.002   4.013   0.490  1.5035  1.1667  0.9695
29731SOL    HW291201   4.966   4.159   0.471 -0.1606  0.5621 -0.8721
29732SOL     OW91202   9.089   3.192   1.376 -0.0098  0.7838  0.4628
29732SOL    HW191203   9.072   3.098   1.385 -2.0117  0.9183 -1.1308
29732SOL    HW291204   9.141   3.214   1.453 -1.6695 -1.1409  2.2747
29733SOL     OW91205   8.348   2.553  10.263  0.5657  0.0726 -0.2372
29733SOL    HW191206   8.403   2.603  10.203  0.2697  0.3045 -0.3174
29733SOL    HW291207   8.403   2.539  10.340  0.1264  1.9304  0.4668
29734SOL     OW91208   6.281   7.061   4.090  0.3202  0.5234 -0.1227
29734SOL    HW191209   6.200   7.109   4.076  0.7283  0.7980 -1.7810
29734SOL    HW291210   6.308   7.085   4.179 -1.4178  0.3838  0.4705
29735SOL     OW91211   1.505   2.841   7.956 -0.1660  0.9522  0.4833
29735SOL    HW191212   1.449   2.768   7.931  0.1628  0.6021  0.7592
29735SOL    HW291213   1.456   2.886   8.026 -0.2665  0.8649  0.4697
29736SOL     OW91214   0.467   3.797   1.271  0.0259  0.0383  0.1071
29736SOL    HW191215   0.455   3.865   1.205  0.0694  0.0885  0.1506
29736SOL    HW291216   0.422   3.831   1.348 -2.0424 -1.0315 -0.5649
29737SOL     OW91217  10.863   4.811   3.725 -0.3054 -0.2261 -0.1533
29737SOL    HW191218  10.870   4.717   3.741  1.7214  0.0338  0.9091
29737SOL    HW291219  10.946   4.833   3.683  0.0457  1.3534  1.2655
29738SOL     OW91220   1.489   9.457   9.372  0.6369 -0.5678 -0.2918
29738SOL    HW191221   1.560   9.465   9.435  1.8856  1.1298 -1.8172
29738SOL    HW291222   1.508   9.376   9.324  0.9419 -0.6707  0.0055
29739SOL     OW91223   5.534   2.199   2.579 -0.2020 -0.0386  0.3874
29739SOL    HW191224   5.474   2.268   2.549 -0.3997  0.6408  2.2078
29739SOL    HW291225   5.564   2.229   2.664  1.2415 -1.3124  0.3724
29740SOL     OW91226   7.795   4.140   6.773 -0.1180  0.7315  0.1074
29740SOL    HW191227   7.809   4.177   6.686 -1.5004  0.0490 -0.4116
29740SOL    HW291228   7.738   4.204   6.817 -0.2078  0.5981  0.1838
29741SOL     OW91229   4.496   1.960  10.319  0.9755 -0.2242 -0.0839
29741SOL    HW191230   4.417   1.935  10.368  1.2490  1.4384  1.3296
29741SOL    HW291231   4.466   2.028  10.259  1.3050  0.4287  0.4737
29742SOL     OW91232   3.248   4.025   7.221  0.0110 -0.6520  0.3852
29742SOL    HW191233   3.164   4.060   7.190  0.6332 -0.8860 -1.7623
29742SOL    HW291234   3.226   3.974   7.299 -1.8356 -0.6942 -0.1174
29743SOL     OW91235   3.740   4.444   4.001  0.3243  0.4401  0.1702
29743SOL    HW191236   3.733   4.399   4.085  0.3198  0.0979 -0.0107
29743SOL    HW291237   3.673   4.403   3.946  0.6580  0.3173 -0.1504
29744SOL     OW91238   0.052   3.182   5.205 -0.2789 -0.3104 -0.4315
29744SOL    HW191239   0.063   3.182   5.110  0.7159  2.4969 -0.3939
29744SOL    HW291240   0.043   3.274   5.229 -1.2087 -0.9739  2.1598
29745SOL     OW91241   2.857   7.995   0.702  0.5809  0.2968  0.3555
29745SOL    HW191242   2.769   7.957   0.701 -0.3040  2.2156 -0.5995
29745SOL    HW291243   2.843   8.088   0.684  2.6171  1.1314  2.5788
29746SOL     OW91244   3.004   5.629   5.647 -0.3463 -0.7573 -0.4583
29746SOL    HW191245   2.951   5.560   5.687  0.2620 -0.4295  0.9723
29746SOL    HW291246   2.942   5.700   5.629 -0.3772 -0.2065  1.6051
29747SOL     OW91247   9.437   4.649   7.574  0.1317  0.3009  0.4322
29747SOL    HW191248   9.477   4.735   7.579 -0.1120  0.3420  2.0204
29747SOL    HW291249   9.404   4.644   7.484  0.0211  1.9135  0.3492
29748SOL     OW91250   9.877   0.877   6.209 -0.0649  0.4315 -0.4431
29748SOL    HW191251   9.785   0.866   6.236 -0.2399 -2.3058 -1.7607
29748SOL    HW291252   9.925   0.887   6.291 -1.2142 -1.3844  0.5234
29749SOL     OW91253   2.588  10.735   1.927  0.0566  0.4936  0.1451
29749SOL    HW191254   2.534  10.662   1.897  0.8598  0.5724 -1.6478
29749SOL    HW291255   2.534  10.780   1.992 -2.1729  0.7455 -1.7569
29750SOL     OW91256   3.847   2.581   9.389 -0.1821 -0.0657 -0.5847
29750SOL    HW191257   3.922   2.605   9.334  1.8176 -3.0973  0.5512
29750SOL    HW291258   3.872   2.609   9.477 -0.8072 -0.2568 -0.3391
29751SOL     OW91259   0.510   1.704   6.050 -0.2925  0.8147  0.5940
29751SOL    HW191260   0.460   1.715   5.969  0.3614  0.1308  0.0848
29751SOL    HW291261   0.483   1.617   6.082  1.9729 -0.4521 -0.7185
29752SOL     OW91262   7.123   6.508   5.050 -0.2994 -0.1986 -0.1081
29752SOL    HW191263   7.153   6.581   4.996  0.0808  0.0321  0.4033
29752SOL    HW291264   7.047   6.474   5.004 -1.6725  1.7290  0.6277
29753SOL     OW91265   3.216   9.264   6.050  0.4549 -0.1633  0.2435
29753SOL    HW191266   3.160   9.291   6.122 -0.3026 -0.8206 -0.0860
29753SOL    HW291267   3.196   9.326   5.979  0.9835  0.2984  0.4845
29754SOL     OW91268   1.653   4.588   5.801  0.1592  0.0735 -0.2246
29754SOL    HW191269   1.592   4.643   5.850  0.9303  1.8364 -1.1700
29754SOL    HW291270   1.669   4.513   5.859  0.1051  1.4744  1.7063
29755SOL     OW91271   1.372   6.513   2.100  0.0969  0.1349  0.1062
29755SOL    HW191272   1.418   6.574   2.042  0.4611 -1.3120 -1.1864
29755SOL    HW291273   1.279   6.528   2.080  0.2313 -0.6336 -1.1958
29756SOL     OW91274   3.448  10.851   3.775 -0.2277 -0.0926  0.3255
29756SOL    HW191275   3.412  10.932   3.739  0.6117  0.2031  0.1401
29756SOL    HW291276   3.520  10.879   3.831  0.4939 -0.7389 -0.2485
29757SOL     OW91277   4.314   8.108   6.396 -0.2182 -0.6736 -0.1754
29757SOL    HW191278   4.391   8.160   6.419  0.7582 -1.9769 -0.3599
29757SOL    HW291279   4.245   8.141   6.453  0.4087  0.6747 -0.1558
29758SOL     OW91280   5.413   9.389   3.018  0.0054 -0.2063 -0.2147
29758SOL    HW191281   5.350   9.367   3.086 -0.1484  0.3921 -0.1620
29758SOL    HW291282   5.478   9.318   3.023  0.5864  0.3837  1.2882
29759SOL     OW91283   8.386   8.127   1.937  0.1281  0.1359 -0.0534
29759SOL    HW191284   8.451   8.103   1.871  2.0605  0.0837  1.7537
29759SOL    HW291285   8.425   8.201   1.982 -1.3725  0.4828  0.7164
29760SOL     OW91286   8.867   7.127   8.803 -0.0501 -0.0786 -0.4617
29760SOL    HW191287   8.930   7.125   8.731 -0.7826 -0.5166 -1.1056
29760SOL    HW291288   8.807   7.198   8.781  0.6399  0.8533  0.5403
29761SOL     OW91289   5.421  11.027   8.561 -0.2326  0.1511  0.6787
29761SOL    HW191290   5.361  10.958   8.591  0.8496  0.2105  3.1996
29761SOL    HW291291   5.500  10.980   8.536  0.2196  0.3963  1.6245
29762SOL     OW91292   6.751  10.755   7.669 -0.3570 -0.0294 -0.3014
29762SOL    HW191293   6.759  10.701   7.747 -2.9683  0.1558  0.2044
29762SOL    HW291294   6.835  10.801   7.662  1.2118 -2.6101  0.3489
29763SOL     OW91295  10.831   3.308   1.915 -0.4214 -0.2218 -0.1815
29763SOL    HW191296  10.793   3.337   1.998 -1.7854  2.3706 -1.5853
29763SOL    HW291297  10.757   3.305   1.855  0.9730  1.4808 -2.1343
29764SOL     OW91298   8.659   5.805   0.458  0.1668 -0.5663 -0.2811
29764SOL    HW191299   8.593   5.798   0.388  0.0563  0.7725 -0.3349
29764SOL    HW291300   8.631   5.881   0.509  0.3478 -1.4148  1.1313
29765SOL     OW91301   9.563   2.651   7.559  0.6419 -0.1897 -0.4656
29765SOL    HW191302   9.485   2.602   7.535  0.6575 -0.3534 -0.1839
29765SOL    HW291303   9.540   2.697   7.640  0.7830 -0.1059 -0.4708
29766SOL     OW91304   5.950   9.113   3.877 -0.7782 -0.5479 -0.4766
29766SOL    HW191305   5.868   9.163   3.869  0.1518  1.2026  0.3517
29766SOL    HW291306   5.954   9.090   3.970 -0.1657 -0.3267 -0.4476
29767SOL     OW91307   8.652   3.248   4.975 -0.0840 -0.2998  0.2069
29767SOL    HW191308   8.594   3.291   4.912  0.3935 -0.6919 -0.5126
29767SOL    HW291309   8.601   3.245   5.056 -0.6196  0.4245 -0.0917
29768SOL     OW91310   5.839   2.941   2.222  0.0627 -0.2137  0.4706
29768SOL    HW191311   5.838   2.861   2.275 -1.3130 -0.0507  0.7121
29768SOL    HW291312   5.747   2.966   2.213  0.4121  0.8850 -0.3091
29769SOL     OW91313   0.322   6.925   8.618  0.3408 -0.0598  0.3658
29769SOL    HW191314   0.418   6.928   8.629  0.6649 -0.5079 -1.8414
29769SOL    HW291315   0.290   6.999   8.670  1.7505 -0.5676  2.0705
29770SOL     OW91316   5.999   5.033   9.554 -0.1998  0.1166 -0.0404
29770SOL    HW191317   6.007   4.995   9.467 -0.4216  3.4448 -1.6667
29770SOL    HW291318   6.077   5.002   9.601  0.5445 -0.8045 -1.7855
29771SOL     OW91319   7.142   8.824   5.796 -0.6236 -0.2202  0.9312
29771SOL    HW191320   7.145   8.880   5.873 -1.8980  2.5975 -0.8855
29771SOL    HW291321   7.060   8.777   5.804 -1.9690  1.8645  0.2656
29772SOL     OW91322   4.001   8.641  11.024 -0.0350  0.5239  0.0003
29772SOL    HW191323   4.074   8.578  11.023 -1.1629 -0.8556 -1.8995
29772SOL    HW291324   4.043   8.725  11.007  1.2306 -0.0677  0.0253
29773SOL     OW91325   0.939   0.117   5.745 -0.0577 -0.8704 -0.3830
29773SOL    HW191326   1.035   0.121   5.745 -0.0644  1.3106  1.3115
29773SOL    HW291327   0.915   0.130   5.653  1.2871 -0.1172 -0.6675
29774SOL     OW91328   4.454   4.374   5.045 -0.3394  0.0546  0.1686
29774SOL    HW191329   4.398   4.373   5.123 -2.2073 -0.3561 -1.1378
29774SOL    HW291330   4.404   4.423   4.980  0.5811 -0.8052 -1.2223
29775SOL     OW91331   0.410   5.824   3.731 -0.3710 -0.1121 -0.1921
29775SOL    HW191332   0.505   5.832   3.740  0.0676 -1.5671 -2.6037
29775SOL    HW291333   0.381   5.912   3.704  0.6897 -0.2210 -1.8521
29776SOL     OW91334   3.500   8.612   2.319 -0.0816  0.1151 -0.4546
29776SOL    HW191335   3.470   8.702   2.306 -0.8112  0.2226  1.6980
29776SOL    HW291336   3.577   8.620   2.375 -1.0493 -0.6460  1.0511
29777SOL     OW91337   2.078   0.534   0.951  0.2922 -0.1119  0.3221
29777SOL    HW191338   2.050   0.480   0.877  0.4784 -1.2332  1.0396
29777SOL    HW291339   2.006   0.596   0.964  1.4643  2.0714 -2.5733
29778SOL     OW91340   7.665   0.134   8.727 -0.1024  0.0533 -0.8614
29778SOL    HW191341   7.752   0.160   8.756 -0.9308  0.9649  0.9781
29778SOL    HW291342   7.618   0.114   8.808 -2.2545  1.7595 -1.5973
29779SOL     OW91343   8.898   5.791   2.604  0.6084  0.1447  0.0303
29779SOL    HW191344   8.805   5.793   2.581  0.8637  0.7866 -1.0253
29779SOL    HW291345   8.899   5.780   2.699 -0.5713  1.4263  0.2263
29780SOL     OW91346   5.713   0.292   6.894  0.3713 -0.6876  0.3723
29780SOL    HW191347   5.655   0.217   6.894 -0.1708 -0.2737 -0.1550
29780SOL    HW291348   5.708   0.326   6.983 -0.1551 -0.6874  0.3446
29781SOL     OW91349   8.205   0.271   1.261  0.2889 -0.4255 -0.5301
29781SOL    HW191350   8.262   0.342   1.291  0.7717 -0.7148 -0.7526
29781SOL    HW291351   8.255   0.191   1.281 -0.6103 -0.7470  0.5059
29782SOL     OW91352   7.069   5.037   9.643  0.2678  0.0382 -0.4095
29782SOL    HW191353   7.100   5.127   9.646 -2.2921  1.0392 -1.4746
29782SOL    HW291354   7.144   4.987   9.613  1.1640  2.1528 -1.9401
29783SOL     OW91355  10.949   3.559   4.944  0.4313  0.3785 -0.2963
29783SOL    HW191356  10.926   3.545   4.852  1.6054  3.1450 -1.1123
29783SOL    HW291357  11.036   3.521   4.953 -0.9036 -2.8373  0.6707
29784SOL     OW91358  10.697   7.342   9.820  0.3132 -0.3297 -0.2007
29784SOL    HW191359  10.652   7.404   9.877  1.5541  0.3423  0.0616
29784SOL    HW291360  10.673   7.370   9.731  0.0781 -0.0898 -0.0626
29785SOL     OW91361   7.108  10.034   0.332 -0.7831  0.3698  0.4171
29785SOL    HW191362   7.027   9.992   0.361 -0.4521 -0.5327  0.0868
29785SOL    HW291363   7.176   9.997   0.388 -0.6068  1.2428  0.8019
29786SOL     OW91364   2.494   3.071   8.302 -0.0505  0.1163  0.5082
29786SOL    HW191365   2.566   3.064   8.240 -1.7805 -1.8740 -1.4500
29786SOL    HW291366   2.441   3.144   8.269 -1.3074 -1.3396 -0.8490
29787SOL     OW91367   1.148   6.678   5.067  0.2494 -0.3923 -0.4778
29787SOL    HW191368   1.139   6.633   5.151  0.3973  1.2617  0.4638
29787SOL    HW291369   1.083   6.635   5.011 -0.8650 -0.5929  0.8990
29788SOL     OW91370  10.361   3.294   9.822 -0.5718 -0.0367  0.1523
29788SOL    HW191371  10.356   3.221   9.760  1.5942  0.2231 -0.4201
29788SOL    HW291372  10.319   3.367   9.776  1.4270  0.2865 -1.3154
29789SOL     OW91373   4.099   0.266   8.989  0.2450  0.1421  0.3988
29789SOL    HW191374   4.114   0.210   8.913  1.6650  0.9329  0.0661
29789SOL    HW291375   4.004   0.272   8.996  0.0395 -2.1004  0.3178
29790SOL     OW91376   0.088   3.478   1.030  0.2406 -0.4840 -0.4774
29790SOL    HW191377   0.059   3.465   1.120 -0.7654 -1.1532 -0.8942
29790SOL    HW291378   0.141   3.400   1.010  0.7484 -0.1760 -0.3649
29791SOL     OW91379   5.261   3.370   2.476  0.3032  0.5618  0.4656
29791SOL    HW191380   5.224   3.430   2.540  0.1093  0.2046  0.6919
29791SOL    HW291381   5.333   3.327   2.523  0.6943  0.8948  0.1836
29792SOL     OW91382   8.932   1.272   8.548  0.1113 -0.1450  0.8586
29792SOL    HW191383   8.911   1.354   8.593  0.0446  0.8597 -0.9173
29792SOL    HW291384   9.028   1.275   8.539  0.0062  0.3227 -0.2283
29793SOL     OW91385   3.051  10.300   1.752  0.8208  0.1529 -0.2442
29793SOL    HW191386   3.118  10.297   1.684  1.2586 -1.6850  0.2231
29793SOL    HW291387   3.029  10.208   1.768 -0.9399  0.6569  0.4753
29794SOL     OW91388   5.205   8.285   4.856 -0.1081  0.1807 -0.0117
29794SOL    HW191389   5.116   8.253   4.873  0.1455 -1.1504 -0.9848
29794SOL    HW291390   5.259   8.206   4.859  0.9189  0.8620 -0.2413
29795SOL     OW91391   5.284   3.112   0.268  0.4777  0.8167 -0.7329
29795SOL    HW191392   5.364   3.059   0.256  0.6048  1.0847 -1.1083
29795SOL    HW291393   5.316   3.196   0.299  0.3955  1.1170 -1.4437
29796SOL     OW91394   7.504   1.804  10.005 -0.6897  0.0295 -0.4931
29796SOL    HW191395   7.484   1.777   9.916 -0.0116 -0.2012 -0.5833
29796SOL    HW291396   7.515   1.721  10.053  2.4403  0.0450 -1.0041
29797SOL     OW91397   7.131   0.382   2.484  0.4077  0.0519  0.2243
29797SOL    HW191398   7.156   0.381   2.576  0.8162 -0.3991  0.1137
29797SOL    HW291399   7.165   0.464   2.450  0.2180  0.2389  0.4848
29798SOL     OW91400   9.250   7.519   2.899  0.2815  0.4196 -0.2051
29798SOL    HW191401   9.272   7.505   2.807  2.2155  1.0635  0.1064
29798SOL    HW291402   9.307   7.460   2.947  1.4860  2.1882  0.6732
29799SOL     OW91403   7.938   1.806   8.876  0.0458 -0.0274 -0.6621
29799SOL    HW191404   7.891   1.844   8.802  1.3441  0.0669 -1.4584
29799SOL    HW291405   8.030   1.818   8.856  0.4478 -0.9300  0.4839
29800SOL     OW91406   5.801   7.607   2.496 -0.0063 -0.0352  0.0333
29800SOL    HW191407   5.839   7.579   2.580  0.7649  1.1894  0.1242
29800SOL    HW291408   5.739   7.675   2.520  0.6049  0.6934 -0.4227
29801SOL     OW91409  10.906   2.015   5.295 -0.3729 -0.6674 -0.3475
29801SOL    HW191410  10.872   2.070   5.225 -0.7211  0.3996  0.6210
29801SOL    HW291411  11.000   2.030   5.294 -0.3389 -0.8897 -0.7709
29802SOL     OW91412  10.316  10.138   1.888 -0.0228  0.0877 -0.0317
29802SOL    HW191413  10.313  10.136   1.984 -0.4535 -0.5368 -0.0522
29802SOL    HW291414  10.239  10.088   1.861  0.8930 -1.0113 -0.6951
29803SOL     OW91415   2.568   5.780   2.236  0.6235 -0.2399  0.2534
29803SOL    HW191416   2.525   5.700   2.207  0.2652  0.2815 -0.6955
29803SOL    HW291417   2.656   5.776   2.199  0.7716 -0.4235  0.6214
29804SOL     OW91418   1.418   8.936   7.106  0.1411  0.0128 -0.3650
29804SOL    HW191419   1.325   8.953   7.101  0.0515 -0.3560 -0.0290
29804SOL    HW291420   1.425   8.841   7.115  0.4903  0.1488  0.9490
29805SOL     OW91421   4.052   9.085   0.940  0.0802  0.0235 -0.0791
29805SOL    HW191422   4.137   9.041   0.951 -0.0576 -0.1087  0.4825
29805SOL    HW291423   3.988   9.014   0.944 -0.1870  0.3178  1.3962
29806SOL     OW91424   4.516   0.116   4.593  0.0402 -0.2927 -0.0274
29806SOL    HW191425   4.565   0.071   4.524 -1.2268  0.9457 -1.7959
29806SOL    HW291426   4.435   0.066   4.600 -1.3445  1.5568 -1.9494
29807SOL     OW91427   5.082   7.288   1.524  0.2914 -0.2468  0.2893
29807SOL    HW191428   5.018   7.333   1.469  0.3774  1.3079  1.3940
29807SOL    HW291429   5.040   7.280   1.609  0.9068 -0.7931  0.5543
29808SOL     OW91430   8.184   1.948   9.098 -0.7652 -0.0797  0.3352
29808SOL    HW191431   8.169   2.036   9.132  1.3486  0.0033  1.2410
29808SOL    HW291432   8.170   1.956   9.004 -0.3502  1.2962  0.3688
29809SOL     OW91433   3.212  10.464   0.611  0.1797  0.5737  0.2664
29809SOL    HW191434   3.161  10.424   0.540 -0.2979 -1.2386  1.5745
29809SOL    HW291435   3.295  10.489   0.569 -0.7572  1.2112 -1.3145
29810SOL     OW91436   9.345   6.806  10.365 -0.2265 -0.2788 -0.1041
29810SOL    HW191437   9.326   6.770  10.278 -0.1433  0.3298 -0.3837
29810SOL    HW291438   9.440   6.819  10.364 -0.0996 -1.1237  0.4211
29811SOL     OW91439   7.691   5.498   1.324 -0.3578 -0.0040  0.1521
29811SOL    HW191440   7.644   5.545   1.393 -0.2319  2.3984 -1.2964
29811SOL    HW291441   7.663   5.540   1.243  0.9402 -1.4905 -1.1273
29812SOL     OW91442   2.507   2.017   8.405  0.2775 -0.2166 -0.1768
29812SOL    HW191443   2.494   2.080   8.476 -0.2675  0.2442 -0.6773
29812SOL    HW291444   2.439   1.951   8.419  0.0888 -0.0563 -0.3565
29813SOL     OW91445   9.932   1.161   7.364 -0.2991  0.3140 -0.2589
29813SOL    HW191446  10.023   1.192   7.365 -0.1078 -0.2376  1.0791
29813SOL    HW291447   9.901   1.183   7.276  1.4266 -0.3375 -1.0933
29814SOL     OW91448   6.110   6.122  10.184 -0.1235  0.2590 -0.4129
29814SOL    HW191449   6.107   6.060  10.111  2.0236 -0.1345 -0.2430
29814SOL    HW291450   6.128   6.068  10.261  3.0909  1.0549 -0.4445
29815SOL     OW91451   4.146   0.955  10.803 -0.2606  0.1374  0.2463
29815SOL    HW191452   4.212   0.919  10.744 -1.6554 -0.3068 -1.0954
29815SOL    HW291453   4.080   0.886  10.811 -1.9567  1.5593 -0.7078
29816SOL     OW91454   7.282   0.218   7.120 -0.0248  0.4015  0.1934
29816SOL    HW191455   7.301   0.125   7.111 -0.3439  0.4346 -1.0910
29816SOL    HW291456   7.298   0.238   7.212  0.9759 -0.7120  0.2784
29817SOL     OW91457   4.857   8.832   8.122 -0.4349  1.1337 -0.4567
29817SOL    HW191458   4.940   8.851   8.078  1.5001 -0.5975  2.1422
29817SOL    HW291459   4.868   8.743   8.156 -3.0046  1.2122  0.7960
29818SOL     OW91460   0.959   6.300  10.255  0.2208  0.2203  0.0287
29818SOL    HW191461   0.887   6.238  10.244 -1.0861  0.9467  3.4235
29818SOL    HW291462   1.008   6.268  10.330  4.3826 -0.9084 -2.7924
29819SOL     OW91463   9.308   7.973   3.275 -0.0890 -0.2895 -0.7878
29819SOL    HW191464   9.340   7.986   3.365  1.3311 -0.6414 -1.2075
29819SOL    HW291465   9.280   8.060   3.247  2.7512  0.6233 -1.1671
29820SOL     OW91466   2.437   0.612  10.390 -0.5814  0.2841 -0.3430
29820SOL    HW191467   2.512   0.586  10.338 -1.1170  0.5163 -1.2502
29820SOL    HW291468   2.398   0.529  10.419  0.2897  0.1717  0.5395
29821SOL     OW91469   5.272   0.130   9.074  0.3380 -0.4636 -0.0058
29821SOL    HW191470   5.346   0.151   9.131  2.1174  0.1778 -2.3987
29821SOL    HW291471   5.252   0.212   9.028 -0.4664 -1.1408 -0.9104
29822SOL     OW91472   2.340   0.646   1.504 -0.0451 -0.8960  0.0284
29822SOL    HW191473   2.420   0.601   1.530  0.5009 -0.8926 -1.5281
29822SOL    HW291474   2.270   0.598   1.548  0.8187 -0.4815  1.9626
29823SOL     OW91475   2.941   9.698   2.400  0.7902 -0.2691  0.3641
29823SOL    HW191476   2.910   9.755   2.470  0.5554 -0.6305  0.5514
29823SOL    HW291477   2.911   9.611   2.424 -1.8138 -0.0304 -1.6136
29824SOL     OW91478   4.036   3.583   5.333 -0.3253 -0.7821 -0.6283
29824SOL    HW191479   4.128   3.605   5.347 -0.5499 -0.0724 -0.1763
29824SOL    HW291480   3.994   3.667   5.314 -0.9429 -1.0413 -0.4427
29825SOL     OW91481   4.181   5.101   0.883 -0.2767 -0.0861 -0.5201
29825SOL    HW191482   4.259   5.153   0.862  0.5153 -1.1901 -0.3644
29825SOL    HW291483   4.111   5.166   0.891  1.1281  1.2624  2.0005
29826SOL     OW91484   5.125   3.017   4.045 -0.3695  0.0516 -0.3037
29826SOL    HW191485   5.092   3.016   3.955 -3.5264  1.5100  0.6771
29826SOL    HW291486   5.099   2.932   4.080 -0.7689  0.1860 -0.2691
29827SOL     OW91487   6.425   0.169   5.593  0.1759  0.1529  0.3703
29827SOL    HW191488   6.370   0.195   5.668  0.4240  2.0404 -0.0721
29827SOL    HW291489   6.366   0.117   5.538 -0.3787 -0.1526  1.2239
29828SOL     OW91490   0.501   5.142   9.392  0.2926 -0.4772  0.0937
29828SOL    HW191491   0.406   5.152   9.393  0.2610 -0.3332 -1.4708
29828SOL    HW291492   0.532   5.216   9.340  1.4065  0.3504  1.8598
29829SOL     OW91493   8.839   9.374   9.903  0.1966 -0.2575 -0.1897
29829SOL    HW191494   8.850   9.336   9.990  1.4258  0.7280  0.1167
29829SOL    HW291495   8.928   9.378   9.867 -0.2233 -0.0913 -1.2504
29830SOL     OW91496   3.570   6.555   7.225 -0.1586  0.1798 -0.0430
29830SOL    HW191497   3.537   6.638   7.190  0.1557  0.4572  0.3170
29830SOL    HW291498   3.656   6.544   7.185  1.0762  1.4619  2.0495
29831SOL     OW91499   0.148   0.284   6.836 -0.2214 -0.4092 -0.1924
29831SOL    HW191500   0.157   0.347   6.908 -0.0500  0.4557 -0.9383
29831SOL    HW291501   0.075   0.228   6.862 -0.8525  0.5522  0.1836
29832SOL     OW91502   7.855   4.599   9.857 -0.2023 -0.0397  0.3915
29832SOL    HW191503   7.890   4.689   9.863 -0.8252  0.3025 -0.8033
29832SOL    HW291504   7.932   4.543   9.869  0.3328  0.6715  0.3686
29833SOL     OW91505  10.101   2.369   0.330  0.6195  0.3386  0.2902
29833SOL    HW191506  10.159   2.351   0.256  0.2865  1.3413 -0.2400
29833SOL    HW291507  10.044   2.440   0.299 -0.3469 -0.0711  1.0847
29834SOL     OW91508   0.350   1.335  10.196 -0.0047 -0.0945 -0.3308
29834SOL    HW191509   0.324   1.297  10.113  0.0166  1.8248 -1.2771
29834SOL    HW291510   0.344   1.430  10.182 -2.5920  0.3636  2.6391
29835SOL     OW91511   0.317   2.293  10.169  0.3918  0.5136  0.4287
29835SOL    HW191512   0.329   2.377  10.213 -1.1483  1.0409 -0.1111
29835SOL    HW291513   0.392   2.285  10.110 -0.9466  2.9736 -1.7880
29836SOL     OW91514   1.011   4.471  10.574  0.0376  0.3368  0.2887
29836SOL    HW191515   0.985   4.500  10.661 -0.5122 -1.5181  0.7991
29836SOL    HW291516   1.059   4.545  10.536 -1.5787  1.9805  1.3084
29837SOL     OW91517   5.835   5.659  10.188 -0.0966 -0.2655 -0.1393
29837SOL    HW191518   5.748   5.697  10.173 -0.1423 -0.4082 -0.2347
29837SOL    HW291519   5.844   5.658  10.284  0.2877  0.8604 -0.1447
29838SOL     OW91520   5.235   8.032   6.783 -0.3096  0.2159  0.3261
29838SOL    HW191521   5.252   8.027   6.689 -0.9585  2.2164  0.0470
29838SOL    HW291522   5.321   8.030   6.824  0.0283  0.1555 -0.3826
29839SOL     OW91523   4.126   7.608   4.975 -0.2197  0.3179 -0.2464
29839SOL    HW191524   4.100   7.543   5.039 -0.4296 -0.6762 -1.3108
29839SOL    HW291525   4.210   7.576   4.940 -0.5243  0.3921 -1.0671
29840SOL     OW91526   1.263   4.587   9.076 -0.1392  0.1702 -0.4350
29840SOL    HW191527   1.195   4.584   9.143 -1.3928  0.5830 -1.6402
29840SOL    HW291528   1.321   4.514   9.097  0.6415  1.4413  2.2182
29841SOL     OW91529  10.689   1.516   8.987  0.1510  0.0854 -0.3894
29841SOL    HW191530  10.614   1.574   8.974  0.0466  0.4106  1.4360
29841SOL    HW291531  10.737   1.520   8.904 -1.6612  0.1183 -1.4871
29842SOL     OW91532   3.420   3.848   0.481 -0.1179 -0.4233  0.2835
29842SOL    HW191533   3.453   3.788   0.414  0.0047  0.1765 -0.2074
29842SOL    HW291534   3.498   3.895   0.511 -0.5208  1.3058 -1.1852
29843SOL     OW91535  10.967   9.751   6.905 -0.2158 -0.0169  0.4725
29843SOL    HW191536  10.916   9.818   6.859  0.2877  0.2732  0.3268
29843SOL    HW291537  10.915   9.671   6.895 -0.0499  0.0008 -0.7442
29844SOL     OW91538   9.899   9.417   8.880 -0.4944  0.1978  0.0109
29844SOL    HW191539   9.890   9.322   8.887 -0.9228 -0.0564 -2.8790
29844SOL    HW291540   9.820   9.445   8.833 -0.2914  1.9691  0.6664
29845SOL     OW91541   0.626   2.926   6.457  0.6258 -0.1172  0.2680
29845SOL    HW191542   0.646   2.833   6.458  0.9869 -0.0438 -0.0884
29845SOL    HW291543   0.574   2.940   6.537 -0.2251 -0.7871 -0.1483
29846SOL     OW91544   4.071   1.176   1.567  0.2175  0.6794  0.0500
29846SOL    HW191545   4.098   1.176   1.475  0.7326 -2.0269  0.1196
29846SOL    HW291546   4.151   1.199   1.615  0.1025  1.4871 -0.1364
29847SOL     OW91547   2.522   2.083   9.739 -0.0480 -0.0205  0.4292
29847SOL    HW191548   2.439   2.084   9.691  0.4231 -1.7965 -0.5607
29847SOL    HW291549   2.540   1.989   9.752  1.3230  0.3589  1.4812
29848SOL     OW91550  10.753   7.999   5.037  0.0660 -0.1292  0.2242
29848SOL    HW191551  10.819   8.030   4.975 -0.4092 -0.4639 -0.4660
29848SOL    HW291552  10.678   8.056   5.023 -1.7749 -2.9020 -2.8540
29849SOL     OW91553   8.322   9.592   8.318 -0.0462 -0.4367 -0.1130
29849SOL    HW191554   8.302   9.640   8.399  1.6184  0.7613 -0.3525
29849SOL    HW291555   8.327   9.660   8.251  2.6512 -0.8558 -0.4162
29850SOL     OW91556  10.226   4.876   8.812  0.0366  0.5439  0.2557
29850SOL    HW191557  10.234   4.782   8.798  1.3526  0.2709  2.4341
29850SOL    HW291558  10.132   4.894   8.800  0.0013 -0.7059 -1.8103
29851SOL     OW91559   0.420   8.262   1.732 -0.1215 -0.3995  0.2532
29851SOL    HW191560   0.454   8.345   1.699  1.0532 -0.0342  2.1955
29851SOL    HW291561   0.345   8.287   1.786 -1.5197 -0.9116 -1.3616
29852SOL     OW91562   3.254   5.489   7.682  0.0159  0.2273 -0.2827
29852SOL    HW191563   3.189   5.512   7.615 -1.5952 -1.2796  0.6861
29852SOL    HW291564   3.278   5.573   7.722 -1.7953  0.7735 -0.2725
29853SOL     OW91565   6.423   0.043   9.329  0.3041 -0.2377  0.6403
29853SOL    HW191566   6.441  -0.049   9.311 -0.6187  0.1177 -3.0142
29853SOL    HW291567   6.500   0.089   9.296 -0.2720  0.3898  0.1325
29854SOL     OW91568  10.108   1.364   2.097  0.1277 -0.6070 -0.5334
29854SOL    HW191569  10.096   1.420   2.020 -2.2809  0.1044  0.3024
29854SOL    HW291570  10.092   1.275   2.065  1.6914 -0.6487 -1.3491
29855SOL     OW91571   3.961   6.822   1.597 -0.2337 -0.5513  0.1099
29855SOL    HW191572   4.022   6.782   1.535  0.0392  0.6884 -0.4588
29855SOL    HW291573   3.915   6.889   1.546 -0.2633  0.2539  1.1430
29856SOL     OW91574   9.514   4.291   2.431 -0.1219 -0.6156  0.1508
29856SOL    HW191575   9.579   4.232   2.470  0.2245  0.4694  1.2771
29856SOL    HW291576   9.541   4.378   2.459 -2.5240 -0.1826  1.3465
29857SOL     OW91577   5.381   1.186   9.591  0.4280 -0.1112  0.2563
29857SOL    HW191578   5.461   1.236   9.605  0.2057  0.0854  0.9074
29857SOL    HW291579   5.328   1.240   9.532 -0.2544  0.9672  1.7749
29858SOL     OW91580   2.006   3.143   1.891 -0.1242  0.1562 -0.0311
29858SOL    HW191581   2.042   3.196   1.820  0.1038  1.7811  1.2138
29858SOL    HW291582   1.955   3.205   1.943 -2.2895 -1.4729 -0.0749
29859SOL     OW91583   8.988   2.883   0.951  0.2370 -0.1726  0.2434
29859SOL    HW191584   9.062   2.850   1.003  2.2754  2.7767 -0.5370
29859SOL    HW291585   9.017   2.873   0.860 -0.6905  0.2983 -0.1118
29860SOL     OW91586   7.237   2.580   3.926 -0.3334  0.6784  0.6587
29860SOL    HW191587   7.173   2.512   3.905 -0.5155  1.3311 -0.9954
29860SOL    HW291588   7.217   2.652   3.866  0.7088  1.6754  1.4601
29861SOL     OW91589   0.313   7.618   6.647  0.7009  0.1192  0.4253
29861SOL    HW191590   0.222   7.589   6.635 -0.3485  3.2655 -0.0338
29861SOL    HW291591   0.308   7.713   6.650  3.9241  0.3845  1.3245
29862SOL     OW91592   2.493   0.208   2.495 -0.1857 -0.0476  0.3658
29862SOL    HW191593   2.531   0.221   2.582  1.0495 -0.8011 -0.0413
29862SOL    HW291594   2.412   0.159   2.511 -0.8272  1.2316  1.2080
29863SOL     OW91595   4.849   1.462   9.251  0.1344  0.6838  0.1297
29863SOL    HW191596   4.811   1.531   9.306  2.1402  2.4249 -0.5007
29863SOL    HW291597   4.791   1.457   9.175 -0.9081  0.5053  0.9096
29864SOL     OW91598   2.624   5.125   8.257  0.0149  0.4128  0.4701
29864SOL    HW191599   2.587   5.129   8.169 -1.6756  0.1262  1.1353
29864SOL    HW291600   2.613   5.034   8.284  0.3845  0.5274  1.0339
29865SOL     OW91601   6.173   9.168   3.553 -0.1595  0.2849 -0.2163
29865SOL    HW191602   6.184   9.206   3.640  1.7115  0.6928 -0.5858
29865SOL    HW291603   6.174   9.074   3.567 -1.6513  0.3163  0.3568
29866SOL     OW91604   4.242   3.174   5.777 -0.2760 -0.0688  0.3961
29866SOL    HW191605   4.269   3.251   5.726 -0.7402  0.2936  0.6919
29866SOL    HW291606   4.243   3.204   5.868 -0.3778 -0.4420  0.5222
29867SOL     OW91607   2.552   2.812   1.967 -0.3893  1.0144  0.2933
29867SOL    HW191608   2.523   2.815   1.875 -1.4765  0.0579  0.5869
29867SOL    HW291609   2.472   2.828   2.017 -0.6801 -2.3266  1.1442
29868SOL     OW91610  10.352   2.957   2.337 -0.0709 -0.3197 -0.3311
29868SOL    HW191611  10.320   3.017   2.270  1.0822  0.3370 -0.3282
29868SOL    HW291612  10.290   2.965   2.409 -1.7262 -1.5516 -1.5470
29869SOL     OW91613   4.280   0.262   0.722  0.1883 -0.6060 -0.1085
29869SOL    HW191614   4.367   0.272   0.760 -0.1851  0.4223  0.5137
29869SOL    HW291615   4.231   0.210   0.786 -0.8897  2.3577  1.6951
29870SOL     OW91616   4.752   2.695   7.165  0.1331 -0.2498 -0.0233
29870SOL    HW191617   4.835   2.726   7.130  0.2449 -0.1045  0.3646
29870SOL    HW291618   4.760   2.707   7.260 -0.5685  0.3421 -0.0341
29871SOL     OW91619   8.620   2.085   8.832 -0.0502 -0.4425 -0.0908
29871SOL    HW191620   8.564   2.120   8.763  0.1692 -0.1931 -0.1428
29871SOL    HW291621   8.704   2.130   8.821  0.5506 -1.6530 -0.7593
29872SOL     OW91622   8.392   7.913   7.097  0.3704  0.2091  0.4203
29872SOL    HW191623   8.325   7.981   7.094 -1.4934 -1.5294  0.7194
29872SOL    HW291624   8.404   7.888   7.005 -1.1165 -1.0159  0.5157
29873SOL     OW91625  10.580  10.345   9.535  0.5610 -0.4631 -0.4484
29873SOL    HW191626  10.668  10.322   9.504  0.5550 -0.1549 -0.7007
29873SOL    HW291627  10.524  10.331   9.459  0.6147  0.7330 -0.7219
29874SOL     OW91628   7.710   4.282   3.676 -0.2596 -0.0266  0.0258
29874SOL    HW191629   7.801   4.297   3.701  0.1146  0.0392 -1.2896
29874SOL    HW291630   7.677   4.221   3.742  0.1821  1.3311  1.5633
29875SOL     OW91631   1.014   1.994   7.998  0.1390 -0.3556  0.1489
29875SOL    HW191632   1.075   1.924   8.020  1.0751 -0.8622 -3.4347
29875SOL    HW291633   0.941   1.950   7.955  0.6789  0.7744 -2.0514
29876SOL     OW91634   5.911   4.021   6.224  0.2479 -1.1854  0.6481
29876SOL    HW191635   5.991   4.073   6.239 -0.3312 -0.4763  1.3538
29876SOL    HW291636   5.931   3.935   6.261  1.4798 -1.7335 -1.1609
29877SOL     OW91637   4.523   5.758   1.703  0.1700  0.2086 -0.7895
29877SOL    HW191638   4.551   5.848   1.718  2.9511 -0.8027  1.0251
29877SOL    HW291639   4.440   5.750   1.751  1.2723  1.1389  1.4187
29878SOL     OW91640   4.181   9.185   2.734 -0.2549  0.2695 -0.0705
29878SOL    HW191641   4.255   9.126   2.727 -0.0640  0.6652 -1.9016
29878SOL    HW291642   4.173   9.203   2.828 -0.4254 -2.7409  0.6046
29879SOL     OW91643   6.021   6.213   4.071 -0.0496  1.1639 -0.1831
29879SOL    HW191644   6.010   6.306   4.093  0.0418  0.8961  1.0722
29879SOL    HW291645   6.018   6.211   3.976  1.9048  2.7179 -0.3487
29880SOL     OW91646   6.876   9.759   5.448 -0.3641  0.7432  0.0398
29880SOL    HW191647   6.970   9.751   5.465 -0.7149 -1.4010  1.3384
29880SOL    HW291648   6.869   9.764   5.352  1.0301  0.3171 -0.1060
29881SOL     OW91649   0.446   9.204   4.597  0.3385  0.1237 -0.5100
29881SOL    HW191650   0.509   9.276   4.591  0.5849 -0.1059 -0.6716
29881SOL    HW291651   0.423   9.185   4.507  0.4873 -0.1911 -0.4815
29882SOL     OW91652   9.185   6.988   5.237  0.4557 -0.8678 -0.1369
29882SOL    HW191653   9.248   7.060   5.249 -0.1877  0.0176 -1.7126
29882SOL    HW291654   9.206   6.926   5.306  1.5690  0.4660  0.7829
29883SOL     OW91655   3.915   4.023   1.183 -0.6390 -0.1124 -0.1838
29883SOL    HW191656   3.988   4.045   1.240 -0.5265  0.4852 -0.5543
29883SOL    HW291657   3.849   4.090   1.200  0.1649  1.2813 -2.1704
29884SOL     OW91658   3.754   6.549  10.119  0.2227  0.0123  0.2580
29884SOL    HW191659   3.690   6.502  10.171  0.6433  0.7993  1.5199
29884SOL    HW291660   3.737   6.520  10.029  2.0282 -4.4160  1.1160
29885SOL     OW91661   3.513   4.865   3.292  0.0577  0.2779  0.4603
29885SOL    HW191662   3.526   4.958   3.310 -1.3057  0.1041  2.6143
29885SOL    HW291663   3.438   4.840   3.345  0.5146 -2.1170  0.0912
29886SOL     OW91664   9.476   2.175   1.628  0.0703  0.6308 -0.5003
29886SOL    HW191665   9.487   2.259   1.585  0.8428  0.6938 -0.2006
29886SOL    HW291666   9.553   2.124   1.602 -0.7896 -0.2828 -1.3363
29887SOL     OW91667   7.799  10.330   9.324  0.3091  0.0318  0.5062
29887SOL    HW191668   7.756  10.280   9.394  0.9753 -0.1778  0.7701
29887SOL    HW291669   7.854  10.266   9.279  0.2793  0.2823  0.1085
29888SOL     OW91670   4.089   0.467   2.694  0.4691 -0.2961 -0.3683
29888SOL    HW191671   4.036   0.421   2.630 -0.1805  0.4118 -0.3514
29888SOL    HW291672   4.056   0.436   2.779  2.0292 -2.0370 -0.3268
29889SOL     OW91673   6.396   2.419   5.247 -0.5055  0.2783  0.5399
29889SOL    HW191674   6.480   2.464   5.240 -0.8275  1.0483  1.4366
29889SOL    HW291675   6.404   2.343   5.189  0.6621  0.5517  0.3276
29890SOL     OW91676   5.869   5.414   5.542  0.1059 -0.7501  0.2856
29890SOL    HW191677   5.891   5.336   5.490  0.8215 -0.9309  0.8362
29890SOL    HW291678   5.924   5.406   5.620 -0.4275 -0.1134  0.7346
29891SOL     OW91679   4.041   3.798   2.330  0.1714 -0.0293 -0.5788
29891SOL    HW191680   4.118   3.751   2.299 -0.4290 -1.9660  0.6895
29891SOL    HW291681   4.076   3.874   2.378  1.3932 -1.5360  1.0349
29892SOL     OW91682   6.575   8.668   8.704 -0.7544 -0.1313 -0.1557
29892SOL    HW191683   6.531   8.718   8.774 -0.0934  0.4873 -0.1693
29892SOL    HW291684   6.534   8.699   8.624 -0.6649  0.0645 -0.1281
29893SOL     OW91685   6.938   8.751   6.287 -0.6054 -0.8763  0.3086
29893SOL    HW191686   7.007   8.740   6.221 -0.0808 -0.3717  0.7560
29893SOL    HW291687   6.869   8.799   6.241  0.3070  0.6511  0.4540
29894SOL     OW91688   4.277   2.735   1.855  0.0155  0.0462  0.8630
29894SOL    HW191689   4.198   2.788   1.857  1.2568  2.0584  0.3297
29894SOL    HW291690   4.347   2.799   1.839  1.4121 -1.9765 -1.9485
29895SOL     OW91691   8.813   0.885   4.230  0.2633  0.0133  0.7919
29895SOL    HW191692   8.777   0.944   4.163  0.0227 -0.0978  0.8203
29895SOL    HW291693   8.782   0.799   4.204 -1.9954  0.2513  2.4382
29896SOL     OW91694   3.389   9.949   4.835  0.6703  0.0743  0.0739
29896SOL    HW191695   3.316   9.970   4.893  0.3967 -0.2821 -0.1391
29896SOL    HW291696   3.349   9.931   4.750  1.1759  2.1833 -0.6922
29897SOL     OW91697   8.526   8.668   8.392 -0.2627  0.6041 -0.0574
29897SOL    HW191698   8.433   8.687   8.407 -0.1456  2.0785 -0.9983
29897SOL    HW291699   8.532   8.573   8.396 -1.5829  0.5272  1.2666
29898SOL     OW91700   1.918   5.054   9.883 -0.2555  0.3603 -0.3998
29898SOL    HW191701   1.946   5.049   9.792  0.7298  0.7336 -0.1300
29898SOL    HW291702   1.986   5.105   9.927 -0.6807  0.1352  0.5586
29899SOL     OW91703   2.389   9.452   9.896  0.6497 -0.0488  0.2638
29899SOL    HW191704   2.384   9.397   9.975  1.3553  0.8302  0.9380
29899SOL    HW291705   2.406   9.390   9.825 -0.4976 -0.9125  0.7111
29900SOL     OW91706   7.023   4.023   4.351 -0.0817  0.0528 -0.5644
29900SOL    HW191707   7.049   4.100   4.300 -0.6546 -0.9986 -2.5619
29900SOL    HW291708   6.961   4.057   4.416  1.9510  1.7029  0.6202
29901SOL     OW91709  10.354   8.412   1.750  0.7725  0.0089  0.3015
29901SOL    HW191710  10.389   8.432   1.664  1.7016 -1.2986  0.3395
29901SOL    HW291711  10.431   8.412   1.808  0.2468  0.2856  1.0100
29902SOL     OW91712   0.295   9.072   7.930 -0.5403 -0.2302  0.5523
29902SOL    HW191713   0.254   8.990   7.956  1.1408 -0.5057  2.6653
29902SOL    HW291714   0.387   9.063   7.957  0.4579  1.1634 -1.9793
29903SOL     OW91715   4.325  10.735   4.119  0.5339  0.0980 -0.1233
29903SOL    HW191716   4.351  10.710   4.030 -0.2956  0.5801 -0.5207
29903SOL    HW291717   4.407  10.759   4.162  0.7244  2.6465 -1.6821
29904SOL     OW91718   4.429   7.262   1.791 -0.3769 -0.5350  0.1127
29904SOL    HW191719   4.502   7.289   1.737 -0.3744 -0.2028  0.2833
29904SOL    HW291720   4.351   7.277   1.737 -0.6536  2.5632  1.1995
29905SOL     OW91721  10.271  10.517  10.814  0.2077  0.1220 -0.5207
29905SOL    HW191722  10.327  10.508  10.737  0.4556 -0.1499 -0.3134
29905SOL    HW291723  10.313  10.586  10.866  0.6126 -0.3922 -0.1496
29906SOL     OW91724   6.791   7.691  10.801  0.1168 -0.0291 -0.2021
29906SOL    HW191725   6.817   7.716  10.713  1.4294  0.5134  0.3076
29906SOL    HW291726   6.799   7.772  10.852  0.8064 -0.6575  0.7147
29907SOL     OW91727  10.921   6.565   5.579  0.2919 -0.0169 -0.0884
29907SOL    HW191728  10.968   6.489   5.547  1.3993 -0.4963  2.4282
29907SOL    HW291729  10.964   6.588   5.661 -1.4526  1.9320  0.3905
29908SOL     OW91730   9.884   0.880   8.126 -0.1036 -0.5438  0.0419
29908SOL    HW191731   9.930   0.930   8.059  0.9850 -0.8032  0.5780
29908SOL    HW291732   9.820   0.941   8.162  0.8286  0.2971  0.3070
29909SOL     OW91733   0.208   0.393   4.954  0.1841 -0.4495  0.2866
29909SOL    HW191734   0.200   0.308   4.997  1.2659 -0.2443  0.9419
29909SOL    HW291735   0.120   0.431   4.958  0.4101  0.0100  3.3321
29910SOL     OW91736   2.873   8.431   2.703 -0.2823 -0.1193 -0.0903
29910SOL    HW191737   2.854   8.343   2.672 -0.8461 -1.0269  2.6357
29910SOL    HW291738   2.808   8.447   2.771  1.3620  1.4272  1.1916
29911SOL     OW91739   3.153   8.920   1.413 -0.0064 -0.3500  0.1322
29911SOL    HW191740   3.163   8.861   1.338 -0.9975 -1.8632  1.1321
29911SOL    HW291741   3.234   8.909   1.463  0.4527  0.3014 -0.4516
29912SOL     OW91742   3.450   1.767   1.140 -0.7991 -0.0932  0.1985
29912SOL    HW191743   3.543   1.764   1.164 -0.9681 -0.5493  0.8124
29912SOL    HW291744   3.450   1.780   1.045 -0.1146  0.7082  0.2999
29913SOL     OW91745   8.294   4.768   5.756 -0.3640  0.0763 -0.1600
29913SOL    HW191746   8.275   4.813   5.839 -0.8091  0.0001 -0.2178
29913SOL    HW291747   8.239   4.813   5.692  0.3165  0.4281 -0.5042
29914SOL     OW91748   6.192   5.881   5.064 -0.1749  0.0964  0.3494
29914SOL    HW191749   6.239   5.911   5.142 -0.1567 -1.0681  0.8163
29914SOL    HW291750   6.115   5.836   5.100 -0.1048 -0.5496 -0.3051
29915SOL     OW91751   7.988   9.660   1.617 -0.1914  1.2391 -0.3224
29915SOL    HW191752   7.946   9.611   1.688  1.7596  0.2457  0.2319
29915SOL    HW291753   8.066   9.609   1.596 -0.2301  2.0173 -2.5842
29916SOL     OW91754   7.050   2.428   6.445  0.0846 -0.1796 -0.1989
29916SOL    HW191755   7.038   2.334   6.460 -2.3432  0.1855  0.6345
29916SOL    HW291756   6.964   2.459   6.417  1.3144  1.4942 -2.5016
29917SOL     OW91757   2.504   6.977   5.980  0.0930  0.1158 -0.4345
29917SOL    HW191758   2.471   7.065   5.999  1.9503  1.2620 -2.0175
29917SOL    HW291759   2.552   6.951   6.059 -2.8911 -0.8284  1.1939
29918SOL     OW91760   9.573   8.546   7.930  0.5157  0.3879  0.1738
29918SOL    HW191761   9.579   8.641   7.929  0.1648  0.4107  0.1938
29918SOL    HW291762   9.658   8.516   7.897  0.6432  0.7041  0.2110
29919SOL     OW91763   5.333   6.572   1.879  0.0333 -0.1041  0.0779
29919SOL    HW191764   5.335   6.493   1.825 -4.1196  0.0662 -0.6578
29919SOL    HW291765   5.422   6.581   1.911  1.3188 -3.5683 -1.9427
29920SOL     OW91766   5.135   0.948   7.739 -0.1886  0.5197 -0.0987
29920SOL    HW191767   5.148   1.033   7.782 -1.8441  1.3106 -1.0714
29920SOL    HW291768   5.160   0.884   7.806 -1.0064  1.7251  1.4561
29921SOL     OW91769  10.093   1.090  10.636 -0.4715 -0.0285 -0.1586
29921SOL    HW191770  10.136   1.006  10.647 -1.1469 -0.3443  0.1450
29921SOL    HW291771  10.033   1.077  10.562  0.4694  0.6263 -1.0735
29922SOL     OW91772  10.067   5.351   2.327  0.0713 -0.0784  0.6439
29922SOL    HW191773   9.973   5.348   2.345  0.2210  0.6863  1.6282
29922SOL    HW291774  10.083   5.274   2.272 -1.0774 -0.3724  0.6906
29923SOL     OW91775   3.433   4.301   3.460 -0.3578  0.1069  0.2189
29923SOL    HW191776   3.426   4.290   3.365 -1.4689 -0.9109  0.4077
29923SOL    HW291777   3.520   4.266   3.481 -0.1194  0.2992 -0.4082
29924SOL     OW91778   0.637   4.764   6.744  0.0556  0.0498  0.1864
29924SOL    HW191779   0.712   4.801   6.790  0.2293 -1.6953  1.3713
29924SOL    HW291780   0.573   4.744   6.813 -0.8206 -0.0618 -0.6268
29925SOL     OW91781   7.621   5.217   0.723  0.0071 -0.2103  0.7621
29925SOL    HW191782   7.673   5.253   0.795 -0.3696  0.4698  0.7036
29925SOL    HW291783   7.678   5.226   0.646 -0.4257  1.1687  0.5706
29926SOL     OW91784   1.697   7.351   2.759 -0.3774  0.1752  0.4024
29926SOL    HW191785   1.710   7.299   2.680 -2.6896 -0.5049  0.3859
29926SOL    HW291786   1.771   7.329   2.815  0.2095 -0.9318 -0.7508
29927SOL     OW91787   9.516   3.810   7.883 -0.3678  0.8388 -0.6987
29927SOL    HW191788   9.533   3.764   7.965  0.7362  0.5358 -1.0752
29927SOL    HW291789   9.496   3.741   7.820 -0.2156  0.9883 -0.9131
29928SOL     OW91790   9.852   9.046   8.612 -0.6534 -0.5230 -0.1134
29928SOL    HW191791   9.842   8.956   8.580 -0.0280 -0.0548 -1.7016
29928SOL    HW291792   9.934   9.076   8.574 -0.0655  0.2218  1.6768
29929SOL     OW91793   4.686   3.024   3.979  0.4777  0.0196 -0.3265
29929SOL    HW191794   4.665   3.042   4.070  1.0972 -1.2326  0.0882
29929SOL    HW291795   4.663   3.105   3.932 -1.7280  0.0118  0.6214
29930SOL     OW91796  10.515  10.694   7.561  0.3018 -0.3007 -0.4745
29930SOL    HW191797  10.462  10.764   7.601 -0.1793 -0.6574 -0.4726
29930SOL    HW291798  10.466  10.669   7.483  0.8501 -0.1329 -0.8692
29931SOL     OW91799  10.959   4.740   6.241  0.4112 -0.3047 -0.9023
29931SOL    HW191800  10.933   4.805   6.306  1.8875 -1.3663  0.8650
29931SOL    HW291801  10.911   4.661   6.265  2.0127 -1.1026 -0.1473
29932SOL     OW91802   6.322   7.819   0.139 -0.2012 -0.6166 -0.0856
29932SOL    HW191803   6.253   7.754   0.129 -1.6706  1.1331 -2.4214
29932SOL    HW291804   6.281   7.902   0.115  2.3343  0.7714 -0.0609
29933SOL     OW91805   7.385   2.097   6.699  0.2442  0.6406 -0.4369
29933SOL    HW191806   7.356   2.047   6.775  2.5707  1.2913  0.9925
29933SOL    HW291807   7.379   2.036   6.626 -0.6776 -0.4644  0.5337
29934SOL     OW91808   6.610   1.636   3.914  0.2607 -0.1600  0.1388
29934SOL    HW191809   6.671   1.564   3.929 -0.2662 -0.5700  0.3343
29934SOL    HW291810   6.530   1.610   3.960 -0.1137  0.3024 -0.2400
29935SOL     OW91811   9.437   7.735   0.335  0.2128  0.0810  0.3269
29935SOL    HW191812   9.477   7.816   0.369 -0.5340  0.0780  1.2537
29935SOL    HW291813   9.346   7.758   0.318  0.0657 -0.4945  0.3157
29936SOL     OW91814   5.689  10.197   9.245  0.1849  0.2389  0.3212
29936SOL    HW191815   5.750  10.130   9.214  0.0815  0.9308 -1.5045
29936SOL    HW291816   5.624  10.205   9.175 -1.6493  0.0247  1.9017
29937SOL     OW91817   2.857   9.484   3.015 -0.5503  0.3292  0.0764
29937SOL    HW191818   2.773   9.523   2.992 -1.4268 -0.9183  1.0149
29937SOL    HW291819   2.845   9.391   3.000  0.5611  0.0901  0.5685
29938SOL     OW91820   7.638   3.666   6.553 -0.1296 -0.2444 -0.8842
29938SOL    HW191821   7.566   3.613   6.588 -0.8298  1.0921 -0.2217
29938SOL    HW291822   7.717   3.624   6.587 -0.6605 -0.8004 -0.3007
29939SOL     OW91823   4.937  10.321   4.898  0.3032 -0.2365  0.2593
29939SOL    HW191824   4.914  10.352   4.811  1.6676  1.5534  0.4809
29939SOL    HW291825   5.033  10.317   4.897  0.2790 -2.2236  1.0421
29940SOL     OW91826   9.278   2.790   8.695  0.0020 -0.5944 -0.0542
29940SOL    HW191827   9.217   2.747   8.755  0.6570 -0.8847  0.4042
29940SOL    HW291828   9.362   2.748   8.711  0.5936  0.6367  0.1676
29941SOL     OW91829   6.353   2.140  10.400  0.1702  0.2293  0.4076
29941SOL    HW191830   6.342   2.054  10.439  0.5269  0.1421  0.3149
29941SOL    HW291831   6.412   2.127  10.326 -0.5912  0.3764 -0.2371
29942SOL     OW91832   4.145   6.988  10.167 -0.1013  0.7174 -0.1407
29942SOL    HW191833   4.163   7.076  10.135  0.4543  0.9783  0.8382
29942SOL    HW291834   4.149   6.996  10.263  0.1248 -0.4028 -0.0434
29943SOL     OW91835   0.634   3.199   9.859  0.2948 -0.4696 -0.2571
29943SOL    HW191836   0.726   3.225   9.868  0.1921  0.0745 -0.6707
29943SOL    HW291837   0.634   3.136   9.787  0.1767  0.6074 -1.2478
29944SOL     OW91838   7.654   2.204   7.216  0.5625  0.4108 -0.4803
29944SOL    HW191839   7.612   2.132   7.263  1.4664  0.2994  0.1733
29944SOL    HW291840   7.598   2.280   7.235 -0.2819 -0.0588 -1.0082
29945SOL     OW91841   8.113   0.850   6.958  0.1667  0.2969  0.2312
29945SOL    HW191842   8.087   0.874   7.047  2.3633  0.6327  0.8338
29945SOL    HW291843   8.165   0.771   6.969 -0.4789 -0.3044 -0.9042
29946SOL     OW91844   0.341   8.217   3.456  0.1373  0.2528 -0.0014
29946SOL    HW191845   0.381   8.148   3.403 -0.6230 -1.8978  2.0136
29946SOL    HW291846   0.414   8.256   3.503  0.4803  0.1539 -0.4460
29947SOL     OW91847   1.922   0.338   3.294  0.2576  0.0673 -0.0222
29947SOL    HW191848   1.923   0.242   3.295 -1.5967  0.0105 -0.2696
29947SOL    HW291849   1.888   0.362   3.380 -1.0201  0.4321 -0.6127
29948SOL     OW91850   2.423   0.197   3.414  0.9265 -0.0822 -0.1361
29948SOL    HW191851   2.410   0.289   3.439  2.6392 -0.3106  1.7219
29948SOL    HW291852   2.508   0.196   3.371 -0.6114 -0.2592 -3.6183
29949SOL     OW91853   4.362   1.799   2.962  0.2956 -0.1787  0.5790
29949SOL    HW191854   4.428   1.823   3.027 -0.0260  1.2773  0.3948
29949SOL    HW291855   4.403   1.727   2.913  0.4325 -1.4729  2.5071
29950SOL     OW91856  10.325   6.420   1.779  0.0806  0.2391 -0.1266
29950SOL    HW191857  10.330   6.330   1.811  0.1089  0.6134  0.9673
29950SOL    HW291858  10.390   6.468   1.830 -0.9664  1.1778  0.3876
29951SOL     OW91859   3.498   4.752   7.831 -0.7552 -0.5256  0.0278
29951SOL    HW191860   3.560   4.680   7.824  0.4692  0.5361 -0.4144
29951SOL    HW291861   3.522   4.798   7.912 -1.1514 -0.2740  0.0067
29952SOL     OW91862   2.257   0.124  10.999  0.6069 -0.0520 -0.3938
29952SOL    HW191863   2.288   0.070  10.926 -1.8073  0.5702 -1.9632
29952SOL    HW291864   2.168   0.093  11.016  1.1047 -0.2006  2.3694
29953SOL     OW91865   5.875   2.275  10.800  0.0954  0.2862  0.4495
29953SOL    HW191866   5.939   2.275  10.871  0.3828  1.2084  0.2131
29953SOL    HW291867   5.808   2.337  10.829  0.1989  0.6443 -0.0609
29954SOL     OW91868   4.612   3.354   2.699 -0.3519 -0.4862  0.1743
29954SOL    HW191869   4.699   3.360   2.659 -0.0217  0.1074  0.9663
29954SOL    HW291870   4.561   3.304   2.636  0.3438 -0.1599 -0.6702
29955SOL     OW91871  10.582   2.518   0.241  0.4721 -0.2053  0.0446
29955SOL    HW191872  10.502   2.564   0.264 -0.1569  0.1887 -2.6396
29955SOL    HW291873  10.651   2.565   0.288 -0.6015  0.9012  0.5677
29956SOL     OW91874   9.882   8.056   2.702  0.0941  0.3364 -0.1226
29956SOL    HW191875   9.882   7.976   2.650  0.2489  2.1673 -3.2048
29956SOL    HW291876   9.969   8.094   2.687 -0.7828  2.2197 -0.7976
29957SOL     OW91877   2.585   5.778  10.750  0.4533  0.3699  0.4351
29957SOL    HW191878   2.637   5.721  10.694 -0.6581  0.4763 -0.7225
29957SOL    HW291879   2.500   5.735  10.757 -0.5008  1.9704 -0.6852
29958SOL     OW91880   8.897   5.379   0.637 -0.4092 -0.2515  0.1563
29958SOL    HW191881   8.887   5.286   0.657  0.1017 -0.4805 -0.5886
29958SOL    HW291882   8.951   5.413   0.709  0.1932 -0.7443 -0.0483
29959SOL     OW91883   9.983   7.647   5.418  0.1567 -0.3793 -0.1415
29959SOL    HW191884  10.012   7.580   5.356  0.4414  0.5021 -0.9783
29959SOL    HW291885   9.888   7.637   5.421  0.2639 -1.3748  0.3995
29960SOL     OW91886   0.757   2.063   5.213  0.1861  0.0229  0.6387
29960SOL    HW191887   0.807   2.008   5.274  0.1223 -1.3266 -0.4872
29960SOL    HW291888   0.776   2.027   5.127 -0.4206  1.3567 -0.0809
29961SOL     OW91889   6.795   2.244   6.723 -0.4804  0.0907  0.0901
29961SOL    HW191890   6.872   2.301   6.730 -0.5976 -0.0016  3.8940
29961SOL    HW291891   6.741   2.267   6.798 -1.8155 -3.2075  0.3027
29962SOL     OW91892   0.358   4.427   3.347 -0.0847  0.2109 -0.7012
29962SOL    HW191893   0.401   4.385   3.273  0.3705  1.8085 -1.4050
29962SOL    HW291894   0.307   4.498   3.308 -2.4381 -0.8662  0.2372
29963SOL     OW91895   4.517   5.837   8.016 -0.2822  0.5209 -0.1071
29963SOL    HW191896   4.604   5.870   8.042 -0.9828  0.1958  3.1127
29963SOL    HW291897   4.534   5.747   7.988  0.4743  0.6259 -0.0271
29964SOL     OW91898   6.660   7.054   0.744  0.0843  0.1127  0.3069
29964SOL    HW191899   6.590   7.079   0.683  2.2810 -1.9822 -3.4157
29964SOL    HW291900   6.722   7.127   0.740 -0.3760  0.5685  1.1645
29965SOL     OW91901   2.476   5.500   5.257  0.0460  0.0411  0.0782
29965SOL    HW191902   2.415   5.428   5.241  0.1199  0.5019 -2.7851
29965SOL    HW291903   2.533   5.468   5.327  0.8192 -3.2155 -1.8127
29966SOL     OW91904  10.687   6.518   7.038 -0.1750 -0.0651 -0.4304
29966SOL    HW191905  10.714   6.477   6.956 -0.0669  0.5270 -0.6903
29966SOL    HW291906  10.769   6.544   7.080 -0.0184 -2.6481  1.0978
29967SOL     OW91907   4.429   3.397   4.125 -0.6894 -0.1860 -0.9829
29967SOL    HW191908   4.478   3.439   4.196 -0.0302 -2.1737 -0.2050
29967SOL    HW291909   4.420   3.466   4.059  2.1481  0.6398 -0.6626
29968SOL     OW91910   2.542  10.361   9.926  0.0266  0.2878 -0.4023
29968SOL    HW191911   2.601  10.289   9.905  1.2286  1.7087 -2.2697
29968SOL    HW291912   2.543  10.366  10.021 -1.8474 -3.4685  0.0171
29969SOL     OW91913   5.608   4.088   2.431  0.2686 -0.4802  0.5009
29969SOL    HW191914   5.683   4.040   2.395  0.0382  0.7878 -1.8722
29969SOL    HW291915   5.535   4.027   2.424  0.5103 -0.7299  0.1120
29970SOL     OW91916   1.490  10.630   9.115 -0.3809  0.0624  0.4994
29970SOL    HW191917   1.511  10.657   9.204 -0.8764 -1.4965  1.1030
29970SOL    HW291918   1.575  10.626   9.071 -0.1161  0.6322  0.9340
29971SOL     OW91919   6.419   1.104   7.579  0.1965 -0.0586 -0.6270
29971SOL    HW191920   6.360   1.055   7.637  0.5406 -1.4522 -1.4203
29971SOL    HW291921   6.369   1.113   7.497 -0.4590  2.2766 -0.0406
29972SOL     OW91922   1.274   3.168   2.019  0.0920  0.0004 -0.2693
29972SOL    HW191923   1.203   3.144   2.079  0.1133 -1.2453 -0.7029
29972SOL    HW291924   1.321   3.086   2.004  1.1706  0.6552 -0.5964
29973SOL     OW91925   6.733   6.166   4.691  0.0892  0.6852 -0.6929
29973SOL    HW191926   6.769   6.227   4.626  0.6332 -0.2748 -1.3255
29973SOL    HW291927   6.646   6.200   4.711  0.5714  1.9362 -0.6580
29974SOL     OW91928  10.075   8.888   5.640 -0.6064  0.3447  0.0021
29974SOL    HW191929  10.038   8.965   5.597 -0.9776 -0.2024 -0.6800
29974SOL    HW291930  10.045   8.894   5.731 -3.4328 -0.6979 -0.7689
29975SOL     OW91931   2.395   8.784   4.023 -0.4743  0.2836  0.1709
29975SOL    HW191932   2.400   8.838   3.944 -1.8030 -0.2931 -0.3394
29975SOL    HW291933   2.347   8.839   4.086  0.1792  0.5647  0.4283
29976SOL     OW91934   5.208   2.933   0.862  0.2362 -0.8501  0.0655
29976SOL    HW191935   5.228   2.974   0.946  0.2310  0.3468 -0.4976
29976SOL    HW291936   5.170   3.003   0.810  0.0408 -1.6354 -0.8716
29977SOL     OW91937  10.400   0.093   5.472 -0.1655 -0.2743 -0.0909
29977SOL    HW191938  10.311   0.101   5.507  0.0067 -0.8746  0.5310
29977SOL    HW291939  10.456   0.126   5.542  0.1428 -0.6533 -0.1556
29978SOL     OW91940   4.653   3.584   5.738 -0.0296 -0.1603  0.2856
29978SOL    HW191941   4.601   3.563   5.661 -1.5383  0.2127  1.1445
29978SOL    HW291942   4.719   3.645   5.707 -1.1718  0.6905 -0.5642
29979SOL     OW91943   6.590   2.868   2.718  0.2716 -0.2286  0.0681
29979SOL    HW191944   6.679   2.890   2.691  0.7495 -1.4112  0.6337
29979SOL    HW291945   6.568   2.934   2.784  1.7282 -1.4033  1.8261
29980SOL     OW91946   9.811   0.674   9.187 -0.3741  0.1799 -0.0487
29980SOL    HW191947   9.864   0.648   9.112 -1.3434 -1.0105 -0.3523
29980SOL    HW291948   9.739   0.725   9.150 -0.5572  0.0525  0.1269
29981SOL     OW91949   7.169   1.326   5.499  0.1657  0.1067 -0.0440
29981SOL    HW191950   7.206   1.324   5.411 -0.0129  1.0014 -0.1565
29981SOL    HW291951   7.109   1.402   5.498 -0.5376 -0.4253  0.5710
29982SOL     OW91952   7.534   3.697   8.879 -0.4508  0.3744 -0.3136
29982SOL    HW191953   7.461   3.639   8.856  0.5073 -0.9202 -0.1954
29982SOL    HW291954   7.576   3.717   8.795 -0.5914  0.6639 -0.3183
29983SOL     OW91955   3.419   0.460   2.295 -0.5115  0.3961  0.1747
29983SOL    HW191956   3.338   0.462   2.245 -1.1694 -2.1233  1.0187
29983SOL    HW291957   3.483   0.419   2.237 -0.7324 -0.6374  0.6446
29984SOL     OW91958   1.358   9.501   4.409  0.5094 -0.7347 -0.3864
29984SOL    HW191959   1.280   9.447   4.394 -1.0044  1.6318 -1.8004
29984SOL    HW291960   1.422   9.442   4.447 -2.2848 -2.5996  1.7709
29985SOL     OW91961   5.409   1.224   6.690 -0.3548  0.5354 -0.0927
29985SOL    HW191962   5.350   1.166   6.642 -1.3496  1.5646 -0.1587
29985SOL    HW291963   5.399   1.196   6.782 -0.1065 -0.0081 -0.2265
29986SOL     OW91964   5.041   1.846  10.824  0.2605  0.1639 -0.8141
29986SOL    HW191965   5.003   1.823  10.739 -0.3663  2.2157 -1.1359
29986SOL    HW291966   5.025   1.940  10.833  3.0258  0.6218  0.2204
29987SOL     OW91967   5.661   0.812  10.959 -0.3123  0.2098  0.3235
29987SOL    HW191968   5.721   0.874  11.001 -1.0601 -0.0502  1.8293
29987SOL    HW291969   5.606   0.780  11.030 -0.7347 -1.2887 -0.6433
29988SOL     OW91970  10.231   4.401   1.821  0.2096 -0.0944 -0.1149
29988SOL    HW191971  10.143   4.430   1.798 -0.3948 -0.4783  1.5642
29988SOL    HW291972  10.245   4.436   1.909  1.3703 -0.8307  0.0117
29989SOL     OW91973   7.137  10.256   0.626 -0.0379  0.0201 -0.0242
29989SOL    HW191974   7.203  10.187   0.624 -0.5655 -0.5192 -3.3529
29989SOL    HW291975   7.133  10.282   0.718  1.0886 -3.4772  1.1739
29990SOL     OW91976   4.997   7.119   8.672  0.0048  0.1649  0.0381
29990SOL    HW191977   4.916   7.097   8.718  0.9955 -0.7447  1.3986
29990SOL    HW291978   5.007   7.214   8.686 -0.6864  0.2396  0.0601
29991SOL     OW91979  10.249   5.821   5.143  0.2334 -0.1561  0.4628
29991SOL    HW191980  10.245   5.810   5.048 -0.0787  0.7369  0.3629
29991SOL    HW291981  10.267   5.914   5.156 -1.3364  0.0661  1.2842
29992SOL     OW91982   1.520   8.101   0.383  0.0875  0.0366  0.1062
29992SOL    HW191983   1.429   8.129   0.397  0.4315  0.0932  2.7443
29992SOL    HW291984   1.516   8.006   0.380 -0.1529  0.0687 -0.7062
29993SOL     OW91985   2.380   8.371   2.842  0.1845 -0.0755 -0.1093
29993SOL    HW191986   2.348   8.353   2.930  0.1526 -0.6494 -0.2368
29993SOL    HW291987   2.395   8.285   2.803  0.0340  0.1729 -0.7289
29994SOL     OW91988  10.592  10.117   7.782  0.1344 -0.2144  0.9346
29994SOL    HW191989  10.499  10.117   7.807  0.3360 -0.4842  1.6994
29994SOL    HW291990  10.598  10.050   7.714 -0.3872  0.4127  0.2527
29995SOL     OW91991   4.981   7.238   6.045 -0.5539  0.3148 -0.3701
29995SOL    HW191992   4.999   7.325   6.079 -0.0709  0.6691 -1.4951
29995SOL    HW291993   5.031   7.179   6.103  1.7109  1.0372 -1.4773
29996SOL     OW91994   4.728  10.898   9.501  0.3995  0.1886  0.8429
29996SOL    HW191995   4.801  10.959   9.489 -1.0050  1.8235  0.0387
29996SOL    HW291996   4.659  10.933   9.445 -0.9599 -1.3810  1.4573
29997SOL     OW91997   3.932   9.910   1.613 -0.1732 -0.1009 -0.5789
29997SOL    HW191998   3.941   9.841   1.678 -1.4133 -0.1236 -0.4135
29997SOL    HW291999   3.842   9.939   1.621  0.1630  1.1259 -1.0717
29998SOL     OW92000  10.409   0.587   5.151  0.2611  0.5005  0.5214
29998SOL    HW192001  10.460   0.651   5.200  0.3323  0.5683  0.3621
29998SOL    HW292002  10.394   0.516   5.212  0.6637  0.4199  0.5299
29999SOL     OW92003   8.969   9.531  10.457  0.0957  0.2318 -0.1216
29999SOL    HW192004   8.882   9.493  10.472 -1.1344  2.2448 -1.5937
29999SOL    HW292005   8.982   9.590  10.531 -0.1793  0.5329 -0.3089
30000SOL     OW92006  10.481   9.846   6.193 -0.0904 -0.1026 -0.0550
30000SOL    HW192007  10.567   9.818   6.223  0.6364  0.1504 -1.7946
30000SOL    HW292008  10.446   9.771   6.146 -0.8239 -0.1855  0.6017
30001SOL     OW92009   6.995   1.122   3.701 -0.0184  0.5454 -0.0608
30001SOL    HW192010   6.989   1.074   3.618  1.4562  1.5739 -0.8224
30001SOL    HW292011   7.089   1.140   3.711 -0.3221  1.6101  1.1380
30002SOL     OW92012   2.172   8.654   8.908 -0.0312  0.3268  0.2453
30002SOL    HW192013   2.208   8.742   8.899  3.0953 -0.5893  1.9454
30002SOL    HW292014   2.132   8.653   8.995 -0.6424  0.2395 -0.0346
30003SOL     OW92015   2.737   3.706   0.346 -0.4268 -0.0640  0.2415
30003SOL    HW192016   2.703   3.618   0.359  0.2182 -0.2487  0.7760
30003SOL    HW292017   2.825   3.703   0.385 -0.5931  0.9518  0.7227
30004SOL     OW92018   6.805   4.442   1.296  0.4458  1.0575  0.1646
30004SOL    HW192019   6.725   4.486   1.267 -0.2885 -0.3033  0.0903
30004SOL    HW292020   6.874   4.482   1.243 -0.4588  0.8288 -1.2349
30005SOL     OW92021   7.897   6.571   2.195  0.6207  0.1126  0.1125
30005SOL    HW192022   7.970   6.583   2.134  0.8489  1.0396  0.5518
30005SOL    HW292023   7.937   6.530   2.272 -0.1941 -4.0667 -1.4682
30006SOL     OW92024   4.478   8.693   2.374  0.1899 -0.1206 -0.2634
30006SOL    HW192025   4.493   8.686   2.279  1.0592  0.7948 -0.2212
30006SOL    HW292026   4.478   8.603   2.405 -2.3985 -0.6180 -1.4302
30007SOL     OW92027   8.682   0.592   4.304  0.6247 -0.4721  0.5925
30007SOL    HW192028   8.674   0.569   4.211 -0.0089 -1.5576  0.8994
30007SOL    HW292029   8.652   0.514   4.351 -1.4856  0.9084  1.7066
30008SOL     OW92030   3.933   3.443   4.628  0.1511 -0.2374 -0.1163
30008SOL    HW192031   3.921   3.527   4.584 -1.2778 -0.8117 -0.8894
30008SOL    HW292032   3.845   3.417   4.655  0.5636 -1.5169  0.0565
30009SOL     OW92033   4.317   7.482   7.369  0.5997 -0.3109 -0.2056
30009SOL    HW192034   4.355   7.398   7.347  2.1321  0.2844  0.0619
30009SOL    HW292035   4.355   7.504   7.454 -0.4715  0.2557  0.1523
30010SOL     OW92036   4.010   3.869   7.898 -0.0713 -0.1103  0.5229
30010SOL    HW192037   4.082   3.897   7.841 -2.3365 -0.1546 -2.6590
30010SOL    HW292038   4.018   3.774   7.902 -0.2559 -0.1742 -0.3532
30011SOL     OW92039  10.775   0.352   0.827 -0.9581 -0.3689  0.0515
30011SOL    HW192040  10.688   0.318   0.850 -0.6861 -0.6465  0.6693
30011SOL    HW292041  10.814   0.282   0.774 -1.3010 -0.0294 -0.6737
30012SOL     OW92042   1.006   9.853   4.036  0.2598 -0.3984  0.3135
30012SOL    HW192043   0.929   9.893   4.076 -0.1876 -0.7420 -0.1972
30012SOL    HW292044   1.015   9.896   3.951 -0.4611 -1.6287 -0.4160
30013SOL     OW92045   1.619   7.369   6.143  0.1411  0.2238  0.3775
30013SOL    HW192046   1.557   7.416   6.086 -0.9589  0.3218  1.6064
30013SOL    HW292047   1.670   7.438   6.185  1.1408  0.1421 -0.6531
30014SOL     OW92048   2.300   6.135   0.659 -0.2875  0.4317 -0.0082
30014SOL    HW192049   2.324   6.221   0.624 -0.9243  0.9520  0.8052
30014SOL    HW292050   2.368   6.115   0.723 -1.1805  1.2559  1.2507
30015SOL     OW92051   9.870   5.070   3.791  0.3527  0.0367 -0.2894
30015SOL    HW192052   9.774   5.077   3.789  0.1452 -2.0795 -0.9932
30015SOL    HW292053   9.887   5.016   3.869  0.8512 -0.7023 -0.9012
30016SOL     OW92054   7.841   9.770   4.046  0.0562 -0.1851 -0.2935
30016SOL    HW192055   7.825   9.752   3.954 -0.9676 -0.8834  0.0033
30016SOL    HW292056   7.897   9.697   4.075  1.6692  0.8308 -0.6891
30017SOL     OW92057   5.676   3.704   6.521  0.2742  0.4476  0.4980
30017SOL    HW192058   5.615   3.777   6.526  0.3044  0.4774  0.4393
30017SOL    HW292059   5.763   3.745   6.520  0.2588  0.5048 -1.0555
30018SOL     OW92060   3.852   9.796  10.303  0.2272  0.8831  0.4195
30018SOL    HW192061   3.829   9.871  10.248  1.0810  0.8536 -0.0022
30018SOL    HW292062   3.889   9.732  10.242 -0.8074 -0.0313  0.7297
30019SOL     OW92063   0.401   3.950   6.732  0.5344  0.0940 -0.3155
30019SOL    HW192064   0.371   4.022   6.786  0.4944  0.2370 -0.5262
30019SOL    HW292065   0.461   3.901   6.788 -0.2419 -0.3085  0.1752
30020SOL     OW92066   6.548   7.370   0.922  0.1443 -0.0972 -0.4590
30020SOL    HW192067   6.630   7.344   0.880  0.8574  1.2589  0.0524
30020SOL    HW292068   6.480   7.324   0.872  1.2177 -1.5366 -0.6505
30021SOL     OW92069   3.207   7.155   7.470  0.0721  0.3151  0.1799
30021SOL    HW192070   3.132   7.126   7.521 -1.4667 -0.3323 -2.2686
30021SOL    HW292071   3.265   7.080   7.467 -0.6900 -0.2649 -0.4823
30022SOL     OW92072   3.722   9.500   0.709 -0.0277 -0.4695  0.2504
30022SOL    HW192073   3.794   9.561   0.692 -0.1004 -0.2516  0.7085
30022SOL    HW292074   3.647   9.539   0.664  0.1194 -0.6674 -0.1789
30023SOL     OW92075   4.364   4.499   0.611 -0.0450 -0.3903 -0.4350
30023SOL    HW192076   4.402   4.507   0.523 -0.7581 -0.4253 -0.7517
30023SOL    HW292077   4.319   4.582   0.625 -0.1885 -0.5040 -0.2238
30024SOL     OW92078   9.151   8.323   7.443 -0.1679 -0.3537 -0.5597
30024SOL    HW192079   9.241   8.293   7.452  0.2176  0.7206 -0.6938
30024SOL    HW292080   9.130   8.309   7.351  0.6958  1.5834 -1.0895
30025SOL     OW92081   8.180   4.467   7.117 -0.2157  0.3357 -0.4276
30025SOL    HW192082   8.226   4.528   7.060  1.8244 -1.2351 -0.5684
30025SOL    HW292083   8.212   4.380   7.090 -0.3375 -0.5626  2.0736
30026SOL     OW92084   1.992   8.324   8.594  0.2780  0.1684  0.2470
30026SOL    HW192085   2.041   8.261   8.646  0.5483  0.7460  0.7051
30026SOL    HW292086   1.932   8.365   8.656  0.3009  0.5632  0.0118
30027SOL     OW92087   6.084  10.490   6.720 -0.1193 -0.2185 -0.2486
30027SOL    HW192088   6.114  10.451   6.803  1.7543  1.4025 -0.0817
30027SOL    HW292089   6.068  10.416   6.663 -0.6310 -1.3507  1.2835
30028SOL     OW92090   5.621   4.737   1.496  0.5029 -0.1274 -0.0061
30028SOL    HW192091   5.671   4.656   1.507 -0.0633 -0.2573  1.8460
30028SOL    HW292092   5.533   4.709   1.471  0.3584 -0.0761  0.4428
30029SOL     OW92093   8.832   2.160   5.454 -0.0995  0.1324 -0.0296
30029SOL    HW192094   8.745   2.145   5.417  0.1708 -0.6781 -0.3667
30029SOL    HW292095   8.846   2.087   5.514  0.6141 -0.1306 -0.4912
30030SOL     OW92096  10.305   0.965   6.118  1.6382  0.0428  0.3817
30030SOL    HW192097  10.339   0.956   6.029  2.2769 -0.1896  0.6397
30030SOL    HW292098  10.211   0.949   6.110  1.5767  0.7009 -0.3522
30031SOL     OW92099   4.734   8.368   7.783  0.3087  0.3343  0.5227
30031SOL    HW192100   4.805   8.322   7.826 -0.7117 -0.5282  1.3367
30031SOL    HW292101   4.777   8.425   7.719  1.6828 -0.5461  0.6349
30032SOL     OW92102   9.829   7.165   2.872  0.6193 -0.1776 -0.9807
30032SOL    HW192103   9.820   7.100   2.942  1.3351 -0.5272 -1.2038
30032SOL    HW292104   9.799   7.120   2.793 -0.3952  0.2873 -0.8756
30033SOL     OW92105   0.901   1.735   2.216 -0.0441 -0.2123  0.3366
30033SOL    HW192106   0.891   1.706   2.125 -1.4067  1.4081 -0.0771
30033SOL    HW292107   0.949   1.818   2.209 -0.8620  0.3300  1.0133
30034SOL     OW92108   0.366   7.850   8.873 -0.1661  0.1401  0.1342
30034SOL    HW192109   0.443   7.834   8.818 -0.4719  0.5453 -0.4210
30034SOL    HW292110   0.292   7.838   8.814 -0.4756  1.2632  0.2744
30035SOL     OW92111  10.687   7.876   9.845  0.0891  0.1608  0.0277
30035SOL    HW192112  10.634   7.863   9.923 -0.0432 -0.6909 -0.1899
30035SOL    HW292113  10.764   7.923   9.876  0.8007 -1.5240  1.0024
30036SOL     OW92114   8.238   9.670   6.190 -0.0387  0.2744 -0.2694
30036SOL    HW192115   8.147   9.696   6.208 -1.0329 -2.6840 -0.5526
30036SOL    HW292116   8.277   9.659   6.277 -0.9383 -1.4443 -0.0446
30037SOL     OW92117  10.855   9.612   8.332  0.3819 -0.2833 -0.2551
30037SOL    HW192118  10.763   9.633   8.350  0.2219 -0.2451 -1.0667
30037SOL    HW292119  10.896   9.696   8.313 -0.0255 -0.5035 -2.4783
30038SOL     OW92120   4.971  10.270   0.985  0.1319  0.6601  0.2035
30038SOL    HW192121   5.045  10.304   1.035 -0.0185  1.3434 -0.0185
30038SOL    HW292122   4.967  10.327   0.908 -0.9680  0.9916  0.4937
30039SOL     OW92123   6.136   8.533   4.395  0.2931  0.2841 -0.1538
30039SOL    HW192124   6.170   8.451   4.429 -0.3340 -0.0435 -0.2989
30039SOL    HW292125   6.055   8.548   4.445 -0.5451 -0.1155 -1.3347
30040SOL     OW92126   4.718   8.747   8.577  0.2598 -0.0159  0.1905
30040SOL    HW192127   4.734   8.835   8.542  1.2892 -0.5477 -0.7307
30040SOL    HW292128   4.799   8.700   8.561  0.3842 -0.6228  2.3596
30041SOL     OW92129   9.211   8.162   6.904 -0.9384 -0.4322  0.0889
30041SOL    HW192130   9.289   8.108   6.888 -1.8756 -2.1120  0.9642
30041SOL    HW292131   9.201   8.163   6.999 -2.3477 -0.8131 -0.0289
30042SOL     OW92132  10.161  10.939   8.238 -0.3542  0.1583  0.2665
30042SOL    HW192133  10.234  10.885   8.210 -1.3915 -0.8112 -0.6552
30042SOL    HW292134  10.169  11.020   8.187 -0.4664 -0.3390 -0.5556
30043SOL     OW92135  10.046   1.453   3.696  0.9299  0.4672  0.2458
30043SOL    HW192136   9.981   1.522   3.706  1.1935  0.5246  1.7455
30043SOL    HW292137  10.091   1.474   3.614 -0.8373  0.4744 -0.7746
30044SOL     OW92138   8.027  10.352   2.646  0.0208 -0.0405 -0.0300
30044SOL    HW192139   8.086  10.313   2.582  0.7321  0.1452  0.5016
30044SOL    HW292140   8.050  10.310   2.729  0.0367  0.6968  0.3462
30045SOL     OW92141   0.212   9.679   9.274  0.1478  0.2164  0.2046
30045SOL    HW192142   0.253   9.669   9.189  0.5339  0.8173  0.3163
30045SOL    HW292143   0.135   9.621   9.271  1.7630 -2.0862  0.5195
30046SOL     OW92144   8.566   0.291   4.285  0.0188 -0.7540 -0.1366
30046SOL    HW192145   8.547   0.286   4.379  0.7618 -0.6553  0.0223
30046SOL    HW292146   8.606   0.207   4.263  1.3256 -0.1786 -0.0170
30047SOL     OW92147   4.174   6.103  10.321 -0.0417  0.0990  0.0030
30047SOL    HW192148   4.211   6.189  10.301  0.7436 -0.6735 -2.1890
30047SOL    HW292149   4.080   6.112  10.308 -0.1209  0.8928  0.9976
30048SOL     OW92150   0.278   2.567   0.184  0.4704  0.2265  0.2122
30048SOL    HW192151   0.326   2.570   0.101  0.7533 -1.3180  0.3047
30048SOL    HW292152   0.286   2.477   0.214  0.8351  0.8565  2.1966
30049SOL     OW92153   7.465   7.642   9.140  0.0837 -0.0453 -0.4808
30049SOL    HW192154   7.373   7.659   9.162  0.0824 -0.6375 -0.0083
30049SOL    HW292155   7.467   7.549   9.118  0.0283  0.5259 -3.3074
30050SOL     OW92156   7.512   0.434   5.475  0.1106  0.8304  0.1569
30050SOL    HW192157   7.514   0.341   5.451  2.3065  0.6767  0.6954
30050SOL    HW292158   7.509   0.480   5.392 -0.4359  0.2890 -0.1325
30051SOL     OW92159   0.112   2.297   3.657  0.0204  0.3412  0.0365
30051SOL    HW192160   0.156   2.358   3.716 -0.6133  0.6831  0.1720
30051SOL    HW292161   0.142   2.211   3.683  0.1771  0.5333  0.4884
30052SOL     OW92162   2.732   1.659   0.069  0.5302 -0.1936  0.5617
30052SOL    HW192163   2.730   1.634  -0.023 -1.7823 -3.1303  1.2759
30052SOL    HW292164   2.654   1.713   0.081 -0.8977 -2.3049  1.3074
30053SOL     OW92165   8.635   8.270   6.231  0.5247 -0.3886  0.3752
30053SOL    HW192166   8.552   8.223   6.225 -0.1217  0.6404  0.9449
30053SOL    HW292167   8.689   8.232   6.162 -1.6638  1.3982 -2.5778
30054SOL     OW92168   0.624   8.125   3.552 -0.5791  0.4576 -0.1061
30054SOL    HW192169   0.635   8.148   3.644  4.0400 -2.0806  0.2262
30054SOL    HW292170   0.579   8.041   3.553  0.6070 -0.1877 -0.0487
30055SOL     OW92171   1.136   2.679   1.446 -0.0132  0.3417 -0.2412
30055SOL    HW192172   1.056   2.730   1.430  0.4007  1.4803  1.0987
30055SOL    HW292173   1.204   2.745   1.458  0.7027 -0.5588  0.7738
30056SOL     OW92174   1.593   4.537  10.691  0.5988 -0.0919  0.0775
30056SOL    HW192175   1.612   4.612  10.747 -1.7807  0.2151  0.5764
30056SOL    HW292176   1.600   4.570  10.602  0.2826  0.5425  0.2843
30057SOL     OW92177   7.611   9.835   1.560  0.5999  0.4402  0.4151
30057SOL    HW192178   7.655   9.865   1.639 -0.7461  0.8394  1.0326
30057SOL    HW292179   7.668   9.864   1.489  2.9254 -1.7057  1.2308
30058SOL     OW92180   9.951  10.102   0.719 -0.0229  0.4851  0.1654
30058SOL    HW192181   9.972  10.183   0.765 -0.9247  0.4390  0.6994
30058SOL    HW292182   9.857  10.108   0.703  0.2500  0.4708 -1.6532
30059SOL     OW92183  10.433  10.681   4.640 -0.5265  0.2049 -0.4507
30059SOL    HW192184  10.452  10.591   4.666  0.1417  0.4347 -0.1033
30059SOL    HW292185  10.349  10.676   4.595  0.0432 -0.7704 -1.4730
30060SOL     OW92186   6.814   2.217   9.633 -0.5834  0.4913 -0.8408
30060SOL    HW192187   6.751   2.158   9.673  1.4273 -0.8667  0.5260
30060SOL    HW292188   6.832   2.179   9.547  0.6164 -0.9280 -0.0093
30061SOL     OW92189   7.008   2.166   5.555 -0.2509 -0.2321  0.4364
30061SOL    HW192190   6.926   2.192   5.597 -0.3963 -1.1443  0.7219
30061SOL    HW292191   7.076   2.216   5.602 -0.4556 -0.8772  1.4529
30062SOL     OW92192   8.794  10.023   0.365 -0.3293 -0.5562 -0.8808
30062SOL    HW192193   8.803  10.111   0.329  1.4949  0.6379  2.0850
30062SOL    HW292194   8.870   9.975   0.330 -0.9407 -0.7659 -1.9477
30063SOL     OW92195   9.131   4.763   1.428 -0.4686  0.1074  0.1839
30063SOL    HW192196   9.181   4.703   1.482  0.8112  0.0794 -0.9907
30063SOL    HW292197   9.041   4.729   1.431 -0.3828 -0.0278  2.0519
30064SOL     OW92198   3.917   4.695   4.304 -0.4664  0.2466  0.6963
30064SOL    HW192199   3.907   4.620   4.246 -1.3996 -0.9037  2.2974
30064SOL    HW292200   3.961   4.660   4.381  0.1529  1.6087  0.9869
30065SOL     OW92201   8.987   9.845   6.498 -0.2603  0.8508  0.2354
30065SOL    HW192202   9.053   9.855   6.430 -1.1053  1.2514 -0.5407
30065SOL    HW292203   9.023   9.778   6.557  1.0932  1.4963  0.1725
30066SOL     OW92204  10.768  10.231   9.850  0.2468  0.1051 -0.1178
30066SOL    HW192205  10.730  10.149   9.817  0.9705 -0.4899  0.4762
30066SOL    HW292206  10.693  10.289   9.861 -0.3131 -0.5570 -0.3388
30067SOL     OW92207   0.475   5.161   1.431 -0.3529  0.9068 -0.2648
30067SOL    HW192208   0.494   5.252   1.455 -0.3628  1.1461 -1.1468
30067SOL    HW292209   0.414   5.167   1.358  1.1309  0.2387 -1.6260
30068SOL     OW92210  10.655   6.262   3.045  0.1821  0.2862  0.5082
30068SOL    HW192211  10.650   6.357   3.045 -0.9233  0.2349  0.2092
30068SOL    HW292212  10.587   6.234   3.106  1.1419 -0.2963  1.3553
30069SOL     OW92213   8.750  10.940   6.706  0.1540 -0.9154  0.1098
30069SOL    HW192214   8.838  10.905   6.723  0.0520 -2.1801 -1.6858
30069SOL    HW292215   8.757  10.980   6.619 -1.1393 -1.4371 -0.2523
30070SOL     OW92216   2.522   4.005   4.873  0.6599  0.1021 -0.5822
30070SOL    HW192217   2.501   3.964   4.790 -3.1511  0.3558  0.0650
30070SOL    HW292218   2.577   3.942   4.919  1.7137 -0.6004 -2.7288
30071SOL     OW92219  10.140   4.598   6.817 -0.0362 -0.1242  0.0840
30071SOL    HW192220  10.218   4.637   6.778 -0.1029 -2.0995 -2.2403
30071SOL    HW292221  10.166   4.507   6.835 -1.3152 -0.3631  0.8374
30072SOL     OW92222   2.485   5.416   6.643 -0.1304 -0.2325 -0.4947
30072SOL    HW192223   2.470   5.322   6.651  0.9371 -0.3662 -0.0038
30072SOL    HW292224   2.410   5.456   6.687  0.0825 -0.8709  0.4685
30073SOL     OW92225   7.834   1.752  10.460  0.1480 -0.3960 -0.6191
30073SOL    HW192226   7.811   1.844  10.449  2.3151  0.5625  1.9959
30073SOL    HW292227   7.901   1.736  10.394  1.3140  0.5647  0.2942
30074SOL     OW92228   9.394   7.253   3.297  0.5327  0.3186 -0.2274
30074SOL    HW192229   9.429   7.255   3.386 -0.1034 -0.7531  0.0753
30074SOL    HW292230   9.333   7.326   3.293 -0.3237 -0.3194  0.6341
30075SOL     OW92231   3.455   0.427   5.865 -0.3627  0.4532 -0.6015
30075SOL    HW192232   3.407   0.349   5.892 -0.4660  0.4568 -0.7770
30075SOL    HW292233   3.547   0.404   5.876 -0.4015  0.4495 -0.2536
30076SOL     OW92234   5.110   9.940   1.550  0.4316 -0.2972 -0.5799
30076SOL    HW192235   5.084   9.905   1.465  1.6011 -4.0822  0.4600
30076SOL    HW292236   5.037   9.920   1.608  1.0006 -0.8230 -0.0213
30077SOL     OW92237   9.233   5.583   9.459  0.4520  0.1654 -0.4605
30077SOL    HW192238   9.266   5.610   9.373  2.9023 -1.2182 -0.0485
30077SOL    HW292239   9.280   5.502   9.478 -2.4651 -1.4091  0.7713
30078SOL     OW92240  10.711   6.131   4.491 -0.9519 -0.6713 -0.1563
30078SOL    HW192241  10.617   6.139   4.476 -1.2025 -1.4204  0.8739
30078SOL    HW292242  10.720   6.057   4.551  0.2186 -0.0184  0.5191
30079SOL     OW92243   0.285   5.261   2.458  0.0073  0.9595  0.2417
30079SOL    HW192244   0.351   5.192   2.450 -2.2732 -1.3251 -0.4463
30079SOL    HW292245   0.308   5.325   2.391  0.8068 -0.4388 -0.8641
30080SOL     OW92246   0.360   4.092   0.777 -0.1316 -0.3087 -0.8653
30080SOL    HW192247   0.403   4.100   0.692 -2.4254 -3.0114 -2.4650
30080SOL    HW292248   0.343   3.999   0.786 -1.9331  0.1675  1.5552
30081SOL     OW92249   9.716   7.327   7.574  0.3447  0.4258 -0.1216
30081SOL    HW192250   9.664   7.333   7.494  0.4132  2.1221 -0.0687
30081SOL    HW292251   9.654   7.300   7.642  0.2674 -0.9221 -0.7054
30082SOL     OW92252   2.369   8.548   4.298 -0.5949 -0.2433 -0.1223
30082SOL    HW192253   2.312   8.479   4.331 -1.3783  1.1588  1.5793
30082SOL    HW292254   2.441   8.552   4.361 -0.3617  0.2411 -0.4140
30083SOL     OW92255   0.096   6.819   7.244 -0.1787  0.0606 -0.2278
30083SOL    HW192256   0.157   6.868   7.189  0.4932 -0.7518 -0.2149
30083SOL    HW292257   0.047   6.887   7.291 -1.4829  0.8240 -2.5344
30084SOL     OW92258   9.984   4.893   4.785 -0.1912  0.1917  0.2426
30084SOL    HW192259  10.032   4.822   4.741 -1.6097 -1.1755  0.8214
30084SOL    HW292260   9.893   4.864   4.786 -0.4687  0.9549  2.5472
30085SOL     OW92261   6.025   2.912   2.618  0.3969  0.5409 -0.1100
30085SOL    HW192262   6.058   2.994   2.580  0.2568  0.3998 -0.5334
30085SOL    HW292263   5.967   2.941   2.689 -1.3669  0.8885 -1.6085
30086SOL     OW92264   6.196   4.422   9.394 -0.0719  0.0727 -0.0297
30086SOL    HW192265   6.187   4.327   9.387  1.6474 -0.1672  0.3609
30086SOL    HW292266   6.143   4.447   9.469 -1.4727 -0.3885 -0.8327
30087SOL     OW92267   5.977  10.777  10.391 -0.1676 -0.1569 -0.4118
30087SOL    HW192268   5.912  10.833  10.433  0.0251 -1.0437  1.1451
30087SOL    HW292269   5.926  10.705  10.354 -0.1184 -0.8821  0.8583
30088SOL     OW92270   3.220   1.929   2.104  0.0007 -0.0397 -0.1857
30088SOL    HW192271   3.280   1.989   2.147  1.1345 -3.0205  2.7309
30088SOL    HW292272   3.158   1.903   2.172  0.1078 -2.8131 -1.0226
30089SOL     OW92273   5.447   4.997   7.657 -0.8618  0.2313  0.0460
30089SOL    HW192274   5.377   4.934   7.677  0.0175 -0.7966 -0.0225
30089SOL    HW292275   5.520   4.943   7.627  0.6174  1.1096  1.9020
30090SOL     OW92276   5.766   1.508   5.042  0.5495  0.2573 -0.1186
30090SOL    HW192277   5.831   1.571   5.013 -0.0176  0.3280 -1.2774
30090SOL    HW292278   5.721   1.481   4.962  1.9441 -3.0054  0.0537
30091SOL     OW92279   5.857   4.946   6.352  0.0911  0.0996 -0.0975
30091SOL    HW192280   5.764   4.926   6.345  0.0032  0.6086 -0.4899
30091SOL    HW292281   5.895   4.871   6.397 -0.7809  0.6288  1.6143
30092SOL     OW92282   2.687   3.097   9.722 -0.5035  0.3624  0.3467
30092SOL    HW192283   2.663   3.105   9.629  1.1746  2.4142  0.0236
30092SOL    HW292284   2.704   3.003   9.733  1.3835  0.3050 -2.0372
30093SOL     OW92285   4.908   9.185   5.473  0.5916  0.0652 -0.4199
30093SOL    HW192286   4.817   9.177   5.443  0.8670  0.9536 -1.5556
30093SOL    HW292287   4.929   9.278   5.463  1.8909 -0.2620 -0.9769
30094SOL     OW92288   9.107   5.367   3.505  0.3448 -0.0125  0.2628
30094SOL    HW192289   9.193   5.396   3.536 -0.3682  0.4037  2.0065
30094SOL    HW292290   9.077   5.437   3.448  0.9630  0.0707  0.0355
30095SOL     OW92291  10.376  10.040   3.507 -0.0999  0.4935 -0.1377
30095SOL    HW192292  10.436   9.974   3.474 -0.2061  1.0396 -1.4630
30095SOL    HW292293  10.291   9.996   3.509 -0.1364  0.5214 -0.8421
30096SOL     OW92294   2.090   5.071   7.830  0.2480  0.1640  0.2683
30096SOL    HW192295   2.116   5.162   7.820 -0.8064  0.4132 -0.3541
30096SOL    HW292296   2.069   5.062   7.923  0.0269  0.6550  0.2675
30097SOL     OW92297   3.468   6.930   4.893 -0.3649 -0.4926  0.5236
30097SOL    HW192298   3.494   7.022   4.898 -0.8108 -0.1337 -2.0771
30097SOL    HW292299   3.547   6.881   4.916  0.0914  0.5402  1.2203
30098SOL     OW92300   0.018  10.971   4.904  0.5364  0.5162 -0.4461
30098SOL    HW192301   0.073  11.013   4.838 -0.5479  0.3441 -1.5122
30098SOL    HW292302  -0.031  11.042   4.944 -0.9844  0.4044 -1.9524
30099SOL     OW92303   9.308   7.850  10.555 -0.3836 -0.1361 -0.2091
30099SOL    HW192304   9.303   7.945  10.541 -1.1460 -0.3908 -1.8518
30099SOL    HW292305   9.232   7.830  10.610 -1.1136  0.0043 -1.1507
30100SOL     OW92306   1.544   6.231   0.254  0.0040 -0.7976  0.9013
30100SOL    HW192307   1.502   6.265   0.175  0.2442 -0.1529  1.0442
30100SOL    HW292308   1.585   6.307   0.294 -0.4206 -1.0498  1.8416
30101SOL     OW92309   4.851   1.191   8.504 -0.3110 -0.1532 -0.3364
30101SOL    HW192310   4.892   1.105   8.491  0.0686 -0.1441  0.6660
30101SOL    HW292311   4.799   1.205   8.425 -0.1618 -1.1836 -0.6389
30102SOL     OW92312   7.960   5.113   6.021 -0.0687 -0.2816 -0.3815
30102SOL    HW192313   7.887   5.174   6.014  0.4349  0.4031  0.1365
30102SOL    HW292314   7.943   5.047   5.954  0.2063  1.3425 -2.1547
30103SOL     OW92315   0.672   3.715   1.048 -0.1007  0.4614  0.4151
30103SOL    HW192316   0.592   3.713   1.102  0.5247 -0.3054  1.3552
30103SOL    HW292317   0.735   3.663   1.098  0.8921  0.7884 -0.4758
30104SOL     OW92318   2.042   1.425   3.580  0.3459 -0.5446 -0.3535
30104SOL    HW192319   1.969   1.438   3.520  0.1748 -0.1106 -0.0634
30104SOL    HW292320   2.107   1.491   3.554  0.2519 -0.3245 -0.0375
30105SOL     OW92321   3.837   3.186   3.145 -0.0962 -0.4552  0.3910
30105SOL    HW192322   3.857   3.269   3.188 -2.7597  0.4918 -0.0804
30105SOL    HW292323   3.856   3.120   3.213  1.6256  0.5060  0.9125
30106SOL     OW92324   8.591  10.450   6.850  0.3355 -0.2321  0.7232
30106SOL    HW192325   8.665  10.414   6.800  0.2954 -0.2649  0.6887
30106SOL    HW292326   8.632  10.489   6.927  0.4835  0.4995  0.2883
30107SOL     OW92327   1.427   7.149   1.975 -0.2748  0.0075 -0.1064
30107SOL    HW192328   1.484   7.108   2.041 -0.6408 -0.2755  0.0390
30107SOL    HW292329   1.339   7.145   2.014 -0.2308  1.6065  0.2484
30108SOL     OW92330  10.737   9.346   7.172 -0.0546 -0.4622 -0.1396
30108SOL    HW192331  10.689   9.267   7.194 -2.6772  0.4479 -2.0738
30108SOL    HW292332  10.671   9.405   7.135  1.5950  2.9627  1.8741
30109SOL     OW92333   4.272   3.306   7.787 -0.3204 -0.1393  0.1118
30109SOL    HW192334   4.257   3.382   7.843  0.3190  0.2800 -0.2685
30109SOL    HW292335   4.211   3.240   7.818  0.7503 -0.2918  2.0098
30110SOL     OW92336   8.178   7.839   1.357 -0.0604  0.0637  0.7587
30110SOL    HW192337   8.269   7.867   1.353 -0.5641  1.7147 -0.0067
30110SOL    HW292338   8.139   7.872   1.277 -1.3399 -0.6557  1.0522
30111SOL     OW92339   3.038   8.221   9.296  0.1535  0.6005 -0.1064
30111SOL    HW192340   3.075   8.157   9.356  0.3462  1.0456  0.2596
30111SOL    HW292341   2.995   8.285   9.353 -0.3562  0.6031 -0.4816
30112SOL     OW92342   0.436   4.452   3.611 -0.0353  0.1158 -0.1883
30112SOL    HW192343   0.499   4.381   3.623 -0.1196  0.0366 -0.2194
30112SOL    HW292344   0.410   4.446   3.520 -0.6935 -0.3546  0.0211
30113SOL     OW92345   6.070   6.861   0.507  0.0520 -0.3209  0.2447
30113SOL    HW192346   6.012   6.859   0.431  1.0909 -1.5532 -0.5400
30113SOL    HW292347   6.144   6.805   0.484  1.5251  1.0863  1.2602
30114SOL     OW92348   9.735   7.282   9.504 -0.2746  0.1552  0.3569
30114SOL    HW192349   9.762   7.191   9.513 -0.1686  0.0489 -0.8425
30114SOL    HW292350   9.756   7.322   9.588 -1.7984 -1.2769  1.4720
30115SOL     OW92351   6.584   7.126  10.790 -0.0511  1.0020  0.3776
30115SOL    HW192352   6.565   7.118  10.883  0.4172  1.6719  0.5366
30115SOL    HW292353   6.674   7.094  10.781 -0.2764  0.4279  0.0626
30116SOL     OW92354   4.135   6.757   7.006  0.0372 -0.4322  0.3813
30116SOL    HW192355   4.106   6.792   6.922 -0.7546  0.5079  1.0224
30116SOL    HW292356   4.217   6.801   7.024 -0.8193  0.9617  1.0539
30117SOL     OW92357   9.637   7.483  10.910  0.4059 -0.1020  0.0069
30117SOL    HW192358   9.596   7.492  10.996  0.5302  0.4606  0.0154
30117SOL    HW292359   9.632   7.390  10.889 -1.4401  0.0240 -0.2748
30118SOL     OW92360   4.294  10.553   6.173  0.3985 -0.1850 -0.0483
30118SOL    HW192361   4.221  10.493   6.156 -0.2870  0.9556 -1.3384
30118SOL    HW292362   4.358  10.500   6.220 -0.2900 -1.8704 -0.9159
30119SOL     OW92363   3.566   2.550   6.517 -0.2855 -0.1999  0.9124
30119SOL    HW192364   3.613   2.474   6.551 -0.3899  0.2668  2.1485
30119SOL    HW292365   3.526   2.520   6.435 -0.5427 -1.5438  1.5138
30120SOL     OW92366   3.595   7.229   3.497  0.2152  0.1497  0.1809
30120SOL    HW192367   3.579   7.275   3.415  0.4728  1.9209  1.0630
30120SOL    HW292368   3.508   7.222   3.538 -0.0288 -1.4115 -0.5437
30121SOL     OW92369  10.681   2.499   8.794  0.7448  0.2076 -0.3807
30121SOL    HW192370  10.691   2.555   8.871  0.5504 -0.6827  0.3066
30121SOL    HW292371  10.768   2.494   8.756  0.7993  0.8244 -0.3549
30122SOL     OW92372   1.265   9.837   6.096  0.0120  0.2359  0.0621
30122SOL    HW192373   1.198   9.904   6.111  1.0388  1.3322 -0.1460
30122SOL    HW292374   1.239   9.795   6.014 -1.4153 -0.6166  0.9041
30123SOL     OW92375   8.903   0.966   1.166  0.1041 -0.1535 -0.3006
30123SOL    HW192376   8.984   0.976   1.117 -0.1818  0.2446 -0.6951
30123SOL    HW292377   8.929   0.976   1.258  0.3910  0.7254 -0.4648
30124SOL     OW92378   8.008   6.223   9.387  0.2799  0.0300  0.0746
30124SOL    HW192379   7.965   6.204   9.471 -0.3294  1.2427  0.0535
30124SOL    HW292380   8.036   6.314   9.395 -1.2350  0.7034 -1.6153
30125SOL     OW92381   7.542   5.982   7.641  0.7447  0.1940  0.1886
30125SOL    HW192382   7.587   5.898   7.657 -1.7385 -1.5375 -1.2418
30125SOL    HW292383   7.517   6.012   7.728 -0.6533 -1.9898  0.6214
30126SOL     OW92384   6.798   8.456   4.109  0.1040  0.3020  0.3018
30126SOL    HW192385   6.878   8.410   4.082 -0.4874  0.9074 -2.9519
30126SOL    HW292386   6.798   8.536   4.056 -1.3160  1.7205  2.2888
30127SOL     OW92387   9.012   6.685   6.586  0.1887 -0.2125 -0.3571
30127SOL    HW192388   9.042   6.614   6.530 -1.5216  0.5965 -2.4312
30127SOL    HW292389   9.078   6.753   6.576  0.3434 -0.4127 -0.7149
30128SOL     OW92390   2.204   3.403   0.202 -0.0652  0.3260 -0.1054
30128SOL    HW192391   2.150   3.377   0.277  0.3502  0.3859  0.2169
30128SOL    HW292392   2.233   3.492   0.222  0.4850  0.1459 -0.0849
30129SOL     OW92393   9.592   6.378   3.991  0.4491 -1.0933 -0.5749
30129SOL    HW192394   9.559   6.359   3.903  0.1302  1.9408 -1.2344
30129SOL    HW292395   9.684   6.400   3.978  0.1185  0.5184 -0.3931
30130SOL     OW92396   2.813   7.648   9.439 -0.2046 -0.3529 -0.2052
30130SOL    HW192397   2.765   7.573   9.473 -0.0514 -0.2425  0.2693
30130SOL    HW292398   2.758   7.683   9.369 -1.4585  0.5254  1.1544
30131SOL     OW92399   9.530   8.945   0.414 -0.1008 -0.6721  0.1703
30131SOL    HW192400   9.508   8.852   0.417 -2.4786 -0.1517  1.1439
30131SOL    HW292401   9.470   8.986   0.476 -0.9139  1.8322 -2.0678
30132SOL     OW92402   5.819   5.258   6.363 -0.7073  0.0391  0.0013
30132SOL    HW192403   5.825   5.164   6.378  1.7214  0.1910  0.3761
30132SOL    HW292404   5.752   5.267   6.294  0.3584 -2.1336 -1.4327
30133SOL     OW92405   7.210   0.140  10.003 -0.4877 -0.2182  0.0071
30133SOL    HW192406   7.166   0.152  10.087 -0.1792  0.5166  0.0741
30133SOL    HW292407   7.158   0.191   9.941  1.3162  2.3856  0.4495
30134SOL     OW92408   9.467   6.973   8.088  0.5664 -0.2010 -0.6066
30134SOL    HW192409   9.408   6.970   8.163  0.6384  0.3375 -0.5242
30134SOL    HW292410   9.429   7.038   8.029  2.5864  2.4070  0.7688
30135SOL     OW92411   5.948   2.781  10.142  0.2036 -0.4416  0.3235
30135SOL    HW192412   6.017   2.840  10.172  0.3272 -1.1229  1.4167
30135SOL    HW292413   5.978   2.694  10.168 -0.0289 -1.0006 -1.1677
30136SOL     OW92414   3.001   3.395  10.003 -0.1691  0.2915  0.0564
30136SOL    HW192415   3.023   3.318  10.055 -1.5629  0.6101  1.1691
30136SOL    HW292416   2.935   3.364   9.941  2.5035 -0.4413 -2.6377
30137SOL     OW92417   6.598   0.593   8.304  0.0745  0.0305 -0.4356
30137SOL    HW192418   6.540   0.645   8.249 -0.1807 -1.2333 -1.4069
30137SOL    HW292419   6.657   0.549   8.243  0.3595 -0.7111  0.3486
30138SOL     OW92420   6.191   9.903   1.665 -0.1297  0.2711 -0.5022
30138SOL    HW192421   6.235   9.820   1.685 -0.4566  0.0985 -0.4911
30138SOL    HW292422   6.140   9.884   1.586  0.1905  0.6037 -0.7927
30139SOL     OW92423  10.341   8.050   8.114  0.6096 -0.6552  0.2059
30139SOL    HW192424  10.313   8.118   8.053  0.7918 -0.7419  0.0245
30139SOL    HW292425  10.294   8.069   8.195  2.0665  0.7935  0.7473
30140SOL     OW92426   0.429   7.647   6.056 -0.2039 -0.4734  0.0130
30140SOL    HW192427   0.498   7.618   6.116 -0.6182 -1.7048 -0.0742
30140SOL    HW292428   0.368   7.573   6.052 -0.9897  0.1892 -0.7242
30141SOL     OW92429  10.050  10.109   2.285 -0.4263 -0.5302  0.1966
30141SOL    HW192430  10.048  10.118   2.380  2.9188 -0.1504  0.3213
30141SOL    HW292431  10.051  10.198   2.252  2.4037 -0.5448  0.0589
30142SOL     OW92432   9.949   3.470   3.111  0.4841 -0.3916 -0.0411
30142SOL    HW192433  10.010   3.411   3.155  0.8023  0.4496  0.6665
30142SOL    HW292434   9.985   3.481   3.023  1.5618  0.3716  0.4754
30143SOL     OW92435   2.852   8.466   1.990  0.9531  0.0616 -0.4373
30143SOL    HW192436   2.830   8.405   2.060  0.7169  1.1335  0.4523
30143SOL    HW292437   2.871   8.410   1.915 -0.6152 -1.0668 -0.0547
30144SOL     OW92438   8.040   5.199  10.198 -0.3954  1.2103 -0.1996
30144SOL    HW192439   8.013   5.209  10.107  0.0798 -2.7277 -0.9540
30144SOL    HW292440   7.986   5.127  10.231  3.5039 -1.6727  0.6283
30145SOL     OW92441   2.618  10.916  10.130 -0.4346  0.1850 -0.0517
30145SOL    HW192442   2.593  10.976  10.060 -1.3817 -0.7395 -0.5246
30145SOL    HW292443   2.696  10.957  10.169 -0.1404  0.9307 -1.3552
30146SOL     OW92444   6.772   5.460   4.822 -0.5727 -0.2320  0.2313
30146SOL    HW192445   6.791   5.523   4.752 -0.1981  1.6138  1.9106
30146SOL    HW292446   6.680   5.477   4.845 -0.1414  0.5301  1.4620
30147SOL     OW92447   9.591   1.669   7.809  0.0717 -0.1195  0.4788
30147SOL    HW192448   9.545   1.753   7.806  0.3360  0.0507  1.1052
30147SOL    HW292449   9.674   1.685   7.764 -0.3050 -0.3231 -0.3070
30148SOL     OW92450   9.376   8.027   9.672 -0.1149 -0.0906 -0.1278
30148SOL    HW192451   9.424   8.000   9.750  0.1073 -1.4315 -0.6993
30148SOL    HW292452   9.344   7.945   9.634  1.1636  0.3540 -2.3282
30149SOL     OW92453   2.800   2.212   1.444 -0.0277  0.6445  0.3565
30149SOL    HW192454   2.732   2.260   1.492 -1.0987 -0.7941  0.3311
30149SOL    HW292455   2.769   2.121   1.443  1.2977  0.1795 -0.7489
30150SOL     OW92456  10.165  10.556   5.878 -0.0915  0.4739  0.7208
30150SOL    HW192457  10.196  10.524   5.963  0.7567  0.4408  0.4077
30150SOL    HW292458  10.071  10.568   5.890 -0.2002 -0.7676  1.2840
30151SOL     OW92459   7.223   9.162   1.773  0.4187 -0.3434  0.0116
30151SOL    HW192460   7.296   9.151   1.834  0.5178 -1.0892 -0.2342
30151SOL    HW292461   7.242   9.102   1.701 -0.0821 -0.0283 -0.3933
30152SOL     OW92462   7.001   0.592   6.027 -0.0158 -0.2417  0.1474
30152SOL    HW192463   7.012   0.603   5.933  0.1769  2.3112  0.3789
30152SOL    HW292464   6.967   0.677   6.057  3.2242  0.3092  2.8312
30153SOL     OW92465   9.570   4.077   9.873 -0.5514 -0.3293 -0.2504
30153SOL    HW192466   9.653   4.121   9.858 -0.6007 -0.0270  0.3376
30153SOL    HW292467   9.595   3.990   9.907 -0.4726 -0.3342 -0.3206
30154SOL     OW92468   5.237   5.076   6.959  0.6037 -0.3750 -0.2751
30154SOL    HW192469   5.186   5.107   7.034 -0.9576 -0.4095 -1.2859
30154SOL    HW292470   5.245   4.981   6.973 -1.2466 -0.6742 -1.0209
30155SOL     OW92471   8.352   3.302  10.490 -0.1292  0.6334  0.1495
30155SOL    HW192472   8.259   3.283  10.479  0.0316 -0.6650  0.8169
30155SOL    HW292473   8.367   3.293  10.584  0.4487  1.9836  0.2114
30156SOL     OW92474   0.128  10.075   8.136  0.3408  0.2107  0.2343
30156SOL    HW192475   0.124   9.983   8.108 -0.7301  0.1866  0.4334
30156SOL    HW292476   0.104  10.124   8.058 -0.1109  0.2680  0.4083
30157SOL     OW92477   3.267   3.374   7.741 -0.0610  0.1543 -0.2776
30157SOL    HW192478   3.299   3.291   7.777 -1.3324 -0.4984 -0.6107
30157SOL    HW292479   3.346   3.428   7.734  0.8076 -1.0330 -0.1015
30158SOL     OW92480   5.823   9.539   6.350  0.0942  0.1193 -0.1218
30158SOL    HW192481   5.779   9.611   6.394 -1.2066  0.1373 -1.3589
30158SOL    HW292482   5.869   9.580   6.277  0.3133 -0.1588 -0.1405
30159SOL     OW92483   5.549   8.496   7.697  0.0552  0.1368  0.2536
30159SOL    HW192484   5.585   8.468   7.613  1.8518 -2.4592  1.7207
30159SOL    HW292485   5.454   8.483   7.689  0.1583  0.2502 -1.4224
30160SOL     OW92486   7.739   8.665   3.709  0.3180  0.3408 -0.0184
30160SOL    HW192487   7.761   8.645   3.800 -3.0166  0.9903  1.0740
30160SOL    HW292488   7.707   8.755   3.710  0.0673  0.3248 -1.8177
30161SOL     OW92489   2.474   5.094   2.492 -0.1739 -0.2894 -0.4717
30161SOL    HW192490   2.486   5.152   2.417  0.9603  1.0993  0.7225
30161SOL    HW292491   2.391   5.123   2.531 -0.7297 -0.9673 -1.1155
30162SOL     OW92492   8.797   1.113   9.053  0.0291  0.0676 -1.0092
30162SOL    HW192493   8.851   1.093   8.976 -0.3172 -1.7261 -0.8260
30162SOL    HW292494   8.824   1.049   9.118 -1.0932  0.2814 -0.3199
30163SOL     OW92495  11.021   0.117   7.003  0.3155  0.4609  0.4938
30163SOL    HW192496  10.926   0.106   7.001  0.3785 -0.1403  0.5932
30163SOL    HW292497  11.052   0.053   7.066  0.8572  0.1182 -0.1064
30164SOL     OW92498   5.940   4.634   7.097  0.1859 -0.0701 -0.6582
30164SOL    HW192499   5.863   4.652   7.043 -0.2709  1.5992  0.4736
30164SOL    HW292500   5.955   4.540   7.086 -3.1217 -0.8565  0.4679
30165SOL     OW92501   3.808  10.293   3.281 -0.4649  0.0347  0.3139
30165SOL    HW192502   3.719  10.277   3.250  0.4086  0.2770 -2.6402
30165SOL    HW292503   3.858  10.217   3.249  0.5545  0.3308  1.1507
30166SOL     OW92504  11.017   7.310   5.153  0.4813 -0.0881  0.3748
30166SOL    HW192505  11.053   7.399   5.158  1.0242 -0.2740 -0.1209
30166SOL    HW292506  11.089   7.253   5.182  1.0071 -0.5528 -1.7318
30167SOL     OW92507   8.036   6.546  10.137  0.1243 -0.5855 -0.0423
30167SOL    HW192508   7.995   6.470  10.096  0.7257 -0.2547 -1.3166
30167SOL    HW292509   8.130   6.529  10.132  0.1988 -0.8086  1.7968
30168SOL     OW92510   6.267  10.698  10.671 -0.2443  0.1808  0.1346
30168SOL    HW192511   6.264  10.722  10.579 -0.4355 -0.2333  0.0318
30168SOL    HW292512   6.348  10.737  10.703 -0.6209  1.1037  0.0132
30169SOL     OW92513   9.581   8.347  10.794 -0.1136  0.1827  1.1221
30169SOL    HW192514   9.610   8.265  10.753  1.0429  0.4223  1.4278
30169SOL    HW292515   9.551   8.401  10.721  0.1558 -0.1010  0.7993
30170SOL     OW92516   4.860   3.180   8.841 -0.0831  0.5120 -0.0917
30170SOL    HW192517   4.925   3.223   8.896 -2.2802  3.3432  0.5048
30170SOL    HW292518   4.911   3.135   8.774  2.6493 -1.6895  3.1210
30171SOL     OW92519   7.782   2.984   6.512 -0.0066  0.4541 -0.1993
30171SOL    HW192520   7.773   2.920   6.582 -0.3843  1.9431  1.1730
30171SOL    HW292521   7.839   2.941   6.448  0.7170 -0.8064  1.2087
30172SOL     OW92522  10.121   4.987   2.570  0.1107 -0.4357  0.0766
30172SOL    HW192523  10.066   5.065   2.578  1.3774  0.5330 -0.3114
30172SOL    HW292524  10.098   4.950   2.486 -1.2921 -1.1367  0.7382
30173SOL     OW92525   0.712   5.438   7.662  0.2356 -0.1149 -0.5646
30173SOL    HW192526   0.773   5.480   7.601  2.0479  1.1923  1.9890
30173SOL    HW292527   0.702   5.349   7.627  2.6494 -0.0032 -1.7950
30174SOL     OW92528   8.966   6.114   9.648 -0.2930  0.0976 -0.4091
30174SOL    HW192529   9.040   6.056   9.633 -0.4892 -0.7919  1.7370
30174SOL    HW292530   8.889   6.056   9.642 -0.5508  0.2885  0.8087
30175SOL     OW92531   8.094   4.856   3.383  0.1273  0.7397 -0.0583
30175SOL    HW192532   8.108   4.873   3.290  0.2625  1.1354  0.0339
30175SOL    HW292533   8.174   4.813   3.412  0.2342  0.9431 -0.0464
30176SOL     OW92534  10.501   4.904   2.770 -0.8893 -0.2906 -0.2822
30176SOL    HW192535  10.566   4.836   2.790  1.4614  1.6536 -0.8854
30176SOL    HW292536  10.466   4.929   2.856  0.6632  0.0034  0.3020
30177SOL     OW92537   4.874  10.320   7.441  0.6072 -0.3435  0.4190
30177SOL    HW192538   4.862  10.291   7.350 -0.5227  2.4406 -0.4309
30177SOL    HW292539   4.844  10.246   7.494 -1.0849 -1.1398 -1.5271
30178SOL     OW92540   4.653   5.618   1.335 -0.0217  0.4638  0.0649
30178SOL    HW192541   4.665   5.525   1.315 -1.1506  0.0203  1.2433
30178SOL    HW292542   4.712   5.634   1.410  1.4233  1.1570 -1.1695
30179SOL     OW92543   3.448   4.123  10.134  0.1307 -0.5636 -0.5380
30179SOL    HW192544   3.483   4.155  10.051  1.0446 -1.5361 -0.5509
30179SOL    HW292545   3.519   4.139  10.197 -1.4574  2.5897  0.6959
30180SOL     OW92546   8.766   3.534   8.690  0.2415  0.0835 -0.1873
30180SOL    HW192547   8.805   3.506   8.608  0.1277 -2.0162  0.3985
30180SOL    HW292548   8.742   3.452   8.734 -1.0184  1.1775  1.2991
30181SOL     OW92549   6.511   9.027   7.758  0.3302 -0.2153 -0.1104
30181SOL    HW192550   6.540   8.947   7.802 -1.5720 -0.8774  0.0632
30181SOL    HW292551   6.564   9.097   7.795 -0.9358 -0.7762  3.0428
30182SOL     OW92552   9.074   0.102   9.521  0.0330 -0.2271  0.2814
30182SOL    HW192553   9.128   0.041   9.572  1.6710  0.8125 -0.1367
30182SOL    HW292554   8.988   0.060   9.517  0.9031 -2.1517  0.6416
30183SOL     OW92555   7.962   3.506   6.105  0.0958  0.0761 -0.2177
30183SOL    HW192556   7.926   3.429   6.150  1.5593 -0.1839  0.5740
30183SOL    HW292557   7.914   3.580   6.142 -1.0824 -0.4033 -0.7300
30184SOL     OW92558   3.582   9.562   2.268  0.2448 -0.3087  0.2880
30184SOL    HW192559   3.565   9.472   2.297 -0.4803 -0.7315 -1.3619
30184SOL    HW292560   3.500   9.608   2.284  0.1760 -0.2821 -0.1489
30185SOL     OW92561   1.856   1.051  10.130 -0.1900  0.4340  0.4080
30185SOL    HW192562   1.905   0.999  10.068  2.0619 -0.7694  2.9980
30185SOL    HW292563   1.892   1.139  10.122 -1.0478  0.6876 -1.0148
30186SOL     OW92564   3.780   5.583   8.112  0.4813  0.3921  0.2731
30186SOL    HW192565   3.693   5.547   8.095  0.2476  1.4914 -1.0992
30186SOL    HW292566   3.768   5.678   8.106  2.0689  0.5535 -1.8110
30187SOL     OW92567  10.980   6.394   9.138 -0.3639  0.3359 -0.3453
30187SOL    HW192568  10.931   6.445   9.074 -1.7071  2.1158  1.9240
30187SOL    HW292569  11.046   6.454   9.171  0.0260 -0.3945  0.2273
30188SOL     OW92570   2.513   2.319   3.526  0.7625 -0.1622 -1.2468
30188SOL    HW192571   2.591   2.344   3.477  1.6264 -1.0680 -0.3837
30188SOL    HW292572   2.473   2.402   3.552  2.8160  0.3860  0.3895
30189SOL     OW92573   1.747   5.169   1.621 -1.0480  0.4447  0.1107
30189SOL    HW192574   1.822   5.115   1.596  0.6911  0.8493  3.7410
30189SOL    HW292575   1.778   5.259   1.609 -0.2858  0.6443  2.9014
30190SOL     OW92576   9.817   4.383   5.003  0.7513 -0.0217 -0.3896
30190SOL    HW192577   9.722   4.389   4.996  0.6727 -0.2427  0.4209
30190SOL    HW292578   9.846   4.372   4.912 -0.0080 -0.1567 -0.6295
30191SOL     OW92579   3.727   7.860   1.421 -0.5441  0.5722  0.3541
30191SOL    HW192580   3.632   7.851   1.414 -0.5333 -0.5146  1.3175
30191SOL    HW292581   3.740   7.935   1.478 -0.7827  1.4118 -0.6522
30192SOL     OW92582  10.532   2.998   7.570 -0.2800 -0.1104 -0.4622
30192SOL    HW192583  10.518   3.009   7.664  2.7315  0.0294  0.0778
30192SOL    HW292584  10.456   2.948   7.540 -0.1859 -2.3690  2.5416
30193SOL     OW92585   3.639   2.537   1.116  0.0364  0.2102 -0.3130
30193SOL    HW192586   3.658   2.514   1.207 -0.9470  0.1561 -0.1055
30193SOL    HW292587   3.626   2.453   1.072  1.4215  0.1944 -0.7335
30194SOL     OW92588   7.464   0.763   3.154  0.4492  0.0916  0.0719
30194SOL    HW192589   7.527   0.736   3.087  1.5524  4.3691 -0.9214
30194SOL    HW292590   7.493   0.719   3.234  0.8966 -2.8071 -1.5805
30195SOL     OW92591   3.866   0.109   3.631  0.1591  0.4314  0.1999
30195SOL    HW192592   3.910   0.095   3.548 -1.6063  0.8709 -0.8686
30195SOL    HW292593   3.778   0.138   3.607 -0.6913 -0.2818  2.2035
30196SOL     OW92594  10.548   6.043   0.528  0.1000  0.0549 -0.1098
30196SOL    HW192595  10.568   5.986   0.602 -0.2391  0.6404  0.4388
30196SOL    HW292596  10.519   5.983   0.459  0.9200 -0.5408  0.0471
30197SOL     OW92597   3.184   7.427   7.404 -0.3146  0.1629 -0.4348
30197SOL    HW192598   3.167   7.333   7.413 -0.5950  0.1026 -1.4085
30197SOL    HW292599   3.278   7.436   7.416 -0.5878  0.1563  2.4733
30198SOL     OW92600   7.410   1.178   7.949  0.2127  0.3795 -0.1589
30198SOL    HW192601   7.446   1.233   8.019 -2.9833 -1.0810  2.9434
30198SOL    HW292602   7.368   1.239   7.889 -0.1381  1.5524  1.2337
30199SOL     OW92603   6.640   6.188   0.639 -0.3490 -0.3538  0.3772
30199SOL    HW192604   6.668   6.207   0.550 -0.2925 -2.2169 -0.0471
30199SOL    HW292605   6.683   6.254   0.693  0.2362  0.3276 -0.8952
30200SOL     OW92606   4.290   1.843   1.247  0.0561 -0.0307  0.5942
30200SOL    HW192607   4.256   1.889   1.324 -0.9014  0.3540 -0.0263
30200SOL    HW292608   4.346   1.908   1.203 -1.0246  0.4782 -0.0989
30201SOL     OW92609  10.968   9.600   4.995 -0.1581  0.1942  0.5881
30201SOL    HW192610  11.033   9.574   4.929 -0.0814  0.1439  0.6841
30201SOL    HW292611  10.914   9.522   5.007  0.4916 -0.1404  1.3773
30202SOL     OW92612   5.248   4.913  10.577  0.0893 -0.5961  0.8947
30202SOL    HW192613   5.254   4.966  10.656  1.4825 -1.2357  1.2407
30202SOL    HW292614   5.297   4.833  10.597  3.1172  0.4376 -1.5282
30203SOL     OW92615   6.624   2.362   6.881 -0.5386 -0.4660 -0.1487
30203SOL    HW192616   6.590   2.442   6.842 -1.4859 -1.0934 -0.6547
30203SOL    HW292617   6.546   2.312   6.905  0.0310 -1.3301 -0.0369
30204SOL     OW92618   5.041   0.247   4.383  0.0374 -0.0771  0.0389
30204SOL    HW192619   5.089   0.255   4.301 -2.4206 -1.4510 -1.6807
30204SOL    HW292620   4.981   0.322   4.383 -0.3364 -0.3708  0.2956
30205SOL     OW92621   8.463   1.969   7.918 -0.3126  0.1159 -0.0896
30205SOL    HW192622   8.466   1.886   7.870  1.9721  0.2558 -0.2889
30205SOL    HW292623   8.476   1.944   8.010 -0.5129  0.1978 -0.0368
30206SOL     OW92624   6.504   6.517   3.753 -0.5351  0.1240 -0.1416
30206SOL    HW192625   6.561   6.576   3.802  0.0771  0.2617 -0.9911
30206SOL    HW292626   6.420   6.520   3.799 -0.6776  2.0525 -0.4540
30207SOL     OW92627   6.362   5.844   7.963 -0.2764  0.0612  0.2824
30207SOL    HW192628   6.311   5.924   7.972  0.3861  1.0390 -3.2544
30207SOL    HW292629   6.452   5.873   7.951  0.1081 -1.2707 -0.2792
30208SOL     OW92630   1.713   4.575   7.361  0.2597 -0.2068 -0.5220
30208SOL    HW192631   1.678   4.660   7.335  1.5829 -0.3172 -2.8956
30208SOL    HW292632   1.660   4.511   7.313  0.8505 -0.5915 -0.6720
30209SOL     OW92633   6.358  10.734   6.854  0.6388  0.2530  0.2215
30209SOL    HW192634   6.344  10.782   6.936  0.5040  1.0233 -0.2431
30209SOL    HW292635   6.278  10.749   6.804 -0.4849 -2.5103  1.0321
30210SOL     OW92636  10.864   9.171  10.484  0.6143 -0.0373 -1.0369
30210SOL    HW192637  10.943   9.142  10.530 -0.2778 -0.5781  0.1952
30210SOL    HW292638  10.896   9.199  10.398  2.1919  0.1000 -0.4432
30211SOL     OW92639   5.569   7.239   8.725  0.1855 -0.1419  0.5663
30211SOL    HW192640   5.490   7.221   8.673  0.0856  0.6944  0.4149
30211SOL    HW292641   5.541   7.227   8.816  0.6335 -2.6911  0.4495
30212SOL     OW92642   9.778   6.388   6.089  0.1552  0.2399 -0.1132
30212SOL    HW192643   9.706   6.439   6.052  1.3868  1.3008 -1.1787
30212SOL    HW292644   9.772   6.302   6.046 -0.9428  0.0254  0.4406
30213SOL     OW92645   2.555   2.467   9.937 -0.4784  0.3224 -0.3666
30213SOL    HW192646   2.599   2.489   9.855 -0.2827 -0.4398 -0.4743
30213SOL    HW292647   2.622   2.480  10.004  0.6031 -2.6763 -0.7051
30214SOL     OW92648   1.849   9.496   2.145  0.3932  0.0765  0.3446
30214SOL    HW192649   1.826   9.456   2.229  1.2527 -0.2279  0.4526
30214SOL    HW292650   1.773   9.481   2.089  0.3990 -1.0556  0.6088
30215SOL     OW92651   3.439   8.866   4.111  0.7710  0.0711 -0.1740
30215SOL    HW192652   3.527   8.858   4.074  0.7892  0.2115 -0.1597
30215SOL    HW292653   3.406   8.950   4.079  1.8702  1.6259  2.4108
30216SOL     OW92654   4.990   8.145   8.573  0.1333 -0.4850  0.1298
30216SOL    HW192655   4.989   8.081   8.502  1.1222  0.3579 -0.6565
30216SOL    HW292656   5.082   8.153   8.598 -0.2673 -1.3466  2.0620
30217SOL     OW92657   9.465   7.413   0.865  0.2117  0.0634 -0.2383
30217SOL    HW192658   9.556   7.387   0.879  0.1863  0.3802  0.5794
30217SOL    HW292659   9.418   7.330   0.858  0.1172 -0.1799  2.4614
30218SOL     OW92660   0.279   1.705  10.232  0.2102  0.3097 -0.3927
30218SOL    HW192661   0.285   1.778  10.172 -1.0231 -0.3177 -1.3154
30218SOL    HW292662   0.302   1.628  10.180  1.2095 -0.0218  0.4880
30219SOL     OW92663   3.267   9.895  10.633 -0.2633 -0.4948 -0.7107
30219SOL    HW192664   3.183   9.897  10.586 -0.0925  0.4549 -0.9817
30219SOL    HW292665   3.245   9.927  10.721  0.0562  1.1075 -1.1906
30220SOL     OW92666   8.632   9.833   0.456 -0.5282  0.1405 -0.2467
30220SOL    HW192667   8.559   9.862   0.401 -0.5171 -0.0980 -0.3888
30220SOL    HW292668   8.702   9.896   0.440 -1.1530  1.1674  0.9104
30221SOL     OW92669   7.861   2.786   7.878 -0.0663 -0.1596  0.0385
30221SOL    HW192670   7.829   2.849   7.814 -0.4166  0.8826  1.1939
30221SOL    HW292671   7.953   2.774   7.856 -0.1800  0.1770 -0.6526
30222SOL     OW92672   5.990   5.116   0.436 -0.4640 -0.7932  0.2715
30222SOL    HW192673   5.933   5.190   0.414  0.2893  0.2203  1.5695
30222SOL    HW292674   5.931   5.050   0.472 -1.2372 -1.1252 -1.4969
30223SOL     OW92675   5.556   1.241   6.267 -0.0002  0.4722  0.1985
30223SOL    HW192676   5.611   1.295   6.210  1.1236 -1.6676 -0.8800
30223SOL    HW292677   5.509   1.183   6.208 -1.7515  0.7145  1.2704
30224SOL     OW92678   4.041   8.826   0.610  0.2564  0.3769  0.0091
30224SOL    HW192679   4.093   8.768   0.666  2.2651  2.0383 -0.0308
30224SOL    HW292680   4.104   8.862   0.548 -1.2951  1.1939 -1.1606
30225SOL     OW92681   3.941  10.749   5.439  0.9432 -0.1725  0.0676
30225SOL    HW192682   3.948  10.827   5.384 -1.7770 -0.5615 -0.9976
30225SOL    HW292683   3.876  10.773   5.505  0.2506 -1.4226 -0.1335
30226SOL     OW92684   5.392   3.303   9.329 -0.5526  0.2180  0.0685
30226SOL    HW192685   5.369   3.238   9.396  0.1568 -0.3047 -0.1846
30226SOL    HW292686   5.368   3.387   9.368  0.1779 -0.0484  1.1364
30227SOL     OW92687   6.124   0.257   3.190  0.2182 -0.0433  1.3594
30227SOL    HW192688   6.126   0.201   3.268  1.1840  0.1760  1.5025
30227SOL    HW292689   6.114   0.346   3.225 -1.1737 -0.0850  1.1388
30228SOL     OW92690   3.110   2.809   1.471  0.2032  0.0998 -0.1745
30228SOL    HW192691   3.129   2.823   1.378  0.9002 -0.7949 -0.1783
30228SOL    HW292692   3.183   2.757   1.503 -0.0816  0.3127  0.8621
30229SOL     OW92693   2.662   0.747   6.240  0.0764  0.2846  0.0434
30229SOL    HW192694   2.752   0.729   6.266  0.2068  1.1695  0.2254
30229SOL    HW292695   2.613   0.750   6.322 -0.4190 -1.6748 -0.1354
30230SOL     OW92696  10.836   1.261   5.313 -0.1693  0.2464  0.2379
30230SOL    HW192697  10.782   1.320   5.259 -0.4972  1.2067  1.5770
30230SOL    HW292698  10.904   1.318   5.350  0.5430 -0.5664  0.2043
30231SOL     OW92699   0.884   5.153   3.069 -0.7506 -0.4242 -0.6351
30231SOL    HW192700   0.966   5.107   3.051 -1.0226 -0.9536 -0.5594
30231SOL    HW292701   0.889   5.233   3.017  0.5023  0.3345  0.5818
30232SOL     OW92702   0.574   6.630   3.069  0.5533  0.1868  0.2288
30232SOL    HW192703   0.488   6.594   3.090  1.2673 -0.9119  1.4449
30232SOL    HW292704   0.626   6.553   3.045  1.6700  0.5745  1.2761
30233SOL     OW92705   5.123   7.574   4.248 -0.2255  0.0464  0.1127
30233SOL    HW192706   5.216   7.569   4.270 -0.0693 -0.0425 -0.5460
30233SOL    HW292707   5.084   7.496   4.288 -0.0051  0.0448  0.3236
30234SOL     OW92708   2.576   6.054   2.644  0.0822 -0.2061  0.1082
30234SOL    HW192709   2.596   6.148   2.639 -3.3263  0.6920  0.4091
30234SOL    HW292710   2.516   6.039   2.570  0.9351 -2.2972 -0.2179
30235SOL     OW92711   3.460   5.522  10.776 -0.0933  0.0858  0.3133
30235SOL    HW192712   3.423   5.593  10.827  0.7536  0.4154  0.4826
30235SOL    HW292713   3.555   5.529  10.790  0.0072 -1.0382  0.2962
30236SOL     OW92714   4.050   8.561   3.773  0.1695 -0.5298  0.6385
30236SOL    HW192715   4.132   8.588   3.731 -1.3425  2.4053 -0.7618
30236SOL    HW292716   4.039   8.623   3.846 -1.0921 -0.4336  0.3926
30237SOL     OW92717   9.061   7.213   6.446  0.3867  0.7267 -0.3150
30237SOL    HW192718   9.106   7.130   6.462  1.3568  1.3246  0.1447
30237SOL    HW292719   9.024   7.204   6.358  1.5722  0.2978 -0.7818
30238SOL     OW92720   1.803   9.954   1.545  0.0533 -0.1297 -0.2823
30238SOL    HW192721   1.778  10.046   1.536 -1.4952 -0.4263  0.5040
30238SOL    HW292722   1.898   9.953   1.533  0.3993  1.8579  1.6140
30239SOL     OW92723   8.656   9.299   1.719  0.1783  0.2216  0.3469
30239SOL    HW192724   8.614   9.279   1.635 -2.1775 -2.3574  1.9433
30239SOL    HW292725   8.700   9.218   1.744  0.9935  1.0017  1.5290
30240SOL     OW92726   3.118   5.536   5.039 -0.0147 -0.2651 -0.2181
30240SOL    HW192727   3.115   5.554   5.133 -0.0094  1.0219 -0.4445
30240SOL    HW292728   3.212   5.530   5.020 -0.0269 -2.7863  0.2260
30241SOL     OW92729   2.806   4.790  10.088 -0.2242 -0.3944 -0.4530
30241SOL    HW192730   2.840   4.723  10.029  0.3586 -1.2497  0.8053
30241SOL    HW292731   2.766   4.740  10.159  0.4889  0.5781  0.6583
30242SOL     OW92732  10.892   3.832   5.687  0.2539 -0.1554 -0.0506
30242SOL    HW192733  10.816   3.886   5.665  0.6357  0.4910  0.1945
30242SOL    HW292734  10.854   3.751   5.721 -0.3538  0.6851  1.3591
30243SOL     OW92735   5.331   6.298  10.801  0.2990 -0.0500  0.6156
30243SOL    HW192736   5.267   6.358  10.840 -0.0610 -0.4344  0.6267
30243SOL    HW292737   5.416   6.335  10.825  0.1057  1.2661 -0.6345
30244SOL     OW92738   4.023   8.162   8.609 -0.3668 -0.0295 -0.0032
30244SOL    HW192739   3.966   8.237   8.625 -0.0010  0.3745 -0.5460
30244SOL    HW292740   4.029   8.118   8.693 -1.1175  0.1768  0.1682
30245SOL     OW92741  10.170   1.513   9.256  0.2887  0.3270  0.4964
30245SOL    HW192742  10.120   1.432   9.244 -0.3963  0.9181 -0.8872
30245SOL    HW292743  10.114   1.567   9.312 -0.3567  0.7344 -0.5148
30246SOL     OW92744   1.440   3.547   7.896  0.0697 -0.0902 -0.1294
30246SOL    HW192745   1.502   3.549   7.823  0.7405  0.7505  0.4569
30246SOL    HW292746   1.475   3.608   7.960 -0.8465 -0.3462  0.6429
30247SOL     OW92747  10.048   5.356   6.738 -0.3933 -0.2445  0.3914
30247SOL    HW192748   9.958   5.381   6.761 -0.6865 -1.2788  0.3950
30247SOL    HW292749  10.101   5.429   6.769 -1.1114 -0.1626  1.4903
30248SOL     OW92750   0.622   6.807   2.218 -1.0937  0.7237 -0.4303
30248SOL    HW192751   0.643   6.763   2.136 -1.9331  0.3714 -0.4610
30248SOL    HW292752   0.693   6.781   2.277 -1.0831  0.0737 -0.7145
30249SOL     OW92753   2.991   5.107   7.821  0.4185  0.7218  0.0664
30249SOL    HW192754   3.060   5.050   7.790  0.9482  0.3794  1.7661
30249SOL    HW292755   3.009   5.119   7.914 -0.8993  1.9297  0.2143
30250SOL     OW92756   6.119   5.820   7.487  0.0415 -0.6899  0.7711
30250SOL    HW192757   6.195   5.818   7.545 -0.3799  0.4448  1.3943
30250SOL    HW292758   6.100   5.728   7.469 -0.0557 -1.0955  2.7517
30251SOL     OW92759   3.038   8.511   1.272  0.0500 -0.4590  0.2893
30251SOL    HW192760   2.955   8.525   1.225  0.1048 -0.3809  0.2153
30251SOL    HW292761   3.018   8.443   1.336 -0.1725 -0.1589  0.5357
30252SOL     OW92762   0.669   3.034   9.590  0.7562 -0.1220  0.1380
30252SOL    HW192763   0.615   2.972   9.637  1.0423  0.8059  1.7551
30252SOL    HW292764   0.621   3.052   9.509 -0.2579 -0.9549  0.5451
30253SOL     OW92765   2.645   0.971   2.327 -0.3357  0.0363 -0.3492
30253SOL    HW192766   2.613   0.932   2.408  1.2274  1.7259  1.1907
30253SOL    HW292767   2.613   0.913   2.258 -2.5085 -0.9743  1.3702
30254SOL     OW92768  10.929   1.575   0.689  0.2511  0.5630 -0.5295
30254SOL    HW192769  10.942   1.481   0.684 -4.0376 -0.1711 -3.5378
30254SOL    HW292770  10.981   1.611   0.617  0.9478  0.3942 -0.1217
30255SOL     OW92771   1.450  10.768   5.566  0.3461 -0.6057  0.0311
30255SOL    HW192772   1.449  10.862   5.585 -0.0924 -0.8964  1.5967
30255SOL    HW292773   1.543  10.747   5.554  0.4751 -0.0305 -0.0086
30256SOL     OW92774   0.931   8.613  10.774 -0.0716 -0.2958 -0.1294
30256SOL    HW192775   0.837   8.595  10.775 -0.4471  1.4779 -0.0754
30256SOL    HW292776   0.965   8.555  10.706 -1.5042  0.3182 -1.4507
30257SOL     OW92777  10.389   5.856   0.818  0.6553  0.2198 -0.6359
30257SOL    HW192778  10.382   5.848   0.913 -5.3818  1.3642 -0.5937
30257SOL    HW292779  10.351   5.775   0.784  1.1818  0.5442 -2.0827
30258SOL     OW92780   1.275   8.937   1.524 -0.2006  0.1850  0.0047
30258SOL    HW192781   1.311   8.849   1.524 -0.4664  0.0630 -0.9095
30258SOL    HW292782   1.218   8.940   1.447 -0.4764  1.0394  0.2242
30259SOL     OW92783   2.420   1.191   5.851  0.0667 -0.8374 -0.1808
30259SOL    HW192784   2.506   1.202   5.810 -0.1122  1.3826 -0.1006
30259SOL    HW292785   2.396   1.100   5.834  2.6794 -1.7055  0.3034
30260SOL     OW92786   3.653   9.242   5.211 -0.3274 -0.5287  0.4994
30260SOL    HW192787   3.593   9.227   5.284 -1.9695 -2.9248 -1.1649
30260SOL    HW292788   3.654   9.337   5.200 -1.9150 -0.2650  2.1357
30261SOL     OW92789   3.467   3.009   8.462  0.2510 -0.0726  0.2830
30261SOL    HW192790   3.391   3.067   8.450 -0.8076 -1.4612 -0.0493
30261SOL    HW292791   3.530   3.039   8.396 -0.9080 -0.2850 -0.9759
30262SOL     OW92792   6.943   4.391   9.513  0.1304  0.2184  0.1433
30262SOL    HW192793   7.017   4.366   9.458  0.8148 -0.1622  1.1988
30262SOL    HW292794   6.866   4.382   9.456  0.7283 -0.9575 -0.5186
30263SOL     OW92795   1.509   3.580   9.454  0.6226 -0.5861 -0.0985
30263SOL    HW192796   1.500   3.509   9.391  1.2426 -1.3440  0.6352
30263SOL    HW292797   1.504   3.537   9.539 -1.0444  0.5025  0.4201
30264SOL     OW92798   2.560   4.137   6.205  0.5293 -0.2971 -0.2083
30264SOL    HW192799   2.600   4.069   6.151  2.0770  0.1742  0.2830
30264SOL    HW292800   2.498   4.181   6.147  0.7443 -1.0434 -1.0237
30265SOL     OW92801   8.180   4.098   4.627  0.2125 -0.4336  0.1304
30265SOL    HW192802   8.172   4.116   4.721 -0.6086  0.1263 -0.0256
30265SOL    HW292803   8.103   4.044   4.607 -0.8450  1.2487 -0.6016
30266SOL     OW92804  10.620   0.281   9.200 -0.5152  0.4655 -0.2459
30266SOL    HW192805  10.674   0.203   9.183  0.3541  0.9231  0.3796
30266SOL    HW292806  10.575   0.262   9.282 -0.8145  0.3573 -0.4318
30267SOL     OW92807   5.261   8.348   4.601 -0.3157 -0.2342  0.1116
30267SOL    HW192808   5.259   8.313   4.691  0.5209 -3.2790 -0.9269
30267SOL    HW292809   5.170   8.370   4.582 -0.6038 -0.1239  1.4904
30268SOL     OW92810   0.058   9.275   4.848  0.6731  0.3614 -0.0632
30268SOL    HW192811   0.066   9.228   4.765  1.6429  0.4791 -0.0515
30268SOL    HW292812   0.145   9.313   4.863  0.3144  0.9433  0.6505
30269SOL     OW92813   5.347   0.186   6.974 -0.1135  0.1466  0.0412
30269SOL    HW192814   5.393   0.252   7.026 -0.0523 -0.3290  0.6076
30269SOL    HW292815   5.415   0.124   6.949 -0.5210 -0.9083  1.4326
30270SOL     OW92816   6.277   3.504   7.675 -0.4466  0.5324  0.2155
30270SOL    HW192817   6.346   3.487   7.611 -0.8340  1.9672 -0.6260
30270SOL    HW292818   6.292   3.439   7.744  1.3804  0.4477 -0.2084
30271SOL     OW92819   4.609   3.945   9.112  0.2000 -0.4766  0.3074
30271SOL    HW192820   4.661   3.867   9.096  0.2444 -0.2897 -0.5188
30271SOL    HW292821   4.519   3.912   9.123  0.0819 -0.5913 -0.8630
30272SOL     OW92822   9.149   7.076   6.916 -0.7539  0.1143 -0.0684
30272SOL    HW192823   9.106   6.993   6.899 -0.2746 -0.3477  0.8814
30272SOL    HW292824   9.241   7.054   6.930 -0.3113  1.0026 -1.3713
30273SOL     OW92825   6.263   2.217   2.741  0.6223  0.0307 -0.1490
30273SOL    HW192826   6.312   2.149   2.786 -0.6524  0.3956  1.9303
30273SOL    HW292827   6.176   2.179   2.726  0.2682  0.7657 -0.0389
30274SOL     OW92828   3.590   5.135   2.888 -0.7169  0.4871  0.1577
30274SOL    HW192829   3.506   5.117   2.846 -0.3735  0.4402 -0.5163
30274SOL    HW292830   3.650   5.152   2.816 -0.4098  1.6873  0.6793
30275SOL     OW92831   6.202   2.169   5.343 -0.2922  0.2024  0.4560
30275SOL    HW192832   6.139   2.242   5.345 -2.8804 -1.8546 -0.7057
30275SOL    HW292833   6.233   2.167   5.253 -0.2438 -0.1619  0.4827
30276SOL     OW92834   8.796   7.886   4.127  0.3476  0.2303  0.0802
30276SOL    HW192835   8.734   7.838   4.073  0.5443  0.4820 -0.3796
30276SOL    HW292836   8.782   7.853   4.216 -0.6194  0.4664  0.0308
30277SOL     OW92837   4.412   8.817   1.091  0.2696  0.3698 -0.3790
30277SOL    HW192838   4.347   8.759   1.129 -0.0662  0.1472 -1.2617
30277SOL    HW292839   4.488   8.761   1.074 -0.5198 -0.1574 -2.4560
30278SOL     OW92840  10.473   7.502   0.956 -0.4685  0.2496 -0.3012
30278SOL    HW192841  10.439   7.416   0.979 -2.3256  0.6963 -1.2131
30278SOL    HW292842  10.415   7.564   0.999  1.6966  1.1360  1.5586
30279SOL     OW92843   7.307   6.698   7.980  0.1939 -0.4221  0.5644
30279SOL    HW192844   7.302   6.621   8.036 -0.0951 -0.2045  0.8433
30279SOL    HW292845   7.229   6.692   7.924  0.9252 -1.0833 -0.4003
30280SOL     OW92846   4.428   1.306   5.450  0.1108 -0.4703 -0.0369
30280SOL    HW192847   4.500   1.307   5.387 -0.0022  0.8456 -0.1785
30280SOL    HW292848   4.427   1.395   5.486  0.4220 -1.2970  2.1389
30281SOL     OW92849   7.091   9.165   5.135  0.5811 -0.0180 -0.1169
30281SOL    HW192850   7.086   9.231   5.066 -0.6170  1.7303  1.5389
30281SOL    HW292851   7.154   9.201   5.197  0.5675 -0.8536  0.3876
30282SOL     OW92852   1.392   1.717   7.066 -0.4181 -0.3035 -0.1816
30282SOL    HW192853   1.389   1.793   7.008  1.7266  1.0121  1.2567
30282SOL    HW292854   1.337   1.742   7.141 -0.1939 -0.4051  0.0192
30283SOL     OW92855   4.093   5.811   5.852 -0.0261  0.5523  0.0565
30283SOL    HW192856   4.162   5.747   5.835  1.2155  1.7292  0.4382
30283SOL    HW292857   4.123   5.858   5.930 -1.6240  0.6263  0.6582
30284SOL     OW92858   3.691   3.209  10.918  0.2609 -0.0115 -0.3148
30284SOL    HW192859   3.641   3.278  10.963  1.1526 -0.1725  0.9682
30284SOL    HW292860   3.631   3.175  10.852  0.0511  2.5415 -1.5703
30285SOL     OW92861   7.167   0.053   5.492  0.3214  0.0403  0.2542
30285SOL    HW192862   7.237   0.030   5.553  0.5575 -1.0420 -0.3832
30285SOL    HW292863   7.125   0.130   5.530  2.7083  1.5914  0.0171
30286SOL     OW92864   0.321   1.704   9.033  1.3043  0.1726  0.2177
30286SOL    HW192865   0.337   1.695   9.127 -0.8767 -0.6830  0.5738
30286SOL    HW292866   0.261   1.779   9.026  0.2725 -0.6717 -0.3012
30287SOL     OW92867  10.254   7.013   2.115  0.7437  0.2715  0.1363
30287SOL    HW192868  10.189   7.017   2.184 -1.8073 -1.9569 -1.9161
30287SOL    HW292869  10.244   7.096   2.067 -2.0459 -0.7305 -1.2198
30288SOL     OW92870   5.313   1.916   0.417  0.3267  0.3939  0.7812
30288SOL    HW192871   5.243   1.868   0.462  0.9550 -0.1144  1.2365
30288SOL    HW292872   5.328   1.992   0.473  0.5612  0.1746  1.0237
30289SOL     OW92873   6.989   3.015   3.946  0.6642 -0.2042 -0.5263
30289SOL    HW192874   6.990   2.935   3.999  0.0215 -1.3959 -2.2105
30289SOL    HW292875   6.906   3.058   3.967  0.2855 -0.8147 -0.7305
30290SOL     OW92876   6.523   8.047   5.549  0.7716  0.3009 -0.0981
30290SOL    HW192877   6.613   8.042   5.516  0.0913 -0.7820 -1.9965
30290SOL    HW292878   6.524   7.997   5.631  1.5659 -1.3545 -1.0560
30291SOL     OW92879   4.938  10.573   1.371 -0.0068 -0.5021  0.2829
30291SOL    HW192880   4.932  10.575   1.275  0.3759 -0.0887  0.2648
30291SOL    HW292881   4.890  10.650   1.400  0.0061 -0.5442  0.4176
30292SOL     OW92882   6.133   7.314   4.117  0.3683  0.0920 -0.6850
30292SOL    HW192883   6.143   7.303   4.211 -1.8633 -1.1717 -0.5140
30292SOL    HW292884   6.075   7.390   4.107  1.9673  1.3082 -1.1661
30293SOL     OW92885   3.525   1.163   6.836 -0.6014 -0.0873  0.4168
30293SOL    HW192886   3.445   1.111   6.838  0.7103 -2.2373  2.2804
30293SOL    HW292887   3.569   1.142   6.919  2.3258  0.2544 -0.9387
30294SOL     OW92888   3.864   2.136   6.436 -0.0418 -0.3409  0.1674
30294SOL    HW192889   3.954   2.166   6.439 -0.6551  1.6053  0.0233
30294SOL    HW292890   3.863   2.058   6.492  1.6019 -0.0811  0.5965
30295SOL     OW92891   7.363   2.893   2.131  0.4390  0.0824  0.1566
30295SOL    HW192892   7.271   2.888   2.103  0.5930  3.0602 -1.2689
30295SOL    HW292893   7.365   2.963   2.196  1.4625 -1.2871  1.7010
30296SOL     OW92894   3.862   3.269   9.949 -0.0069 -0.3977  0.6500
30296SOL    HW192895   3.872   3.299  10.040 -3.3056  0.6551  0.8158
30296SOL    HW292896   3.767   3.257   9.938  0.2150 -0.0583 -2.7790
30297SOL     OW92897   8.698   4.381   6.443 -0.3637 -0.0134  0.2887
30297SOL    HW192898   8.664   4.306   6.394 -0.4696  0.5352 -0.4944
30297SOL    HW292899   8.741   4.343   6.519  0.3031 -0.9106 -0.5266
30298SOL     OW92900   8.454  10.829   8.710  0.1954  0.2500 -0.1863
30298SOL    HW192901   8.400  10.907   8.721  0.7408  0.8454 -1.4962
30298SOL    HW292902   8.426  10.792   8.626 -2.2428 -2.7936  1.7409
30299SOL     OW92903   0.357   8.160   7.070  0.1337 -0.2753  0.1567
30299SOL    HW192904   0.418   8.166   7.143 -0.2124 -1.7052  0.5984
30299SOL    HW292905   0.307   8.241   7.073  0.4362 -0.1192  1.2382
30300SOL     OW92906   3.684   7.300   0.380 -0.1238 -0.8718 -0.1348
30300SOL    HW192907   3.759   7.316   0.437  0.4606 -0.7870 -0.9168
30300SOL    HW292908   3.622   7.253   0.435  1.1343 -2.3567  0.0881
30301SOL     OW92909  10.254   6.742   4.518  0.6815 -0.0763 -0.6618
30301SOL    HW192910  10.218   6.750   4.606  0.7243 -2.0981 -0.4148
30301SOL    HW292911  10.260   6.648   4.502 -1.7434  0.1288 -3.8112
30302SOL     OW92912   0.389   6.793   4.097  0.7479  0.2006 -0.5041
30302SOL    HW192913   0.439   6.829   4.023  0.5539 -0.9916 -1.2590
30302SOL    HW292914   0.413   6.700   4.098 -0.2335 -0.0606  0.1324
30303SOL     OW92915   2.272   8.272   9.937  0.7575 -0.3897  0.1329
30303SOL    HW192916   2.260   8.290   9.844 -1.1280 -0.6867  0.2853
30303SOL    HW292917   2.274   8.177   9.944  2.1427 -0.3684  0.2813
30304SOL     OW92918  10.614  10.858   2.724  0.4423  0.1725 -0.1508
30304SOL    HW192919  10.571  10.841   2.808  1.3812  0.0616  0.3189
30304SOL    HW292920  10.677  10.928   2.743 -0.1263  0.9437 -1.0251
30305SOL     OW92921   3.309   0.780   1.700 -0.1354  0.3742  0.2164
30305SOL    HW192922   3.378   0.843   1.677 -0.5924  1.1372  0.8773
30305SOL    HW292923   3.354   0.712   1.750  0.3345  0.2637 -0.3479
30306SOL     OW92924   0.966  10.074   5.732  0.2063 -0.4096 -0.0809
30306SOL    HW192925   0.953  10.150   5.789 -1.1490  0.4236 -1.3996
30306SOL    HW292926   0.904  10.009   5.765 -0.9811  0.2716 -0.8702
30307SOL     OW92927   6.017   0.456  10.276 -0.7801 -0.4335 -0.2810
30307SOL    HW192928   5.965   0.465  10.356  0.6495 -1.5119  0.8521
30307SOL    HW292929   6.080   0.387  10.297  1.6292  1.3312 -1.2507
30308SOL     OW92930   0.563   1.411   0.323 -0.1485  0.7028 -0.4252
30308SOL    HW192931   0.615   1.339   0.286  0.1624  1.3501 -1.2737
30308SOL    HW292932   0.480   1.407   0.275 -1.5751 -1.2892  1.9622
30309SOL     OW92933   6.549   5.250   4.634  0.3581  0.0357  0.0197
30309SOL    HW192934   6.559   5.344   4.649 -0.4405 -0.0601  1.2582
30309SOL    HW292935   6.474   5.225   4.687  0.7151 -1.3578 -0.0907
30310SOL     OW92936   5.010   7.373   8.287 -0.0180  0.8634 -0.6058
30310SOL    HW192937   5.071   7.372   8.361  0.4303 -3.3764 -0.7766
30310SOL    HW292938   4.929   7.407   8.324  1.2556  2.6689  0.7071
30311SOL     OW92939   5.290   0.735   2.366 -0.5138 -0.0498 -0.6921
30311SOL    HW192940   5.330   0.822   2.362 -1.3403  0.2864 -2.2570
30311SOL    HW292941   5.199   0.748   2.341 -0.9939 -1.1876  0.3304
30312SOL     OW92942   5.801   0.215   1.710  0.4064 -0.5628  0.1228
30312SOL    HW192943   5.716   0.239   1.673  0.0426 -1.1515  0.5674
30312SOL    HW292944   5.805   0.120   1.702  0.8640 -0.5724  0.4549
30313SOL     OW92945   6.751   3.717   3.931 -0.1727  0.0391 -0.1968
30313SOL    HW192946   6.812   3.738   3.860 -0.2212 -0.5762 -0.4234
30313SOL    HW292947   6.792   3.756   4.009 -0.1124  0.7001 -0.5509
30314SOL     OW92948   4.562   4.440   3.167  0.3478  0.4705 -0.1131
30314SOL    HW192949   4.483   4.481   3.130  0.2914 -0.0196 -0.5534
30314SOL    HW292950   4.611   4.513   3.206  0.7058  1.1195 -1.6930
30315SOL     OW92951   9.070   9.922   2.107 -0.4641  0.0376 -0.1378
30315SOL    HW192952   8.985   9.963   2.121 -0.9518 -0.3820 -1.6748
30315SOL    HW292953   9.083   9.867   2.184 -0.4725  1.8889  1.2412
30316SOL     OW92954   6.030   3.257   0.487  0.2482  0.2319 -0.3919
30316SOL    HW192955   6.091   3.183   0.499  0.0038  0.1170  0.1957
30316SOL    HW292956   5.961   3.241   0.551 -0.2705  0.5006 -0.8819
30317SOL     OW92957   7.274   7.175   3.692 -0.6635  0.0855 -0.4051
30317SOL    HW192958   7.280   7.184   3.597  0.4604  0.8484 -0.2820
30317SOL    HW292959   7.364   7.161   3.721 -0.8841  0.6408  0.6142
30318SOL     OW92960   5.796   5.817   9.622 -0.2855  0.0096 -0.1520
30318SOL    HW192961   5.742   5.739   9.612  1.0033 -0.7265 -2.2651
30318SOL    HW292962   5.801   5.832   9.716 -1.9631 -1.4225  0.2118
30319SOL     OW92963   6.751  10.488   9.997 -0.3354  0.0931  0.0463
30319SOL    HW192964   6.784  10.578   9.998  0.2175 -0.0832 -1.2208
30319SOL    HW292965   6.659  10.498   9.972 -0.4231  0.3374  0.4429
30320SOL     OW92966  10.756   1.843  10.879  0.4565 -0.1273 -0.2718
30320SOL    HW192967  10.685   1.782  10.900  2.5937 -2.1407  1.7650
30320SOL    HW292968  10.788   1.814  10.794 -0.6732  0.3607 -0.8855
30321SOL     OW92969   9.225   9.682   6.197 -0.1410  0.4749 -0.0766
30321SOL    HW192970   9.218   9.594   6.232  3.0942 -0.4963 -1.4976
30321SOL    HW292971   9.202   9.674   6.105  0.0895  1.1235 -0.2005
30322SOL     OW92972   5.374  10.306   8.862  0.0075 -0.3065 -0.0453
30322SOL    HW192973   5.298  10.249   8.875 -0.1804 -0.0155  0.1540
30322SOL    HW292974   5.433  10.256   8.806 -0.8308 -0.0910 -1.1359
30323SOL     OW92975   4.509   4.775   5.487 -0.2522 -0.3223  0.3937
30323SOL    HW192976   4.420   4.803   5.465  0.2869  0.5162 -0.8427
30323SOL    HW292977   4.552   4.854   5.520  0.9882  0.1758 -2.1935
30324SOL     OW92978   7.945   1.768   5.833 -0.0124 -0.1404  0.3590
30324SOL    HW192979   7.855   1.741   5.816  0.5751 -1.9025 -0.1295
30324SOL    HW292980   7.988   1.690   5.868  1.4396  0.5445  0.1877
30325SOL     OW92981   0.208   7.756   2.707  0.6806 -0.1306 -0.0644
30325SOL    HW192982   0.152   7.784   2.635  1.3984 -0.4848 -0.7850
30325SOL    HW292983   0.235   7.667   2.683  1.1710 -0.1371  0.4848
30326SOL     OW92984  10.386   2.595   3.395 -0.4149  0.1238 -0.1487
30326SOL    HW192985  10.315   2.658   3.395 -1.4417 -1.0044  0.0313
30326SOL    HW292986  10.345   2.511   3.375  0.8490 -0.5656  0.0034
30327SOL     OW92987   5.831   3.183   6.306 -0.2899 -0.0392  0.1924
30327SOL    HW192988   5.874   3.219   6.228 -0.1816 -1.0128 -0.2104
30327SOL    HW292989   5.827   3.256   6.367 -1.3250  1.0477 -1.1034
30328SOL     OW92990   5.534   2.315   8.350  0.4493 -0.2737 -0.4144
30328SOL    HW192991   5.486   2.332   8.268  0.7039 -0.4315 -0.5968
30328SOL    HW292992   5.565   2.225   8.341  1.5530  0.1233 -0.6867
30329SOL     OW92993   2.195  10.823   6.635  0.1697  0.0052  0.1266
30329SOL    HW192994   2.190  10.898   6.576  2.5388 -0.4396 -0.7635
30329SOL    HW292995   2.148  10.754   6.589 -1.8268  0.8210  0.8501
30330SOL     OW92996   9.768   7.346   0.945 -0.2805 -0.6694  0.5522
30330SOL    HW192997   9.785   7.271   1.001  0.0516  0.1084  1.5364
30330SOL    HW292998   9.823   7.332   0.868 -0.4436 -1.5678  0.5915
30331SOL     OW92999   7.779   0.009   4.608  0.0388  0.4889  0.3228
30331SOL    HW193000   7.758   0.102   4.611  0.3939  0.5840 -0.0349
30331SOL    HW293001   7.797  -0.015   4.699  3.2534  1.5504  0.0838
30332SOL     OW93002   5.368   8.966   5.776 -0.0503  0.1671 -0.1928
30332SOL    HW193003   5.462   8.969   5.755 -0.3280  1.6040 -1.3790
30332SOL    HW293004   5.337   9.055   5.760 -1.8598 -0.5602 -0.9592
30333SOL     OW93005   3.179   6.757   4.732  0.4805 -0.0118  0.3674
30333SOL    HW193006   3.125   6.798   4.664  0.3011  1.7527  1.5145
30333SOL    HW293007   3.126   6.683   4.763 -0.5717  0.7141  0.3465
30334SOL     OW93008   0.140   0.690   8.227 -0.1492  0.1170  0.3410
30334SOL    HW193009   0.083   0.656   8.296 -1.0566  1.1710  0.1228
30334SOL    HW293010   0.100   0.772   8.200  1.2390  0.6724 -0.1297
30335SOL     OW93011  10.249   1.942   5.908  0.5101  0.1367 -0.1079
30335SOL    HW193012  10.160   1.952   5.943  0.9967  0.2138  1.1505
30335SOL    HW293013  10.251   2.001   5.833 -0.8123 -0.6312 -0.7818
30336SOL     OW93014   3.706   6.086   2.927  0.2193  0.0708 -0.2247
30336SOL    HW193015   3.700   6.156   2.992 -0.5483 -1.5931  1.6043
30336SOL    HW293016   3.793   6.048   2.940  0.0332 -0.3196 -0.0983
30337SOL     OW93017   7.483   1.665   2.404 -0.2058  0.1815  0.2251
30337SOL    HW193018   7.504   1.666   2.498  1.3547 -0.4365 -0.0864
30337SOL    HW293019   7.444   1.751   2.388 -1.0163  0.0916  1.5386
30338SOL     OW93020   0.700   7.007   6.180  0.3386  0.1105  0.0897
30338SOL    HW193021   0.619   7.053   6.158 -0.5758 -0.2867  2.3550
30338SOL    HW293022   0.768   7.054   6.131 -1.1575  0.7725 -1.4685
30339SOL     OW93023   7.555   2.002   7.644 -0.0883  0.3852  0.0083
30339SOL    HW193024   7.626   1.980   7.584  0.6703  0.4804  0.8470
30339SOL    HW293025   7.597   2.056   7.712 -1.5907  3.4608 -1.2906
30340SOL     OW93026   7.167   8.485   3.175  0.2815  0.6131 -0.0628
30340SOL    HW193027   7.244   8.490   3.118  0.7230 -0.7138  0.3774
30340SOL    HW293028   7.093   8.499   3.116  0.8694  2.6359 -0.3645
30341SOL     OW93029   5.231   2.523   6.506  0.1520  0.5397  0.5017
30341SOL    HW193030   5.203   2.587   6.441  0.5659 -0.3069 -0.5367
30341SOL    HW293031   5.178   2.446   6.489 -0.0093  0.4344  1.4288
30342SOL     OW93032   2.657   0.495   3.604 -0.1999 -0.4006 -0.1139
30342SOL    HW193033   2.672   0.451   3.688 -0.7981  0.6035  0.5292
30342SOL    HW293034   2.562   0.498   3.595 -0.2420  2.0141  0.5616
30343SOL     OW93035   4.707   8.029   1.558 -0.1312  0.0075  0.0034
30343SOL    HW193036   4.657   8.111   1.555  0.2350  0.2406  0.1268
30343SOL    HW293037   4.783   8.045   1.501 -1.1735 -1.0162 -1.7540
30344SOL     OW93038   4.148   1.639   1.472  0.4324  0.0560  0.4281
30344SOL    HW193039   4.109   1.705   1.529 -0.0023  0.9871 -0.9058
30344SOL    HW293040   4.238   1.631   1.504  0.0714  0.2029  1.5338
30345SOL     OW93041   2.687   5.049   3.584 -0.1087 -0.1918 -0.5643
30345SOL    HW193042   2.592   5.055   3.596  0.0155  0.5177  0.0843
30345SOL    HW293043   2.718   5.139   3.592  0.5151 -0.2887 -1.7711
30346SOL     OW93044   6.039   3.765   2.875 -0.2224 -0.0329  0.0484
30346SOL    HW193045   6.120   3.780   2.827 -0.9469  2.0541 -0.6384
30346SOL    HW293046   6.067   3.736   2.962  1.1543 -1.6905 -0.8965
30347SOL     OW93047  10.384   3.429   1.973  0.1621 -0.1517 -0.0305
30347SOL    HW193048  10.446   3.438   2.045  1.2384 -0.4253 -0.9000
30347SOL    HW293049  10.407   3.500   1.913  1.3886 -1.7719 -1.5966
30348SOL     OW93050   3.672   1.990   1.023 -0.0866  0.1717 -0.6593
30348SOL    HW193051   3.700   1.947   0.942  0.2260  0.3444 -0.6438
30348SOL    HW293052   3.734   2.062   1.035  0.0584 -0.0375 -0.1084
30349SOL     OW93053   3.297   1.592   8.663  0.5014 -0.2020  0.6808
30349SOL    HW193054   3.319   1.615   8.573 -0.5663  2.5212  1.0411
30349SOL    HW293055   3.341   1.657   8.716  0.9536 -1.6602  2.1750
30350SOL     OW93056   4.538   5.287   2.795  0.1263 -1.0189 -0.4488
30350SOL    HW193057   4.622   5.252   2.823  1.1888  1.6664  0.0357
30350SOL    HW293058   4.546   5.381   2.806 -2.9519 -0.6394 -0.4499
30351SOL     OW93059   7.853  10.912  10.144 -0.4487 -0.0678  0.0983
30351SOL    HW193060   7.883  10.929  10.055 -1.2171  0.3512 -0.0915
30351SOL    HW293061   7.863  10.995  10.190 -3.2852  0.7438 -0.5668
30352SOL     OW93062   8.522   1.483   5.139  0.1392 -0.3096 -0.2028
30352SOL    HW193063   8.533   1.510   5.231 -0.3464 -0.0898 -0.2069
30352SOL    HW293064   8.454   1.416   5.143  1.0187 -1.2282 -0.2478
30353SOL     OW93065   5.400   4.325   9.835  0.5964  0.7510  0.0364
30353SOL    HW193066   5.319   4.304   9.881 -0.6786  0.9819 -1.9853
30353SOL    HW293067   5.414   4.419   9.852  0.6054  0.6474  0.6175
30354SOL     OW93068   9.099   1.160   1.683 -0.3043  0.5029  0.3517
30354SOL    HW193069   9.016   1.116   1.701 -0.5096  1.5922  2.3392
30354SOL    HW293070   9.074   1.240   1.637 -0.3110  0.6524  0.6182
30355SOL     OW93071   7.691   0.703   6.504 -0.4174 -0.1707  0.2124
30355SOL    HW193072   7.653   0.709   6.416 -1.0444 -2.0863  0.2968
30355SOL    HW293073   7.634   0.757   6.559 -1.6070 -1.0594 -0.1118
30356SOL     OW93074   9.576   6.010   6.271 -0.0129 -0.1864 -0.2603
30356SOL    HW193075   9.597   5.917   6.279  0.9819 -0.0108 -0.7197
30356SOL    HW293076   9.552   6.036   6.360  1.2577 -0.5226  0.2025
30357SOL     OW93077   4.990   3.103   1.871  0.6964  0.2839 -0.3803
30357SOL    HW193078   4.998   3.020   1.825  0.1579  0.6953 -1.2451
30357SOL    HW293079   4.924   3.152   1.822  0.0587  0.7250  0.8696
30358SOL     OW93080   1.146   9.155   9.645 -0.7730 -0.3858  0.5000
30358SOL    HW193081   1.131   9.127   9.735 -0.2421 -0.8765  0.4419
30358SOL    HW293082   1.240   9.174   9.641 -0.9644  0.5525  0.2996
30359SOL     OW93083   7.550   5.603   3.931  0.1460  0.1938  0.7381
30359SOL    HW193084   7.481   5.654   3.973  0.5005  0.0807  1.4769
30359SOL    HW293085   7.632   5.639   3.965  0.4378 -0.0521  0.3130
30360SOL     OW93086   4.319   0.376  10.965  0.2179 -0.1321 -0.3002
30360SOL    HW193087   4.394   0.321  10.943  0.9488  0.8322 -0.2513
30360SOL    HW293088   4.250   0.346  10.905  0.4947 -1.3182 -0.0510
30361SOL     OW93089   4.945  10.294   6.187 -0.0113 -0.7419 -0.8552
30361SOL    HW193090   5.006  10.341   6.129  1.2833 -1.0064  0.2524
30361SOL    HW293091   4.859  10.329   6.164  0.7102  0.7655 -1.3989
30362SOL     OW93092   0.145   8.707   9.887 -0.0358  0.3939  0.0524
30362SOL    HW193093   0.095   8.634   9.923 -1.9719  1.3761 -0.4926
30362SOL    HW293094   0.218   8.665   9.842 -0.0399 -1.0831  1.3282
30363SOL     OW93095   5.550   9.878   0.959  0.4615 -0.2102  0.1599
30363SOL    HW193096   5.609   9.926   0.901 -0.1686  2.5446  1.6250
30363SOL    HW293097   5.562   9.919   1.045 -0.6151 -2.3286  1.4088
30364SOL     OW93098   9.959   2.096  10.346 -0.2558 -0.0366 -0.2046
30364SOL    HW193099   9.966   2.187  10.317  0.8909  0.9137  2.7152
30364SOL    HW293100  10.028   2.051  10.297  0.2693  1.0263 -0.4922
30365SOL     OW93101   1.175   1.065   8.635 -0.2554 -0.3532 -0.2215
30365SOL    HW193102   1.115   1.025   8.572 -0.1260  1.2527 -1.4433
30365SOL    HW293103   1.246   1.001   8.644 -1.2687 -1.4977 -0.1201
30366SOL     OW93104   9.291   0.471   3.150 -0.0759 -0.1141 -0.0423
30366SOL    HW193105   9.353   0.510   3.088 -0.8687 -0.7709 -1.3100
30366SOL    HW293106   9.253   0.545   3.196  2.6527  0.2679  1.8560
30367SOL     OW93107   1.557   8.487   9.376  0.3662  0.6941  0.6690
30367SOL    HW193108   1.497   8.443   9.436  0.7546  1.4134  1.6057
30367SOL    HW293109   1.630   8.426   9.366 -0.4177 -0.1091 -0.3373
30368SOL     OW93110   8.547   1.292   4.720 -0.3411  0.5917 -0.2319
30368SOL    HW193111   8.579   1.214   4.674  2.2028  0.8919  0.8872
30368SOL    HW293112   8.525   1.354   4.650 -0.4149 -0.3870 -1.0964
30369SOL     OW93113   4.070   0.525   8.480  0.2075 -0.0910  0.5769
30369SOL    HW193114   3.996   0.578   8.449  0.8117  1.0867  1.0731
30369SOL    HW293115   4.099   0.570   8.559  0.5332 -1.3869  1.2159
30370SOL     OW93116  10.109   7.245   8.072 -0.3953  0.0580  0.0270
30370SOL    HW193117  10.076   7.334   8.085  0.1143  0.2472  0.0450
30370SOL    HW293118  10.049   7.207   8.008 -1.3904 -0.0269  0.9733
30371SOL     OW93119   4.066   4.423   1.171  0.0007  0.2452  0.3256
30371SOL    HW193120   4.045   4.484   1.242  1.0528  0.1260  0.7682
30371SOL    HW293121   4.161   4.408   1.180  0.0973  0.0162 -0.9479
30372SOL     OW93122   6.904   4.283  10.452 -0.0665 -0.3502 -0.1701
30372SOL    HW193123   6.996   4.306  10.466  0.0743 -1.1874  0.3794
30372SOL    HW293124   6.855   4.355  10.494  0.3460 -0.3496  0.3247
30373SOL     OW93125   9.515   7.980   4.578 -0.2196 -0.1502  0.4703
30373SOL    HW193126   9.574   7.961   4.505  0.2380  0.4051  0.6871
30373SOL    HW293127   9.572   7.982   4.655 -0.7442 -1.0631  0.9101
30374SOL     OW93128   4.092   2.647   8.388 -0.0251  0.0556 -0.3685
30374SOL    HW193129   4.179   2.682   8.370  0.4415  0.0555  1.5984
30374SOL    HW293130   4.039   2.673   8.313  1.3942  1.0521 -1.0709
30375SOL     OW93131  10.974   9.105   3.774  0.4836 -0.2549  0.4736
30375SOL    HW193132  10.929   9.187   3.794  1.0869 -0.6872  4.2857
30375SOL    HW293133  10.903   9.042   3.761 -0.0054  0.1183  1.2716
30376SOL     OW93134   8.201   8.819   0.145  0.1111 -0.3956  0.4865
30376SOL    HW193135   8.225   8.860   0.228  0.3632 -1.7275  1.0957
30376SOL    HW293136   8.282   8.781   0.112  0.5216  1.9335 -1.4988
30377SOL     OW93137   8.523   0.322   6.633 -0.1270  0.5329 -0.2740
30377SOL    HW193138   8.613   0.326   6.668 -0.4491 -2.1170  1.2080
30377SOL    HW293139   8.526   0.250   6.570 -0.9796  1.1606 -1.0407
30378SOL     OW93140   5.159   7.930  10.026  0.0591  0.0793  0.4168
30378SOL    HW193141   5.223   7.927   9.956  1.4345  1.2283  1.5662
30378SOL    HW293142   5.124   7.841  10.031 -0.1874  0.0175 -1.7907
30379SOL     OW93143   7.991   2.049   3.010 -0.5517  0.3631 -0.2903
30379SOL    HW193144   8.086   2.047   3.020 -0.5373  1.7438 -0.0267
30379SOL    HW293145   7.958   2.008   3.091 -0.1992  0.6483  0.0009
30380SOL     OW93146   4.208   4.550  11.028 -0.1056 -0.0051 -0.0754
30380SOL    HW193147   4.302   4.568  11.023  0.3542 -2.0929  0.0207
30380SOL    HW293148   4.166   4.627  10.989  1.6386  0.8933 -0.2634
30381SOL     OW93149  10.258   4.607   8.838 -0.9765 -0.8047 -0.6612
30381SOL    HW193150  10.348   4.582   8.859 -0.3214  1.8087  0.0201
30381SOL    HW293151  10.209   4.589   8.918  0.2183  3.0785  1.2064
30382SOL     OW93152   3.194  10.902   1.481 -0.2418  0.0097  0.0310
30382SOL    HW193153   3.112  10.951   1.489  0.1790  0.6861  0.2856
30382SOL    HW293154   3.194  10.869   1.391  0.7261  2.8344 -1.1557
30383SOL     OW93155   0.884   2.045   7.101 -0.1788 -0.2789  0.4593
30383SOL    HW193156   0.810   2.011   7.050 -0.1071  1.1222 -0.6585
30383SOL    HW293157   0.914   2.121   7.051  2.7121 -1.4061  0.3027
30384SOL     OW93158   5.437   3.869   2.321 -0.3320 -0.0134  0.2686
30384SOL    HW193159   5.441   3.889   2.228  1.7467  0.1900  0.3569
30384SOL    HW293160   5.432   3.774   2.325 -2.6274  0.0349 -0.0309
30385SOL     OW93161   6.690   0.464   5.328  0.1653 -0.1662 -0.1898
30385SOL    HW193162   6.641   0.382   5.320 -0.3887  0.0515  0.8371
30385SOL    HW293163   6.633   0.521   5.378  0.5942  0.8245 -0.8052
30386SOL     OW93164   5.126   7.777   5.692  0.1114 -0.4375  0.2385
30386SOL    HW193165   5.084   7.853   5.652 -0.5965  0.1937  2.0794
30386SOL    HW293166   5.205   7.812   5.733 -0.1659 -0.6874  1.0103
30387SOL     OW93167   7.524   9.085  10.575  0.2601  0.1725  0.0203
30387SOL    HW193168   7.521   9.037  10.492  1.9391 -1.3170  0.7671
30387SOL    HW293169   7.441   9.134  10.577  1.1886  2.3655 -3.7200
30388SOL     OW93170   9.857   7.178   5.389 -0.5077 -0.1353 -0.0926
30388SOL    HW193171   9.896   7.195   5.474  1.1919 -0.0014 -0.8680
30388SOL    HW293172   9.921   7.124   5.343 -1.4966 -0.3965 -1.2223
30389SOL     OW93173   6.690   7.515   3.385  0.0892  0.4505  0.0454
30389SOL    HW193174   6.763   7.480   3.436  1.0341  0.6573 -1.1245
30389SOL    HW293175   6.640   7.437   3.358  0.7252  0.1953 -0.4008
30390SOL     OW93176   1.054   2.389   6.017 -0.1578  0.1621  0.1549
30390SOL    HW193177   0.987   2.450   5.986  0.5399  0.5247 -0.6717
30390SOL    HW293178   1.136   2.436   6.008  0.3716 -0.8122 -0.2707
30391SOL     OW93179   5.017   7.104   2.811  0.1430  0.5877 -0.4446
30391SOL    HW193180   4.968   7.178   2.773  0.1493  0.6745 -0.2820
30391SOL    HW293181   5.061   7.141   2.887 -0.4972  0.2362  0.1095
30392SOL     OW93182   5.080   0.658   3.936 -0.0591  0.2226  0.0448
30392SOL    HW193183   5.134   0.720   3.984  1.6564  0.8618 -2.5072
30392SOL    HW293184   5.013   0.711   3.894 -0.0978  0.0013 -0.1783
30393SOL     OW93185   7.058   1.397   3.505  0.2992  0.0648 -0.4247
30393SOL    HW193186   7.146   1.378   3.539  0.2104 -0.6966 -0.5969
30393SOL    HW293187   7.058   1.358   3.417 -0.0527  0.4786 -0.6082
30394SOL     OW93188   3.134   6.454   1.043 -0.3755 -0.2191 -0.5955
30394SOL    HW193189   3.087   6.524   0.997 -0.7117 -1.2608 -1.8961
30394SOL    HW293190   3.209   6.497   1.082  1.7619  0.3190 -4.7645
30395SOL     OW93191   3.599   7.164   9.676 -0.3080 -0.7882 -0.4452
30395SOL    HW193192   3.592   7.102   9.603  1.7019 -0.3917 -1.0391
30395SOL    HW293193   3.672   7.131   9.729 -0.6716 -0.1545  0.4680
30396SOL     OW93194   4.959   4.721   5.848 -0.2628  0.4744 -0.2422
30396SOL    HW193195   5.049   4.688   5.839  0.4158  2.4717 -1.3567
30396SOL    HW293196   4.905   4.642   5.847  1.4370 -0.7606  0.1002
30397SOL     OW93197   6.973   4.118   0.607  0.3336  0.5570  0.0398
30397SOL    HW193198   6.996   4.157   0.523  0.3899  1.3391  0.4064
30397SOL    HW293199   6.955   4.026   0.587 -0.3304  0.8858 -0.9419
30398SOL     OW93200   5.566   9.331   0.536 -0.6036  0.3465  0.1754
30398SOL    HW193201   5.617   9.389   0.592 -1.6882 -1.0381  2.7934
30398SOL    HW293202   5.477   9.335   0.572 -1.5572 -0.0591 -1.9643
30399SOL     OW93203   0.058   4.920   6.090 -0.1142 -0.0260 -0.3591
30399SOL    HW193204   0.031   4.846   6.146  0.6762 -0.6272 -0.7536
30399SOL    HW293205   0.110   4.880   6.021 -0.1204  0.8519 -0.8870
30400SOL     OW93206   6.101   3.079   5.100 -0.1031 -0.1547 -0.3041
30400SOL    HW193207   6.008   3.098   5.110  0.0520  0.5019 -0.0277
30400SOL    HW293208   6.134   3.148   5.043  0.4871  0.4708  0.7574
30401SOL     OW93209   1.262   5.111  10.197  0.0847 -0.7371  1.0596
30401SOL    HW193210   1.335   5.086  10.141  0.8742  3.7339 -0.3093
30401SOL    HW293211   1.205   5.163  10.141  0.2764  2.9600  3.9075
30402SOL     OW93212   1.344   3.788   9.369  0.5072  0.0665  0.2384
30402SOL    HW193213   1.397   3.716   9.404  0.3868 -0.3487 -0.4123
30402SOL    HW293214   1.269   3.793   9.428  1.0739  0.4138  0.9498
30403SOL     OW93215  10.750   6.490   2.693 -0.0651 -0.1513 -0.0724
30403SOL    HW193216  10.761   6.396   2.707 -0.8759 -0.3839 -0.8664
30403SOL    HW293217  10.825   6.516   2.639  0.6744 -0.1357  0.9369
30404SOL     OW93218   3.934   7.199   6.818 -0.1207  0.4322  0.0916
30404SOL    HW193219   3.910   7.239   6.734 -2.2717  2.6286  1.6016
30404SOL    HW293220   4.029   7.210   6.823 -0.0042  0.7245 -1.7893
30405SOL     OW93221   8.160   8.449   5.991 -0.0596  0.8036 -0.3410
30405SOL    HW193222   8.097   8.378   5.979  2.3606 -1.3766 -1.1231
30405SOL    HW293223   8.159   8.497   5.908  0.9814 -0.7627 -1.3241
30406SOL     OW93224   0.782   7.182   6.396  0.0406 -0.0252 -0.1726
30406SOL    HW193225   0.732   7.238   6.337 -0.3162 -0.6309 -0.4550
30406SOL    HW293226   0.824   7.118   6.339  0.2377 -0.2049  0.1684
30407SOL     OW93227   8.002   3.530   0.963  0.2870  0.4298 -0.6836
30407SOL    HW193228   8.042   3.447   0.939 -0.3447  0.0117 -0.3183
30407SOL    HW293229   8.058   3.565   1.032  0.7959  0.5208 -1.1338
30408SOL     OW93230   2.835   0.236   9.074 -0.7632 -0.1552  0.5916
30408SOL    HW193231   2.784   0.250   8.995 -1.8126  0.5818  1.3641
30408SOL    HW293232   2.861   0.324   9.101  0.5652 -0.4876  0.4531
30409SOL     OW93233  10.252   9.371   4.250 -0.1378  0.1633 -0.7059
30409SOL    HW193234  10.163   9.340   4.233 -0.1619  1.2030 -2.7119
30409SOL    HW293235  10.255   9.383   4.345 -2.1862  0.2563 -0.6030
30410SOL     OW93236   1.846   7.663   2.767 -0.5492  0.2217  0.5526
30410SOL    HW193237   1.768   7.611   2.788  0.1543 -1.7627 -1.3419
30410SOL    HW293238   1.914   7.598   2.750  0.5864  1.7621 -1.2200
30411SOL     OW93239  10.659   3.747   7.880  0.4463 -0.0095  0.1009
30411SOL    HW193240  10.603   3.702   7.944  0.4734  0.6465  0.6002
30411SOL    HW293241  10.636   3.839   7.889 -0.9525 -0.0608 -2.2260
30412SOL     OW93242   2.950   1.589   8.250  0.4144  0.2694 -0.3317
30412SOL    HW193243   2.872   1.537   8.271  0.4673  1.2701  2.6993
30412SOL    HW293244   2.940   1.608   8.156 -2.7152 -0.0834 -0.1920
30413SOL     OW93245   6.636   1.763  10.573  0.1169  0.0400  0.6084
30413SOL    HW193246   6.708   1.722  10.524  0.0564  1.1789 -0.4871
30413SOL    HW293247   6.679   1.805  10.647  0.1299 -2.3159  2.0337
30414SOL     OW93248   6.951   5.601   1.824 -0.3489 -0.1283  0.6036
30414SOL    HW193249   6.864   5.562   1.818  0.0188 -0.7171 -1.5254
30414SOL    HW293250   7.010   5.526   1.835 -0.1887  0.3628  4.6218
30415SOL     OW93251   7.570   4.484   4.732  0.1036  0.0659 -0.3031
30415SOL    HW193252   7.479   4.455   4.735  0.0173 -0.1603 -2.9601
30415SOL    HW293253   7.615   4.416   4.682  1.3654  1.0580 -0.5447
30416SOL     OW93254   9.465  10.004   6.957 -0.2581 -0.1326 -0.3839
30416SOL    HW193255   9.382  10.020   6.913  0.0468 -1.4215 -1.4802
30416SOL    HW293256   9.490  10.089   6.993 -1.0020  0.7424 -1.8734
30417SOL     OW93257   5.888  10.965   2.783  0.3250 -0.2710 -0.3731
30417SOL    HW193258   5.966  10.930   2.739  0.6820 -1.1509  0.9203
30417SOL    HW293259   5.920  10.996   2.868 -0.7549 -0.7322  0.2138
30418SOL     OW93260   7.272   4.702   4.745  0.6316  0.2461 -0.0625
30418SOL    HW193261   7.353   4.738   4.710  0.9748 -1.7344 -1.4740
30418SOL    HW293262   7.289   4.690   4.838  1.3835  1.3058 -0.0492
30419SOL     OW93263   1.678   8.455   7.475  0.0342  0.1074 -0.0371
30419SOL    HW193264   1.737   8.479   7.403 -0.7017  1.4542 -0.2346
30419SOL    HW293265   1.705   8.511   7.548  0.3333 -0.7645  0.5362
30420SOL     OW93266   9.767   3.185   2.004  0.3243 -0.3102  0.3127
30420SOL    HW193267   9.685   3.136   2.012 -1.3142  2.0317 -0.8738
30420SOL    HW293268   9.785   3.216   2.093  0.4356 -1.5961  0.7501
30421SOL     OW93269   8.831   0.746   6.372 -0.4698 -0.3152  0.0880
30421SOL    HW193270   8.826   0.827   6.321 -0.2618 -1.4613 -1.8592
30421SOL    HW293271   8.890   0.766   6.444 -3.4490  2.4291  2.0211
30422SOL     OW93272   1.493   0.184   4.830 -0.5326 -0.1442 -0.1197
30422SOL    HW193273   1.453   0.251   4.773 -0.5431  1.6967  1.9159
30422SOL    HW293274   1.535   0.234   4.900  2.4083 -2.1650 -0.2629
30423SOL     OW93275  10.744   1.912   7.971 -0.5191  0.0756  0.0251
30423SOL    HW193276  10.729   1.886   8.062  0.3825  0.4855  0.3010
30423SOL    HW293277  10.679   1.981   7.956  0.1553  0.9100  0.7846
30424SOL     OW93278   3.334   1.200   5.933 -0.2164  0.6385  0.3660
30424SOL    HW193279   3.424   1.204   5.967  0.3127  1.6631 -1.0586
30424SOL    HW293280   3.345   1.197   5.838 -1.7158  3.3545  0.0218
30425SOL     OW93281   9.768   0.907   3.403 -0.2650 -0.5067 -0.2509
30425SOL    HW193282   9.780   0.814   3.384 -1.1974 -1.0529  1.5914
30425SOL    HW293283   9.767   0.949   3.317 -0.0574 -2.2233 -1.1340
30426SOL     OW93284   3.024   6.446   0.582  0.0756  0.1109 -0.5606
30426SOL    HW193285   2.974   6.378   0.536  0.4931 -0.4700 -0.1793
30426SOL    HW293286   3.114   6.413   0.582  0.0518 -0.0211  0.8576
30427SOL     OW93287  10.405   7.379   4.277  0.4879  0.4659 -0.0469
30427SOL    HW193288  10.446   7.293   4.266  0.2182  0.2187  0.7649
30427SOL    HW293289  10.431   7.428   4.200  0.7149 -0.3211 -0.4839
30428SOL     OW93290   8.584   8.363   0.179  0.1597  0.2824 -0.3650
30428SOL    HW193291   8.661   8.332   0.130 -0.6682  0.0322 -1.5398
30428SOL    HW293292   8.550   8.284   0.221  0.9661  0.5253  0.8009
30429SOL     OW93293   8.585   5.766   5.217  0.2311  0.3479 -0.0425
30429SOL    HW193294   8.517   5.788   5.280 -1.1529 -2.0313 -0.5582
30429SOL    HW293295   8.657   5.733   5.270 -0.5689 -0.7579  0.4183
30430SOL     OW93296   5.125  10.928   8.623 -0.0340  0.0753  0.0342
30430SOL    HW193297   5.115  10.917   8.717  1.3094 -0.5475  0.1281
30430SOL    HW293298   5.165  10.846   8.594 -3.1079 -1.0154 -1.5576
30431SOL     OW93299   8.229  10.934  10.062 -0.2760 -0.7128 -0.0103
30431SOL    HW193300   8.236  10.839  10.072 -1.5424 -0.7949  0.2780
30431SOL    HW293301   8.303  10.969  10.113 -0.8451 -1.5007  1.4337
30432SOL     OW93302   1.629   8.347  10.127  0.3133 -0.5976  0.4291
30432SOL    HW193303   1.548   8.302  10.151  0.0958  0.0701  0.9929
30432SOL    HW293304   1.610   8.386  10.042 -0.1349 -0.0375  0.7760
30433SOL     OW93305   6.158   2.695   2.505 -0.0082  0.0818  0.1208
30433SOL    HW193306   6.188   2.654   2.586  1.1414 -0.8186 -0.7249
30433SOL    HW293307   6.114   2.775   2.533  0.9330  0.1184  1.6030
30434SOL     OW93308   0.272   4.139   3.546 -0.1910  0.1879 -0.0921
30434SOL    HW193309   0.363   4.168   3.541 -0.5016  1.1867 -0.1257
30434SOL    HW293310   0.271   4.077   3.619  0.5487  0.0224 -0.2082
30435SOL     OW93311  10.197   8.544   6.783 -0.6983  0.0556  0.7816
30435SOL    HW193312  10.125   8.558   6.721 -0.3377 -0.0748  0.3248
30435SOL    HW293313  10.155   8.538   6.868 -1.4636 -2.0609  0.3152
30436SOL     OW93314   6.548   0.683   0.285  0.7501  0.0112 -0.1195
30436SOL    HW193315   6.471   0.731   0.254 -0.0563  0.3380  2.1905
30436SOL    HW293316   6.615   0.700   0.219 -0.1282  2.6201 -0.4829
30437SOL     OW93317   0.798   8.912   2.972 -0.3568 -0.5421 -0.3114
30437SOL    HW193318   0.746   8.837   2.944  0.7661 -1.4097 -0.1270
30437SOL    HW293319   0.851   8.879   3.044 -0.9530  0.8413  0.8212
30438SOL     OW93320  10.581   2.242  10.390  0.0398 -0.6500  0.3239
30438SOL    HW193321  10.671   2.209  10.384  0.4826  0.6780 -0.8313
30438SOL    HW293322  10.588   2.324  10.438 -0.4619 -0.2643 -0.2369
30439SOL     OW93323   1.715   4.321   2.413  0.3401  0.3749 -0.5765
30439SOL    HW193324   1.790   4.285   2.364  0.6894 -1.4330  1.1540
30439SOL    HW293325   1.753   4.391   2.466  1.3323 -1.7834  1.7546
30440SOL     OW93326   1.304  10.979   7.483 -0.6504  0.8584  0.3054
30440SOL    HW193327   1.208  10.984   7.477 -0.5933  0.3619 -2.7708
30440SOL    HW293328   1.333  10.985   7.392  2.1308 -1.3152  0.9230
30441SOL     OW93329   5.276   4.476   2.501 -0.2295 -0.2391  0.5745
30441SOL    HW193330   5.219   4.553   2.505 -0.2404 -0.2513  0.6607
30441SOL    HW293331   5.358   4.508   2.466 -1.0651 -0.6669 -2.0245
30442SOL     OW93332   6.719   0.180   5.559 -0.5532 -0.3558  0.0624
30442SOL    HW193333   6.628   0.199   5.581 -0.1088  0.8657  0.9410
30442SOL    HW293334   6.763   0.265   5.561  0.8757 -1.0823  1.0167
30443SOL     OW93335   5.591   9.800   2.882  0.7467  0.0544  0.3341
30443SOL    HW193336   5.543   9.821   2.802  1.3760 -0.8244 -0.2880
30443SOL    HW293337   5.624   9.885   2.913  0.8850  0.3389 -0.5820
30444SOL     OW93338   3.366  10.303   6.259 -0.1962  0.2638 -0.2783
30444SOL    HW193339   3.455  10.336   6.246 -0.3166 -0.0484 -2.3652
30444SOL    HW293340   3.312  10.358   6.201 -1.0399 -0.8025 -0.5520
30445SOL     OW93341   5.454   8.192   3.603 -0.2020 -0.4093  0.0352
30445SOL    HW193342   5.436   8.259   3.669 -0.4041 -0.4842  0.0593
30445SOL    HW293343   5.484   8.116   3.653 -1.1339 -0.7399  0.1224
30446SOL     OW93344   3.516   3.060   7.623  0.4948 -0.1985 -0.0184
30446SOL    HW193345   3.539   3.120   7.552 -1.1161 -0.4406 -0.7977
30446SOL    HW293346   3.576   3.083   7.694  1.6184  0.5958 -1.1663
30447SOL     OW93347   4.894   9.847   9.808 -0.5904  0.0472 -0.5761
30447SOL    HW193348   4.885   9.755   9.786  2.2036 -0.0210 -1.7332
30447SOL    HW293349   4.880   9.851   9.903 -0.0018 -1.6792 -0.3951
30448SOL     OW93350   8.397   9.694   1.158 -0.1947 -0.0545  0.1767
30448SOL    HW193351   8.322   9.726   1.107 -0.0304  0.0921  0.0236
30448SOL    HW293352   8.445   9.638   1.097  0.1273  0.3028  0.0988
30449SOL     OW93353   1.855   0.370  10.100  0.7171 -0.2999  0.4425
30449SOL    HW193354   1.775   0.383  10.150  0.5295  0.6107 -0.0743
30449SOL    HW293355   1.925   0.395  10.160  0.7143 -1.9820  1.2185
30450SOL     OW93356   4.520   8.467   5.184  0.0586 -0.2695 -0.2269
30450SOL    HW193357   4.485   8.380   5.200 -0.8576  0.0682 -0.3622
30450SOL    HW293358   4.459   8.527   5.226 -0.3227  0.4065 -1.6791
30451SOL     OW93359   4.810  10.479   6.449  0.7865  0.0895  0.3662
30451SOL    HW193360   4.741  10.507   6.509  2.0976  1.4987  1.2838
30451SOL    HW293361   4.798  10.533   6.371  0.3268 -0.2774  0.1850
30452SOL     OW93362   9.848   6.077   3.769 -0.5167  0.1065  0.0664
30452SOL    HW193363   9.892   6.152   3.809  0.8148 -0.0212 -1.0940
30452SOL    HW293364   9.853   6.008   3.836 -0.5845  0.6351  0.6307
30453SOL     OW93365  10.910   3.252   9.416 -0.3764 -0.3200  0.5595
30453SOL    HW193366  10.944   3.309   9.485 -1.1541  0.5141  0.2721
30453SOL    HW293367  10.980   3.250   9.351  0.7344 -1.8323  1.7307
30454SOL     OW93368   7.326   4.655   5.013 -0.3373 -0.5202  0.7871
30454SOL    HW193369   7.381   4.589   5.055 -0.0547  0.1135  1.4294
30454SOL    HW293370   7.263   4.681   5.082 -0.4415 -0.1180  0.5416
30455SOL     OW93371   5.472  10.558   8.784  0.1770  0.2578  0.0169
30455SOL    HW193372   5.424  10.477   8.803  0.6497 -0.1523 -0.4778
30455SOL    HW293373   5.469  10.607   8.866  0.7426 -0.7221  0.6601
30456SOL     OW93374   8.371   9.689   6.809  0.5856  0.5638 -0.2489
30456SOL    HW193375   8.446   9.705   6.752  0.8232  0.4098  0.0225
30456SOL    HW293376   8.321   9.771   6.807 -0.0853  0.1533 -1.6882
30457SOL     OW93377   0.357   7.677   2.354 -0.1023  0.2807  0.0851
30457SOL    HW193378   0.271   7.662   2.317  0.2865 -0.0878 -0.6923
30457SOL    HW293379   0.416   7.679   2.279  0.5493  0.6769  0.5928
30458SOL     OW93380   1.517   7.947   9.466  0.0111  0.1293  0.1852
30458SOL    HW193381   1.550   7.886   9.400  1.1537 -1.1479  1.8423
30458SOL    HW293382   1.470   8.014   9.416 -0.0092 -1.2932 -1.8233
30459SOL     OW93383   6.184   5.555   7.707 -0.4311 -0.2242  0.4853
30459SOL    HW193384   6.274   5.589   7.703 -0.9870  1.3910  0.7338
30459SOL    HW293385   6.194   5.462   7.727  1.1712  0.0121  0.9394
30460SOL     OW93386   8.736   4.189   0.528 -0.5772  0.3381 -0.3211
30460SOL    HW193387   8.769   4.125   0.465 -0.2794  1.2101 -1.0922
30460SOL    HW293388   8.674   4.242   0.477 -1.0947  0.4294  0.3987
30461SOL     OW93389  10.189   6.794   2.957  0.6918  0.8135 -0.6266
30461SOL    HW193390  10.187   6.768   2.865  1.2113  1.4698 -0.8294
30461SOL    HW293391  10.227   6.718   3.002 -1.2773 -0.2632 -0.6659
30462SOL     OW93392   3.322   0.295   6.643 -0.2700  0.1762  0.8291
30462SOL    HW193393   3.321   0.381   6.600 -2.9502 -1.5008 -3.0858
30462SOL    HW293394   3.403   0.254   6.614  0.2342  0.7530  1.3905
30463SOL     OW93395   3.341   4.808   4.745 -0.5271 -0.1388 -0.2545
30463SOL    HW193396   3.364   4.874   4.680 -2.7208 -0.8414 -1.8570
30463SOL    HW293397   3.387   4.729   4.717  1.1220  0.3170  0.9772
30464SOL     OW93398   3.512   9.369   4.315  0.0518 -0.7770 -0.0846
30464SOL    HW193399   3.437   9.384   4.372  0.6074 -0.0336  0.4793
30464SOL    HW293400   3.543   9.281   4.337 -0.5565 -1.0261 -0.2162
30465SOL     OW93401   0.675   1.352   1.557  0.5703 -0.6674 -0.3154
30465SOL    HW193402   0.732   1.286   1.516 -0.2559 -1.6495  0.0670
30465SOL    HW293403   0.715   1.436   1.534  1.9179 -1.3145 -0.4230
30466SOL     OW93404   7.578   6.565   2.556 -0.1805  0.2459  0.5010
30466SOL    HW193405   7.653   6.594   2.607 -0.3867 -1.2081  1.6972
30466SOL    HW293406   7.568   6.473   2.578 -1.2450 -0.0374 -1.0041
30467SOL     OW93407   1.764   2.164   5.063  0.7491 -0.4014 -0.5407
30467SOL    HW193408   1.815   2.111   5.001 -0.0815 -0.5848 -1.0884
30467SOL    HW293409   1.722   2.099   5.120  0.0377 -0.3332 -0.9700
30468SOL     OW93410   4.627   5.935   2.688  0.6860  0.2185  0.3935
30468SOL    HW193411   4.624   6.005   2.753  1.5961  0.2497  0.4071
30468SOL    HW293412   4.715   5.939   2.651 -0.0787  0.7630 -1.4768
30469SOL     OW93413   6.614   9.508   4.983 -0.0636  0.0599 -0.4020
30469SOL    HW193414   6.678   9.471   5.044 -0.0103  1.6253  0.5451
30469SOL    HW293415   6.539   9.450   4.989  1.0497 -1.5220 -1.1473
30470SOL     OW93416   0.828   1.390  10.714  0.5691  0.4292 -0.9006
30470SOL    HW193417   0.801   1.299  10.706  2.3458 -0.3056  0.6656
30470SOL    HW293418   0.920   1.390  10.689  1.4425  1.1436  1.9100
30471SOL     OW93419   9.662   8.008   9.543 -0.1562 -0.7031  0.0592
30471SOL    HW193420   9.623   8.090   9.571  0.1759 -0.4608 -0.1713
30471SOL    HW293421   9.680   7.960   9.624 -0.2305 -0.4926  0.1999
30472SOL     OW93422   1.473   4.057   6.606 -0.6303  0.3921 -0.0601
30472SOL    HW193423   1.524   4.059   6.687  0.1527  0.3701 -0.5398
30472SOL    HW293424   1.393   4.010   6.629  0.6771 -1.8950  0.1055
30473SOL     OW93425   6.878   6.919   6.117  0.3585 -0.0220 -0.0653
30473SOL    HW193426   6.847   6.960   6.198 -0.3179 -0.8051  0.0910
30473SOL    HW293427   6.798   6.886   6.075  0.8860 -1.5463  0.0424
30474SOL     OW93428   9.071   8.995   9.237  0.2187 -0.2522 -0.3191
30474SOL    HW193429   9.098   9.007   9.328  1.0916 -0.0098 -0.5995
30474SOL    HW293430   9.122   9.059   9.188 -0.0802 -0.5302 -1.0108
30475SOL     OW93431  10.540   0.095   9.989  0.3137 -0.1732  0.4260
30475SOL    HW193432  10.616   0.036   9.987  0.5409  0.0331  1.7818
30475SOL    HW293433  10.480   0.059   9.925  1.0100 -1.1147  0.2812
30476SOL     OW93434   1.239   4.563   0.579  0.3620  0.8502  0.3702
30476SOL    HW193435   1.166   4.526   0.627 -0.4398  0.4828 -1.0613
30476SOL    HW293436   1.199   4.626   0.518  1.3862  1.7393  0.5786
30477SOL     OW93437   8.661   1.022   0.162 -0.2637 -0.1846 -0.4488
30477SOL    HW193438   8.684   1.115   0.154  1.3301 -0.4790  0.3157
30477SOL    HW293439   8.637   0.996   0.073 -1.1892  1.0623 -0.5846
30478SOL     OW93440  10.366   4.627   6.394  0.4755 -0.2723 -0.1087
30478SOL    HW193441  10.352   4.641   6.487 -0.1050 -0.3399 -0.1797
30478SOL    HW293442  10.279   4.638   6.355  0.7441 -0.0708 -0.6637
30479SOL     OW93443   3.850   8.152   6.943  0.3427 -0.1059 -0.0221
30479SOL    HW193444   3.885   8.082   6.997  1.4572  1.9041  2.0410
30479SOL    HW293445   3.898   8.145   6.860  2.5117 -0.1248  1.1563
30480SOL     OW93446  10.288   8.768   7.884 -0.0471 -0.0788 -0.3192
30480SOL    HW193447  10.202   8.807   7.900  0.3370  0.4270  0.6056
30480SOL    HW293448  10.330   8.828   7.823 -0.2365 -0.1591 -0.5286
30481SOL     OW93449   4.171   1.464  10.978 -0.4457  0.3576  0.6280
30481SOL    HW193450   4.139   1.431  10.894 -0.7865 -0.4777  1.0663
30481SOL    HW293451   4.092   1.472  11.032 -0.3097  1.5024  0.6780
30482SOL     OW93452   1.597   6.317   8.551  0.6973  0.1753 -0.0424
30482SOL    HW193453   1.558   6.378   8.614  1.1105  0.6196 -0.2175
30482SOL    HW293454   1.661   6.368   8.503 -1.5458  0.6666 -2.8264
30483SOL     OW93455   6.505   9.604  10.355 -0.2039 -0.3081  0.8541
30483SOL    HW193456   6.514   9.666  10.428 -0.2093 -0.7670  1.2507
30483SOL    HW293457   6.433   9.639  10.303  0.9199  0.9801  0.0900
30484SOL     OW93458   7.581   4.050   1.709 -0.2778  0.2478 -0.5454
30484SOL    HW193459   7.501   4.046   1.762  0.4755  1.1182  0.7309
30484SOL    HW293460   7.652   4.044   1.773  0.6944 -0.3595 -1.6387
30485SOL     OW93461   5.425   6.605   8.672 -0.7865 -0.2556  0.5858
30485SOL    HW193462   5.352   6.627   8.730 -0.4560 -1.8543  1.6498
30485SOL    HW293463   5.455   6.519   8.701 -0.1890 -0.8357 -1.5661
30486SOL     OW93464   5.003   7.003   9.983  0.3287  0.3354  0.4645
30486SOL    HW193465   4.972   6.963   9.901  1.7702  1.6908 -0.7941
30486SOL    HW293466   5.074   6.946  10.012  1.6230  1.3147 -0.7141
30487SOL     OW93467   5.009   3.349   6.444  0.1615  0.7968  0.3562
30487SOL    HW193468   4.914   3.343   6.434  0.2649 -0.9318 -0.0208
30487SOL    HW293469   5.025   3.433   6.486 -1.5882  0.7928  1.0664
30488SOL     OW93470   2.979   1.742   9.090  0.8140  0.0436  0.3899
30488SOL    HW193471   2.997   1.652   9.119 -0.7707 -0.6663 -0.6836
30488SOL    HW293472   2.929   1.780   9.162 -0.3065 -0.6413 -0.0014
30489SOL     OW93473   2.450   6.579   9.355  0.0221  0.6119 -0.6678
30489SOL    HW193474   2.520   6.531   9.312 -1.6733 -1.5623 -1.1926
30489SOL    HW293475   2.388   6.600   9.285 -1.2582 -0.1637  0.1913
30490SOL     OW93476   4.054   1.813   5.416 -0.4996 -0.1707 -0.5127
30490SOL    HW193477   3.990   1.756   5.459 -1.2143  1.0889  0.1384
30490SOL    HW293478   4.105   1.851   5.488  0.1267 -0.1520 -0.9545
30491SOL     OW93479   9.795   4.604  10.141  0.1557  0.0689  0.1784
30491SOL    HW193480   9.809   4.573  10.052  0.7010  0.6777  0.0480
30491SOL    HW293481   9.728   4.671  10.134 -0.0462 -0.1169  0.2798
30492SOL     OW93482   8.891   1.258   3.350  0.4357 -0.1502  0.1331
30492SOL    HW193483   8.802   1.258   3.386  0.2018  0.4441 -0.4160
30492SOL    HW293484   8.878   1.255   3.255  0.9507  1.2188 -0.0128
30493SOL     OW93485   8.915   8.227   4.453 -0.3232  0.0175  0.2879
30493SOL    HW193486   8.888   8.256   4.365  1.2905 -0.5784 -0.4385
30493SOL    HW293487   8.966   8.148   4.437  0.3403  0.1283  1.7524
30494SOL     OW93488   6.109   2.495   0.689 -0.2834  0.1251 -0.2112
30494SOL    HW193489   6.139   2.560   0.625 -2.0025 -0.8595 -2.1275
30494SOL    HW293490   6.097   2.415   0.638  2.7473 -2.1415  2.2378
30495SOL     OW93491   5.914   9.684   7.622 -0.0446  0.6962 -0.2974
30495SOL    HW193492   5.886   9.759   7.674 -0.9688  2.0647 -2.6142
30495SOL    HW293493   5.962   9.723   7.548  0.9596 -1.1273 -0.6639
30496SOL     OW93494   7.446   1.531  10.692  0.4946 -0.3105 -0.4817
30496SOL    HW193495   7.489   1.485  10.619  0.2851 -0.7869 -0.3053
30496SOL    HW293496   7.363   1.562  10.655  1.4589  1.6318 -1.1716
30497SOL     OW93497   4.371   6.523   7.544  0.5070 -0.3108 -0.5682
30497SOL    HW193498   4.304   6.507   7.610  0.8236 -0.2894 -0.2422
30497SOL    HW293499   4.429   6.588   7.584  2.3306 -2.3726  0.2795
30498SOL     OW93500   0.917   4.356   2.590  0.4133 -0.4460  0.1909
30498SOL    HW193501   0.890   4.375   2.680  0.9851 -0.5127  0.3818
30498SOL    HW293502   0.864   4.281   2.565 -1.1094  0.7048 -0.2002
30499SOL     OW93503   2.400   1.529   9.347 -0.1290 -0.1992  0.6141
30499SOL    HW193504   2.331   1.465   9.326 -0.4228  0.1981  0.3684
30499SOL    HW293505   2.409   1.581   9.267 -0.1384  0.2951  0.9308
30500SOL     OW93506   9.227   1.447   9.127 -0.2106 -0.3835  0.0962
30500SOL    HW193507   9.300   1.444   9.189 -0.0869  0.8524  0.0295
30500SOL    HW293508   9.231   1.363   9.081  1.4210 -0.1916 -0.1810
30501SOL     OW93509   1.026  10.700   7.037  0.0336 -0.4522 -0.0751
30501SOL    HW193510   1.082  10.712   7.114 -0.4320 -2.2518  0.6001
30501SOL    HW293511   1.057  10.619   6.997 -0.0497  0.2001 -1.5568
30502SOL     OW93512  10.121   1.873   7.601  0.2165 -0.2755  0.0961
30502SOL    HW193513  10.193   1.875   7.538  1.2388 -0.3945  1.2165
30502SOL    HW293514  10.096   1.964   7.612  1.2592 -0.0647  0.8533
30503SOL     OW93515   7.007   8.783   0.693 -0.0595  0.7226 -0.2947
30503SOL    HW193516   6.958   8.736   0.626 -0.4545 -0.2578  0.6464
30503SOL    HW293517   6.941   8.809   0.757  0.7321 -1.8731  1.7358
30504SOL     OW93518   4.256   6.416   8.147 -0.3413 -0.1512  0.6872
30504SOL    HW193519   4.198   6.484   8.114  1.3535  0.5837 -1.0100
30504SOL    HW293520   4.248   6.421   8.242 -1.8160  0.9916  0.5390
30505SOL     OW93521   0.390   2.049   9.318  0.0272 -0.2084  0.4038
30505SOL    HW193522   0.432   1.965   9.337 -1.3110 -1.2686 -1.0213
30505SOL    HW293523   0.331   2.063   9.393  1.0583  0.0437  1.1879
30506SOL     OW93524   4.491   7.177   5.410 -0.3311 -0.4283 -0.0279
30506SOL    HW193525   4.543   7.171   5.329  0.7797  1.7359  0.4517
30506SOL    HW293526   4.413   7.125   5.391 -0.4250  0.5038 -2.7594
30507SOL     OW93527   4.297   1.327   6.659 -0.0741  0.6101 -0.2581
30507SOL    HW193528   4.388   1.352   6.645  1.4711 -1.8235  3.5637
30507SOL    HW293529   4.280   1.260   6.592  1.3458  0.3302 -0.3694
30508SOL     OW93530   3.336   5.524   8.835 -0.1573  0.4376  0.3116
30508SOL    HW193531   3.293   5.552   8.916 -0.0094  0.0499  0.5282
30508SOL    HW293532   3.428   5.518   8.857 -0.2063 -0.4146  0.3397
30509SOL     OW93533   6.319  10.034   7.239 -0.1521  0.0926 -0.2325
30509SOL    HW193534   6.277  10.117   7.263 -0.0542  0.0802 -0.0242
30509SOL    HW293535   6.271  10.005   7.161 -0.4301  0.1544 -0.0833
30510SOL     OW93536   4.780   8.349   0.836  0.4649  0.1311  0.1441
30510SOL    HW193537   4.710   8.285   0.820  0.2094  0.5052 -0.2692
30510SOL    HW293538   4.752   8.427   0.787  1.5399  0.0408 -0.6405
30511SOL     OW93539   6.200   2.785  10.615 -0.0477  0.1319  0.1932
30511SOL    HW193540   6.273   2.792  10.676  0.9631  1.6576 -1.1552
30511SOL    HW293541   6.205   2.695  10.582  0.9166  0.0677  0.4902
30512SOL     OW93542   4.578   4.796  10.156  0.2756 -0.3796 -0.1115
30512SOL    HW193543   4.496   4.782  10.110  0.1199 -1.1316  0.3683
30512SOL    HW293544   4.558   4.773  10.247  0.5537  1.1323  0.3501
30513SOL     OW93545   9.138   9.999   0.125 -1.1788  0.1770 -0.2253
30513SOL    HW193546   9.086   9.991   0.045  0.3993  0.5515 -1.3400
30513SOL    HW293547   9.201  10.069   0.106 -0.0416 -0.4883  0.9421
30514SOL     OW93548   4.438   7.837   4.764 -0.8993 -0.3580 -0.1422
30514SOL    HW193549   4.484   7.865   4.684  1.0598 -0.9823  0.7170
30514SOL    HW293550   4.361   7.894   4.767 -1.5210 -0.8747 -2.9143
30515SOL     OW93551   0.328   1.258   0.589 -0.5190 -0.5980  0.3603
30515SOL    HW193552   0.314   1.306   0.507  0.3745 -0.1513  0.4615
30515SOL    HW293553   0.240   1.245   0.624 -1.2604 -3.4058 -2.1068
30516SOL     OW93554   0.484   3.297   6.011  0.1521  0.1183  0.4703
30516SOL    HW193555   0.458   3.323   6.099 -2.0308  0.4911 -0.2067
30516SOL    HW293556   0.419   3.339   5.954  1.2737 -0.4161 -1.2928
30517SOL     OW93557   8.007   7.775   2.375 -0.2221 -0.3569 -0.5044
30517SOL    HW193558   7.931   7.760   2.431  1.1073 -2.4131  0.9158
30517SOL    HW293559   7.970   7.786   2.287 -2.1332 -3.0046 -0.1716
30518SOL     OW93560   4.509   6.632   2.770 -0.1673 -0.0343 -0.2028
30518SOL    HW193561   4.604   6.637   2.761 -0.1140  1.2225  0.6984
30518SOL    HW293562   4.476   6.697   2.707 -0.3184  0.8252  0.7359
30519SOL     OW93563   6.630   4.959   7.647  0.0390  0.2421  0.3454
30519SOL    HW193564   6.595   5.047   7.639  0.1000  0.3690  1.3416
30519SOL    HW293565   6.654   4.951   7.740 -0.1989 -0.9003  0.3242
30520SOL     OW93566   7.859   7.170   7.571  0.3381 -0.2558  0.5437
30520SOL    HW193567   7.899   7.250   7.538  0.6551 -0.4675  0.4001
30520SOL    HW293568   7.899   7.157   7.657 -1.8791  1.3117  1.8810
30521SOL     OW93569   5.640   5.259   5.460  0.1794 -0.3330  0.1056
30521SOL    HW193570   5.677   5.322   5.521 -1.6529 -2.4771  3.7518
30521SOL    HW293571   5.553   5.293   5.439  1.0060  0.6731 -1.8952
30522SOL     OW93572   9.364   8.801   7.731 -0.2252 -0.7936  0.0338
30522SOL    HW193573   9.445   8.839   7.764  0.1507 -1.2300 -0.3641
30522SOL    HW293574   9.301   8.873   7.731  0.4011 -0.2275 -0.4721
30523SOL     OW93575   6.994   9.683   8.764 -0.1452  0.0479  0.2428
30523SOL    HW193576   7.022   9.750   8.827  1.3539 -0.4771  0.1771
30523SOL    HW293577   7.055   9.691   8.691 -0.8314 -0.4671 -0.4095
30524SOL     OW93578   5.327   0.477  10.437  0.4984  0.3464  0.1859
30524SOL    HW193579   5.363   0.388  10.433  2.5814  1.1762 -0.9437
30524SOL    HW293580   5.384   0.523  10.498 -0.3219  1.0278  0.4523
30525SOL     OW93581   6.114   2.977   2.279 -0.1335 -0.0580  0.0725
30525SOL    HW193582   6.020   2.962   2.276 -0.1100 -0.2364  0.1947
30525SOL    HW293583   6.132   2.999   2.370 -0.0376 -0.1603  0.0783
30526SOL     OW93584   5.751   5.070   5.746 -0.2549  0.3731  0.0500
30526SOL    HW193585   5.735   5.115   5.829 -2.1023 -1.4378  0.7678
30526SOL    HW293586   5.751   4.977   5.769  1.7819 -0.1086 -1.6171
30527SOL     OW93587   6.433   0.800   2.270 -0.3998 -0.5532  0.0722
30527SOL    HW193588   6.489   0.860   2.222  0.1657 -0.5153  0.7534
30527SOL    HW293589   6.345   0.836   2.261  0.1495  1.6141  2.1737
30528SOL     OW93590   8.260   4.756   2.317  0.3176  0.4669 -0.3745
30528SOL    HW193591   8.199   4.761   2.243 -3.0189  2.3671  2.2134
30528SOL    HW293592   8.249   4.666   2.350  1.0913 -0.0780 -1.5378
30529SOL     OW93593   0.252   2.452   2.055 -0.4033 -0.1835 -0.2646
30529SOL    HW193594   0.263   2.361   2.085 -0.2729 -0.3248 -0.7253
30529SOL    HW293595   0.181   2.448   1.990 -0.2685  0.0080 -0.4267
30530SOL     OW93596   9.024   0.119   6.394  0.1311  0.2594  0.1932
30530SOL    HW193597   9.009   0.070   6.313 -1.1491  0.2409  0.4337
30530SOL    HW293598   9.110   0.159   6.381  0.7297 -1.1723 -0.4440
30531SOL     OW93599   7.600   6.315   2.661 -0.0763 -0.3885  0.4324
30531SOL    HW193600   7.679   6.311   2.608 -0.6690 -0.1292 -0.4912
30531SOL    HW293601   7.546   6.243   2.629 -1.1922  0.8490 -0.5908
30532SOL     OW93602   3.042   8.311   5.746 -0.1489 -0.0934  0.2542
30532SOL    HW193603   3.012   8.402   5.737  0.2549  0.1915  1.5596
30532SOL    HW293604   2.974   8.259   5.703 -1.4797  0.6794  1.3463
30533SOL     OW93605   0.653   6.111   7.041  0.1023  0.6642 -0.2492
30533SOL    HW193606   0.714   6.037   7.047 -0.6026  0.1438  0.6865
30533SOL    HW293607   0.566   6.071   7.047 -0.3844  1.3385 -2.0740
30534SOL     OW93608   3.465   2.846  10.468 -0.0850 -0.0465 -0.2349
30534SOL    HW193609   3.401   2.903  10.423 -0.5236  0.7128  1.2686
30534SOL    HW293610   3.544   2.899  10.474  0.4179 -0.6452 -1.2622
30535SOL     OW93611   0.093   2.220   5.559 -0.0087 -0.9619 -0.3726
30535SOL    HW193612   0.081   2.138   5.607  2.2235 -1.1264  0.0499
30535SOL    HW293613   0.131   2.194   5.475  0.0513 -0.4132 -0.5196
30536SOL     OW93614   1.605   6.139   1.337 -0.0423 -0.3982  0.0580
30536SOL    HW193615   1.519   6.099   1.345  0.2526 -0.8143  1.2819
30536SOL    HW293616   1.634   6.154   1.427  0.7161  0.7183 -0.3440
30537SOL     OW93617   4.402  10.342  10.881  0.3419 -0.8714  0.1528
30537SOL    HW193618   4.416  10.247  10.883  2.3599 -0.6501 -1.1023
30537SOL    HW293619   4.455  10.376  10.953 -1.0989 -0.7105  1.1985
30538SOL     OW93620   1.373   3.053   0.560  0.6554 -0.0515 -0.1211
30538SOL    HW193621   1.292   3.068   0.609  0.7727 -1.6333  0.5967
30538SOL    HW293622   1.389   3.136   0.515 -1.1840  0.3912 -0.0267
30539SOL     OW93623   5.953   3.940   7.630  0.3475 -0.1808  0.6751
30539SOL    HW193624   5.988   3.898   7.708 -1.9892 -0.6220  1.5514
30539SOL    HW293625   5.927   3.867   7.573 -1.2198  0.0714  1.0337
30540SOL     OW93626   3.322   7.170   5.652 -0.0127  0.1040  0.0708
30540SOL    HW193627   3.416   7.156   5.642  0.2970  1.0233  1.4623
30540SOL    HW293628   3.307   7.168   5.747 -1.6541 -1.5201 -0.1570
30541SOL     OW93629   6.673   4.393   4.396  0.2623 -0.1773  0.0937
30541SOL    HW193630   6.677   4.472   4.342  0.3507 -0.6434 -0.5944
30541SOL    HW293631   6.596   4.346   4.365 -0.1820 -0.0430  0.9626
30542SOL     OW93632   4.849   8.460   4.447  0.2923  0.5228  0.0351
30542SOL    HW193633   4.938   8.493   4.437  0.2378  0.0954 -2.5834
30542SOL    HW293634   4.858   8.365   4.453 -0.0194  0.4205 -1.0152
30543SOL     OW93635   6.113   5.391   6.074 -0.2680 -0.0749 -0.5088
30543SOL    HW193636   6.033   5.442   6.088  0.0083 -0.1480  1.5372
30543SOL    HW293637   6.178   5.430   6.133  0.6659 -1.2170 -0.7426
30544SOL     OW93638   0.220   0.923   0.878 -0.8768  0.3026 -0.3446
30544SOL    HW193639   0.237   0.983   0.950  1.2628  0.4765 -0.9301
30544SOL    HW293640   0.206   0.838   0.920 -0.5833  0.5742  0.3175
30545SOL     OW93641   5.868   0.110   0.960  0.1371  0.1976 -0.0894
30545SOL    HW193642   5.816   0.135   1.036 -2.0714  0.1306 -1.4876
30545SOL    HW293643   5.958   0.130   0.985 -0.2706 -1.4421  3.1735
30546SOL     OW93644   4.548   8.716   2.794 -0.0222  0.2538  0.4021
30546SOL    HW193645   4.487   8.752   2.729  0.4119 -2.4305 -1.6580
30546SOL    HW293646   4.500   8.643   2.833  0.5501  0.4509  1.5028
30547SOL     OW93647   0.398   8.119   8.919  0.2428  0.2265 -0.2857
30547SOL    HW193648   0.362   8.159   8.840  2.4548  0.6775 -1.1507
30547SOL    HW293649   0.381   8.025   8.909 -0.0477  0.3453 -0.9849
30548SOL     OW93650   9.184   4.142   6.287  0.1714 -0.2045  0.1351
30548SOL    HW193651   9.142   4.117   6.205 -3.1088  0.9782  1.2743
30548SOL    HW293652   9.183   4.062   6.339 -1.1543 -0.1408  0.2586
30549SOL     OW93653  10.119   6.579   4.986  0.2278  0.0379  0.5012
30549SOL    HW193654  10.151   6.601   5.073 -0.0587  1.9290  0.1785
30549SOL    HW293655  10.024   6.568   4.997  0.4578 -1.8265  0.7857
30550SOL     OW93656   4.459   3.295  10.621  0.4932 -0.0559 -0.3533
30550SOL    HW193657   4.523   3.283  10.691  0.6567  0.4153 -0.4144
30550SOL    HW293658   4.490   3.239  10.550  0.4458 -0.3710 -0.1254
30551SOL     OW93659  10.594  10.598   5.457  0.0833 -0.2152  1.0020
30551SOL    HW193660  10.522  10.649   5.494  0.7569  1.5889 -0.0660
30551SOL    HW293661  10.673  10.633   5.498  0.8175  1.5482 -1.6308
30552SOL     OW93662   8.701   3.755   0.941  0.1318  0.1792 -0.1483
30552SOL    HW193663   8.678   3.846   0.926 -1.3205 -0.2729 -0.8899
30552SOL    HW293664   8.707   3.747   1.036  1.2452  1.2442 -0.1033
30553SOL     OW93665   9.062   3.049   5.914 -0.6457 -0.0701  0.4716
30553SOL    HW193666   9.151   3.052   5.949 -1.2427 -0.4380  2.1122
30553SOL    HW293667   9.054   2.962   5.875 -0.2747 -0.0146  0.2652
30554SOL     OW93668   4.141   6.162   9.613 -0.1259  0.2197 -0.6004
30554SOL    HW193669   4.108   6.250   9.632  1.0551 -0.0168  3.4710
30554SOL    HW293670   4.101   6.106   9.679  2.0731 -1.5801 -0.6674
30555SOL     OW93671   9.421   3.646   8.442  0.2921 -0.1364  0.3310
30555SOL    HW193672   9.516   3.632   8.438  0.5413  0.6108  2.4594
30555SOL    HW293673   9.411   3.730   8.486 -1.3734 -0.3651  0.4487
30556SOL     OW93674   2.280   3.670   7.581 -0.0116  0.0284  0.1934
30556SOL    HW193675   2.323   3.629   7.656  0.2282 -1.9219 -0.9187
30556SOL    HW293676   2.343   3.734   7.549  0.2400  0.2670  1.1334
30557SOL     OW93677  10.039   3.234   4.927  0.4177  0.7149 -0.0561
30557SOL    HW193678  10.037   3.306   4.864 -0.3112  0.6094 -0.1642
30557SOL    HW293679   9.948   3.203   4.930  0.7970 -0.4994 -0.3712
30558SOL     OW93680   5.928   7.225   8.933  0.1767 -0.2715  0.0859
30558SOL    HW193681   5.881   7.308   8.946 -0.2000 -0.8360  3.0993
30558SOL    HW293682   6.001   7.247   8.875  0.0463  2.1668  0.7407
30559SOL     OW93683   0.204   0.236   4.569  0.5409  0.5551 -0.6196
30559SOL    HW193684   0.170   0.320   4.539 -3.9387 -0.7100  0.1562
30559SOL    HW293685   0.179   0.174   4.501 -1.0689 -0.8422  1.1078
30560SOL     OW93686   9.099   9.329   9.870 -0.2309  0.4928 -0.3617
30560SOL    HW193687   9.117   9.362   9.782  1.8063  0.9795  0.1875
30560SOL    HW293688   9.185   9.322   9.911 -0.9938 -1.2708  1.0665
30561SOL     OW93689   6.733   5.319   5.175  0.2302 -0.0599 -0.2913
30561SOL    HW193690   6.798   5.382   5.144  1.9442 -1.5846  0.0063
30561SOL    HW293691   6.720   5.259   5.102  0.2547 -0.5998  0.1400
30562SOL     OW93692   7.349   9.513  10.592  0.0932  0.2472 -0.1188
30562SOL    HW193693   7.342   9.581  10.524 -0.2449 -1.1385 -1.5293
30562SOL    HW293694   7.443   9.503  10.606  0.1365  1.6817  0.8571
30563SOL     OW93695  10.972   0.286   7.620  0.2078 -0.3459  0.0376
30563SOL    HW193696  10.935   0.372   7.601 -0.7464 -0.8225 -0.3463
30563SOL    HW293697  11.064   0.293   7.594  0.6596  1.1368  1.8253
30564SOL     OW93698   5.652   9.689   8.357 -0.3759 -0.0042 -0.2548
30564SOL    HW193699   5.580   9.732   8.403 -3.3202 -4.5919  0.1245
30564SOL    HW293700   5.717   9.672   8.425 -0.7394  0.7193  0.2896
30565SOL     OW93701   3.441   5.643   0.346 -0.6423  0.1147 -0.1961
30565SOL    HW193702   3.390   5.585   0.402  2.1748 -1.4716  0.8855
30565SOL    HW293703   3.500   5.689   0.406  0.0386  1.0328 -1.5133
30566SOL     OW93704  10.222   6.370   7.105  0.4747  0.0785  0.4575
30566SOL    HW193705  10.303   6.406   7.068 -0.2460  0.3065 -0.9853
30566SOL    HW293706  10.165   6.356   7.029 -0.5437 -0.8601  1.3512
30567SOL     OW93707   3.210   2.165   4.610 -0.2615 -0.1410 -0.0377
30567SOL    HW193708   3.259   2.183   4.530 -0.8259 -0.6300 -0.5092
30567SOL    HW293709   3.229   2.073   4.629 -1.4433 -0.5177 -0.5679
30568SOL     OW93710  10.145   0.384   9.147  0.0296  0.9368  0.1782
30568SOL    HW193711  10.224   0.352   9.104 -0.2085 -4.3481  2.8684
30568SOL    HW293712  10.175   0.451   9.208  1.6560  2.0418 -1.7412
30569SOL     OW93713   2.291   0.839   8.257 -0.1009 -0.0687  0.2021
30569SOL    HW193714   2.223   0.896   8.294  0.4949 -0.0772  1.3704
30569SOL    HW293715   2.367   0.852   8.314  0.7186 -0.4487 -0.7712
30570SOL     OW93716   7.285   4.646   5.918 -1.2384 -0.0215  0.0930
30570SOL    HW193717   7.366   4.596   5.929 -0.8607  0.8660  1.5427
30570SOL    HW293718   7.246   4.610   5.838  0.3162 -0.8248 -0.3503
30571SOL     OW93719  10.055   6.841   8.368  0.0970 -0.1753  0.6189
30571SOL    HW193720  10.138   6.796   8.383  0.3950  0.2553  0.3011
30571SOL    HW293721  10.023   6.862   8.455 -0.8589 -2.4105  0.8797
30572SOL     OW93722   2.872   6.822   4.693 -0.1673  0.1955  0.2425
30572SOL    HW193723   2.793   6.875   4.703 -0.1205  0.0835  1.4205
30572SOL    HW293724   2.861   6.751   4.756 -0.1814 -1.1578 -1.2511
30573SOL     OW93725   4.173   8.016   6.878  0.0970 -0.2743  0.0927
30573SOL    HW193726   4.219   7.932   6.877  0.1999 -0.2214  0.2718
30573SOL    HW293727   4.227   8.071   6.935 -0.2364 -0.2371  0.3724
30574SOL     OW93728  10.314   2.008   9.369 -0.2121 -0.1035 -0.1492
30574SOL    HW193729  10.360   2.089   9.349 -1.2395  0.5429  0.0440
30574SOL    HW293730  10.328   1.994   9.462  1.5172 -1.1727 -0.5101
30575SOL     OW93731   1.803   9.309   2.349 -0.1546  0.0844  0.0457
30575SOL    HW193732   1.819   9.234   2.292  1.4704  0.2626  0.2333
30575SOL    HW293733   1.889   9.334   2.382 -0.9296  0.6174  1.7950
30576SOL     OW93734   0.257   8.176   3.139 -0.5963 -0.5302  0.8459
30576SOL    HW193735   0.348   8.178   3.107 -1.1566  0.5599 -0.8376
30576SOL    HW293736   0.259   8.229   3.219 -0.1728  1.8179 -0.6046
30577SOL     OW93737   0.940  10.556   4.125 -1.0508  0.0502  0.5377
30577SOL    HW193738   0.856  10.587   4.090 -1.2978  0.1623  1.2096
30577SOL    HW293739   0.995  10.542   4.048 -1.5233  0.4565  0.1233
30578SOL     OW93740   0.472   5.647  10.108 -0.0258  0.2164 -0.2662
30578SOL    HW193741   0.458   5.740  10.127 -0.1249  0.1556 -0.0420
30578SOL    HW293742   0.408   5.627  10.040 -0.9589 -0.0234  0.6444
30579SOL     OW93743   6.790   5.972   0.051  0.1699  0.3270 -0.0225
30579SOL    HW193744   6.750   5.888   0.029  0.2296  0.7386 -1.8542
30579SOL    HW293745   6.871   5.949   0.096  0.2129 -0.5987 -0.5531
30580SOL     OW93746   3.839  10.415   9.554 -0.2914  0.2891 -0.5176
30580SOL    HW193747   3.891  10.406   9.634 -0.9365 -1.0855 -0.2192
30580SOL    HW293748   3.904  10.415   9.484  0.2539  1.0394 -0.0263
30581SOL     OW93749  10.915   8.666   6.024 -0.1327  0.3581  0.3724
30581SOL    HW193750  10.904   8.633   6.113  0.0240  1.0586  0.6618
30581SOL    HW293751  10.970   8.744   6.035  0.8799 -0.2139 -0.4639
30582SOL     OW93752   1.181   4.149   6.103 -0.1919 -0.5498  0.3568
30582SOL    HW193753   1.175   4.201   6.023 -3.0320  1.4154  1.6602
30582SOL    HW293754   1.249   4.192   6.155 -0.1566 -0.2463  0.0589
30583SOL     OW93755  10.966   2.541   3.680 -0.2814  0.2692  0.0377
30583SOL    HW193756  10.928   2.496   3.605  0.4674  0.7106 -0.6238
30583SOL    HW293757  11.058   2.554   3.656  0.0690  0.0730  1.1912
30584SOL     OW93758   1.206   4.801  10.193 -0.4160 -0.1679 -0.0082
30584SOL    HW193759   1.134   4.779  10.134 -0.2314  0.4691 -0.4789
30584SOL    HW293760   1.222   4.894  10.179  0.9437 -0.4300 -0.4365
30585SOL     OW93761   9.688   9.370   9.661  0.2743 -1.3465 -0.6440
30585SOL    HW193762   9.658   9.429   9.592  0.4783  0.6154  0.8671
30585SOL    HW293763   9.616   9.308   9.673 -2.1338  1.4598  0.8915
30586SOL     OW93764   5.840   4.789   5.811 -0.2725 -0.4460  0.7324
30586SOL    HW193765   5.845   4.778   5.905  1.8096  0.9458  0.8466
30586SOL    HW293766   5.915   4.740   5.777 -0.9242 -0.8283 -0.1828
30587SOL     OW93767   8.315   6.785   6.505  0.8042  0.0186 -0.0680
30587SOL    HW193768   8.391   6.788   6.563  0.5697  0.1786  0.2305
30587SOL    HW293769   8.269   6.867   6.521 -0.0625 -0.5844  0.6172
30588SOL     OW93770   5.729   9.255   5.380 -0.0282  0.1647 -0.1302
30588SOL    HW193771   5.802   9.300   5.423 -0.2801  2.6617 -2.0478
30588SOL    HW293772   5.655   9.265   5.440  1.0445 -2.3467  1.8108
30589SOL     OW93773   7.871   9.095   7.369  0.0816  0.0105 -0.0329
30589SOL    HW193774   7.796   9.127   7.419  0.4333  0.5279  0.1669
30589SOL    HW293775   7.894   9.012   7.411  1.6335  1.3725  2.0266
30590SOL     OW93776   6.545   7.321   7.492  0.2067  0.0964  0.5006
30590SOL    HW193777   6.492   7.374   7.551 -0.0404 -0.6999  1.0113
30590SOL    HW293778   6.531   7.360   7.405  0.4409  1.1710  0.9246
30591SOL     OW93779   3.745   4.281   5.874 -0.0175 -0.2377  0.1193
30591SOL    HW193780   3.789   4.274   5.958  0.0150  0.9298  0.2269
30591SOL    HW293781   3.686   4.206   5.870 -0.3467 -0.0553  1.3758
30592SOL     OW93782   0.854   0.150   7.108  0.1430  0.1846  0.7009
30592SOL    HW193783   0.874   0.186   7.022 -2.8876  2.5477  0.8213
30592SOL    HW293784   0.919   0.080   7.120  1.8589  0.9736 -2.6369
30593SOL     OW93785   2.042   0.756   0.334 -0.3853  0.6153  0.1975
30593SOL    HW193786   2.058   0.679   0.279 -0.6023 -1.4111  2.7660
30593SOL    HW293787   2.129   0.788   0.357 -0.2848  0.6766 -0.2627
30594SOL     OW93788   1.076   5.983   1.209  0.4466  0.6957  0.2344
30594SOL    HW193789   1.118   5.898   1.192  1.9953  1.0824  1.7982
30594SOL    HW293790   0.983   5.966   1.199  0.8402 -0.1520 -3.7991
30595SOL     OW93791  10.864   5.759   6.942 -0.3811 -0.1382  0.2404
30595SOL    HW193792  10.786   5.810   6.919 -0.5005 -0.7776 -0.8421
30595SOL    HW293793  10.914   5.754   6.860 -0.2995 -1.6081  0.3464
30596SOL     OW93794   5.354   7.018   2.539 -0.0265  0.1074 -0.0849
30596SOL    HW193795   5.292   6.961   2.586  1.5570  0.2443  2.3244
30596SOL    HW293796   5.305   7.098   2.521 -1.5071 -0.9857 -1.2610
30597SOL     OW93797   2.360   7.735   9.964 -0.5367  0.1823  0.3283
30597SOL    HW193798   2.346   7.801   9.897 -0.1067 -1.6531 -1.6578
30597SOL    HW293799   2.281   7.738  10.018 -1.9972  0.0977 -1.7129
30598SOL     OW93800   8.617   9.968   5.258 -0.0305  0.1812 -0.4053
30598SOL    HW193801   8.614   9.875   5.280 -1.7935  0.2167 -0.3467
30598SOL    HW293802   8.539   9.983   5.205 -0.5794  1.9120  0.7883
30599SOL     OW93803   5.024   0.819   2.344 -0.2621 -0.1996 -0.2330
30599SOL    HW193804   5.022   0.791   2.253  1.7622  0.3289 -0.4848
30599SOL    HW293805   4.976   0.901   2.346  0.5917  0.3327 -1.0536
30600SOL     OW93806  10.374   9.170   6.652  0.1187  0.1271  0.9110
30600SOL    HW193807  10.291   9.210   6.625  0.4627 -1.3174 -2.8791
30600SOL    HW293808  10.441   9.226   6.614  0.7576 -0.8516  0.5794
30601SOL     OW93809   0.768   4.545   2.409 -0.1198 -0.3804  0.1671
30601SOL    HW193810   0.821   4.486   2.463  1.0761  0.2706 -0.2578
30601SOL    HW293811   0.712   4.590   2.472  2.6722  1.8775  1.2593
30602SOL     OW93812  10.254   7.172  10.488 -0.0083 -0.6026  0.2483
30602SOL    HW193813  10.251   7.105  10.557 -0.0373  1.3775  2.2846
30602SOL    HW293814  10.178   7.152  10.433 -0.9145 -1.3607  1.6872
30603SOL     OW93815   9.055   9.959   9.760 -0.3623 -0.6056 -0.5762
30603SOL    HW193816   9.136   9.925   9.722 -0.2369  0.7601 -1.5710
30603SOL    HW293817   8.993   9.961   9.687 -0.6160  0.4896 -0.3461
30604SOL     OW93818   0.549  10.722   9.768  0.0367  0.1504  0.4087
30604SOL    HW193819   0.499  10.653   9.725 -2.4024  0.5895  2.3205
30604SOL    HW293820   0.564  10.787   9.699 -2.7906  0.3428 -0.1627
30605SOL     OW93821   6.806   1.508  10.609 -0.0676 -0.5006 -0.1046
30605SOL    HW193822   6.819   1.559  10.529  1.2146  0.9671  0.9724
30605SOL    HW293823   6.826   1.418  10.584 -0.3869 -0.1850 -1.5893
30606SOL     OW93824   1.987   0.066   3.069  0.1272 -0.4895 -0.6787
30606SOL    HW193825   1.895   0.071   3.042 -0.1133 -2.9862 -0.5060
30606SOL    HW293826   1.983   0.048   3.163  0.8524  0.2602 -0.4869
30607SOL     OW93827   0.325   8.092  10.485 -0.8453  0.0031  0.3021
30607SOL    HW193828   0.278   8.139  10.416 -1.0657 -2.7266 -1.5654
30607SOL    HW293829   0.391   8.154  10.516 -0.7994  1.3841 -2.3202
30608SOL     OW93830  10.294   0.986   9.405  0.2370  1.1404 -0.1750
30608SOL    HW193831  10.291   0.932   9.325 -1.2197 -0.4895  0.9041
30608SOL    HW293832  10.211   1.034   9.404  0.1989  1.0824  0.3719
30609SOL     OW93833  10.618   4.143   1.571  0.1939 -0.1081  0.2791
30609SOL    HW193834  10.556   4.191   1.516  0.7837  0.4478  0.0766
30609SOL    HW293835  10.606   4.179   1.659  1.5098  1.3736 -0.0910
30610SOL     OW93836   6.568   5.050   5.127 -0.2044  0.1268 -0.1741
30610SOL    HW193837   6.635   5.027   5.192 -1.5171 -1.0094  0.8680
30610SOL    HW293838   6.485   5.033   5.172 -1.1843  0.3253 -1.8160
30611SOL     OW93839   7.533   9.298  10.789  0.3493  0.1461 -0.4920
30611SOL    HW193840   7.562   9.275  10.877 -1.0878  2.2248  0.6155
30611SOL    HW293841   7.479   9.224  10.762  0.2992 -0.2488  0.6440
30612SOL     OW93842   6.481   5.898  10.001  0.0616 -0.1389 -0.2542
30612SOL    HW193843   6.497   5.900  10.095  1.0039 -0.9139 -0.3792
30612SOL    HW293844   6.461   5.806   9.983 -0.5666  0.0840 -0.7555
30613SOL     OW93845   9.751   5.619   4.193  0.1068 -0.3516  0.0422
30613SOL    HW193846   9.720   5.662   4.272  3.2555  2.8720 -0.2251
30613SOL    HW293847   9.820   5.559   4.223  1.1303  0.6891 -0.1462
30614SOL     OW93848   2.669   9.552   5.079 -0.3120  0.4694  0.5541
30614SOL    HW193849   2.687   9.521   5.168  0.3495 -1.4127 -0.1892
30614SOL    HW293850   2.754   9.578   5.045 -0.1673 -0.9499 -0.2589
30615SOL     OW93851  10.062   7.721  10.734  0.4647  0.7577 -0.4180
30615SOL    HW193852  10.108   7.764  10.663 -0.8852  0.7137 -1.3488
30615SOL    HW293853  10.010   7.791  10.775 -0.9216  0.2624 -1.2730
30616SOL     OW93854   8.795   5.307   1.298  0.4587  0.0401  0.4839
30616SOL    HW193855   8.835   5.383   1.257 -0.5051  0.0671 -0.4230
30616SOL    HW293856   8.848   5.233   1.268  0.3110  0.1603 -0.0787
30617SOL     OW93857   6.189  10.890   8.230  0.8408 -0.2998  0.5224
30617SOL    HW193858   6.262  10.833   8.256  1.5401  0.1978 -0.2848
30617SOL    HW293859   6.115  10.831   8.217  1.3100 -0.9118  0.6156
30618SOL     OW93860   3.443   3.156   7.270  0.4681  0.4404  0.3063
30618SOL    HW193861   3.533   3.180   7.249  1.1269 -0.5971  1.7487
30618SOL    HW293862   3.408   3.232   7.316  0.4454  1.0192 -0.6454
30619SOL     OW93863   8.540  10.218   3.232  0.4945  0.1223 -0.1380
30619SOL    HW193864   8.598  10.149   3.265  0.8138  0.6329  0.3908
30619SOL    HW293865   8.578  10.299   3.265 -0.2205  0.5098 -0.2399
30620SOL     OW93866   2.563   8.507   0.227 -0.1460  0.4850 -0.1481
30620SOL    HW193867   2.506   8.503   0.303 -0.5323  0.8493 -0.4139
30620SOL    HW293868   2.534   8.434   0.171  1.3660 -0.9804  0.8777
30621SOL     OW93869  10.043  10.923   6.336  0.0587  0.0914  0.1757
30621SOL    HW193870  10.118  10.951   6.388 -0.9423  0.9976  1.1897
30621SOL    HW293871  10.044  10.980   6.259 -0.0305  0.6266  0.5685
30622SOL     OW93872   8.086   6.077   6.273 -0.2020  0.2670 -0.2083
30622SOL    HW193873   8.075   6.116   6.186  0.2922 -1.2612 -0.9852
30622SOL    HW293874   8.161   6.124   6.311  2.2706 -1.7370 -2.2694
30623SOL     OW93875   9.089   5.519   2.870  0.6094  0.1327  0.1080
30623SOL    HW193876   9.030   5.468   2.814  0.2366  0.4123  0.2480
30623SOL    HW293877   9.031   5.573   2.924  0.8929 -1.0683  1.6974
30624SOL     OW93878   8.850   0.651  10.484 -0.5522 -0.2003  0.7446
30624SOL    HW193879   8.883   0.561  10.488 -0.2581 -0.0664  2.1858
30624SOL    HW293880   8.929   0.705  10.477 -0.6852 -0.0250  0.5931
30625SOL     OW93881   0.756   0.583   6.114  0.6579 -0.5994 -0.1696
30625SOL    HW193882   0.757   0.630   6.197 -1.4991  2.1880 -1.5767
30625SOL    HW293883   0.745   0.491   6.140  0.4592  0.0964  2.6056
30626SOL     OW93884   2.956   5.752   9.263  0.0692  0.7785 -0.5775
30626SOL    HW193885   3.008   5.756   9.344 -1.0479 -0.1634  0.2164
30626SOL    HW293886   2.954   5.843   9.232  0.5864  1.1445  0.4083
30627SOL     OW93887   5.823   1.342   9.993 -0.1563 -1.0817  0.0400
30627SOL    HW193888   5.758   1.411   9.978  3.1726  2.3767  0.0582
30627SOL    HW293889   5.808   1.280   9.922 -2.7789  0.0416 -0.5259
30628SOL     OW93890   5.813   9.087   3.045  0.6362  0.1777 -0.2388
30628SOL    HW193891   5.816   9.183   3.053 -1.9866  0.1819  1.9443
30628SOL    HW293892   5.843   9.055   3.130  2.6755 -1.0860 -1.3392
30629SOL     OW93893   5.450   1.924  10.271  0.1844  0.1599 -0.3294
30629SOL    HW193894   5.427   1.888  10.186  1.7548  0.6475 -0.9989
30629SOL    HW293895   5.373   1.974  10.298  0.3347  1.6089 -2.3703
30630SOL     OW93896  10.009   0.651   5.219  0.3786  0.1707  0.1371
30630SOL    HW193897   9.915   0.641   5.237 -0.1427  1.1147 -1.7982
30630SOL    HW293898  10.031   0.737   5.253  0.5615 -0.0519  0.5930
30631SOL     OW93899   9.303   1.504   5.608 -0.1210  0.4073 -0.1523
30631SOL    HW193900   9.395   1.506   5.581  0.1741  0.5775  0.8178
30631SOL    HW293901   9.307   1.505   5.703 -1.1050 -0.7397 -0.0736
30632SOL     OW93902   4.568   4.213   5.660  0.4296  0.8634 -0.1291
30632SOL    HW193903   4.558   4.206   5.754  1.5287  1.6845  0.0755
30632SOL    HW293904   4.507   4.283   5.634 -1.2082 -0.5792 -0.3235
30633SOL     OW93905   4.162   6.724   1.444  0.2394 -0.4793  0.2728
30633SOL    HW193906   4.190   6.783   1.374  0.3698 -0.1208  0.6174
30633SOL    HW293907   4.228   6.655   1.446  0.3339 -0.3920  0.1590
30634SOL     OW93908   1.479   9.265   9.804  0.1960 -0.4573  0.3744
30634SOL    HW193909   1.464   9.197   9.870  1.7247 -0.1829  1.0499
30634SOL    HW293910   1.462   9.222   9.721 -0.6759 -1.1259  0.8794
30635SOL     OW93911   2.031   2.340   5.053 -0.1298 -0.0815  0.1190
30635SOL    HW193912   2.065   2.282   5.121  0.5030 -0.8138 -0.8056
30635SOL    HW293913   1.968   2.396   5.099 -0.9671 -1.6586  0.9977
30636SOL     OW93914   3.334   5.861   4.589 -0.0748  0.0049  0.4520
30636SOL    HW193915   3.291   5.877   4.672 -1.1336  2.1320 -0.4324
30636SOL    HW293916   3.412   5.917   4.590  0.4080 -0.6413  0.3483
30637SOL     OW93917   9.040   0.802   9.800 -0.0041 -0.3440  0.2278
30637SOL    HW193918   9.055   0.894   9.778 -0.1414  0.0575  1.6479
30637SOL    HW293919   8.964   0.776   9.749  1.1078 -0.2330 -1.5577
30638SOL     OW93920   1.237   8.905   8.609  0.1593 -0.3797  0.1101
30638SOL    HW193921   1.213   8.894   8.701 -1.9797 -0.4730 -0.4055
30638SOL    HW293922   1.250   9.000   8.599 -1.5349 -0.1098  0.1266
30639SOL     OW93923  10.334   4.776   1.751  0.1332 -0.7956 -0.0050
30639SOL    HW193924  10.363   4.690   1.721  1.5502 -0.6952  1.0136
30639SOL    HW293925  10.242   4.763   1.775 -0.1620 -1.5901 -1.4774
30640SOL     OW93926   4.917   3.561   7.960  0.2678 -0.4510 -0.1693
30640SOL    HW193927   4.903   3.471   7.988 -0.7215 -0.7906 -1.6721
30640SOL    HW293928   4.922   3.611   8.042  0.0293 -1.7488  0.6604
30641SOL     OW93929   0.593   6.558   4.680 -0.2403 -0.4117 -0.4192
30641SOL    HW193930   0.614   6.478   4.728  2.0287  0.4004  0.0743
30641SOL    HW293931   0.575   6.529   4.590  0.5657 -1.4806 -0.2494
30642SOL     OW93932   0.559   4.669   8.694 -0.2218 -0.6331  0.0942
30642SOL    HW193933   0.523   4.745   8.740 -0.5935 -0.6868 -0.1021
30642SOL    HW293934   0.570   4.603   8.763  0.4530 -0.2790  0.3281
30643SOL     OW93935   0.999   9.848   2.311  0.4222  0.2277 -0.1013
30643SOL    HW193936   1.018   9.941   2.300  0.6025  0.2279  0.1859
30643SOL    HW293937   0.957   9.843   2.397 -3.0953  0.5618 -1.6211
30644SOL     OW93938  10.451   0.558   1.619 -0.0886  0.3651  0.4349
30644SOL    HW193939  10.495   0.619   1.679 -1.4054  1.0176  0.7731
30644SOL    HW293940  10.391   0.613   1.569 -1.6211 -0.6730  1.0246
30645SOL     OW93941   7.974   2.202  10.461 -0.1860 -0.3636 -0.3196
30645SOL    HW193942   8.000   2.279  10.511 -0.3921  0.5080 -1.4954
30645SOL    HW293943   8.023   2.130  10.500  0.6204  0.4989  0.2993
30646SOL     OW93944   4.549   9.089   6.587  0.4331 -0.1374 -0.1852
30646SOL    HW193945   4.466   9.124   6.618 -0.1269 -0.5185 -1.1940
30646SOL    HW293946   4.572   9.021   6.651  0.2149  0.2888  0.3531
30647SOL     OW93947   0.187   1.621   7.930 -0.1031 -0.0493  0.1615
30647SOL    HW193948   0.242   1.578   7.865 -0.6422  0.3455 -0.5680
30647SOL    HW293949   0.185   1.561   8.004 -0.4497 -1.0471 -0.6494
30648SOL     OW93950   1.353   5.094   3.160  0.0563  0.6094 -0.2068
30648SOL    HW193951   1.339   5.129   3.248 -1.8715 -0.4101 -0.0570
30648SOL    HW293952   1.326   5.165   3.102  1.5237  1.3607 -0.0199
30649SOL     OW93953   8.008   9.592   0.642  0.3143  0.0035 -0.7463
30649SOL    HW193954   8.102   9.575   0.650  0.1487 -0.0372  1.9421
30649SOL    HW293955   7.985   9.641   0.720 -1.8398  0.4647 -1.5893
30650SOL     OW93956   9.285   6.622   2.282 -0.0414  0.0193  0.3580
30650SOL    HW193957   9.361   6.661   2.239 -0.1027  0.5226  0.6913
30650SOL    HW293958   9.263   6.684   2.352 -0.4008 -0.4100  0.6315
30651SOL     OW93959   0.118   5.777   1.101  0.6396 -0.0528  0.2659
30651SOL    HW193960   0.070   5.852   1.135  0.7391 -0.5390  1.5488
30651SOL    HW293961   0.092   5.772   1.009 -1.0019  0.2995  0.6621
30652SOL     OW93962   1.472   2.224  10.171 -0.1383  0.3441  0.0801
30652SOL    HW193963   1.451   2.238  10.078  1.4823 -0.0578 -0.3888
30652SOL    HW293964   1.404   2.270  10.219 -1.3013  0.1345 -1.3116
30653SOL     OW93965   9.088  10.800   8.696 -0.2511 -0.2544 -0.4588
30653SOL    HW193966   9.086  10.879   8.750 -2.6966 -0.4211 -0.1636
30653SOL    HW293967   9.033  10.822   8.621  0.6386 -1.0424 -1.3584
30654SOL     OW93968  10.423   9.125   9.538 -0.0805 -0.2411  0.5763
30654SOL    HW193969  10.508   9.105   9.498  0.0652 -0.5953  1.0510
30654SOL    HW293970  10.366   9.053   9.511 -0.0251 -0.3964  0.8691
30655SOL     OW93971   3.712   2.847   2.834  0.7749 -0.3985  0.0431
30655SOL    HW193972   3.768   2.769   2.837  0.3881 -0.6575  0.7560
30655SOL    HW293973   3.700   2.871   2.925  1.4620  0.9271 -0.1973
30656SOL     OW93974  10.083   1.089   9.082 -0.5450  0.4387  0.0739
30656SOL    HW193975  10.178   1.079   9.072 -0.3949  1.4691  0.3450
30656SOL    HW293976  10.051   1.095   8.992 -0.2557  0.8412 -0.0070
30657SOL     OW93977   0.654   4.709   2.918  0.2127  0.0758 -0.2876
30657SOL    HW193978   0.659   4.793   2.964 -0.0824  0.6169 -1.1991
30657SOL    HW293979   0.745   4.688   2.896  0.4118 -0.4453  0.9522
30658SOL     OW93980   0.943   6.294   5.346 -0.7388 -0.3398 -0.1761
30658SOL    HW193981   0.867   6.235   5.343 -0.5513 -0.5556 -1.0049
30658SOL    HW293982   1.009   6.251   5.292  0.3025 -0.5833  1.2391
30659SOL     OW93983   3.377   6.894   5.455 -0.4564  0.2734  0.8309
30659SOL    HW193984   3.414   6.967   5.504 -0.2759  0.0718  1.0024
30659SOL    HW293985   3.450   6.833   5.445 -0.3476  0.5700 -0.1946
30660SOL     OW93986   9.451   5.044   8.376  0.0394 -0.2868  0.6048
30660SOL    HW193987   9.405   5.098   8.311  0.7584 -0.3963 -0.0064
30660SOL    HW293988   9.387   5.032   8.446 -1.0914 -0.9378 -0.4862
30661SOL     OW93989   9.567   3.733   4.773 -0.2981 -0.4546  0.2592
30661SOL    HW193990   9.613   3.805   4.816 -1.5839  1.0405 -0.7579
30661SOL    HW293991   9.475   3.744   4.800 -0.5375 -1.6436 -0.0157
30662SOL     OW93992   5.778   2.713   9.918 -0.3488 -0.6193 -0.5521
30662SOL    HW193993   5.844   2.726   9.987 -1.8228 -0.0905  0.8137
30662SOL    HW293994   5.799   2.627   9.882 -0.0926 -1.3513  1.2293
30663SOL     OW93995   8.792   0.298  10.540 -0.0496  0.0833 -0.1676
30663SOL    HW193996   8.873   0.339  10.511 -0.3578  2.3645  1.9080
30663SOL    HW293997   8.784   0.322  10.632 -2.7505 -0.6177 -0.1255
30664SOL     OW93998   7.499   2.619   3.768  0.3062 -0.3253  0.6668
30664SOL    HW193999   7.414   2.665   3.771  0.3988 -0.1231  0.2072
30664SOL    HW294000   7.507   2.580   3.855 -0.1632 -0.1697  0.7873
30665SOL     OW94001   2.610   9.099   5.814  0.5679  0.7211  0.4777
30665SOL    HW194002   2.663   9.177   5.802  1.7915 -0.2178 -0.4834
30665SOL    HW294003   2.657   9.048   5.880  0.8988 -0.1083 -0.3682
30666SOL     OW94004   7.298   9.949   4.167 -0.0059 -0.2951  0.1111
30666SOL    HW194005   7.332   9.896   4.095  0.5316  3.0920 -2.3976
30666SOL    HW294006   7.206   9.923   4.174 -0.2348 -0.3243 -2.2713
30667SOL     OW94007   7.312   8.212   7.718  0.0333  0.1026 -0.0267
30667SOL    HW194008   7.406   8.225   7.733  0.1697  2.3253 -2.1623
30667SOL    HW294009   7.270   8.283   7.767 -0.3084  0.6255 -1.0476
30668SOL     OW94010   8.755   5.773   9.194  0.4645  0.3970 -0.4376
30668SOL    HW194011   8.678   5.813   9.233  1.0375  0.4417  0.7034
30668SOL    HW294012   8.809   5.847   9.166  0.5065  0.3902 -0.3777
30669SOL     OW94013   0.158   3.922   3.205  0.7408 -0.2781 -0.1469
30669SOL    HW194014   0.110   3.896   3.284 -0.7646  0.4008 -0.8034
30669SOL    HW294015   0.158   4.018   3.207  0.5800 -0.2527 -1.0347
30670SOL     OW94016   2.635   4.035   4.136 -0.4651  0.0775 -0.8196
30670SOL    HW194017   2.677   3.957   4.100  0.0542  0.4719 -1.1095
30670SOL    HW294018   2.658   4.104   4.073 -1.4571  0.3374 -0.9122
30671SOL     OW94019   8.767   7.707   7.057 -0.2406 -0.0670 -0.2688
30671SOL    HW194020   8.822   7.659   6.996  0.9456 -1.3695  1.7139
30671SOL    HW294021   8.745   7.788   7.011  0.1594 -1.1901 -2.5668
30672SOL     OW94022   3.638  10.471  10.089 -0.1418 -0.6024  0.2663
30672SOL    HW194023   3.585  10.433  10.019  0.4365  0.3831 -0.7412
30672SOL    HW294024   3.705  10.521  10.043 -0.0361  0.4503  1.5248
30673SOL     OW94025  10.587   4.876   9.728  0.1556  0.5785 -0.0841
30673SOL    HW194026  10.497   4.844   9.726  0.4908 -0.4783  0.6543
30673SOL    HW294027  10.641   4.800   9.705  0.8872  1.0807 -0.0911
30674SOL     OW94028   7.069   3.698   3.530  0.2027  0.0336 -0.0360
30674SOL    HW194029   7.003   3.758   3.564 -0.2641 -0.6254  0.2496
30674SOL    HW294030   7.056   3.617   3.580  0.6198 -0.4035 -0.6162
30675SOL     OW94031   6.215   7.070   0.883 -0.3217  0.0862 -0.0029
30675SOL    HW194032   6.253   7.040   0.965 -2.3534  1.3871  1.5257
30675SOL    HW294033   6.257   7.155   0.867  0.0648 -0.1612 -0.3386
30676SOL     OW94034   0.219   9.008   4.343 -0.2028  0.0134 -0.2188
30676SOL    HW194035   0.128   9.038   4.343  0.6605  3.4004  3.5341
30676SOL    HW294036   0.261   9.062   4.276 -0.7397 -1.2673 -1.6653
30677SOL     OW94037   7.210   2.020   2.161 -0.1907 -0.0353  0.6013
30677SOL    HW194038   7.161   2.101   2.146  0.1143  0.0047 -0.2162
30677SOL    HW294039   7.302   2.048   2.160  0.0272 -0.6518 -1.6062
30678SOL     OW94040   9.936   9.009   1.758 -0.0872  0.3029  0.1381
30678SOL    HW194041   9.978   9.087   1.794 -0.9730  0.4467  0.8908
30678SOL    HW294042   9.847   9.010   1.794 -1.2205  0.7200 -2.4722
30679SOL     OW94043   0.912   2.482   1.776  0.2085  0.6612  0.0408
30679SOL    HW194044   0.887   2.405   1.826  1.5099  1.2195  1.6475
30679SOL    HW294045   0.832   2.535   1.773  0.0345  0.5092  1.3638
30680SOL     OW94046   1.366   5.432   4.901  0.0970 -0.2354  0.1248
30680SOL    HW194047   1.437   5.428   4.837 -0.1303 -1.0902 -0.0874
30680SOL    HW294048   1.308   5.359   4.877 -0.6909  0.2647  0.4809
30681SOL     OW94049   0.175   9.446   3.749  0.6466 -0.2861 -0.2070
30681SOL    HW194050   0.111   9.387   3.709  0.2584  0.3108 -0.4859
30681SOL    HW294051   0.150   9.533   3.718  0.2618  0.2140  1.4050
30682SOL     OW94052   2.119   4.645   6.985  0.1181 -0.0945  0.3372
30682SOL    HW194053   2.152   4.653   7.075  0.0437  0.8968  0.2830
30682SOL    HW294054   2.192   4.673   6.930 -0.5822  1.5322  0.1905
30683SOL     OW94055   0.568   3.904   2.498 -0.8567  0.0606  0.5148
30683SOL    HW194056   0.646   3.896   2.443 -1.0453 -1.7709  0.4726
30683SOL    HW294057   0.561   3.998   2.515  1.0050  0.3346  0.0194
30684SOL     OW94058   0.188   3.709  11.019 -0.3956  0.5075 -0.0288
30684SOL    HW194059   0.254   3.722  10.951  0.1520  0.5808  0.5084
30684SOL    HW294060   0.156   3.797  11.039  0.9639  0.7476  1.2880
30685SOL     OW94061   1.333   7.993   1.551  0.4624 -0.2370 -0.2211
30685SOL    HW194062   1.404   7.946   1.508  1.6154 -0.2407  1.6158
30685SOL    HW294063   1.359   8.085   1.548  0.6218 -0.2507  0.5660
30686SOL     OW94064  10.864   6.069   2.305 -0.0874 -0.3424  0.4677
30686SOL    HW194065  10.867   6.099   2.214 -0.7993 -1.0823  0.1980
30686SOL    HW294066  10.773   6.081   2.332  0.2942  0.7137  1.3870
30687SOL     OW94067   6.275   9.876   0.370  0.2240  0.4802 -0.5428
30687SOL    HW194068   6.240   9.944   0.427 -1.9560  0.8037 -2.1375
30687SOL    HW294069   6.309   9.810   0.430  0.1437  1.8435  1.0738
30688SOL     OW94070  10.786   7.688   9.670 -0.3992  0.3165  0.6002
30688SOL    HW194071  10.702   7.644   9.661 -0.6593  0.6728  1.2472
30688SOL    HW294072  10.775   7.746   9.746  0.5299  0.1252  0.8896
30689SOL     OW94073   3.648   5.509   4.264  0.4941 -0.3220 -0.3122
30689SOL    HW194074   3.588   5.434   4.269  2.0369 -1.5803  1.9140
30689SOL    HW294075   3.725   5.475   4.218  0.8863  0.1249 -0.0037
30690SOL     OW94076   3.776   7.830   5.412  0.6952  0.2423 -0.1443
30690SOL    HW194077   3.756   7.756   5.470 -1.5652  1.0011  0.1635
30690SOL    HW294078   3.770   7.907   5.469  0.4172  0.8482 -0.9674
30691SOL     OW94079   2.654   8.680   6.935 -0.4509 -0.2878 -0.5923
30691SOL    HW194080   2.692   8.768   6.939  0.9648 -0.7702 -2.3725
30691SOL    HW294081   2.585   8.687   6.869 -1.6019 -0.1104  0.5900
30692SOL     OW94082   4.125   8.665   0.854  0.1358 -0.6215  0.0027
30692SOL    HW194083   4.046   8.617   0.879 -0.3616 -1.3651 -2.6417
30692SOL    HW294084   4.185   8.598   0.821  1.4538  0.0730  0.8564
30693SOL     OW94085  10.836   5.163   7.435  0.4554  0.8770  0.3997
30693SOL    HW194086  10.755   5.131   7.475  0.8624 -2.0319 -0.8406
30693SOL    HW294087  10.863   5.236   7.491 -2.0953  0.8495  1.8373
30694SOL     OW94088   3.309   1.218   7.333  0.3263 -0.0107  0.0613
30694SOL    HW194089   3.353   1.192   7.252 -0.0809  0.0643 -0.1838
30694SOL    HW294090   3.291   1.311   7.322 -1.0016 -0.2949 -0.3677
30695SOL     OW94091   2.894   2.583   2.035  0.1698  0.0602 -0.0887
30695SOL    HW194092   2.924   2.611   1.948 -0.6986 -1.4693 -0.9224
30695SOL    HW294093   2.801   2.564   2.023 -0.3153  1.2453  1.5616
30696SOL     OW94094   2.438   8.255   3.558 -0.0961  0.5945 -0.3813
30696SOL    HW194095   2.518   8.212   3.589 -1.0636 -0.4632  0.7172
30696SOL    HW294096   2.412   8.205   3.482 -0.5178  0.0235  0.1361
30697SOL     OW94097   5.596   2.367   2.774 -0.1607 -0.2592  0.2597
30697SOL    HW194098   5.644   2.442   2.738  2.7911 -2.1347 -0.0457
30697SOL    HW294099   5.580   2.391   2.865  2.0187  0.2427  0.5664
30698SOL     OW94100   3.765   6.838   0.021  1.0570 -0.0785  0.3703
30698SOL    HW194101   3.832   6.771   0.035  0.2578 -1.6654 -2.6337
30698SOL    HW294102   3.687   6.803   0.064  1.4767  0.5826  1.7104
30699SOL     OW94103   5.411   7.459   5.421  0.7865  0.1323  0.6348
30699SOL    HW194104   5.408   7.464   5.516 -0.3835 -1.6010  0.7436
30699SOL    HW294105   5.398   7.366   5.401  0.0685  0.5719 -1.2248
30700SOL     OW94106   5.375   0.299   5.469  0.0644  0.5469  0.2507
30700SOL    HW194107   5.418   0.214   5.465 -1.0142 -0.1294  1.9425
30700SOL    HW294108   5.300   0.291   5.411  0.5070  0.6947 -0.3501
30701SOL     OW94109  10.923   9.980   2.645  0.0980 -0.1870 -0.4049
30701SOL    HW194110  10.935  10.060   2.593 -0.7416  1.1760  1.3998
30701SOL    HW294111  10.843   9.996   2.696  0.0585 -2.0796  0.1907
30702SOL     OW94112  10.911   6.994   9.358  0.0604 -0.6450  0.2492
30702SOL    HW194113  10.893   6.966   9.268  0.7746  1.1660 -0.5238
30702SOL    HW294114  11.006   6.986   9.367 -0.0217 -0.9031  0.8643
30703SOL     OW94115   3.479   6.504  10.731  0.2911  0.1166 -0.2459
30703SOL    HW194116   3.569   6.514  10.762 -0.2106  2.0618  0.7604
30703SOL    HW294117   3.447   6.594  10.721 -0.8270 -0.4705 -2.8667
30704SOL     OW94118   8.337   7.768   0.612  0.3604 -0.0390  0.4250
30704SOL    HW194119   8.352   7.836   0.677 -0.3623  1.5060 -0.9562
30704SOL    HW294120   8.321   7.815   0.531  2.0577 -1.9132 -1.1027
30705SOL     OW94121   3.865   6.563   4.537  0.3068  0.0762  0.2049
30705SOL    HW194122   3.850   6.632   4.472  3.3686  0.1592 -0.5704
30705SOL    HW294123   3.840   6.482   4.493 -0.0578  0.3628 -0.1255
30706SOL     OW94124   3.068   2.912   2.676  0.0892 -0.2674 -0.1867
30706SOL    HW194125   3.126   2.883   2.747  0.1567 -2.2911 -0.9986
30706SOL    HW294126   3.069   2.839   2.613 -3.2235 -0.3655 -0.3027
30707SOL     OW94127   0.365   7.413  10.396 -0.2803 -0.0475 -0.8702
30707SOL    HW194128   0.454   7.448  10.394 -0.1792 -0.2270  0.1037
30707SOL    HW294129   0.331   7.428  10.308  0.3221  1.0335 -0.9385
30708SOL     OW94130   2.597   4.684   1.130  0.0002  0.1162  0.0217
30708SOL    HW194131   2.581   4.777   1.110 -0.4991 -0.2622 -1.4650
30708SOL    HW294132   2.585   4.678   1.225  0.8853  1.7297  0.2681
30709SOL     OW94133   7.691   7.145   9.860 -0.2492 -0.1768 -0.4329
30709SOL    HW194134   7.670   7.239   9.858 -1.4903 -0.4472 -1.2010
30709SOL    HW294135   7.627   7.108   9.922  0.3324 -0.5017 -0.0203
30710SOL     OW94136   1.128   6.598   8.649 -0.2533  0.0427 -0.5201
30710SOL    HW194137   1.223   6.589   8.637 -0.0784 -1.6258  1.5824
30710SOL    HW294138   1.090   6.543   8.581  0.3412 -0.2278 -0.6418
30711SOL     OW94139   7.768   1.384   5.086 -0.6877 -0.5564 -0.5763
30711SOL    HW194140   7.814   1.460   5.052 -0.0831 -0.9266 -0.5898
30711SOL    HW294141   7.723   1.347   5.010 -1.8219  0.3538 -0.3894
30712SOL     OW94142   8.327   5.693   9.096  0.0968 -0.0933  0.4082
30712SOL    HW194143   8.398   5.644   9.053 -0.6103 -0.0101 -0.9164
30712SOL    HW294144   8.366   5.779   9.114  0.1336  0.2401 -1.0795
30713SOL     OW94145   8.172   7.491  10.637  0.0229  0.1714 -0.3203
30713SOL    HW194146   8.207   7.530  10.717 -1.5258  1.3321 -0.1703
30713SOL    HW294147   8.167   7.564  10.575 -2.2897  0.1165 -0.2510
30714SOL     OW94148   8.409  10.337   4.938 -0.5767 -0.1344 -0.5243
30714SOL    HW194149   8.494  10.315   4.978  0.4168  1.2115 -1.8010
30714SOL    HW294150   8.355  10.366   5.011  0.6760  0.7467  0.0787
30715SOL     OW94151   8.519   9.235  10.779 -0.1461  0.0823 -0.2342
30715SOL    HW194152   8.510   9.205  10.688 -2.1315 -0.3689  0.0520
30715SOL    HW294153   8.456   9.182  10.828  1.0110  0.1835  1.4638
30716SOL     OW94154   4.625   5.794   3.910  0.2577  0.0493 -0.1076
30716SOL    HW194155   4.662   5.862   3.853 -0.4933  2.1348  1.7283
30716SOL    HW294156   4.695   5.773   3.971  0.1726 -0.1273 -0.0694
30717SOL     OW94157   3.466  10.262   8.079 -0.4433 -0.6084  0.8627
30717SOL    HW194158   3.493  10.184   8.031 -4.1004 -0.1502 -2.4882
30717SOL    HW294159   3.400  10.231   8.141 -0.7898 -0.3846  0.6092
30718SOL     OW94160  10.896   3.408   0.730  0.5211 -0.3527 -0.2115
30718SOL    HW194161  10.876   3.462   0.806  0.9414  0.3172 -0.5679
30718SOL    HW294162  10.861   3.456   0.655 -1.4329 -1.8182 -0.3138
30719SOL     OW94163  10.259   5.285   8.632 -0.5715  0.7693 -0.3765
30719SOL    HW194164  10.197   5.284   8.705 -1.0672  0.2297 -0.7863
30719SOL    HW294165  10.207   5.316   8.557 -0.4169  0.0979 -0.7742
30720SOL     OW94166   2.397   7.830   4.251 -0.2930 -0.3976 -0.2149
30720SOL    HW194167   2.466   7.892   4.230 -0.2538 -0.3434  0.0614
30720SOL    HW294168   2.441   7.746   4.257  0.4659  0.0916  3.4633
30721SOL     OW94169   8.748   5.109   2.530  0.2741 -0.2508 -0.7405
30721SOL    HW194170   8.820   5.053   2.499 -0.2032 -0.9185 -0.6557
30721SOL    HW294171   8.716   5.065   2.609 -0.5012 -0.1775 -1.0111
30722SOL     OW94172   2.891   4.165   2.323  0.4854 -0.0978  0.2114
30722SOL    HW194173   2.861   4.214   2.246  1.9909 -0.3815 -0.6043
30722SOL    HW294174   2.817   4.109   2.346 -0.4497  0.8982 -0.2391
30723SOL     OW94175   9.568   0.981   4.634  0.1808  0.0565  0.6305
30723SOL    HW194176   9.593   1.063   4.678 -0.6467  0.2582  0.7424
30723SOL    HW294177   9.650   0.948   4.597  0.8627  0.0235  2.0827
30724SOL     OW94178   2.570   7.407   7.048  0.3697 -0.3148  0.0288
30724SOL    HW194179   2.580   7.322   7.091 -1.6544 -1.2240 -1.1566
30724SOL    HW294180   2.565   7.470   7.120 -0.0499 -1.4232  1.0020
30725SOL     OW94181   4.539   7.818   5.262 -0.4396 -0.2424 -0.1095
30725SOL    HW194182   4.560   7.877   5.190 -0.2826  0.3423  0.3999
30725SOL    HW294183   4.479   7.869   5.317 -0.9442 -0.8583 -0.0829
30726SOL     OW94184   7.316   1.408   8.492 -0.5719  0.2264 -0.1052
30726SOL    HW194185   7.236   1.421   8.543 -2.2350 -2.5705 -1.7599
30726SOL    HW294186   7.316   1.478   8.428 -1.6269  0.3468  0.0175
30727SOL     OW94187   8.962   6.108   0.475  0.0044 -0.5066  0.0561
30727SOL    HW194188   8.932   6.116   0.384  0.1386 -1.4444 -0.0757
30727SOL    HW294189   8.885   6.078   0.523 -0.2945  0.7584  0.4198
30728SOL     OW94190   0.043   1.652   0.481 -0.1587  0.1399  0.1955
30728SOL    HW194191   0.064   1.568   0.439  0.9783  0.4377  0.1304
30728SOL    HW294192   0.026   1.711   0.408  1.3379  0.5336  0.1259
30729SOL     OW94193   6.322  10.571   4.008 -0.4460 -0.0302  0.1706
30729SOL    HW194194   6.349  10.481   4.026 -1.1822 -0.1320  0.8438
30729SOL    HW294195   6.312  10.611   4.094 -2.4664 -0.0319 -0.0157
30730SOL     OW94196   6.410   2.361   9.695  0.8755 -0.3196  0.1349
30730SOL    HW194197   6.497   2.323   9.708  0.6167 -1.7517 -1.8746
30730SOL    HW294198   6.405   2.378   9.601 -0.9236 -0.0288  0.2427
30731SOL     OW94199   5.086   3.972   1.087  0.1128  0.0549 -0.2465
30731SOL    HW194200   5.145   4.027   1.035 -0.2913 -0.1102 -0.8867
30731SOL    HW294201   5.004   4.020   1.089  0.5016  0.7305  1.4245
30732SOL     OW94202   5.200   9.483   9.219 -0.1895 -0.1548 -0.1359
30732SOL    HW194203   5.177   9.512   9.307  1.7385  0.4167  0.2210
30732SOL    HW294204   5.293   9.502   9.210 -0.2529 -0.5036 -2.1926
30733SOL     OW94205   5.083   2.197   2.862  0.7343 -0.0558  0.0537
30733SOL    HW194206   5.101   2.196   2.956  1.0710  0.0283 -0.0075
30733SOL    HW294207   5.098   2.288   2.836  0.9963 -0.1549 -0.1467
30734SOL     OW94208   7.803   7.816  10.416 -0.1346 -0.1458  0.5212
30734SOL    HW194209   7.860   7.812  10.492 -0.4635  0.6537  0.8199
30734SOL    HW294210   7.760   7.730  10.414  0.0482 -0.2553  1.0991
30735SOL     OW94211   8.125   4.025   0.468  0.5301 -0.6281  0.3738
30735SOL    HW194212   8.129   4.008   0.374 -0.0312  0.2309  0.1859
30735SOL    HW294213   8.050   3.975   0.498  0.7474 -0.9530  0.3847
30736SOL     OW94214   1.932   8.368   1.010  0.0032  0.1993 -0.1281
30736SOL    HW194215   1.896   8.456   1.022 -2.1801 -0.3317 -2.2010
30736SOL    HW294216   1.985   8.375   0.931  1.2560 -0.0121  0.6559
30737SOL     OW94217   3.875   2.636   9.937 -0.4888  0.0367  0.3470
30737SOL    HW194218   3.793   2.597   9.966 -1.2286  1.4532  0.2863
30737SOL    HW294219   3.872   2.726   9.970  1.7303 -0.2776  1.6301
30738SOL     OW94220  10.159   8.131   2.188  0.4940 -0.5403 -0.1813
30738SOL    HW194221  10.112   8.053   2.158  0.2671 -0.2114 -0.7023
30738SOL    HW294222  10.229   8.142   2.123  0.4165 -0.2102 -0.2083
30739SOL     OW94223   0.306   4.684   3.287 -0.2953  0.3034  0.3734
30739SOL    HW194224   0.315   4.778   3.302 -0.1892  1.2167 -4.1146
30739SOL    HW294225   0.395   4.651   3.291 -0.0202  0.9069 -0.4671
30740SOL     OW94226   9.083   8.914   2.899  0.3727 -0.1328  0.0482
30740SOL    HW194227   9.026   8.907   2.823 -2.2026  0.3551  1.7834
30740SOL    HW294228   9.143   8.986   2.878 -1.1680  0.9162 -1.0122
30741SOL     OW94229   0.207   7.799   8.016  0.1170  0.3398 -0.2198
30741SOL    HW194230   0.291   7.836   7.989  0.2232 -0.8239 -1.6005
30741SOL    HW294231   0.161   7.781   7.934 -0.5296 -1.1704  0.4441
30742SOL     OW94232   0.732  10.115   6.821 -0.0355  0.2131 -0.3423
30742SOL    HW194233   0.700  10.094   6.734  0.7945  1.8674 -1.0895
30742SOL    HW294234   0.806  10.175   6.806  0.6051 -0.0520  1.4645
30743SOL     OW94235   3.136   3.409   1.709  0.2300  0.2078  0.2593
30743SOL    HW194236   3.140   3.348   1.782  3.5392 -1.1448 -0.8656
30743SOL    HW294237   3.097   3.359   1.637 -1.1797  0.9210  0.4792
30744SOL     OW94238   5.592   7.373   4.255  0.4646 -0.0451 -0.3829
30744SOL    HW194239   5.596   7.306   4.323  1.6595 -0.7539 -1.1071
30744SOL    HW294240   5.577   7.324   4.174  0.7052  0.6266 -0.8454
30745SOL     OW94241   2.856   0.009   0.597  0.5679  0.2029 -0.0272
30745SOL    HW194242   2.862  -0.081   0.564  1.0931  0.2239 -0.0036
30745SOL    HW294243   2.913   0.011   0.673 -0.6359  0.1617  0.9040
30746SOL     OW94244   2.066   9.469   4.730  0.3570  0.8818  0.0093
30746SOL    HW194245   2.104   9.417   4.801  4.2247  2.9526 -0.2936
30746SOL    HW294246   1.995   9.518   4.772  1.6199  1.0163  2.1368
30747SOL     OW94247   6.762   7.079   7.333  0.6383  0.1996 -0.2809
30747SOL    HW194248   6.782   7.044   7.246 -0.4064 -0.1065 -0.4092
30747SOL    HW294249   6.759   7.174   7.320 -1.8275  0.0655 -1.1213
30748SOL     OW94250  10.380   7.205   9.428 -0.1788 -0.6608 -0.2648
30748SOL    HW194251  10.390   7.300   9.424 -0.6173 -0.6250 -0.6478
30748SOL    HW294252  10.285   7.191   9.432 -0.1445 -1.0908 -0.7417
30749SOL     OW94253   7.776   4.560   7.111  0.1720  0.6395 -0.1987
30749SOL    HW194254   7.682   4.569   7.129  0.0149 -1.4397  0.2652
30749SOL    HW294255   7.788   4.468   7.089  2.0485  0.9674 -0.7372
30750SOL     OW94256   4.491   7.016   7.503 -0.5468  0.0450  0.0919
30750SOL    HW194257   4.569   6.964   7.480 -0.5194 -0.3832  1.1036
30750SOL    HW294258   4.428   6.952   7.536 -0.8211  0.5537  0.5717
30751SOL     OW94259   3.983   3.798  10.798 -0.4149 -0.0238 -0.2791
30751SOL    HW194260   4.031   3.744  10.861 -0.6423 -0.3884 -0.4187
30751SOL    HW294261   3.929   3.736  10.749  0.0253  0.2056 -1.0741
30752SOL     OW94262   9.340   0.505   7.555  0.2738  0.3799 -0.6387
30752SOL    HW194263   9.428   0.542   7.548  0.9526 -1.1901 -0.9267
30752SOL    HW294264   9.352   0.412   7.534 -1.3684  0.0253 -0.1297
30753SOL     OW94265   4.636  10.850   4.190  0.5945 -0.3875 -0.6868
30753SOL    HW194266   4.722  10.890   4.172 -0.1839  1.0824 -1.3017
30753SOL    HW294267   4.615  10.878   4.279  2.1784 -3.5147  0.8441
30754SOL     OW94268   9.366  10.099  10.849 -0.4490 -0.6385  0.0491
30754SOL    HW194269   9.461  10.103  10.834 -0.0903  1.0497  2.2951
30754SOL    HW294270   9.327  10.105  10.762  1.4788  0.1942 -0.8001
30755SOL     OW94271   0.882   2.321   7.985 -0.5697 -0.4192 -0.2419
30755SOL    HW194272   0.845   2.292   7.901 -0.6294 -0.8388 -0.0730
30755SOL    HW294273   0.832   2.274   8.051 -0.5470 -0.0596  0.0338
30756SOL     OW94274   9.956   8.482   4.867 -0.6106 -0.2362  0.2360
30756SOL    HW194275  10.015   8.409   4.846 -0.9292 -0.3602 -0.2445
30756SOL    HW294276   9.873   8.458   4.826 -1.1103 -0.2479  1.2340
30757SOL     OW94277   1.344   0.816   2.280  0.6418  1.1380 -0.0581
30757SOL    HW194278   1.316   0.731   2.246  1.0574  0.8141  0.3855
30757SOL    HW294279   1.266   0.852   2.321  0.3688  1.1363 -0.5661
30758SOL     OW94280   4.409   3.446   2.249  0.0193  0.0821  0.2382
30758SOL    HW194281   4.377   3.409   2.331  0.7887  1.8730  1.3975
30758SOL    HW294282   4.335   3.498   2.216 -0.9627 -2.0931 -1.2493
30759SOL     OW94283   0.069   3.577   0.521  0.1510 -0.3604  0.4415
30759SOL    HW194284   0.006   3.615   0.583  0.9170 -2.5254  2.7168
30759SOL    HW294285   0.107   3.503   0.568  1.1222 -1.8999 -2.5117
30760SOL     OW94286   3.193   1.946   6.699  0.0228 -0.0643  0.2663
30760SOL    HW194287   3.144   1.938   6.617  0.8474  2.4505 -0.5911
30760SOL    HW294288   3.284   1.929   6.674  0.3227  1.0210  0.5553
30761SOL     OW94289   4.023   0.934   4.068 -0.4222 -0.3483  0.5868
30761SOL    HW194290   4.033   0.846   4.030  0.4460  0.6618 -1.6881
30761SOL    HW294291   3.934   0.960   4.045 -1.0303 -0.9559  2.1105
30762SOL     OW94292   5.771   5.614   4.227 -0.1118  0.2547  0.2894
30762SOL    HW194293   5.800   5.665   4.303 -0.1525  2.1496 -0.9022
30762SOL    HW294294   5.686   5.578   4.253  0.0219  0.6057  1.2601
30763SOL     OW94295   0.161   7.304   7.601 -0.0039 -0.1957  0.1410
30763SOL    HW194296   0.198   7.392   7.596 -0.3691  0.0203  1.0521
30763SOL    HW294297   0.129   7.287   7.513 -1.4748  1.2867  0.3378
30764SOL     OW94298   2.955  10.918   7.228 -0.5567  0.2747 -0.0826
30764SOL    HW194299   3.012  10.952   7.297  0.6532 -1.3131 -0.2408
30764SOL    HW294300   2.993  10.952   7.147 -0.6111  0.2625 -0.1133
30765SOL     OW94301   6.135   9.648   9.657  0.8986 -0.1789 -0.6499
30765SOL    HW194302   6.151   9.741   9.641  1.0091 -0.3789 -1.7352
30765SOL    HW294303   6.040   9.642   9.668  0.4860 -0.3244 -3.5166
30766SOL     OW94304   6.808   7.354   8.597  0.2775  0.4251  0.0064
30766SOL    HW194305   6.787   7.382   8.508  3.0646 -0.2808 -0.9875
30766SOL    HW294306   6.746   7.283   8.614 -1.5346  1.7705 -0.5683
30767SOL     OW94307  10.723   7.474   5.360 -0.6451  0.2765  0.6315
30767SOL    HW194308  10.703   7.408   5.294  0.3607  0.9831 -0.3979
30767SOL    HW294309  10.682   7.554   5.328  0.9700  0.9435  0.1678
30768SOL     OW94310   9.142   0.840   5.584  0.6184  0.3779  0.3227
30768SOL    HW194311   9.088   0.763   5.570 -0.6839  1.1397  0.9791
30768SOL    HW294312   9.139   0.855   5.679  1.0688  1.0851  0.2352
30769SOL     OW94313   1.244   1.210   8.275 -0.7452  0.1276 -0.2956
30769SOL    HW194314   1.226   1.268   8.350 -0.8189 -0.7375  0.3692
30769SOL    HW294315   1.158   1.183   8.244 -0.7925  1.7729 -1.7642
30770SOL     OW94316   3.277   0.503   3.064  0.0856 -0.0668  0.1927
30770SOL    HW194317   3.241   0.560   3.132 -0.0316  0.8308 -0.5995
30770SOL    HW294318   3.361   0.544   3.040  0.9106 -1.2823  0.9378
30771SOL     OW94319   9.644   7.425  10.527 -0.6587 -0.0382  0.2817
30771SOL    HW194320   9.718   7.468  10.570  0.4155 -2.8204  1.4582
30771SOL    HW294321   9.581   7.409  10.597 -0.1860 -1.9751  0.3257
30772SOL     OW94322   5.012   4.624  10.617 -0.4029 -0.0631  0.3024
30772SOL    HW194323   5.072   4.554  10.642 -1.0690 -0.6457  0.2908
30772SOL    HW294324   4.981   4.600  10.530 -0.9130  0.0562  0.4493
30773SOL     OW94325   7.786   1.622   4.514  0.4706  0.1271 -0.2408
30773SOL    HW194326   7.784   1.644   4.607  3.5698 -2.3490  0.6203
30773SOL    HW294327   7.859   1.674   4.479 -0.7419  1.1264 -1.3544
30774SOL     OW94328   8.555   4.939   9.392 -0.1696  0.4456 -0.3357
30774SOL    HW194329   8.594   5.026   9.392  0.1332  0.3120  0.0337
30774SOL    HW294330   8.461   4.955   9.403 -0.1792  0.7507 -0.8333
30775SOL     OW94331   1.924  10.785   8.650  0.2564  0.3845  0.1687
30775SOL    HW194332   1.934  10.690   8.649  1.9157  0.4355  2.9437
30775SOL    HW294333   1.832  10.799   8.675 -0.1029 -0.4410 -0.6265
30776SOL     OW94334   1.271   2.294   1.416  0.1539  0.2874 -0.2724
30776SOL    HW194335   1.189   2.334   1.387  1.6969  1.1191 -4.0573
30776SOL    HW294336   1.259   2.200   1.401 -0.6135  0.2303  0.6614
30777SOL     OW94337   0.215   1.724   3.802  0.4901  0.0181  0.0664
30777SOL    HW194338   0.213   1.632   3.774 -1.2625 -0.0116  0.1986
30777SOL    HW294339   0.308   1.748   3.796  0.8653 -1.4819 -0.8505
30778SOL     OW94340   9.032   6.164   3.725 -0.3542  0.3115 -0.4759
30778SOL    HW194341   9.064   6.117   3.648 -1.0204  0.3888 -0.8148
30778SOL    HW294342   9.043   6.103   3.797  0.1893  0.2010 -0.6477
30779SOL     OW94343   1.994   1.792  10.484  0.7639  0.1928 -0.6997
30779SOL    HW194344   1.941   1.788  10.563 -0.0003 -3.1376 -1.2340
30779SOL    HW294345   1.991   1.884  10.458 -0.4264  1.0655  2.1121
30780SOL     OW94346   8.999   6.137   9.275  0.3064 -0.1509 -0.0072
30780SOL    HW194347   9.080   6.175   9.311  0.3250 -1.4086  1.3576
30780SOL    HW294348   9.030   6.076   9.207  0.3853  0.6586 -0.7165
30781SOL     OW94349   5.505   5.242  10.506  0.6784  0.4906  0.2404
30781SOL    HW194350   5.421   5.265  10.547 -1.0217 -1.3153 -1.9870
30781SOL    HW294351   5.507   5.294  10.425  1.2025 -0.2400 -0.2303
30782SOL     OW94352  10.744   9.267   0.701 -0.6838 -0.0019 -0.1176
30782SOL    HW194353  10.701   9.285   0.785 -0.8898  0.4102 -0.3071
30782SOL    HW294354  10.828   9.227   0.725 -0.7930  0.0014  0.2807
30783SOL     OW94355   5.201   2.155   7.529  0.0627  0.0881 -0.1647
30783SOL    HW194356   5.220   2.140   7.437 -1.7060  2.3578 -0.9992
30783SOL    HW294357   5.106   2.158   7.534  0.1059 -0.1090  1.7912
30784SOL     OW94358   2.304  10.037   1.379 -0.4222  0.3292  0.5875
30784SOL    HW194359   2.229  10.032   1.320 -0.2900 -0.3984  0.4752
30784SOL    HW294360   2.376  10.066   1.324 -0.2314 -0.6321  0.3176
30785SOL     OW94361   7.388   8.389   0.922 -0.1990 -0.1012 -0.0376
30785SOL    HW194362   7.334   8.377   0.844 -1.2642  2.4902  0.1897
30785SOL    HW294363   7.400   8.484   0.927  2.1006 -0.4091  1.4859
30786SOL     OW94364   0.447   7.410   7.163  0.1809  0.5173 -0.3325
30786SOL    HW194365   0.466   7.415   7.069 -0.8398  0.5192 -0.5465
30786SOL    HW294366   0.465   7.319   7.186  0.7235  0.5884 -0.4646
30787SOL     OW94367   5.699   3.555   3.051  0.0948 -0.0475 -0.0182
30787SOL    HW194368   5.716   3.586   3.140 -2.3346 -0.2447  0.5855
30787SOL    HW294369   5.743   3.469   3.047 -1.5934 -1.0798  1.8144
30788SOL     OW94370   5.483   7.350   0.273  0.6002  0.3300 -0.2420
30788SOL    HW194371   5.475   7.293   0.197  0.7492  0.2877 -0.2255
30788SOL    HW294372   5.521   7.295   0.342  1.0868  0.5437 -0.3355
30789SOL     OW94373  10.135   8.267  10.145  0.1741 -0.0635 -0.0589
30789SOL    HW194374  10.130   8.213  10.224 -0.9941  0.9788  0.6076
30789SOL    HW294375  10.071   8.227  10.085 -1.8269  1.4010  0.9959
30790SOL     OW94376   2.262   0.596   5.100 -0.1760  0.2558 -0.6994
30790SOL    HW194377   2.278   0.656   5.173  0.3623 -0.3959 -0.2684
30790SOL    HW294378   2.168   0.599   5.087 -0.3038  0.2252  0.1628
30791SOL     OW94379   3.926   7.343   7.730  0.3048  0.0321 -0.1549
30791SOL    HW194380   3.919   7.324   7.637  1.3457  0.6832 -0.3894
30791SOL    HW294381   3.836   7.358   7.759  0.0129  0.2493 -1.1477
30792SOL     OW94382  10.111   5.220   4.643  0.5450  0.0597  0.1515
30792SOL    HW194383  10.053   5.293   4.623 -0.2989 -0.8204 -0.6830
30792SOL    HW294384  10.103   5.161   4.568  0.5900 -1.2830  1.1587
30793SOL     OW94385   9.207   0.067   6.634  0.4934  0.4408  0.3593
30793SOL    HW194386   9.246   0.150   6.660  0.8389  0.1257  0.8630
30793SOL    HW294387   9.125   0.091   6.590 -0.0938  0.9959  1.7022
30794SOL     OW94388   5.155   5.950  10.247  0.0793 -0.2895  0.7084
30794SOL    HW194389   5.209   5.994  10.181 -0.1514  0.2265  0.8613
30794SOL    HW294390   5.101   5.889  10.197  0.4534 -0.4553  0.5036
30795SOL     OW94391   5.519   8.171   0.557  0.9469 -0.1306  0.0645
30795SOL    HW194392   5.583   8.103   0.536  0.1723 -0.3718 -1.6943
30795SOL    HW294393   5.465   8.134   0.626  0.8991 -1.0899 -0.4724
30796SOL     OW94394   6.734   9.567   1.906  0.4776 -0.7173  0.0057
30796SOL    HW194395   6.703   9.617   1.982 -0.4649 -1.1462 -0.0762
30796SOL    HW294396   6.771   9.633   1.848 -1.2090 -0.0011 -0.3286
30797SOL     OW94397   3.194   1.323   0.638  0.2789 -0.1551 -0.0343
30797SOL    HW194398   3.274   1.366   0.610  0.2197 -0.1337 -0.1696
30797SOL    HW294399   3.221   1.267   0.711  0.0592  1.4422  1.3400
30798SOL     OW94400   0.690   4.654   1.755 -0.1327 -0.0898  0.3482
30798SOL    HW194401   0.667   4.686   1.842  1.3778  2.0870  0.0337
30798SOL    HW294402   0.606   4.634   1.713 -1.0756  1.6980  1.2850
30799SOL     OW94403   5.040   3.698   7.148  0.3188 -0.0307  0.2743
30799SOL    HW194404   5.103   3.695   7.219 -0.1622 -0.3260  0.6957
30799SOL    HW294405   4.991   3.616   7.156  1.3146 -0.8377 -1.3873
30800SOL     OW94406  10.035   4.593   8.049  0.2112 -0.4497 -0.9145
30800SOL    HW194407  10.127   4.613   8.033  0.8486 -3.0659 -1.0241
30800SOL    HW294408  10.019   4.514   7.997 -2.0246 -0.2095 -0.6628
30801SOL     OW94409   2.502   6.149   6.414  0.5990 -0.6661  0.3385
30801SOL    HW194410   2.451   6.227   6.438  0.6959  0.4392 -2.6476
30801SOL    HW294411   2.458   6.077   6.460 -1.7500  0.6588  0.3674
30802SOL     OW94412   6.906   6.749   9.185  0.0530  0.2414 -0.3236
30802SOL    HW194413   6.845   6.725   9.255  0.6848 -0.3716  0.0229
30802SOL    HW294414   6.981   6.786   9.230  0.1028  0.6580 -0.7340
30803SOL     OW94415   4.451   3.595   3.914  0.0361  0.2283  0.3294
30803SOL    HW194416   4.406   3.654   3.853  1.8429  1.3064 -0.0203
30803SOL    HW294417   4.508   3.542   3.858  1.6094  1.1250  1.0301
30804SOL     OW94418   1.829   6.299   0.152 -0.2198 -0.2717  0.4124
30804SOL    HW194419   1.773   6.362   0.198 -1.1062 -1.7166  1.3697
30804SOL    HW294420   1.874   6.251   0.222  0.4387 -0.7123 -0.2996
30805SOL     OW94421   8.108   2.306   6.695  0.5097  0.1791  0.2249
30805SOL    HW194422   8.013   2.315   6.690  0.5883  1.3733  0.3712
30805SOL    HW294423   8.127   2.223   6.653 -0.7395 -0.9605  1.8116
30806SOL     OW94424   2.057   2.765   0.706  0.8009  0.0377  0.2138
30806SOL    HW194425   2.007   2.843   0.730  0.6750  0.4702 -1.3121
30806SOL    HW294426   2.137   2.798   0.666  1.8742 -0.6550  1.7151
30807SOL     OW94427   0.054   1.275   6.054  0.0622 -0.0531 -0.1601
30807SOL    HW194428   0.069   1.183   6.031 -0.5818 -0.8151  2.1651
30807SOL    HW294429   0.047   1.320   5.970  2.4337 -1.7478 -1.3824
30808SOL     OW94430   6.878   7.933   5.693  0.3451 -0.5249 -0.0507
30808SOL    HW194431   6.950   7.873   5.714  1.1792  0.6419  0.5816
30808SOL    HW294432   6.920   8.003   5.643  0.2005  1.3664  2.2600
30809SOL     OW94433   1.677   5.345  11.001 -0.6096  0.7885 -0.5403
30809SOL    HW194434   1.724   5.419  10.963 -2.0399  2.4647  0.7650
30809SOL    HW294435   1.722   5.328  11.084  0.8895 -1.1424 -1.6572
30810SOL     OW94436   4.310   9.203   8.983 -0.1752 -0.6410 -0.0108
30810SOL    HW194437   4.388   9.184   8.931  0.5502 -1.0320  1.1868
30810SOL    HW294438   4.255   9.256   8.925  1.9682  1.6105 -0.1533
30811SOL     OW94439   0.980   6.549   9.870 -0.2107 -0.6164  0.5687
30811SOL    HW194440   0.886   6.569   9.871 -0.0971 -0.0625  0.5721
30811SOL    HW294441   1.008   6.568   9.781  0.3332  1.4028  1.1079
30812SOL     OW94442   6.618   7.167   9.833 -0.9286  0.0708  0.6276
30812SOL    HW194443   6.670   7.095   9.797 -0.4935  0.6796  0.0182
30812SOL    HW294444   6.682   7.230   9.864 -1.1269  2.1808 -2.7255
30813SOL     OW94445  10.837  10.283   9.437  0.1490  0.4250  0.8973
30813SOL    HW194446  10.884  10.262   9.518  0.5556  0.5033  0.6861
30813SOL    HW294447  10.907  10.301   9.373 -0.1628  1.6519  0.8671
30814SOL     OW94448   8.912   9.215   5.240 -0.1499  0.1127  0.3032
30814SOL    HW194449   8.822   9.185   5.227 -0.6002  1.0181  1.1919
30814SOL    HW294450   8.928   9.203   5.333  0.1975  1.1477  0.3876
30815SOL     OW94451   4.626   3.851   0.401 -0.5167  0.3639 -0.3238
30815SOL    HW194452   4.556   3.839   0.465  0.9431 -0.4109  1.1887
30815SOL    HW294453   4.654   3.763   0.379 -0.7725  0.6302 -1.8343
30816SOL     OW94454   6.081   1.205   1.344  0.3302 -0.3335 -0.4413
30816SOL    HW194455   6.095   1.117   1.380  1.4942  0.1152  0.2568
30816SOL    HW294456   6.055   1.258   1.419  0.5570  0.1210 -0.6831
30817SOL     OW94457   0.806   7.820   9.488  0.3466 -0.3975  0.4251
30817SOL    HW194458   0.798   7.763   9.565  1.5434 -1.9499 -0.5357
30817SOL    HW294459   0.797   7.760   9.413  1.4217  0.7148 -0.6272
30818SOL     OW94460   7.590   1.555   6.064 -0.0285  0.0119 -0.2281
30818SOL    HW194461   7.638   1.522   5.988 -0.6338 -1.4940 -0.0015
30818SOL    HW294462   7.647   1.622   6.101  1.5761 -1.1728 -0.4223
30819SOL     OW94463   2.605   4.625   0.688  0.2877  0.1546  0.9476
30819SOL    HW194464   2.565   4.606   0.773 -0.1561 -0.1271  0.6771
30819SOL    HW294465   2.584   4.716   0.671  2.9915  1.2126  2.5664
30820SOL     OW94466   9.057  10.734   7.679  0.0399  0.2344 -0.3522
30820SOL    HW194467   9.008  10.769   7.754 -0.6941  0.7480 -1.0536
30820SOL    HW294468   9.147  10.763   7.694 -0.2945  1.2353 -0.1995
30821SOL     OW94469   7.221   2.873   9.263  0.8067  0.2548 -0.0351
30821SOL    HW194470   7.314   2.877   9.241  0.9880 -0.4466  0.5719
30821SOL    HW294471   7.192   2.787   9.230  0.6025  0.0653  0.6301
30822SOL     OW94472   5.417   3.953   5.763 -0.2885  0.0578 -0.2029
30822SOL    HW194473   5.414   3.875   5.818 -1.5308 -1.0430 -1.7228
30822SOL    HW294474   5.338   4.002   5.786 -2.3077 -1.7138 -2.6256
30823SOL     OW94475   5.356   8.716   1.544 -0.4621 -0.0699  0.5656
30823SOL    HW194476   5.262   8.695   1.543 -0.1827 -1.4108  0.5775
30823SOL    HW294477   5.383   8.697   1.634  0.3819 -2.5118 -0.1217
30824SOL     OW94478   6.130   3.644   7.869  0.4613  0.6576 -0.2273
30824SOL    HW194479   6.131   3.557   7.909  3.4488  0.4452 -0.5572
30824SOL    HW294480   6.158   3.629   7.779  0.6497  1.9094 -0.3890
30825SOL     OW94481   1.641  11.025   3.421  0.7020  0.3336  0.3638
30825SOL    HW194482   1.651  11.073   3.503  0.7354 -1.0053  1.1806
30825SOL    HW294483   1.654  11.090   3.353  2.1251  1.2090  1.4112
30826SOL     OW94484  10.086   5.165   5.446  0.1607  0.9437  0.2871
30826SOL    HW194485  10.157   5.152   5.382  2.0773  2.5721  1.9161
30826SOL    HW294486  10.108   5.248   5.488 -2.1168  0.8918  1.7060
30827SOL     OW94487   8.912   6.917   7.577 -0.3552 -0.1653  0.3556
30827SOL    HW194488   8.919   6.960   7.662  1.0864 -0.7754  0.5698
30827SOL    HW294489   8.866   6.980   7.522 -0.2607  0.7187  1.2627
30828SOL     OW94490  10.445   6.094   6.878  0.2708 -0.1499  0.3478
30828SOL    HW194491  10.420   6.156   6.810 -0.4768 -0.6775  0.1383
30828SOL    HW294492  10.521   6.134   6.920  0.1841  0.6035 -0.2035
30829SOL     OW94493  10.910  10.035   6.827  0.4611 -0.1836  0.1908
30829SOL    HW194494  10.831  10.057   6.777  0.3133 -1.0650  0.0257
30829SOL    HW294495  10.974  10.011   6.761  0.7075  0.0247  0.3531
30830SOL     OW94496   5.599  10.548   0.624  0.1770  0.1113  0.3859
30830SOL    HW194497   5.578  10.641   0.633  1.2281  0.3381  0.6953
30830SOL    HW294498   5.650  10.543   0.542 -1.1131 -0.4370 -0.4217
30831SOL     OW94499   3.430   0.858   2.021 -0.1391 -0.1926  0.1251
30831SOL    HW194500   3.521   0.839   1.999 -0.0198  0.4761  0.0022
30831SOL    HW294501   3.378   0.813   1.954  0.1864  1.1190 -1.0608
30832SOL     OW94502   0.146   5.696  10.707  0.1070  0.3305 -0.0796
30832SOL    HW194503   0.109   5.755  10.641 -0.2016  0.6750  0.3968
30832SOL    HW294504   0.226   5.662  10.666 -0.2139  0.3421 -0.7299
30833SOL     OW94505   7.632   8.634   9.186  0.0775  0.3206 -0.0774
30833SOL    HW194506   7.564   8.598   9.243  0.1978 -0.8875 -0.6539
30833SOL    HW294507   7.702   8.569   9.190 -0.2534 -0.2197 -2.2494
30834SOL     OW94508   2.868   7.430  10.981  0.1310 -0.9418  0.5610
30834SOL    HW194509   2.856   7.523  10.999 -1.6126 -0.9090 -0.5978
30834SOL    HW294510   2.802   7.386  11.034  0.8406 -1.5365  0.9802
30835SOL     OW94511   9.597   5.262   8.774 -0.4227 -0.1220  0.9251
30835SOL    HW194512   9.537   5.195   8.740  0.8447 -0.3962 -0.9131
30835SOL    HW294513   9.539   5.334   8.799 -1.6278 -0.8996  0.5077
30836SOL     OW94514   6.450   3.180   7.688  0.1421  0.3130  0.2342
30836SOL    HW194515   6.528   3.203   7.638  2.3245 -3.3961  1.5714
30836SOL    HW294516   6.473   3.197   7.779 -1.8111  1.9436  0.5076
30837SOL     OW94517   3.311   7.700  10.794  0.1734 -0.2955  0.2543
30837SOL    HW194518   3.346   7.785  10.766  1.8916 -1.0080  0.1331
30837SOL    HW294519   3.365   7.676  10.870 -2.5361  0.2904  2.5206
30838SOL     OW94520   0.772   5.040   8.287 -0.4532  0.1835 -0.5579
30838SOL    HW194521   0.786   4.945   8.286 -2.4472 -0.1603 -1.0170
30838SOL    HW294522   0.803   5.068   8.373 -0.3166 -0.9848 -0.2047
30839SOL     OW94523   1.001   0.630   6.863  0.4553  0.1474 -0.2071
30839SOL    HW194524   0.977   0.722   6.870 -0.0815 -0.0238  0.3557
30839SOL    HW294525   1.042   0.610   6.947  1.6949  0.1812 -0.7939
30840SOL     OW94526   9.760   7.088  10.249 -0.5305 -0.2367 -0.1703
30840SOL    HW194527   9.685   7.088  10.309  0.6950 -0.9226  1.4355
30840SOL    HW294528   9.756   7.004  10.205  0.3373 -1.1349  1.3640
30841SOL     OW94529   8.493   3.142   0.873  0.4945 -0.2812  0.1452
30841SOL    HW194530   8.581   3.168   0.843 -0.6322  1.4820 -1.8850
30841SOL    HW294531   8.451   3.223   0.899 -1.0024 -0.8974 -0.2618
30842SOL     OW94532   1.738   7.941   2.085  0.1673  0.4677 -0.3724
30842SOL    HW194533   1.682   7.932   2.162 -1.0129 -1.1169 -1.3675
30842SOL    HW294534   1.805   7.874   2.096  1.2941  1.6653  0.2954
30843SOL     OW94535   3.784   8.120   8.831  0.1306  0.3618 -0.7770
30843SOL    HW194536   3.852   8.054   8.814  1.1807  0.6000  2.0142
30843SOL    HW294537   3.702   8.071   8.832  0.7699 -0.7248  0.0900
30844SOL     OW94538   3.544   2.395   9.159 -0.5711 -0.2108 -0.3455
30844SOL    HW194539   3.609   2.367   9.223 -1.4443  0.1241  0.7194
30844SOL    HW294540   3.587   2.464   9.109 -0.1239  0.0433  0.3809
30845SOL     OW94541   0.456   3.602   0.238 -0.1153  0.0286  0.2217
30845SOL    HW194542   0.438   3.510   0.261  1.1785  0.1390  1.8956
30845SOL    HW294543   0.383   3.651   0.276 -0.1326 -0.1918  0.4761
30846SOL     OW94544   9.763   5.102   1.426  0.0905 -0.4538  0.6214
30846SOL    HW194545   9.698   5.160   1.465 -0.5882 -0.3946 -0.5557
30846SOL    HW294546   9.716   5.057   1.356  1.7111  0.8280 -1.3964
30847SOL     OW94547  11.030   5.701   2.914  0.3512 -0.0793 -0.4120
30847SOL    HW194548  11.077   5.646   2.976  0.1946 -1.6608 -1.6556
30847SOL    HW294549  11.079   5.783   2.913  1.2221 -0.5642  0.6583
30848SOL     OW94550   2.695  10.549   8.111 -0.4783  0.4369  0.1773
30848SOL    HW194551   2.628  10.547   8.179  1.3033  0.9413  2.0255
30848SOL    HW294552   2.762  10.487   8.141  0.2614  0.4991 -1.2390
30849SOL     OW94553   3.821   4.854   2.537 -0.0325 -0.1176  0.1959
30849SOL    HW194554   3.870   4.934   2.556 -0.9179  0.6379 -0.6161
30849SOL    HW294555   3.733   4.872   2.570 -0.5525 -0.2874 -1.0532
30850SOL     OW94556   1.619   9.484   6.278 -0.5461 -0.1399  0.0662
30850SOL    HW194557   1.548   9.460   6.338 -0.0393 -1.6166  0.1221
30850SOL    HW294558   1.698   9.485   6.332 -0.4532  1.1803 -0.0590
30851SOL     OW94559   7.916   9.366   1.254 -0.2547  0.2514  0.2325
30851SOL    HW194560   7.844   9.360   1.192 -1.2255  0.6215  1.2835
30851SOL    HW294561   7.893   9.440   1.310  2.0154  1.8144 -0.7288
30852SOL     OW94562  10.662  10.587   9.324  0.4782  0.0751 -0.3401
30852SOL    HW194563  10.745  10.618   9.287  0.4864  1.2014  0.5324
30852SOL    HW294564  10.660  10.626   9.412 -1.3143  0.7100 -0.6266
30853SOL     OW94565   5.709   3.989  10.859 -0.0869 -0.2961 -0.4563
30853SOL    HW194566   5.683   3.998  10.767  0.0267  1.4012 -0.3553
30853SOL    HW294567   5.805   3.981  10.856  0.1742  2.1714 -0.4082
30854SOL     OW94568   2.269  10.399   0.855 -0.2158  0.1517  0.3267
30854SOL    HW194569   2.200  10.449   0.899 -1.0826 -1.2687  0.6568
30854SOL    HW294570   2.233  10.311   0.846  0.6436 -0.0466 -1.6554
30855SOL     OW94571   7.622   8.283  10.253  0.6676 -0.0165  0.4479
30855SOL    HW194572   7.672   8.214  10.296  0.6069 -2.6863 -3.2500
30855SOL    HW294573   7.609   8.251  10.164 -3.1927  2.8628 -0.3028
30856SOL     OW94574   0.017   1.776   6.942  0.4926 -0.1355 -0.2572
30856SOL    HW194575  -0.070   1.784   6.903 -0.6596 -2.9525  1.3907
30856SOL    HW294576   0.057   1.862   6.932 -2.8066  1.5130 -0.3537
30857SOL     OW94577   7.660   1.187   5.824 -0.0260  0.3168 -0.1340
30857SOL    HW194578   7.636   1.202   5.733  2.5478 -0.6894 -1.0746
30857SOL    HW294579   7.582   1.148   5.863 -1.5714  1.8181 -1.5583
30858SOL     OW94580   4.959   8.214   1.137 -0.2636  0.4865 -0.1398
30858SOL    HW194581   4.943   8.308   1.145 -0.7579  0.2815  2.0194
30858SOL    HW294582   5.048   8.202   1.170 -0.3849  0.1504  0.0771
30859SOL     OW94583   5.128   2.185   2.122  0.4905  0.2938 -0.2054
30859SOL    HW194584   5.107   2.212   2.211  1.5933  0.4423  0.0207
30859SOL    HW294585   5.043   2.181   2.078  0.0371  1.3581  0.5230
30860SOL     OW94586   8.645  10.429   6.564 -0.2278  0.3242  0.5532
30860SOL    HW194587   8.693  10.361   6.611 -0.9004  0.0182  0.8051
30860SOL    HW294588   8.562  10.388   6.540 -0.3477  0.8308  0.0691
30861SOL     OW94589   4.309   4.955   4.459 -0.1735  0.6903  0.1194
30861SOL    HW194590   4.315   4.861   4.443  1.5016  0.9661 -1.1678
30861SOL    HW294591   4.327   4.965   4.552 -0.7088 -0.2830  0.3381
30862SOL     OW94592   8.263   5.031   9.739  0.4268 -0.2632 -0.2454
30862SOL    HW194593   8.259   5.126   9.755  0.5497 -0.3371  0.2220
30862SOL    HW294594   8.273   4.992   9.826 -1.5712 -0.8285 -0.2156
30863SOL     OW94595   7.082   8.558   3.978 -0.5364  0.0010 -0.6816
30863SOL    HW194596   7.165   8.592   4.012 -0.6563 -0.0327 -0.3516
30863SOL    HW294597   7.056   8.621   3.911  0.9018 -1.1624 -2.4464
30864SOL     OW94598   1.994   6.372   9.806  0.1158  0.1995 -0.2449
30864SOL    HW194599   2.065   6.312   9.787  0.3569  0.8731 -1.5647
30864SOL    HW294600   1.986   6.426   9.728 -0.4402  1.5379  0.6969
30865SOL     OW94601   9.743   2.000   9.932  0.0852  0.1211 -0.4924
30865SOL    HW194602   9.775   1.936   9.996  1.8436  0.9765 -0.4337
30865SOL    HW294603   9.752   2.084   9.978 -0.8408  0.5367 -1.0632
30866SOL     OW94604   2.484  10.640   0.941  0.2977  0.0334  0.0644
30866SOL    HW194605   2.455  10.611   0.855 -0.9324  0.5329  0.2833
30866SOL    HW294606   2.570  10.681   0.925  0.2097 -0.1178 -0.8706
30867SOL     OW94607   2.583   3.549   5.734  0.1984 -0.7046  0.1766
30867SOL    HW194608   2.615   3.630   5.773 -0.4140  0.4794 -1.6609
30867SOL    HW294609   2.587   3.485   5.805 -0.1839  1.1486  1.9482
30868SOL     OW94610   0.663   8.740   0.447  0.3791  0.2232  0.5059
30868SOL    HW194611   0.676   8.831   0.421 -1.4815  0.6940  1.0722
30868SOL    HW294612   0.635   8.696   0.367  1.0918  0.1865  0.2744
30869SOL     OW94613  10.646   2.155  10.801 -0.0684  0.0635  0.1480
30869SOL    HW194614  10.606   2.106  10.730 -0.7587  1.5493 -0.5243
30869SOL    HW294615  10.636   2.099  10.878  0.1881 -1.3208 -0.7998
30870SOL     OW94616   0.333   3.190   4.640 -0.4499  0.3607  0.1331
30870SOL    HW194617   0.299   3.163   4.725  2.1458  0.3407  1.2591
30870SOL    HW294618   0.398   3.258   4.661  2.0172 -1.3214 -1.5366
30871SOL     OW94619  10.729  10.772   3.274  0.2635 -0.1467  0.3127
30871SOL    HW194620  10.817  10.801   3.294  0.8431 -1.7869  0.3309
30871SOL    HW294621  10.673  10.819   3.335  1.2577  0.0163  1.1192
30872SOL     OW94622   3.367   3.558  10.733 -0.0309 -0.4151 -0.1676
30872SOL    HW194623   3.340   3.646  10.706  1.9870  0.2879 -0.0385
30872SOL    HW294624   3.428   3.530  10.666  1.3025 -0.6514  1.1051
30873SOL     OW94625   7.076   6.195   7.557 -0.1417 -0.7074 -0.3394
30873SOL    HW194626   7.006   6.230   7.612  0.2295  0.9068 -0.8202
30873SOL    HW294627   7.111   6.121   7.606  0.1434  0.6468  1.5939
30874SOL     OW94628   7.408   9.615   8.852  0.0178  0.2461  0.7988
30874SOL    HW194629   7.420   9.667   8.931  0.2749  1.0413  0.2472
30874SOL    HW294630   7.413   9.524   8.882 -1.2239  0.5054  1.8984
30875SOL     OW94631   0.702   8.372   9.599 -0.5159 -0.4969 -0.0032
30875SOL    HW194632   0.743   8.453   9.630 -1.1009 -0.3856  0.4972
30875SOL    HW294633   0.730   8.365   9.508  0.3367 -0.2489  0.2303
30876SOL     OW94634   0.425   7.220   2.381  0.2582  0.0165  0.0141
30876SOL    HW194635   0.357   7.163   2.417  0.2299  0.5829  0.8814
30876SOL    HW294636   0.483   7.161   2.333  0.7316 -0.8747  1.6237
30877SOL     OW94637   7.639   0.388   8.979 -0.7353 -0.7613  0.4892
30877SOL    HW194638   7.589   0.460   9.018  0.8371  0.7853 -0.2027
30877SOL    HW294639   7.691   0.353   9.051 -0.1980 -0.0164  0.4740
30878SOL     OW94640   3.701  10.943   3.480  0.0641 -0.5287  0.8032
30878SOL    HW194641   3.682  10.875   3.545  0.7922 -0.3384  1.2265
30878SOL    HW294642   3.623  10.998   3.479 -0.5593 -1.3881  0.4168
30879SOL     OW94643   2.807   4.531   6.776 -0.2092 -0.0040 -0.1043
30879SOL    HW194644   2.786   4.444   6.740  0.5307 -0.2227 -0.0176
30879SOL    HW294645   2.753   4.538   6.855  0.7492 -0.9643  0.6606
30880SOL     OW94646   7.771   2.004   6.954  0.5269  0.3283  0.2506
30880SOL    HW194647   7.773   2.036   7.044 -0.1148  0.0006  0.3920
30880SOL    HW294648   7.821   1.922   6.957 -1.2708 -0.8211  0.8062
30881SOL     OW94649   5.726   0.668  10.698  0.6194  0.5744  0.1051
30881SOL    HW194650   5.688   0.704  10.777 -0.4709  1.0804 -0.6257
30881SOL    HW294651   5.778   0.740  10.661  0.3506  0.6501 -0.1303
30882SOL     OW94652   2.172   4.511   1.272  0.2996  0.1373  0.4126
30882SOL    HW194653   2.098   4.571   1.265  1.2882  1.4519  0.9279
30882SOL    HW294654   2.248   4.567   1.284  1.5979 -1.1084 -1.3876
30883SOL     OW94655   0.534   9.923   5.337  0.4540 -0.1249 -0.7518
30883SOL    HW194656   0.601   9.989   5.353  1.1231 -1.0309  0.3380
30883SOL    HW294657   0.568   9.843   5.378 -1.0950 -0.7246 -0.5413
30884SOL     OW94658   1.764   8.241   9.481 -0.0185  0.7008 -0.4598
30884SOL    HW194659   1.801   8.181   9.546  1.2957  0.3020 -1.5172
30884SOL    HW294660   1.685   8.275   9.522 -0.6267 -1.4766  0.3471
30885SOL     OW94661   1.586   2.528   3.552 -0.4547 -0.2411 -0.0076
30885SOL    HW194662   1.517   2.473   3.516 -0.9608 -0.7016  1.5851
30885SOL    HW294663   1.558   2.546   3.642  1.5767 -0.6370  0.7600
30886SOL     OW94664   1.360   8.372   5.854  0.1645  0.1374 -0.2549
30886SOL    HW194665   1.452   8.394   5.870  0.3544 -0.4306 -0.5392
30886SOL    HW294666   1.320   8.454   5.829  0.2067  0.7590  1.5735
30887SOL     OW94667   7.411   3.830   4.127 -0.0616 -0.1227 -0.4464
30887SOL    HW194668   7.359   3.864   4.200 -0.4682 -0.4248 -0.5908
30887SOL    HW294669   7.385   3.738   4.119  0.2333 -0.1815 -0.7471
30888SOL     OW94670   1.684   8.712   3.251  0.7086  0.4658 -0.0740
30888SOL    HW194671   1.699   8.806   3.259  0.0500  0.6040 -0.3898
30888SOL    HW294672   1.614   8.704   3.186  0.6345 -0.2347  0.0816
30889SOL     OW94673   9.286   6.724   7.764 -0.1124  0.0254 -1.3483
30889SOL    HW194674   9.323   6.727   7.852  0.9616  2.3359 -1.7990
30889SOL    HW294675   9.362   6.721   7.706 -0.7905 -4.0476 -2.2807
30890SOL     OW94676  10.929   1.968   5.826  0.2222 -0.0153 -0.9073
30890SOL    HW194677  10.931   2.011   5.911 -1.0216 -0.3122 -0.7203
30890SOL    HW294678  11.020   1.939   5.812  0.5003  0.2993  0.1636
30891SOL     OW94679   0.717   6.934   7.547  0.1887  0.3174  0.2570
30891SOL    HW194680   0.715   6.901   7.458 -1.5314 -1.3073  0.8541
30891SOL    HW294681   0.808   6.922   7.575  0.5201 -0.0411 -0.9349
30892SOL     OW94682   0.675   0.295   1.929 -0.0098  0.4893 -0.2617
30892SOL    HW194683   0.631   0.318   2.011  0.9299  0.2498  0.3258
30892SOL    HW294684   0.677   0.200   1.929 -0.6732  0.4627 -0.9441
30893SOL     OW94685   1.680   2.514   4.653 -0.4330 -0.5645  0.1032
30893SOL    HW194686   1.686   2.427   4.613  1.4418 -1.0445  1.2804
30893SOL    HW294687   1.745   2.512   4.724 -0.7717  1.6057  0.5400
30894SOL     OW94688   2.650  10.470   7.094  0.1637  0.2387  0.2336
30894SOL    HW194689   2.656  10.482   7.189 -0.5303  2.6750  0.0482
30894SOL    HW294690   2.571  10.418   7.081  0.8154 -0.9877  1.0021
30895SOL     OW94691   7.316   9.748   7.781  0.5270  0.1682  0.4308
30895SOL    HW194692   7.220   9.752   7.778  0.5408  0.2834  0.1115
30895SOL    HW294693   7.344   9.763   7.690  0.8243 -0.6650  0.3747
30896SOL     OW94694   0.951   9.176   5.561  0.1976 -0.5156  0.1685
30896SOL    HW194695   1.004   9.247   5.525 -1.7386  1.8681  1.7414
30896SOL    HW294696   0.889   9.155   5.491 -0.1052  0.3388  0.1705
30897SOL     OW94697   1.878   8.159   4.013 -0.5810  0.4843 -0.3886
30897SOL    HW194698   1.883   8.234   3.954  1.2797 -0.4976 -1.5955
30897SOL    HW294699   1.937   8.181   4.085 -1.3230  0.8484  0.1217
30898SOL     OW94700   2.953  10.912   1.183 -0.3378 -1.1057 -0.6109
30898SOL    HW194701   2.875  10.966   1.173  1.1970  1.2868 -0.3280
30898SOL    HW294702   2.934  10.856   1.259 -0.9485  1.0456  0.9036
30899SOL     OW94703   9.399   9.551   1.482 -0.1328  0.3934 -0.0230
30899SOL    HW194704   9.319   9.545   1.535  0.0427 -0.9031  0.1320
30899SOL    HW294705   9.434   9.462   1.482  2.2127  1.2067  1.3160
30900SOL     OW94706   3.059   4.745   0.511 -0.0107  0.3573 -0.6774
30900SOL    HW194707   3.079   4.694   0.433  2.0137 -0.2320  0.1836
30900SOL    HW294708   3.000   4.689   0.562 -2.5671  1.3295 -2.3512
30901SOL     OW94709   6.521   5.335   0.948 -0.3675  0.1237  0.0277
30901SOL    HW194710   6.462   5.338   1.023 -1.1249 -0.4664 -0.5183
30901SOL    HW294711   6.590   5.274   0.973  1.6543  2.8614  1.7655
30902SOL     OW94712  10.660   3.774   4.907  0.3210 -0.6392 -0.0407
30902SOL    HW194713  10.621   3.688   4.895 -0.1901 -0.1458 -2.1866
30902SOL    HW294714  10.712   3.789   4.828  0.5325  0.9559  0.3560
30903SOL     OW94715   9.212   3.117  10.173 -0.4033  0.0517  0.7389
30903SOL    HW194716   9.253   3.187  10.223  0.3893  0.0801  0.0749
30903SOL    HW294717   9.272   3.102  10.100 -0.7228 -1.0971  0.6939
30904SOL     OW94718   8.852  10.375   3.185  0.0792  0.3445 -0.2503
30904SOL    HW194719   8.943  10.392   3.161  0.0589  0.6759 -0.0956
30904SOL    HW294720   8.855  10.290   3.229  0.5662  1.0412  1.1442
30905SOL     OW94721   3.549  10.774   3.108  0.5791 -0.5833  0.0898
30905SOL    HW194722   3.486  10.724   3.055  0.5016 -0.1402 -0.2400
30905SOL    HW294723   3.495  10.815   3.176  0.2823  0.8595 -0.9573
30906SOL     OW94724   2.255   5.898   3.187 -0.0667 -0.0039 -0.0140
30906SOL    HW194725   2.263   5.943   3.103  0.1888 -1.0324 -0.5591
30906SOL    HW294726   2.161   5.891   3.202 -0.1870 -1.5493 -1.2079
30907SOL     OW94727   4.978   7.231   1.773 -0.1277  0.4832  0.2009
30907SOL    HW194728   4.900   7.265   1.817 -0.0029  0.0327  0.7883
30907SOL    HW294729   5.015   7.168   1.836  0.4795  0.3936 -0.2404
30908SOL     OW94730   2.343  10.273   5.623 -0.8591  0.2602  0.0986
30908SOL    HW194731   2.284  10.234   5.687 -1.9135  1.7014  0.0587
30908SOL    HW294732   2.388  10.343   5.671 -0.7146  0.5093 -0.3916
30909SOL     OW94733   4.814   8.643   3.630 -0.1501 -0.1810 -0.1957
30909SOL    HW194734   4.899   8.639   3.586  0.1652 -0.6837  0.4376
30909SOL    HW294735   4.796   8.552   3.654 -0.1268  0.1264  1.0483
30910SOL     OW94736   8.446   0.375  10.545 -0.2069 -0.8702  0.0533
30910SOL    HW194737   8.476   0.404  10.632 -0.7211  0.8693 -0.3044
30910SOL    HW294738   8.518   0.321  10.512  1.6959  1.4559  0.0771
30911SOL     OW94739  10.747   6.134   4.915 -0.0317  0.0103  0.2342
30911SOL    HW194740  10.673   6.170   4.866 -0.4810  2.1004  2.2825
30911SOL    HW294741  10.807   6.103   4.848 -0.9371  2.0507 -1.6511
30912SOL     OW94742   9.443   2.180  10.554  0.3463  0.0799 -0.1542
30912SOL    HW194743   9.377   2.247  10.538  0.3893  0.3149  0.5850
30912SOL    HW294744   9.393   2.099  10.559 -0.1112  0.4249  1.7978
30913SOL     OW94745   4.310   1.648   2.358 -0.3039 -0.3159 -0.1482
30913SOL    HW194746   4.364   1.689   2.426  0.3831 -1.7261  0.2038
30913SOL    HW294747   4.374   1.606   2.300 -0.9746 -1.7593  0.1014
30914SOL     OW94748  11.021   4.206   8.335  0.0108 -0.4696 -0.0601
30914SOL    HW194749  10.958   4.219   8.405  0.0023 -0.1552 -0.1266
30914SOL    HW294750  11.013   4.113   8.312 -0.4888 -0.4098 -0.1268
30915SOL     OW94751   5.676   9.380   4.684 -0.1768 -1.1800 -0.2356
30915SOL    HW194752   5.617   9.336   4.746  0.1903  1.2112  1.9889
30915SOL    HW294753   5.623   9.450   4.646  0.2608 -1.2374 -0.9661
30916SOL     OW94754   5.671  10.848   3.787  0.0456  0.4177  0.1888
30916SOL    HW194755   5.757  10.806   3.794  1.0645  2.4781  0.7400
30916SOL    HW294756   5.672  10.891   3.701 -1.0211 -0.7037 -0.4130
30917SOL     OW94757   9.248   9.433   7.214  0.5458  0.6794 -0.3568
30917SOL    HW194758   9.249   9.438   7.119  0.4632 -0.6045 -0.4472
30917SOL    HW294759   9.167   9.476   7.240  0.8128  1.4821 -0.8245
30918SOL     OW94760   9.193   1.975   7.150  0.6122  0.0244  0.0178
30918SOL    HW194761   9.105   1.978   7.113  0.8700 -1.5222 -0.8177
30918SOL    HW294762   9.208   2.063   7.183 -1.9332 -0.1166  1.8742
30919SOL     OW94763   7.001   4.004   4.673  0.0121  0.0769 -0.2150
30919SOL    HW194764   6.940   3.994   4.600  0.5287 -0.5034 -0.5833
30919SOL    HW294765   6.989   3.924   4.725 -1.7488  1.3255  1.4523
30920SOL     OW94766   3.598   6.808   3.400 -0.3606 -0.3030  0.6212
30920SOL    HW194767   3.644   6.735   3.442  1.8466  0.7149  0.1454
30920SOL    HW294768   3.601   6.788   3.306  1.1554  0.7888  0.3896
30921SOL     OW94769   0.386  10.732   3.284  0.8317 -0.0159  0.0004
30921SOL    HW194770   0.293  10.746   3.306  1.2889  0.5713  1.7111
30921SOL    HW294771   0.407  10.647   3.321  1.0481 -0.0538 -0.2057
30922SOL     OW94772   8.155   7.572   0.012 -0.3495 -0.2019 -0.0358
30922SOL    HW194773   8.229   7.521  -0.023 -0.0063 -1.0637  1.8444
30922SOL    HW294774   8.196   7.637   0.069 -0.9482  0.6552 -0.5607
30923SOL     OW94775   2.645   8.544  10.594  0.5395 -0.1521 -0.3271
30923SOL    HW194776   2.685   8.596  10.663  0.7475 -0.3844 -0.2719
30923SOL    HW294777   2.551   8.546  10.614  0.6033 -0.2465 -0.0184
30924SOL     OW94778   2.540   7.619   0.497  0.4023  0.2007 -0.2056
30924SOL    HW194779   2.463   7.631   0.554  0.0474  1.1463 -0.8443
30924SOL    HW294780   2.511   7.555   0.432 -0.0071  0.8596 -0.6893
30925SOL     OW94781   3.866   7.957   9.841 -0.2934 -0.5672 -0.2973
30925SOL    HW194782   3.827   8.028   9.893  0.9005 -0.0459 -0.0854
30925SOL    HW294783   3.892   7.892   9.905 -3.1788 -2.2055 -0.5989
30926SOL     OW94784   3.181   0.603   1.043 -0.1886  0.1705  0.0616
30926SOL    HW194785   3.176   0.547   1.120  0.5505  0.6935  0.5026
30926SOL    HW294786   3.214   0.547   0.974 -1.2051 -0.3991  0.0192
30927SOL     OW94787   0.486   4.958   1.609  0.3579  0.0609  0.1309
30927SOL    HW194788   0.419   4.914   1.558 -0.8873  1.7228  0.2420
30927SOL    HW294789   0.501   5.040   1.562  0.2186  0.9866  1.6372
30928SOL     OW94790   9.006  10.736   2.178 -0.4162 -0.0220  0.1157
30928SOL    HW194791   9.014  10.694   2.093  0.3917  0.2507  0.0443
30928SOL    HW294792   9.083  10.708   2.227 -1.4704 -1.1376  1.2084
30929SOL     OW94793   0.559   5.154   6.526 -0.5414  0.4145 -0.7234
30929SOL    HW194794   0.639   5.177   6.573 -0.3145 -0.0858 -0.8597
30929SOL    HW294795   0.581   5.166   6.434 -0.2285 -0.8872 -0.8385
30930SOL     OW94796   6.829   5.922  10.655  0.1287 -0.1798 -0.5999
30930SOL    HW194797   6.872   5.862  10.595  3.1323 -0.1712  1.3255
30930SOL    HW294798   6.889   5.997  10.662  0.0058 -0.2323  2.3743
30931SOL     OW94799   0.878   3.527   9.174 -0.2238 -0.2350 -0.5280
30931SOL    HW194800   0.930   3.541   9.095 -0.3319  0.0785 -0.5423
30931SOL    HW294801   0.943   3.519   9.244 -0.1920  1.6777 -0.2994
30932SOL     OW94802   2.930   3.431   1.162 -0.9391  0.0795  0.3804
30932SOL    HW194803   2.914   3.354   1.107 -0.9573  1.3022 -1.4464
30932SOL    HW294804   2.849   3.482   1.154 -0.2019  1.2080 -0.0726
30933SOL     OW94805   7.739   0.845   1.070  0.6437 -0.1665 -0.2378
30933SOL    HW194806   7.691   0.927   1.056 -0.3293 -0.5673  0.6405
30933SOL    HW294807   7.831   0.872   1.074  0.3498  0.8708 -0.0346
30934SOL     OW94808   1.253   8.562  10.805  0.1550 -0.9821 -0.2973
30934SOL    HW194809   1.287   8.532  10.890  0.3199  0.1027  0.0387
30934SOL    HW294810   1.160   8.580  10.822  0.3860  0.1249 -0.0705
30935SOL     OW94811   8.101   1.078   7.667  0.1506 -0.0632  0.5467
30935SOL    HW194812   8.131   1.033   7.746  0.3983  0.0719  0.5311
30935SOL    HW294813   8.171   1.063   7.603 -1.1968 -2.3875 -0.4797
30936SOL     OW94814  10.926   6.622   4.512  0.5664 -0.2275 -0.9231
30936SOL    HW194815  10.864   6.552   4.531  0.3369  0.3543  0.6405
30936SOL    HW294816  11.009   6.577   4.495  0.3211 -0.8930 -0.3830
30937SOL     OW94817  10.211   3.101   5.208 -0.1210  0.0346  0.3513
30937SOL    HW194818  10.306   3.092   5.200 -0.0574 -0.1731  1.2242
30937SOL    HW294819  10.176   3.058   5.130  0.5406  1.9797 -1.1187
30938SOL     OW94820   7.466   6.496  10.940 -0.3222 -0.1909 -0.2202
30938SOL    HW194821   7.520   6.545  10.878 -1.3976  1.6936  0.2615
30938SOL    HW294822   7.526   6.434  10.981  0.8550 -0.0259 -1.6184
30939SOL     OW94823   2.693   6.771   0.298  0.0925  0.2045  0.0863
30939SOL    HW194824   2.736   6.788   0.214  0.8051  0.3292  0.4676
30939SOL    HW294825   2.751   6.708   0.342 -1.4656 -1.7372 -0.4744
30940SOL     OW94826  10.732   8.308  10.144 -0.0302  0.3860 -0.1824
30940SOL    HW194827  10.797   8.307  10.213 -0.3045  1.1284  0.0913
30940SOL    HW294828  10.678   8.231  10.160 -0.1360  0.5970  0.4713
30941SOL     OW94829   3.860  10.203   4.588  0.1925  0.1871 -0.0442
30941SOL    HW194830   3.817  10.137   4.642  1.9538 -1.0618 -0.0707
30941SOL    HW294831   3.888  10.155   4.510  0.1370  1.3415 -0.7996
30942SOL     OW94832   6.301   6.345   0.446  0.6169  0.3240 -0.4848
30942SOL    HW194833   6.341   6.405   0.509  1.9813  0.4457 -1.4206
30942SOL    HW294834   6.348   6.361   0.364  0.0139 -1.0018 -1.1255
30943SOL     OW94835   5.943   0.218  10.510 -0.5503  0.1697 -0.0956
30943SOL    HW194836   6.031   0.204  10.474 -0.5507  0.9823 -0.4347
30943SOL    HW294837   5.940   0.311  10.529 -1.2717  0.1071  0.1140
30944SOL     OW94838   5.272   5.519   4.470 -0.4847  0.5173  0.0712
30944SOL    HW194839   5.237   5.608   4.474 -0.5170  0.6336 -1.8244
30944SOL    HW294840   5.228   5.472   4.540  0.2720  2.2207  1.7883
30945SOL     OW94841   4.485   0.977   9.071 -0.3000 -0.0839 -0.0183
30945SOL    HW194842   4.573   1.013   9.084  0.5175 -2.2034  0.8598
30945SOL    HW294843   4.488   0.938   8.984 -0.8994  1.1092 -0.6037
30946SOL     OW94844   5.157   7.048   4.785 -0.0969 -0.1335 -0.3812
30946SOL    HW194845   5.242   7.079   4.816 -0.8215  0.4414  1.1865
30946SOL    HW294846   5.151   6.958   4.819 -0.3857  0.0748  0.1436
30947SOL     OW94847   1.381   8.347   0.007  0.0778  0.0944 -0.5100
30947SOL    HW194848   1.403   8.417   0.069 -0.2855  0.5961 -0.9400
30947SOL    HW294849   1.440   8.362  -0.067 -0.7774  0.6314 -1.0904
30948SOL     OW94850   1.835   9.081   8.736 -0.6425 -0.2233  0.1970
30948SOL    HW194851   1.894   9.054   8.806 -1.7745  0.0167  1.2791
30948SOL    HW294852   1.837   9.177   8.738  0.3873 -0.1849 -1.0602
30949SOL     OW94853   1.246   6.787  10.362  0.1276  0.5800  0.0866
30949SOL    HW194854   1.268   6.752  10.275 -0.8547  2.3423 -0.9073
30949SOL    HW294855   1.310   6.857  10.376 -0.8292  1.4871 -0.0164
30950SOL     OW94856   6.169   3.783   8.382 -0.4439  0.1624  0.0284
30950SOL    HW194857   6.262   3.801   8.393 -0.5079  0.5087  0.0169
30950SOL    HW294858   6.127   3.833   8.452 -0.7145  0.9357 -0.6726
30951SOL     OW94859   8.836   1.833   8.074 -0.3534  0.0902 -0.2024
30951SOL    HW194860   8.819   1.800   7.986 -1.2316  1.3084 -0.5304
30951SOL    HW294861   8.757   1.881   8.097  0.4197  1.0115  0.6592
30952SOL     OW94862   3.050   8.748   7.256 -0.2918 -0.2712  0.6971
30952SOL    HW194863   3.068   8.657   7.280 -1.6283 -0.4348  1.2232
30952SOL    HW294864   3.031   8.745   7.162 -0.6128 -0.5938  0.7686
30953SOL     OW94865   1.351   3.363   4.657 -0.8434 -0.0723  0.3528
30953SOL    HW194866   1.291   3.435   4.637 -0.6226  0.7900  2.4537
30953SOL    HW294867   1.324   3.292   4.599 -0.5109  1.9254 -2.4348
30954SOL     OW94868  10.973   6.999   6.485  0.9039 -0.3322  0.4196
30954SOL    HW194869  10.959   6.955   6.401 -2.6998 -0.5810  0.9915
30954SOL    HW294870  10.899   6.972   6.539  0.4534  3.5193  2.0629
30955SOL     OW94871   7.498   0.603   5.929  0.0927  0.0872 -0.3083
30955SOL    HW194872   7.412   0.617   5.968  0.5134  0.4041  0.5406
30955SOL    HW294873   7.560   0.626   5.999  0.8961  1.7332 -1.4725
30956SOL     OW94874   2.849   4.349   9.568  0.2622 -0.1737  0.4324
30956SOL    HW194875   2.794   4.294   9.511  0.4610  0.9812 -0.9360
30956SOL    HW294876   2.938   4.333   9.537  0.2881  1.1957 -0.2884
30957SOL     OW94877  10.470   4.567   8.230  0.2058 -0.3954 -0.8027
30957SOL    HW194878  10.391   4.513   8.223 -0.2489  0.1195  0.2454
30957SOL    HW294879  10.483   4.580   8.324 -0.0760  1.8482 -1.0162
30958SOL     OW94880   1.396  10.181   8.901 -0.3580  0.1987  0.3555
30958SOL    HW194881   1.336  10.161   8.973 -0.8437  1.5448  0.3583
30958SOL    HW294882   1.473  10.127   8.918 -0.8393 -0.1932  1.3677
30959SOL     OW94883   9.670   4.461   5.660 -0.3253 -0.3532 -0.0662
30959SOL    HW194884   9.590   4.477   5.610  0.6009  0.9392 -1.2365
30959SOL    HW294885   9.699   4.374   5.631 -0.6470 -0.2920 -0.5919
30960SOL     OW94886   2.658   3.735   1.203 -0.0364  0.5357 -0.4407
30960SOL    HW194887   2.576   3.771   1.235 -0.3151  1.5615 -2.2389
30960SOL    HW294888   2.714   3.811   1.188  1.1431 -0.1225  0.4040
30961SOL     OW94889   4.518   5.181  10.102 -0.0661  0.5082  0.6947
30961SOL    HW194890   4.520   5.129  10.022  0.8162  1.9328 -0.2567
30961SOL    HW294891   4.432   5.162  10.141 -0.6681  0.0516 -0.7744
30962SOL     OW94892  10.370   6.841   1.798  0.5472  0.0371 -0.2907
30962SOL    HW194893  10.369   6.820   1.891  0.8760 -0.3457 -0.3738
30962SOL    HW294894  10.456   6.814   1.768  0.0578 -0.8422 -0.9341
30963SOL     OW94895   8.751   7.707   7.785  0.3467 -0.2653  0.2409
30963SOL    HW194896   8.828   7.698   7.729 -0.7101  0.0408 -1.3290
30963SOL    HW294897   8.688   7.645   7.748  0.6122 -2.3903  3.0096
30964SOL     OW94898   3.813   6.927   6.042  0.4593 -0.5353  0.3271
30964SOL    HW194899   3.767   6.965   5.967  1.4786 -0.4595 -0.2907
30964SOL    HW294900   3.769   6.963   6.119  1.1995  1.7370 -0.2285
30965SOL     OW94901   5.867   3.259   2.432  0.8058 -0.3441 -0.3310
30965SOL    HW194902   5.789   3.206   2.448  0.8891 -1.3371 -2.8580
30965SOL    HW294903   5.834   3.348   2.420  0.3016 -0.4085  0.5133
30966SOL     OW94904   6.047   7.065   9.559 -0.3985 -0.4992 -0.5474
30966SOL    HW194905   6.058   7.034   9.649  0.5092 -0.6584 -0.7036
30966SOL    HW294906   6.117   7.021   9.510  1.4224  2.2568 -0.6599
30967SOL     OW94907   0.328   9.832   0.858  0.0202 -0.0151 -0.4079
30967SOL    HW194908   0.406   9.877   0.824  2.0650 -2.0170  1.3111
30967SOL    HW294909   0.315   9.758   0.800 -0.8430  0.4760 -0.8665
30968SOL     OW94910   3.159   6.571   9.750  0.4104 -0.3506  0.0075
30968SOL    HW194911   3.076   6.523   9.755 -0.0668  0.4735  0.4855
30968SOL    HW294912   3.132   6.663   9.751  1.3975 -0.0419  1.7808
30969SOL     OW94913   4.736   0.497   5.468 -0.3891  0.4791 -0.2348
30969SOL    HW194914   4.702   0.461   5.386 -1.7979  0.8128  0.1765
30969SOL    HW294915   4.788   0.426   5.505 -4.2146 -1.8827  1.2583
30970SOL     OW94916  10.455   2.978   5.095 -0.4201 -0.2198 -0.1134
30970SOL    HW194917  10.389   2.937   5.038 -0.9982  1.4809 -0.7434
30970SOL    HW294918  10.473   3.062   5.053 -0.1297  0.6730  1.7062
30971SOL     OW94919  10.861   2.651   7.751 -1.0351 -0.2566 -0.7231
30971SOL    HW194920  10.948   2.640   7.713 -1.1596  0.1128 -1.1262
30971SOL    HW294921  10.852   2.745   7.763 -0.5397 -0.4077  1.3333
30972SOL     OW94922   0.318   1.187   4.584 -0.1553 -0.5211 -0.4054
30972SOL    HW194923   0.292   1.252   4.519 -1.1714  1.0543  1.4719
30972SOL    HW294924   0.373   1.235   4.646  0.2773 -1.8205  0.2674
30973SOL     OW94925   6.818  10.908   3.682  0.3155 -0.2241 -0.0832
30973SOL    HW194926   6.844  10.889   3.591 -1.1140 -0.6015 -0.4449
30973SOL    HW294927   6.820  10.822   3.725  0.6920 -0.0918  0.1618
30974SOL     OW94928   0.563   3.300   0.511  0.5785  0.8308  0.2445
30974SOL    HW194929   0.575   3.304   0.606  1.1621  0.6116  0.1801
30974SOL    HW294930   0.628   3.237   0.481  1.4537  2.0429 -0.4834
30975SOL     OW94931   7.759   9.462   7.337  0.4290 -0.1814 -0.0731
30975SOL    HW194932   7.680   9.455   7.283 -1.0432 -0.6143  2.0007
30975SOL    HW294933   7.823   9.405   7.294 -0.4635 -0.0680 -1.6411
30976SOL     OW94934   8.716   0.032   4.531  0.1786 -0.3710  0.2956
30976SOL    HW194935   8.757   0.111   4.496  0.5231 -0.3483  0.7308
30976SOL    HW294936   8.757   0.021   4.617  1.1674 -1.8141 -0.3276
30977SOL     OW94937   6.180   9.233   8.976 -0.4425 -0.2276  0.0676
30977SOL    HW194938   6.141   9.253   8.891 -0.8050 -1.2970 -0.0347
30977SOL    HW294939   6.206   9.142   8.970  1.6577  0.3023  0.3140
30978SOL     OW94940   3.811   7.137   9.043  0.1557  0.4922 -0.3683
30978SOL    HW194941   3.727   7.110   9.080  0.2405 -0.0111 -0.5408
30978SOL    HW294942   3.814   7.231   9.058 -1.0477  0.7575 -1.5313
30979SOL     OW94943   2.857   3.674   8.208  0.5371 -0.7006  0.7433
30979SOL    HW194944   2.875   3.629   8.290  0.0374 -1.5970  0.3710
30979SOL    HW294945   2.764   3.696   8.212 -0.1003 -2.8298 -0.5356
30980SOL     OW94946   4.422   2.809   0.081  0.2509  0.7443 -0.0092
30980SOL    HW194947   4.443   2.789   0.172 -1.0162  1.0337  0.3674
30980SOL    HW294948   4.483   2.755   0.029  0.2226 -0.2809  0.9950
30981SOL     OW94949   6.837   5.254   9.177 -0.7197 -0.0166 -0.4879
30981SOL    HW194950   6.887   5.272   9.098 -1.4922 -0.1121 -1.0094
30981SOL    HW294951   6.891   5.287   9.248 -0.0676  0.1736 -1.0661
30982SOL     OW94952   3.731   9.885   1.387  0.1940 -0.0052  0.3107
30982SOL    HW194953   3.814   9.868   1.343 -0.8358 -1.0969 -1.3330
30982SOL    HW294954   3.728   9.980   1.397  0.9795  0.1949 -1.0182
30983SOL     OW94955   5.987   9.711   3.016  0.4418 -0.3325 -0.4664
30983SOL    HW194956   6.081   9.698   3.030  0.6593  1.4831 -0.1009
30983SOL    HW294957   5.977   9.804   3.000 -1.2657 -0.5646 -0.9415
30984SOL     OW94958  10.956   2.270   5.037  0.5820  0.4780  0.5099
30984SOL    HW194959  10.864   2.295   5.048  0.7655  0.9003  1.1404
30984SOL    HW294960  10.953   2.180   5.006 -0.0577  0.6671 -0.0114
30985SOL     OW94961   3.174   8.744   1.218 -0.1825  0.4949  0.3121
30985SOL    HW194962   3.177   8.751   1.123 -0.1152  0.6843  0.3282
30985SOL    HW294963   3.116   8.670   1.235 -0.0730  0.3654  0.1207
30986SOL     OW94964   2.396   5.857   1.013  0.0864  0.1577 -0.0976
30986SOL    HW194965   2.329   5.904   1.063  0.7176  0.2712  0.6609
30986SOL    HW294966   2.387   5.766   1.040  0.1078  0.1392 -0.1513
30987SOL     OW94967   0.826   0.933   8.755  0.1157  0.1650 -0.0321
30987SOL    HW194968   0.744   0.933   8.805 -1.2657 -0.3687 -2.1840
30987SOL    HW294969   0.873   0.856   8.786  0.7642  1.4654  2.5640
30988SOL     OW94970   3.423   5.370   4.288 -0.4609 -0.5973  0.0811
30988SOL    HW194971   3.333   5.382   4.257 -1.0350 -0.1262  1.8341
30988SOL    HW294972   3.415   5.349   4.381  1.2385 -0.9278  0.2014
30989SOL     OW94973   4.552   2.760   3.698  0.2649  0.6055 -0.0009
30989SOL    HW194974   4.553   2.682   3.643  1.6007  0.3647  0.3244
30989SOL    HW294975   4.600   2.826   3.647 -1.0591  1.3080 -0.3787
30990SOL     OW94976   5.799   6.194   1.384  0.3103  0.1887 -0.4828
30990SOL    HW194977   5.865   6.135   1.348  1.7742  0.5350  1.4858
30990SOL    HW294978   5.799   6.268   1.323  1.3247 -0.0859 -0.8492
30991SOL     OW94979  10.911   8.327   5.499 -0.2098 -0.1517  0.3122
30991SOL    HW194980  10.878   8.255   5.553 -1.8356  0.2800 -0.0538
30991SOL    HW294981  10.962   8.381   5.560  0.3865 -1.1801  0.7572
30992SOL     OW94982  10.514   3.570  10.709  0.0095 -0.0484 -0.0792
30992SOL    HW194983  10.495   3.658  10.676  0.0368 -0.7547 -2.1420
30992SOL    HW294984  10.608   3.560  10.700 -0.3006 -1.6160 -3.8599
30993SOL     OW94985   4.838   7.174   5.123 -0.4343  0.3008 -1.1579
30993SOL    HW194986   4.807   7.090   5.091 -2.2816  0.9389 -1.1444
30993SOL    HW294987   4.903   7.202   5.058  0.5211 -1.2838 -0.9419
30994SOL     OW94988   5.542   3.964   8.130 -0.7083  0.3769  0.7497
30994SOL    HW194989   5.516   4.056   8.127 -0.9745  0.2935 -0.1046
30994SOL    HW294990   5.459   3.916   8.123 -0.6308  0.0569  1.8353
30995SOL     OW94991   6.676   3.575   6.028 -0.8854 -0.1044 -0.6578
30995SOL    HW194992   6.622   3.633   6.081  1.2971 -0.1304  1.8226
30995SOL    HW294993   6.757   3.624   6.013  0.8016 -2.1509  1.0150
30996SOL     OW94994   1.568   6.792  10.849 -0.0642 -0.0298 -0.1623
30996SOL    HW194995   1.475   6.786  10.869 -0.1005 -0.1582 -0.3619
30996SOL    HW294996   1.592   6.704  10.819  0.1464 -0.0276 -0.0019
30997SOL     OW94997   2.891   0.155   3.438 -0.4135  0.0857  0.6532
30997SOL    HW194998   2.934   0.147   3.353 -0.6428  0.2937  0.5139
30997SOL    HW294999   2.949   0.109   3.499 -0.0048  0.3479  0.4677
30998SOL     OW95000   6.264   9.148   6.245  0.0150  0.3311  0.0531
30998SOL    HW195001   6.355   9.176   6.256 -0.6301  2.2581  0.8260
30998SOL    HW295002   6.237   9.120   6.332 -0.5252  1.0646  0.1306
30999SOL     OW95003   1.526   9.161   4.767 -0.0776  0.4035  0.6050
30999SOL    HW195004   1.495   9.157   4.677  0.9617  1.8748  0.1430
30999SOL    HW295005   1.447   9.181   4.818 -0.8455 -1.3582  0.1823
31000SOL     OW95006   4.632   1.790   7.280  0.6115  0.4047 -0.3103
31000SOL    HW195007   4.591   1.875   7.265  0.5075  0.0062 -2.5517
31000SOL    HW295008   4.587   1.730   7.220  2.6617 -0.6042 -0.9273
31001SOL     OW95009   1.009  10.225  10.591 -0.1592  0.5644  0.8560
31001SOL    HW195010   1.066  10.236  10.667  1.9228  0.6144 -0.6402
31001SOL    HW295011   0.959  10.145  10.610  0.9851  0.0576  1.8776
31002SOL     OW95012  10.114   2.981   9.459 -0.1204 -0.0410  0.1757
31002SOL    HW195013  10.153   3.058   9.418  0.9950 -0.3461  0.6260
31002SOL    HW295014  10.049   2.950   9.396  0.2155  0.6132 -0.5037
31003SOL     OW95015   0.798   1.946   1.903 -0.2456  0.4566  0.1230
31003SOL    HW195016   0.881   1.901   1.884  0.1013  1.7826 -1.7495
31003SOL    HW295017   0.762   1.898   1.978  2.0770 -0.3090  0.8325
31004SOL     OW95018   5.416   3.601   2.278 -0.5469  0.2705 -0.6119
31004SOL    HW195019   5.471   3.546   2.334  0.5822  1.5173 -0.4614
31004SOL    HW295020   5.365   3.538   2.227 -0.1996 -0.9062  0.4312
31005SOL     OW95021   1.320   8.028   4.193 -0.5116 -0.0481  0.0891
31005SOL    HW195022   1.371   7.994   4.119 -1.5540 -0.0899 -0.6351
31005SOL    HW295023   1.233   7.990   4.181 -0.6731 -0.1165  1.4006
31006SOL     OW95024   3.007   9.974   9.003  0.0842  0.4922  0.7981
31006SOL    HW195025   3.027  10.046   9.063  0.4113 -0.1490  1.4830
31006SOL    HW295026   2.953   9.914   9.055  1.2931 -0.6159  0.8246
31007SOL     OW95027   9.990   9.857   9.190 -0.1852  0.3867  0.2954
31007SOL    HW195028   9.903   9.844   9.228  0.4280  1.1841  2.0894
31007SOL    HW295029   9.978   9.929   9.128 -0.7971  0.4982  0.5340
31008SOL     OW95030   2.630   2.204  10.592  0.1131 -0.4457 -0.9561
31008SOL    HW195031   2.571   2.276  10.614  2.0861  1.1141 -0.4674
31008SOL    HW295032   2.573   2.127  10.589 -1.9035  0.9295 -0.3832
31009SOL     OW95033   7.207  10.337   7.483  0.1099  0.6299  0.0100
31009SOL    HW195034   7.194  10.368   7.394 -1.7441  2.6797  0.9105
31009SOL    HW295035   7.211  10.416   7.536  0.4030 -0.5537  1.8618
31010SOL     OW95036   6.862   9.730   6.069 -0.3981  0.0680 -0.1779
31010SOL    HW195037   6.940   9.680   6.047 -1.3104 -1.0211 -1.0610
31010SOL    HW295038   6.893   9.820   6.078  1.0628 -0.4411  0.1868
31011SOL     OW95039   4.857   5.780   4.072 -0.0924  0.4862 -0.0158
31011SOL    HW195040   4.855   5.776   4.167 -0.1175 -1.3760 -0.0524
31011SOL    HW295041   4.947   5.758   4.049 -0.5619 -1.1722 -0.4340
31012SOL     OW95042   1.724   9.204   6.488 -0.2533 -0.0925 -0.4524
31012SOL    HW195043   1.703   9.276   6.546  0.6755  0.1507 -0.4034
31012SOL    HW295044   1.813   9.223   6.456  0.8916 -2.2070  1.1532
31013SOL     OW95045   5.105   6.233   7.455 -0.2176  0.0434 -0.5156
31013SOL    HW195046   5.153   6.215   7.374  0.7190  1.7341 -0.3703
31013SOL    HW295047   5.046   6.158   7.465  1.2418 -1.2947 -1.5634
31014SOL     OW95048   0.012   5.474   6.260 -0.9083  0.0500 -0.6719
31014SOL    HW195049  -0.081   5.486   6.278 -1.1633 -0.7660 -1.3567
31014SOL    HW295050   0.023   5.380   6.253  0.3726  0.0053  1.3454
31015SOL     OW95051   9.351   1.140   1.630 -0.1036 -0.3018  0.8620
31015SOL    HW195052   9.264   1.160   1.666  0.1018  0.4481  0.9497
31015SOL    HW295053   9.332   1.089   1.551 -0.6461  0.2722  0.6115
31016SOL     OW95054   9.819   7.703   0.074 -0.5398 -0.1845  0.6526
31016SOL    HW195055   9.726   7.683   0.066 -0.2155 -1.1248 -1.5184
31016SOL    HW295056   9.840   7.752  -0.006  0.9992 -0.8245  0.6286
31017SOL     OW95057  10.127   9.768   0.689  0.4125 -0.3942  0.6907
31017SOL    HW195058  10.098   9.856   0.665 -0.2658 -0.9511 -0.6318
31017SOL    HW295059  10.146   9.726   0.605  1.5425 -1.2505  1.3485
31018SOL     OW95060   5.771   3.774   2.851 -0.7101 -0.2111  0.0774
31018SOL    HW195061   5.864   3.764   2.870 -0.7754  1.2928  1.4150
31018SOL    HW295062   5.727   3.714   2.911 -0.6936  1.0740  1.4254
31019SOL     OW95063   7.646   8.936   1.833  0.4448  0.1658  0.7685
31019SOL    HW195064   7.642   8.974   1.745  0.7980  1.2911  1.2159
31019SOL    HW295065   7.558   8.906   1.851  0.0923  0.9750  0.4611
31020SOL     OW95066   3.685   1.504   1.888  0.3455 -0.1660  0.2184
31020SOL    HW195067   3.766   1.555   1.876 -0.3564  0.7776 -0.7127
31020SOL    HW295068   3.656   1.525   1.976  1.1307 -0.5314  0.5693
31021SOL     OW95069   6.489   9.342  10.295  0.4372 -0.1651  0.3421
31021SOL    HW195070   6.510   9.435  10.303 -0.8051 -0.0096  2.3436
31021SOL    HW295071   6.414   9.339  10.236  0.6242  0.0677  0.0880
31022SOL     OW95072   6.536   1.609   9.467 -0.2018  0.8390  0.5287
31022SOL    HW195073   6.500   1.552   9.400  1.4924 -0.1455  0.3859
31022SOL    HW295074   6.622   1.635   9.433  0.3434  0.9917  1.9193
31023SOL     OW95075   0.538   7.687   2.144  0.1685  0.0489  0.1048
31023SOL    HW195076   0.544   7.664   2.051  2.9136 -0.9471  0.4116
31023SOL    HW295077   0.569   7.778   2.148  0.6139 -0.0993  0.0899
31024SOL     OW95078   5.573   7.607   8.245  0.6205  0.1694  0.4082
31024SOL    HW195079   5.586   7.664   8.169  1.8555 -2.6895 -1.7221
31024SOL    HW295080   5.513   7.539   8.214  0.4660 -0.6245  2.2858
31025SOL     OW95081   5.333   4.535   4.929  0.2633 -0.5265  0.2910
31025SOL    HW195082   5.405   4.541   4.992 -0.0529 -0.3605  0.6370
31025SOL    HW295083   5.332   4.620   4.885  0.8750 -0.8540 -0.3705
31026SOL     OW95084   5.896   7.871   9.918 -0.1084  0.5978 -0.2043
31026SOL    HW195085   5.872   7.829  10.001 -2.9761  0.6312 -0.8907
31026SOL    HW295086   5.877   7.805   9.852  2.2281  0.5449 -0.8939
31027SOL     OW95087   1.347   8.474   2.306 -0.2650 -0.4342 -0.2267
31027SOL    HW195088   1.415   8.421   2.347 -1.1621 -2.0133 -0.6780
31027SOL    HW295089   1.304   8.414   2.245 -1.8993  0.5840 -0.1377
31028SOL     OW95090   9.058   7.139   8.606  0.0934 -0.0114 -0.4566
31028SOL    HW195091   9.115   7.196   8.555 -0.1366 -0.1199 -0.8412
31028SOL    HW295092   9.116   7.096   8.668  0.1939  1.0657  0.2255
31029SOL     OW95093   6.292   0.091  10.193  0.0812 -0.5402  0.1520
31029SOL    HW195094   6.274   0.142  10.114  1.1255  0.0963  0.3011
31029SOL    HW295095   6.250   0.141  10.263  0.9431  0.0347  0.2727
31030SOL     OW95096   0.515   4.225   1.936  0.0317 -0.1085 -0.0157
31030SOL    HW195097   0.424   4.198   1.952  0.0286 -1.1797 -1.6460
31030SOL    HW295098   0.509   4.318   1.912 -0.9078 -0.6584 -2.1015
31031SOL     OW95099   1.931   5.794   1.129 -0.1342  0.2453  0.0312
31031SOL    HW195100   1.968   5.800   1.041  0.7537 -0.1881  0.3654
31031SOL    HW295101   1.841   5.824   1.119 -0.3888 -0.8490 -1.2349
31032SOL     OW95102   5.294  10.142   5.222 -0.4754  0.0352 -0.5152
31032SOL    HW195103   5.287  10.223   5.272  1.5310 -0.7958  1.2255
31032SOL    HW295104   5.343  10.167   5.143  0.7509  0.4143  0.3428
31033SOL     OW95105   8.183   7.888   5.545  0.3277 -0.0895  0.4654
31033SOL    HW195106   8.131   7.947   5.490  0.3803  0.1172  0.6383
31033SOL    HW295107   8.125   7.812   5.559  0.8230 -0.7767 -1.0253
31034SOL     OW95108   4.186   2.095   3.857  0.2539 -0.5519 -0.0110
31034SOL    HW195109   4.102   2.128   3.824  0.4026  0.5711  0.6904
31034SOL    HW295110   4.181   2.001   3.843 -0.4460 -0.3230 -1.4945
31035SOL     OW95111   9.849   7.936   1.099  0.1269 -0.2607  0.2746
31035SOL    HW195112   9.816   7.940   1.189  1.0422  0.3387  0.6034
31035SOL    HW295113   9.805   7.861   1.060 -2.0713  0.8540  0.4909
31036SOL     OW95114   7.378   9.906   1.817 -0.3151 -0.7163 -0.0604
31036SOL    HW195115   7.463   9.899   1.773  0.1707  0.4572  0.6370
31036SOL    HW295116   7.353   9.816   1.835  0.1162 -1.1559 -1.5079
31037SOL     OW95117   1.653   2.948   3.218  0.4779  0.4869 -0.3706
31037SOL    HW195118   1.580   2.934   3.158  0.9289  0.5738 -0.9549
31037SOL    HW295119   1.725   2.896   3.180  0.5064 -0.2201  0.6131
31038SOL     OW95120   6.191   8.082   2.670  0.3059  0.8252 -0.3968
31038SOL    HW195121   6.232   8.008   2.626  2.4165  1.2098  0.7953
31038SOL    HW295122   6.105   8.050   2.696  1.1432 -1.2085  0.0480
31039SOL     OW95123   6.728   4.167   3.486 -0.2384  0.0553 -0.8166
31039SOL    HW195124   6.683   4.168   3.402  1.1140 -0.7727 -1.5966
31039SOL    HW295125   6.821   4.160   3.462  0.3454  1.9013  0.6999
31040SOL     OW95126   5.937   2.175   8.396 -0.1017  0.2911 -0.3909
31040SOL    HW195127   5.969   2.262   8.416  0.3957 -0.2495  1.3476
31040SOL    HW295128   5.866   2.160   8.459  0.5792 -0.9774  0.1087
31041SOL     OW95129   9.251   6.267  10.751 -0.2987  0.4587 -0.0788
31041SOL    HW195130   9.324   6.302  10.701  1.2974 -3.7987 -1.1678
31041SOL    HW295131   9.196   6.223  10.686 -0.9603 -0.8845  1.3105
31042SOL     OW95132   3.146   3.496   7.014 -0.4229  0.6811  0.4972
31042SOL    HW195133   3.129   3.561   7.083 -1.8012  0.1190  0.7037
31042SOL    HW295134   3.118   3.413   7.051  0.8118  0.0156  0.0213
31043SOL     OW95135   2.187  10.019   7.222 -0.1039  0.0060 -0.1496
31043SOL    HW195136   2.094  10.001   7.203 -0.3203  0.8494  0.0974
31043SOL    HW295137   2.191  10.026   7.317 -0.0914  1.5293 -0.2389
31044SOL     OW95138   7.988   0.725   5.229 -0.3634 -0.2733  0.3675
31044SOL    HW195139   7.945   0.688   5.306 -2.2328 -1.6735 -1.2387
31044SOL    HW295140   7.951   0.813   5.222  1.1665  0.5607  2.0033
31045SOL     OW95141   8.988   4.437   9.949 -0.3365 -0.2992  0.0590
31045SOL    HW195142   8.992   4.345   9.925 -1.1084 -0.5205  0.7301
31045SOL    HW295143   8.979   4.484   9.866  0.5012 -0.7869 -0.3175
31046SOL     OW95144   2.345  10.489   5.355 -0.2204  0.0952  0.1525
31046SOL    HW195145   2.365  10.451   5.440  0.8608  1.0135  0.3364
31046SOL    HW295146   2.318  10.415   5.301  2.8792 -1.2083  0.1679
31047SOL     OW95147   5.973   9.760  10.652  0.7214 -0.1796  0.3466
31047SOL    HW195148   5.925   9.694  10.601  0.7809 -0.5909  0.8127
31047SOL    HW295149   5.936   9.844  10.623  1.0376 -0.3689 -0.6642
31048SOL     OW95150   4.472   6.650   4.921  0.0305 -0.1461  0.0169
31048SOL    HW195151   4.415   6.727   4.923  0.6276  0.4266 -2.1103
31048SOL    HW295152   4.551   6.678   4.968  0.6988  0.9993 -1.6863
31049SOL     OW95153   7.992   0.916   3.339  0.7525  0.1011  0.1233
31049SOL    HW195154   8.050   0.855   3.293  2.5186  1.6720  0.1461
31049SOL    HW295155   7.978   0.987   3.276  0.4258  0.6552  0.8150
31050SOL     OW95156   0.303  10.423  10.067  0.2793 -0.2839 -0.3823
31050SOL    HW195157   0.228  10.428  10.126 -0.0014  0.5839 -0.7812
31050SOL    HW295158   0.345  10.340  10.088  0.5008  0.2284  1.4037
31051SOL     OW95159   2.631   4.874   3.987 -0.6349  0.4946  0.1091
31051SOL    HW195160   2.624   4.935   4.061 -2.0984 -1.5849  1.7814
31051SOL    HW295161   2.568   4.805   4.006  0.1523 -1.0039 -2.2701
31052SOL     OW95162   3.709   8.587   7.683  0.0908  0.0686  0.4412
31052SOL    HW195163   3.702   8.678   7.713  0.1760  0.1591  0.1858
31052SOL    HW295164   3.751   8.541   7.756 -1.3652 -0.0894  1.2209
31053SOL     OW95165   9.026   5.444   0.892 -0.0004 -0.0360 -0.2803
31053SOL    HW195166   8.934   5.463   0.912  0.0100  0.5750 -0.8106
31053SOL    HW295167   9.075   5.513   0.935  0.2079 -0.2662 -0.1438
31054SOL     OW95168   8.751  11.003   8.769  0.2776 -0.2947  0.2504
31054SOL    HW195169   8.719  10.995   8.679  1.2422 -2.3727  0.0284
31054SOL    HW295170   8.704  10.935   8.817 -1.4582  1.8452  1.7708
31055SOL     OW95171   1.527   2.986   9.449 -0.3097 -0.5629 -0.5976
31055SOL    HW195172   1.542   2.986   9.544  0.9131  0.7223 -0.7652
31055SOL    HW295173   1.442   2.945   9.439 -0.3599 -0.9544  1.0423
31056SOL     OW95174   7.760   9.172   4.581  0.3732 -0.0012  0.3547
31056SOL    HW195175   7.664   9.171   4.576  0.2882 -0.8222  1.6802
31056SOL    HW295176   7.784   9.264   4.575 -0.7912  0.6883  3.9428
31057SOL     OW95177   7.291   2.372   8.788 -0.1965  0.4053 -0.6236
31057SOL    HW195178   7.300   2.404   8.878  1.4892 -0.0644 -0.5798
31057SOL    HW295179   7.268   2.280   8.798 -0.9351  0.5801 -0.6927
31058SOL     OW95180   7.903  10.631   3.718  0.5399 -0.4231 -0.0980
31058SOL    HW195181   7.881  10.709   3.768  2.1598  0.5124 -0.7594
31058SOL    HW295182   7.860  10.644   3.633 -0.6347 -1.1131  0.3637
31059SOL     OW95183   4.280   2.905   5.203 -0.3604  0.0055 -0.1771
31059SOL    HW195184   4.267   2.828   5.147 -0.0515  1.4205 -2.3175
31059SOL    HW295185   4.194   2.921   5.242 -0.7895 -0.5600 -0.8761
31060SOL     OW95186   5.523   5.733   6.068  0.2996  0.4560  0.3095
31060SOL    HW195187   5.501   5.640   6.072 -0.7537  0.7171  0.9122
31060SOL    HW295188   5.618   5.735   6.079  0.3717 -0.5614  0.0022
31061SOL     OW95189   5.335   2.177   9.121  0.0587 -0.3384 -0.1550
31061SOL    HW195190   5.346   2.255   9.175  1.5373 -0.4685 -0.2310
31061SOL    HW295191   5.362   2.105   9.177 -2.2648 -0.9604  0.2655
31062SOL     OW95192   5.060   4.893   6.028 -0.0857 -0.2264  0.1571
31062SOL    HW195193   5.021   4.835   5.962  4.4598 -0.1805 -2.9833
31062SOL    HW295194   5.092   4.833   6.096 -0.9659 -0.7361  0.1404
31063SOL     OW95195  10.297  10.785   7.727  0.0233 -0.1899 -0.3733
31063SOL    HW195196  10.361  10.762   7.794 -1.5005  1.0444  1.6050
31063SOL    HW295197  10.307  10.879   7.715  0.6450 -0.4603 -2.3568
31064SOL     OW95198  10.459   0.196   9.403  0.1853  0.2501  0.5723
31064SOL    HW195199  10.439   0.274   9.455 -1.9308  0.4948 -0.4881
31064SOL    HW295200  10.373   0.157   9.386  0.8715 -0.2503 -2.0498
31065SOL     OW95201   0.239   7.544  10.740 -0.2071 -0.2165 -0.0211
31065SOL    HW195202   0.259   7.458  10.777  0.3378  0.1889  0.6431
31065SOL    HW295203   0.320   7.595  10.753 -0.4309  0.3095 -0.6569
31066SOL     OW95204   6.870   2.769   8.427  0.0997  0.6753  0.1727
31066SOL    HW195205   6.804   2.830   8.396 -1.7132 -1.2986 -0.0609
31066SOL    HW295206   6.842   2.745   8.516  0.4561 -0.2332  0.0555
31067SOL     OW95207  10.929   3.204   1.608  0.5287 -0.1002 -0.3876
31067SOL    HW195208  10.975   3.123   1.587 -0.4317 -0.9346  0.5940
31067SOL    HW295209  10.887   3.231   1.526  0.5969 -0.7674 -0.6416
31068SOL     OW95210   5.600   7.313   1.748 -0.0506  0.0696 -0.5330
31068SOL    HW195211   5.609   7.394   1.697  0.3124 -0.0038 -0.5911
31068SOL    HW295212   5.583   7.246   1.682  2.6864 -0.4261 -0.8445
31069SOL     OW95213   3.751   2.748   2.476 -0.0097  0.1205 -0.3215
31069SOL    HW195214   3.663   2.773   2.503  0.4766  1.2752  0.2695
31069SOL    HW295215   3.809   2.787   2.542  0.8994 -1.3439 -0.2161
31070SOL     OW95216  10.742   7.425   1.102  0.2658 -0.1314 -0.2671
31070SOL    HW195217  10.787   7.499   1.062  0.4436 -0.5324 -0.8161
31070SOL    HW295218  10.667   7.409   1.045  0.3096 -0.4710 -0.2288
31071SOL     OW95219   4.233   4.003   0.463  0.3848 -0.2719 -0.2179
31071SOL    HW195220   4.269   3.960   0.541 -0.5979 -1.2568 -0.2813
31071SOL    HW295221   4.229   4.095   0.486  1.0412 -0.4119  0.5208
31072SOL     OW95222   1.967   0.964   5.309  0.1192  0.2569  0.2011
31072SOL    HW195223   1.973   0.919   5.393  1.8935  0.4206  0.1957
31072SOL    HW295224   2.057   0.969   5.277 -0.5844 -0.6272 -2.1630
31073SOL     OW95225   8.933   7.246   0.696  0.2302 -0.1986 -0.0852
31073SOL    HW195226   9.025   7.233   0.720  0.6177  0.4729 -1.1431
31073SOL    HW295227   8.930   7.225   0.602 -1.0322 -1.7993  0.2713
31074SOL     OW95228   6.456   9.945   9.449  0.3162  0.1893  0.2767
31074SOL    HW195229   6.494   9.857   9.452  0.0127 -0.0171 -1.1592
31074SOL    HW295230   6.532  10.003   9.454  0.6377 -0.1788 -0.2437
31075SOL     OW95231   0.125   6.809  10.474  0.3722 -0.4671 -0.4397
31075SOL    HW195232   0.198   6.851  10.429 -0.2782  0.9167 -0.2374
31075SOL    HW295233   0.155   6.801  10.565 -0.4248  1.9590  0.1139
31076SOL     OW95234   2.977   7.533   1.568 -0.1850 -0.4371  0.1315
31076SOL    HW195235   2.916   7.551   1.639 -0.6200  0.2658 -0.4139
31076SOL    HW295236   3.003   7.442   1.582  0.1362 -0.1619  1.4874
31077SOL     OW95237   4.475   5.696   5.338  0.0095 -0.2990  0.7218
31077SOL    HW195238   4.512   5.613   5.368  1.0393 -0.1746 -0.1620
31077SOL    HW295239   4.463   5.684   5.243 -1.3076  0.0145  0.8317
31078SOL     OW95240   0.421   0.908   2.961  0.1283  0.2199  0.3850
31078SOL    HW195241   0.336   0.902   3.004  0.5882  0.8632  1.4167
31078SOL    HW295242   0.481   0.933   3.030  0.8658  1.4479 -0.6493
31079SOL     OW95243   3.672   4.447   9.759  0.2511 -0.8063  0.2505
31079SOL    HW195244   3.611   4.463   9.831 -1.7102  0.7929 -1.6108
31079SOL    HW295245   3.615   4.428   9.684  2.1176 -0.6675 -1.2876
31080SOL     OW95246   0.934   0.126   4.649 -0.0549  0.4563  0.2529
31080SOL    HW195247   0.887   0.117   4.566 -1.0675 -0.7935  0.9139
31080SOL    HW295248   1.012   0.072   4.638  0.1679  0.8433 -0.1132
31081SOL     OW95249   1.040   0.394   4.779  0.7093  0.5130 -0.3633
31081SOL    HW195250   1.045   0.299   4.770 -1.5509  0.3224 -0.0621
31081SOL    HW295251   0.982   0.423   4.709 -1.2475  1.2391  1.4232
31082SOL     OW95252   6.519   9.993   0.530 -0.3320 -0.5541 -0.5261
31082SOL    HW195253   6.609   9.987   0.497  0.1448  0.8084  0.4386
31082SOL    HW295254   6.465   9.991   0.451  0.5664 -0.9881 -1.1483
31083SOL     OW95255   5.603   6.635   2.674  0.5865 -0.1339  0.2912
31083SOL    HW195256   5.652   6.628   2.756  3.6353  0.7468 -1.2918
31083SOL    HW295257   5.550   6.714   2.684  2.4265  1.1080  0.7773
31084SOL     OW95258   0.602   8.410   6.930  0.0414  0.6087  0.2859
31084SOL    HW195259   0.537   8.474   6.901 -1.3082  0.6167  3.0292
31084SOL    HW295260   0.583   8.332   6.879  0.3147  1.6997 -1.5729
31085SOL     OW95261   5.346  10.485   8.280  0.0197  0.1159 -0.0557
31085SOL    HW195262   5.263  10.533   8.272  0.3987  1.0897  1.3005
31085SOL    HW295263   5.380  10.511   8.366  0.5002 -2.2492  0.5456
31086SOL     OW95264   3.989   5.140   6.708  0.2288 -0.1977  0.2317
31086SOL    HW195265   4.072   5.172   6.742  0.7622 -1.8652  0.6089
31086SOL    HW295266   4.013   5.074   6.643 -0.8179  0.5576 -0.9854
31087SOL     OW95267   3.338   1.249   2.629  0.7378  0.2243  0.1595
31087SOL    HW195268   3.250   1.277   2.657  0.6739  0.2260 -0.0391
31087SOL    HW295269   3.322   1.195   2.552  0.8975  0.0419  0.2557
31088SOL     OW95270  10.503   6.758   7.458 -0.0557 -0.7277 -0.0329
31088SOL    HW195271  10.459   6.799   7.383  0.7075 -0.5535 -0.3897
31088SOL    HW295272  10.442   6.771   7.531 -0.1454  0.4099 -0.2991
31089SOL     OW95273   4.616   3.842   0.753 -0.2222 -0.0441  0.2006
31089SOL    HW195274   4.700   3.857   0.796  0.1553  2.1296 -1.1671
31089SOL    HW295275   4.621   3.751   0.722  0.8976 -0.5047  1.6314
31090SOL     OW95276   9.552   4.158   2.831  0.0437  0.1400 -0.4728
31090SOL    HW195277   9.500   4.234   2.858 -0.1251 -1.1320  3.3830
31090SOL    HW295278   9.623   4.195   2.777 -1.1865  2.7146 -0.4726
31091SOL     OW95279   3.315  10.135   6.882  0.4129 -0.0908 -0.7548
31091SOL    HW195280   3.337  10.226   6.901 -0.3660 -0.1190  0.3737
31091SOL    HW295281   3.268  10.139   6.798  1.6773  0.3481 -1.4679
31092SOL     OW95282   9.294   1.210   1.001  0.0946 -0.2038  0.1014
31092SOL    HW195283   9.252   1.289   1.035 -3.7663 -2.3231  0.8803
31092SOL    HW295284   9.383   1.213   1.035 -0.8262  2.3283  2.6490
31093SOL     OW95285   1.108   3.557   7.320  0.2544 -0.2064 -0.0445
31093SOL    HW195286   1.196   3.533   7.290 -0.0040 -0.5819 -0.5076
31093SOL    HW295287   1.124   3.614   7.396  0.9007  0.5047 -0.6991
31094SOL     OW95288   1.964   0.999   2.189  0.3403 -0.2296 -0.0937
31094SOL    HW195289   2.045   0.952   2.172  0.5129  0.3038 -0.7659
31094SOL    HW295290   1.904   0.932   2.222  0.4082 -1.0510 -1.5564
31095SOL     OW95291   3.449   0.496   6.486  0.0521  0.1501 -0.0126
31095SOL    HW195292   3.503   0.417   6.492  0.0294  0.2209  1.4242
31095SOL    HW295293   3.488   0.557   6.548 -1.7619  0.1477  1.2135
31096SOL     OW95294   7.715   3.900   3.763  0.0160  0.1142  0.1555
31096SOL    HW195295   7.723   3.982   3.810 -0.2611  0.4806 -0.4260
31096SOL    HW295296   7.623   3.875   3.773  0.3352 -0.6979  1.2563
31097SOL     OW95297   3.620   4.884   9.278  0.0875 -0.7723  0.3063
31097SOL    HW195298   3.713   4.894   9.257  0.6993  2.4150  3.4975
31097SOL    HW295299   3.619   4.833   9.359 -1.0244 -1.4355 -0.1137
31098SOL     OW95300   7.002   0.375   0.458 -0.3945  0.5529  0.2427
31098SOL    HW195301   7.023   0.469   0.456  2.5843  0.0131 -2.2923
31098SOL    HW295302   7.082   0.333   0.489 -1.0920 -1.2487 -0.2655
31099SOL     OW95303   6.860   6.181   1.889 -0.0474  0.1360 -0.0664
31099SOL    HW195304   6.800   6.254   1.873 -0.7356 -0.6690 -1.4149
31099SOL    HW295305   6.938   6.201   1.838 -0.6430 -0.5137 -1.2869
31100SOL     OW95306   0.065   7.191   6.279  0.1010  0.0299  0.0360
31100SOL    HW195307  -0.014   7.242   6.295 -0.5383 -1.1427  0.8301
31100SOL    HW295308   0.120   7.209   6.355 -1.5790 -3.0263  2.2050
31101SOL     OW95309   7.880   3.267  10.640 -0.3377 -0.0193 -0.5222
31101SOL    HW195310   7.785   3.273  10.630 -0.1196  0.8777 -2.3396
31101SOL    HW295311   7.910   3.357  10.651  0.2874 -0.3278  0.5084
31102SOL     OW95312   9.891   4.729   3.787  0.1157 -0.1283  0.3242
31102SOL    HW195313   9.918   4.645   3.826 -0.9514  0.8787  3.6185
31102SOL    HW295314   9.796   4.723   3.781  0.1281  0.4251 -0.5588
31103SOL     OW95315   6.382   2.850   6.061 -1.1014 -0.5438  0.1175
31103SOL    HW195316   6.295   2.811   6.074 -1.9960  1.7498  1.7399
31103SOL    HW295317   6.434   2.817   6.134 -1.3560 -0.0180  0.5401
31104SOL     OW95318   2.305   5.741   3.780  0.3199 -0.1706  0.0443
31104SOL    HW195319   2.300   5.694   3.863 -0.8045  1.0038  0.6847
31104SOL    HW295320   2.399   5.745   3.760  0.5339 -1.3334  0.7302
31105SOL     OW95321   2.932  10.250   4.911 -0.6249  0.2194 -0.2386
31105SOL    HW195322   2.951  10.181   4.847 -0.4465  1.4971 -1.6250
31105SOL    HW295323   2.852  10.220   4.954  0.1684 -1.4834  0.1577
31106SOL     OW95324  10.195   8.640   8.261  0.4092  0.2917  0.0831
31106SOL    HW195325  10.252   8.616   8.188  1.2002  0.6686  0.5661
31106SOL    HW295326  10.169   8.557   8.300  2.2711  0.1397  1.0920
31107SOL     OW95327   9.303   4.314   8.361 -0.1733  0.1866 -0.0132
31107SOL    HW195328   9.252   4.394   8.350  0.6259  0.7820  0.4191
31107SOL    HW295329   9.357   4.308   8.283  0.9022  0.9469  0.6414
31108SOL     OW95330   1.043   4.280   9.537 -0.4816  0.6509  0.1839
31108SOL    HW195331   1.059   4.217   9.607 -0.0092 -0.9689 -1.3124
31108SOL    HW295332   1.130   4.307   9.509 -0.5129 -0.8686 -1.5865
31109SOL     OW95333   4.494   0.220   5.412  0.7013  0.2075 -0.0637
31109SOL    HW195334   4.568   0.231   5.352  1.5923 -0.5715  0.8571
31109SOL    HW295335   4.427   0.176   5.360 -0.1382  3.1356 -1.6627
31110SOL     OW95336   0.074   9.115   2.283 -0.2075 -0.0491  0.2132
31110SOL    HW195337   0.022   9.178   2.333 -1.5772 -1.2387  0.3515
31110SOL    HW295338   0.159   9.114   2.327 -0.1776  1.6345  0.2479
31111SOL     OW95339   2.074   2.220   9.898 -0.2711 -0.1729 -0.2348
31111SOL    HW195340   1.981   2.243   9.894  0.2282  2.0907 -0.3796
31111SOL    HW295341   2.100   2.243   9.987 -0.0699 -1.9244  0.1970
31112SOL     OW95342   8.310   1.875   6.198  0.1418 -0.0441 -0.3907
31112SOL    HW195343   8.277   1.959   6.229 -1.0199  0.0000 -1.6629
31112SOL    HW295344   8.342   1.831   6.277  1.9316  2.0481  0.1534
31113SOL     OW95345   5.445   0.686   1.688  0.0973  0.1083 -0.1155
31113SOL    HW195346   5.506   0.644   1.628  0.9180  0.7781  0.2321
31113SOL    HW295347   5.501   0.730   1.752 -0.7550  0.4867  0.3852
31114SOL     OW95348   7.969   2.940   0.506 -0.0652 -0.1852  0.2202
31114SOL    HW195349   8.045   2.950   0.450 -0.8029  0.3181 -0.7123
31114SOL    HW295350   8.005   2.925   0.593  1.0926 -0.2853 -0.2652
31115SOL     OW95351   6.922   5.140   6.674 -0.0283 -0.3970 -0.1038
31115SOL    HW195352   6.873   5.220   6.695 -0.6525 -0.8611  0.2524
31115SOL    HW295353   6.908   5.128   6.580  1.6667  0.9532 -0.5823
31116SOL     OW95354   1.607   8.662   5.229 -0.6026 -0.0836 -0.4797
31116SOL    HW195355   1.575   8.648   5.140  1.1721 -1.6507 -0.9328
31116SOL    HW295356   1.564   8.594   5.281 -1.4422  0.6702 -0.1662
31117SOL     OW95357   7.504   2.637   0.346  0.9666 -0.2766 -0.0586
31117SOL    HW195358   7.540   2.564   0.295  1.1909  0.1992 -0.5887
31117SOL    HW295359   7.491   2.601   0.433 -0.4026 -1.4105 -0.6944
31118SOL     OW95360   8.082   5.315   5.023  0.2996  0.4692  0.1731
31118SOL    HW195361   7.992   5.318   4.991  0.6528 -0.8771 -1.0323
31118SOL    HW295362   8.079   5.253   5.096  0.1462  0.8703  0.5095
31119SOL     OW95363   7.348   6.518   8.436  0.0158  0.2875  0.3911
31119SOL    HW195364   7.393   6.437   8.413 -0.1178  0.0430  0.9748
31119SOL    HW295365   7.352   6.571   8.356  0.8015  0.0300  0.2514
31120SOL     OW95366   6.287   9.430  10.826 -0.3841  0.9584 -0.0518
31120SOL    HW195367   6.372   9.460  10.793 -0.8169  1.6535 -0.5753
31120SOL    HW295368   6.308   9.360  10.887  0.6070  1.5668  0.3392
31121SOL     OW95369  10.688   6.184   1.717 -0.2730 -0.2220 -0.2724
31121SOL    HW195370  10.607   6.156   1.674 -1.6969  0.8339  1.5842
31121SOL    HW295371  10.710   6.267   1.674 -0.8756  0.1059  0.0414
31122SOL     OW95372   6.103   2.537   2.138  0.0257  0.0027  0.0332
31122SOL    HW195373   6.082   2.593   2.063  0.4270 -0.9153 -0.7829
31122SOL    HW295374   6.166   2.589   2.188  1.0671 -0.0428 -1.1764
31123SOL     OW95375   0.568   4.639   9.552 -0.4880  0.1326  0.3792
31123SOL    HW195376   0.514   4.645   9.630 -1.2578 -1.0843 -0.0293
31123SOL    HW295377   0.654   4.671   9.580 -1.0524  0.8056  1.4006
31124SOL     OW95378   7.292   1.155   0.632 -0.1026 -0.1999 -0.5150
31124SOL    HW195379   7.380   1.153   0.669 -0.6374 -0.2495  0.8326
31124SOL    HW295380   7.254   1.237   0.664 -1.0932 -0.9484  0.3528
31125SOL     OW95381   5.441   1.064   6.133  0.1702  0.2733  0.2087
31125SOL    HW195382   5.496   1.045   6.058  0.2378  2.7484 -0.4505
31125SOL    HW295383   5.351   1.052   6.101  0.2342 -0.7169  0.3748
31126SOL     OW95384   6.901   8.444   0.990 -0.5990  0.3578  0.2268
31126SOL    HW195385   6.921   8.455   0.897 -0.3004  1.1903  0.3901
31126SOL    HW295386   6.823   8.497   1.004 -1.9211 -1.4265  0.0018
31127SOL     OW95387   0.220   5.837   9.994  0.2623 -0.3063  0.6738
31127SOL    HW195388   0.288   5.899  10.022  0.0810 -0.6665  1.9873
31127SOL    HW295389   0.168   5.885   9.930 -0.2134  1.1154  2.0580
31128SOL     OW95390   0.067   2.483   5.242  0.2218  0.3352 -0.2893
31128SOL    HW195391   0.019   2.477   5.325  1.8483  1.9617  0.8261
31128SOL    HW295392   0.035   2.408   5.191 -1.2516 -0.3723  1.5482
31129SOL     OW95393   3.401  11.025   7.913 -0.1439 -0.3479  0.2907
31129SOL    HW195394   3.419  10.980   7.831  2.3025 -0.2299  0.6730
31129SOL    HW295395   3.488  11.045   7.948 -1.1473  1.8232  1.6998
31130SOL     OW95396   7.645  10.062   7.453 -0.3463 -0.4844 -0.3071
31130SOL    HW195397   7.551  10.058   7.471 -0.3944 -0.0979 -0.4504
31130SOL    HW295398   7.675   9.971   7.459 -0.6000 -0.5290  0.4048
31131SOL     OW95399   3.859   5.431   3.875  0.5309  0.6726 -0.0935
31131SOL    HW195400   3.777   5.382   3.867  0.5816  0.6376 -0.4391
31131SOL    HW295401   3.887   5.418   3.966  0.2777  0.4856 -0.0429
31132SOL     OW95402   1.897   3.403   4.605  0.0970  0.2034  0.4426
31132SOL    HW195403   1.850   3.322   4.624 -1.7668  1.2600  0.5517
31132SOL    HW295404   1.930   3.433   4.689 -0.0653  0.0510  0.5615
31133SOL     OW95405   6.055   8.120   8.147  0.3865  0.3738 -0.0407
31133SOL    HW195406   6.045   8.211   8.176  0.0130  0.5424 -0.6778
31133SOL    HW295407   5.987   8.109   8.080  0.2891 -0.4407  0.1838
31134SOL     OW95408   2.795   6.844   0.056  0.2802 -0.1367 -0.0400
31134SOL    HW195409   2.814   6.771  -0.003  1.3807  0.7537 -0.8309
31134SOL    HW295410   2.880   6.884   0.074 -0.3119  1.0619  0.2256
31135SOL     OW95411   7.399   5.798   4.966  0.2829 -0.5407 -0.5224
31135SOL    HW195412   7.314   5.802   5.010  0.7875 -0.0669  0.4399
31135SOL    HW295413   7.461   5.778   5.036  1.3090  1.6790 -0.7060
31136SOL     OW95414   1.762   2.474  10.985 -0.2102  0.3389 -0.0272
31136SOL    HW195415   1.703   2.539  10.948 -1.7514 -2.3028 -2.5916
31136SOL    HW295416   1.837   2.473  10.927 -0.8202 -1.0363 -0.8477
31137SOL     OW95417   3.078   1.636   7.325  0.2787  0.1062 -0.2647
31137SOL    HW195418   3.053   1.566   7.265 -1.4389  0.3196  0.1381
31137SOL    HW295419   3.031   1.713   7.293  1.2595  0.8221 -0.0469
31138SOL     OW95420   7.613   0.704   3.665  0.5303  0.0209 -0.5318
31138SOL    HW195421   7.691   0.696   3.611  1.0633  0.2626  0.2005
31138SOL    HW295422   7.629   0.779   3.722 -0.4680  0.4183 -0.7572
31139SOL     OW95423   1.503   2.935   5.661  0.0344  0.0577  0.0409
31139SOL    HW195424   1.441   2.923   5.733  0.4809  0.0900  0.4354
31139SOL    HW295425   1.467   3.008   5.611 -0.0368  0.3441  0.5000
31140SOL     OW95426   2.027   4.635   4.935 -0.0329 -0.1894 -0.5041
31140SOL    HW195427   1.999   4.578   4.864  0.1413 -0.3999 -0.4061
31140SOL    HW295428   1.962   4.705   4.938 -0.4613 -0.5900 -0.3756
31141SOL     OW95429  10.930   4.434   4.475 -0.3773  0.1571  0.2619
31141SOL    HW195430  10.859   4.370   4.473 -0.3918  0.0479  2.1178
31141SOL    HW295431  11.002   4.388   4.519  0.4803  0.6175 -0.6226
31142SOL     OW95432   9.032   2.160   5.776 -0.4846 -0.4777 -0.8057
31142SOL    HW195433   8.975   2.150   5.852 -0.2295 -1.2721 -0.7102
31142SOL    HW295434   9.114   2.193   5.812 -0.0894 -1.6366 -0.6159
31143SOL     OW95435   2.388   7.092   0.625  0.4857 -0.0352 -0.1337
31143SOL    HW195436   2.419   7.182   0.624 -0.9068  0.4689  0.2803
31143SOL    HW295437   2.380   7.069   0.532  3.3290 -0.6772 -0.3116
31144SOL     OW95438   3.819   9.792   8.627 -0.1465  0.2591  0.5323
31144SOL    HW195439   3.735   9.786   8.673 -1.0364  2.2608 -0.6891
31144SOL    HW295440   3.799   9.764   8.538  0.8974 -0.8346  0.6225
31145SOL     OW95441   7.215   4.507   2.995 -0.3727 -0.3654  0.0331
31145SOL    HW195442   7.131   4.553   2.994  0.5044  1.4996 -2.7673
31145SOL    HW295443   7.257   4.535   3.076 -1.2516  1.1044  0.0150
31146SOL     OW95444   4.360   4.308   9.497 -0.2374  0.2881 -0.3807
31146SOL    HW195445   4.282   4.359   9.475 -0.5445 -0.0826 -0.1586
31146SOL    HW295446   4.417   4.317   9.421 -2.0980 -2.6384 -2.3425
31147SOL     OW95447   2.497   4.905   8.009  0.8242  0.0225 -0.7233
31147SOL    HW195448   2.425   4.954   8.049  1.2192  0.0930 -0.0837
31147SOL    HW295449   2.468   4.889   7.919  0.5937  1.2380 -0.8781
31148SOL     OW95450   6.229   9.659   8.548 -0.1774 -0.2866  0.5751
31148SOL    HW195451   6.308   9.695   8.507 -0.6342  0.1341  0.0470
31148SOL    HW295452   6.164   9.730   8.541 -0.9091 -0.9916  0.0693
31149SOL     OW95453  10.143   8.461   2.022  0.1889 -0.7397  0.0865
31149SOL    HW195454  10.127   8.392   1.957 -2.3828  0.0623 -0.2531
31149SOL    HW295455  10.168   8.537   1.970  0.9279 -0.8460  0.2837
31150SOL     OW95456   9.470   1.498  10.890  0.1126 -0.0069 -0.5559
31150SOL    HW195457   9.522   1.577  10.878  0.7768 -0.1011  1.3560
31150SOL    HW295458   9.387   1.529  10.925  1.0062 -0.1745  1.9540
31151SOL     OW95459   1.803   0.861   0.282  0.0229 -0.1953 -0.1274
31151SOL    HW195460   1.808   0.911   0.200  2.3990  0.2777  0.2173
31151SOL    HW295461   1.894   0.835   0.299 -0.4538 -0.5192  2.2095
31152SOL     OW95462   8.318  10.077   6.132 -0.1887 -0.4218  0.4435
31152SOL    HW195463   8.238  10.099   6.084  1.2900  0.4656 -1.7637
31152SOL    HW295464   8.350   9.997   6.090 -0.1242 -1.0646  1.6475
31153SOL     OW95465   2.006  10.200   3.432  0.0245 -0.0390 -0.0407
31153SOL    HW195466   2.052  10.148   3.498  0.7273  1.4848  0.7240
31153SOL    HW295467   2.032  10.160   3.349 -0.5933 -1.7679  0.5547
31154SOL     OW95468   4.155   7.054   4.427 -0.2260 -0.2362  0.3086
31154SOL    HW195469   4.187   6.969   4.457 -0.3765 -0.1295  0.7868
31154SOL    HW295470   4.166   7.112   4.503 -0.1644  0.1601  0.0007
31155SOL     OW95471   9.672   7.451   3.209 -0.2397 -0.0750 -0.4517
31155SOL    HW195472   9.679   7.507   3.287  0.4700  0.7017 -1.0670
31155SOL    HW295473   9.603   7.492   3.156  2.0076  1.7603 -2.1149
31156SOL     OW95474   6.665   5.254  10.104 -0.0880 -0.4996  0.1132
31156SOL    HW195475   6.750   5.229  10.140 -0.0688 -0.4138  0.1257
31156SOL    HW295476   6.607   5.180  10.127  0.4756 -1.5736 -1.7495
31157SOL     OW95477   0.847   6.611   5.203 -0.1260  0.2686  0.7286
31157SOL    HW195478   0.879   6.571   5.122  0.8498 -0.7772  1.6020
31157SOL    HW295479   0.818   6.699   5.176  0.1370 -0.0660 -0.7482
31158SOL     OW95480   8.732   2.241   1.613 -0.1196  0.4803 -0.1292
31158SOL    HW195481   8.691   2.309   1.558  1.7044  0.5582 -1.4763
31158SOL    HW295482   8.812   2.281   1.645 -0.3243 -0.1704  1.2617
31159SOL     OW95483   3.805  10.837   3.238 -1.0155 -0.1079  0.8332
31159SOL    HW195484   3.724  10.808   3.196 -0.1238 -1.3090 -0.1171
31159SOL    HW295485   3.779  10.862   3.327 -2.0439 -2.9041  1.3911
31160SOL     OW95486  10.219   3.798   5.997  0.4589  0.1994 -0.4865
31160SOL    HW195487  10.315   3.797   5.996  0.5281  2.3075 -1.1873
31160SOL    HW295488  10.196   3.783   6.089  1.4341 -0.9219 -0.4096
31161SOL     OW95489  10.373   2.458   7.973  0.0249 -0.3858 -0.3922
31161SOL    HW195490  10.399   2.532   7.918 -0.2445 -0.9195 -1.2547
31161SOL    HW295491  10.434   2.461   8.047  0.4035  0.3382 -0.7201
31162SOL     OW95492   9.616   8.923   4.046 -0.9839  0.0492 -0.0773
31162SOL    HW195493   9.583   8.973   4.121 -1.1093  1.5956 -1.1343
31162SOL    HW295494   9.581   8.835   4.059 -4.4076  1.2321 -0.4081
31163SOL     OW95495   0.593  10.997   6.306 -0.1649 -0.2808 -0.1587
31163SOL    HW195496   0.586  10.908   6.339 -1.0423 -0.6763 -1.3325
31163SOL    HW295497   0.578  10.989   6.212  1.0099  0.9497 -0.4842
31164SOL     OW95498   4.530   6.150   8.430  0.2368  0.2985 -0.0612
31164SOL    HW195499   4.541   6.203   8.351 -0.1170 -0.4511 -0.6274
31164SOL    HW295500   4.447   6.105   8.417  1.1024 -1.3232 -0.1453
31165SOL     OW95501  10.388   5.336  10.630  1.0309  0.4477  0.3733
31165SOL    HW195502  10.375   5.429  10.610  0.1114 -0.0505 -1.6096
31165SOL    HW295503  10.424   5.299  10.550 -1.1897 -1.4037  0.1276
31166SOL     OW95504   8.349  10.994   4.133  0.6633 -0.6444 -0.0248
31166SOL    HW195505   8.398  10.936   4.074  0.3459 -0.4931 -0.4399
31166SOL    HW295506   8.411  11.065   4.152  0.3496 -0.0247 -1.2019
31167SOL     OW95507   4.770   1.038   6.049  0.3442 -0.2773 -0.1887
31167SOL    HW195508   4.782   1.038   5.954  2.4942  2.0678 -0.0103
31167SOL    HW295509   4.835   0.976   6.081 -1.2132 -2.0267 -0.2313
31168SOL     OW95510   2.049   7.471   7.155  0.1391  0.1586 -0.2010
31168SOL    HW195511   2.013   7.501   7.072  2.1061  0.0094 -1.1636
31168SOL    HW295512   2.009   7.385   7.169 -1.6317  0.9646  0.0040
31169SOL     OW95513   7.311   9.514   4.722 -0.0372  0.1575  0.0720
31169SOL    HW195514   7.312   9.496   4.628 -1.0124 -2.4352  0.4869
31169SOL    HW295515   7.380   9.579   4.733  0.3696  0.2705 -2.3808
31170SOL     OW95516   2.341   0.914   7.929 -0.1605 -0.2777 -0.1183
31170SOL    HW195517   2.412   0.856   7.901  0.1595  0.0831 -0.0645
31170SOL    HW295518   2.343   0.909   8.025  1.8188  2.0769  0.0540
31171SOL     OW95519   6.758   2.754   4.502 -0.0111 -0.0055  0.1948
31171SOL    HW195520   6.808   2.716   4.430  1.9582  1.0717  0.8926
31171SOL    HW295521   6.774   2.696   4.576  0.2617  0.3486  0.4227
31172SOL     OW95522   8.887  10.082   5.781  0.0253  0.2915  0.1828
31172SOL    HW195523   8.839  10.164   5.772  0.2243  0.2583 -1.6283
31172SOL    HW295524   8.819  10.015   5.784 -0.1026  0.4168  0.0978
31173SOL     OW95525   6.750  10.698   9.071  0.5157  0.4173 -0.1739
31173SOL    HW195526   6.766  10.779   9.119 -0.4342  0.7292 -0.3629
31173SOL    HW295527   6.667  10.666   9.106  1.8368 -1.5657  1.3605
31174SOL     OW95528   9.395   9.548   5.065 -0.4022  0.1393 -0.3031
31174SOL    HW195529   9.466   9.592   5.111  0.2090 -1.7429  0.6591
31174SOL    HW295530   9.317   9.568   5.115 -0.2310  0.6170 -0.2271
31175SOL     OW95531   4.045   1.017   3.357 -0.8422  0.0358  0.7098
31175SOL    HW195532   4.114   0.986   3.298  0.5318 -1.1353  2.8151
31175SOL    HW295533   3.964   0.986   3.317 -0.1209  0.5694 -1.3001
31176SOL     OW95534   5.376   5.643   1.009  0.4683 -0.6286  0.0797
31176SOL    HW195535   5.376   5.712   1.075  1.9012 -1.5456  1.0841
31176SOL    HW295536   5.286   5.610   1.009 -0.0569  0.7101  0.0965
31177SOL     OW95537   7.111   4.034   7.083 -0.1846  0.4231 -0.5133
31177SOL    HW195538   7.022   4.064   7.067  0.1199  1.7454  0.1311
31177SOL    HW295539   7.166   4.094   7.032  0.3781  0.0354 -0.3744
31178SOL     OW95540   0.862   4.963   5.137  0.1439  0.5686 -0.2026
31178SOL    HW195541   0.796   5.002   5.079 -1.3957  1.3411  1.9003
31178SOL    HW295542   0.928   5.031   5.147 -0.8490  1.4433  0.8162
31179SOL     OW95543   8.479   7.842   9.583 -0.4082 -0.3546  0.1995
31179SOL    HW195544   8.400   7.870   9.538 -0.2044  2.1077  1.2470
31179SOL    HW295545   8.506   7.762   9.537 -1.2333  0.9563 -2.7676
31180SOL     OW95546   5.853   7.125   6.695 -0.3621 -0.2114 -0.6015
31180SOL    HW195547   5.871   7.194   6.632 -0.5158  0.5726  0.1863
31180SOL    HW295548   5.762   7.100   6.677 -0.0323 -0.8274 -1.4548
31181SOL     OW95549   7.660   7.077   6.868  0.5026 -0.0997 -0.4014
31181SOL    HW195550   7.616   7.107   6.947 -0.4362 -0.6431 -0.7012
31181SOL    HW295551   7.738   7.133   6.860 -0.4347  1.2628 -0.1729
31182SOL     OW95552   4.822   6.954   4.958 -0.4464  0.0620 -1.0440
31182SOL    HW195553   4.892   6.973   4.895  0.4630 -0.2824 -0.1588
31182SOL    HW295554   4.750   6.922   4.904 -0.1383  0.9791 -2.0341
31183SOL     OW95555   1.340   6.595  10.139  0.6745 -0.1616  0.0511
31183SOL    HW195556   1.395   6.521  10.166 -0.6761 -1.3503 -0.2827
31183SOL    HW295557   1.258   6.554  10.111  1.6199  0.7953 -5.3978
31184SOL     OW95558   2.743   5.661   0.158 -0.5145 -0.1992 -0.1671
31184SOL    HW195559   2.710   5.704   0.079 -0.4010  0.5246  0.1629
31184SOL    HW295560   2.676   5.597   0.181 -1.7889  1.3351  0.5659
31185SOL     OW95561   4.389   7.817   8.411 -0.3953 -0.1277 -0.0069
31185SOL    HW195562   4.410   7.739   8.462 -0.8460 -0.2274  0.0273
31185SOL    HW295563   4.304   7.846   8.445 -0.0774  0.5727  0.2203
31186SOL     OW95564   1.461   3.115  10.599  0.2115 -0.3655 -0.2857
31186SOL    HW195565   1.483   3.073  10.516 -1.0319  0.8197 -1.2763
31186SOL    HW295566   1.517   3.193  10.602  1.1327 -1.0376  0.6089
31187SOL     OW95567  10.162   9.338   3.881  1.1464 -0.0741  0.4226
31187SOL    HW195568  10.096   9.370   3.942  1.2591 -0.7075  0.8994
31187SOL    HW295569  10.119   9.265   3.835  1.4845 -0.4559  0.7004
31188SOL     OW95570   8.361   2.660   4.558  0.0388 -0.4144 -0.6999
31188SOL    HW195571   8.433   2.597   4.565 -0.2959 -0.7575 -0.3263
31188SOL    HW295572   8.395   2.728   4.500  0.5642 -0.7147 -0.7525
31189SOL     OW95573   7.447   2.480   5.579  0.1683 -0.3303  0.3119
31189SOL    HW195574   7.396   2.560   5.586  0.2357 -0.1106 -1.3962
31189SOL    HW295575   7.498   2.490   5.499 -0.1000 -2.2366 -0.1473
31190SOL     OW95576   2.106   3.331   0.719 -0.0489 -0.1191  0.2126
31190SOL    HW195577   2.025   3.353   0.674 -0.1786 -2.6953 -1.0020
31190SOL    HW295578   2.084   3.338   0.812 -0.9406  1.4519 -0.0806
31191SOL     OW95579   6.802   1.393   5.043 -0.0187  0.1966 -0.0725
31191SOL    HW195580   6.733   1.356   4.987 -0.3945 -1.1553  1.2042
31191SOL    HW295581   6.804   1.335   5.119  3.5588 -0.7346 -0.6838
31192SOL     OW95582  10.811  10.646   4.179  0.1239  0.4787 -0.2840
31192SOL    HW195583  10.745  10.644   4.249  0.4364  0.6845  0.0190
31192SOL    HW295584  10.821  10.739   4.159 -1.7484  0.3239 -2.3107
31193SOL     OW95585   4.365   8.426   1.898 -0.0195  0.5503  0.3501
31193SOL    HW195586   4.314   8.403   1.820  1.2519 -0.1969 -0.2991
31193SOL    HW295587   4.339   8.516   1.918 -0.4675  0.7114 -0.8695
31194SOL     OW95588   4.024  10.272   1.257  0.9671  0.2762  0.0612
31194SOL    HW195589   4.057  10.353   1.220 -0.8023  0.7779 -0.4695
31194SOL    HW295590   3.986  10.225   1.183  0.2511 -0.1519  0.6826
31195SOL     OW95591   3.509   2.750  10.019  0.3339  0.0759  0.1511
31195SOL    HW195592   3.541   2.820  10.076  0.4591  1.4529 -1.5178
31195SOL    HW295593   3.572   2.679  10.030  0.2192  0.1941  1.8647
31196SOL     OW95594   7.615   5.594   1.083 -0.1824  0.0946  0.1003
31196SOL    HW195595   7.590   5.518   1.031 -0.2212 -0.4444  0.9002
31196SOL    HW295596   7.548   5.659   1.064  0.0165  0.0483 -0.8226
31197SOL     OW95597   0.919   7.217   6.954 -0.0356 -0.5370 -0.9325
31197SOL    HW195598   0.940   7.310   6.953 -1.9101  0.0461  1.9025
31197SOL    HW295599   0.975   7.181   7.023 -0.4384 -1.1955 -0.9454
31198SOL     OW95600   1.140   7.275   9.646 -0.1155 -0.2442 -0.0877
31198SOL    HW195601   1.235   7.265   9.659  0.1854  2.1097 -0.0442
31198SOL    HW295602   1.124   7.369   9.659 -2.1251 -0.2059 -2.2250
31199SOL     OW95603   2.705   6.621   4.995  0.2448 -0.5499 -0.3245
31199SOL    HW195604   2.753   6.593   5.073 -0.7011 -0.4928  0.2978
31199SOL    HW295605   2.677   6.711   5.016  1.1378 -0.0216 -1.2899
31200SOL     OW95606   5.443   3.241   2.204  0.4459 -0.4773  0.1614
31200SOL    HW195607   5.360   3.214   2.244  0.3544 -1.7498 -0.8249
31200SOL    HW295608   5.434   3.335   2.192  0.2025 -0.1726  2.4396
31201SOL     OW95609   5.583   6.445   5.856 -0.8410  0.3715  0.3813
31201SOL    HW195610   5.664   6.393   5.860 -0.6055  0.7986  2.1202
31201SOL    HW295611   5.595   6.502   5.780 -0.3180 -0.8404 -0.4767
31202SOL     OW95612   8.635   8.308   2.144  0.4823 -0.2158 -0.2018
31202SOL    HW195613   8.688   8.381   2.175 -0.3998  1.6984 -2.8426
31202SOL    HW295614   8.695   8.256   2.090  0.5857 -0.2967 -0.0135
31203SOL     OW95615  10.396   8.262   7.755  0.3180 -0.0236 -0.4130
31203SOL    HW195616  10.442   8.268   7.671  0.3672  0.4834 -0.3518
31203SOL    HW295617  10.307   8.237   7.732 -0.0933  1.6237 -0.7555
31204SOL     OW95618   5.674  10.364   7.660 -0.2072  0.0111  0.1874
31204SOL    HW195619   5.611  10.329   7.724 -0.0198  0.1983  0.4749
31204SOL    HW295620   5.758  10.325   7.685 -0.3035 -0.6853 -0.5414
31205SOL     OW95621   4.711   9.059   4.107  0.6038  0.3638  0.4502
31205SOL    HW195622   4.802   9.033   4.089  0.7106  1.4554 -0.6743
31205SOL    HW295623   4.675   9.084   4.022 -1.3213 -1.6408  0.5767
31206SOL     OW95624   0.192   2.490   9.380  0.5214 -0.4633 -0.0512
31206SOL    HW195625   0.253   2.423   9.410  1.2333 -0.3781 -1.2336
31206SOL    HW295626   0.242   2.571   9.383  0.3141 -0.3149 -0.5572
31207SOL     OW95627   6.097  10.722   8.472  0.7849 -0.8275  0.4532
31207SOL    HW195628   6.184  10.685   8.487  0.4794 -1.4242  0.7987
31207SOL    HW295629   6.068  10.683   8.389  0.9304 -0.4570  0.2237
31208SOL     OW95630   9.308   7.690   7.914 -0.0311 -0.0352  0.2201
31208SOL    HW195631   9.232   7.742   7.941  0.1448 -0.1068  0.8657
31208SOL    HW295632   9.274   7.634   7.844  0.3737  2.7360 -2.4090
31209SOL     OW95633   1.757   8.245   0.286  0.0447 -0.5169  0.1162
31209SOL    HW195634   1.672   8.226   0.327  0.4795 -0.4150  1.0839
31209SOL    HW295635   1.766   8.177   0.219  0.1030 -1.8086  1.3635
31210SOL     OW95636   6.857   6.053   6.452 -0.3461 -0.1350  0.1080
31210SOL    HW195637   6.847   6.082   6.361 -0.0817  0.1942  0.1799
31210SOL    HW295638   6.881   6.132   6.500  2.4997 -0.7770 -0.0381
31211SOL     OW95639   1.682   7.441   6.582  0.1344 -0.2590  0.6210
31211SOL    HW195640   1.649   7.404   6.500 -0.2640 -0.3596  0.8248
31211SOL    HW295641   1.702   7.365   6.636 -0.1026 -0.1869  0.8120
31212SOL     OW95642   8.527   3.003   2.599 -0.2905  0.2347  0.5021
31212SOL    HW195643   8.557   3.078   2.652 -0.5920  0.3526  0.5076
31212SOL    HW295644   8.604   2.946   2.593 -0.3920 -0.0325  1.5028
31213SOL     OW95645   9.725   3.096   9.906  0.4215  0.2438  0.1810
31213SOL    HW195646   9.733   3.189   9.926  0.7330  0.4081 -0.6821
31213SOL    HW295647   9.790   3.054   9.962 -0.7820  0.3488  1.7514
31214SOL     OW95648   1.640   3.626   8.589  0.0000 -0.5409 -0.4512
31214SOL    HW195649   1.620   3.719   8.576 -0.5336 -0.6900 -0.7255
31214SOL    HW295650   1.594   3.582   8.518 -0.4054 -1.0916  0.1444
31215SOL     OW95651   7.918   9.579   8.099  0.5050 -0.0185 -0.4436
31215SOL    HW195652   7.933   9.670   8.126  2.3279 -0.0450 -1.1672
31215SOL    HW295653   7.896   9.585   8.006 -2.3864 -0.1630  0.1423
31216SOL     OW95654   6.518  10.161  10.389  0.3288  0.1372 -0.4156
31216SOL    HW195655   6.450  10.178  10.325  0.5778 -2.0870 -1.3936
31216SOL    HW295656   6.483  10.194  10.472 -1.8293 -0.6695 -0.9344
31217SOL     OW95657   3.988   0.592   2.131 -0.0819 -0.1776  0.1684
31217SOL    HW195658   3.919   0.561   2.074 -0.3686 -0.5341  0.7032
31217SOL    HW295659   4.045   0.516   2.146  0.6120  0.1902 -0.5235
31218SOL     OW95660  10.828   9.614   0.925  0.5237 -0.3740 -0.6195
31218SOL    HW195661  10.889   9.553   0.884 -0.1123 -0.2365 -1.8038
31218SOL    HW295662  10.807   9.573   1.010  1.1165 -1.1457 -0.8349
31219SOL     OW95663   2.414  10.042   9.138  0.1652 -0.2410 -0.5423
31219SOL    HW195664   2.413   9.965   9.081 -1.7054 -2.1480  1.8316
31219SOL    HW295665   2.329  10.083   9.123 -0.5306 -1.0070  1.0533
31220SOL     OW95666   4.194   8.771   5.608  0.4153 -0.7638  0.7355
31220SOL    HW195667   4.209   8.866   5.608 -1.2948 -0.4425 -0.3055
31220SOL    HW295668   4.152   8.754   5.524 -0.4858 -2.2454  1.4515
31221SOL     OW95669   6.196  10.905   9.630  0.4549  1.0640 -0.4904
31221SOL    HW195670   6.231  10.993   9.643  0.6471  1.1131 -1.2809
31221SOL    HW295671   6.273  10.850   9.617  0.5722  0.1941  2.8947
31222SOL     OW95672   9.895   2.253   0.493 -0.1154  0.8001 -0.2818
31222SOL    HW195673   9.940   2.302   0.425  1.8967  0.0311  0.4240
31222SOL    HW295674   9.937   2.279   0.575  1.9412 -2.7904  0.0452
31223SOL     OW95675   1.770   8.454   1.458  0.3082 -0.8809  0.4693
31223SOL    HW195676   1.797   8.400   1.384 -0.9415 -0.6456 -0.1766
31223SOL    HW295677   1.726   8.529   1.419 -0.4830 -0.8056  1.4569
31224SOL     OW95678   5.180   1.033   6.070  0.0812  0.5539  0.4277
31224SOL    HW195679   5.154   0.998   5.985  2.1902  0.8516 -0.3992
31224SOL    HW295680   5.133   1.116   6.077 -1.0245 -0.0230  0.1184
31225SOL     OW95681   4.154   8.862   7.382  0.2169 -0.5960  0.2208
31225SOL    HW195682   4.069   8.841   7.344  0.1681 -1.4122  0.7532
31225SOL    HW295683   4.211   8.790   7.356  1.4237  1.0373 -2.1037
31226SOL     OW95684   7.595  10.420   4.759  0.4753  0.2300 -0.4963
31226SOL    HW195685   7.591  10.407   4.854 -1.0671 -3.1553 -0.8578
31226SOL    HW295686   7.688  10.409   4.738  0.3901 -3.5097  0.3144
31227SOL     OW95687   3.501   3.930   8.387 -0.1639 -0.3544  0.2713
31227SOL    HW195688   3.579   3.984   8.379  0.1310 -0.7854  0.2183
31227SOL    HW295689   3.441   3.965   8.321  0.2860 -0.5311 -0.2396
31228SOL     OW95690  10.050   7.919   3.396 -0.1436  0.6678 -0.0632
31228SOL    HW195691  10.111   7.847   3.376 -1.2610  0.3488 -2.6407
31228SOL    HW295692   9.994   7.883   3.465  0.7795 -0.0711  0.3304
31229SOL     OW95693   5.944   5.988   7.615  0.4866 -0.1280 -0.1069
31229SOL    HW195694   6.005   6.061   7.612 -1.1971  1.3214 -0.5024
31229SOL    HW295695   5.985   5.921   7.560  0.8089  1.5484 -2.0240
31230SOL     OW95696   1.750   9.739   9.376 -0.0240  0.1216 -0.4015
31230SOL    HW195697   1.776   9.819   9.422 -0.1696 -0.2934  0.4194
31230SOL    HW295698   1.770   9.668   9.437 -0.0975 -0.4580 -1.0340
31231SOL     OW95699   5.061   3.809   9.934 -0.0701  0.9108 -0.3787
31231SOL    HW195700   5.136   3.844   9.885 -0.5444  0.7228 -1.2646
31231SOL    HW295701   5.070   3.846  10.022  0.8307  1.2204 -0.5905
31232SOL     OW95702   2.613   6.354   9.251 -0.1176  0.8125 -0.1027
31232SOL    HW195703   2.580   6.331   9.164 -2.6218  1.4464  0.5966
31232SOL    HW295704   2.596   6.276   9.304  0.9343  0.6093 -0.0532
31233SOL     OW95705   6.633   0.184   9.238  0.0669  0.4068 -0.1651
31233SOL    HW195706   6.711   0.214   9.286 -0.1560  1.1465 -0.2610
31233SOL    HW295707   6.661   0.180   9.147  0.1090  0.2709 -0.1465
31234SOL     OW95708   7.776  10.069  10.333 -0.2754  0.0224  0.1647
31234SOL    HW195709   7.855  10.033  10.372  0.1429  1.2507  0.4853
31234SOL    HW295710   7.721  10.094  10.408  0.5302  2.3821  0.0486
31235SOL     OW95711   5.863   9.849   5.490  0.2356 -0.3915 -0.0323
31235SOL    HW195712   5.937   9.816   5.542  1.7183  0.8044 -1.2748
31235SOL    HW295713   5.848   9.938   5.524 -0.2414 -0.4122 -0.1872
31236SOL     OW95714   7.010   2.491   0.857 -0.2856 -0.8567  0.2412
31236SOL    HW195715   6.932   2.490   0.912  0.1846 -2.9399  0.9707
31236SOL    HW295716   7.055   2.409   0.878  1.6410 -0.1324 -0.8156
31237SOL     OW95717   1.057   6.867   8.037 -0.4831 -0.4280 -0.5239
31237SOL    HW195718   1.082   6.953   8.004  0.4113  0.7314  2.7524
31237SOL    HW295719   0.963   6.861   8.020 -0.3928  0.8066 -1.5839
31238SOL     OW95720  10.014   8.916   6.334 -0.1440  0.5130 -0.2503
31238SOL    HW195721   9.997   8.823   6.314  0.0183  0.6190 -0.8956
31238SOL    HW295722   9.969   8.930   6.417  0.6731 -0.4037  0.3797
31239SOL     OW95723   1.997   1.086   1.284  0.1387 -0.3858  0.5700
31239SOL    HW195724   2.025   1.041   1.363  0.7040 -1.3419 -0.1458
31239SOL    HW295725   1.918   1.134   1.310  0.5714 -0.3106  1.8079
31240SOL     OW95726   4.258   2.021   7.337  0.0625  0.1932  0.2465
31240SOL    HW195727   4.266   1.926   7.334  2.6574  0.3694 -0.0851
31240SOL    HW295728   4.347   2.054   7.331 -0.8016  2.6933 -0.4200
31241SOL     OW95729  10.834   3.848  10.319  0.2450  0.0416 -0.4953
31241SOL    HW195730  10.761   3.788  10.333 -1.0062  1.7049  0.4331
31241SOL    HW295731  10.810   3.897  10.241  1.4139 -0.8078 -1.4366
31242SOL     OW95732   7.824   9.619   7.074  0.1714  0.3007  0.1280
31242SOL    HW195733   7.764   9.562   7.027  1.4929 -0.6658 -0.4805
31242SOL    HW295734   7.824   9.585   7.164 -2.1787  2.0044  0.8602
31243SOL     OW95735   4.508   7.697   9.137 -0.6403  0.0303 -0.2326
31243SOL    HW195736   4.546   7.722   9.221 -0.3555 -1.5081  0.1202
31243SOL    HW295737   4.447   7.627   9.158  1.0956 -1.9900 -1.5147
31244SOL     OW95738   3.300   9.560   8.467  0.0082  0.2673  0.5506
31244SOL    HW195739   3.286   9.605   8.550  0.9061  0.7685  0.4384
31244SOL    HW295740   3.393   9.538   8.467  0.1784  0.9457 -0.6509
31245SOL     OW95741   8.926   3.555   0.562  0.4961  0.0917  0.4553
31245SOL    HW195742   8.908   3.633   0.613 -0.7078 -0.9730  1.7321
31245SOL    HW295743   8.998   3.512   0.608  0.5229 -0.0264  0.3066
31246SOL     OW95744   9.088   8.634   7.007  0.0480 -0.4000  0.2398
31246SOL    HW195745   9.030   8.637   6.931 -1.4846 -2.2754  1.2663
31246SOL    HW295746   9.063   8.711   7.059 -0.3995 -0.3146 -0.0963
31247SOL     OW95747   7.102   6.835   2.627  0.2779  0.2876 -0.1434
31247SOL    HW195748   7.144   6.851   2.712 -0.5896 -0.9190  0.5423
31247SOL    HW295749   7.169   6.793   2.574  0.6168  0.4151  0.1813
31248SOL     OW95750   5.668   0.936   6.289 -0.2013  0.1244  0.2125
31248SOL    HW195751   5.681   0.842   6.280 -0.5060 -0.0037  1.0730
31248SOL    HW295752   5.591   0.955   6.235 -0.6507 -0.2615  0.7096
31249SOL     OW95753   0.427   9.700   8.630  0.3639  0.3885 -0.2535
31249SOL    HW195754   0.420   9.609   8.661 -0.4284  0.8641  1.0441
31249SOL    HW295755   0.355   9.746   8.673 -0.4365  1.2585 -2.4184
31250SOL     OW95756   3.901   3.305   3.928 -0.0148  0.3583 -0.1040
31250SOL    HW195757   3.981   3.291   3.980  0.6075  0.5892 -0.9805
31250SOL    HW295758   3.859   3.219   3.925  0.7997 -0.0352 -0.5906
31251SOL     OW95759   2.475   2.679   3.994 -0.0045  0.7592  0.0679
31251SOL    HW195760   2.546   2.707   4.051  0.3236 -0.0192  0.0587
31251SOL    HW295761   2.439   2.601   4.037 -1.1412  1.3872  0.2980
31252SOL     OW95762   0.352   1.229   1.509  0.1418  0.0928 -0.0930
31252SOL    HW195763   0.380   1.190   1.426  0.0740  0.8169 -0.4706
31252SOL    HW295764   0.427   1.217   1.568 -0.1671 -1.2835  0.0501
31253SOL     OW95765   1.915   6.006  10.951 -0.4275  0.0251 -0.1378
31253SOL    HW195766   1.923   5.928  11.006 -1.9670 -0.6098 -0.7576
31253SOL    HW295767   1.828   6.040  10.971  0.4248  1.9813  0.5634
31254SOL     OW95768   3.218   5.027   3.126  0.7381 -0.2492  0.1288
31254SOL    HW195769   3.122   5.026   3.124  0.6951  0.0078  1.3454
31254SOL    HW295770   3.244   5.000   3.038 -0.4506 -0.0323 -0.3088
31255SOL     OW95771   0.906  10.278   2.043 -0.0567 -0.0548 -0.1010
31255SOL    HW195772   0.901  10.320   1.958  1.7782  1.5914  0.5261
31255SOL    HW295773   0.973  10.327   2.091 -0.2031 -1.6317  1.8953
31256SOL     OW95774   5.155   1.328   1.106 -0.7991 -0.2093 -0.6790
31256SOL    HW195775   5.088   1.389   1.075 -0.6385  0.3071 -0.0585
31256SOL    HW295776   5.200   1.377   1.176 -1.1634 -1.3258  0.3611
31257SOL     OW95777   0.787   7.453   6.220 -0.9037  0.3911  0.0014
31257SOL    HW195778   0.774   7.524   6.157  0.2861 -1.5049 -2.5686
31257SOL    HW295779   0.704   7.406   6.221 -0.3393 -0.7530 -1.8387
31258SOL     OW95780   0.772   2.246   2.934 -0.3218  0.3175  0.4060
31258SOL    HW195781   0.701   2.183   2.950 -0.8971  0.8334 -0.0767
31258SOL    HW295782   0.781   2.292   3.018 -1.2502  0.9334  0.1823
31259SOL     OW95783   8.257  10.989   4.631  0.7361 -0.6255 -0.1155
31259SOL    HW195784   8.295  10.928   4.568  1.3460 -0.3428 -0.0320
31259SOL    HW295785   8.172  11.013   4.593  1.5204  0.3404 -1.3732
31260SOL     OW95786  11.008   5.922   8.288 -0.1612  0.0482  0.4119
31260SOL    HW195787  10.944   5.851   8.288  1.9939 -2.0558 -1.0541
31260SOL    HW295788  11.067   5.901   8.215  0.2971  3.6897 -0.4827
31261SOL     OW95789   9.109   0.860   2.674  0.6555  0.0903  0.0002
31261SOL    HW195790   9.113   0.765   2.669 -0.8233  0.0303 -0.5344
31261SOL    HW295791   9.148   0.891   2.593  1.3861 -0.0413  0.2962
31262SOL     OW95792   2.742   2.641   1.313 -0.0180  0.3820 -0.4319
31262SOL    HW195793   2.665   2.686   1.277  0.4956  2.2024  0.6256
31262SOL    HW295794   2.814   2.668   1.257  0.2496  0.7125  0.0586
31263SOL     OW95795   7.967   5.403   4.491 -0.6502 -0.1828  0.0812
31263SOL    HW195796   7.940   5.458   4.564  2.1603  0.7799  0.5538
31263SOL    HW295797   8.013   5.329   4.532 -1.2371 -0.9774 -0.6531
31264SOL     OW95798  10.409   5.227  10.155  0.1177 -0.2025  0.3147
31264SOL    HW195799  10.418   5.164  10.083  0.2057 -0.1714  0.2984
31264SOL    HW295800  10.315   5.244  10.160 -0.1327 -1.7156  1.4922
31265SOL     OW95801   5.965   9.896   1.417  0.2803 -0.2001 -1.0320
31265SOL    HW195802   5.941   9.921   1.506 -0.9399  2.2350 -1.9694
31265SOL    HW295803   6.022   9.966   1.386  1.1851 -1.3204 -1.9963
31266SOL     OW95804   5.051   5.082   2.834  1.0393 -0.1140  0.3427
31266SOL    HW195805   5.039   5.042   2.748  0.0653 -0.6629  0.7270
31266SOL    HW295806   5.100   5.163   2.815  1.9025 -0.8186 -0.5783
31267SOL     OW95807   5.867   7.848   1.873 -0.1461 -0.3398 -0.4698
31267SOL    HW195808   5.792   7.793   1.850 -0.6765 -0.0021  0.3915
31267SOL    HW295809   5.829   7.931   1.900  0.6454  0.4550 -1.6999
31268SOL     OW95810   8.205   2.855   7.580  0.1812  0.3683  0.5656
31268SOL    HW195811   8.199   2.783   7.643 -1.0312 -0.0500  0.0209
31268SOL    HW295812   8.113   2.878   7.561  0.4962  0.4068 -1.1086
31269SOL     OW95813   3.626   5.054   7.018 -0.1717  0.8177 -0.0920
31269SOL    HW195814   3.536   5.066   6.988 -1.2253 -1.0377  1.9758
31269SOL    HW295815   3.630   5.102   7.101 -0.0735 -1.0232  1.0308
31270SOL     OW95816   2.085   7.466   3.716 -0.2939 -0.0911  0.0364
31270SOL    HW195817   2.033   7.481   3.795  0.8561  0.4845  0.6897
31270SOL    HW295818   2.152   7.534   3.717  0.9565 -1.2869 -0.3978
31271SOL     OW95819   9.290   1.632   8.062 -0.1048 -0.3371 -0.1773
31271SOL    HW195820   9.273   1.670   7.976  1.9210 -0.4867 -0.6948
31271SOL    HW295821   9.293   1.538   8.046  0.2106 -0.3691  0.0703
31272SOL     OW95822   4.275   2.483   6.503  0.0230  0.2670 -0.4999
31272SOL    HW195823   4.181   2.475   6.487  0.1041  0.1351 -0.9363
31272SOL    HW295824   4.306   2.542   6.434  0.4827 -0.7709 -1.2090
31273SOL     OW95825   3.414   1.402   5.183 -0.4964 -0.8341  0.4907
31273SOL    HW195826   3.506   1.376   5.181  0.1118  1.1447  0.6808
31273SOL    HW295827   3.366   1.321   5.165  1.2713 -1.8851  0.2519
31274SOL     OW95828   9.071   9.433   5.241  0.0226 -0.6428  0.4440
31274SOL    HW195829   9.060   9.496   5.170  0.5553 -1.1876 -0.1228
31274SOL    HW295830   8.994   9.377   5.235  0.3187 -1.0067 -0.0354
31275SOL     OW95831   3.898   8.118   5.005 -0.7443  0.3946 -0.1031
31275SOL    HW195832   3.861   8.032   5.027  1.7548 -0.5904  0.5314
31275SOL    HW295833   3.923   8.155   5.089  1.0334  0.3645 -0.5952
31276SOL     OW95834   1.832   5.229   1.110  0.2182 -0.6437 -0.2563
31276SOL    HW195835   1.758   5.217   1.170  0.5321 -0.1884  0.2331
31276SOL    HW295836   1.806   5.184   1.030 -0.1670 -1.3515  0.2589
31277SOL     OW95837   8.215  10.274   9.247  0.1623 -0.3943  0.5479
31277SOL    HW195838   8.177  10.346   9.196  0.5905  0.2117  1.0634
31277SOL    HW295839   8.211  10.304   9.338  2.4462 -0.0105  0.5784
31278SOL     OW95840   0.649   6.195   0.563 -1.0265  0.2208  0.2051
31278SOL    HW195841   0.681   6.114   0.524 -0.1718  1.9029 -2.8696
31278SOL    HW295842   0.726   6.234   0.604 -1.1047  0.2305  0.3453
31279SOL     OW95843  10.660   4.630   0.249 -0.0032  0.0606 -0.0444
31279SOL    HW195844  10.659   4.584   0.165  1.4287 -0.8073  0.3811
31279SOL    HW295845  10.744   4.676   0.250 -0.6965  1.3881  0.2524
31280SOL     OW95846   2.613   6.503   4.027 -0.6166 -1.2956 -0.4206
31280SOL    HW195847   2.615   6.538   3.938 -0.1491  2.2022  0.8035
31280SOL    HW295848   2.699   6.463   4.039 -0.1769 -0.6043 -1.1514
31281SOL     OW95849   2.875   1.096   0.350  0.1957  0.5711  0.7858
31281SOL    HW195850   2.925   1.130   0.275 -0.0951 -0.3294  0.1620
31281SOL    HW295851   2.805   1.044   0.310  0.5050 -0.5862  1.6821
31282SOL     OW95852   2.493   3.841   8.709 -0.0950 -0.1023  0.1495
31282SOL    HW195853   2.502   3.789   8.629 -1.5364  1.1851 -0.9245
31282SOL    HW295854   2.458   3.780   8.774 -0.4048 -0.8108 -0.6679
31283SOL     OW95855   6.795   3.901  10.267  0.9611  0.5914  0.7184
31283SOL    HW195856   6.779   3.897  10.361  0.6264 -0.6792  0.6257
31283SOL    HW295857   6.837   3.817  10.247  0.7342  0.7158 -0.3107
31284SOL     OW95858   1.388   2.485   4.045  0.2357  0.1325  0.2721
31284SOL    HW195859   1.304   2.497   4.089  0.4428 -0.9957  1.0216
31284SOL    HW295860   1.368   2.494   3.952 -0.9163 -1.0261  0.3742
31285SOL     OW95861   8.888   0.342  10.794  0.2785 -0.5680 -0.0745
31285SOL    HW195862   8.899   0.437  10.786 -4.8442  0.5178  1.9228
31285SOL    HW295863   8.917   0.322  10.883 -3.1214  0.2941  1.3759
31286SOL     OW95864   5.962   5.191   3.361 -0.4052  0.2977 -0.4939
31286SOL    HW195865   5.987   5.269   3.310  1.0831 -0.2875 -0.7033
31286SOL    HW295866   6.003   5.205   3.447 -0.8855  0.1532 -0.2420
31287SOL     OW95867   8.262   0.545   0.841  0.1581 -0.7577 -0.4449
31287SOL    HW195868   8.215   0.534   0.758  0.7660  1.4141 -1.1276
31287SOL    HW295869   8.353   0.563   0.815 -0.4080  4.9851  0.2314
31288SOL     OW95870   9.319   4.256   5.314 -0.5048  0.0877  0.1803
31288SOL    HW195871   9.226   4.241   5.301 -0.1704 -1.0086 -1.2180
31288SOL    HW295872   9.359   4.169   5.312  0.6121  0.5756  0.1044
31289SOL     OW95873   5.414   0.046   5.419 -0.2423  0.7479 -0.1834
31289SOL    HW195874   5.443  -0.001   5.341  0.3170  0.8535 -0.0442
31289SOL    HW295875   5.319   0.042   5.415 -0.3423  3.0660 -2.2878
31290SOL     OW95876   4.179   3.756   4.071  0.3295  0.0446  0.4523
31290SOL    HW195877   4.206   3.674   4.112  0.2773 -0.4568 -0.4689
31290SOL    HW295878   4.261   3.794   4.038  0.1774 -0.4733 -0.5691
31291SOL     OW95879   6.508   9.193  10.613 -0.3885  0.7038 -0.4566
31291SOL    HW195880   6.547   9.277  10.592 -1.6961  1.7307  1.0347
31291SOL    HW295881   6.567   9.129  10.574  0.6976  2.2851 -1.5283
31292SOL     OW95882   3.802   3.332   6.076  0.0933 -0.2201 -0.3966
31292SOL    HW195883   3.891   3.345   6.044  0.3496  1.8944  1.0246
31292SOL    HW295884   3.754   3.297   6.000  1.1881  2.4388 -2.4754
31293SOL     OW95885   8.492   6.478   8.207 -0.5578  0.7633 -0.0117
31293SOL    HW195886   8.570   6.455   8.156  0.0427 -0.3341  1.3428
31293SOL    HW295887   8.501   6.428   8.288 -2.2386  1.3106  0.5459
31294SOL     OW95888  10.429   8.840   4.073  0.6689  0.1920  0.0827
31294SOL    HW195889  10.495   8.909   4.066 -0.3849  1.1091 -1.2232
31294SOL    HW295890  10.354   8.882   4.113  0.2345 -0.3758 -0.1229
31295SOL     OW95891   6.617  11.024   4.154 -0.4070 -0.4145 -0.2312
31295SOL    HW195892   6.710  11.038   4.169 -0.4141 -1.2039  0.5787
31295SOL    HW295893   6.599  11.071   4.072  0.6159  0.0432 -0.2056
31296SOL     OW95894   6.841   7.902  10.311  0.1112  0.4149 -0.7751
31296SOL    HW195895   6.893   7.978  10.338  1.1258 -0.2928 -0.7011
31296SOL    HW295896   6.785   7.936  10.241 -0.1494  1.4594 -0.0903
31297SOL     OW95897   7.073   7.393   9.140 -0.1049  0.2144  0.2389
31297SOL    HW195898   7.018   7.333   9.090 -0.3600 -0.0132  0.7916
31297SOL    HW295899   7.043   7.480   9.113  1.0017  0.1428 -1.3935
31298SOL     OW95900   1.403   0.789   0.184  0.4312 -0.4825 -0.3132
31298SOL    HW195901   1.327   0.737   0.158  1.1410 -2.4179  1.3130
31298SOL    HW295902   1.456   0.794   0.104 -0.8319 -0.0516 -1.1682
31299SOL     OW95903   5.049   8.162   1.992  0.5999  0.0924 -0.4080
31299SOL    HW195904   5.077   8.252   2.010  2.5487 -0.4670 -0.4408
31299SOL    HW295905   5.072   8.113   2.072  0.0564 -0.4813 -0.5978
31300SOL     OW95906   7.415   9.806   9.086  0.3846 -1.0407 -0.2572
31300SOL    HW195907   7.412   9.800   9.182  0.3000  1.3979 -0.0367
31300SOL    HW295908   7.504   9.838   9.067  0.3943 -1.4885 -1.0015
31301SOL     OW95909   4.921   1.364   0.629  0.5615  0.0966  0.2571
31301SOL    HW195910   4.899   1.352   0.536 -1.4797 -1.8994  0.9044
31301SOL    HW295911   5.013   1.390   0.629  0.3796  1.0478 -2.3461
31302SOL     OW95912   3.537   7.607   8.580  0.2253 -0.1877  0.0982
31302SOL    HW195913   3.528   7.690   8.533 -1.0410 -0.7706 -0.7351
31302SOL    HW295914   3.609   7.562   8.535 -1.2113 -0.9027 -1.6194
31303SOL     OW95915   7.774   9.388   2.081  0.5238 -0.5819 -0.1760
31303SOL    HW195916   7.787   9.381   2.175  0.0600  1.6483  0.1171
31303SOL    HW295917   7.712   9.318   2.060  0.3471 -0.8763  1.2444
31304SOL     OW95918   4.633  10.642   1.606 -0.0618 -0.1663  0.4389
31304SOL    HW195919   4.677  10.638   1.521  0.3435 -0.1949  0.6471
31304SOL    HW295920   4.540  10.649   1.585 -0.2629 -3.0023 -0.0130
31305SOL     OW95921   7.794   7.166   6.063 -0.4535 -0.5300 -0.1267
31305SOL    HW195922   7.831   7.236   6.009 -0.7153 -0.4382 -0.1885
31305SOL    HW295923   7.701   7.168   6.043 -0.5101 -0.6733  0.1272
31306SOL     OW95924   6.873   3.740   9.524  0.1328 -0.3657 -0.1500
31306SOL    HW195925   6.936   3.805   9.555  0.5073 -0.0025 -1.5810
31306SOL    HW295926   6.796   3.791   9.499  0.7315 -0.3249 -2.0590
31307SOL     OW95927   4.685   3.427   7.741 -0.0397  0.0327 -0.0008
31307SOL    HW195928   4.622   3.470   7.684 -0.5720  0.2536  0.7579
31307SOL    HW295929   4.655   3.445   7.830  1.8085  1.2773  0.4326
31308SOL     OW95930   5.177   7.115   6.217  0.1839 -0.3371  0.0376
31308SOL    HW195931   5.253   7.131   6.161 -0.1907  1.9667  0.0880
31308SOL    HW295932   5.192   7.172   6.293 -0.6568 -1.3332  0.9677
31309SOL     OW95933   3.472   8.795   8.250  0.2110  0.1031  0.3152
31309SOL    HW195934   3.477   8.890   8.237  0.4368  0.1411  0.6870
31309SOL    HW295935   3.544   8.775   8.309 -1.2926  0.0337  2.1971
31310SOL     OW95936   6.141   1.998   8.719  0.2308  0.1493  0.2330
31310SOL    HW195937   6.188   1.980   8.801  0.8888 -2.3756 -0.5949
31310SOL    HW295938   6.188   2.071   8.679  2.0935 -0.8284  0.5202
31311SOL     OW95939   0.095   5.542   3.088 -0.4185  0.2684  0.1762
31311SOL    HW195940   0.085   5.453   3.123 -0.9807 -0.2334 -1.2087
31311SOL    HW295941   0.148   5.587   3.154  0.9436 -1.4353  0.3277
31312SOL     OW95942   7.501  10.844   7.108  0.2651 -0.1382 -0.3921
31312SOL    HW195943   7.546  10.861   7.191  0.1923  2.8722 -0.8899
31312SOL    HW295944   7.556  10.778   7.065  0.0322 -2.1812  2.1752
31313SOL     OW95945   1.286   5.160   3.414 -0.2778 -0.4265 -0.7785
31313SOL    HW195946   1.368   5.115   3.432 -0.2515  0.1415  0.6598
31313SOL    HW295947   1.275   5.220   3.488 -2.1725 -0.7668 -0.7407
31314SOL     OW95948   5.383   2.846   2.377 -0.2541  0.1254  0.4231
31314SOL    HW195949   5.336   2.763   2.365  0.2489 -0.2284  0.8812
31314SOL    HW295950   5.315   2.913   2.368 -0.6243 -0.3223 -0.1737
31315SOL     OW95951   3.290   1.478   2.463 -0.0195 -0.3603  0.2914
31315SOL    HW195952   3.227   1.542   2.433  0.9505  0.0498 -0.9646
31315SOL    HW295953   3.272   1.400   2.410  1.3559  0.1973 -1.0949
31316SOL     OW95954   8.263   6.226   4.920 -0.0369  0.7680 -0.2651
31316SOL    HW195955   8.243   6.245   5.012  2.4587  1.8289  0.1337
31316SOL    HW295956   8.329   6.156   4.924  1.2610  1.8877 -1.1353
31317SOL     OW95957  10.333   5.758   7.340  0.0991 -0.1401  0.5802
31317SOL    HW195958  10.248   5.729   7.309  0.4563  0.6774 -1.3041
31317SOL    HW295959  10.389   5.756   7.262  1.9622 -1.1438  1.8560
31318SOL     OW95960   1.391   7.972   8.043  0.1671  0.2052 -0.1520
31318SOL    HW195961   1.353   8.014   7.965 -1.5133 -2.1366 -0.6973
31318SOL    HW295962   1.335   7.896   8.059  2.0767 -0.9021  1.7585
31319SOL     OW95963   5.630   7.117   1.572 -0.2011  0.1097  0.1204
31319SOL    HW195964   5.635   7.021   1.567 -0.2015  0.1415 -0.6346
31319SOL    HW295965   5.722   7.145   1.571 -0.0543  0.0325  3.0397
31320SOL     OW95966   1.241   7.642   1.849  0.1780 -0.4371  0.3086
31320SOL    HW195967   1.150   7.659   1.825  0.1948 -0.5462  0.1694
31320SOL    HW295968   1.237   7.620   1.943  0.1758  0.4610  0.5281
31321SOL     OW95969  10.489  10.084   6.074  0.3688 -0.1871 -0.6056
31321SOL    HW195970  10.583  10.089   6.060  1.0140  0.5317  2.8997
31321SOL    HW295971  10.475  10.001   6.120 -0.4695  0.3642  0.1842
31322SOL     OW95972  10.497   0.704   0.833 -0.1968  0.6091 -0.0814
31322SOL    HW195973  10.538   0.664   0.756 -2.2555  0.1837 -1.0116
31322SOL    HW295974  10.571   0.738   0.883  1.2250  1.0600 -2.3088
31323SOL     OW95975   2.525   7.848   1.811 -0.6304  0.0882  0.2639
31323SOL    HW195976   2.601   7.831   1.867 -1.9309 -1.0948  1.7315
31323SOL    HW295977   2.483   7.925   1.848 -1.1290 -0.3087  0.5345
31324SOL     OW95978   7.680   2.188   7.889  0.2771  0.0067 -0.0711
31324SOL    HW195979   7.670   2.246   7.813  1.4092 -0.7257 -0.7981
31324SOL    HW295980   7.644   2.239   7.962  2.3456  2.1694 -0.4371
31325SOL     OW95981  10.818   8.009   0.587  0.3188  0.0029 -0.3850
31325SOL    HW195982  10.742   8.067   0.595  0.2698 -0.1191  0.0809
31325SOL    HW295983  10.811   7.950   0.662  0.8617 -0.0248 -0.3512
31326SOL     OW95984  10.850   6.291   1.002 -0.4574 -0.1004  0.3581
31326SOL    HW195985  10.824   6.341   1.080  0.4118  0.5631  0.2374
31326SOL    HW295986  10.844   6.355   0.930  0.3833 -0.2520  0.1531
31327SOL     OW95987   8.616  10.090  10.686  0.1142  0.1075  0.9782
31327SOL    HW195988   8.552  10.021  10.701 -0.0082  0.1409  0.6355
31327SOL    HW295989   8.610  10.107  10.592 -0.3340  1.0438  1.1665
31328SOL     OW95990   8.047   5.236   8.852 -0.1180  0.0996 -0.1745
31328SOL    HW195991   7.996   5.316   8.861  1.0635  0.7912  0.6753
31328SOL    HW295992   8.082   5.239   8.762 -0.2367  0.4337 -0.2067
31329SOL     OW95993   0.827   9.311   1.245 -0.1526 -0.0244  0.4132
31329SOL    HW195994   0.863   9.347   1.327  2.5093 -0.1781 -0.5871
31329SOL    HW295995   0.886   9.344   1.177 -1.0804 -1.5703 -1.2141
31330SOL     OW95996   4.440   7.427   2.614 -0.2738 -0.2348 -0.4872
31330SOL    HW195997   4.499   7.352   2.604 -0.9603 -0.6846 -1.2621
31330SOL    HW295998   4.407   7.443   2.526 -1.9795 -0.5538  0.0500
31331SOL     OW95999   5.877   7.223   1.561 -0.1126  0.1229 -0.2157
31331SOL    HW196000   5.922   7.151   1.515  2.5506  1.0977  0.6645
31331SOL    HW296001   5.928   7.236   1.641 -1.8018  1.6157  0.6964
31332SOL     OW96002   3.639  11.020   8.823 -0.1635 -0.2777 -0.3714
31332SOL    HW196003   3.593  11.086   8.771 -0.5069 -1.1409 -1.1783
31332SOL    HW296004   3.569  10.974   8.870  0.0824 -0.0232  0.2574
31333SOL     OW96005  10.970   5.971   4.417  0.1114 -0.6419 -0.5820
31333SOL    HW196006  10.972   5.923   4.500  1.5851 -0.0738 -0.2476
31333SOL    HW296007  10.898   6.033   4.426  1.1017  0.3458  0.8466
31334SOL     OW96008  10.813   2.432   7.335  0.4641 -0.4754  0.0350
31334SOL    HW196009  10.761   2.448   7.257  0.7473 -0.0244 -0.0701
31334SOL    HW296010  10.749   2.411   7.403  0.1171  0.3631 -0.0200
31335SOL     OW96011   5.428   6.090   3.861 -0.2802  0.2949 -0.3709
31335SOL    HW196012   5.457   6.177   3.836  0.7865 -0.0405 -0.3760
31335SOL    HW296013   5.462   6.033   3.792  0.8297 -0.3645  0.6850
31336SOL     OW96014   6.557   2.434   0.398  0.5577  0.0672  0.5453
31336SOL    HW196015   6.547   2.383   0.478  0.8465 -0.6396  0.1361
31336SOL    HW296016   6.475   2.484   0.392 -0.2892 -1.3058  0.2778
31337SOL     OW96017   1.131   0.007   4.899 -0.3507 -1.0431  0.3740
31337SOL    HW196018   1.188  -0.030   4.832  1.0899 -1.1001  1.5791
31337SOL    HW296019   1.072  -0.064   4.922 -0.6823 -1.1074 -0.6156
31338SOL     OW96020   8.781   0.749   3.252  0.2179  0.2153 -0.2223
31338SOL    HW196021   8.747   0.665   3.283  0.9559 -0.2204 -0.5797
31338SOL    HW296022   8.853   0.769   3.310  0.6130  0.1599 -0.6890
31339SOL     OW96023   3.242   6.547   1.504 -0.3674 -0.4200 -0.0628
31339SOL    HW196024   3.202   6.463   1.526  0.4895 -0.8231 -0.0014
31339SOL    HW296025   3.336   6.532   1.513 -0.1993  0.5239 -0.1365
31340SOL     OW96026   7.186   0.610   0.748 -0.0270  0.0075 -0.1353
31340SOL    HW196027   7.102   0.589   0.707  0.3991  0.7973 -1.4383
31340SOL    HW296028   7.185   0.559   0.829 -1.5971 -0.2993 -0.3031
31341SOL     OW96029   3.477   1.961   8.472  0.1451  0.7140 -0.0006
31341SOL    HW196030   3.518   1.905   8.538  0.3091  1.0119  0.1490
31341SOL    HW296031   3.539   1.960   8.399 -0.2175  0.0681 -0.3103
31342SOL     OW96032   1.515   0.846  10.136  0.3918  0.2857  0.2334
31342SOL    HW196033   1.501   0.941  10.140  0.9406  0.4064 -0.4034
31342SOL    HW296034   1.518   0.827  10.042  1.1146 -0.2242  0.3498
31343SOL     OW96035   6.239   2.766   9.615 -0.0558  0.0415 -0.0645
31343SOL    HW196036   6.216   2.855   9.641 -0.7755  0.1175 -0.9063
31343SOL    HW296037   6.159   2.716   9.627  1.0378 -1.1838  3.1046
31344SOL     OW96038   1.860   4.313   7.457 -0.4502 -0.1579  0.1714
31344SOL    HW196039   1.883   4.312   7.365  0.6465  0.1958  0.4280
31344SOL    HW296040   1.915   4.245   7.497  0.8416  1.2691  0.9333
31345SOL     OW96041   4.832   3.770   2.104  0.0543 -0.0525 -0.3689
31345SOL    HW196042   4.782   3.689   2.118  0.2539 -0.4173 -1.6194
31345SOL    HW296043   4.908   3.761   2.161 -0.1624 -0.5414 -0.1472
31346SOL     OW96044   8.370   1.332   1.064 -0.0659 -0.0544  0.1329
31346SOL    HW196045   8.426   1.393   1.112 -2.1627  2.2616 -0.1431
31346SOL    HW296046   8.376   1.361   0.973  1.1764 -2.2315 -0.5644
31347SOL     OW96047   3.801   9.347  10.442 -0.2272  0.2353 -0.4174
31347SOL    HW196048   3.723   9.389  10.477  0.8594  1.4989  0.6339
31347SOL    HW296049   3.809   9.265  10.491 -0.4566  0.4944  0.0586
31348SOL     OW96050   2.513   5.297   1.145  0.4009 -0.2532 -0.2052
31348SOL    HW196051   2.608   5.313   1.144  0.2072  0.9727 -1.2253
31348SOL    HW296052   2.499   5.242   1.222  1.8773 -0.0529  0.2430
31349SOL     OW96053   1.433   2.498   4.753 -0.0381  0.4869 -0.2612
31349SOL    HW196054   1.454   2.467   4.841  1.7180  0.5920 -0.6194
31349SOL    HW296055   1.517   2.521   4.715 -0.8948  1.6292 -1.5404
31350SOL     OW96056   5.980   9.335   5.975  0.0197 -0.7986  0.5404
31350SOL    HW196057   5.975   9.275   6.049 -0.5225 -0.2173  0.9796
31350SOL    HW296058   5.890   9.363   5.960  0.1445 -0.8072 -0.2571
31351SOL     OW96059   0.213   9.127   0.856  0.2868  0.2718  0.0714
31351SOL    HW196060   0.252   9.098   0.938  0.9420  1.5060  0.2142
31351SOL    HW296061   0.266   9.084   0.788 -0.3933 -0.9216  0.2782
31352SOL     OW96062   2.634   1.276   8.042 -0.0582 -0.4480  0.3441
31352SOL    HW196063   2.593   1.358   8.070 -0.2891 -0.4810  0.1011
31352SOL    HW296064   2.676   1.296   7.959 -2.1572 -1.1570 -0.9710
31353SOL     OW96065   6.142   1.099   2.930 -0.4877  0.7052 -0.4820
31353SOL    HW196066   6.228   1.069   2.961 -0.4350 -0.8881 -1.9982
31353SOL    HW296067   6.123   1.176   2.983 -0.1398 -1.3932  3.0354
31354SOL     OW96068   6.015   6.699   2.031  0.4109 -0.4443  0.0878
31354SOL    HW196069   6.079   6.755   2.077  1.4527 -2.4157  1.1925
31354SOL    HW296070   5.974   6.757   1.967  0.9651  1.7325  1.5788
31355SOL     OW96071   3.339  10.939   7.210  0.4706 -0.3151 -0.0093
31355SOL    HW196072   3.330  10.902   7.122  0.2095 -1.2670  0.4093
31355SOL    HW296073   3.329  11.034   7.197 -1.2819 -0.5653 -0.7835
31356SOL     OW96074  10.659   5.430   5.608  0.6112  0.9079 -0.2065
31356SOL    HW196075  10.607   5.402   5.533  0.5955 -1.6374  0.6615
31356SOL    HW296076  10.748   5.401   5.589  0.8362  1.2494  0.2773
31357SOL     OW96077   0.321   6.815  11.039  0.2789  0.2228 -0.0926
31357SOL    HW196078   0.370   6.752  11.092  1.9094  2.6778  1.5431
31357SOL    HW296079   0.380   6.836  10.967 -0.0381  0.2784 -0.3367
31358SOL     OW96080   4.247  10.736   3.398 -0.0143 -0.4412  0.1021
31358SOL    HW196081   4.220  10.776   3.480 -0.7517 -1.0487  0.1617
31358SOL    HW296082   4.225  10.643   3.408 -1.7833 -0.2452 -1.4571
31359SOL     OW96083   2.453   1.492   5.337  0.5499  0.4353  0.2806
31359SOL    HW196084   2.484   1.482   5.247 -2.3287 -1.4787 -0.6460
31359SOL    HW296085   2.386   1.560   5.332 -0.1939 -0.2414  0.7866
31360SOL     OW96086   7.418   9.472   3.378  0.2898 -0.5887  0.8558
31360SOL    HW196087   7.409   9.402   3.312  2.1992 -0.6065  0.5536
31360SOL    HW296088   7.405   9.427   3.462 -0.4792 -0.8914  0.5891
31361SOL     OW96089   3.586   5.129   6.338  0.1393  0.6187  0.3582
31361SOL    HW196090   3.584   5.200   6.403 -1.7854  0.1264  0.9061
31361SOL    HW296091   3.496   5.098   6.334  0.0719  0.8939 -2.9045
31362SOL     OW96092   8.434   5.061   7.877  0.1199  0.3698  0.0542
31362SOL    HW196093   8.478   4.976   7.878  0.3438  0.4670 -0.6627
31362SOL    HW296094   8.343   5.040   7.857  0.0901  0.2715  0.2811
31363SOL     OW96095   6.687  10.244   8.679  0.5248 -0.5724  0.0580
31363SOL    HW196096   6.604  10.257   8.723  2.0337  0.2522  2.9193
31363SOL    HW296097   6.694  10.149   8.666  0.1063 -0.8854  1.9207
31364SOL     OW96098   2.166   2.400   7.623 -0.8330  0.3767 -0.4181
31364SOL    HW196099   2.260   2.389   7.610 -0.6935  1.4101 -0.3760
31364SOL    HW296100   2.133   2.312   7.637  0.0469 -0.0567 -0.9951
31365SOL     OW96101  10.659   7.658   8.546 -0.0530 -0.4545 -0.1002
31365SOL    HW196102  10.655   7.622   8.635  0.3124  0.9005  0.4907
31365SOL    HW296103  10.676   7.583   8.490 -0.6788 -1.3910  0.9286
31366SOL     OW96104   2.225   9.053   3.013 -0.4174 -0.2531 -1.1914
31366SOL    HW196105   2.307   9.013   3.043  0.4028  3.2951  1.9140
31366SOL    HW296106   2.175   8.980   2.976  2.0245 -3.5579  1.4499
31367SOL     OW96107   9.508   4.879   5.817  0.0795  0.3962 -0.2601
31367SOL    HW196108   9.545   4.961   5.783  0.7222  0.5999  0.8940
31367SOL    HW296109   9.502   4.822   5.740  0.8199  1.0887 -0.8540
31368SOL     OW96110   1.281   4.485   8.411 -0.3500  0.4162 -0.3151
31368SOL    HW196111   1.370   4.450   8.412 -0.7981 -0.7695  0.5642
31368SOL    HW296112   1.267   4.513   8.321  0.2800 -1.0849 -0.9162
31369SOL     OW96113   2.859  10.081  10.760 -0.2810 -0.0073 -0.5693
31369SOL    HW196114   2.849  10.113  10.670 -1.2933 -0.2871 -0.5631
31369SOL    HW296115   2.827  10.153  10.814  1.2907  0.5838 -0.3579
31370SOL     OW96116   7.553   5.170   3.031 -0.3055  0.4217  0.2251
31370SOL    HW196117   7.611   5.150   3.104  2.0215  0.0705 -1.5984
31370SOL    HW296118   7.469   5.192   3.072  0.8584  0.1532  2.9544
31371SOL     OW96119   1.011   2.997   5.259  0.4081 -0.2945 -0.3204
31371SOL    HW196120   1.020   3.092   5.268 -2.2347  0.0471 -0.5663
31371SOL    HW296121   0.922   2.984   5.228  0.8646 -2.8625 -0.7848
31372SOL     OW96122   8.401   7.047   6.224 -0.4216  0.4829  0.5029
31372SOL    HW196123   8.320   6.997   6.212 -0.1219  0.1630 -0.2404
31372SOL    HW296124   8.372   7.138   6.233 -0.8003  0.5440 -1.0598
31373SOL     OW96125   6.496   9.179   3.820  0.7864  0.2509  0.3552
31373SOL    HW196126   6.505   9.098   3.870  0.6176 -0.2848 -0.4672
31373SOL    HW296127   6.454   9.240   3.880  0.2442 -0.4968  0.7436
31374SOL     OW96128   0.757   9.455   9.495 -0.3974 -0.0104 -0.1284
31374SOL    HW196129   0.786   9.364   9.492  0.1497  0.1574 -2.3451
31374SOL    HW296130   0.797   9.495   9.417  0.5985  2.5125  1.5571
31375SOL     OW96131   8.792   8.999  10.318  0.2884  0.3247 -0.2836
31375SOL    HW196132   8.864   8.963  10.266 -0.7536 -0.7349 -1.0418
31375SOL    HW296133   8.747   9.059  10.259  0.2311  0.5848  0.0203
31376SOL     OW96134  10.727   5.905   4.240 -0.1525  0.1665 -0.7480
31376SOL    HW196135  10.754   5.813   4.232  1.2820  0.5811 -1.0320
31376SOL    HW296136  10.794   5.954   4.192 -0.8604  1.3766 -0.5516
31377SOL     OW96137   0.811   2.091   9.747 -0.1429  0.3654 -0.3817
31377SOL    HW196138   0.773   2.109   9.833  0.0485 -2.2776  0.3542
31377SOL    HW296139   0.736   2.086   9.688 -0.3061  1.8754 -0.3280
31378SOL     OW96140   5.660   1.522   9.161  0.3527 -0.4810 -0.5133
31378SOL    HW196141   5.661   1.478   9.076 -0.3640  1.1650 -1.4122
31378SOL    HW296142   5.573   1.561   9.167  0.8837  0.6226  0.3470
31379SOL     OW96143   9.661   0.198   9.672 -0.1319 -0.1650  0.5704
31379SOL    HW196144   9.756   0.210   9.680 -0.1844 -1.0152  3.5403
31379SOL    HW296145   9.628   0.207   9.761 -2.6255 -1.8425 -0.0768
31380SOL     OW96146   9.679  10.068   9.526  0.3930 -0.5073 -0.6202
31380SOL    HW196147   9.661   9.976   9.505 -1.1889 -0.4160  0.1997
31380SOL    HW296148   9.622  10.117   9.467 -0.2175 -0.1164  0.2839
31381SOL     OW96149   0.683   6.321   4.791 -0.1280  0.4087  0.7296
31381SOL    HW196150   0.700   6.323   4.885  0.4268  0.4374  0.6347
31381SOL    HW296151   0.769   6.338   4.751 -0.5095  1.2251  0.2346
31382SOL     OW96152   2.537   4.782   4.704 -0.2669  0.3404  0.1351
31382SOL    HW196153   2.548   4.795   4.798 -1.6085  2.4171  0.0768
31382SOL    HW296154   2.614   4.824   4.665  0.0618 -0.1244  0.2715
31383SOL     OW96155   6.316   1.439   0.627  0.0486 -0.1107 -0.5147
31383SOL    HW196156   6.268   1.364   0.593  1.2917 -1.0274 -0.3128
31383SOL    HW296157   6.368   1.404   0.699  2.0817  0.5050 -1.5903
31384SOL     OW96158  10.069   6.706   9.314 -0.1053 -0.4990  0.2217
31384SOL    HW196159   9.990   6.710   9.259  0.8529 -0.5176 -1.1983
31384SOL    HW296160  10.134   6.759   9.268  0.8052 -0.6916  1.2375
31385SOL     OW96161   4.842   5.013   4.846 -0.1715 -0.7235 -0.5539
31385SOL    HW196162   4.836   4.919   4.829  0.0362 -0.7381 -0.5533
31385SOL    HW296163   4.829   5.053   4.760 -0.6288 -0.7356 -0.4945
31386SOL     OW96164   7.658   8.040   6.765 -0.3384  0.2678  0.5629
31386SOL    HW196165   7.613   8.082   6.692 -0.7815  3.1714  2.3242
31386SOL    HW296166   7.588   8.003   6.819 -0.2642  0.6226  0.9122
31387SOL     OW96167  10.410   2.553   1.237  0.0537  0.1153 -0.3288
31387SOL    HW196168  10.481   2.613   1.216 -0.1575  0.4131 -0.1877
31387SOL    HW296169  10.408   2.550   1.332  0.1039 -0.1663 -0.3337
31388SOL     OW96170   0.515   8.181   3.024 -0.4775 -0.2770  0.3035
31388SOL    HW196171   0.486   8.213   2.939 -2.5957 -0.2407  0.9910
31388SOL    HW296172   0.552   8.094   3.006 -1.1275 -0.3730 -0.6234
31389SOL     OW96173   1.836   3.515   6.353  0.2934 -0.2847 -0.2914
31389SOL    HW196174   1.753   3.510   6.307 -0.8264  0.8022  1.5083
31389SOL    HW296175   1.895   3.557   6.290 -0.9199  0.3371 -1.0563
31390SOL     OW96176   7.693   2.477   2.013 -0.2613  0.8717 -0.2008
31390SOL    HW196177   7.601   2.461   2.037  0.1309  0.2903  1.0018
31390SOL    HW296178   7.690   2.496   1.919 -1.7194  1.8739  0.0209
31391SOL     OW96179   6.156   0.005   4.467  0.3482 -0.8060 -0.1242
31391SOL    HW196180   6.201   0.001   4.383  0.7442 -1.9363  0.1239
31391SOL    HW296181   6.079  -0.051   4.456 -0.0668 -0.2830  0.0142
31392SOL     OW96182   1.741   0.997  10.802 -0.1209 -0.6034  0.0052
31392SOL    HW196183   1.778   1.073  10.847 -0.3424 -0.6817  0.3207
31392SOL    HW296184   1.711   1.031  10.718  2.2467 -0.8474 -1.0329
31393SOL     OW96185   0.957   9.958   6.568 -0.3627  0.3697 -0.1421
31393SOL    HW196186   0.915   9.939   6.652  0.1250  0.3615  0.1064
31393SOL    HW296187   0.997  10.044   6.581  1.9429 -0.7233  0.5363
31394SOL     OW96188   9.603  10.014   7.360  0.6425  0.0183 -0.1788
31394SOL    HW196189   9.605   9.922   7.334  0.8894 -0.1423  0.3964
31394SOL    HW296190   9.589  10.013   7.454 -0.9866  0.6084 -0.3806
31395SOL     OW96191   4.448   4.160   0.695 -0.2178 -0.3549 -0.1692
31395SOL    HW196192   4.474   4.132   0.607  0.0058  0.9134 -0.5371
31395SOL    HW296193   4.366   4.208   0.681 -0.9731 -1.3927  0.5303
31396SOL     OW96194   9.552   4.936   4.005 -0.2988  0.8518  0.2508
31396SOL    HW196195   9.532   4.901   3.918 -1.6242  2.4921 -0.1482
31396SOL    HW296196   9.467   4.947   4.047  0.2252  1.5929  1.1530
31397SOL     OW96197   8.228  10.803   9.142  0.2948 -0.0411  0.1471
31397SOL    HW196198   8.166  10.812   9.215  0.3443  0.5752  0.1182
31397SOL    HW296199   8.304  10.853   9.170 -0.3701  1.7714 -1.0825
31398SOL     OW96200   3.067   5.359  10.237  0.3838  0.4567 -0.1219
31398SOL    HW196201   3.014   5.291  10.278  0.6063 -0.6632 -1.5942
31398SOL    HW296202   3.135   5.380  10.301 -0.2165 -0.0592  0.6967
31399SOL     OW96203  10.010   6.824  10.785 -0.1765 -0.6218  0.7531
31399SOL    HW196204  10.087   6.791  10.830  0.7920  3.2628  2.3609
31399SOL    HW296205   9.936   6.787  10.834  0.7271 -1.9615  1.1390
31400SOL     OW96206   9.786   3.018  10.190  0.3209  0.2786  0.3356
31400SOL    HW196207   9.824   2.936  10.220 -0.5939 -0.1059  0.4929
31400SOL    HW296208   9.850   3.085  10.212  1.3106 -0.4541 -0.2638
31401SOL     OW96209   4.709   6.250  10.028 -0.3635 -0.8443 -0.1338
31401SOL    HW196210   4.741   6.161  10.030  0.4390 -0.6595 -2.3141
31401SOL    HW296211   4.776   6.301  10.073 -0.3992 -1.2144  0.3445
31402SOL     OW96212   3.533   0.395   8.650 -0.1459 -0.0307 -0.4902
31402SOL    HW196213   3.513   0.489   8.651  1.6669  0.4224  1.4766
31402SOL    HW296214   3.574   0.380   8.565  1.8199  1.5764  0.0997
31403SOL     OW96215   6.714   6.487   0.517  0.3232  0.0766  0.1178
31403SOL    HW196216   6.754   6.525   0.594 -0.1621  0.9575 -0.0534
31403SOL    HW296217   6.620   6.483   0.538  0.3734 -1.2375  0.2164
31404SOL     OW96218   8.534   9.864   0.742  0.2640  0.7245  0.5435
31404SOL    HW196219   8.566   9.803   0.676 -0.5110  0.2694  0.5767
31404SOL    HW296220   8.574   9.948   0.718 -0.2128  0.6281 -0.6660
31405SOL     OW96221   5.647   4.325   7.532  0.1665  0.4625 -0.2437
31405SOL    HW196222   5.648   4.284   7.619 -0.2915 -0.1657 -0.5320
31405SOL    HW296223   5.723   4.288   7.487 -0.0777  0.1492 -0.4009
31406SOL     OW96224   4.856   4.122   7.551  0.5557  0.5249  0.5394
31406SOL    HW196225   4.783   4.094   7.497  0.0099 -0.3687  1.7100
31406SOL    HW296226   4.902   4.041   7.575  3.0164  1.1550 -1.5977
31407SOL     OW96227   4.398   9.206   8.083 -0.2218  0.0564 -0.0141
31407SOL    HW196228   4.458   9.214   8.158 -0.3394  0.5768  0.0300
31407SOL    HW296229   4.395   9.112   8.065 -1.0614 -0.2084  1.3493
31408SOL     OW96230   9.828   7.123   2.478 -0.3631 -0.0232 -0.2165
31408SOL    HW196231   9.774   7.046   2.462  1.0291 -1.5379  1.8391
31408SOL    HW296232   9.914   7.100   2.443 -0.5221  1.7133 -1.9724
31409SOL     OW96233   5.108   4.221   8.303 -0.4131  0.4928  0.6417
31409SOL    HW196234   5.132   4.181   8.387  0.7055  1.2195  0.6892
31409SOL    HW296235   5.155   4.304   8.302 -0.5173  0.5555 -0.6621
31410SOL     OW96236   0.440   1.268   5.226  0.1822  0.2334  0.3154
31410SOL    HW196237   0.428   1.278   5.320  0.4435  1.5907  0.2326
31410SOL    HW296238   0.488   1.186   5.216 -0.6631 -0.4054  1.2883
31411SOL     OW96239   0.755   4.404   8.561 -0.0292  0.5178  0.0914
31411SOL    HW196240   0.814   4.404   8.637  2.9883  0.6458 -2.0352
31411SOL    HW296241   0.739   4.311   8.543  0.7850  0.4079 -0.1309
31412SOL     OW96242   6.748   0.700  10.529  0.1857  0.1384 -0.0743
31412SOL    HW196243   6.746   0.648  10.610 -0.8453  0.2880  0.0131
31412SOL    HW296244   6.750   0.791  10.560  0.4250  0.1809 -0.2189
31413SOL     OW96245   8.586   0.401   3.705 -0.1827  0.0730 -0.4762
31413SOL    HW196246   8.506   0.453   3.707 -0.2291 -0.0086  1.4001
31413SOL    HW296247   8.569   0.335   3.637 -1.3152  0.6221 -0.7580
31414SOL     OW96248   8.513   0.871   0.320 -0.1786  0.5174 -0.5227
31414SOL    HW196249   8.442   0.927   0.350  0.7004  0.5649  1.6238
31414SOL    HW296250   8.568   0.929   0.267 -0.0156  1.3420  0.5184
31415SOL     OW96251   8.178   0.306   0.094  0.5754  0.3311  0.2902
31415SOL    HW196252   8.095   0.269   0.124 -0.4060  2.4644  0.4240
31415SOL    HW296253   8.152   0.374   0.031  2.2572  0.7029 -0.0444
31416SOL     OW96254   4.057   9.567   1.555  0.2076  0.1362 -0.6886
31416SOL    HW196255   4.025   9.539   1.469  0.5944 -0.1067 -0.7581
31416SOL    HW296256   3.998   9.638   1.581 -0.4900 -0.4112 -0.7325
31417SOL     OW96257   4.595   9.728   2.394 -0.6119  0.8119 -0.2764
31417SOL    HW196258   4.508   9.735   2.433 -1.1621  1.0206 -1.5174
31417SOL    HW296259   4.646   9.794   2.440 -0.8331  0.0742  1.1088
31418SOL     OW96260   6.876   7.442   2.845 -0.6229  0.8834 -0.2443
31418SOL    HW196261   6.887   7.415   2.936 -0.8168  0.2913 -0.3962
31418SOL    HW296262   6.823   7.373   2.805 -0.7495  1.2642 -0.7465
31419SOL     OW96263   8.790   8.096   9.525  0.3541  0.6203 -0.2946
31419SOL    HW196264   8.772   8.016   9.573  0.3225  1.2926  0.8566
31419SOL    HW296265   8.805   8.162   9.593 -0.5742  1.8041 -1.1918
31420SOL     OW96266   2.834   5.230   5.586  0.1316 -0.1151 -0.2890
31420SOL    HW196267   2.753   5.212   5.633  0.5270  0.0600  0.4729
31420SOL    HW296268   2.805   5.262   5.500 -0.6017 -0.1195 -0.0516
31421SOL     OW96269   0.634   9.365   1.042 -0.2483  0.6197 -0.1413
31421SOL    HW196270   0.705   9.391   1.100  0.5798 -0.7276 -0.4926
31421SOL    HW296271   0.666   9.386   0.954 -0.7804  1.0907 -0.2239
31422SOL     OW96272   1.861   8.942  10.997 -0.5235  0.2370 -0.4993
31422SOL    HW196273   1.909   9.022  10.974  0.1931 -0.2272 -0.6605
31422SOL    HW296274   1.820   8.914  10.915 -0.2461  0.0906 -0.5891
31423SOL     OW96275   5.895   7.438   4.836  0.1941 -0.0711  0.0634
31423SOL    HW196276   5.917   7.522   4.796  0.1383  0.1386  0.4668
31423SOL    HW296277   5.960   7.377   4.801 -0.6349 -0.1851 -1.3579
31424SOL     OW96278   1.135   0.985   2.376  0.3778  0.1796 -0.2744
31424SOL    HW196279   1.214   1.039   2.382  0.0526  0.5669  0.6232
31424SOL    HW296280   1.140   0.927   2.452  0.3344 -0.5475 -0.8080
31425SOL     OW96281   6.195   9.652   1.366 -0.3641 -0.1725  0.4789
31425SOL    HW196282   6.214   9.559   1.353 -0.7365 -0.5050  2.1056
31425SOL    HW296283   6.255   9.697   1.306  0.4399 -1.4315  0.2912
31426SOL     OW96284   4.902   5.113   8.467 -0.5040 -0.5136 -0.1093
31426SOL    HW196285   4.979   5.165   8.487 -1.2666  0.5524  0.1469
31426SOL    HW296286   4.930   5.054   8.397  0.7190 -0.6125  0.4564
31427SOL     OW96287   6.502   9.882   1.435  0.0022 -0.0141 -0.2531
31427SOL    HW196288   6.563   9.810   1.420 -0.6364 -0.5144 -0.5065
31427SOL    HW296289   6.479   9.875   1.528 -1.8351 -1.5957 -0.7752
31428SOL     OW96290   7.737   4.784   7.548 -0.2750  0.2020 -0.1307
31428SOL    HW196291   7.794   4.707   7.548 -0.3380  0.1518 -0.6613
31428SOL    HW296292   7.785   4.848   7.495 -0.4525  0.3584 -0.1029
31429SOL     OW96293   8.104   2.641   5.080 -0.0291  0.4083 -0.6721
31429SOL    HW196294   8.176   2.593   5.121  1.0849  2.0041 -0.6714
31429SOL    HW296295   8.118   2.732   5.106  0.3691  1.4379 -3.9646
31430SOL     OW96296   9.422  10.427   1.133 -0.2323 -0.1730 -0.2693
31430SOL    HW196297   9.467  10.511   1.144 -2.0310  0.8735 -0.5118
31430SOL    HW296298   9.333  10.451   1.106 -1.8025 -1.9749  2.7742
31431SOL     OW96299   3.962   6.182   8.118  0.1853  0.0150  0.1665
31431SOL    HW196300   3.917   6.208   8.199 -0.6591  0.2145 -0.3487
31431SOL    HW296301   3.928   6.242   8.052  0.4137 -0.5330 -0.4555
31432SOL     OW96302   8.813   6.597  10.426  0.4064  0.0233 -0.2049
31432SOL    HW196303   8.875   6.607  10.498  1.0021  0.9818 -0.8319
31432SOL    HW296304   8.854   6.642  10.352 -0.6847  0.0085 -0.8457
31433SOL     OW96305   8.288   4.706   1.458  0.1873  0.8124  0.0969
31433SOL    HW196306   8.374   4.746   1.473 -0.6034  2.1050  1.4561
31433SOL    HW296307   8.303   4.643   1.388  2.2701  0.9143  0.3882
31434SOL     OW96308  10.682   9.171   2.890  0.0655 -0.2401  0.4708
31434SOL    HW196309  10.597   9.197   2.924  1.1443  3.3211  0.9314
31434SOL    HW296310  10.670   9.168   2.795 -0.4304  1.0517  0.4731
31435SOL     OW96311   8.728   9.887   1.404  0.1905 -0.3893  0.1713
31435SOL    HW196312   8.675   9.950   1.356 -0.0595  0.3075  1.3028
31435SOL    HW296313   8.782   9.845   1.338 -0.1019  0.5631 -0.6983
31436SOL     OW96314  10.391   3.935   8.165 -0.0381 -0.2525  0.1281
31436SOL    HW196315  10.405   3.876   8.239  1.4535 -0.6195 -0.4246
31436SOL    HW296316  10.377   3.877   8.091  1.0487  0.0788 -0.3487
31437SOL     OW96317   3.282  10.827  10.925 -0.0038  0.0381 -0.1933
31437SOL    HW196318   3.193  10.804  10.900 -0.2463  1.7888 -1.1204
31437SOL    HW296319   3.335  10.803  10.850  0.2814 -0.6687  0.2178
31438SOL     OW96320   2.063   3.218   8.220  0.5040 -0.3199  0.0960
31438SOL    HW196321   2.003   3.153   8.184  1.9923 -1.8560  0.2604
31438SOL    HW296322   2.079   3.189   8.310  1.9587 -0.3364 -0.1359
31439SOL     OW96323   9.325   9.329   0.376  0.3538 -0.4828 -0.2606
31439SOL    HW196324   9.270   9.300   0.303  0.7510 -1.2517 -0.2634
31439SOL    HW296325   9.331   9.252   0.433  0.9907 -0.2418  0.0012
31440SOL     OW96326   6.932   8.900   5.434  0.4274  0.3556 -0.2248
31440SOL    HW196327   6.966   8.810   5.436  1.0616  0.4113 -3.5421
31440SOL    HW296328   7.010   8.955   5.421  0.2578  1.6867  3.1876
31441SOL     OW96329   7.232   3.920   0.016 -0.0389 -0.5499  0.3379
31441SOL    HW196330   7.307   3.945   0.069  0.6569 -1.1457 -0.3339
31441SOL    HW296331   7.192   3.847   0.063  0.1091 -0.5667  0.4387
31442SOL     OW96332   4.369   9.958   9.249 -0.2476 -0.0659  0.0631
31442SOL    HW196333   4.464   9.952   9.261 -0.1172  0.4745 -0.6187
31442SOL    HW296334   4.348  10.049   9.268 -1.0004 -0.6602  2.4913
31443SOL     OW96335  10.403   0.893   5.483  0.2096 -0.3692 -0.1548
31443SOL    HW196336  10.448   0.853   5.409  0.8804  1.1141 -0.6038
31443SOL    HW296337  10.471   0.941   5.529 -0.6654  0.8846 -0.1091
31444SOL     OW96338   7.315   4.014   2.753  0.1632 -0.2795  0.1079
31444SOL    HW196339   7.296   4.107   2.766 -2.4586 -0.8197  0.8565
31444SOL    HW296340   7.312   4.003   2.658 -1.0243  0.1746  0.0723
31445SOL     OW96341   8.157   9.737   9.804  0.5258  0.6663 -0.3094
31445SOL    HW196342   8.194   9.665   9.752 -1.4176 -0.9414  0.3985
31445SOL    HW296343   8.086   9.771   9.749  0.2177  0.7667  0.1480
31446SOL     OW96344   5.327   0.579   3.473 -0.4153 -0.4281  0.2367
31446SOL    HW196345   5.242   0.575   3.518 -0.1364  1.1654  0.9554
31446SOL    HW296346   5.319   0.654   3.414  0.5360 -0.1839  0.4105
31447SOL     OW96347   9.444  10.010   9.744 -0.2595 -0.3275  0.1427
31447SOL    HW196348   9.405   9.932   9.704  1.6532  0.1201 -2.9854
31447SOL    HW296349   9.391  10.082   9.713  0.0727 -0.1246  0.0346
31448SOL     OW96350   1.440   8.159   1.910  0.2914 -0.0428  0.1542
31448SOL    HW196351   1.454   8.067   1.887 -0.2989 -0.2412  0.5475
31448SOL    HW296352   1.346   8.165   1.926  0.0274  1.0186 -1.5108
31449SOL     OW96353  11.035   8.710   0.177  0.1344  0.0740 -0.2597
31449SOL    HW196354  10.964   8.698   0.114 -0.2100  0.5095  0.0428
31449SOL    HW296355  11.016   8.647   0.247 -0.0741  0.3388 -0.0760
31450SOL     OW96356   7.784   9.496   2.411 -0.1015 -0.4018 -0.0888
31450SOL    HW196357   7.808   9.410   2.377  1.7454  0.2962 -0.6725
31450SOL    HW296358   7.817   9.558   2.346 -0.0554  0.8189  1.0412
31451SOL     OW96359   5.574   6.796   2.193  0.2220  0.4882  0.1716
31451SOL    HW196360   5.555   6.708   2.225 -0.1176  0.8009  0.8439
31451SOL    HW296361   5.668   6.795   2.173  0.2991  0.0959  0.5566
31452SOL     OW96362   2.607   0.742   0.954 -0.2128  0.0390 -0.3047
31452SOL    HW196363   2.517   0.776   0.947  0.2283  0.9814 -1.9359
31452SOL    HW296364   2.631   0.756   1.046 -1.8248 -0.4998  0.2357
31453SOL     OW96365   1.287   6.285   3.324  0.1526 -0.2080  0.4426
31453SOL    HW196366   1.296   6.199   3.282 -2.5297  0.0894 -0.9501
31453SOL    HW296367   1.318   6.271   3.413  0.5762 -2.4183  0.0070
31454SOL     OW96368   5.830   7.477   6.156  0.0257  0.2118 -0.4884
31454SOL    HW196369   5.803   7.388   6.133  1.5106 -0.6508  0.8897
31454SOL    HW296370   5.901   7.497   6.095 -0.8925  0.8425 -1.3864
31455SOL     OW96371   9.911   2.907   6.209  0.2701  0.1556  0.0450
31455SOL    HW196372   9.939   2.968   6.140  1.4671  0.8985  1.1493
31455SOL    HW296373   9.862   2.962   6.270  0.4294 -0.2054  0.5003
31456SOL     OW96374   3.590   8.710  10.204  0.7356  0.9012  0.9655
31456SOL    HW196375   3.621   8.757  10.281  1.0557  1.8360  0.2961
31456SOL    HW296376   3.523   8.768  10.167 -1.6524 -0.9171  2.1939
31457SOL     OW96377  10.404   0.278   9.028  0.3141  0.2958 -0.3172
31457SOL    HW196378  10.414   0.334   8.951  0.2732  1.8454  0.7567
31457SOL    HW296379  10.492   0.273   9.066  0.3040 -0.3273 -0.3679
31458SOL     OW96380   0.236   1.486   4.669 -0.6329 -0.4948 -0.2460
31458SOL    HW196381   0.319   1.463   4.711 -0.5806 -2.2537 -1.2236
31458SOL    HW296382   0.252   1.476   4.576 -0.9144  2.8374 -0.7722
31459SOL     OW96383   7.764   7.138   3.605 -0.3760  0.2320 -0.1806
31459SOL    HW196384   7.829   7.107   3.669 -0.5750 -0.3875 -0.2785
31459SOL    HW296385   7.682   7.140   3.653 -1.0059 -2.4765 -0.9887
31460SOL     OW96386   5.352   6.881   3.129  0.3866 -0.0976 -0.0161
31460SOL    HW196387   5.391   6.794   3.122  1.5071  0.4960 -1.5574
31460SOL    HW296388   5.401   6.923   3.200  0.2601 -0.4825  0.3080
31461SOL     OW96389   3.168   8.495   7.341 -0.1190 -0.2757 -0.2676
31461SOL    HW196390   3.236   8.462   7.281  0.6210  1.2049 -0.2932
31461SOL    HW296391   3.218   8.531   7.415 -0.9130  0.1858  0.0501
31462SOL     OW96392   5.325   7.928   5.856  0.6236 -0.1180  0.5008
31462SOL    HW196393   5.410   7.964   5.832  0.9442 -1.6193 -0.7350
31462SOL    HW296394   5.263   8.000   5.842  1.6773  1.0573  1.6159
31463SOL     OW96395   4.271   0.299   0.173  0.0533  0.0979 -0.4382
31463SOL    HW196396   4.270   0.342   0.088 -1.7217 -0.2389 -0.6186
31463SOL    HW296397   4.184   0.261   0.182  0.6547 -1.0280  0.9553
31464SOL     OW96398   7.805   1.410   0.374 -0.0457  0.4759  0.1720
31464SOL    HW196399   7.752   1.428   0.296 -0.0234  1.6012  0.4031
31464SOL    HW296400   7.878   1.471   0.368  0.9424 -0.6865  0.1488
31465SOL     OW96401   6.564   2.312   5.942  0.6761  0.2370  0.3714
31465SOL    HW196402   6.501   2.253   5.900  0.4165  0.5629  0.3070
31465SOL    HW296403   6.540   2.399   5.912  1.2844  0.3459  0.1753
31466SOL     OW96404   6.838   7.341   2.457 -0.0870 -0.7152  0.2246
31466SOL    HW196405   6.759   7.336   2.403 -0.8547 -1.0908  1.3298
31466SOL    HW296406   6.910   7.324   2.397 -0.6728  1.3036 -1.1834
31467SOL     OW96407   3.161   5.976   3.531 -0.2087  0.4696  0.1258
31467SOL    HW196408   3.219   6.050   3.553  1.1799 -0.5732  0.1153
31467SOL    HW296409   3.172   5.965   3.436  0.4866 -0.4671  0.3088
31468SOL     OW96410   3.691  10.539   3.408 -0.6181  0.2207 -0.0246
31468SOL    HW196411   3.741  10.539   3.326 -1.2691  0.3004 -0.4253
31468SOL    HW296412   3.693  10.448   3.436 -0.7034  0.1263 -0.3194
31469SOL     OW96413   0.741   3.198   4.281 -0.2070  0.4028 -0.2739
31469SOL    HW196414   0.806   3.206   4.352  0.8911  0.9976 -1.3068
31469SOL    HW296415   0.759   3.273   4.224 -1.7170  0.4863 -0.6809
31470SOL     OW96416   2.241   3.066   1.352  0.0357 -0.1913  0.3971
31470SOL    HW196417   2.258   3.091   1.443 -2.0885 -0.0835  0.8250
31470SOL    HW296418   2.158   3.110   1.331  0.7618  0.2309 -1.7834
31471SOL     OW96419   4.213   5.507   1.574 -0.1225  0.2792  0.5852
31471SOL    HW196420   4.256   5.484   1.656  0.6367 -0.8119 -0.0992
31471SOL    HW296421   4.268   5.575   1.536 -1.6852  2.4729  2.0023
31472SOL     OW96422   0.509   1.543   3.548  0.4540 -0.2013 -0.0344
31472SOL    HW196423   0.534   1.452   3.529 -1.2671 -0.3706 -1.8989
31472SOL    HW296424   0.417   1.537   3.574  0.2537  1.0318 -0.4162
31473SOL     OW96425   4.094   1.841   1.917  0.2599  0.1772 -0.2061
31473SOL    HW196426   4.024   1.822   1.978  0.1354  0.4558 -0.2565
31473SOL    HW296427   4.169   1.791   1.949  0.5282  1.2071  0.8430
31474SOL     OW96428   8.494   6.588   0.500  0.1693  0.4542 -0.3462
31474SOL    HW196429   8.559   6.564   0.567 -0.2366  1.9505  0.6325
31474SOL    HW296430   8.419   6.532   0.518  0.1314  0.7189  0.3642
31475SOL     OW96431   4.550   1.525   3.256  0.1246  0.4743  0.0227
31475SOL    HW196432   4.587   1.459   3.314  0.2017 -1.2498 -1.8915
31475SOL    HW296433   4.626   1.570   3.218  0.0772  1.3677  0.9266
31476SOL     OW96434   2.696   2.662   2.433 -0.3151 -0.7054 -0.3889
31476SOL    HW196435   2.662   2.691   2.348  0.6159  0.5182 -0.3864
31476SOL    HW296436   2.742   2.739   2.467  0.7694 -1.6947  0.4599
31477SOL     OW96437   1.686   0.119  10.961 -0.1740 -0.2232 -0.3698
31477SOL    HW196438   1.657   0.210  10.960 -1.1603 -0.4688  1.5927
31477SOL    HW296439   1.605   0.068  10.966  0.3508 -1.2546 -1.7035
31478SOL     OW96440   6.774   5.472   3.354 -0.5982  0.4048  0.5527
31478SOL    HW196441   6.843   5.461   3.420 -0.5975  1.8948  0.8305
31478SOL    HW296442   6.812   5.435   3.274 -0.9095 -2.2095  1.5017
31479SOL     OW96443   9.637   9.582  10.164  0.1486  0.0800 -0.0102
31479SOL    HW196444   9.635   9.529  10.084 -0.2743 -1.4452  0.9644
31479SOL    HW296445   9.545   9.599  10.184  0.1791 -0.6953  0.8592
31480SOL     OW96446   7.998   1.590   0.377 -0.6594 -0.1360 -0.4466
31480SOL    HW196447   8.009   1.658   0.311 -0.8966 -0.2754 -0.6334
31480SOL    HW296448   8.061   1.612   0.445  1.9734 -1.7653 -2.1606
31481SOL     OW96449   7.070   4.524   4.174 -0.1438  0.4166  0.1798
31481SOL    HW196450   7.019   4.581   4.231 -0.3497 -0.4001  0.8281
31481SOL    HW296451   7.161   4.539   4.200 -0.1807  0.5887  0.2123
31482SOL     OW96452   5.254   1.773   8.562  0.0698  0.0800 -0.1201
31482SOL    HW196453   5.306   1.853   8.568  0.8420 -0.4581  0.8074
31482SOL    HW296454   5.319   1.703   8.552 -0.6183 -0.3926 -1.4537
31483SOL     OW96455   2.026   5.003   9.643  0.2409  0.2584 -0.0824
31483SOL    HW196456   1.983   4.964   9.567 -0.1166 -0.6515  0.5689
31483SOL    HW296457   2.096   5.058   9.606 -0.2698  0.2565 -1.0732
31484SOL     OW96458   5.677  10.633  10.695 -0.3853  0.1798 -0.0205
31484SOL    HW196459   5.733  10.558  10.717 -1.9249 -0.0247  3.8785
31484SOL    HW296460   5.737  10.707  10.691  0.8109 -0.7959 -1.3734
31485SOL     OW96461   0.650   2.734   6.772 -0.0608 -0.1588 -0.6070
31485SOL    HW196462   0.567   2.690   6.788  1.2357 -2.4806  0.2070
31485SOL    HW296463   0.679   2.701   6.687 -0.3632  1.3664 -1.3397
31486SOL     OW96464   3.359   2.154  10.998 -0.2684 -0.1641 -0.2369
31486SOL    HW196465   3.418   2.228  10.989  0.3223 -0.6169 -0.1184
31486SOL    HW296466   3.286   2.175  10.939 -0.6451  1.0153  0.6159
31487SOL     OW96467   1.014   4.213  10.525  0.4361 -0.9454  0.1160
31487SOL    HW196468   1.005   4.308  10.533 -0.9964 -1.1072  0.6722
31487SOL    HW296469   1.074   4.188  10.595  0.5834 -0.4918  0.1551
31488SOL     OW96470   0.892   3.860   2.931  0.5428 -0.3906  0.3856
31488SOL    HW196471   0.948   3.808   2.989  2.2548 -1.2488 -1.9138
31488SOL    HW296472   0.829   3.902   2.990  2.6547 -0.5775  2.9452
31489SOL     OW96473   2.363   7.443   5.207 -0.1310  0.1645 -0.1764
31489SOL    HW196474   2.326   7.520   5.164 -1.2669 -1.6917 -2.7856
31489SOL    HW296475   2.313   7.434   5.288 -1.2422  1.1470 -0.7223
31490SOL     OW96476   1.714   4.274   1.582 -0.1985 -0.5732  0.1546
31490SOL    HW196477   1.805   4.246   1.568  1.1257  1.5998  3.2032
31490SOL    HW296478   1.712   4.365   1.552 -0.7204  0.0722  2.0263
31491SOL     OW96479   7.113   1.377   0.448  0.2019 -0.2606  0.4443
31491SOL    HW196480   7.147   1.374   0.538 -1.2530  0.0957  1.0444
31491SOL    HW296481   7.100   1.470   0.431 -2.7070 -0.4238  1.1980
31492SOL     OW96482   9.972   0.294   8.848 -0.0826 -0.0647  0.2566
31492SOL    HW196483   9.899   0.345   8.883  0.2415  1.5881 -1.3387
31492SOL    HW296484   9.947   0.203   8.863 -1.8783  0.4934  0.8771
31493SOL     OW96485   8.030   7.026   7.379  0.4225 -0.3807  0.2968
31493SOL    HW196486   7.986   7.105   7.410  1.1612  0.0846  0.1566
31493SOL    HW296487   8.039   6.971   7.457 -0.1189 -0.3499  0.3873
31494SOL     OW96488   0.355   8.552  10.551  0.0765  0.4432  0.1767
31494SOL    HW196489   0.434   8.591  10.588  0.5517  0.5091 -0.8864
31494SOL    HW296490   0.377   8.460  10.541  1.0882  0.9161 -2.7535
31495SOL     OW96491   7.863   4.070   9.596 -0.0259 -0.0996  0.5535
31495SOL    HW196492   7.778   4.032   9.574  1.1772 -1.8876 -1.4149
31495SOL    HW296493   7.870   4.058   9.691 -2.5472  1.4974  1.0266
31496SOL     OW96494   0.980   3.857   2.130 -0.8899  0.5288  0.4863
31496SOL    HW196495   0.930   3.854   2.048 -0.2348 -1.1808  0.1244
31496SOL    HW296496   1.067   3.887   2.103 -0.4856 -0.6461  0.4286
31497SOL     OW96497   8.879   0.561   9.257 -0.3969  0.6141  0.2853
31497SOL    HW196498   8.922   0.528   9.337  1.3003  1.5779 -0.1680
31497SOL    HW296499   8.798   0.600   9.289 -1.2687 -1.6705  1.1318
31498SOL     OW96500   9.914   0.548   3.582  0.4068  0.6146 -0.2806
31498SOL    HW196501   9.899   0.587   3.668  1.7362  0.4070  0.0680
31498SOL    HW296502  10.006   0.524   3.582 -0.4382 -3.2546 -0.1825
31499SOL     OW96503   7.639   4.958   6.686 -0.0063 -0.2954  0.4046
31499SOL    HW196504   7.601   4.906   6.615 -0.2007 -0.6443  0.7559
31499SOL    HW296505   7.710   5.007   6.646 -0.4374 -0.1107 -0.1367
31500SOL     OW96506   9.565   0.211   9.012 -0.0515  0.1664 -0.1907
31500SOL    HW196507   9.585   0.143   8.949  0.1183 -0.5623  0.6314
31500SOL    HW296508   9.470   0.220   9.009 -0.2353 -1.2026  0.7879
31501SOL     OW96509  10.052   8.418   3.261  0.3524 -0.1392  0.1754
31501SOL    HW196510  10.079   8.353   3.196 -0.8296 -1.0700  0.5709
31501SOL    HW296511  10.071   8.503   3.220 -0.7075 -0.6916 -1.5566
31502SOL     OW96512   8.850   6.099   8.041  0.5365 -0.3810  0.5336
31502SOL    HW196513   8.831   6.064   7.954  1.1039 -0.8226  0.5837
31502SOL    HW296514   8.945   6.105   8.044  0.5190 -0.3958  1.1421
31503SOL     OW96515   8.538   7.711   6.443 -0.0142 -0.2994  0.3635
31503SOL    HW196516   8.610   7.679   6.497  0.0782  2.0708  1.8210
31503SOL    HW296517   8.460   7.699   6.498 -0.5195 -1.3146 -0.5388
31504SOL     OW96518   0.584   7.423  10.174 -0.8256 -0.0155  0.3532
31504SOL    HW196519   0.679   7.417  10.160 -0.9137 -1.6319  0.2458
31504SOL    HW296520   0.574   7.487  10.244  0.5182 -1.3897  1.9109
31505SOL     OW96521   8.799   4.708   1.699  0.4263  0.0046  0.5641
31505SOL    HW196522   8.781   4.794   1.735  2.9607  0.7271  0.3177
31505SOL    HW296523   8.795   4.649   1.774 -0.7349  0.4007  0.8353
31506SOL     OW96524  10.500  10.321   2.113 -0.0535 -0.6271 -0.5293
31506SOL    HW196525  10.418  10.354   2.078 -1.0468 -1.9162  0.4950
31506SOL    HW296526  10.520  10.379   2.187  0.6789  0.4750 -1.5408
31507SOL     OW96527   2.079   5.193   4.591 -0.1731 -0.2974 -0.0585
31507SOL    HW196528   2.110   5.194   4.682 -1.3227  0.5403  0.3408
31507SOL    HW296529   2.150   5.234   4.541  0.5017 -0.8304  0.4347
31508SOL     OW96530   9.594   2.476  10.004 -0.3788 -0.1736 -0.1465
31508SOL    HW196531   9.644   2.535   9.949 -0.6798  0.4051  0.1938
31508SOL    HW296532   9.513   2.459   9.955  0.4944 -1.8198 -1.1089
31509SOL     OW96533  10.345   2.016   9.636 -0.2736  0.3755  0.2810
31509SOL    HW196534  10.424   2.071   9.628 -1.2828  1.7387 -1.0511
31509SOL    HW296535  10.283   2.071   9.684 -0.5594 -0.5014  0.9173
31510SOL     OW96536   7.480   3.210   0.574  0.0456  0.6069 -0.2409
31510SOL    HW196537   7.475   3.185   0.482 -2.0235  1.9108 -0.5551
31510SOL    HW296538   7.402   3.173   0.614  0.1708  1.2621  0.6592
31511SOL     OW96539   0.488   2.970   4.591 -0.2773 -0.0902  0.0420
31511SOL    HW196540   0.453   2.968   4.502 -0.9286 -0.0740  0.2974
31511SOL    HW296541   0.443   3.043   4.633 -0.0158 -0.1368  0.4061
31512SOL     OW96542   9.099   5.400   8.380  0.4169 -0.8279 -0.6547
31512SOL    HW196543   9.006   5.407   8.401  0.3555  0.4474 -1.2756
31512SOL    HW296544   9.102   5.349   8.299  0.0195  1.3436 -2.1195
31513SOL     OW96545   9.925   6.662  10.540 -0.0329 -0.8063 -0.1797
31513SOL    HW196546   9.932   6.751  10.575  0.0716 -0.4939 -0.9758
31513SOL    HW296547  10.003   6.617  10.571  0.0901 -0.5144 -0.0678
31514SOL     OW96548   8.060   6.949   5.680 -0.3325 -0.3051  0.2434
31514SOL    HW196549   8.006   7.024   5.657 -3.3310 -2.3138  0.2397
31514SOL    HW296550   8.030   6.924   5.767  1.4638 -0.8571  0.7577
31515SOL     OW96551   2.877   8.064   9.646  0.3748 -0.0425  0.2323
31515SOL    HW196552   2.803   8.041   9.702 -0.9891  0.5295 -1.2555
31515SOL    HW296553   2.842   8.061   9.557  2.0471  0.6350 -0.4967
31516SOL     OW96554   6.349   0.769   8.677 -0.3509  0.6419 -0.2397
31516SOL    HW196555   6.345   0.728   8.764 -0.3534 -0.1516 -0.6020
31516SOL    HW296556   6.399   0.707   8.624  2.0486  2.3603 -0.1319
31517SOL     OW96557   4.653   2.877   5.174  0.8404  0.1439 -0.4386
31517SOL    HW196558   4.572   2.911   5.211  1.0509 -0.7852  0.9753
31517SOL    HW296559   4.633   2.860   5.082  0.1633  2.1246 -0.6960
31518SOL     OW96560   6.764   9.812   0.113  0.0203 -0.4108  0.2758
31518SOL    HW196561   6.735   9.759   0.188  0.6281 -0.8238  0.2215
31518SOL    HW296562   6.727   9.768   0.037 -0.3544 -0.1535  0.3014
31519SOL     OW96563   9.816   9.891   3.566 -0.1184 -0.0108 -0.6484
31519SOL    HW196564   9.789   9.834   3.638 -2.0229 -0.5417 -1.7046
31519SOL    HW296565   9.854   9.968   3.608 -0.8782 -0.4492  0.9059
31520SOL     OW96566   4.619   5.917   6.588  0.3658  0.4519 -0.2715
31520SOL    HW196567   4.562   5.840   6.588 -0.1711  0.8192 -1.5337
31520SOL    HW296568   4.565   5.987   6.626 -0.5763  1.1291 -2.6636
31521SOL     OW96569   2.812   7.225   5.343  0.0485  0.2714 -0.0357
31521SOL    HW196570   2.818   7.200   5.435 -2.3790 -0.2766  0.0539
31521SOL    HW296571   2.890   7.277   5.326  1.0749 -0.5216  2.0319
31522SOL     OW96572   8.363  10.369  10.918  0.1588  0.3338 -0.3232
31522SOL    HW196573   8.431  10.310  10.952  0.4525  0.2241 -1.0857
31522SOL    HW296574   8.312  10.314  10.858 -1.0002  0.2456  0.7031
31523SOL     OW96575   0.328   7.867   7.274  0.0591  0.1679 -0.2276
31523SOL    HW196576   0.314   7.885   7.367  0.0013 -2.0438  0.2417
31523SOL    HW296577   0.245   7.888   7.233 -0.8136 -1.3000  0.6688
31524SOL     OW96578   4.309   5.942   4.097 -0.2966  0.4974  0.0239
31524SOL    HW196579   4.399   5.959   4.071 -0.0133 -0.5354  0.3213
31524SOL    HW296580   4.273   6.029   4.116  0.6351  0.9083 -0.0586
31525SOL     OW96581   8.370   1.987  10.512 -0.3923 -0.0772 -0.1914
31525SOL    HW196582   8.438   1.921  10.527 -0.8293 -0.3076  0.8646
31525SOL    HW296583   8.312   1.947  10.447  0.6835  0.2913 -1.4266
31526SOL     OW96584   8.447   8.431   1.900  0.2876  0.1235 -0.2476
31526SOL    HW196585   8.530   8.406   1.860 -0.4156  1.1474 -2.5044
31526SOL    HW296586   8.471   8.497   1.965  1.3252 -0.3292 -0.1538
31527SOL     OW96587  10.437   3.280   6.176  0.5017 -0.0057 -0.8501
31527SOL    HW196588  10.528   3.288   6.148  0.1843 -0.0605 -1.9461
31527SOL    HW296589  10.386   3.282   6.095 -0.5842  1.3961 -0.1758
31528SOL     OW96590   0.232   4.378  10.212  0.3862  0.4821 -0.4533
31528SOL    HW196591   0.138   4.397  10.214  0.0824 -0.8359 -1.1824
31528SOL    HW296592   0.244   4.309  10.278  0.8735  0.7592 -0.2486
31529SOL     OW96593   5.194   2.078   4.016 -0.0610  0.1040 -0.1169
31529SOL    HW196594   5.109   2.079   3.972 -0.5354  1.7095  0.7785
31529SOL    HW296595   5.173   2.064   4.109  0.6842  0.2086  0.0748
31530SOL     OW96596   9.628   5.976   4.380 -0.0838 -0.0691 -0.2290
31530SOL    HW196597   9.580   6.054   4.352 -2.5198 -1.0098  0.9966
31530SOL    HW296598   9.601   5.908   4.318  1.1495 -0.2301 -0.6152
31531SOL     OW96599  10.579   7.052   5.192 -0.0673  0.2770  0.0146
31531SOL    HW196600  10.502   7.102   5.217 -0.7901 -1.4202  1.3957
31531SOL    HW296601  10.651   7.115   5.197 -1.0685  1.4178  0.6106
31532SOL     OW96602   3.282   2.226   1.094 -0.2163 -0.4213  0.2220
31532SOL    HW196603   3.277   2.226   0.999 -1.8629  0.9219  0.2588
31532SOL    HW296604   3.248   2.312   1.120 -1.2404 -1.3170  2.0585
31533SOL     OW96605   4.417   5.798   0.470  0.4648  0.7807  0.2803
31533SOL    HW196606   4.438   5.756   0.553 -1.3676  1.6682  1.2509
31533SOL    HW296607   4.502   5.813   0.428  1.6271  1.9966  2.8374
31534SOL     OW96608   9.001   9.244  10.485  0.2661  0.2172 -0.1211
31534SOL    HW196609   8.994   9.318  10.426  0.4726 -0.2174 -0.7007
31534SOL    HW296610   8.987   9.167  10.430 -1.5021 -0.1358  0.7367
31535SOL     OW96611   7.468   6.462   7.178  0.4682  0.1775 -0.3222
31535SOL    HW196612   7.381   6.474   7.218 -0.6121  0.9377 -2.6954
31535SOL    HW296613   7.529   6.469   7.251 -1.4230  0.4832  1.3203
31536SOL     OW96614   1.070   9.399   5.439 -0.0733  0.3641  0.6652
31536SOL    HW196615   1.141   9.446   5.484  0.0585  2.6641 -1.6678
31536SOL    HW296616   1.105   9.380   5.352 -1.2915 -1.2972  0.4790
31537SOL     OW96617   7.776  10.352  10.244  0.1712 -0.0132  0.1956
31537SOL    HW196618   7.742  10.264  10.251 -2.9689  1.0625 -0.2261
31537SOL    HW296619   7.726  10.404  10.307  1.5253  1.6144  0.0387
31538SOL     OW96620  10.538   1.053   9.510  0.2665  0.1982 -0.1526
31538SOL    HW196621  10.454   1.046   9.464 -0.4025  1.4037  0.8065
31538SOL    HW296622  10.548   1.147   9.527  2.3559  0.2168 -1.2003
31539SOL     OW96623   3.119  10.141   6.055 -0.2197  0.4797 -0.2415
31539SOL    HW196624   3.042  10.105   6.011  1.7150 -2.7883 -1.2981
31539SOL    HW296625   3.187  10.143   5.987  1.1336  1.5110  1.0777
31540SOL     OW96626  10.531   4.657   2.079 -0.2865 -0.1600  0.2606
31540SOL    HW196627  10.455   4.636   2.025  0.2381 -1.0775 -0.1531
31540SOL    HW296628  10.574   4.572   2.094  0.6043  0.3271  0.5427
31541SOL     OW96629  10.605   8.081   1.462  0.6630 -0.8992 -0.4002
31541SOL    HW196630  10.633   8.095   1.552  2.6158  0.0462 -1.0982
31541SOL    HW296631  10.646   7.998   1.437  0.2665 -1.0726 -0.4798
31542SOL     OW96632   9.311   5.247   2.650  0.0089 -0.4910 -0.3855
31542SOL    HW196633   9.358   5.321   2.689  0.5708 -0.2862 -1.4274
31542SOL    HW296634   9.226   5.282   2.626 -0.5854 -0.7732  1.1867
31543SOL     OW96635   6.007   8.715   2.987 -0.4562  0.1297  0.0115
31543SOL    HW196636   6.033   8.804   2.963  0.6935 -0.2295 -0.1038
31543SOL    HW296637   6.008   8.666   2.905  1.5426 -0.6148  0.4236
31544SOL     OW96638   6.759   0.384   3.433 -0.3395  0.1244 -0.1625
31544SOL    HW196639   6.834   0.362   3.377 -1.2156  0.5998 -1.5650
31544SOL    HW296640   6.691   0.321   3.408 -0.8506  0.5583  0.1233
31545SOL     OW96641   9.078   4.171   9.854  0.2056 -0.0471 -0.3716
31545SOL    HW196642   9.154   4.146   9.801 -1.6447 -0.6496 -2.9162
31545SOL    HW296643   9.090   4.126   9.937  0.0760 -4.6430 -2.5640
31546SOL     OW96644   2.871   0.215   5.105  0.1173  1.0126  0.1162
31546SOL    HW196645   2.854   0.295   5.056 -0.3767  1.5466  1.1403
31546SOL    HW296646   2.784   0.182   5.127  0.3317  0.6602  0.4491
31547SOL     OW96647   2.223   7.703  10.440 -0.0696 -0.4781  0.5826
31547SOL    HW196648   2.296   7.738  10.491  0.6288 -0.6619 -0.2799
31547SOL    HW296649   2.246   7.611  10.425  0.1893 -0.2028 -0.8395
31548SOL     OW96650   4.522   4.561   8.744  0.2530  0.0137 -0.6536
31548SOL    HW196651   4.585   4.545   8.814  0.7982  3.8556 -0.0350
31548SOL    HW296652   4.437   4.544   8.785  0.6669 -2.5967 -0.6915
31549SOL     OW96653   3.284   7.774   9.068 -0.3432  0.2434 -0.2608
31549SOL    HW196654   3.306   7.865   9.046 -1.4938  1.3014  2.4590
31549SOL    HW296655   3.211   7.753   9.010  0.4327  0.7551 -1.4609
31550SOL     OW96656   8.133   8.112   1.610 -0.3943  0.8064 -0.1266
31550SOL    HW196657   8.223   8.145   1.600 -0.0343  0.1695  0.9253
31550SOL    HW296658   8.143   8.021   1.636 -1.3836  0.1203 -1.9727
31551SOL     OW96659   9.329   9.496  10.492 -0.1606  0.0082  0.1370
31551SOL    HW196660   9.299   9.418  10.537 -0.1655 -0.4056 -0.5769
31551SOL    HW296661   9.425   9.491  10.495 -0.0423  1.5588  2.8201
31552SOL     OW96662   9.326   1.275   0.406 -0.0811  0.3669  0.0471
31552SOL    HW196663   9.303   1.290   0.314 -1.0476  0.0019  0.2219
31552SOL    HW296664   9.278   1.196   0.430  0.0860  0.5178  0.9035
31553SOL     OW96665   1.298   3.647   4.151  0.1384 -0.1713 -0.2329
31553SOL    HW196666   1.287   3.553   4.167 -0.2772 -0.2561 -0.9657
31553SOL    HW296667   1.389   3.665   4.176 -0.0079 -0.5996  0.6553
31554SOL     OW96668  10.894   1.078   0.323  0.1736 -0.4038  0.3840
31554SOL    HW196669  10.896   0.987   0.296 -1.2575 -0.4695  0.4160
31554SOL    HW296670  10.804   1.092   0.353  0.2423  1.1249 -0.0329
31555SOL     OW96671   0.785   0.262   5.943 -1.1135 -0.2757  0.8423
31555SOL    HW196672   0.827   0.203   5.880 -1.6458  0.4289 -0.2023
31555SOL    HW296673   0.734   0.322   5.889 -0.6552  1.1020  1.8864
31556SOL     OW96674   1.984   3.512  10.043  0.1826 -0.5975 -0.4904
31556SOL    HW196675   2.015   3.433   9.998  0.4472 -1.1056  0.5646
31556SOL    HW296676   1.888   3.504  10.041  0.1731 -2.4439  2.0900
31557SOL     OW96677   3.565   6.703   3.884  0.2010  0.4475  0.2703
31557SOL    HW196678   3.583   6.796   3.870  1.1728  0.5329  1.8553
31557SOL    HW296679   3.552   6.695   3.978  1.0573 -1.1697  0.2800
31558SOL     OW96680   6.903   4.665   3.622 -0.0860  0.6504  0.5945
31558SOL    HW196681   6.984   4.648   3.575  0.0403 -0.7209  1.2523
31558SOL    HW296682   6.870   4.578   3.644 -1.7698  1.1830  0.2928
31559SOL     OW96683   1.395   3.140   8.200 -0.4853 -0.1817  0.1977
31559SOL    HW196684   1.300   3.149   8.209 -0.6484 -1.0376 -0.5001
31559SOL    HW296685   1.412   3.048   8.220 -0.3392 -1.1094 -3.5364
31560SOL     OW96686   6.913   3.224   7.721  0.2127 -0.2247 -0.5662
31560SOL    HW196687   6.837   3.173   7.690  0.0725 -1.4190  1.6023
31560SOL    HW296688   6.878   3.313   7.732 -1.3927 -1.0599  1.8928
31561SOL     OW96689   4.261   1.088   0.899 -0.7255  0.4110 -1.0618
31561SOL    HW196690   4.274   0.995   0.915  0.0103  0.1328 -3.0223
31561SOL    HW296691   4.185   1.111   0.952 -3.1505 -2.1275 -3.1403
31562SOL     OW96692   9.884   0.401   1.178  0.6022 -0.3588 -0.5435
31562SOL    HW196693   9.810   0.406   1.118  0.0131 -0.0881  0.1877
31562SOL    HW296694   9.846   0.371   1.261  1.2895 -0.0977 -0.1253
31563SOL     OW96695   5.596   5.737   2.864 -0.0064 -0.3157 -0.3842
31563SOL    HW196696   5.660   5.686   2.913  0.2742  0.3100 -0.0844
31563SOL    HW296697   5.644   5.771   2.788 -0.6268 -1.9086 -1.5558
31564SOL     OW96698   9.222   0.084   8.759 -0.0924  0.1679 -0.2271
31564SOL    HW196699   9.238   0.098   8.852 -0.3575  1.0348 -0.2963
31564SOL    HW296700   9.310   0.072   8.721  0.0241 -0.0547  0.1168
31565SOL     OW96701   7.838   0.291   6.142 -0.4284  0.7505  0.7897
31565SOL    HW196702   7.764   0.253   6.095  1.6602 -1.6967 -0.7882
31565SOL    HW296703   7.843   0.381   6.110 -2.3338  0.8048  0.5216
31566SOL     OW96704   2.659   1.192   8.343 -0.1656 -0.0530 -0.4593
31566SOL    HW196705   2.694   1.172   8.257  0.3866 -1.0943  0.0011
31566SOL    HW296706   2.569   1.159   8.341 -0.2278  0.1313 -0.7092
31567SOL     OW96707   5.050   8.677   9.588 -0.4203 -0.1828 -0.6755
31567SOL    HW196708   5.122   8.622   9.557  1.9730  2.2033  0.2219
31567SOL    HW296709   5.038   8.651   9.679 -0.9050 -0.7652 -0.9006
31568SOL     OW96710   5.056   7.298   9.228 -0.5227 -0.8203 -0.5587
31568SOL    HW196711   5.067   7.376   9.175 -0.0160 -0.7959 -0.4189
31568SOL    HW296712   5.117   7.309   9.301 -1.2122 -0.8536  0.0355
31569SOL     OW96713   2.481   4.384  10.222  0.1613  0.0892 -0.3226
31569SOL    HW196714   2.535   4.329  10.280 -0.9267 -1.3383 -0.6094
31569SOL    HW296715   2.534   4.463  10.208  1.8240 -0.9149  0.0329
31570SOL     OW96716   9.644   6.111   0.597 -0.5229  0.3008  0.2773
31570SOL    HW196717   9.581   6.049   0.633  0.5659 -0.7189  0.4818
31570SOL    HW296718   9.600   6.195   0.602 -2.2736 -0.5058 -0.5339
31571SOL     OW96719   7.406   5.961   0.144 -0.3405 -0.4040  0.3082
31571SOL    HW196720   7.320   5.952   0.184 -1.3358 -1.4319 -1.9208
31571SOL    HW296721   7.458   6.009   0.209 -2.5762  0.2629  1.6895
31572SOL     OW96722   2.834   7.629   3.589 -0.4713  0.0783 -0.4968
31572SOL    HW196723   2.851   7.712   3.635 -0.4562 -0.2037  0.0153
31572SOL    HW296724   2.910   7.618   3.532  0.2745 -0.3282  0.5453
31573SOL     OW96725  10.033   8.550   3.654  0.0610  0.3818  0.1968
31573SOL    HW196726   9.979   8.578   3.580  1.4551  2.1169 -0.2354
31573SOL    HW296727  10.106   8.503   3.615  0.1416  0.1793  0.5845
31574SOL     OW96728   0.175  10.233   6.137  0.1033  0.0754  0.9482
31574SOL    HW196729   0.264  10.264   6.156 -0.2116  0.2797  2.2161
31574SOL    HW296730   0.125  10.254   6.216 -0.9044 -0.6928  0.5429
31575SOL     OW96731   3.188   9.697  10.824  0.0087  0.1821  0.9158
31575SOL    HW196732   3.177   9.748  10.744 -1.7938  1.9493  2.1677
31575SOL    HW296733   3.180   9.606  10.796  0.5143  0.6934 -1.0411
31576SOL     OW96734  10.935   0.708   3.417  0.1378  0.4163  0.8650
31576SOL    HW196735  11.021   0.746   3.434  0.4436 -0.4926  1.4077
31576SOL    HW296736  10.913   0.660   3.497  0.0834 -1.1155 -0.0349
31577SOL     OW96737   5.627   0.982  10.727  0.1055  0.5036 -0.2344
31577SOL    HW196738   5.639   1.065  10.773  1.3976  0.4838 -0.4827
31577SOL    HW296739   5.614   0.917  10.796  2.1542  0.4526  0.1648
31578SOL     OW96740  10.948   1.032   5.973  0.3705  0.3301  0.1643
31578SOL    HW196741  10.961   0.978   6.051  1.4770 -1.0293 -0.8935
31578SOL    HW296742  10.894   0.979   5.915 -1.5897  1.8699  0.4755
31579SOL     OW96743  10.944   6.546   8.898  0.3241 -0.4131  0.1277
31579SOL    HW196744  10.914   6.557   8.808  2.2875  0.4719 -0.4563
31579SOL    HW296745  11.019   6.604   8.906  0.5894 -0.9567  2.1585
31580SOL     OW96746   7.823   8.716  10.984 -0.2304 -0.4623  0.0034
31580SOL    HW196747   7.883   8.678  10.919  0.0443  0.2195 -0.1545
31580SOL    HW296748   7.736   8.692  10.954 -0.0196 -2.8320  1.0843
31581SOL     OW96749   6.700  10.350  10.974 -0.2037 -0.3803 -0.0807
31581SOL    HW196750   6.738  10.287  10.913 -0.4451 -0.7369  0.1292
31581SOL    HW296751   6.644  10.296  11.031  1.7562 -0.4387  1.9224
31582SOL     OW96752   1.240   2.022   5.333  0.2631  0.4599  0.2363
31582SOL    HW196753   1.203   2.052   5.416  0.9996  1.9919  0.0292
31582SOL    HW296754   1.334   2.020   5.347  0.2741 -2.4363  0.4290
31583SOL     OW96755   4.359   4.396   6.637 -0.0589 -0.3565 -0.1928
31583SOL    HW196756   4.428   4.409   6.702 -0.3913 -1.8245  0.4890
31583SOL    HW296757   4.307   4.322   6.671 -1.5576  0.2651 -1.0260
31584SOL     OW96758   5.241   8.022   3.513  0.1048  0.0187 -0.0023
31584SOL    HW196759   5.168   8.080   3.489  0.2501  0.0209 -0.4434
31584SOL    HW296760   5.312   8.082   3.538  0.0278  0.0184  0.2234
31585SOL     OW96761   6.824   6.404   4.583 -0.5438 -0.2183 -0.2018
31585SOL    HW196762   6.805   6.498   4.583  1.7785  0.2996  0.9975
31585SOL    HW296763   6.851   6.386   4.493 -0.1934  0.4396 -0.2346
31586SOL     OW96764   5.611   2.989   8.033 -0.3920 -0.0738  0.2359
31586SOL    HW196765   5.608   3.020   8.124 -1.4709 -0.3209  0.2938
31586SOL    HW296766   5.535   3.028   7.991  0.9389  1.3213 -1.0097
31587SOL     OW96767   5.905   9.533   2.049 -0.0625 -0.2976  0.1816
31587SOL    HW196768   5.831   9.574   2.094  0.7967  0.2313  1.1569
31587SOL    HW296769   5.932   9.598   1.984  0.6280  0.2964  1.0180
31588SOL     OW96770   0.528   8.631   7.555  0.1235 -0.1060  0.2394
31588SOL    HW196771   0.447   8.622   7.505  0.4696 -0.9916 -0.1738
31588SOL    HW296772   0.566   8.713   7.522  0.0234 -0.3385 -0.4872
31589SOL     OW96773  10.924  10.642   1.873  0.5842  0.0387 -0.6900
31589SOL    HW196774  10.973  10.566   1.906 -0.5263 -0.6220 -0.5109
31589SOL    HW296775  10.834  10.627   1.902  0.0171  0.5908 -2.0668
31590SOL     OW96776   8.580   5.839   4.966 -0.3472 -0.8805 -0.1400
31590SOL    HW196777   8.612   5.759   4.925  1.9910 -0.1937  0.2181
31590SOL    HW296778   8.583   5.820   5.060  1.7225  0.1025  0.0285
31591SOL     OW96779   9.707   7.590   4.238  0.5457  0.3865  0.3225
31591SOL    HW196780   9.721   7.671   4.190  1.1672 -0.5295 -1.0817
31591SOL    HW296781   9.793   7.548   4.241 -0.1914 -1.3068 -0.9984
31592SOL     OW96782   0.994   1.899   5.265  0.1003  0.0793  0.2635
31592SOL    HW196783   0.978   1.919   5.357 -0.4961  0.9776 -0.0185
31592SOL    HW296784   1.073   1.947   5.243  0.6058 -0.6489  0.4645
31593SOL     OW96785   9.339   3.863   2.146  0.6251  0.0877 -0.0667
31593SOL    HW196786   9.313   3.856   2.054  0.5622  0.7146 -0.0996
31593SOL    HW296787   9.413   3.803   2.154  0.8176  0.2471 -0.5971
31594SOL     OW96788   5.868   3.814   3.783  0.1223  0.0175 -0.3144
31594SOL    HW196789   5.913   3.892   3.814  1.5581 -0.3335 -1.4121
31594SOL    HW296790   5.792   3.848   3.736  0.1737  0.7039  0.0873
31595SOL     OW96791   6.050   3.478   6.082  0.4039 -0.6404 -0.4139
31595SOL    HW196792   6.132   3.449   6.123 -0.5181 -1.4578  0.9392
31595SOL    HW296793   6.077   3.515   5.998  2.3716  0.8699  0.7904
31596SOL     OW96794   4.040   0.367   6.693 -0.4903  0.1891  0.5453
31596SOL    HW196795   4.136   0.366   6.699 -0.5371 -1.5839  1.7973
31596SOL    HW296796   4.022   0.337   6.604  0.1367 -0.5059  0.6383
31597SOL     OW96797   4.290   8.367   2.167 -0.1314  0.0068 -0.5366
31597SOL    HW196798   4.256   8.278   2.179  0.0898 -0.4268 -2.8411
31597SOL    HW296799   4.347   8.362   2.091  0.6357  1.9557 -0.1587
31598SOL     OW96800   1.256   5.988   0.445 -0.0005 -0.0257  0.5620
31598SOL    HW196801   1.202   5.953   0.515  1.2937  0.4339  1.8470
31598SOL    HW296802   1.285   6.073   0.478  0.3641  0.3557 -0.6882
31599SOL     OW96803   6.026   6.548   7.312  0.0418 -0.8777  0.2641
31599SOL    HW196804   5.987   6.568   7.398 -0.6932 -0.8158 -0.0766
31599SOL    HW296805   5.958   6.500   7.265 -0.4032  0.9199 -1.0645
31600SOL     OW96806   0.374   7.288   2.912 -0.1418 -0.3717 -0.1078
31600SOL    HW196807   0.394   7.366   2.861  2.0380 -1.7509 -1.5280
31600SOL    HW296808   0.432   7.293   2.988 -0.0615 -0.5578 -0.1551
31601SOL     OW96809   0.442   9.887   8.357 -0.2571  0.1503 -0.3355
31601SOL    HW196810   0.446   9.861   8.449 -0.8105 -0.3349 -0.4460
31601SOL    HW296811   0.383   9.824   8.316  0.2361  0.1640 -1.0921
31602SOL     OW96812   3.108   7.278  11.021 -0.2128 -0.1789 -0.0211
31602SOL    HW196813   3.166   7.328  11.077  0.5214 -1.1410  0.1092
31602SOL    HW296814   3.045   7.342  10.988 -0.0021  0.6022  1.0328
31603SOL     OW96815  10.364   3.142   0.211  0.8864 -0.2895 -0.2557
31603SOL    HW196816  10.284   3.126   0.260  0.3537  1.3163 -0.5481
31603SOL    HW296817  10.379   3.061   0.163  0.0506 -1.0019  0.6506
31604SOL     OW96818   9.807   7.967   6.874  0.2822 -0.6939 -0.4843
31604SOL    HW196819   9.828   7.940   6.964 -0.2996 -0.9616 -0.4241
31604SOL    HW296820   9.850   7.901   6.819  1.8996  0.2981 -0.4730
31605SOL     OW96821   8.742   2.549   3.539  0.4667  0.2109 -0.9312
31605SOL    HW196822   8.653   2.535   3.569  0.3459  0.0777 -1.3438
31605SOL    HW296823   8.797   2.509   3.606  0.3218  2.2417  0.5001
31606SOL     OW96824   3.828   6.707   5.577 -0.0770  0.4073 -0.0805
31606SOL    HW196825   3.859   6.616   5.575 -2.5943 -0.5071 -0.2878
31606SOL    HW296826   3.886   6.751   5.640  1.1182 -1.3474  0.1082
31607SOL     OW96827   5.898  10.285   0.473 -0.0847  0.1494 -0.2904
31607SOL    HW196828   5.963  10.295   0.404  1.1224 -0.2925  0.7367
31607SOL    HW296829   5.815  10.279   0.427  0.6479  0.2040 -1.6762
31608SOL     OW96830   7.771   9.985   0.608  0.5639 -0.0546 -0.3354
31608SOL    HW196831   7.798   9.970   0.699 -1.2129  0.8634  0.3829
31608SOL    HW296832   7.730  10.071   0.608 -1.7445 -1.0470 -1.4326
31609SOL     OW96833  10.052   2.407   2.543 -0.0119 -0.0319 -0.1530
31609SOL    HW196834  10.098   2.426   2.461 -0.9083 -0.8774 -0.8803
31609SOL    HW296835   9.997   2.483   2.557 -0.9109 -0.4825 -1.1175
31610SOL     OW96836   1.454   9.678   4.236 -0.0410  0.3914 -0.5615
31610SOL    HW196837   1.443   9.609   4.303  0.7066 -0.4164 -1.2370
31610SOL    HW296838   1.370   9.682   4.192 -0.1025 -0.1015 -0.5046
31611SOL     OW96839   5.220   2.709   8.421 -0.6805 -0.0038  0.1099
31611SOL    HW196840   5.220   2.804   8.435 -0.5758  0.0151 -0.0190
31611SOL    HW296841   5.235   2.699   8.327  1.2300 -0.1888  0.3998
31612SOL     OW96842   0.022   5.613   5.949  0.3931  0.6032 -0.1863
31612SOL    HW196843   0.085   5.542   5.960 -0.6049 -0.6965 -2.1928
31612SOL    HW296844  -0.052   5.587   6.004 -0.3309 -0.4446 -1.5821
31613SOL     OW96845   6.235   6.099   2.221  0.0869 -0.0070 -0.1501
31613SOL    HW196846   6.140   6.110   2.225  0.1787  0.5307  1.8788
31613SOL    HW296847   6.248   6.021   2.168 -1.4881 -0.0615 -0.5056
31614SOL     OW96848   8.889   8.547   8.479 -0.2108  0.3040 -0.2551
31614SOL    HW196849   8.976   8.578   8.456 -0.2371  0.9462  0.4597
31614SOL    HW296850   8.838   8.627   8.497 -1.4116  0.0352 -2.1786
31615SOL     OW96851   8.922   1.417   7.011  0.1283  0.2232  0.1327
31615SOL    HW196852   8.873   1.499   7.006 -0.7699 -0.2616  0.7357
31615SOL    HW296853   8.975   1.425   7.091  1.0543  0.7450 -0.5165
31616SOL     OW96854  11.004   0.821   0.047  0.4950  0.2861 -0.1224
31616SOL    HW196855  10.934   0.825  -0.019 -0.7862  0.8484  1.2117
31616SOL    HW296856  11.066   0.889   0.021 -0.6261  1.3631 -0.1014
31617SOL     OW96857   6.039   1.343   4.639  0.2531  0.1623 -0.0247
31617SOL    HW196858   5.945   1.342   4.656  0.4070  1.9115  1.1332
31617SOL    HW296859   6.067   1.253   4.658 -0.8721  0.0889  1.4908
31618SOL     OW96860   2.005   4.617  10.512 -0.1989 -0.2854 -0.0818
31618SOL    HW196861   1.974   4.588  10.426  0.6801  0.2363 -0.5869
31618SOL    HW296862   2.081   4.672  10.493  1.8354 -2.4513  1.1087
31619SOL     OW96863   0.487   3.818   6.983 -0.4575  0.0629  0.2511
31619SOL    HW196864   0.524   3.875   7.051 -1.8149  2.6038 -0.9990
31619SOL    HW296865   0.438   3.752   7.031 -0.2889  0.9867  1.7631
31620SOL     OW96866   5.693   7.566   8.476  0.2257 -0.2934  0.8341
31620SOL    HW196867   5.660   7.600   8.393 -3.2102 -0.2140  2.0786
31620SOL    HW296868   5.725   7.643   8.523 -2.5617  0.5888  1.4999
31621SOL     OW96869   6.297   8.828   3.874 -0.3277  1.1041  0.9793
31621SOL    HW196870   6.243   8.907   3.884  0.0543  1.4927  0.0865
31621SOL    HW296871   6.373   8.843   3.930  0.3226  1.9113 -0.0832
31622SOL     OW96872   4.454   2.704   4.777 -0.2182  0.2687 -0.0465
31622SOL    HW196873   4.499   2.788   4.769  0.1345  0.0564 -0.2853
31622SOL    HW296874   4.524   2.639   4.783 -0.4765  0.0715  1.1104
31623SOL     OW96875   4.620   6.373   6.295  0.5158 -0.5006 -0.0647
31623SOL    HW196876   4.598   6.371   6.201  0.2274 -2.3659  0.0106
31623SOL    HW296877   4.541   6.339   6.338  0.1099  1.6605  1.0049
31624SOL     OW96878   1.693   2.431   0.843  0.0788  0.5930  0.3129
31624SOL    HW196879   1.624   2.415   0.908  0.3396  1.2175  0.7498
31624SOL    HW296880   1.694   2.526   0.832  1.4062  0.6617  0.9036
31625SOL     OW96881   9.103   6.290   1.252  0.0227 -0.2889  0.0572
31625SOL    HW196882   9.114   6.383   1.234 -1.5189 -0.1968 -0.5674
31625SOL    HW296883   9.039   6.287   1.323  0.3026 -0.8669  0.2926
31626SOL     OW96884   8.713   2.569   5.048 -0.5562  0.2359 -0.2939
31626SOL    HW196885   8.806   2.547   5.037 -0.3475  0.9971 -0.1462
31626SOL    HW296886   8.677   2.564   4.959 -0.4964 -0.5633 -0.2789
31627SOL     OW96887   8.380   8.448  10.514  0.1184  0.3237 -0.3478
31627SOL    HW196888   8.374   8.447  10.419  0.5575 -1.7772 -0.3930
31627SOL    HW296889   8.294   8.481  10.543 -0.0113  0.9875 -1.4374
31628SOL     OW96890   6.361   7.675   8.788 -0.2313 -0.1913 -0.3213
31628SOL    HW196891   6.382   7.604   8.728  0.8833 -0.0615 -0.1016
31628SOL    HW296892   6.446   7.706   8.820 -0.7499  0.5310  0.4047
31629SOL     OW96893   4.294   4.109   2.153  0.2318  0.4584  0.9240
31629SOL    HW196894   4.305   4.039   2.089 -0.9665  0.7229  0.3917
31629SOL    HW296895   4.380   4.119   2.194  0.2480 -1.8613  1.5809
31630SOL     OW96896   9.940   5.576  10.123 -0.5515  0.4056  0.2814
31630SOL    HW196897   9.894   5.492  10.111  0.4418 -0.0320 -0.6224
31630SOL    HW296898  10.032   5.554  10.110 -0.2507  1.5845  0.3744
31631SOL     OW96899   9.611   8.671   6.783 -0.0685 -0.4256 -0.0531
31631SOL    HW196900   9.527   8.668   6.830 -0.1319  2.4026  0.1825
31631SOL    HW296901   9.594   8.624   6.702 -2.6112  1.7415 -0.9469
31632SOL     OW96902   6.841   2.965   8.653 -0.1100 -0.2484  0.2253
31632SOL    HW196903   6.801   3.045   8.619 -1.0154 -0.4768  0.7072
31632SOL    HW296904   6.767   2.915   8.688  0.4254 -1.3604 -0.1959
31633SOL     OW96905   7.016   7.227   0.864 -0.1395 -0.4468  0.3885
31633SOL    HW196906   7.086   7.264   0.918  0.1261  0.5750 -0.6093
31633SOL    HW296907   6.976   7.303   0.822 -0.4154 -1.2070 -0.7541
31634SOL     OW96908   9.975   7.363   6.658 -0.1167  0.1993  0.2157
31634SOL    HW196909   9.998   7.432   6.721  1.7167 -0.0252 -0.1407
31634SOL    HW296910   9.898   7.321   6.696 -0.1503  1.2431  1.3796
31635SOL     OW96911   3.738   2.743   4.525 -0.1646  0.4509 -0.1836
31635SOL    HW196912   3.816   2.775   4.479  0.9508 -0.5569  0.9197
31635SOL    HW296913   3.679   2.715   4.455  1.0951 -0.1938 -1.0310
31636SOL     OW96914   9.345   4.186  10.491  0.0962 -0.1048 -0.1952
31636SOL    HW196915   9.368   4.114  10.432  1.1042 -0.3803  0.5128
31636SOL    HW296916   9.387   4.163  10.574  0.2852  1.2269  0.0906
31637SOL     OW96917   7.544   0.014   7.504  0.4084  0.7792 -0.6393
31637SOL    HW196918   7.584  -0.033   7.431 -0.8951 -0.4279 -0.5974
31637SOL    HW296919   7.451  -0.007   7.500  0.1860  1.2834  0.9335
31638SOL     OW96920   3.907   2.954   3.315  1.0035 -0.1289 -0.1803
31638SOL    HW196921   3.897   2.905   3.233 -0.1219 -1.1570  0.5284
31638SOL    HW296922   3.997   2.985   3.314  0.7379  0.7030 -2.2397
31639SOL     OW96923   2.966   2.386   0.521 -0.8700 -0.5110  0.1874
31639SOL    HW196924   3.047   2.436   0.520 -2.6900  2.7070  0.2506
31639SOL    HW296925   2.930   2.397   0.432 -1.5525 -1.3822  0.3381
31640SOL     OW96926   5.352   4.728   1.682 -0.2440  0.1377  0.4670
31640SOL    HW196927   5.358   4.823   1.699  0.2495  0.0815  0.6315
31640SOL    HW296928   5.258   4.710   1.680 -0.3397  0.5905  0.6822
31641SOL     OW96929   8.745   1.358   7.683 -0.2519  0.1788  0.0836
31641SOL    HW196930   8.812   1.376   7.749 -0.5233  1.5032  0.0224
31641SOL    HW296931   8.762   1.420   7.612 -1.9344  1.0473  0.3716
31642SOL     OW96932   1.229   3.058   7.057 -0.5875 -0.1289 -0.4343
31642SOL    HW196933   1.142   3.027   7.033 -0.1249 -0.8267 -1.2451
31642SOL    HW296934   1.289   2.991   7.024  0.2298  0.0727  0.5905
31643SOL     OW96935   5.841   6.741   4.514  0.5448  0.1292  0.4150
31643SOL    HW196936   5.795   6.662   4.540  1.0256 -0.0290  0.7971
31643SOL    HW296937   5.882   6.773   4.595 -1.9101  2.3261  0.9559
31644SOL     OW96938   6.016   4.943   3.205 -0.0067 -0.8904 -0.4043
31644SOL    HW196939   5.991   5.023   3.251 -2.1674 -1.2005 -0.9226
31644SOL    HW296940   6.050   4.886   3.274  1.0229  0.2542  0.0618
31645SOL     OW96941   1.555   7.236   2.309  0.1212  0.1212 -0.2262
31645SOL    HW196942   1.559   7.311   2.250 -2.1709  0.6805  0.2213
31645SOL    HW296943   1.475   7.250   2.360 -1.7879 -3.7643 -1.7430
31646SOL     OW96944   0.796   9.120   5.780 -0.9114  0.8053 -0.7276
31646SOL    HW196945   0.855   9.083   5.846 -1.4446  0.8285 -0.2379
31646SOL    HW296946   0.852   9.131   5.702  0.0222  1.8847  0.0633
31647SOL     OW96947   9.301   2.866   5.628  0.3865 -0.0414  0.2552
31647SOL    HW196948   9.381   2.912   5.603  1.1213 -1.3562  0.1017
31647SOL    HW296949   9.319   2.774   5.610 -0.5301 -0.5794  1.8192
31648SOL     OW96950   7.791   6.053   3.222  0.2931 -0.8468  0.1859
31648SOL    HW196951   7.700   6.032   3.200 -0.2495  0.4130  1.1341
31648SOL    HW296952   7.826   6.092   3.142 -0.0753 -1.0612 -0.0901
31649SOL     OW96953   0.695  10.749   5.875  0.1133 -0.1960  0.6418
31649SOL    HW196954   0.612  10.702   5.874 -0.0969  0.1379 -0.7575
31649SOL    HW296955   0.677  10.830   5.923  0.0842 -0.8744  1.7828
31650SOL     OW96956   5.951   8.347   9.988  0.3312 -0.3787  0.1153
31650SOL    HW196957   5.949   8.440   9.964 -0.2435 -0.5712 -0.6250
31650SOL    HW296958   5.989   8.346  10.075 -0.0609  0.5931  0.3131
31651SOL     OW96959   6.880   7.547   0.580 -0.3180  0.0599  0.2350
31651SOL    HW196960   6.900   7.635   0.549 -0.6398  0.5488  1.3478
31651SOL    HW296961   6.945   7.530   0.648 -1.7613  0.4838  1.8023
31652SOL     OW96962   7.290   2.236   2.516 -0.3453  0.0664 -0.2293
31652SOL    HW196963   7.303   2.296   2.589 -0.7559  0.0025 -0.1041
31652SOL    HW296964   7.346   2.271   2.446  1.2636 -0.7344  0.5982
31653SOL     OW96965   4.275   2.518   2.923 -1.0084 -0.0574  0.0853
31653SOL    HW196966   4.278   2.600   2.971 -0.7232  0.3464 -0.6129
31653SOL    HW296967   4.204   2.468   2.964 -0.0106 -0.2163  1.7082
31654SOL     OW96968   5.745   6.013   0.259  0.5070  0.3120 -0.2097
31654SOL    HW196969   5.742   6.071   0.183 -0.3163 -1.0312 -1.2711
31654SOL    HW296970   5.757   5.926   0.221  1.2745 -0.2619  1.2929
31655SOL     OW96971   4.765   9.302   7.507 -0.0115  0.3537 -0.7247
31655SOL    HW196972   4.712   9.226   7.532  0.3795  0.7960  1.6718
31655SOL    HW296973   4.706   9.356   7.454 -1.3068 -0.1335  0.1733
31656SOL     OW96974   9.442   1.120   9.360 -0.1996 -0.1509 -0.1978
31656SOL    HW196975   9.436   1.054   9.429 -0.0898 -0.1128 -0.1522
31656SOL    HW296976   9.387   1.085   9.290 -0.5770 -0.0269  0.0360
31657SOL     OW96977   8.766   2.303   7.517 -0.2451 -0.2034 -0.3462
31657SOL    HW196978   8.831   2.332   7.581  0.3054 -1.6029 -0.2378
31657SOL    HW296979   8.688   2.286   7.569  0.1776 -1.2635 -0.0283
31658SOL     OW96980   1.430   6.214   3.589  0.3546 -0.6080 -0.0000
31658SOL    HW196981   1.452   6.285   3.649 -2.3455  1.4233 -1.1695
31658SOL    HW296982   1.355   6.171   3.630 -0.9036  0.1924 -1.3604
31659SOL     OW96983   0.798   7.964   6.111 -0.0865 -0.3031 -0.6947
31659SOL    HW196984   0.860   8.018   6.063 -0.0238 -1.2474 -1.7369
31659SOL    HW296985   0.714   7.979   6.068 -0.1872 -0.5622 -0.5952
31660SOL     OW96986  10.560  10.870   8.909 -0.0923 -0.1252 -0.2516
31660SOL    HW196987  10.487  10.882   8.848 -0.4951 -0.1882  0.2131
31660SOL    HW296988  10.626  10.932   8.879 -0.1853 -0.3367 -0.9084
31661SOL     OW96989   6.070   9.495   3.458 -0.6068  0.1032 -0.0937
31661SOL    HW196990   6.125   9.509   3.380 -0.3814 -0.8547 -0.1115
31661SOL    HW296991   6.102   9.560   3.521  0.5290 -0.4118 -0.1195
31662SOL     OW96992   7.745   9.217   8.625  0.2790 -0.2046  0.9455
31662SOL    HW196993   7.704   9.301   8.606  0.8322  0.4127  2.3624
31662SOL    HW296994   7.711   9.158   8.558  2.0112  1.7438 -1.8578
31663SOL     OW96995   6.951   4.062   9.931  0.2177 -0.5181 -0.0524
31663SOL    HW196996   6.938   4.074  10.025 -0.5770 -3.2478  0.2833
31663SOL    HW296997   6.864   4.073   9.893  0.6981  1.5680 -0.6683
31664SOL     OW96998   0.606   4.746   0.630 -0.0325 -0.5465  0.1674
31664SOL    HW196999   0.659   4.730   0.707  1.2196 -2.6216 -1.0301
31664SOL    HW297000   0.533   4.685   0.638  1.2006 -2.3124 -1.1972
31665SOL     OW97001   0.767   9.393   7.305 -0.8591 -0.1854  0.2740
31665SOL    HW197002   0.817   9.475   7.300 -0.9873 -0.1139  0.1281
31665SOL    HW297003   0.681   9.416   7.269 -1.3514 -0.0280  1.5167
31666SOL     OW97004   5.226   3.737   1.596  0.2861 -0.0220  0.3314
31666SOL    HW197005   5.191   3.780   1.518  0.1116  1.2191  1.0658
31666SOL    HW297006   5.281   3.667   1.562 -1.1203 -0.5989 -0.8820
31667SOL     OW97007   0.765   8.895   2.103 -0.7877 -0.6020 -0.5026
31667SOL    HW197008   0.818   8.864   2.176 -0.0777 -0.3900 -0.9223
31667SOL    HW297009   0.674   8.881   2.132 -0.5266 -0.0203  0.6316
31668SOL     OW97010   9.827   3.326   5.499 -0.2856  0.6338  0.8694
31668SOL    HW197011   9.903   3.329   5.440  0.2878 -1.0585  1.4583
31668SOL    HW297012   9.829   3.410   5.545  0.5386  1.0836  0.0475
31669SOL     OW97013   5.223   9.672  10.038  0.6743  0.1593  0.1799
31669SOL    HW197014   5.165   9.603  10.070  0.1745  0.1155 -0.8036
31669SOL    HW297015   5.302   9.664  10.092  0.5280 -1.0107  0.2347
31670SOL     OW97016   0.713   2.764   5.313  0.3776  0.3277  0.3587
31670SOL    HW197017   0.699   2.788   5.405  1.3237  1.4664  0.2275
31670SOL    HW297018   0.713   2.847   5.266 -1.3659 -0.3194 -0.8908
31671SOL     OW97019   0.301   4.954   4.396 -0.3452 -0.3669  0.5777
31671SOL    HW197020   0.308   4.993   4.309  0.2499 -0.8141  0.4169
31671SOL    HW297021   0.379   4.899   4.404 -0.9548 -1.1953  0.9565
31672SOL     OW97022   4.039   2.945   8.301  0.1566  0.1813  0.2378
31672SOL    HW197023   3.986   2.878   8.256  2.0895 -1.9933  1.0115
31672SOL    HW297024   4.003   2.949   8.389  1.1208 -1.1953  0.7220
31673SOL     OW97025   2.034   7.939   9.779 -0.4587  0.3824  0.1653
31673SOL    HW197026   1.982   7.961   9.702 -0.3657 -0.1542 -0.0495
31673SOL    HW297027   1.977   7.882   9.831 -0.7233  1.1608  0.7560
31674SOL     OW97028   8.911   9.616   9.100  0.0751  0.2251 -0.7680
31674SOL    HW197029   8.845   9.685   9.102  1.0165  1.1461 -0.5517
31674SOL    HW297030   8.994   9.663   9.107  0.7583 -0.8981 -1.1974
31675SOL     OW97031   9.005  10.872   4.605 -0.2824  0.1329 -0.6020
31675SOL    HW197032   9.076  10.892   4.543  1.5839 -1.1036  1.0143
31675SOL    HW297033   9.022  10.782   4.632 -1.1268  0.5828  1.5686
31676SOL     OW97034   8.846   6.226  10.374 -0.3658  0.2164  0.0340
31676SOL    HW197035   8.811   6.137  10.380  0.1037 -0.0952 -1.3166
31676SOL    HW297036   8.768   6.281  10.364 -0.5995 -0.2806 -1.1315
31677SOL     OW97037  10.456   1.503   8.075 -0.3565 -0.6023 -0.1516
31677SOL    HW197038  10.458   1.588   8.117 -2.5331 -0.3774 -0.3986
31677SOL    HW297039  10.417   1.445   8.141  0.7634 -1.3428 -0.1194
31678SOL     OW97040   3.937   0.679   4.261  0.3614 -0.1655  0.1750
31678SOL    HW197041   3.996   0.753   4.278  1.8792 -0.9842 -1.2886
31678SOL    HW297042   3.977   0.632   4.188 -0.7107 -2.2902  0.8671
31679SOL     OW97043   4.722   5.601   5.526  0.1758  0.0201 -0.0884
31679SOL    HW197044   4.719   5.665   5.597 -2.2734  1.2410 -1.1851
31679SOL    HW297045   4.732   5.517   5.570  0.0499  0.8462  1.5996
31680SOL     OW97046   7.841   6.462   5.849 -0.3251  0.4868 -0.2081
31680SOL    HW197047   7.842   6.548   5.807 -0.0802  0.3702 -0.4454
31680SOL    HW297048   7.900   6.409   5.796 -1.9420 -0.3716 -1.1979
31681SOL     OW97049   4.042   2.167  10.455  0.4494 -0.5564 -0.1633
31681SOL    HW197050   3.984   2.123  10.392  0.5032 -2.4169  1.0196
31681SOL    HW297051   3.983   2.218  10.510 -0.2091 -2.6617  1.2141
31682SOL     OW97052   1.360   6.316  10.404 -0.3693  0.1394  0.1003
31682SOL    HW197053   1.389   6.245  10.462 -1.0769  0.0188  0.3205
31682SOL    HW297054   1.341   6.273  10.321 -0.8054  0.0665  0.2362
31683SOL     OW97055   3.053   7.295   6.195  0.0010  0.1262  0.3597
31683SOL    HW197056   3.015   7.246   6.123 -0.3583  1.0977 -0.1278
31683SOL    HW297057   3.117   7.235   6.234  0.0814 -0.4639 -0.6530
31684SOL     OW97058   8.202   0.491   6.252 -0.0235 -0.3623 -0.7065
31684SOL    HW197059   8.290   0.527   6.266 -0.5800  1.0822 -0.8344
31684SOL    HW297060   8.143   0.564   6.266 -1.1871 -1.1785 -1.1956
31685SOL     OW97061   7.714   3.462   0.280 -0.2363 -0.3813 -0.3795
31685SOL    HW197062   7.789   3.403   0.271 -0.1027 -0.0101 -2.0594
31685SOL    HW297063   7.677   3.440   0.365 -0.2274 -2.9472 -0.9385
31686SOL     OW97064   7.591   4.921   5.922  0.0421 -0.0958 -0.1950
31686SOL    HW197065   7.619   5.010   5.941  0.6770 -0.1971 -0.6232
31686SOL    HW297066   7.631   4.868   5.991  1.0221 -0.2536 -0.8629
31687SOL     OW97067   3.515   2.833   5.433 -0.0874  0.0247  0.2828
31687SOL    HW197068   3.543   2.789   5.353 -1.1014 -0.0588 -0.0370
31687SOL    HW297069   3.511   2.763   5.499  2.7733  0.4140  1.0005
31688SOL     OW97070   9.775   5.742  10.285 -0.3002 -0.1041  0.5555
31688SOL    HW197071   9.845   5.678  10.268 -0.0240 -0.1279  1.6628
31688SOL    HW297072   9.818   5.813  10.332 -0.8398  0.3289  0.4050
31689SOL     OW97073   7.218   5.224   8.075  0.3221 -0.1587  0.4703
31689SOL    HW197074   7.128   5.248   8.095  0.2384 -0.0842 -0.0107
31689SOL    HW297075   7.219   5.128   8.082 -0.2055 -0.3151 -1.1938
31690SOL     OW97076   3.423   2.577  10.874 -0.1390 -0.6211 -0.0482
31690SOL    HW197077   3.383   2.646  10.821 -1.1924 -1.5110 -0.4463
31690SOL    HW297078   3.433   2.616  10.961  0.9120  0.6063 -0.6654
31691SOL     OW97079   5.878   8.407  10.642  1.0709  0.4298 -0.0806
31691SOL    HW197080   5.886   8.344  10.713 -1.3961  1.1367  0.9314
31691SOL    HW297081   5.833   8.359  10.572  1.7429  0.2880 -0.4208
31692SOL     OW97082   9.546   3.942   1.574 -0.1155 -0.1915 -0.0141
31692SOL    HW197083   9.492   4.021   1.572 -0.2355 -0.2809 -1.6717
31692SOL    HW297084   9.636   3.975   1.575 -0.1367 -0.0561  1.6938
31693SOL     OW97085   3.024   7.449   0.450 -0.4359 -0.2918 -0.3666
31693SOL    HW197086   2.956   7.382   0.465 -0.1650 -0.4259  0.2963
31693SOL    HW297087   3.048   7.438   0.358 -1.4621 -0.0983 -0.6792
31694SOL     OW97088   4.970   6.763   2.526  0.3828 -0.4262  0.3726
31694SOL    HW197089   4.979   6.801   2.438  3.0981  0.5073  0.9511
31694SOL    HW297090   4.975   6.669   2.512  1.0453 -0.2813 -0.4571
31695SOL     OW97091   4.105  10.134  10.994 -0.4281  0.1240 -0.6618
31695SOL    HW197092   4.087  10.219  11.033  0.6892  0.7866 -1.5261
31695SOL    HW297093   4.077  10.142  10.903  0.9523  0.0546 -1.1173
31696SOL     OW97094   8.552   8.440   4.470 -0.7784 -0.1657  0.0645
31696SOL    HW197095   8.527   8.499   4.400 -1.0318 -0.1240  0.1889
31696SOL    HW297096   8.474   8.388   4.487 -0.4982 -0.6819 -0.1872
31697SOL     OW97097   9.541   9.404   0.101 -0.6449  0.2848 -0.4151
31697SOL    HW197098   9.572   9.373   0.186 -1.0616 -0.5119 -0.5419
31697SOL    HW297099   9.476   9.472   0.122 -0.3478  0.4775 -0.1110
31698SOL     OW97100   9.849   0.657   1.029  0.0650  0.1481  0.4313
31698SOL    HW197101   9.811   0.725   0.973 -1.9048 -0.5088  0.8779
31698SOL    HW297102   9.846   0.578   0.975 -0.0646 -0.1070  0.8132
31699SOL     OW97103   0.678   6.388   5.083 -0.1470 -0.4732 -0.6839
31699SOL    HW197104   0.630   6.372   5.165  1.0844 -4.7164 -0.5595
31699SOL    HW297105   0.767   6.361   5.103  0.9240  1.3764 -2.6512
31700SOL     OW97106  10.089   2.780   1.903 -0.1470  0.4580  0.1960
31700SOL    HW197107  10.097   2.701   1.956  0.8983  0.6215  0.3142
31700SOL    HW297108  10.025   2.757   1.835  1.7874 -1.3388 -1.1880
31701SOL     OW97109   9.692   2.027   3.541 -0.0556 -0.3662  0.2892
31701SOL    HW197110   9.605   2.015   3.577 -0.3462 -0.9499 -0.5706
31701SOL    HW297111   9.748   2.042   3.617 -0.7739 -0.7612  0.9073
31702SOL     OW97112   9.109   8.228  10.460  0.4827 -0.3420 -0.4958
31702SOL    HW197113   9.143   8.308  10.420 -1.4052  0.6362 -0.2485
31702SOL    HW297114   9.101   8.249  10.554  1.6390 -1.4456 -0.1237
31703SOL     OW97115   6.158   9.374   9.224  0.6184  0.3254  0.3447
31703SOL    HW197116   6.192   9.326   9.148  1.0251  0.9586  0.1212
31703SOL    HW297117   6.157   9.310   9.294  2.0447  0.2186  0.2879
31704SOL     OW97118   9.106   6.836   3.208 -0.0398  0.0332 -0.1969
31704SOL    HW197119   9.021   6.878   3.195  1.3120  2.6435 -1.4478
31704SOL    HW297120   9.101   6.798   3.296 -1.4255  2.9381  1.1212
31705SOL     OW97121   4.045   0.254   8.662  0.1638 -0.2667  0.0121
31705SOL    HW197122   4.115   0.237   8.599 -1.0867 -1.3170 -1.1422
31705SOL    HW297123   4.038   0.349   8.664  2.0222 -0.0891  0.6489
31706SOL     OW97124   6.663   1.743   2.435  0.1227  0.8293 -0.2613
31706SOL    HW197125   6.595   1.766   2.372  0.0570  1.9188  0.1720
31706SOL    HW297126   6.722   1.819   2.435  1.1291  0.0619 -0.3565
31707SOL     OW97127   9.560   9.752   0.605  0.1982  0.5219 -0.1490
31707SOL    HW197128   9.469   9.725   0.593  0.0876  1.1602 -0.8240
31707SOL    HW297129   9.594   9.761   0.516  0.7601  0.8267  0.0934
31708SOL     OW97130   1.669   3.684   0.419 -0.4363  0.0798 -0.0352
31708SOL    HW197131   1.665   3.771   0.458  0.6395 -0.0434  0.3878
31708SOL    HW297132   1.595   3.681   0.360  0.6186  2.0238 -1.5774
31709SOL     OW97133   7.341   4.687   0.330  0.1295  0.1782  0.4349
31709SOL    HW197134   7.255   4.729   0.325  0.5074  0.8176 -1.1242
31709SOL    HW297135   7.398   4.755   0.366  0.0533 -0.1741  1.2537
31710SOL     OW97136   5.593   3.479   2.510  0.4131  0.1878 -0.3048
31710SOL    HW197137   5.599   3.508   2.601 -3.0821 -0.0351  0.1404
31710SOL    HW297138   5.571   3.386   2.515 -1.8389  0.6096 -1.2289
31711SOL     OW97139   2.946   2.246   4.493 -0.1532 -0.7234 -0.4500
31711SOL    HW197140   3.011   2.223   4.559 -1.1972 -0.3442  0.7358
31711SOL    HW297141   2.968   2.189   4.419  1.9004 -0.1735 -0.3450
31712SOL     OW97142   6.651   4.494  10.742 -0.4832 -0.1351  0.3806
31712SOL    HW197143   6.556   4.492  10.729 -0.4419  0.3344 -0.0444
31712SOL    HW297144   6.674   4.586  10.726  0.1179 -0.3636 -0.0541
31713SOL     OW97145   1.205   0.920   4.909  0.0542  0.3839  0.5287
31713SOL    HW197146   1.154   0.987   4.955 -0.2478  0.2736  0.3596
31713SOL    HW297147   1.147   0.845   4.906 -0.3897  0.7659 -1.0846
31714SOL     OW97148   0.185   7.227   8.606 -0.2976 -0.4305 -0.1510
31714SOL    HW197149   0.097   7.190   8.607 -0.3471 -0.5587 -2.5509
31714SOL    HW297150   0.223   7.197   8.523  2.2430 -0.8423  1.0396
31715SOL     OW97151   3.450   1.257   4.190 -0.1752 -0.0743  0.3401
31715SOL    HW197152   3.424   1.165   4.200  0.2719 -0.0923  1.4098
31715SOL    HW297153   3.503   1.276   4.267  0.8879  0.6891 -0.5445
31716SOL     OW97154   5.945  10.266   3.697  0.4600  0.1242  0.4123
31716SOL    HW197155   5.877  10.329   3.670  0.0796 -0.3225  0.3089
31716SOL    HW297156   5.984  10.305   3.775  0.2855  0.5299  0.3020
31717SOL     OW97157   5.944   3.993   2.711 -0.5948  0.5057  0.4330
31717SOL    HW197158   5.918   3.920   2.766  0.1567  0.3495  0.5900
31717SOL    HW297159   5.926   4.071   2.764 -1.1820  0.4297  0.3513
31718SOL     OW97160   9.309   0.009   9.904  0.4865  0.3009  0.0389
31718SOL    HW197161   9.350  -0.040   9.974 -1.1751  0.7893  1.4389
31718SOL    HW297162   9.318   0.101   9.930  1.8251  0.6799 -1.5560
31719SOL     OW97163   6.692  10.060   3.195 -0.1516  0.1032  0.0094
31719SOL    HW197164   6.772  10.096   3.234 -0.2963 -0.7245  1.1130
31719SOL    HW297165   6.665  10.126   3.131  1.0638  0.6824  0.0629
31720SOL     OW97166   7.875   1.479   6.317 -0.7644 -0.1608 -0.3890
31720SOL    HW197167   7.912   1.420   6.250 -0.8709 -1.1948  0.4261
31720SOL    HW297168   7.916   1.564   6.299  0.5496 -0.8193 -0.6965
31721SOL     OW97169   8.594   1.228  10.103 -0.1754  0.0474  0.0899
31721SOL    HW197170   8.677   1.231  10.057 -0.2718  1.5686 -0.0416
31721SOL    HW297171   8.543   1.300  10.066 -1.1508 -0.1978  0.8951
31722SOL     OW97172  10.603  10.111   4.094  0.1158  0.0632  0.0003
31722SOL    HW197173  10.661  10.147   4.028  0.1558  1.1581  0.6123
31722SOL    HW297174  10.643  10.135   4.178 -0.6050 -0.1705  0.4298
31723SOL     OW97175   9.587   1.926   6.539  0.0014 -0.1171 -0.3728
31723SOL    HW197176   9.640   1.948   6.462  1.2920  2.4185  1.1065
31723SOL    HW297177   9.640   1.952   6.614 -1.5829 -1.6303  1.3967
31724SOL     OW97178   2.082   7.465   0.888  1.2146 -0.9299  0.3070
31724SOL    HW197179   2.011   7.444   0.949  1.2717 -0.1665  0.6514
31724SOL    HW297180   2.058   7.422   0.807  0.4675 -0.8680  0.4884
31725SOL     OW97181   8.285   6.102   2.136  0.3462 -0.4189  0.0277
31725SOL    HW197182   8.296   6.069   2.225  1.0249  0.8993  0.4674
31725SOL    HW297183   8.349   6.053   2.084  1.0182 -0.1420  0.5737
31726SOL     OW97184   5.129   9.258   2.421 -0.0581  0.0840  0.7874
31726SOL    HW197185   5.184   9.286   2.348  0.6742  2.1304  2.0425
31726SOL    HW297186   5.060   9.324   2.425 -2.1769 -1.9373 -0.1732
31727SOL     OW97187   2.291   8.090   3.397  0.2695 -0.7931  0.1576
31727SOL    HW197188   2.345   8.086   3.318 -0.7752  0.5569 -0.6755
31727SOL    HW297189   2.291   8.001   3.431  1.3056 -1.2544 -0.9722
31728SOL     OW97190   0.907   2.862   1.476 -0.4403 -0.4670  0.0228
31728SOL    HW197191   0.897   2.818   1.561 -0.5024 -2.9224 -1.1509
31728SOL    HW297192   0.823   2.906   1.463  0.0633  1.1797  1.7980
31729SOL     OW97193   2.513   5.306   0.790 -0.5698 -0.6116  0.2177
31729SOL    HW197194   2.493   5.289   0.698 -1.0577  0.8592  0.0301
31729SOL    HW297195   2.428   5.301   0.834 -0.3920 -0.9174  0.5294
31730SOL     OW97196   6.458   7.991   0.317 -0.9692  0.1576 -0.0879
31730SOL    HW197197   6.415   7.916   0.275  0.6707 -0.3321 -0.9422
31730SOL    HW297198   6.504   7.953   0.392 -0.5330  0.3757 -0.2424
31731SOL     OW97199   2.903   9.512   2.039 -0.0544  0.0771 -0.3066
31731SOL    HW197200   2.895   9.607   2.052  0.5529  0.0038  0.6380
31731SOL    HW297201   2.822   9.476   2.076 -0.0922  0.1907 -0.2773
31732SOL     OW97202   6.115   5.986   4.708  0.6271  0.0142 -0.3070
31732SOL    HW197203   6.107   5.908   4.652  0.9406 -0.2545  0.0133
31732SOL    HW297204   6.043   5.977   4.770 -0.6976  1.1273 -1.6152
31733SOL     OW97205   8.651   0.204   9.346  0.1107 -0.4689 -0.1372
31733SOL    HW197206   8.727   0.233   9.294  0.8447 -0.2690  1.0159
31733SOL    HW297207   8.578   0.203   9.283  0.6678  1.1523 -0.8627
31734SOL     OW97208   2.929   1.335   5.432 -0.0450  0.0564  0.2656
31734SOL    HW197209   2.867   1.266   5.454 -0.8532  0.2626 -1.2514
31734SOL    HW297210   2.976   1.303   5.356  0.9159  0.3991  0.6923
31735SOL     OW97211   6.797   4.786   3.266  0.1808 -0.0840 -0.1367
31735SOL    HW197212   6.727   4.793   3.331  0.9314  2.0643  0.5072
31735SOL    HW297213   6.838   4.872   3.265  0.9640 -0.4164 -2.6328
31736SOL     OW97214   3.426   3.350   5.381 -0.1366  0.2641 -0.0392
31736SOL    HW197215   3.507   3.345   5.330  0.2847  1.0893  0.5356
31736SOL    HW297216   3.424   3.267   5.430 -0.6078 -0.5934 -1.4451
31737SOL     OW97217   8.065   2.250   7.821  0.1491  0.1637 -0.0601
31737SOL    HW197218   8.143   2.196   7.804 -0.4721 -0.5114 -0.8447
31737SOL    HW297219   8.006   2.192   7.869  0.1884  0.7313  0.6892
31738SOL     OW97220   6.054   5.687   0.295  0.2254  0.7519  0.6879
31738SOL    HW197221   5.963   5.674   0.324  0.2033 -2.1118 -0.3162
31738SOL    HW297222   6.102   5.613   0.332  1.6956  1.0358 -0.5395
31739SOL     OW97223   1.159   5.186   8.970  0.0532 -0.4747 -0.3736
31739SOL    HW197224   1.172   5.276   8.999  2.9625 -0.9072  0.0066
31739SOL    HW297225   1.137   5.138   9.050 -0.2600 -0.2980 -0.3550
31740SOL     OW97226   8.861   2.589   3.036 -0.5464  0.3970 -0.4711
31740SOL    HW197227   8.849   2.568   3.129 -0.9291  0.4984 -0.4950
31740SOL    HW297228   8.956   2.602   3.026 -0.4170 -0.3535 -0.2568
31741SOL     OW97229  10.219   0.850  10.508 -0.5115 -0.2257 -0.8098
31741SOL    HW197230  10.255   0.916  10.449 -2.4264  1.7236  0.0485
31741SOL    HW297231  10.134   0.827  10.470 -1.4944  0.5990  0.7776
31742SOL     OW97232   9.662   4.228   8.159  0.2294  0.2364  0.0091
31742SOL    HW197233   9.586   4.286   8.155 -0.3218 -0.4994 -0.9606
31742SOL    HW297234   9.722   4.262   8.092  0.2912  0.2154  0.0539
31743SOL     OW97235   1.917   4.986   4.492  0.3097 -0.1957  0.3484
31743SOL    HW197236   1.979   5.045   4.533  0.2958  0.1217 -0.0840
31743SOL    HW297237   1.880   5.036   4.419 -0.8738 -0.1764  0.9345
31744SOL     OW97238   3.039   4.065   7.880 -0.5353  0.3560 -0.1001
31744SOL    HW197239   3.130   4.047   7.902 -0.4823  1.1924  0.4385
31744SOL    HW297240   2.996   4.078   7.965 -0.9901  0.6755 -0.3719
31745SOL     OW97241   7.672   1.191   4.838  0.1578  0.1650  0.2845
31745SOL    HW197242   7.674   1.152   4.751  1.3826 -0.1808  0.4458
31745SOL    HW297243   7.602   1.145   4.884  0.9687 -1.2348  0.1738
31746SOL     OW97244   5.484   9.581   0.407  0.0242  0.4760  0.0703
31746SOL    HW197245   5.488   9.675   0.426  2.4111  0.6832 -1.1397
31746SOL    HW297246   5.490   9.539   0.493 -1.9825  1.3750  0.7129
31747SOL     OW97247   3.251   8.926   4.490 -0.2270 -0.0178  0.1594
31747SOL    HW197248   3.253   8.992   4.559 -0.4188  0.5974 -0.4197
31747SOL    HW297249   3.244   8.843   4.537  0.9266  0.3044  0.9196
31748SOL     OW97250   5.907   7.014  10.713 -0.1851 -0.0438  0.3375
31748SOL    HW197251   5.976   7.050  10.658  0.4485  1.9462  2.2931
31748SOL    HW297252   5.834   6.999  10.652  1.7290 -1.8755 -1.7142
31749SOL     OW97253   8.162   7.421   8.669  0.2381  0.2612  0.2294
31749SOL    HW197254   8.194   7.491   8.727 -1.0917  0.7122  0.4644
31749SOL    HW297255   8.195   7.444   8.583  1.8163 -0.1358  0.6957
31750SOL     OW97256   3.514   8.150   7.239 -0.1759  0.0233  0.1912
31750SOL    HW197257   3.466   8.172   7.319  0.4054 -1.1747  0.8924
31750SOL    HW297258   3.448   8.157   7.170 -0.5795  1.5154  0.6856
31751SOL     OW97259   4.565   3.877   3.378  0.2068  0.1682  0.0400
31751SOL    HW197260   4.519   3.802   3.341  0.8466  0.5106 -1.5064
31751SOL    HW297261   4.499   3.921   3.431 -0.2659 -1.2938  0.7376
31752SOL     OW97262   0.438   7.443   1.273 -0.2218 -0.5140 -0.3945
31752SOL    HW197263   0.379   7.389   1.325  1.3816 -1.6919  0.3052
31752SOL    HW297264   0.426   7.413   1.183 -0.1738 -1.2650 -0.1593
31753SOL     OW97265   8.000   5.822  10.408  0.0652 -0.4670 -0.4336
31753SOL    HW197266   8.080   5.830  10.460 -0.1525  0.3905 -0.2023
31753SOL    HW297267   8.028   5.782  10.326  1.5773  3.4117 -2.0680
31754SOL     OW97268   2.473  10.281   9.317 -0.5228  0.0856  0.1131
31754SOL    HW197269   2.567  10.277   9.335 -0.4918  0.0267 -0.0608
31754SOL    HW297270   2.462  10.228   9.238 -1.0493 -2.0531  1.5364
31755SOL     OW97271   7.093   8.674  10.949 -0.0756 -0.4891 -0.6520
31755SOL    HW197272   7.144   8.689  11.029  1.5651 -0.7366 -1.6275
31755SOL    HW297273   7.141   8.720  10.881 -0.9516 -1.0677 -1.6798
31756SOL     OW97274   0.828   2.082   0.388 -0.3119  0.1013  0.2252
31756SOL    HW197275   0.763   2.016   0.411 -0.2036  0.2644  1.0582
31756SOL    HW297276   0.884   2.088   0.466 -0.3676  1.2354  0.1889
31757SOL     OW97277   8.177   7.782   9.093 -0.2911  0.3203 -0.5824
31757SOL    HW197278   8.113   7.716   9.121  0.4840 -0.3948 -0.4585
31757SOL    HW297279   8.207   7.751   9.007  0.5602  0.1526 -0.2310
31758SOL     OW97280  10.677   1.460   7.904  0.2050  0.2128  0.0793
31758SOL    HW197281  10.656   1.544   7.862 -1.4303 -0.1521  0.0958
31758SOL    HW297282  10.598   1.439   7.955  1.9360  0.4502  3.0764
31759SOL     OW97283   0.185  10.183   7.632 -0.1384 -0.0765 -0.0808
31759SOL    HW197284   0.244  10.249   7.596  0.0411  0.5784  1.3560
31759SOL    HW297285   0.116  10.174   7.567  0.0567  1.2210 -0.4856
31760SOL     OW97286   6.125  10.321   3.300  0.3741  0.4605  0.4368
31760SOL    HW197287   6.091  10.270   3.226 -1.5224  0.7491  1.0670
31760SOL    HW297288   6.106  10.269   3.377 -0.5575  1.5740  0.9918
31761SOL     OW97289   1.391   5.166   1.721 -0.3164  0.0832  0.2243
31761SOL    HW197290   1.340   5.228   1.774 -0.0725  0.6653 -0.2136
31761SOL    HW297291   1.446   5.221   1.665 -1.5625 -0.4724 -1.6345
31762SOL     OW97292   4.494   2.953   8.867 -0.5403 -0.0298 -0.1882
31762SOL    HW197293   4.504   2.982   8.777  0.6903  0.1577  0.0034
31762SOL    HW297294   4.513   2.859   8.865  2.7524  0.5290  0.3657
31763SOL     OW97295   3.680  10.373   6.509  0.2813  0.5569  0.2393
31763SOL    HW197296   3.585  10.386   6.516  0.2655 -0.2486  1.8648
31763SOL    HW297297   3.716  10.421   6.584  1.0752  0.0331  0.1986
31764SOL     OW97298   0.960   5.629   4.239 -0.2303 -0.8394  0.2109
31764SOL    HW197299   0.982   5.561   4.303  1.0191  0.0417  0.7490
31764SOL    HW297300   1.045   5.664   4.212 -0.8590  0.4838 -0.0848
31765SOL     OW97301  10.364   5.092   9.844 -0.1784 -0.3997 -0.0974
31765SOL    HW197302  10.309   5.071   9.769 -0.4293  2.9110 -0.9990
31765SOL    HW297303  10.429   5.153   9.809 -0.5381  1.5637  2.4295
31766SOL     OW97304   6.301   1.598   4.321  0.0879  0.9553  0.2581
31766SOL    HW197305   6.394   1.618   4.321 -0.0681  1.8822  2.3249
31766SOL    HW297306   6.258   1.681   4.340 -1.2165  0.5948 -0.8879
31767SOL     OW97307   1.067   7.885  10.458  0.2883 -0.1310  0.8365
31767SOL    HW197308   1.147   7.840  10.430  1.6500  1.9595  1.1796
31767SOL    HW297309   1.072   7.884  10.554  1.0903  1.8731  0.8696
31768SOL     OW97310  10.128   0.370   6.077 -0.3543  0.5875 -0.0620
31768SOL    HW197311  10.041   0.359   6.117  0.1455 -0.3591  0.7955
31768SOL    HW297312  10.184   0.308   6.123  0.7720  1.1218 -0.6688
31769SOL     OW97313   6.482   4.785   5.657  0.2248  0.1387 -0.1476
31769SOL    HW197314   6.421   4.810   5.587  0.2715  0.3959 -0.1000
31769SOL    HW297315   6.567   4.817   5.627  0.4921 -0.9679 -0.5991
31770SOL     OW97316   4.715   7.558   6.263  0.3416  0.0095 -0.5269
31770SOL    HW197317   4.662   7.484   6.290 -0.0803  1.3125  2.7154
31770SOL    HW297318   4.662   7.604   6.198 -0.5215 -1.0887 -0.6230
31771SOL     OW97319   7.477   7.364   2.677  0.1160 -0.0277 -0.3306
31771SOL    HW197320   7.470   7.428   2.747 -0.6465 -0.8611  0.3723
31771SOL    HW297321   7.442   7.408   2.600 -0.0764  0.5215  0.0701
31772SOL     OW97322   7.469   4.400   2.560 -0.1535 -0.0693 -0.1260
31772SOL    HW197323   7.541   4.378   2.619  0.4382  3.2141  0.5591
31772SOL    HW297324   7.498   4.367   2.474  1.3222 -0.4086  0.4724
31773SOL     OW97325   3.255   4.106   7.591  0.3386  0.1811 -0.4300
31773SOL    HW197326   3.275   4.196   7.565  0.5161  0.1339 -0.4558
31773SOL    HW297327   3.200   4.116   7.669  0.5063  0.3112 -0.3255
31774SOL     OW97328  10.259   7.134   0.615  0.4622 -0.5392  0.0849
31774SOL    HW197329  10.295   7.078   0.684 -1.3874 -0.9500  0.7722
31774SOL    HW297330  10.242   7.218   0.659 -3.2258 -1.5744  1.0016
31775SOL     OW97331   1.988  10.855   7.184  0.2273 -0.7891  0.4192
31775SOL    HW197332   2.012  10.931   7.131 -0.0355 -1.0857 -0.1336
31775SOL    HW297333   2.031  10.870   7.268 -1.2134  0.8301  0.9205
31776SOL     OW97334   6.171   5.157   6.645  0.2360 -0.4089  0.2788
31776SOL    HW197335   6.116   5.212   6.700  0.4846 -0.3109  0.4255
31776SOL    HW297336   6.173   5.072   6.689 -1.1428 -0.9208 -0.5534
31777SOL     OW97337   1.878   0.197   4.368 -0.6275 -0.1070 -0.3346
31777SOL    HW197338   1.879   0.288   4.338 -0.9215  0.9341  2.4601
31777SOL    HW297339   1.787   0.169   4.360 -0.8454  0.4157  0.2018
31778SOL     OW97340   1.211  10.188   4.954 -0.3384  0.0276  0.7207
31778SOL    HW197341   1.134  10.232   4.991 -1.2005 -1.5693  0.8956
31778SOL    HW297342   1.191  10.180   4.861  0.9202  2.1720  0.1955
31779SOL     OW97343   4.407   0.826   7.180 -0.1871  1.0855  0.2790
31779SOL    HW197344   4.330   0.822   7.125  0.3182  2.7174 -0.5981
31779SOL    HW297345   4.438   0.736   7.185 -1.0088  0.7183 -0.9922
31780SOL     OW97346   9.940   5.741   1.329  0.2866  0.4670  0.2512
31780SOL    HW197347   9.960   5.655   1.292 -0.4637  0.8337 -1.0521
31780SOL    HW297348  10.025   5.776   1.355  0.7307 -0.2076 -0.2504
31781SOL     OW97349  10.409   1.918   6.288  0.5235 -0.3642  0.2801
31781SOL    HW197350  10.422   1.823   6.298 -3.3396 -1.2720 -1.3341
31781SOL    HW297351  10.435   1.936   6.198 -0.6299 -0.3694 -0.0690
31782SOL     OW97352   7.703   2.042   1.252 -0.0437  0.4472  0.3271
31782SOL    HW197353   7.776   2.064   1.310  0.8540 -1.6005  0.0537
31782SOL    HW297354   7.715   2.097   1.175  2.4668 -1.2102 -0.6050
31783SOL     OW97355   3.340   4.294   7.251 -0.2073 -0.2356 -0.2103
31783SOL    HW197356   3.335   4.199   7.254  0.1531 -0.2582 -0.2320
31783SOL    HW297357   3.400   4.313   7.179  2.3240 -0.1135  1.7898
31784SOL     OW97358   7.040   4.658   6.695 -0.8915 -0.4564  0.5418
31784SOL    HW197359   7.034   4.622   6.607  0.3748  0.5336  0.0123
31784SOL    HW297360   6.997   4.593   6.751  0.1965 -2.1600 -0.5202
31785SOL     OW97361   9.685   5.126   0.743 -0.0051  0.7493  0.2562
31785SOL    HW197362   9.720   5.141   0.832  0.0403 -2.5718  0.9192
31785SOL    HW297363   9.652   5.036   0.745 -1.4358  1.0944 -2.6965
31786SOL     OW97364   8.744   6.339   8.131  0.0580 -0.8025  0.5956
31786SOL    HW197365   8.807   6.400   8.170  0.1937  0.6675 -1.7579
31786SOL    HW297366   8.797   6.262   8.107  0.9433  0.2310 -0.9418
31787SOL     OW97367   0.862   0.736   7.283  0.7385  0.5432  0.1289
31787SOL    HW197368   0.872   0.829   7.263  1.4006  0.9311  2.0355
31787SOL    HW297369   0.848   0.733   7.378  0.4323 -1.2899  0.0662
31788SOL     OW97370   9.345  11.029  10.378 -0.7058  0.5594  0.3010
31788SOL    HW197371   9.393  11.013  10.460  1.0216  0.4129 -0.6898
31788SOL    HW297372   9.267  10.975  10.385  0.8594 -1.7870  0.6281
31789SOL     OW97373   4.822  10.210   2.178  0.4526  0.4725  0.2036
31789SOL    HW197374   4.823  10.114   2.184 -0.8776  0.2764 -1.6598
31789SOL    HW297375   4.880  10.230   2.104  0.0917  1.0258  0.0603
31790SOL     OW97376   2.059   3.425   3.830 -0.0266 -0.2132  0.0450
31790SOL    HW197377   1.985   3.485   3.842 -0.3250 -0.2600 -1.3605
31790SOL    HW297378   2.019   3.340   3.812  0.3548 -0.2645 -0.6114
31791SOL     OW97379   1.562   6.342   3.993  0.1673 -0.3406 -0.1322
31791SOL    HW197380   1.594   6.285   3.924 -0.6323 -0.1073 -0.7071
31791SOL    HW297381   1.475   6.308   4.014  0.5211 -0.6136  1.0007
31792SOL     OW97382   5.561   7.768   2.570 -0.5098  0.0746  0.2944
31792SOL    HW197383   5.514   7.785   2.651 -0.8239 -0.4929  0.2358
31792SOL    HW297384   5.494   7.771   2.502 -0.5059 -0.8863  0.2279
31793SOL     OW97385   3.891   1.482   3.556  0.8763 -0.1405 -0.2527
31793SOL    HW197386   3.843   1.563   3.539 -0.5431 -0.9269 -0.1494
31793SOL    HW297387   3.886   1.471   3.651  1.1994 -0.2810 -0.2503
31794SOL     OW97388   2.888  10.648   4.943  0.2853 -0.1963 -0.1052
31794SOL    HW197389   2.882  10.717   4.878 -0.4300 -1.5754 -1.5691
31794SOL    HW297390   2.798  10.635   4.972  0.6570  0.7912  1.6497
31795SOL     OW97391   7.324   5.642   9.756  0.4502  0.5481  0.1220
31795SOL    HW197392   7.267   5.708   9.718  0.9387  0.4056 -0.9003
31795SOL    HW297393   7.380   5.614   9.683  0.6138 -0.5965  0.6598
31796SOL     OW97394   0.024   6.259   0.192  0.1920 -0.5280 -0.1238
31796SOL    HW197395  -0.026   6.296   0.119 -0.2869  0.5767  0.7361
31796SOL    HW297396   0.104   6.312   0.195 -0.0680 -0.1603  0.5171
31797SOL     OW97397   0.171   8.250  10.322  0.0817 -0.4616  0.1154
31797SOL    HW197398   0.161   8.228  10.230 -0.3067  1.9397 -0.4746
31797SOL    HW297399   0.218   8.333  10.322  0.0718 -0.4112  2.0759
31798SOL     OW97400   2.162   7.323  10.709  0.0156 -0.3162 -0.1636
31798SOL    HW197401   2.208   7.342  10.628  0.0490 -2.6403 -0.7627
31798SOL    HW297402   2.073   7.303  10.682 -0.0217 -0.9270  0.3799
31799SOL     OW97403   3.377   7.119   5.967  0.0081 -0.2847 -0.2146
31799SOL    HW197404   3.390   7.172   6.046 -0.2545  0.6486 -0.7795
31799SOL    HW297405   3.300   7.066   5.986 -1.0259  1.0866 -0.4127
31800SOL     OW97406   8.181   6.781   3.624  0.0606 -0.7309  0.3329
31800SOL    HW197407   8.232   6.737   3.557  0.2004  0.3850 -0.3244
31800SOL    HW297408   8.198   6.874   3.610 -2.2623 -0.2981 -0.0332
31801SOL     OW97409   6.324   1.937   7.071  0.4675 -0.3295 -0.2644
31801SOL    HW197410   6.344   1.866   7.010  1.3421  0.8969 -1.4968
31801SOL    HW297411   6.346   1.902   7.157 -0.2728 -1.9331 -0.6844
31802SOL     OW97412   9.244   6.102   3.169 -0.5104 -0.6284 -0.8937
31802SOL    HW197413   9.287   6.021   3.140 -0.9387 -1.2595  0.1845
31802SOL    HW297414   9.264   6.108   3.262  0.0546  0.8769 -1.0846
31803SOL     OW97415   8.888   0.985   2.325  0.6102 -0.2136 -0.2193
31803SOL    HW197416   8.941   1.045   2.274  1.9167  0.6781  2.0354
31803SOL    HW297417   8.835   1.041   2.382 -2.6278 -1.0765 -2.1083
31804SOL     OW97418   0.679   2.205  10.004  0.6335 -0.4421 -0.0158
31804SOL    HW197419   0.620   2.266   9.960 -0.7910 -2.4857 -1.0735
31804SOL    HW297420   0.657   2.213  10.097 -0.2442 -0.0812 -0.2444
31805SOL     OW97421   9.969  10.096   8.558  0.6817 -0.0145 -0.0900
31805SOL    HW197422   9.990  10.184   8.528  1.4327 -0.0478  0.3205
31805SOL    HW297423   9.904  10.108   8.627 -0.6072  0.0996 -1.2628
31806SOL     OW97424   4.230   2.499   0.921 -0.3825  0.5064  0.2506
31806SOL    HW197425   4.214   2.554   0.845 -0.7884  0.8718  0.5910
31806SOL    HW297426   4.142   2.480   0.955 -0.1694  2.0879  1.8379
31807SOL     OW97427  10.156   4.866   8.241  0.1429  0.6734 -0.1722
31807SOL    HW197428  10.088   4.931   8.258 -0.5598  0.0411 -0.4751
31807SOL    HW297429  10.117   4.807   8.177  1.2298  0.6742 -0.8684
31808SOL     OW97430   8.360   2.063   1.190 -0.3989  0.7662  0.2348
31808SOL    HW197431   8.336   2.007   1.264 -0.5151  1.1623  0.4959
31808SOL    HW297432   8.400   2.140   1.230  0.8435  0.3568 -0.1656
31809SOL     OW97433   0.844   0.021   7.771  0.3499 -0.6650 -0.2685
31809SOL    HW197434   0.904   0.037   7.843  0.2081 -1.0346 -0.0651
31809SOL    HW297435   0.802   0.106   7.755  1.0676 -0.3573 -0.5523
31810SOL     OW97436   6.338   1.278   5.436 -0.3668  0.3120 -0.4501
31810SOL    HW197437   6.318   1.293   5.343 -2.4872  1.2562  0.1031
31810SOL    HW297438   6.280   1.338   5.483 -0.6004 -1.3733  1.5592
31811SOL     OW97439   7.771   8.475  10.104  0.1192 -0.2839  0.4406
31811SOL    HW197440   7.737   8.401  10.154 -0.5989  0.4298  1.0311
31811SOL    HW297441   7.694   8.530  10.088  0.8441  0.9551  1.0896
31812SOL     OW97442   0.113   6.793   0.775 -0.5199  0.0794 -0.3721
31812SOL    HW197443   0.179   6.726   0.760 -0.7813  0.0609 -1.4620
31812SOL    HW297444   0.055   6.754   0.841  0.7656  0.2615  0.9134
31813SOL     OW97445   9.722   6.462   2.100 -0.3547 -0.4434  0.1384
31813SOL    HW197446   9.780   6.390   2.126 -0.1817 -0.2457  0.2994
31813SOL    HW297447   9.636   6.420   2.090 -0.4255 -0.5343  1.0172
31814SOL     OW97448   5.549   9.368   1.492  0.1486 -0.5111  0.2017
31814SOL    HW197449   5.637   9.340   1.466 -0.3679 -1.1219 -0.9460
31814SOL    HW297450   5.516   9.417   1.417 -1.0277 -1.5121  0.0414
31815SOL     OW97451   6.482   7.746  10.601  0.3972  0.0396 -0.2187
31815SOL    HW197452   6.404   7.713  10.646  1.1555 -0.7593  0.5624
31815SOL    HW297453   6.496   7.684  10.529  1.4575 -1.0242  0.8670
31816SOL     OW97454   2.052   1.358   3.054 -0.0172 -0.5386 -0.0546
31816SOL    HW197455   1.958   1.362   3.069  0.0365  1.4669  0.0900
31816SOL    HW297456   2.088   1.320   3.134 -0.6764 -1.2602 -0.0883
31817SOL     OW97457   5.576   3.637   7.929  0.4225  0.2318 -0.5131
31817SOL    HW197458   5.536   3.552   7.909  0.5675 -0.1504  0.7642
31817SOL    HW297459   5.655   3.616   7.979  0.8829  1.0917 -0.8482
31818SOL     OW97460   2.673   8.180   0.161 -0.0495  0.6255 -0.2917
31818SOL    HW197461   2.754   8.173   0.213 -0.9591 -1.8351  0.9548
31818SOL    HW297462   2.611   8.122   0.205 -2.7960  2.9621 -0.7861
31819SOL     OW97463   6.178  10.095   7.705  0.2326  0.0482 -0.5624
31819SOL    HW197464   6.242  10.073   7.772 -0.8362  0.7004  0.7324
31819SOL    HW297465   6.190  10.028   7.637 -1.7657 -3.7581  2.3894
31820SOL     OW97466   4.844   1.969   2.885 -0.0836 -0.1919  0.5938
31820SOL    HW197467   4.913   1.914   2.848 -2.1337 -1.9568 -0.8675
31820SOL    HW297468   4.846   2.049   2.832 -0.3437 -1.0263 -0.7394
31821SOL     OW97469   6.171   2.658  10.955 -0.0643 -0.2704 -0.0418
31821SOL    HW197470   6.230   2.599  11.002  0.8979 -1.2825 -2.3424
31821SOL    HW297471   6.220   2.740  10.949 -0.0755 -0.2238  0.4343
31822SOL     OW97472   5.553   9.806   7.810  0.5875 -0.3256 -0.0321
31822SOL    HW197473   5.522   9.763   7.731  0.6331 -0.9629  0.2947
31822SOL    HW297474   5.533   9.745   7.881 -1.5399  1.1523  0.7702
31823SOL     OW97475   9.853   2.470   9.364  0.0275 -0.1814 -0.5572
31823SOL    HW197476   9.840   2.500   9.454 -1.0439  1.7421 -1.3020
31823SOL    HW297477   9.896   2.385   9.373 -1.0661 -0.5605  1.7942
31824SOL     OW97478   9.783  10.889   1.855  0.1273 -0.2524  0.4486
31824SOL    HW197479   9.832  10.877   1.937  1.5035 -0.6038 -0.4014
31824SOL    HW297480   9.803  10.811   1.803 -0.2146  0.2730 -0.4877
31825SOL     OW97481   7.134   3.509   6.547 -0.1206  0.5853  0.1827
31825SOL    HW197482   7.083   3.498   6.627  0.0458 -0.6341  0.1331
31825SOL    HW297483   7.196   3.579   6.568  0.3967 -0.1975  1.3771
31826SOL     OW97484   3.455   1.657   2.938 -0.1619 -0.3765  0.3208
31826SOL    HW197485   3.455   1.586   2.874  1.9912 -0.4982  0.3770
31826SOL    HW297486   3.524   1.717   2.907 -0.7014  0.7696  1.2560
31827SOL     OW97487   9.827   4.857  10.468  0.3030 -0.2379  0.1689
31827SOL    HW197488   9.833   4.762  10.462  1.2111 -0.1616 -0.4139
31827SOL    HW297489   9.740   4.878  10.434 -0.4844 -0.9420  1.6450
31828SOL     OW97490   9.908   6.569   4.083 -0.2693 -0.3550 -0.3392
31828SOL    HW197491   9.924   6.657   4.117 -0.1161 -0.6544  0.3822
31828SOL    HW297492   9.822   6.574   4.042 -0.3899  0.0563 -0.0392
31829SOL     OW97493   3.866   4.561   7.257 -0.5323  0.1909 -0.2695
31829SOL    HW197494   3.959   4.582   7.267 -0.5437  0.6059 -0.9629
31829SOL    HW297495   3.837   4.618   7.186 -1.0979 -0.6077 -0.6843
31830SOL     OW97496  10.510   7.514   4.052  0.2360 -0.3035  0.2468
31830SOL    HW197497  10.468   7.596   4.027  0.8542  0.5176  1.8009
31830SOL    HW297498  10.598   7.520   4.015 -0.0756 -0.7832 -0.5993
31831SOL     OW97499   7.077   8.891   9.993  0.6858  0.2896  0.3836
31831SOL    HW197500   7.145   8.958   9.990  1.7977 -0.8164 -0.2645
31831SOL    HW297501   7.125   8.808   9.984 -0.9017 -0.4531 -2.4965
31832SOL     OW97502   8.856   9.114   5.684 -0.1242 -0.3361  0.3181
31832SOL    HW197503   8.926   9.111   5.619 -1.7755  0.8087 -1.6644
31832SOL    HW297504   8.846   9.208   5.703 -1.9994 -0.3126 -0.5584
31833SOL     OW97505   6.480   1.337   4.574  1.0432 -0.0175  0.7919
31833SOL    HW197506   6.567   1.377   4.578  0.8414  0.4307  0.7387
31833SOL    HW297507   6.497   1.243   4.567  1.5904  0.2079 -1.9660
31834SOL     OW97508   3.778   2.316   9.310 -0.1827  0.1270 -0.0954
31834SOL    HW197509   3.811   2.402   9.336 -0.5258  0.5221 -0.9416
31834SOL    HW297510   3.747   2.277   9.392 -0.0568  0.8162  0.2921
31835SOL     OW97511   9.959   8.250   7.667  0.2829  0.5405 -0.3986
31835SOL    HW197512  10.044   8.218   7.635  0.1487  0.4655 -0.6802
31835SOL    HW297513   9.929   8.311   7.600 -1.2614 -1.6243 -1.8288
31836SOL     OW97514   3.416   0.150  10.299  0.2312 -0.0314 -0.1992
31836SOL    HW197515   3.467   0.091  10.243  0.8213 -1.1271  1.4295
31836SOL    HW297516   3.477   0.175  10.368 -0.7195  0.6651  0.3981
31837SOL     OW97517   7.395   1.517   6.288  0.1685  0.1697 -0.2932
31837SOL    HW197518   7.480   1.474   6.276 -0.1152 -0.3426 -0.5088
31837SOL    HW297519   7.410   1.579   6.360  0.4135 -0.7856  0.5027
31838SOL     OW97520   0.680   6.449   8.561 -0.5677 -0.1340 -0.3704
31838SOL    HW197521   0.772   6.441   8.588 -1.2344 -1.3081  1.7539
31838SOL    HW297522   0.684   6.504   8.483  1.7614  1.6782  0.8694
31839SOL     OW97523   4.059  11.022   9.866  0.0211  0.2702  0.5936
31839SOL    HW197524   4.103  10.969   9.933  1.4084  1.9341  1.0656
31839SOL    HW297525   3.969  10.989   9.865  0.1504 -0.3143  2.7601
31840SOL     OW97526   6.173   8.997   5.180  0.6171 -0.0412  0.4615
31840SOL    HW197527   6.240   9.032   5.239 -0.1981 -0.2451  1.5420
31840SOL    HW297528   6.093   9.043   5.205  0.5448  1.0781 -1.6180
31841SOL     OW97529  10.323   5.404   2.947 -0.3348 -0.8468 -0.9135
31841SOL    HW197530  10.240   5.395   2.993 -0.3606 -1.6835 -1.1209
31841SOL    HW297531  10.389   5.412   3.016 -0.5977  0.0776 -0.7475
31842SOL     OW97532   6.145  10.827   7.646  0.0579  0.1950 -0.7168
31842SOL    HW197533   6.055  10.820   7.678  0.3291  0.8819  0.2216
31842SOL    HW297534   6.197  10.778   7.709  0.5315  1.1274 -0.3614
31843SOL     OW97535  10.494   8.548   0.978  0.0205 -0.2268  0.0622
31843SOL    HW197536  10.433   8.478   1.003  0.2136  0.0631  1.4123
31843SOL    HW297537  10.437   8.620   0.951 -0.2452 -0.1831  0.7011
31844SOL     OW97538   2.051   3.485   3.056  0.4877  0.3529  0.1746
31844SOL    HW197539   2.140   3.465   3.029  0.0651  0.3743 -1.3099
31844SOL    HW297540   1.995   3.435   2.996 -0.5150 -0.4632  1.7159
31845SOL     OW97541   9.187   6.905   2.042 -0.0391 -0.3816  0.2309
31845SOL    HW197542   9.118   6.938   1.985 -0.2320 -0.0300  0.6606
31845SOL    HW297543   9.150   6.827   2.083 -0.2557 -0.0921  0.5981
31846SOL     OW97544   7.780   7.661   2.207  0.2137 -0.4264 -0.0829
31846SOL    HW197545   7.738   7.577   2.192  1.4939 -0.9070 -1.1510
31846SOL    HW297546   7.863   7.656   2.159 -0.1971  1.8643 -1.1851
31847SOL     OW97547   3.880   7.275   4.830 -0.1590  0.1785 -0.2547
31847SOL    HW197548   3.941   7.313   4.893 -1.3284  0.4694  0.7392
31847SOL    HW297549   3.893   7.326   4.750  1.7736 -0.5802 -0.4865
31848SOL     OW97550   8.127   9.712   9.376  0.4245  0.2469  0.4826
31848SOL    HW197551   8.152   9.709   9.284  0.6879  0.5311  0.5431
31848SOL    HW297552   8.198   9.760   9.419  0.9757 -1.0116  1.0514
31849SOL     OW97553   3.691   2.598   9.047  0.2632  0.0420  0.6885
31849SOL    HW197554   3.705   2.648   9.128 -0.2112  1.4087 -0.0518
31849SOL    HW297555   3.685   2.664   8.979 -1.3400 -0.9762 -0.2022
31850SOL     OW97556   5.759   1.788  10.795  0.1459 -0.0018 -0.2888
31850SOL    HW197557   5.824   1.781  10.865  0.5135  2.4822 -0.2862
31850SOL    HW297558   5.792   1.731  10.725  0.0424 -2.1131  1.2867
31851SOL     OW97559   5.450   5.828   8.148 -0.4714  0.3086  0.4539
31851SOL    HW197560   5.418   5.870   8.228  0.0156  0.9374  0.3261
31851SOL    HW297561   5.398   5.868   8.078 -1.0864 -0.4381  0.4773
31852SOL     OW97562   2.904   0.503   7.960  0.1554 -0.2257 -0.4212
31852SOL    HW197563   2.862   0.526   8.043  1.2030  1.4148 -0.2994
31852SOL    HW297564   2.981   0.452   7.987  2.8903  3.6853  0.1176
31853SOL     OW97565   1.786   7.771   9.753 -0.6567  0.0922 -0.0133
31853SOL    HW197566   1.785   7.678   9.733 -2.9817  0.2929 -1.2128
31853SOL    HW297567   1.740   7.778   9.836 -0.0889  0.1468  0.3000
31854SOL     OW97568   5.768   9.859   3.624  0.4728 -0.6264 -0.3967
31854SOL    HW197569   5.775   9.782   3.568  0.2547 -0.8714 -0.0870
31854SOL    HW297570   5.833   9.845   3.693 -1.4204 -1.8570  1.2284
31855SOL     OW97571   3.255   8.673   5.683 -0.3143  0.3084  0.0883
31855SOL    HW197572   3.224   8.722   5.760 -0.7631 -3.9310  2.9568
31855SOL    HW297573   3.184   8.612   5.664  1.3206 -1.2467 -1.3215
31856SOL     OW97574   8.820   4.935   4.646  0.3015 -0.5995  0.0112
31856SOL    HW197575   8.847   4.854   4.603 -0.6221 -1.9621  1.8731
31856SOL    HW297576   8.724   4.933   4.642  0.2609  1.0617 -1.0019
31857SOL     OW97577   1.276   2.445   9.139  0.0513 -0.2573 -0.2876
31857SOL    HW197578   1.245   2.426   9.228  2.6701 -2.2479  0.3353
31857SOL    HW297579   1.198   2.441   9.085 -1.6754  1.2963  1.9145
31858SOL     OW97580   3.216   0.766   1.440 -0.2299 -0.5316 -0.2439
31858SOL    HW197581   3.240   0.785   1.531 -2.7351  1.0880  0.1838
31858SOL    HW297582   3.295   0.785   1.390  0.0507  2.9401  1.1939
31859SOL     OW97583   4.497   0.679   2.577 -0.1529  0.0363  0.3491
31859SOL    HW197584   4.502   0.757   2.633 -0.0509  0.4697 -0.2544
31859SOL    HW297585   4.588   0.663   2.551 -0.1661 -0.3260  0.5223
31860SOL     OW97586   1.933  10.831   4.851 -0.7474 -0.5044 -0.2226
31860SOL    HW197587   1.997  10.901   4.837 -1.7924  0.7176  0.7537
31860SOL    HW297588   1.974  10.752   4.817  1.0554  0.3333 -0.0695
31861SOL     OW97589   9.516   4.544   7.801 -0.3691 -0.3330  0.2819
31861SOL    HW197590   9.537   4.630   7.839 -1.4663  0.6270 -1.1888
31861SOL    HW297591   9.488   4.563   7.712 -4.0640 -1.8387  0.9627
31862SOL     OW97592   1.891   5.927   7.722  0.1191 -0.3867  0.8640
31862SOL    HW197593   1.843   6.009   7.711  0.5504 -0.2256  0.1103
31862SOL    HW297594   1.969   5.950   7.772  0.2368 -0.3354  0.6583
31863SOL     OW97595   0.215  10.818   5.826  0.1989  0.0227  0.1518
31863SOL    HW197596   0.221  10.752   5.756  1.2845 -0.5397  0.7566
31863SOL    HW297597   0.126  10.852   5.818 -0.8217 -2.3164  0.5393
31864SOL     OW97598   0.390   1.897   4.430 -0.0241  0.4256 -0.0025
31864SOL    HW197599   0.485   1.910   4.430  0.4558 -2.4218  0.4533
31864SOL    HW297600   0.367   1.887   4.338  0.0014  1.5968 -0.1514
31865SOL     OW97601   1.453   0.649   7.835  0.1869 -0.1970 -0.1521
31865SOL    HW197602   1.408   0.734   7.839 -0.4440 -0.4465 -1.2920
31865SOL    HW297603   1.488   0.646   7.746  1.4799 -0.5080  0.3603
31866SOL     OW97604   6.023   9.362  10.178  0.1349 -0.1498  0.0593
31866SOL    HW197605   6.116   9.386  10.178  0.1692 -0.2162 -1.2553
31866SOL    HW297606   6.001   9.353  10.270  0.9363  1.8134  0.5079
31867SOL     OW97607   7.082   1.908   7.890  0.3826 -0.0815 -0.5437
31867SOL    HW197608   7.144   1.918   7.818 -0.9594  0.3185 -1.6898
31867SOL    HW297609   7.135   1.916   7.969  1.7500  0.4620 -1.4805
31868SOL     OW97610   8.941   5.612   6.705 -0.3228 -0.8250 -0.4484
31868SOL    HW197611   8.871   5.677   6.697  0.3644  0.1134  0.8063
31868SOL    HW297612   8.896   5.532   6.730 -0.9390 -0.1323  0.7489
31869SOL     OW97613   7.774   6.925   1.561 -0.4691 -0.2513  0.1275
31869SOL    HW197614   7.844   6.948   1.500 -1.5405  1.5457 -0.4890
31869SOL    HW297615   7.739   6.842   1.528  0.5572 -0.5452 -0.2477
31870SOL     OW97616   6.173  10.584   0.068  0.5562  0.0546 -0.0559
31870SOL    HW197617   6.189  10.560   0.159  1.9817  2.1807  0.3276
31870SOL    HW297618   6.245  10.644   0.046 -2.1346  3.2343 -1.0984
31871SOL     OW97619   3.810   4.975   0.396  0.0574 -0.4677  0.2217
31871SOL    HW197620   3.744   5.017   0.451 -1.5103 -1.5420 -0.7395
31871SOL    HW297621   3.776   4.985   0.307  1.3734 -0.7719 -0.3315
31872SOL     OW97622   3.991   8.225   6.049 -0.2990 -0.0810 -0.2138
31872SOL    HW197623   4.005   8.297   5.988  0.6446  0.7697  0.9443
31872SOL    HW297624   4.008   8.264   6.135 -5.3739 -0.1036  1.0944
31873SOL     OW97625   9.535   2.382   6.576  0.1194  0.3026 -0.4199
31873SOL    HW197626   9.625   2.352   6.582  0.1086  0.4921  0.7745
31873SOL    HW297627   9.541   2.467   6.531  0.4527 -0.0161 -0.9902
31874SOL     OW97628   0.609   7.980   0.760  0.0228  0.2653  0.0516
31874SOL    HW197629   0.607   7.889   0.730 -0.5762  0.5360 -0.7753
31874SOL    HW297630   0.658   8.026   0.692  1.8081  0.2971  1.2944
31875SOL     OW97631   5.936   8.762  10.900  0.6488  0.4665  0.0908
31875SOL    HW197632   5.906   8.683  10.855  0.4337 -0.3946  1.6785
31875SOL    HW297633   5.891   8.834  10.855 -1.1062 -0.5162  0.1718
31876SOL     OW97634  10.399   0.539   2.009 -0.3125 -0.2436  0.8428
31876SOL    HW197635  10.310   0.570   2.019 -0.1508  0.1649  1.0288
31876SOL    HW297636  10.390   0.452   1.968 -0.7283  0.4254 -0.5652
31877SOL     OW97637   4.720   7.567   9.023 -0.2885 -0.2913  0.3942
31877SOL    HW197638   4.716   7.611   8.938 -1.3361  0.4241  0.7920
31877SOL    HW297639   4.640   7.595   9.068  0.7390  0.1732  2.0134
31878SOL     OW97640   7.419  10.917   0.854  0.0516 -0.3787  0.2103
31878SOL    HW197641   7.435  10.849   0.920 -0.8746 -0.0919  0.7482
31878SOL    HW297642   7.422  10.999   0.903 -2.8084 -0.2697  0.3773
31879SOL     OW97643   2.986   3.281   5.597 -0.3420 -0.8729 -0.0472
31879SOL    HW197644   2.973   3.368   5.636 -0.2644 -0.8319 -0.1116
31879SOL    HW297645   2.917   3.227   5.635 -0.2251 -0.8512  0.1995
31880SOL     OW97646   9.947   6.462   2.475 -0.1157 -0.3122 -0.4121
31880SOL    HW197647  10.025   6.460   2.531  1.7237  0.8057 -2.7669
31880SOL    HW297648   9.890   6.527   2.516  0.8931  0.0488  0.4751
31881SOL     OW97649   2.004   9.151   4.206 -0.5764 -0.0861  0.1033
31881SOL    HW197650   2.075   9.162   4.269  0.5259 -0.0340 -1.0928
31881SOL    HW297651   2.023   9.067   4.163 -0.4595  0.5465 -1.1407
31882SOL     OW97652   6.485   4.479   8.806  0.1562 -1.0263 -0.2408
31882SOL    HW197653   6.577   4.461   8.786  0.4145 -0.3112  0.2601
31882SOL    HW297654   6.441   4.476   8.721  0.6688 -1.2195 -0.5032
31883SOL     OW97655   0.947   9.825   5.481 -1.1728 -0.3368  0.4414
31883SOL    HW197656   1.028   9.819   5.532 -0.4221  1.4975 -0.4421
31883SOL    HW297657   0.970   9.784   5.397 -0.6910  1.3146 -0.2797
31884SOL     OW97658   7.137   7.330   4.147 -0.3042  0.0733  0.4512
31884SOL    HW197659   7.197   7.388   4.194 -1.0803  1.3038 -0.0218
31884SOL    HW297660   7.050   7.358   4.175 -0.7360  0.0584 -0.8345
31885SOL     OW97661   9.856   8.615   1.779 -0.2518  0.0571 -0.4826
31885SOL    HW197662   9.944   8.583   1.762  0.6389  1.1442  1.6583
31885SOL    HW297663   9.806   8.537   1.802  0.6253 -0.3761 -0.0075
31886SOL     OW97664   5.800   3.026   7.596 -0.5287 -0.3461  0.3619
31886SOL    HW197665   5.785   3.005   7.504 -2.5396  1.6960  0.1214
31886SOL    HW297666   5.722   3.076   7.622  0.5720  0.2572  2.8014
31887SOL     OW97667   3.009  10.012   2.346  0.3058  0.1113  0.5299
31887SOL    HW197668   2.957  10.023   2.266 -0.5711  3.7132  1.4255
31887SOL    HW297669   2.950   9.964   2.405 -0.3330  0.3621  0.1106
31888SOL     OW97670   8.798   0.578   0.245  0.1175  0.6205 -0.1781
31888SOL    HW197671   8.890   0.571   0.219  0.2289 -1.7298  0.6046
31888SOL    HW297672   8.750   0.550   0.167  0.0666  1.5402 -0.4833
31889SOL     OW97673   8.548   7.402   4.697  0.8104  0.4078 -0.0245
31889SOL    HW197674   8.539   7.370   4.608 -0.2462 -2.3618  0.9704
31889SOL    HW297675   8.610   7.341   4.738  0.9976  1.4047  1.2500
31890SOL     OW97676   9.626   6.706   5.814 -0.1116  0.3813 -0.0537
31890SOL    HW197677   9.640   6.623   5.861  0.5612  0.6094  0.1520
31890SOL    HW297678   9.562   6.752   5.868  0.2992  0.4358  0.3974
31891SOL     OW97679   9.986   2.378  10.204 -0.1703 -0.1186 -0.1432
31891SOL    HW197680   9.976   2.412  10.293 -0.4716  0.1871 -0.2898
31891SOL    HW297681   9.984   2.456  10.148  1.2648 -0.1867 -0.3360
31892SOL     OW97682   8.283   7.507   8.445 -0.1147 -0.3326  0.0884
31892SOL    HW197683   8.325   7.452   8.379 -0.4017 -1.1524  0.5684
31892SOL    HW297684   8.340   7.583   8.453  0.0957 -0.3725 -0.8633
31893SOL     OW97685   6.832   3.054   9.208 -0.0817 -0.2137 -0.0606
31893SOL    HW197686   6.763   3.062   9.143  0.0830  1.0213 -0.0954
31893SOL    HW297687   6.867   3.142   9.218  0.6444 -0.5865  0.8888
31894SOL     OW97688  11.033  10.851   9.903 -0.3234 -0.4431  0.9291
31894SOL    HW197689  11.088  10.777   9.877  0.2553  0.5389 -0.7765
31894SOL    HW297690  11.096  10.921   9.925 -0.8345  0.4794 -0.3980
31895SOL     OW97691   8.817   4.230   4.952 -0.5152 -0.3348  0.4429
31895SOL    HW197692   8.807   4.253   5.044 -0.1757 -0.2970  0.4712
31895SOL    HW297693   8.777   4.143   4.944  0.4953 -0.8537  0.8721
31896SOL     OW97694   2.721   1.036   4.153  0.0942  0.5073  0.3608
31896SOL    HW197695   2.798   1.044   4.209  1.6395 -0.7587 -1.4680
31896SOL    HW297696   2.674   0.960   4.187 -1.5193  2.4001  2.6987
31897SOL     OW97697   2.289   7.984  10.158  0.0781 -0.0958  0.2008
31897SOL    HW197698   2.242   7.901  10.158  0.1878 -0.1690 -0.9189
31897SOL    HW297699   2.222   8.050  10.142  0.0739 -0.0229  0.5213
31898SOL     OW97700   4.397   4.404   5.759 -0.0476 -0.2384 -0.1286
31898SOL    HW197701   4.344   4.343   5.810 -1.8489  0.2107 -1.3706
31898SOL    HW297702   4.452   4.447   5.824 -4.1367  2.3283  2.0892
31899SOL     OW97703   3.601  10.020   2.648  0.2615 -0.1179  0.7942
31899SOL    HW197704   3.680   9.966   2.644  1.3031  1.3877  0.2372
31899SOL    HW297705   3.602  10.057   2.737  0.3995  0.2011  0.6616
31900SOL     OW97706   4.703   8.966   8.906  0.3318 -0.0860 -0.1463
31900SOL    HW197707   4.706   9.031   8.977  0.2158  0.2354 -0.4286
31900SOL    HW297708   4.793   8.961   8.874  0.0185  1.4864 -1.4779
31901SOL     OW97709  10.402  10.834   9.293  0.0400  0.3358  0.0654
31901SOL    HW197710  10.326  10.890   9.279  0.2635  0.1107 -2.7453
31901SOL    HW297711  10.477  10.887   9.266  0.6290 -0.2150  0.5756
31902SOL     OW97712   7.394   7.360   6.759  0.3903 -0.2111 -0.0209
31902SOL    HW197713   7.316   7.406   6.790  0.7068  0.0903  0.3353
31902SOL    HW297714   7.379   7.269   6.785 -0.1761 -0.2952 -0.6088
31903SOL     OW97715   5.473   8.981   4.901  0.0049  0.0768 -0.2759
31903SOL    HW197716   5.532   8.986   4.825 -0.4161 -1.8862 -0.7993
31903SOL    HW297717   5.525   8.937   4.968 -0.9171 -2.1351 -0.9054
31904SOL     OW97718   7.999   1.511   4.328 -0.3067 -0.3319  0.3392
31904SOL    HW197719   7.913   1.546   4.306 -0.0820 -0.1054 -0.1893
31904SOL    HW297720   7.981   1.436   4.384 -0.8022  0.4484  1.2360
31905SOL     OW97721   9.454   0.799  10.333 -0.3820 -0.1746  0.0592
31905SOL    HW197722   9.364   0.831  10.325  0.2529  1.3128 -2.0438
31905SOL    HW297723   9.508   0.876  10.314  1.3088 -1.3990 -0.3147
31906SOL     OW97724  10.576   4.555   1.194  0.7685  0.2965 -0.1682
31906SOL    HW197725  10.578   4.650   1.188 -0.0994  0.5395  2.4668
31906SOL    HW297726  10.507   4.529   1.133 -1.4046  1.6941  1.5369
31907SOL     OW97727   4.614   8.067   1.179  0.2975  0.1784  0.3542
31907SOL    HW197728   4.660   7.986   1.201  1.5736  1.0224  0.9484
31907SOL    HW297729   4.531   8.062   1.227 -0.4703 -1.5488 -1.0304
31908SOL     OW97730   4.883   6.978   8.469  0.2352  0.3719 -0.2883
31908SOL    HW197731   4.940   7.045   8.506 -1.6033  2.4085 -0.9496
31908SOL    HW297732   4.927   6.950   8.388  1.7983 -0.4435  0.8115
31909SOL     OW97733   0.795   5.720   9.106  0.9172 -0.1479 -0.3855
31909SOL    HW197734   0.740   5.661   9.055 -1.0708  0.3736  1.0461
31909SOL    HW297735   0.772   5.702   9.197  3.8929 -0.5936  0.3851
31910SOL     OW97736   2.627   7.082  10.957 -0.1465 -0.1166 -0.2948
31910SOL    HW197737   2.670   7.007  10.999 -1.2238  0.0057  1.0830
31910SOL    HW297738   2.642   7.155  11.016 -2.2963 -0.0962  0.3046
31911SOL     OW97739   4.749   1.301  10.263  0.2603 -0.4618 -0.0687
31911SOL    HW197740   4.706   1.385  10.274 -1.8460 -1.5474  0.3963
31911SOL    HW297741   4.741   1.281  10.169 -0.6687 -0.8590  0.0894
31912SOL     OW97742   4.863   6.270   2.716  0.2948  0.0101  0.4440
31912SOL    HW197743   4.873   6.189   2.667  2.7591 -0.2092  1.2089
31912SOL    HW297744   4.914   6.258   2.796  0.6579  2.2534  0.6328
31913SOL     OW97745   5.481   9.426  10.822 -0.4203  0.4018 -0.3481
31913SOL    HW197746   5.478   9.378  10.739 -2.7701  0.6338 -0.4556
31913SOL    HW297747   5.419   9.381  10.878  1.1477  0.2467  1.3529
31914SOL     OW97748   7.944   0.707   8.135  0.4249  0.5774  0.0729
31914SOL    HW197749   7.867   0.763   8.143 -0.5537  0.1036 -3.9262
31914SOL    HW297750   7.925   0.632   8.191 -1.0748  1.4385  0.7539
31915SOL     OW97751   9.226   1.574  10.997  0.3065  0.6931 -0.6549
31915SOL    HW197752   9.162   1.513  10.962  0.2120  0.6396 -0.3906
31915SOL    HW297753   9.210   1.574  11.092  0.7916  0.5694 -0.5699
31916SOL     OW97754   3.035   0.693   5.653 -0.0038 -0.2075  0.3120
31916SOL    HW197755   3.097   0.681   5.725 -1.0912 -0.5125  1.2288
31916SOL    HW297756   3.030   0.607   5.611  1.2097  0.1569 -0.6486
31917SOL     OW97757   9.587   2.275   4.318 -0.1332 -0.3243 -0.7401
31917SOL    HW197758   9.615   2.243   4.403 -0.9229  1.5373  0.2779
31917SOL    HW297759   9.603   2.369   4.320 -1.8858  0.0607 -1.9175
31918SOL     OW97760   5.774   4.521   6.187 -0.1523 -0.2833  0.2208
31918SOL    HW197761   5.710   4.523   6.258  0.7425 -0.0024  1.0482
31918SOL    HW297762   5.755   4.441   6.138 -2.3531  0.7322 -0.7302
31919SOL     OW97763   7.399   6.949   5.958  0.7213  0.0201  0.4642
31919SOL    HW197764   7.318   6.899   5.948 -0.1899  1.5879 -0.4725
31919SOL    HW297765   7.447   6.934   5.876 -0.1345  1.5779 -0.3779
31920SOL     OW97766   3.986   7.772  10.000 -0.2765  0.2037 -0.1409
31920SOL    HW197767   4.040   7.851  10.003  0.9977 -0.6350  2.1984
31920SOL    HW297768   4.049   7.700  10.010 -1.4931 -1.0842 -1.3420
31921SOL     OW97769   9.643   3.205   7.644  0.2130  0.1127  0.4961
31921SOL    HW197770   9.564   3.226   7.694 -1.1555 -1.2922 -0.9788
31921SOL    HW297771   9.708   3.267   7.676 -2.1435  3.1218 -0.0609
31922SOL     OW97772  10.338   3.136   6.998 -0.0775 -1.0674 -0.3088
31922SOL    HW197773  10.378   3.201   6.941  0.3832 -1.0878 -0.0111
31922SOL    HW297774  10.260   3.108   6.950 -0.2556 -0.3345 -0.4628
31923SOL     OW97775   3.956   5.641   7.105  0.8145 -0.3456 -0.1085
31923SOL    HW197776   3.885   5.706   7.105 -0.1869 -1.4018 -0.6147
31923SOL    HW297777   3.984   5.637   7.197 -1.0125 -1.1795  0.4574
31924SOL     OW97778   0.824   2.676  10.146  0.0241 -0.8325 -0.3469
31924SOL    HW197779   0.823   2.723  10.229 -1.2665 -1.6983  0.1638
31924SOL    HW297780   0.914   2.647  10.136  0.4107  0.1232  0.2659
31925SOL     OW97781   6.788   2.740   1.752  0.2708 -0.6960  0.6122
31925SOL    HW197782   6.693   2.748   1.750  0.3304  0.2395  0.9316
31925SOL    HW297783   6.810   2.698   1.668 -0.2600  1.2846 -0.5929
31926SOL     OW97784   5.589   1.765   2.104  0.7083 -0.3894 -0.0449
31926SOL    HW197785   5.628   1.679   2.121  0.5108 -0.3497  0.6467
31926SOL    HW297786   5.495   1.749   2.106  0.6590 -0.4193 -1.3586
31927SOL     OW97787   9.246   4.998   8.551  0.7220  0.1041 -0.2735
31927SOL    HW197788   9.229   4.920   8.603 -2.0834  0.2658 -0.8154
31927SOL    HW297789   9.238   5.071   8.613  0.2569  0.1282 -0.3588
31928SOL     OW97790   7.528   0.941   2.805 -0.4847 -0.0456  0.1431
31928SOL    HW197791   7.480   0.990   2.871  0.1375  2.7296 -1.3092
31928SOL    HW297792   7.614   0.982   2.801  0.3817 -1.7889 -0.6610
31929SOL     OW97793   7.560   5.333   9.820 -0.2325 -0.5772  0.7412
31929SOL    HW197794   7.510   5.273   9.876  0.4934 -1.8178  0.0941
31929SOL    HW297795   7.535   5.310   9.731  1.4566 -1.2153  0.4041
31930SOL     OW97796   9.862   8.243   3.004  0.1420  0.0561  0.7132
31930SOL    HW197797   9.832   8.205   3.087  1.6933 -1.8809  0.4618
31930SOL    HW297798   9.829   8.183   2.937  2.1798 -0.6636  0.2610
31931SOL     OW97799  10.809   9.072   5.809 -0.4177 -0.0479 -0.1492
31931SOL    HW197800  10.886   9.036   5.853 -1.3539 -1.7175  0.2153
31931SOL    HW297801  10.765   8.996   5.771 -2.0886  0.7998 -0.0214
31932SOL     OW97802   4.714   8.852  10.165  0.5130 -0.2334  0.0503
31932SOL    HW197803   4.807   8.832  10.157  0.5770  0.5058 -1.2127
31932SOL    HW297804   4.709   8.915  10.238  0.9535 -0.4890  0.3075
31933SOL     OW97805   9.615   2.124   6.945 -0.3278 -0.1150  0.4447
31933SOL    HW197806   9.641   2.206   6.987 -0.4058 -0.4701  1.2094
31933SOL    HW297807   9.639   2.056   7.009 -0.4597 -0.6696 -0.0866
31934SOL     OW97808  10.833   1.871   2.519 -0.5688 -0.3792 -0.6834
31934SOL    HW197809  10.890   1.905   2.449 -0.5754  2.1085  0.3822
31934SOL    HW297810  10.748   1.910   2.501 -0.8965 -0.7812 -0.0115
31935SOL     OW97811   0.452   9.410   5.833  0.0198 -0.2215 -0.1016
31935SOL    HW197812   0.410   9.388   5.749 -1.8160 -0.9179  0.9522
31935SOL    HW297813   0.544   9.391   5.818 -0.4047 -1.3217 -1.6704
31936SOL     OW97814   9.495   7.762   3.319  0.1380 -0.3058  0.1749
31936SOL    HW197815   9.569   7.728   3.267 -0.0386 -2.7739  1.3883
31936SOL    HW297816   9.444   7.813   3.256  1.4399 -0.7822 -1.3577
31937SOL     OW97817   0.302  10.654  10.307 -0.5444 -0.4853  0.0851
31937SOL    HW197818   0.218  10.638  10.265 -1.0502  2.3407 -0.1381
31937SOL    HW297819   0.363  10.598  10.259 -2.0782 -1.7220 -0.5112
31938SOL     OW97820   3.499   5.283   0.940 -0.0673  0.3206  0.1324
31938SOL    HW197821   3.586   5.316   0.960 -0.3761  0.3822  1.4797
31938SOL    HW297822   3.513   5.192   0.913  0.3366  0.0181  1.3138
31939SOL     OW97823  10.887   4.172   5.838 -0.3941  0.3065  0.0710
31939SOL    HW197824  10.872   4.264   5.862 -3.7847 -0.2569  0.5022
31939SOL    HW297825  10.844   4.162   5.753  0.2494 -0.8571 -0.1423
31940SOL     OW97826   3.623  10.247   9.580 -0.2690 -0.2471  0.4490
31940SOL    HW197827   3.689  10.317   9.582 -0.4601 -0.0622  0.4045
31940SOL    HW297828   3.666  10.172   9.619 -0.7308  0.4897  2.5096
31941SOL     OW97829   0.662   7.710   6.185 -0.0056 -0.6771 -0.1304
31941SOL    HW197830   0.704   7.787   6.149 -0.5743 -0.2129  0.1736
31941SOL    HW297831   0.675   7.718   6.280  1.2872 -1.7675 -0.1911
31942SOL     OW97832   0.231   2.952  10.940 -0.2476  0.5412  0.1189
31942SOL    HW197833   0.169   2.985  10.876 -1.8245  0.7106  1.6760
31942SOL    HW297834   0.224   2.857  10.934  1.4680  0.4471 -1.6469
31943SOL     OW97835   7.600   2.833  10.902  0.4460 -0.1061  0.0042
31943SOL    HW197836   7.607   2.884  10.982  0.6844  0.7586 -0.5586
31943SOL    HW297837   7.691   2.810  10.881  0.5883  1.3508 -1.0764
31944SOL     OW97838   0.747   3.565   2.394  0.3624 -0.6440  0.6246
31944SOL    HW197839   0.824   3.560   2.450 -0.0012 -2.0642  1.0485
31944SOL    HW297840   0.676   3.530   2.448 -0.1645 -1.2551 -0.4315
31945SOL     OW97841   1.484   9.354   7.487 -0.3134 -1.2026 -0.2578
31945SOL    HW197842   1.509   9.289   7.421  0.8772  0.2715 -1.3181
31945SOL    HW297843   1.556   9.353   7.550  0.9821  0.7887 -1.6117
31946SOL     OW97844   0.509   2.970  11.030 -0.0993 -0.4215  0.0994
31946SOL    HW197845   0.420   2.944  11.007 -0.3267 -0.0529  0.5411
31946SOL    HW297846   0.501   3.006  11.119  0.2203  1.0046 -0.4296
31947SOL     OW97847   5.649   8.435   9.877  0.1690  0.0791  0.1881
31947SOL    HW197848   5.564   8.424   9.835 -1.2756  4.0220  1.6118
31947SOL    HW297849   5.711   8.437   9.804 -1.5417  1.4096 -1.3349
31948SOL     OW97850   1.277  11.026   3.871  0.0495 -0.5144 -0.5402
31948SOL    HW197851   1.335  11.040   3.946  0.1073  3.2514 -1.1277
31948SOL    HW297852   1.190  11.016   3.910  0.0154  1.8076  0.0929
31949SOL     OW97853   7.156   8.096   4.378 -0.2272 -0.3245  0.0822
31949SOL    HW197854   7.147   8.187   4.406 -0.9873 -1.1933  3.0252
31949SOL    HW297855   7.069   8.073   4.345 -0.4419 -0.3182  0.6158
31950SOL     OW97856   8.595  10.840   8.959  0.7702  0.0190 -0.1186
31950SOL    HW197857   8.541  10.801   8.890 -0.7520 -1.9059  2.0195
31950SOL    HW297858   8.572  10.932   8.959  0.1923 -0.0953 -1.6136
31951SOL     OW97859   9.817   0.144  10.341 -0.4838 -0.0530 -0.4087
31951SOL    HW197860   9.884   0.196  10.297 -0.1596  0.9984  1.2482
31951SOL    HW297861   9.754   0.208  10.374 -1.2433 -0.8770 -0.2112
31952SOL     OW97862   5.625   4.776   7.694 -0.1404  0.1326  0.3700
31952SOL    HW197863   5.716   4.801   7.677 -0.3719 -0.0044 -1.2698
31952SOL    HW297864   5.598   4.730   7.614 -1.9378  1.0193  0.4228
31953SOL     OW97865   9.710  10.853   9.928 -0.4219 -1.0036 -0.1651
31953SOL    HW197866   9.635  10.853   9.868 -2.0057  1.7248  1.5904
31953SOL    HW297867   9.751  10.938   9.915 -1.4319  0.1312  3.1966
31954SOL     OW97868  10.955   6.067   6.009 -0.4982 -0.0771 -0.0783
31954SOL    HW197869  10.881   6.008   6.020 -1.0004  0.7715  1.2967
31954SOL    HW297870  10.916   6.155   6.005  0.3755  0.3245 -0.0644
31955SOL     OW97871   9.708   5.151   1.910  0.0029 -0.0102  0.2198
31955SOL    HW197872   9.655   5.073   1.894 -1.1890  1.0137 -1.0557
31955SOL    HW297873   9.644   5.217   1.938  0.5993  1.2353 -1.2830
31956SOL     OW97874   5.053   1.293   6.132  0.0895 -0.1731 -0.0541
31956SOL    HW197875   5.142   1.322   6.153 -0.3941  0.5031  1.2080
31956SOL    HW297876   4.997   1.350   6.184 -1.0284 -1.4358  0.1870
31957SOL     OW97877   7.046   1.301   3.238  0.3310 -0.2876  0.1058
31957SOL    HW197878   7.085   1.349   3.165 -0.4887  1.4585  0.7309
31957SOL    HW297879   6.981   1.243   3.198  0.9200 -0.4379 -0.6448
31958SOL     OW97880   9.501  10.683   7.481  0.2011 -0.2120  0.0021
31958SOL    HW197881   9.566  10.732   7.431  1.4878 -0.5853  1.2688
31958SOL    HW297882   9.427  10.674   7.421  1.0146  0.8649 -1.2106
31959SOL     OW97883   5.582   0.042   1.818 -0.2262  0.1075 -0.2631
31959SOL    HW197884   5.549   0.112   1.762  1.8134  1.2052 -0.1680
31959SOL    HW297885   5.558  -0.039   1.772 -1.1118  0.9050 -1.2449
31960SOL     OW97886   3.711   3.490   3.920  0.5782  0.4362  0.1938
31960SOL    HW197887   3.779   3.422   3.922  1.0760  0.9244  0.3479
31960SOL    HW297888   3.760   3.572   3.916 -0.0154  0.7532 -2.5245
31961SOL     OW97889   4.981   0.762   4.217 -0.1960 -0.3834  1.1215
31961SOL    HW197890   5.071   0.776   4.188  0.0093  0.1555  1.9800
31961SOL    HW297891   4.932   0.835   4.179 -0.1178 -0.2399  1.2941
31962SOL     OW97892   4.058  10.827   6.040  0.2089  0.2651  0.1628
31962SOL    HW197893   4.126  10.812   6.106 -0.2960 -0.3459  0.5625
31962SOL    HW297894   4.101  10.879   5.972  0.7664  0.8282  0.9283
31963SOL     OW97895   0.391   1.142   9.381 -0.4124  0.3590 -0.1490
31963SOL    HW197896   0.320   1.206   9.385 -0.9127 -0.1669 -0.4389
31963SOL    HW297897   0.380   1.099   9.296 -0.3040 -0.3628  0.1965
31964SOL     OW97898   8.816   0.237   0.311  0.1495  0.0005  0.1559
31964SOL    HW197899   8.740   0.182   0.293  0.0394  0.1916  0.0381
31964SOL    HW297900   8.890   0.189   0.274  0.2226 -0.6545  1.1236
31965SOL     OW97901   7.421   0.483   3.919 -0.1077 -0.1415 -0.0537
31965SOL    HW197902   7.487   0.417   3.940  0.7192  0.7148  0.1338
31965SOL    HW297903   7.417   0.482   3.823  0.4777  0.0706 -0.0874
31966SOL     OW97904   0.126   0.577   2.316 -0.0280 -0.4884  0.3001
31966SOL    HW197905   0.143   0.594   2.223  1.5089 -1.2723  0.4054
31966SOL    HW297906   0.105   0.662   2.353  1.1014  0.1308 -0.4290
31967SOL     OW97907   2.215   3.512   1.927  0.1307 -0.4026 -0.0023
31967SOL    HW197908   2.163   3.588   1.953  0.0527 -1.0695  1.9734
31967SOL    HW297909   2.297   3.549   1.895  0.2755  0.5459  1.3473
31968SOL     OW97910   2.869   8.879   6.997  0.2296  0.1497  0.7195
31968SOL    HW197911   2.872   8.949   6.932  1.7107  0.9411  1.5877
31968SOL    HW297912   2.954   8.837   6.991 -0.4482 -1.2598  0.5959
31969SOL     OW97913   8.105   6.581   4.398  0.0890  0.4177  0.4113
31969SOL    HW197914   8.161   6.630   4.338  0.5884  0.7706  1.1578
31969SOL    HW297915   8.068   6.511   4.344 -0.0462  1.1630 -0.4832
31970SOL     OW97916   9.390   3.429   6.828  0.2679  0.0264  0.1024
31970SOL    HW197917   9.367   3.378   6.906  1.7572 -0.5256  0.2264
31970SOL    HW297918   9.357   3.378   6.755  1.4299 -0.9671  0.2468
31971SOL     OW97919   2.967   7.901   9.975 -0.2718 -0.4177  0.3354
31971SOL    HW197920   2.930   7.836   9.916  1.0585 -0.0727 -0.9550
31971SOL    HW297921   3.013   7.851  10.042  1.2167 -0.8631 -0.9611
31972SOL     OW97922   3.580  10.635   4.679 -0.2961  0.3430  0.3026
31972SOL    HW197923   3.607  10.550   4.644 -0.4953 -0.1444  1.2983
31972SOL    HW297924   3.485  10.631   4.679 -0.3242  0.8786 -0.3710
31973SOL     OW97925   5.743   0.411   7.179 -0.0849 -0.2019 -0.0069
31973SOL    HW197926   5.751   0.329   7.229 -2.1847 -0.5600 -0.1674
31973SOL    HW297927   5.828   0.454   7.190  0.1858 -1.1609  2.2841
31974SOL     OW97928   4.029   7.968   2.296 -0.0925  0.1663  0.0966
31974SOL    HW197929   3.954   8.023   2.319 -0.5454 -0.5850  0.4765
31974SOL    HW297930   4.069   8.012   2.221 -0.9888  0.5128 -0.1981
31975SOL     OW97931   5.436   5.045   5.322 -0.5344 -0.7842  0.6772
31975SOL    HW197932   5.483   5.113   5.275 -0.8680 -1.1394 -0.1922
31975SOL    HW297933   5.504   4.994   5.367  0.2875 -2.9528 -2.6741
31976SOL     OW97934   5.507   6.855   9.233 -0.1807 -0.1033 -0.0733
31976SOL    HW197935   5.470   6.773   9.199 -4.5052  1.3526  0.5581
31976SOL    HW297936   5.543   6.898   9.155  0.4001 -1.6945 -0.7384
31977SOL     OW97937   4.999   1.750   3.877 -0.1836  0.9054 -0.5409
31977SOL    HW197938   5.000   1.795   3.962 -2.3874  0.2099 -0.0908
31977SOL    HW297939   4.909   1.760   3.846 -0.7432 -2.8797 -0.5477
31978SOL     OW97940   2.002  10.624   4.396  0.3282  0.4276 -0.2051
31978SOL    HW197941   1.977  10.698   4.341 -0.1820  0.0226 -0.5260
31978SOL    HW297942   2.050  10.566   4.336  1.1509  0.7187  0.1596
31979SOL     OW97943  10.570   9.919   7.580 -0.9712 -0.6817  0.5837
31979SOL    HW197944  10.633   9.856   7.544  0.3241  0.1072  1.3995
31979SOL    HW297945  10.529   9.959   7.504  0.5070 -0.2445 -0.0084
31980SOL     OW97946   4.900   7.598   3.825  0.2709  0.4492  0.0368
31980SOL    HW197947   4.962   7.670   3.841  0.9686  0.1066 -1.0143
31980SOL    HW297948   4.954   7.519   3.827 -0.5035 -0.0902  1.2651
31981SOL     OW97949   7.422   7.648   0.025 -0.1473  0.0314  0.1068
31981SOL    HW197950   7.328   7.651   0.006 -0.2484 -2.8047 -0.2796
31981SOL    HW297951   7.436   7.718   0.089 -2.6811  0.0306  0.7573
31982SOL     OW97952   2.375   5.420  10.895 -0.1655  0.2998  0.1476
31982SOL    HW197953   2.355   5.495  10.951 -0.8928  0.2294 -0.0070
31982SOL    HW297954   2.406   5.459  10.813 -0.2401  0.4237  0.1778
31983SOL     OW97955   7.242   0.258   0.364  0.0675  0.6045  0.0688
31983SOL    HW197956   7.255   0.262   0.270 -0.9332  2.2718 -0.0504
31983SOL    HW297957   7.287   0.335   0.398  1.0302 -0.3570  1.0641
31984SOL     OW97958   7.881   4.180   8.101  0.2290 -0.2915  0.2914
31984SOL    HW197959   7.821   4.187   8.176 -0.0246  2.0507 -0.0623
31984SOL    HW297960   7.967   4.199   8.137  0.1619  0.4393  0.0830
31985SOL     OW97961   8.479   5.951   2.029 -0.8534 -0.1582 -0.0055
31985SOL    HW197962   8.527   5.901   1.963 -0.8289  1.4447 -1.2474
31985SOL    HW297963   8.536   5.948   2.106 -0.0235 -0.5196 -0.6137
31986SOL     OW97964   8.502   8.609   0.349 -0.1272 -0.1435 -0.1177
31986SOL    HW197965   8.558   8.687   0.347 -1.0090  0.7357  3.0677
31986SOL    HW297966   8.563   8.536   0.338  1.5129  0.8433  1.6841
31987SOL     OW97967   8.477  10.261   9.849 -0.6239 -0.1189 -0.1705
31987SOL    HW197968   8.452  10.173   9.819  1.2288 -0.8852  0.4146
31987SOL    HW297969   8.554  10.283   9.797 -2.2080  2.0731 -1.7579
31988SOL     OW97970   3.912   6.653   8.352 -0.1738  0.5963 -0.4297
31988SOL    HW197971   4.005   6.633   8.364 -0.5308 -2.2590 -1.5855
31988SOL    HW297972   3.908   6.691   8.264 -0.1777  0.0659 -0.6598
31989SOL     OW97973   2.044  10.536   0.901 -0.5413 -0.3522 -0.1947
31989SOL    HW197974   2.037  10.594   0.826 -0.8595  2.2093  1.6788
31989SOL    HW297975   2.032  10.593   0.977  2.0651 -2.3351  1.9303
31990SOL     OW97976  10.303   6.538   3.016 -0.2873  0.3598  0.3117
31990SOL    HW197977  10.308   6.486   2.936  1.1261 -1.5856  1.5780
31990SOL    HW297978  10.212   6.531   3.043 -0.5663  0.2444 -0.6084
31991SOL     OW97979   7.065   0.197  10.208  0.1111  0.1416  0.9398
31991SOL    HW197980   7.038   0.285  10.184 -1.4981 -0.6760 -0.3537
31991SOL    HW297981   7.105   0.207  10.295  2.5673  2.5588 -0.3347
31992SOL     OW97982   4.303   9.151   1.847 -0.1594 -0.1094  0.0678
31992SOL    HW197983   4.268   9.220   1.791 -0.3368 -0.6887 -0.5420
31992SOL    HW297984   4.228   9.118   1.896 -0.0318  0.2883  0.5418
31993SOL     OW97985   8.161   2.992  10.346  0.7884 -0.5734 -0.5160
31993SOL    HW197986   8.161   3.066  10.406 -0.5258 -0.8527 -0.1369
31993SOL    HW297987   8.240   2.943  10.369  1.1356  0.1668 -0.0939
31994SOL     OW97988   7.186   1.615   9.963  0.2791 -0.7585 -0.6748
31994SOL    HW197989   7.157   1.604  10.054  2.4397  2.3348  0.5901
31994SOL    HW297990   7.269   1.569   9.959  0.2494 -0.7795 -1.0182
31995SOL     OW97991   7.537  10.396   4.309 -0.0363 -0.0560 -0.4123
31995SOL    HW197992   7.520  10.389   4.403 -1.4707 -0.7932 -0.6978
31995SOL    HW297993   7.489  10.322   4.271  0.6416  0.1539 -1.7124
31996SOL     OW97994   8.778   4.159   9.721  0.3635  0.3119 -0.3951
31996SOL    HW197995   8.852   4.160   9.781  0.1516  1.0651 -0.1389
31996SOL    HW297996   8.817   4.146   9.635  0.9304  1.9487 -0.4206
31997SOL     OW97997   0.317   9.409   2.161  0.3377  0.2118 -0.3443
31997SOL    HW197998   0.365   9.482   2.123  0.8442 -0.7401 -1.6149
31997SOL    HW297999   0.225   9.435   2.155  0.5444  1.0763  0.0020
31998SOL     OW98000   3.078  10.143   2.059  0.1234 -0.3749  0.5978
31998SOL    HW198001   3.151  10.158   2.119  0.6065  2.7046 -0.6125
31998SOL    HW298002   3.116  10.092   1.987  0.8373  0.3076  0.4825
31999SOL     OW98003  10.530   7.770   6.048 -0.0663 -0.1730  0.0834
31999SOL    HW198004  10.569   7.832   6.110 -3.9346 -0.2602  2.9829
31999SOL    HW298005  10.451   7.814   6.017 -0.5868 -1.9587 -1.2770
32000SOL     OW98006  10.191   5.976   9.446 -0.6262  0.0839  0.0332
32000SOL    HW198007  10.238   5.895   9.430 -0.8860 -0.1269  0.3104
32000SOL    HW298008  10.104   5.948   9.475 -0.9071  0.4671 -0.4322
32001SOL     OW98009   6.863   7.454   4.546  0.3075  0.1778 -0.1506
32001SOL    HW198010   6.790   7.393   4.550  1.1876 -0.9432 -0.6642
32001SOL    HW298011   6.853   7.509   4.624  0.2123 -1.4718  1.0540
32002SOL     OW98012  10.504   4.188   5.183  0.0495 -0.0355 -0.0119
32002SOL    HW198013  10.488   4.127   5.111  1.8859  0.0098 -0.5131
32002SOL    HW298014  10.578   4.149   5.231  0.6247  1.2933  0.2204
32003SOL     OW98015  11.007   5.459   6.577  0.6792 -0.0573  0.7860
32003SOL    HW198016  10.960   5.388   6.534  0.4627  0.1111  0.7480
32003SOL    HW298017  11.024   5.426   6.666 -1.2553  0.6377  1.4543
32004SOL     OW98018   7.078   1.306   1.496 -0.4061 -0.1355 -0.0017
32004SOL    HW198019   7.094   1.374   1.562  1.2197 -1.3580  0.9563
32004SOL    HW298020   7.002   1.337   1.448  0.0999  2.2329  0.5670
32005SOL     OW98021   0.605   2.435   2.778  0.2328  0.1245  0.7294
32005SOL    HW198022   0.559   2.444   2.695  0.4460  3.3214  0.8416
32005SOL    HW298023   0.694   2.411   2.754 -0.2281 -1.1567  0.2182
32006SOL     OW98024   9.834   6.552   9.143  0.1988  0.2408 -0.0583
32006SOL    HW198025   9.761   6.544   9.205  1.0298  0.6414  1.0103
32006SOL    HW298026   9.864   6.462   9.129  0.6875  0.2295  0.9843
32007SOL     OW98027   7.314   5.850   9.268 -0.3326  0.9142 -0.0010
32007SOL    HW198028   7.396   5.859   9.317 -1.0821 -0.7498  1.6709
32007SOL    HW298029   7.319   5.917   9.200  1.7813  1.7822  0.9360
32008SOL     OW98030   1.586   6.985   2.134 -0.2307  0.0135 -0.0185
32008SOL    HW198031   1.669   6.938   2.139 -1.1265 -1.7206 -0.6639
32008SOL    HW298032   1.586   7.041   2.212  0.6614 -1.4533  1.0891
32009SOL     OW98033   7.375   2.981  10.817 -0.4252  0.8175 -0.0848
32009SOL    HW198034   7.454   2.930  10.831 -1.0602 -0.3612 -0.6539
32009SOL    HW298035   7.390   3.062  10.865  2.5036  2.1105 -2.7777
32010SOL     OW98036   6.315   3.284   3.948 -1.1781  0.6949 -0.2893
32010SOL    HW198037   6.237   3.237   3.978  0.0204  0.1633  2.3122
32010SOL    HW298038   6.329   3.351   4.015  1.6866 -0.5301  0.4651
32011SOL     OW98039   7.852   2.278   0.720 -0.4456  0.2680 -0.1203
32011SOL    HW198040   7.947   2.269   0.708 -0.3203  0.1258  0.9072
32011SOL    HW298041   7.826   2.198   0.765 -0.8029  0.9437  0.9257
32012SOL     OW98042   3.236   5.029   7.723 -0.7352  0.4057  0.2510
32012SOL    HW198043   3.280   5.003   7.641  0.1645 -0.5996  1.0211
32012SOL    HW298044   3.268   5.117   7.740  1.7546 -0.5888  1.2232
32013SOL     OW98045   0.139   4.509   0.233 -0.0863  0.1712 -0.2610
32013SOL    HW198046   0.114   4.443   0.169  0.0078 -1.2225  1.0782
32013SOL    HW298047   0.076   4.499   0.305  1.6610 -0.5029  1.2688
32014SOL     OW98048   8.613   2.114   9.111 -0.0179  0.1381  0.0074
32014SOL    HW198049   8.593   2.027   9.145 -0.5190 -0.0064 -0.6326
32014SOL    HW298050   8.615   2.102   9.016  1.2328  0.5565 -0.0319
32015SOL     OW98051   6.059   4.521   6.338  0.0882  0.3209  0.3343
32015SOL    HW198052   6.017   4.583   6.397 -2.3042  0.6525 -1.5580
32015SOL    HW298053   5.987   4.482   6.289  1.8072 -1.3766 -1.0102
32016SOL     OW98054   1.929   8.700   5.081  0.0927 -0.1035 -0.8579
32016SOL    HW198055   2.012   8.697   5.129  0.1754  1.8529 -0.7700
32016SOL    HW298056   1.880   8.623   5.111  1.2254 -0.4019  0.3143
32017SOL     OW98057   2.007   5.751   6.298  0.4615  0.1420  0.1293
32017SOL    HW198058   1.924   5.787   6.327  0.0098  0.3260 -1.2969
32017SOL    HW298059   1.989   5.717   6.210  1.2783 -2.0228  0.7093
32018SOL     OW98060   3.575   3.856   9.032 -0.2089  0.3408  0.8822
32018SOL    HW198061   3.575   3.861   9.127 -1.0866 -0.9271  0.9720
32018SOL    HW298062   3.541   3.769   9.012 -0.1324  0.6162 -0.5929
32019SOL     OW98063   0.448   4.711   3.695 -0.8355 -0.0278  0.0043
32019SOL    HW198064   0.436   4.618   3.677 -0.4393  0.0884 -0.8767
32019SOL    HW298065   0.363   4.751   3.674 -0.4351  0.0805 -1.4605
32020SOL     OW98066   8.696   0.234   1.340  0.0064  0.3519 -0.4929
32020SOL    HW198067   8.686   0.304   1.404  1.0100  0.9600 -0.9664
32020SOL    HW298068   8.710   0.280   1.257 -0.0876 -0.4121 -0.9399
32021SOL     OW98069   4.123   4.389  10.710 -0.1031 -0.2260 -0.3422
32021SOL    HW198070   4.163   4.338  10.780 -1.2286  0.5014  0.8751
32021SOL    HW298071   4.089   4.323  10.648 -0.6063 -0.9426  0.6684
32022SOL     OW98072   0.033   4.028  10.183 -0.2113  0.1996 -0.0420
32022SOL    HW198073   0.066   3.969  10.115 -1.0474  1.4722 -1.6211
32022SOL    HW298074   0.002   3.970  10.252  3.0703 -1.1019  0.5099
32023SOL     OW98075   6.013  10.346   3.971 -0.0640 -0.1584 -0.2576
32023SOL    HW198076   6.032  10.265   4.019  0.6729  0.6468  0.8724
32023SOL    HW298077   6.099  10.388   3.960  0.0927 -1.1116 -3.8910
32024SOL     OW98078   6.964   5.421   7.091 -0.2343  0.2838 -0.5558
32024SOL    HW198079   7.027   5.492   7.077  0.6103 -0.2519  0.4757
32024SOL    HW298080   6.891   5.462   7.137  0.3413  0.4564  0.2189
32025SOL     OW98081  10.052   9.283   4.807 -0.3879 -0.5392  0.0314
32025SOL    HW198082  10.123   9.263   4.869 -0.8447  0.3492  0.8666
32025SOL    HW298083  10.005   9.355   4.848 -0.8607 -0.1048 -1.2524
32026SOL     OW98084   0.495   0.725   5.061 -0.2598 -0.3577 -0.3696
32026SOL    HW198085   0.522   0.636   5.081 -1.6155 -1.1689 -1.8569
32026SOL    HW298086   0.569   0.780   5.088  1.3331 -2.0828 -1.0059
32027SOL     OW98087   8.978   1.062  10.622  0.1627 -0.3827 -0.2217
32027SOL    HW198088   8.922   1.000  10.668  0.9999 -1.1130 -0.1591
32027SOL    HW298089   8.927   1.086  10.544 -0.7499 -0.0674  0.4544
32028SOL     OW98090  10.731   8.413   9.274 -0.0635  0.4555  0.4897
32028SOL    HW198091  10.658   8.359   9.243 -1.4399  1.3025  2.1019
32028SOL    HW298092  10.751   8.379   9.361  2.2867 -0.4970 -0.3519
32029SOL     OW98093   5.738   7.159   3.446 -0.0733 -0.5257  0.8393
32029SOL    HW198094   5.730   7.202   3.361 -1.0553  1.3637  1.7877
32029SOL    HW298095   5.831   7.165   3.468  0.3646 -1.9098 -0.4737
32030SOL     OW98096  10.721   4.976   0.398 -0.1544 -0.5391 -0.0149
32030SOL    HW198097  10.751   4.927   0.475  1.7244 -0.1901 -0.4601
32030SOL    HW298098  10.626   4.964   0.397 -0.2012 -0.8204  2.1618
32031SOL     OW98099   9.210   4.401   5.092 -0.3795  0.0284 -0.0889
32031SOL    HW198100   9.262   4.372   5.167  0.2964  0.1361 -0.4987
32031SOL    HW298101   9.150   4.329   5.074 -0.3113 -0.1365  0.3425
32032SOL     OW98102   6.763   6.561   7.038  0.1154  0.1044 -0.0726
32032SOL    HW198103   6.706   6.487   7.017  1.3026 -0.9680  0.3490
32032SOL    HW298104   6.715   6.638   7.007 -0.8792 -0.8836 -1.0822
32033SOL     OW98105  10.001   8.874  10.559  0.3068 -0.5252 -0.2016
32033SOL    HW198106   9.990   8.825  10.477  1.3439  0.2365 -0.8258
32033SOL    HW298107   9.945   8.951  10.548  0.1478 -0.6160 -0.0293
32034SOL     OW98108   8.318  11.039   5.472 -0.3305  0.1208  0.0883
32034SOL    HW198109   8.238  10.996   5.443 -0.3748 -1.5005  2.3750
32034SOL    HW298110   8.388  10.989   5.430 -0.4422  0.3602 -0.4018
32035SOL     OW98111   8.925   6.051   7.485 -0.2689 -0.1710  1.0949
32035SOL    HW198112   8.927   6.082   7.575 -0.6923  0.1605  0.9940
32035SOL    HW298113   8.911   5.956   7.492 -0.3225 -0.1423  1.3719
32036SOL     OW98114   6.440   8.973   5.834 -0.7653 -0.5412 -0.2506
32036SOL    HW198115   6.510   8.908   5.828  0.1162  0.3083  0.4361
32036SOL    HW298116   6.385   8.955   5.758  0.5249 -0.8882 -1.1534
32037SOL     OW98117   8.843   5.129   3.798  0.1416 -0.0094  0.1140
32037SOL    HW198118   8.883   5.124   3.711  0.0976 -0.2018  0.1040
32037SOL    HW298119   8.902   5.186   3.848  0.9440 -1.0101  0.3662
32038SOL     OW98120   1.092   0.752   1.341  0.2557 -0.0737  0.5037
32038SOL    HW198121   1.132   0.732   1.256  2.0101  1.8275  0.8063
32038SOL    HW298122   1.085   0.847   1.342  1.7800  0.0868  3.0812
32039SOL     OW98123   0.339   7.900   4.815  0.2321  0.2996 -0.6840
32039SOL    HW198124   0.360   7.949   4.735  0.0118  0.5633 -0.5824
32039SOL    HW298125   0.313   7.968   4.878 -1.1617 -0.0298 -0.8765
32040SOL     OW98126   8.711   5.277   4.400  0.5628 -0.4696  0.7488
32040SOL    HW198127   8.738   5.264   4.492  0.4472 -0.6783  0.7558
32040SOL    HW298128   8.649   5.349   4.403 -1.5537 -2.2146  1.2391
32041SOL     OW98129  10.486   2.669   2.267  0.3487 -0.1054  0.3782
32041SOL    HW198130  10.395   2.666   2.238  0.3752 -1.5287  0.3692
32041SOL    HW298131  10.498   2.588   2.318  0.9399  1.1736  2.4310
32042SOL     OW98132   8.403   9.978   5.106  0.4114  0.2376 -0.6608
32042SOL    HW198133   8.338   9.911   5.127  0.7516  0.1310  0.0847
32042SOL    HW298134   8.357  10.061   5.116  0.7464  0.2209  1.2505
32043SOL     OW98135   1.907   4.560  10.268 -0.1834 -0.3378 -0.0766
32043SOL    HW198136   1.816   4.590  10.277  0.3331  0.9180  1.2021
32043SOL    HW298137   1.938   4.602  10.188  0.0464  1.3945  0.8700
32044SOL     OW98138   3.098   3.908   6.011  0.3221 -0.2123  0.2737
32044SOL    HW198139   3.146   3.853   6.073  0.5659 -0.3722 -0.0488
32044SOL    HW298140   3.138   3.887   5.926 -0.0381 -0.0316  0.0603
32045SOL     OW98141   5.320   6.391   4.033  0.0095 -0.3526  0.0133
32045SOL    HW198142   5.303   6.402   4.127  0.1919 -0.5987  0.0775
32045SOL    HW298143   5.280   6.307   4.011 -0.5901 -0.0071 -0.2742
32046SOL     OW98144   8.934   1.424   1.842  0.2691 -0.0006 -0.0163
32046SOL    HW198145   8.858   1.479   1.826 -1.3892 -2.4559 -1.2936
32046SOL    HW298146   8.914   1.378   1.924 -0.0490 -1.1786 -0.7161
32047SOL     OW98147   3.788   7.619   2.843  0.2335 -0.2189  0.0491
32047SOL    HW198148   3.869   7.631   2.794  0.0520  2.0515  0.1771
32047SOL    HW298149   3.809   7.647   2.932 -0.5281 -0.2022  0.2337
32048SOL     OW98150   6.516   9.787   8.488 -0.6041  0.2725  0.4895
32048SOL    HW198151   6.608   9.804   8.508 -0.1173  1.0412 -2.0233
32048SOL    HW298152   6.478   9.874   8.476 -0.7865 -0.0627 -1.8035
32049SOL     OW98153  10.205   0.067   9.693 -0.1516  0.5267 -0.2259
32049SOL    HW198154  10.289   0.029   9.719 -0.1607 -0.1480 -1.1229
32049SOL    HW298155  10.224   0.110   9.609 -0.9927 -0.9014 -1.1973
32050SOL     OW98156   1.165   0.402   3.710 -0.7344  0.0406 -0.4216
32050SOL    HW198157   1.194   0.470   3.771 -1.4328  1.1187 -1.2640
32050SOL    HW298158   1.215   0.324   3.735  1.8936  1.4496 -0.9694
32051SOL     OW98159   8.330   4.604   0.250  0.6047 -0.1879 -0.0323
32051SOL    HW198160   8.338   4.591   0.345  1.4424  0.5854  0.0206
32051SOL    HW298161   8.328   4.516   0.213 -1.6759 -0.5508  0.8251
32052SOL     OW98162   4.179   4.503   5.601  0.6661 -0.1631 -0.7174
32052SOL    HW198163   4.162   4.420   5.555  0.3780 -1.0341  0.8950
32052SOL    HW298164   4.239   4.479   5.672  0.0507  0.8858  0.1756
32053SOL     OW98165   6.558   2.196   5.093 -0.1462  0.3935 -0.0100
32053SOL    HW198166   6.471   2.174   5.061  0.1409  0.6042 -0.9784
32053SOL    HW298167   6.601   2.238   5.019  0.5822  0.8264  0.6384
32054SOL     OW98168   8.164   7.202   9.687  0.3412  0.4169  0.3610
32054SOL    HW198169   8.181   7.191   9.594 -1.6130  1.4573 -0.1750
32054SOL    HW298170   8.081   7.156   9.702 -0.0477  1.3844  1.2870
32055SOL     OW98171   8.432   5.820   6.035 -0.5087  0.8432  0.9011
32055SOL    HW198172   8.379   5.870   5.973 -1.1076  0.7487  1.3256
32055SOL    HW298173   8.453   5.882   6.105 -1.8486  0.3439  1.7829
32056SOL     OW98174   3.607   1.272   1.032 -0.1773  0.4079  0.1236
32056SOL    HW198175   3.701   1.291   1.031 -0.0045 -0.4387 -0.8931
32056SOL    HW298176   3.569   1.335   0.971 -0.3199  0.9425  0.7542
32057SOL     OW98177   8.981   0.457   3.049 -0.4335  0.6889  0.5210
32057SOL    HW198178   9.068   0.488   3.076 -0.5639  0.4488  1.2181
32057SOL    HW298179   8.957   0.516   2.977  0.5392  0.4165 -0.0451
32058SOL     OW98180   6.749   8.881   2.789 -0.3810 -0.0868 -0.8051
32058SOL    HW198181   6.788   8.967   2.803 -0.1840 -0.2631 -0.1982
32058SOL    HW298182   6.823   8.825   2.765 -0.3092 -0.3344 -0.0503
32059SOL     OW98183   6.016   7.503  10.763 -0.4565 -0.0686 -0.3919
32059SOL    HW198184   5.935   7.474  10.720 -0.0767  0.5245 -1.5722
32059SOL    HW298185   5.989   7.576  10.817 -0.8685 -0.4986 -0.0073
32060SOL     OW98186   7.334  10.017   6.589 -0.4550 -0.2544  0.0845
32060SOL    HW198187   7.308   9.934   6.548 -0.8031  0.8687 -2.1113
32060SOL    HW298188   7.255  10.046   6.635 -0.7262 -0.5495 -0.1820
32061SOL     OW98189   3.343   8.864   9.203 -0.1757 -0.0289  0.1644
32061SOL    HW198190   3.393   8.946   9.208  0.8095 -0.6862  2.9212
32061SOL    HW298191   3.277   8.872   9.272 -1.0148 -0.9970 -0.4984
32062SOL     OW98192   3.110   5.905   7.279 -0.1146  0.1570 -0.0532
32062SOL    HW198193   3.024   5.865   7.268 -1.1955  1.1437  3.5369
32062SOL    HW298194   3.093   5.999   7.282  1.1758  0.4104  0.1246
32063SOL     OW98195   8.800   4.210   8.724  0.1953  0.3984  0.1182
32063SOL    HW198196   8.758   4.260   8.654 -1.1651 -2.6588 -1.4417
32063SOL    HW298197   8.893   4.235   8.719 -0.3593  2.5149 -0.6850
32064SOL     OW98198   5.227   5.785  10.753 -0.4241  0.2269 -0.7072
32064SOL    HW198199   5.211   5.879  10.762  0.5345  0.2597  0.9765
32064SOL    HW298200   5.306   5.768  10.804 -0.1364 -1.3877 -1.5874
32065SOL     OW98201  10.007   7.045   7.392 -0.1599  0.0400 -0.0097
32065SOL    HW198202   9.933   7.100   7.366  0.1230  1.9435  2.8342
32065SOL    HW298203  10.084   7.093   7.360 -0.0246 -0.1427  0.0451
32066SOL     OW98204   9.944   3.443   3.936 -0.3577  0.7632 -0.1428
32066SOL    HW198205  10.016   3.498   3.904 -1.8577  3.1653  0.3597
32066SOL    HW298206   9.865   3.484   3.900 -1.6104 -0.6197  0.9094
32067SOL     OW98207   1.693   6.517   0.938  0.0859  0.3216 -0.3941
32067SOL    HW198208   1.764   6.459   0.966 -0.0978 -0.0785 -0.7465
32067SOL    HW298209   1.688   6.504   0.843 -0.3906  0.4222 -0.3828
32068SOL     OW98210   4.180   9.093   5.393  0.1690  0.9736  0.1955
32068SOL    HW198211   4.111   9.036   5.361  0.8372  0.1717  0.1361
32068SOL    HW298212   4.180   9.080   5.488  1.4922 -0.5639  0.0456
32069SOL     OW98213   8.984   1.879   6.600 -0.5581  0.3065 -0.6731
32069SOL    HW198214   8.943   1.793   6.605  0.8548 -0.4518 -1.4333
32069SOL    HW298215   9.056   1.875   6.664 -1.0270  1.2489 -0.0667
32070SOL     OW98216   9.589   0.024   5.093 -0.2078  0.5061  0.3133
32070SOL    HW198217   9.528   0.092   5.065  0.4488  0.2554 -1.9399
32070SOL    HW298218   9.568  -0.051   5.039  1.2221 -0.0115  0.4283
32071SOL     OW98219   6.837   9.379   4.292  0.0601  0.1800  0.5062
32071SOL    HW198220   6.754   9.406   4.253  0.3844  0.2684 -0.1163
32071SOL    HW298221   6.887   9.342   4.220  0.9108  0.9131  0.7193
32072SOL     OW98222   8.734   7.588   4.893  0.0016  0.0256  0.5861
32072SOL    HW198223   8.670   7.561   4.828 -0.3001  0.8936  0.5149
32072SOL    HW298224   8.819   7.563   4.856 -0.2144 -0.0592  0.1509
32073SOL     OW98225   0.840   7.077   9.065 -1.2431 -0.0725 -0.4739
32073SOL    HW198226   0.754   7.116   9.073 -1.0853  0.1328  0.2230
32073SOL    HW298227   0.877   7.117   8.985 -0.9934  1.4007  0.3411
32074SOL     OW98228   1.296   3.689   2.011  0.1533 -0.0773 -0.5175
32074SOL    HW198229   1.353   3.618   2.041 -0.5400 -0.2789  0.3609
32074SOL    HW298230   1.268   3.661   1.924 -0.3569 -1.0627 -0.0643
32075SOL     OW98231  11.006  10.950   8.136  0.0542  0.4119 -0.3204
32075SOL    HW198232  10.911  10.956   8.136 -0.0510 -0.7205 -1.6858
32075SOL    HW298233  11.037  11.040   8.142 -1.1035  0.8222 -0.4189
32076SOL     OW98234   2.013   0.207   9.575  0.3137 -0.0877 -0.3662
32076SOL    HW198235   1.993   0.214   9.668  0.0882  0.3544 -0.4437
32076SOL    HW298236   1.990   0.116   9.552 -0.9515  0.1903 -0.2898
32077SOL     OW98237   1.615   4.681   0.048 -0.1427 -0.1803  0.5515
32077SOL    HW198238   1.601   4.727   0.131  0.5734 -0.6378  0.9423
32077SOL    HW298239   1.619   4.589   0.073  0.4526 -0.2925  0.0645
32078SOL     OW98240   1.292   1.615   5.657  0.1120 -0.0471  0.3149
32078SOL    HW198241   1.222   1.569   5.703 -0.1242  0.4637  0.4809
32078SOL    HW298242   1.342   1.658   5.727  0.2349  0.0698  0.1553
32079SOL     OW98243   4.166   7.343   2.657 -0.1826  0.5296 -0.4144
32079SOL    HW198244   4.150   7.252   2.630 -2.2443  0.8649 -0.5296
32079SOL    HW298245   4.256   7.361   2.632 -0.1779 -1.0522 -1.6535
32080SOL     OW98246   3.087   3.569   1.467 -0.3362  0.1973 -0.3478
32080SOL    HW198247   3.107   3.660   1.485 -0.5127  0.0639  0.5499
32080SOL    HW298248   2.991   3.567   1.458 -0.4513 -0.0885  0.8080
32081SOL     OW98249   2.377   4.511   7.267  0.3995 -0.3546 -0.3849
32081SOL    HW198250   2.438   4.440   7.245  0.9826 -0.4761  1.4834
32081SOL    HW298251   2.316   4.472   7.330  1.7069  1.1635  1.9542
32082SOL     OW98252   5.129   5.708   4.011 -0.1139  0.0281 -0.2970
32082SOL    HW198253   5.174   5.651   3.949 -0.7308 -0.8942  0.0890
32082SOL    HW298254   5.197   5.733   4.074 -0.5798 -3.6369  1.9619
32083SOL     OW98255   0.065   9.251   8.629  0.5394  0.2552 -0.0159
32083SOL    HW198256   0.108   9.198   8.562  0.7769 -1.4419  1.4213
32083SOL    HW298257   0.052   9.336   8.587  0.6559 -0.7413 -2.2065
32084SOL     OW98258  10.504   3.767   7.575 -0.2276  0.4514  0.0395
32084SOL    HW198259  10.538   3.849   7.610  1.2813 -0.5178  0.9747
32084SOL    HW298260  10.522   3.772   7.481  0.7526  0.7857  0.2326
32085SOL     OW98261   7.391   3.973   7.423 -0.5961 -0.0431 -0.2196
32085SOL    HW198262   7.401   3.935   7.510 -1.2411  1.5983  0.6109
32085SOL    HW298263   7.479   3.968   7.385  0.1153  0.7619  1.2137
32086SOL     OW98264   8.704   0.179   1.644 -1.0195  0.3485  0.6211
32086SOL    HW198265   8.711   0.186   1.548 -2.6967  0.0695  0.4458
32086SOL    HW298266   8.739   0.262   1.676  1.0912 -0.1876 -0.1083
32087SOL     OW98267   7.125   4.358   9.903 -0.8299  0.2541  0.3523
32087SOL    HW198268   7.186   4.303   9.853  0.1925  2.0056 -0.4188
32087SOL    HW298269   7.099   4.303   9.977 -1.8287 -2.1722 -1.6540
32088SOL     OW98270   4.353   9.629   7.581  0.1924 -0.3161  0.5981
32088SOL    HW198271   4.297   9.616   7.504  0.8187  1.9234 -0.2961
32088SOL    HW298272   4.321   9.709   7.622  2.1690  0.5812  0.5192
32089SOL     OW98273   8.927   1.610   9.785  0.4811  0.4409  0.1111
32089SOL    HW198274   8.832   1.618   9.787  0.3975 -0.4860  0.7253
32089SOL    HW298275   8.946   1.541   9.849  1.5220  0.2503 -0.3828
32090SOL     OW98276   4.189   2.679   9.715 -0.2259 -0.4015 -0.2334
32090SOL    HW198277   4.230   2.760   9.684  2.8276 -1.1953  1.2860
32090SOL    HW298278   4.101   2.680   9.677  0.4874  2.4768 -2.1354
32091SOL     OW98279   1.271  10.860   1.235 -0.8560  0.0875 -0.2954
32091SOL    HW198280   1.196  10.889   1.287 -0.4714 -1.8868  1.4896
32091SOL    HW298281   1.288  10.771   1.266  0.8064 -0.3575 -2.2912
32092SOL     OW98282   5.261   8.209   8.640 -0.0275  0.5717  0.1060
32092SOL    HW198283   5.312   8.278   8.682  0.6936  0.5257 -0.6711
32092SOL    HW298284   5.319   8.174   8.572 -0.7509 -0.1220 -0.1700
32093SOL     OW98285   9.798  10.989   9.273 -0.0237 -0.2280 -0.5894
32093SOL    HW198286   9.775  11.082   9.279 -1.5030 -0.5166 -1.2669
32093SOL    HW298287   9.756  10.960   9.191 -0.4515 -1.7191  0.1262
32094SOL     OW98288   5.084  10.184   0.420  0.2893  0.2834 -0.3643
32094SOL    HW198289   5.030  10.147   0.350 -0.4750  1.2637 -0.3098
32094SOL    HW298290   5.132  10.255   0.377  1.8330 -0.7730 -0.4976
32095SOL     OW98291  10.241   5.234   8.250 -0.1835  0.7300 -0.1123
32095SOL    HW198292  10.197   5.155   8.218  1.1897 -0.0057 -0.2172
32095SOL    HW298293  10.183   5.267   8.319 -0.7844 -0.3537 -0.0861
32096SOL     OW98294   4.017   6.566   6.045  0.3359 -0.2697 -0.3031
32096SOL    HW198295   3.953   6.544   6.113 -0.8570  0.2864 -1.2190
32096SOL    HW298296   4.045   6.482   6.010  0.2790 -0.5208  0.2391
32097SOL     OW98297   1.347   4.277   0.940  0.2213  0.6062  0.4737
32097SOL    HW198298   1.362   4.244   0.851  2.0328  0.3868  0.8173
32097SOL    HW298299   1.367   4.202   0.997 -0.3875  0.9094  1.0996
32098SOL     OW98300   8.642   4.948   8.649 -0.6313  0.0619 -0.3107
32098SOL    HW198301   8.716   4.938   8.710 -0.1787  0.5322 -0.7736
32098SOL    HW298302   8.569   4.907   8.694 -0.1308 -0.2454  0.2429
32099SOL     OW98303   7.050   6.260   8.376  0.1787  0.2386  0.0718
32099SOL    HW198304   6.983   6.327   8.368  0.3922  0.8082  2.2908
32099SOL    HW298305   7.049   6.237   8.469  0.3276 -2.6244 -0.5392
32100SOL     OW98306   9.608   1.062  10.174  0.6417  0.1364 -0.4205
32100SOL    HW198307   9.552   1.139  10.176 -1.4592 -1.3110 -0.4184
32100SOL    HW298308   9.618   1.042  10.081 -1.1361 -1.1121 -0.3972
32101SOL     OW98309   8.120   4.858   4.571  0.0562 -0.0055 -0.2354
32101SOL    HW198310   8.065   4.851   4.650  0.2732  1.5502  0.0974
32101SOL    HW298311   8.205   4.823   4.598  0.1702  0.6410  0.2882
32102SOL     OW98312   7.568   3.787  10.294  0.5888 -0.5727 -0.2745
32102SOL    HW198313   7.482   3.786  10.337  0.1894  0.0381 -1.0375
32102SOL    HW298314   7.630   3.775  10.366 -0.0817  0.0523  0.4278
32103SOL     OW98315   2.433   8.592   1.425  0.3260 -0.0620  0.0536
32103SOL    HW198316   2.504   8.536   1.457  1.7264  1.3967 -0.3334
32103SOL    HW298317   2.468   8.681   1.433 -1.3832  0.6911 -0.4050
32104SOL     OW98318   1.850   1.905   6.612 -0.0123 -0.2853 -0.4533
32104SOL    HW198319   1.811   1.850   6.545  1.4485 -1.2544 -0.5650
32104SOL    HW298320   1.875   1.844   6.682  2.5309  0.0088 -0.9899
32105SOL     OW98321   9.166   7.847   6.451  0.5200 -0.0835  0.1432
32105SOL    HW198322   9.156   7.941   6.463 -0.1152  0.0285 -1.0833
32105SOL    HW298323   9.077   7.812   6.461  0.5610 -0.3976 -0.4819
32106SOL     OW98324   4.498   6.819   1.384  0.1062 -0.2107 -0.5824
32106SOL    HW198325   4.530   6.882   1.448 -2.2695 -0.2511  0.7753
32106SOL    HW298326   4.529   6.734   1.415 -0.3351 -0.1372  0.0707
32107SOL     OW98327   7.490   0.178   5.732  0.4685  0.8100  0.1457
32107SOL    HW198328   7.471   0.087   5.752  0.2494  1.1349  1.5649
32107SOL    HW298329   7.507   0.180   5.638 -1.6121 -0.3162 -0.2921
32108SOL     OW98330   1.874   4.065   2.482 -0.2163 -0.6065 -0.0477
32108SOL    HW198331   1.918   4.109   2.409  0.1240 -0.7501  0.0694
32108SOL    HW298332   1.784   4.054   2.453 -0.1305 -0.4752 -0.3641
32109SOL     OW98333   5.377   5.451   1.306  0.0425 -0.4871  0.3155
32109SOL    HW198334   5.325   5.498   1.372  0.1971 -1.0045  0.8147
32109SOL    HW298335   5.468   5.464   1.334  0.1351 -0.3413 -0.0484
32110SOL     OW98336   0.594   0.424   0.294  0.2983  0.7363 -0.1981
32110SOL    HW198337   0.586   0.492   0.227 -0.0740  1.9084  0.9986
32110SOL    HW298338   0.589   0.471   0.377 -0.7824 -0.8364  0.6807
32111SOL     OW98339   4.921   4.685   1.973  0.4639 -0.6341 -0.2205
32111SOL    HW198340   4.992   4.686   1.908  0.7877 -0.8850  0.1211
32111SOL    HW298341   4.915   4.775   2.004  3.1444 -1.1742  2.3924
32112SOL     OW98342   1.408   3.001  10.021 -0.0887  0.1516  0.5705
32112SOL    HW198343   1.400   2.961   9.934  1.9085  1.3742 -0.2282
32112SOL    HW298344   1.352   3.078  10.017 -0.3821 -0.0613  0.5412
32113SOL     OW98345   0.342   3.585   2.947  0.5492 -0.7017 -0.4119
32113SOL    HW198346   0.293   3.667   2.940  1.0754 -0.4107 -0.7351
32113SOL    HW298347   0.289   3.530   3.005  0.3498 -0.0194  0.0612
32114SOL     OW98348   4.376   4.847   2.360  0.1921  0.5527 -0.3402
32114SOL    HW198349   4.312   4.819   2.426  0.1799  1.7165  0.1599
32114SOL    HW298350   4.454   4.871   2.412  0.0829  1.7622 -0.7067
32115SOL     OW98351   9.397   9.045   5.479  0.5780  0.3245  0.2011
32115SOL    HW198352   9.384   9.139   5.464 -2.5621  0.3252  1.9926
32115SOL    HW298353   9.390   9.006   5.392 -0.5818  1.5834 -0.3143
32116SOL     OW98354   2.183   6.137  10.337 -0.0437  0.0059  0.5682
32116SOL    HW198355   2.209   6.188  10.260  0.2822 -1.4291 -0.2988
32116SOL    HW298356   2.159   6.203  10.402  0.0341  1.2584 -0.6318
32117SOL     OW98357   9.693   4.108   6.515 -0.8867  0.0640  0.0811
32117SOL    HW198358   9.623   4.073   6.570 -1.7039 -0.3616 -1.1608
32117SOL    HW298359   9.652   4.119   6.429  0.4947  0.1003 -0.6023
32118SOL     OW98360   9.364   8.962   5.754 -0.0709  0.0513  0.0934
32118SOL    HW198361   9.408   8.878   5.770  0.7179  0.4727  0.1854
32118SOL    HW298362   9.345   8.962   5.660  0.3006 -0.0604  0.0151
32119SOL     OW98363   9.182   5.415   3.849 -0.3986  0.1836  0.5460
32119SOL    HW198364   9.217   5.460   3.772 -0.8394  1.9670  1.3330
32119SOL    HW298365   9.250   5.353   3.873 -0.1113 -0.1779 -1.0718
32120SOL     OW98366   8.077   9.114   0.808  0.4339  0.4568  0.2269
32120SOL    HW198367   8.169   9.089   0.804 -0.0115 -1.1979 -1.4652
32120SOL    HW298368   8.030   9.031   0.814 -0.9725  1.2451  0.6465
32121SOL     OW98369   2.845   4.460   7.618  0.3157  0.3410  0.6836
32121SOL    HW198370   2.837   4.550   7.588 -2.5922 -0.5047 -1.4899
32121SOL    HW298371   2.819   4.463   7.710  0.1497  1.6776  0.6107
32122SOL     OW98372   5.678   8.408   2.508  0.6295  0.5677 -0.6134
32122SOL    HW198373   5.707   8.370   2.590  0.3987  1.2110 -0.2244
32122SOL    HW298374   5.743   8.380   2.443  0.0868 -1.0465 -0.4878
32123SOL     OW98375   9.482  10.389   5.414  0.0202  0.2996 -0.9508
32123SOL    HW198376   9.415  10.328   5.384  0.1486 -0.5769  0.4684
32123SOL    HW298377   9.486  10.376   5.509  0.0779  2.4983 -0.5934
32124SOL     OW98378  10.153   6.513   9.483  0.0509 -0.3983  0.0177
32124SOL    HW198379  10.210   6.460   9.427  0.1996 -0.9506  0.6848
32124SOL    HW298380  10.099   6.562   9.421  1.1489  0.0416 -0.6330
32125SOL     OW98381   0.339   3.022   9.126  0.4380 -0.0566 -0.9554
32125SOL    HW198382   0.339   2.942   9.178  0.9989  0.8280  0.4636
32125SOL    HW298383   0.430   3.032   9.097  0.4928  0.3492 -0.6565
32126SOL     OW98384   3.784   1.120  10.481 -0.0272  0.0988 -0.0129
32126SOL    HW198385   3.689   1.117  10.490  0.0171  1.2596  1.2898
32126SOL    HW298386   3.814   1.033  10.507 -0.8404 -1.1057 -2.8420
32127SOL     OW98387   5.389   6.109   7.949  0.0290 -0.3522 -0.6915
32127SOL    HW198388   5.472   6.108   7.901  1.1092  1.5871  0.9767
32127SOL    HW298389   5.353   6.021   7.936  1.7374 -0.8721 -2.4537
32128SOL     OW98390   1.139   5.278   1.547  0.7215 -0.0581 -0.1200
32128SOL    HW198391   1.206   5.232   1.597  0.6713 -1.4325 -1.2518
32128SOL    HW298392   1.056   5.251   1.587  0.7568  0.3220  0.2186
32129SOL     OW98393   1.557   4.952   7.997 -0.2302 -0.3294 -0.3616
32129SOL    HW198394   1.651   4.968   7.984 -0.1466 -0.7401 -0.2917
32129SOL    HW298395   1.514   5.022   7.949  0.1182  0.1015 -0.0457
32130SOL     OW98396   7.481   0.439   3.372 -0.3882  0.5599 -0.2846
32130SOL    HW198397   7.555   0.489   3.338 -1.4391  0.9247 -2.1341
32130SOL    HW298398   7.516   0.393   3.449  1.7272  0.7607 -1.0824
32131SOL     OW98399  10.990   4.700  10.304 -0.3360  0.1900 -0.4029
32131SOL    HW198400  10.953   4.669  10.386  0.9551  0.7438  0.4221
32131SOL    HW298401  10.917   4.742  10.259 -1.2345 -0.7728  0.1147
32132SOL     OW98402   4.306  10.185   8.188 -0.0982  0.2549 -0.2237
32132SOL    HW198403   4.320  10.272   8.225 -0.6349  0.2046  0.1068
32132SOL    HW298404   4.394  10.153   8.167  0.1457  0.6246  0.2248
32133SOL     OW98405   1.595   5.170   6.551  0.3546 -0.0038  0.3977
32133SOL    HW198406   1.585   5.214   6.466  0.6062 -0.3783  0.1689
32133SOL    HW298407   1.555   5.084   6.538  1.4116 -0.4936  0.2958
32134SOL     OW98408   6.973  10.267   1.534 -0.0840 -0.3039 -0.4167
32134SOL    HW198409   7.048  10.302   1.487 -1.2259  0.2949 -1.8692
32134SOL    HW298410   6.975  10.173   1.515  0.1161 -0.2450 -0.6937
32135SOL     OW98411   4.846   6.447   4.341  0.2670  0.0626 -0.1891
32135SOL    HW198412   4.771   6.488   4.298 -0.2049 -0.1673  0.4057
32135SOL    HW298413   4.831   6.459   4.434  1.1199  0.2660 -0.0648
32136SOL     OW98414   3.723   8.888   4.647  0.0900 -0.3381  0.1162
32136SOL    HW198415   3.710   8.799   4.613 -0.1649  0.1394 -1.0890
32136SOL    HW298416   3.644   8.906   4.696 -0.3871 -0.3480 -0.6327
32137SOL     OW98417   6.998   8.109   0.733  0.2425 -0.1215  0.1119
32137SOL    HW198418   7.034   8.022   0.748  0.7296 -0.0931 -0.8136
32137SOL    HW298419   6.950   8.101   0.651 -3.0594 -0.5033  1.9048
32138SOL     OW98420   6.147   3.592   8.759 -0.1409  0.1446  0.2300
32138SOL    HW198421   6.208   3.658   8.725  0.8288 -1.1034 -0.5693
32138SOL    HW298422   6.130   3.619   8.849 -0.4790  1.9604 -0.3331
32139SOL     OW98423   6.667   9.606   7.089 -0.2973  0.2839 -0.2664
32139SOL    HW198424   6.698   9.667   7.156 -0.3036  0.1317 -0.1236
32139SOL    HW298425   6.587   9.646   7.056 -1.0525 -0.3076  0.7827
32140SOL     OW98426   8.279   4.061  10.056  0.3805  0.0974 -0.6878
32140SOL    HW198427   8.244   4.116   9.986 -1.5201 -0.6679 -0.4123
32140SOL    HW298428   8.350   4.113  10.095 -0.2221  1.6121 -1.5275
32141SOL     OW98429   3.372   1.149  10.395  0.2430 -0.1451 -0.5155
32141SOL    HW198430   3.330   1.235  10.406 -1.9499 -1.3960  1.8481
32141SOL    HW298431   3.446   1.150  10.456 -0.0584 -0.0783 -0.1463
32142SOL     OW98432   8.180   6.184   8.995  0.4675  0.0256 -0.3226
32142SOL    HW198433   8.213   6.273   9.008  1.7381 -0.0474 -2.5801
32142SOL    HW298434   8.237   6.129   9.049  2.5713  0.1834 -2.2432
32143SOL     OW98435   1.837   3.733   0.164 -0.1004  0.0293  0.0774
32143SOL    HW198436   1.931   3.719   0.177 -0.3452 -3.2105 -0.7922
32143SOL    HW298437   1.797   3.712   0.248 -0.1577 -0.5575 -0.0891
32144SOL     OW98438   6.693   5.834   5.629 -0.8625  0.0096 -0.4724
32144SOL    HW198439   6.697   5.779   5.707  1.6684  0.4144 -0.2123
32144SOL    HW298440   6.690   5.923   5.663  0.0238  0.1799 -0.8215
32145SOL     OW98441   8.655   5.864   1.811 -0.2072 -0.1664  0.0856
32145SOL    HW198442   8.730   5.915   1.841  0.9221 -2.3843  1.2848
32145SOL    HW298443   8.692   5.804   1.746 -0.8614 -1.4827  0.9008
32146SOL     OW98444   3.831   0.088   4.996 -0.2012  0.6519  0.3926
32146SOL    HW198445   3.817   0.003   4.954 -2.0603  0.7416  0.7293
32146SOL    HW298446   3.855   0.067   5.086 -2.7696  0.3839  1.1145
32147SOL     OW98447  10.711   5.734   1.439 -0.8404  0.7739  0.0674
32147SOL    HW198448  10.735   5.824   1.457  0.3708  0.4800  0.0215
32147SOL    HW298449  10.779   5.702   1.379 -1.9954  0.2341 -1.0304
32148SOL     OW98450   4.705   1.646   8.545  0.0733  0.1080 -0.4172
32148SOL    HW198451   4.629   1.620   8.492 -1.2453  1.1660  0.8818
32148SOL    HW298452   4.780   1.628   8.489 -1.0704 -1.6187 -1.5030
32149SOL     OW98453   1.314   0.824   8.315  0.0586  0.6275 -0.0075
32149SOL    HW198454   1.229   0.824   8.358 -0.7086  0.4445 -1.4782
32149SOL    HW298455   1.376   0.801   8.385 -1.3213 -1.2949  0.6635
32150SOL     OW98456   4.427   7.906   7.772 -0.1786 -0.0599  0.2634
32150SOL    HW198457   4.474   7.837   7.819  1.0667 -0.7040 -1.7919
32150SOL    HW298458   4.434   7.983   7.829 -0.2310 -1.2113  1.8819
32151SOL     OW98459   7.519   4.882   4.948 -0.0083 -0.8395  0.7285
32151SOL    HW198460   7.587   4.828   4.987 -0.5031 -2.4607 -0.5284
32151SOL    HW298461   7.438   4.832   4.961 -0.2883 -1.1545 -1.6695
32152SOL     OW98462   2.282   5.528   8.760 -0.2038 -0.2591 -0.0336
32152SOL    HW198463   2.331   5.502   8.838  0.9633 -0.4379 -0.8093
32152SOL    HW298464   2.260   5.446   8.717 -0.3958 -0.1403 -0.1624
32153SOL     OW98465   1.794   4.145   9.381  0.5887 -0.4974 -0.5979
32153SOL    HW198466   1.801   4.063   9.431 -2.3999 -0.0353  0.8043
32153SOL    HW298467   1.881   4.158   9.344  1.6512 -3.3782  0.5905
32154SOL     OW98468   9.515   8.581   6.536  0.1402 -0.3573  0.2918
32154SOL    HW198469   9.448   8.523   6.501 -0.8741  0.6136  0.5670
32154SOL    HW298470   9.549   8.627   6.459  0.1095 -0.4762  0.2077
32155SOL     OW98471   4.102   4.952   6.583 -0.6435  0.6260 -0.1219
32155SOL    HW198472   4.160   4.901   6.639 -0.0873  0.9560 -0.3857
32155SOL    HW298473   4.104   4.906   6.499 -1.0070  0.4664 -0.0428
32156SOL     OW98474   5.810   2.202   8.858 -0.3957  0.3256  0.8210
32156SOL    HW198475   5.769   2.267   8.914  1.3155  2.7251 -0.5272
32156SOL    HW298476   5.904   2.219   8.866 -0.0044 -0.4700 -1.3149
32157SOL     OW98477   8.683   9.479   2.527 -0.0629 -0.2723 -0.6100
32157SOL    HW198478   8.630   9.410   2.488  1.5259 -1.1207 -1.3638
32157SOL    HW298479   8.625   9.555   2.530 -0.9840 -0.8492 -2.4350
32158SOL     OW98480   7.133  10.306   0.351  0.0100  0.5362 -0.2288
32158SOL    HW198481   7.139  10.318   0.446  0.0139 -1.4059  0.0368
32158SOL    HW298482   7.117  10.213   0.339  1.1407  0.5518 -2.1952
32159SOL     OW98483   7.079   6.474   7.556 -0.4577  0.1505  0.2634
32159SOL    HW198484   7.012   6.412   7.527  0.0486 -0.3461  0.1366
32159SOL    HW298485   7.160   6.423   7.558  0.0442  0.8961 -0.2146
32160SOL     OW98486   1.067   4.250   4.069  0.0244 -0.4212  0.1167
32160SOL    HW198487   1.051   4.222   4.159 -0.6985  0.4012  0.2538
32160SOL    HW298488   1.004   4.200   4.017 -0.2950 -0.1047  0.1966
32161SOL     OW98489   3.077   7.524   5.378  0.2098 -0.6788 -0.1436
32161SOL    HW198490   3.092   7.463   5.451  3.4867 -2.1799 -1.8494
32161SOL    HW298491   3.125   7.604   5.404  0.8523 -0.9872 -0.3615
32162SOL     OW98492   4.806   5.566   8.982  1.2047 -0.1277  0.0985
32162SOL    HW198493   4.784   5.656   8.957  0.7749 -0.6856 -1.6371
32162SOL    HW298494   4.834   5.524   8.901 -0.2009 -2.0307  0.5369
32163SOL     OW98495   2.921  10.009   7.524  0.0185  0.0817 -0.3609
32163SOL    HW198496   2.832  10.026   7.492 -0.8599 -0.5048  1.5813
32163SOL    HW298497   2.956   9.943   7.465 -2.0362 -1.9861  0.5508
32164SOL     OW98498   8.306   0.547   1.311 -0.2045 -0.2353  0.5462
32164SOL    HW198499   8.380   0.558   1.371 -0.1704  0.4674  0.3762
32164SOL    HW298500   8.292   0.634   1.274 -0.2775 -0.6493 -0.4095
32165SOL     OW98501   3.394   2.658   6.163  0.4484 -0.0623  0.4196
32165SOL    HW198502   3.402   2.753   6.158  4.0809 -0.2421 -0.2063
32165SOL    HW298503   3.331   2.636   6.095 -0.2579  1.8662  0.3829
32166SOL     OW98504   0.204   7.922   9.632 -0.5661  0.0623 -0.3105
32166SOL    HW198505   0.114   7.896   9.610 -1.4039  0.7273  2.0447
32166SOL    HW298506   0.212   8.010   9.597 -0.2555 -0.5445 -1.8628
32167SOL     OW98507   1.627   3.962   0.914  0.4042  0.4639 -0.2521
32167SOL    HW198508   1.699   3.954   0.975  1.0601  1.6441 -0.8498
32167SOL    HW298509   1.568   3.890   0.938  1.3021  0.0594  0.8481
32168SOL     OW98510   2.102   4.989   4.213  0.3234 -0.1113 -0.0592
32168SOL    HW198511   2.127   4.927   4.282 -1.1686  0.3713  0.9757
32168SOL    HW298512   2.048   5.054   4.258 -0.8563  0.1230 -1.7382
32169SOL     OW98513   0.631   8.176   3.820 -0.6932  0.4672 -0.0456
32169SOL    HW198514   0.614   8.150   3.911 -0.3687 -1.1947 -0.4168
32169SOL    HW298515   0.666   8.264   3.826  1.3136 -0.3694  1.6560
32170SOL     OW98516   3.455   0.291  10.524  0.9851 -0.6441  0.1591
32170SOL    HW198517   3.519   0.275  10.592  0.4509 -1.2350  0.5344
32170SOL    HW298518   3.492   0.362  10.472  1.1115  0.2689  1.4468
32171SOL     OW98519   1.588   7.780   2.655 -0.2485 -0.0362  0.0008
32171SOL    HW198520   1.631   7.865   2.645 -1.0185  0.1177 -3.0393
32171SOL    HW298521   1.515   7.783   2.593 -0.1294 -3.0188 -0.4285
32172SOL     OW98522   5.910   1.467   5.980  0.0404  0.5939 -0.7051
32172SOL    HW198523   5.837   1.527   5.966 -0.2765  0.7168  1.1350
32172SOL    HW298524   5.923   1.467   6.075  1.9304 -0.0368 -0.9137
32173SOL     OW98525   8.077   4.854   9.678 -0.0347  0.7111  0.1563
32173SOL    HW198526   8.118   4.769   9.695 -0.9286 -0.0289 -1.1445
32173SOL    HW298527   8.141   4.918   9.708  0.5819 -0.4177  1.3387
32174SOL     OW98528   7.813   1.286   4.282 -0.0491  0.2006 -0.3980
32174SOL    HW198529   7.863   1.284   4.200  0.3316  0.3422 -0.1712
32174SOL    HW298530   7.728   1.249   4.259 -1.0737  2.9826 -1.6120
32175SOL     OW98531   1.817   2.105   4.015  0.2816 -0.5012  0.1840
32175SOL    HW198532   1.755   2.040   4.047  0.8572 -0.5613  1.2089
32175SOL    HW298533   1.766   2.160   3.955 -0.0473 -2.3417 -1.3442
32176SOL     OW98534   3.232   5.645   5.488  1.2524  0.7917  0.1136
32176SOL    HW198535   3.151   5.628   5.535 -0.1644  0.7280 -2.1955
32176SOL    HW298536   3.286   5.694   5.550 -0.0859 -0.1269  2.0915
32177SOL     OW98537   5.578   6.239   4.813 -0.4636 -0.1910 -0.0010
32177SOL    HW198538   5.585   6.268   4.904 -0.4811 -0.4817  0.0932
32177SOL    HW298539   5.665   6.253   4.776 -0.1141 -1.2295  0.4043
32178SOL     OW98540   8.925   1.682   7.606  0.0955 -0.4465 -0.8332
32178SOL    HW198541   8.999   1.623   7.588  1.0271  0.0795  1.0094
32178SOL    HW298542   8.925   1.743   7.533  2.2898  0.2679 -0.3276
32179SOL     OW98543   9.586  10.627   5.543  0.0210  0.8137 -0.6240
32179SOL    HW198544   9.496  10.624   5.575  0.3583 -0.8658  0.2658
32179SOL    HW298545   9.589  10.559   5.476  0.7049  0.6472 -0.4286
32180SOL     OW98546   8.188   2.789   8.579 -0.4126 -0.3149 -0.4052
32180SOL    HW198547   8.244   2.836   8.640 -1.2623  0.4296 -0.1871
32180SOL    HW298548   8.142   2.724   8.633  0.1837 -0.8926 -0.5761
32181SOL     OW98549   7.057   7.033   1.158  0.2620  0.1547 -0.2696
32181SOL    HW198550   7.080   6.963   1.096  0.2704 -0.4445  0.3918
32181SOL    HW298551   7.140   7.066   1.190  0.2464 -0.1112  0.0475
32182SOL     OW98552   0.732   2.414  10.357  0.0285 -0.0421 -0.1993
32182SOL    HW198553   0.758   2.469  10.283  0.9295  0.0856  0.2011
32182SOL    HW298554   0.673   2.469  10.408  2.1548  1.2050  1.0591
32183SOL     OW98555   2.794  10.666  10.926 -0.0371  0.1343 -0.3138
32183SOL    HW198556   2.813  10.759  10.940 -0.7314  0.0316  1.6306
32183SOL    HW298557   2.874  10.621  10.955 -1.1180 -0.0194  2.9015
32184SOL     OW98558   0.590   5.000   3.505 -0.1512  0.0544 -0.0887
32184SOL    HW198559   0.679   4.972   3.524 -0.6861 -0.3777  1.9437
32184SOL    HW298560   0.599   5.091   3.475  0.8481  0.5661  1.6455
32185SOL     OW98561   0.089   4.820   1.997 -0.0809 -0.7770  0.0509
32185SOL    HW198562   0.004   4.863   1.983  0.5970  0.2804 -1.0073
32185SOL    HW298563   0.070   4.727   1.987 -0.7468 -0.4444 -2.4749
32186SOL     OW98564   7.847   2.481   7.776  0.2759 -0.2820  0.2498
32186SOL    HW198565   7.895   2.434   7.845  0.6705 -1.6955 -0.9374
32186SOL    HW298566   7.815   2.560   7.819  1.1349 -0.7625  1.8615
32187SOL     OW98567   1.392   5.424   2.356 -0.0402 -0.6217  0.1694
32187SOL    HW198568   1.455   5.413   2.284 -0.5572 -0.0111 -0.3915
32187SOL    HW298569   1.347   5.340   2.360 -0.8819 -0.2602 -1.0929
32188SOL     OW98570   1.927   9.973   7.230  0.0827 -0.0567 -0.2436
32188SOL    HW198571   1.870   9.913   7.279 -0.6365  0.0579 -0.9189
32188SOL    HW298572   1.880  10.056   7.229  0.0255 -0.0823 -1.2091
32189SOL     OW98573   3.028  10.517   2.104 -0.0918  0.5526 -0.3147
32189SOL    HW198574   3.007  10.424   2.104 -3.5783  1.1329 -3.0408
32189SOL    HW298575   2.977  10.554   2.175  0.5819  0.5283  0.1895
32190SOL     OW98576   6.391   4.985   2.159  0.0186  0.1843 -0.5024
32190SOL    HW198577   6.425   4.898   2.140  1.5996  0.1665  1.9685
32190SOL    HW298578   6.444   5.044   2.105  1.5676 -0.1463  0.5818
32191SOL     OW98579   6.550  10.392   1.807 -0.1069 -0.5936 -0.5016
32191SOL    HW198580   6.605  10.462   1.843  0.2030 -0.6075 -0.9479
32191SOL    HW298581   6.531  10.336   1.883  0.1630 -0.3726 -0.2681
32192SOL     OW98582   1.942  10.287  10.130 -0.0191  0.2787  0.2322
32192SOL    HW198583   1.902  10.354  10.186  1.0045  1.0192  0.1184
32192SOL    HW298584   1.976  10.337  10.055  0.8946 -0.3397  0.2187
32193SOL     OW98585   0.579   9.746   1.826 -0.2892  0.0469 -0.4494
32193SOL    HW198586   0.549   9.835   1.847 -0.0060 -0.0411  0.3796
32193SOL    HW298587   0.517   9.715   1.760 -0.4683  0.8135 -0.6520
32194SOL     OW98588   5.732  10.247   1.916 -0.3990 -0.0001  0.0158
32194SOL    HW198589   5.805  10.277   1.863  0.2333 -2.3895 -0.5548
32194SOL    HW298590   5.662  10.229   1.853 -0.4490 -0.5749  0.2275
32195SOL     OW98591   7.501   6.573   8.183 -0.3319  1.5171 -0.1866
32195SOL    HW198592   7.574   6.586   8.242  1.5553 -1.2544 -1.6797
32195SOL    HW298593   7.540   6.573   8.095 -1.5037 -2.4257 -0.9467
32196SOL     OW98594   6.712   4.804   2.222  0.0475  0.3210  0.1336
32196SOL    HW198595   6.743   4.731   2.168  1.0517  0.9010 -0.1044
32196SOL    HW298596   6.784   4.867   2.220 -0.2941  0.7763  1.3604
32197SOL     OW98597   5.358   6.771   2.782 -0.3465  0.1470 -0.4400
32197SOL    HW198598   5.382   6.816   2.863  0.5093 -1.2538  0.1261
32197SOL    HW298599   5.279   6.816   2.752  0.2348  1.7315  0.2907
32198SOL     OW98600  10.013   6.401   4.720  0.4033 -0.5044 -0.0358
32198SOL    HW198601  10.022   6.320   4.769  1.2045  0.1017  0.8363
32198SOL    HW298602  10.061   6.466   4.770 -0.7915  0.6812 -0.3510
32199SOL     OW98603   6.516  10.608   8.766 -0.7723  0.1536 -0.1193
32199SOL    HW198604   6.514  10.579   8.675 -1.7989 -0.7879  0.1797
32199SOL    HW298605   6.608  10.602   8.791 -0.4430  0.6394 -1.1481
32200SOL     OW98606  10.833   0.016   3.617  0.4424 -0.3005  0.5499
32200SOL    HW198607  10.856  -0.037   3.541  0.7107  1.6150 -0.7880
32200SOL    HW298608  10.755   0.065   3.589  0.7773  0.7203  1.3465
32201SOL     OW98609  10.003   9.552   0.907 -0.6072  0.6481 -0.3770
32201SOL    HW198610   9.959   9.494   0.844 -1.0114  0.3250  0.1969
32201SOL    HW298611  10.048   9.616   0.852  1.6228 -1.4030 -1.1610
32202SOL     OW98612   0.503   1.511   9.167 -0.3667 -0.0383  0.5113
32202SOL    HW198613   0.560   1.478   9.237 -1.9397 -0.2089  1.7673
32202SOL    HW298614   0.550   1.490   9.086  1.1227 -0.5799  1.4708
32203SOL     OW98615   0.389   7.046   9.071 -0.0083  0.4816 -0.4671
32203SOL    HW198616   0.386   6.965   9.020  0.8990  1.6345 -2.4788
32203SOL    HW298617   0.423   7.020   9.156 -0.5291 -1.3695 -0.7860
32204SOL     OW98618   2.068   6.687   7.548  0.0743 -0.2729 -0.7127
32204SOL    HW198619   2.141   6.707   7.490 -0.2807 -1.7035 -1.7245
32204SOL    HW298620   2.007   6.638   7.493 -0.6440 -0.9884  0.6709
32205SOL     OW98621   3.487   8.857   6.764 -0.0667  0.7674  0.4712
32205SOL    HW198622   3.458   8.777   6.721 -1.0717  1.2262  0.2649
32205SOL    HW298623   3.578   8.840   6.789 -0.0527 -0.1697 -0.1941
32206SOL     OW98624   0.471   6.322  10.123 -0.5851  0.6250 -0.7710
32206SOL    HW198625   0.447   6.382  10.194 -0.6530  2.0310 -1.9286
32206SOL    HW298626   0.556   6.355  10.093 -1.1039  0.8010 -2.1028
32207SOL     OW98627   4.997   9.130   0.018 -0.3736  0.4861 -0.6889
32207SOL    HW198628   5.038   9.196  -0.038 -0.1415 -0.0325 -1.1383
32207SOL    HW298629   4.932   9.179   0.069  1.3337  1.4873  0.6257
32208SOL     OW98630  10.058   0.401   2.261 -0.0510  0.0103 -0.0712
32208SOL    HW198631  10.088   0.486   2.295  0.9336  0.8260 -2.7069
32208SOL    HW298632  10.136   0.346   2.264 -0.2990 -0.3246  0.2091
32209SOL     OW98633   8.486   7.585   8.794 -0.4128 -0.5257 -0.6422
32209SOL    HW198634   8.547   7.658   8.800  0.2191 -0.9121 -1.8317
32209SOL    HW298635   8.517   7.535   8.718 -2.0305 -0.9045 -1.0912
32210SOL     OW98636   1.867   4.997   8.613  0.2819 -0.1701  0.0121
32210SOL    HW198637   1.816   5.055   8.669 -1.2199 -1.5073  0.1036
32210SOL    HW298638   1.913   4.939   8.673  1.6345  0.7685 -0.0820
32211SOL     OW98639  10.209   6.983   1.627 -0.4758 -0.3258  0.0243
32211SOL    HW198640  10.175   7.063   1.667  0.3654 -0.0068  0.1072
32211SOL    HW298641  10.272   6.950   1.691 -1.4728 -1.5598  0.4154
32212SOL     OW98642   0.636   2.870   1.147  0.5368  0.3019 -0.2269
32212SOL    HW198643   0.544   2.849   1.134  0.6815 -0.1899 -0.4665
32212SOL    HW298644   0.640   2.909   1.234  0.4113 -1.6170  0.6733
32213SOL     OW98645   2.588   9.065   5.131 -0.2462 -0.0559 -0.4270
32213SOL    HW198646   2.653   8.997   5.111 -0.0898 -0.8518  2.3191
32213SOL    HW298647   2.507   9.032   5.093  0.2403 -0.8063 -0.8512
32214SOL     OW98648   1.397   4.045   1.608  0.5637  0.3668 -0.4689
32214SOL    HW198649   1.455   4.025   1.681 -0.3004 -2.9665 -0.5491
32214SOL    HW298650   1.453   4.045   1.531  0.7738 -0.9709 -0.3303
32215SOL     OW98651   7.122   9.934   1.760  0.0742  0.4125  0.8198
32215SOL    HW198652   7.209   9.945   1.798  0.5552 -1.6827  0.4991
32215SOL    HW298653   7.072   9.887   1.827 -1.3216  2.7832  1.5647
32216SOL     OW98654  10.900   5.137   9.452 -0.0361  0.1343  0.5960
32216SOL    HW198655  10.845   5.214   9.440  0.2456  0.1631 -0.6244
32216SOL    HW298656  10.937   5.148   9.540  0.7995  1.9265  0.0811
32217SOL     OW98657   7.755   5.225   1.278 -0.1137  0.4501 -0.1124
32217SOL    HW198658   7.838   5.219   1.325 -1.0859  1.5856  1.8661
32217SOL    HW298659   7.724   5.314   1.293 -1.5775  0.1391 -1.0178
32218SOL     OW98660   2.761   2.886   7.333  0.4163 -0.8542  0.1826
32218SOL    HW198661   2.783   2.865   7.242  2.5271 -0.5374  0.5690
32218SOL    HW298662   2.777   2.805   7.381  0.1323 -0.7862  0.3924
32219SOL     OW98663   2.957   8.779   3.616 -0.1936  0.1054 -0.0557
32219SOL    HW198664   2.891   8.749   3.554 -0.0378 -0.7650  0.1974
32219SOL    HW298665   3.038   8.785   3.566  0.5335 -3.0128  0.5442
32220SOL     OW98666   5.919   8.718   4.067 -0.1953  0.2529  0.4808
32220SOL    HW198667   5.882   8.805   4.053  0.5536  0.4630 -0.2842
32220SOL    HW298668   5.906   8.673   3.984  2.3147  0.7526 -0.2772
32221SOL     OW98669   6.983   4.850   2.408  0.3933  0.8506  0.1058
32221SOL    HW198670   6.960   4.912   2.339 -0.4278 -1.3468 -1.7301
32221SOL    HW298671   6.993   4.766   2.362  1.6685 -0.3585  2.4151
32222SOL     OW98672   7.988   6.238   8.249 -0.3442 -0.3001  0.5847
32222SOL    HW198673   7.932   6.317   8.250  0.9482  0.6718 -0.6072
32222SOL    HW298674   7.974   6.198   8.335 -1.5806  0.8378  0.9456
32223SOL     OW98675   5.139   2.193  10.725 -0.0086 -0.5821  0.2028
32223SOL    HW198676   5.219   2.245  10.714 -0.9681  0.9330  0.2058
32223SOL    HW298677   5.150   2.151  10.811  0.8924 -0.6022  0.0864
32224SOL     OW98678   3.685  10.149   0.572 -0.4280 -0.1205 -0.0825
32224SOL    HW198679   3.717  10.239   0.575 -1.0021  0.1734 -1.8005
32224SOL    HW298680   3.612  10.147   0.634 -1.0082  0.8500 -0.7114
32225SOL     OW98681   3.131   1.619  10.364 -0.0330 -0.2165 -0.6357
32225SOL    HW198682   3.147   1.597  10.273 -0.5004  0.6658 -0.9350
32225SOL    HW298683   3.148   1.713  10.370 -1.4533  0.0376 -0.1586
32226SOL     OW98684   7.096   3.969   5.606  0.2007 -0.1490  0.1752
32226SOL    HW198685   7.156   3.907   5.564  0.2710 -0.5954  0.9170
32226SOL    HW298686   7.152   4.043   5.631  0.4309 -0.5275  0.7900
32227SOL     OW98687   3.093   7.305   5.550 -0.2672  0.0006 -0.1595
32227SOL    HW198688   3.014   7.251   5.547 -1.2797  1.4449 -2.0337
32227SOL    HW298689   3.164   7.243   5.566 -1.4959 -1.7159 -1.0281
32228SOL     OW98690   7.668   9.454   7.606 -0.5746 -0.6382  0.0271
32228SOL    HW198691   7.701   9.448   7.517 -0.4188 -1.0282  0.1115
32228SOL    HW298692   7.577   9.424   7.601 -1.3205  1.4979 -0.4150
32229SOL     OW98693   7.909   1.468   1.254 -0.4970 -0.2210 -0.2949
32229SOL    HW198694   7.997   1.498   1.230 -0.4563 -0.0652  0.0415
32229SOL    HW298695   7.858   1.479   1.174 -0.3460  0.2278 -0.3340
32230SOL     OW98696   4.317   9.039   7.248  0.2162  0.5489  0.1410
32230SOL    HW198697   4.282   9.036   7.159  2.8433 -0.6784 -0.9722
32230SOL    HW298698   4.250   8.996   7.301 -1.3034  1.0710 -1.2770
32231SOL     OW98699   1.505   6.717   0.556 -0.1778  0.3177  0.1470
32231SOL    HW198700   1.465   6.761   0.481 -3.3786  0.8487  2.0161
32231SOL    HW298701   1.480   6.770   0.631  0.0801 -1.9719  1.9677
32232SOL     OW98702   2.188  10.752   8.265  0.2606  0.1596 -0.4560
32232SOL    HW198703   2.202  10.815   8.336 -1.6073 -1.0808  1.1209
32232SOL    HW298704   2.258  10.771   8.202  1.0419  2.3571  0.9484
32233SOL     OW98705   3.101   4.254   0.436  0.2348 -0.0316 -0.1962
32233SOL    HW198706   3.099   4.281   0.528 -1.4203  0.3715 -0.3187
32233SOL    HW298707   3.152   4.173   0.437  1.5599  0.7717  0.8277
32234SOL     OW98708   4.071   3.933   5.559  0.2038  0.2234 -0.2047
32234SOL    HW198709   4.124   4.000   5.603 -0.1456  0.9726 -0.8869
32234SOL    HW298710   3.992   3.926   5.612 -0.2854  1.2347 -0.7716
32235SOL     OW98711   7.937   8.077   7.960 -0.0674  0.2928  0.1118
32235SOL    HW198712   7.882   8.048   7.887 -0.9691  0.9615  0.5117
32235SOL    HW298713   7.943   8.000   8.017 -1.0946  0.3649  0.3515
32236SOL     OW98714   5.544   6.259   7.396  0.2909 -0.4595  0.7483
32236SOL    HW198715   5.546   6.220   7.309  2.5141  0.6006  0.2545
32236SOL    HW298716   5.481   6.331   7.388  0.6979 -0.1815 -0.0913
32237SOL     OW98717   3.559   3.870   4.533  0.1834 -0.0277 -0.0915
32237SOL    HW198718   3.464   3.866   4.551 -0.1938  2.2642 -1.2685
32237SOL    HW298719   3.581   3.782   4.502 -1.8198 -0.2759 -0.9531
32238SOL     OW98720   5.115   6.325   1.949  0.1513 -0.0563  0.3115
32238SOL    HW198721   5.152   6.382   2.017 -0.0198  0.3023  0.1051
32238SOL    HW298722   5.134   6.236   1.980 -1.0789  0.0652  1.5026
32239SOL     OW98723   4.468   4.187   8.941  0.2262 -0.4411 -0.5338
32239SOL    HW198724   4.387   4.137   8.933 -1.0123  1.5875 -1.5723
32239SOL    HW298725   4.528   4.146   8.879 -0.8115 -0.5551 -1.5060
32240SOL     OW98726   0.898   5.262   8.859  0.1500 -0.3091 -0.8514
32240SOL    HW198727   0.825   5.212   8.822 -0.0782 -0.0407 -0.7636
32240SOL    HW298728   0.968   5.198   8.868 -0.4352 -0.8314  0.1496
32241SOL     OW98729   5.778   0.423   0.187  0.7927  0.3443 -0.2286
32241SOL    HW198730   5.854   0.451   0.239 -0.8536  2.6398  1.1465
32241SOL    HW298731   5.715   0.390   0.251 -0.6644  1.6924 -0.8886
32242SOL     OW98732   4.157   5.284   0.001  0.5363  0.3892 -0.1341
32242SOL    HW198733   4.074   5.256  -0.037  0.2525  2.0086 -0.7746
32242SOL    HW298734   4.218   5.213  -0.020 -0.7077 -0.9658  0.5945
32243SOL     OW98735  10.461   7.851   0.146 -0.2250  0.3113 -0.2601
32243SOL    HW198736  10.390   7.809   0.099 -0.0630 -1.0384  0.6391
32243SOL    HW298737  10.422   7.930   0.183 -0.5319  1.0146 -1.9948
32244SOL     OW98738   5.517  10.818  10.825 -0.3688 -0.0203  0.2034
32244SOL    HW198739   5.611  10.805  10.838  0.0792  2.5163  0.0565
32244SOL    HW298740   5.509  10.846  10.733 -1.0022  1.5201  0.6960
32245SOL     OW98741   8.167   5.993   5.572  0.3013  0.2840 -0.0322
32245SOL    HW198742   8.177   6.079   5.531 -1.4429 -0.3135 -1.8249
32245SOL    HW298743   8.244   5.944   5.543  0.1482  0.5378 -0.8915
32246SOL     OW98744   0.047   2.342   3.980 -0.3490  0.6018  0.0904
32246SOL    HW198745   0.106   2.398   4.030 -1.1679  2.2265 -0.6970
32246SOL    HW298746   0.039   2.386   3.895 -1.2507 -0.5736 -0.4619
32247SOL     OW98747   7.162   7.059   8.675  0.1416 -0.3036  0.6836
32247SOL    HW198748   7.115   7.143   8.674  3.8955  2.0339  0.7126
32247SOL    HW298749   7.223   7.067   8.748  0.0766 -3.4890  1.1996
32248SOL     OW98750   1.903   0.439   1.641  0.7169 -0.2155 -0.1979
32248SOL    HW198751   1.880   0.373   1.576  1.1483  0.9718 -1.6301
32248SOL    HW298752   1.822   0.488   1.656  0.3168 -1.2057  1.0985
32249SOL     OW98753   0.688   8.519   5.540  0.2223 -0.1153  0.4456
32249SOL    HW198754   0.658   8.428   5.530 -0.9262  0.3678 -0.8401
32249SOL    HW298755   0.616   8.563   5.584 -0.1119  0.6087 -0.7922
32250SOL     OW98756   1.662   6.615   4.381  0.2422  0.5407  0.5793
32250SOL    HW198757   1.683   6.705   4.404  0.0941  0.9456 -0.7475
32250SOL    HW298758   1.742   6.566   4.398  0.5967  1.0890  0.5000
32251SOL     OW98759   7.287   2.376   9.993 -0.0252 -0.2816 -0.0900
32251SOL    HW198760   7.328   2.300  10.034  0.6983 -0.1039 -0.4706
32251SOL    HW298761   7.325   2.380   9.905  0.5382  0.9499  0.1778
32252SOL     OW98762   9.934   5.606   9.694  0.4259 -0.0042 -0.0797
32252SOL    HW198763   9.859   5.643   9.741  0.9230 -0.9593  1.5541
32252SOL    HW298764   9.902   5.521   9.662  0.1531  0.5527 -1.3621
32253SOL     OW98765   5.552   6.903   5.471  0.5152  0.2303 -0.0236
32253SOL    HW198766   5.595   6.878   5.389  0.5756  0.6382 -0.1160
32253SOL    HW298767   5.459   6.895   5.452  0.3302  3.8415 -1.3251
32254SOL     OW98768   1.753   6.536   1.267  0.0546 -0.5668 -0.7824
32254SOL    HW198769   1.664   6.505   1.252 -0.5923  2.2105 -3.6182
32254SOL    HW298770   1.746   6.593   1.343 -0.5001 -0.6624 -0.7578
32255SOL     OW98771   0.476   0.116  10.626  0.0597 -0.0520 -0.6493
32255SOL    HW198772   0.496   0.144  10.715 -2.8999 -1.4250  0.5715
32255SOL    HW298773   0.488   0.021  10.627 -0.2089 -0.1122 -1.6472
32256SOL     OW98774   6.766   0.891   6.801  0.5559 -0.8674 -0.0030
32256SOL    HW198775   6.686   0.942   6.786  1.2375  0.2857  0.1510
32256SOL    HW298776   6.781   0.846   6.718 -0.2281 -1.0665 -0.0480
32257SOL     OW98777   2.384   1.129   3.912  0.0568  0.1289  0.2390
32257SOL    HW198778   2.310   1.182   3.884 -0.4240 -1.0729 -0.8528
32257SOL    HW298779   2.456   1.156   3.855  0.6039  1.5439  1.5276
32258SOL     OW98780   0.009   9.788   0.111 -0.2977  0.2024  0.0558
32258SOL    HW198781  -0.076   9.770   0.151  0.3600  0.4879  1.6679
32258SOL    HW298782   0.073   9.751   0.172  0.7373 -1.5165 -1.9355
32259SOL     OW98783   5.740   7.144   3.955  0.4168 -0.0336  0.5226
32259SOL    HW198784   5.689   7.077   3.909  1.0471 -0.0280 -0.2169
32259SOL    HW298785   5.674   7.204   3.990 -0.1347 -0.7535  0.7526
32260SOL     OW98786   8.626   3.215   9.898 -0.3441 -0.5200 -0.1075
32260SOL    HW198787   8.553   3.259   9.943  1.0452  0.2779  1.4805
32260SOL    HW298788   8.660   3.280   9.837  0.1529 -0.2277  0.4650
32261SOL     OW98789   6.777   9.797   1.718 -0.1493  0.0214 -0.1794
32261SOL    HW198790   6.800   9.720   1.666 -2.0774 -1.3559  0.8600
32261SOL    HW298791   6.684   9.810   1.702 -0.5198  0.3159  1.9309
32262SOL     OW98792   9.549   5.433   5.829 -0.2580 -0.0141  0.4779
32262SOL    HW198793   9.505   5.390   5.755 -0.1869  0.6852  0.0164
32262SOL    HW298794   9.614   5.370   5.858 -0.3542 -0.3427  0.0045
32263SOL     OW98795  10.052  10.666   0.980  0.0419 -0.2977  0.1265
32263SOL    HW198796  10.136  10.676   1.024  1.9226  0.0528 -3.3073
32263SOL    HW298797  10.034  10.752   0.943 -0.9787 -0.8165 -0.6258
32264SOL     OW98798   8.351   6.219   3.677 -0.0138  0.1793  0.3705
32264SOL    HW198799   8.257   6.206   3.665  0.1422 -1.8428  0.9867
32264SOL    HW298800   8.364   6.215   3.771  0.5418  1.9974  0.4211
32265SOL     OW98801   7.793   1.241   1.823 -0.0069 -0.3907  0.1448
32265SOL    HW198802   7.786   1.226   1.917  1.9271  0.5511  0.4821
32265SOL    HW298803   7.769   1.333   1.812  0.2505 -0.3683 -0.2340
32266SOL     OW98804   0.559   1.076   6.229  0.2857  0.3192  0.3607
32266SOL    HW198805   0.645   1.111   6.251  0.8324 -1.1978  0.7289
32266SOL    HW298806   0.575   1.019   6.153 -0.1815 -0.8307  1.0993
32267SOL     OW98807   8.949   1.321   0.273  0.6125 -0.0494 -0.3207
32267SOL    HW198808   9.001   1.396   0.245  1.8503 -1.0809 -0.8847
32267SOL    HW298809   8.941   1.331   0.368  2.3592 -0.1787 -0.1426
32268SOL     OW98810   8.429   8.677   8.825  0.1134  0.5845  0.4882
32268SOL    HW198811   8.503   8.736   8.842  0.0181  0.9074 -0.1547
32268SOL    HW298812   8.369   8.730   8.772  0.4746 -0.3785 -0.9463
32269SOL     OW98813   1.159   1.039   1.791 -0.2248 -0.2262 -0.1947
32269SOL    HW198814   1.207   1.001   1.864  1.7134  1.4511 -0.4992
32269SOL    HW298815   1.146   0.965   1.730 -0.1647 -1.2266  0.9718
32270SOL     OW98816   5.628   4.382   3.463 -0.7574 -1.0949  0.5686
32270SOL    HW198817   5.581   4.334   3.395 -0.5822 -0.3450 -0.1030
32270SOL    HW298818   5.560   4.413   3.522 -0.7843 -3.3259  1.8362
32271SOL     OW98819   1.538   8.270   6.846  0.2946  0.7145  0.0471
32271SOL    HW198820   1.489   8.224   6.778  0.4516 -0.5147  0.7430
32271SOL    HW298821   1.486   8.349   6.864 -0.0732  0.7302 -1.0391
32272SOL     OW98822   5.512   8.667   2.988 -0.3601 -0.0115  0.2376
32272SOL    HW198823   5.591   8.633   3.031 -0.1983 -0.2394 -0.2333
32272SOL    HW298824   5.531   8.659   2.894 -0.0944  1.8531  0.0969
32273SOL     OW98825   0.147  10.651  10.620 -0.2974  0.3075 -0.2104
32273SOL    HW198826   0.175  10.582  10.680  1.1669  0.6115 -0.4951
32273SOL    HW298827   0.229  10.687  10.586 -1.0094 -1.1725 -3.9523
32274SOL     OW98828   0.696   2.006   4.936 -0.0442  0.0062  0.2986
32274SOL    HW198829   0.774   1.984   4.885  1.3359 -0.3257  2.4479
32274SOL    HW298830   0.665   2.088   4.896  1.6387  0.3693 -0.3669
32275SOL     OW98831   0.140   1.632  10.782 -0.2270  0.1550 -0.4916
32275SOL    HW198832   0.110   1.687  10.854  0.1890 -0.5800  0.2513
32275SOL    HW298833   0.235   1.631  10.790 -0.1066  0.7588 -1.5755
32276SOL     OW98834   1.804  10.925   7.543  0.1463 -0.8790  0.1291
32276SOL    HW198835   1.892  10.962   7.554  0.1177 -0.9620  0.6830
32276SOL    HW298836   1.747  10.983   7.593  0.0620 -1.4988  0.7732
32277SOL     OW98837   1.436   3.299   3.493 -0.2474  0.1425 -0.8803
32277SOL    HW198838   1.370   3.233   3.469  0.0862  0.2460 -2.1192
32277SOL    HW298839   1.496   3.301   3.419  0.4856  0.9152 -0.2789
32278SOL     OW98840   5.928   4.834   6.739 -0.1685 -0.3853 -0.0066
32278SOL    HW198841   5.861   4.775   6.774 -1.6144  0.0611 -1.8577
32278SOL    HW298842   5.915   4.915   6.789 -1.7007  0.0086 -0.9694
32279SOL     OW98843   2.129   1.446   8.139 -0.0732 -0.1741 -0.6019
32279SOL    HW198844   2.068   1.468   8.069  1.7463  1.9300 -1.6627
32279SOL    HW298845   2.153   1.531   8.177 -0.7697 -1.2218  2.4367
32280SOL     OW98846   8.938   1.543   3.378 -0.0641 -0.1639  0.2834
32280SOL    HW198847   8.934   1.449   3.395  2.5413 -0.4773 -0.3343
32280SOL    HW298848   8.864   1.561   3.321 -1.8319 -1.3995  2.0839
32281SOL     OW98849   5.431   4.613   1.202  0.1847  0.0824  0.4359
32281SOL    HW198850   5.411   4.610   1.295 -0.6213 -1.3640  0.2568
32281SOL    HW298851   5.351   4.649   1.162  0.3317  0.2161  0.2623
32282SOL     OW98852  10.366   6.095   2.438 -0.2275  0.8025 -0.0998
32282SOL    HW198853  10.414   6.024   2.396 -2.9055 -0.7220 -0.8243
32282SOL    HW298854  10.325   6.054   2.514 -0.2188  2.0911  0.6336
32283SOL     OW98855  10.026   4.620   5.130  0.0284 -0.1903  0.6478
32283SOL    HW198856   9.964   4.570   5.078  1.9446 -0.7478 -1.2275
32283SOL    HW298857  10.080   4.555   5.174 -0.3680  0.2844  1.8890
32284SOL     OW98858   0.120   9.218   4.583  0.2766  0.0844  0.2043
32284SOL    HW198859   0.053   9.189   4.522 -1.1400 -1.1234  2.2009
32284SOL    HW298860   0.163   9.291   4.539 -2.2379  0.8024 -1.2318
32285SOL     OW98861  10.075   5.750   0.956 -0.7883 -0.2803 -1.3928
32285SOL    HW198862  10.030   5.702   1.026 -0.4378  2.8662  1.2201
32285SOL    HW298863  10.151   5.696   0.936  0.9830  0.0297  3.1869
32286SOL     OW98864   3.054   3.841   8.881  0.1442  0.6373 -0.0452
32286SOL    HW198865   3.024   3.904   8.947 -1.5143  2.3798 -2.2752
32286SOL    HW298866   2.981   3.780   8.871 -0.4091  1.4812 -1.4799
32287SOL     OW98867   5.123   4.375   5.751 -0.0077  0.7436  0.0119
32287SOL    HW198868   5.179   4.448   5.777  0.3844  0.2386  0.6183
32287SOL    HW298869   5.100   4.393   5.660  2.5624  0.1025 -0.8450
32288SOL     OW98870   4.027   1.459   0.296 -0.3850 -0.3860 -0.3766
32288SOL    HW198871   4.078   1.382   0.321 -0.2787 -0.0300  0.5443
32288SOL    HW298872   3.963   1.469   0.367 -1.2706 -0.4056 -1.1605
32289SOL     OW98873   3.635   4.241   0.143 -0.3417 -0.0335 -0.1309
32289SOL    HW198874   3.668   4.153   0.164  0.7632  0.3366 -0.2701
32289SOL    HW298875   3.583   4.266   0.219  2.0452  0.5259  1.4171
32290SOL     OW98876   2.164  10.458   0.358  0.2465 -0.2465 -0.5678
32290SOL    HW198877   2.113  10.380   0.383 -0.7981  0.2635 -1.0506
32290SOL    HW298878   2.125  10.529   0.408  1.5606 -0.1001  0.2928
32291SOL     OW98879   0.485   6.585   6.509 -0.1169 -0.2687  0.4181
32291SOL    HW198880   0.497   6.666   6.559  0.2255  0.4508 -0.7824
32291SOL    HW298881   0.520   6.516   6.566  0.7910  0.5939  0.9435
32292SOL     OW98882   2.328   9.135   1.113 -0.2075  0.2442  0.4831
32292SOL    HW198883   2.406   9.187   1.129  0.6854 -0.5132 -1.1926
32292SOL    HW298884   2.313   9.142   1.019 -1.3043 -0.8177  0.5567
32293SOL     OW98885   7.539   4.280   6.110 -0.2189 -0.8589  0.6552
32293SOL    HW198886   7.539   4.358   6.055 -1.5004 -0.2437  1.4741
32293SOL    HW298887   7.613   4.293   6.170  0.3575 -0.9049 -0.0279
32294SOL     OW98888   9.038   5.916  10.703 -0.0998 -0.0716 -1.0930
32294SOL    HW198889   9.134   5.912  10.707 -0.1377  0.1471  1.4667
32294SOL    HW298890   9.020   6.000  10.661  0.8801  0.8333  0.2171
32295SOL     OW98891   1.168   3.707   5.133  0.3479  0.0371 -0.2458
32295SOL    HW198892   1.249   3.757   5.128  0.0169  0.5150 -0.9819
32295SOL    HW298893   1.184   3.642   5.201  1.4583 -0.0632 -0.5860
32296SOL     OW98894   8.983   6.700   4.292  0.4651 -0.1274 -0.2464
32296SOL    HW198895   9.030   6.780   4.317  0.9440 -0.5783  0.3436
32296SOL    HW298896   9.037   6.662   4.222  0.8506 -0.4985  0.2380
32297SOL     OW98897   8.359   0.582   8.272 -0.4946  0.0801 -0.2576
32297SOL    HW198898   8.450   0.554   8.264 -0.4182  0.2281  0.0606
32297SOL    HW298899   8.364   0.663   8.323 -0.8084  0.0584 -0.1930
32298SOL     OW98900  10.638   4.604   1.463 -0.5593 -0.2937  0.6975
32298SOL    HW198901  10.562   4.576   1.513 -1.4700 -0.8323 -0.9302
32298SOL    HW298902  10.621   4.574   1.374  0.6288  1.3217 -0.1237
32299SOL     OW98903   1.972   0.323   6.729 -0.0015 -0.2368 -0.1533
32299SOL    HW198904   1.881   0.344   6.709  0.3088 -1.5062 -3.5553
32299SOL    HW298905   1.973   0.227   6.736  0.9205 -0.1713  1.0547
32300SOL     OW98906   3.971  10.297   9.336  0.6335 -0.5004  0.5146
32300SOL    HW198907   3.928  10.212   9.349  0.5462 -0.7675 -1.2398
32300SOL    HW298908   4.012  10.290   9.250  0.6855  1.2179  0.3663
32301SOL     OW98909   8.230   1.400   4.725 -0.3005  0.1344 -0.3229
32301SOL    HW198910   8.179   1.360   4.655 -2.2629 -0.5725  1.3817
32301SOL    HW298911   8.301   1.338   4.742 -0.4670 -0.2341 -0.9527
32302SOL     OW98912   3.526   3.458  10.954  0.4159  0.0140 -0.1508
32302SOL    HW198913   3.443   3.482  10.914 -0.2510  1.2900  1.8386
32302SOL    HW298914   3.590   3.518  10.914  0.5550 -1.3314 -2.0862
32303SOL     OW98915   3.468   4.643   1.516  0.0292 -0.1949  0.1061
32303SOL    HW198916   3.461   4.555   1.478  2.3749 -0.0209 -0.9070
32303SOL    HW298917   3.558   4.649   1.546 -0.0178  1.9358 -0.0349
32304SOL     OW98918   4.807   4.039   6.888  0.1887  0.7580 -0.4233
32304SOL    HW198919   4.872   3.969   6.879 -0.3341 -0.2699  2.6290
32304SOL    HW298920   4.738   4.015   6.825  1.1934 -0.0059 -1.2755
32305SOL     OW98921   2.350   3.416   1.143 -0.1854 -0.1755 -0.1418
32305SOL    HW198922   2.385   3.327   1.134  1.7324  0.4881  0.3529
32305SOL    HW298923   2.407   3.470   1.087 -1.2630  0.7684 -0.3581
32306SOL     OW98924   5.825  10.592  10.284 -0.2181  0.3505 -0.1053
32306SOL    HW198925   5.793  10.571  10.197  0.7817  2.5766 -1.0961
32306SOL    HW298926   5.776  10.535  10.343 -0.4984 -1.6251 -2.1478
32307SOL     OW98927   1.204   9.261   0.953  0.5236 -0.0879 -0.1892
32307SOL    HW198928   1.244   9.231   1.034 -0.7932  0.8241  0.8324
32307SOL    HW298929   1.150   9.335   0.978 -1.9874 -1.3536 -1.4208
32308SOL     OW98930   6.646   8.957   9.626  0.0187 -0.4369  0.5396
32308SOL    HW198931   6.587   8.882   9.617 -0.2545 -0.2023  0.3452
32308SOL    HW298932   6.710   8.930   9.691 -0.4098 -0.6273  0.8864
32309SOL     OW98933   5.425   0.795   2.093 -0.6392 -0.1145 -0.2566
32309SOL    HW198934   5.473   0.775   2.012  0.9790 -1.5577  0.9903
32309SOL    HW298935   5.354   0.731   2.094  0.1566 -1.0316  0.0891
32310SOL     OW98936   7.197   6.355   1.050 -0.1046 -0.2205 -0.3778
32310SOL    HW198937   7.239   6.372   0.966  2.1019 -0.4032  0.5948
32310SOL    HW298938   7.216   6.263   1.068 -1.4436 -0.4702 -0.1229
32311SOL     OW98939   8.945   1.820   0.956 -0.2152  0.2713 -0.1609
32311SOL    HW198940   8.904   1.885   0.898 -1.5375 -1.3648 -1.1637
32311SOL    HW298941   8.987   1.758   0.896 -0.7139 -0.8876  0.6467
32312SOL     OW98942  10.891   4.923   4.315 -0.3173 -0.0128 -0.7741
32312SOL    HW198943  10.875   4.933   4.221 -0.7351  0.0688 -0.6932
32312SOL    HW298944  10.879   4.829   4.331  0.5607 -0.1632 -0.9526
32313SOL     OW98945   0.049   8.014   2.823 -0.6983  0.3285  0.0960
32313SOL    HW198946   0.066   7.985   2.913  0.6448 -0.0178 -0.2364
32313SOL    HW298947   0.119   8.076   2.804 -2.0181  1.7989 -0.1225
32314SOL     OW98948   7.592   6.906   6.662 -0.1884 -0.4084  0.2680
32314SOL    HW198949   7.547   6.828   6.694  0.5541 -1.3007 -0.7610
32314SOL    HW298950   7.612   6.956   6.741 -1.1511 -0.9889  0.9043
32315SOL     OW98951   6.357   3.742   9.130  0.3455 -0.5798 -0.2754
32315SOL    HW198952   6.393   3.714   9.046  1.2270 -1.8445  0.5040
32315SOL    HW298953   6.424   3.799   9.168  0.9094 -1.7589  0.5272
32316SOL     OW98954   7.782   1.752   5.295  1.0439 -0.0328  0.4727
32316SOL    HW198955   7.704   1.733   5.347  0.1968  3.1990  0.5638
32316SOL    HW298956   7.756   1.736   5.205  0.0229  1.5399  0.4516
32317SOL     OW98957   1.061   5.358   4.119 -0.0120  0.1427 -0.0541
32317SOL    HW198958   1.062   5.277   4.170 -0.1861  0.1358 -0.0596
32317SOL    HW298959   0.972   5.362   4.083 -0.8165  1.5227  1.8724
32318SOL     OW98960   4.906  10.814   5.703  0.2176 -0.1760 -0.0717
32318SOL    HW198961   4.957  10.759   5.644  0.6967 -0.8828  0.9815
32318SOL    HW298962   4.823  10.827   5.658  0.7929 -0.2033 -1.1664
32319SOL     OW98963   2.780   9.709   8.156  0.0787 -0.0448  0.1604
32319SOL    HW198964   2.766   9.704   8.251 -0.2048 -1.9604  0.0379
32319SOL    HW298965   2.875   9.715   8.147  0.2824 -2.0077  0.5406
32320SOL     OW98966   2.430   4.222   0.104  0.2072 -0.3051  0.0908
32320SOL    HW198967   2.495   4.284   0.074 -0.9864  1.6216  1.2768
32320SOL    HW298968   2.350   4.245   0.056 -0.3271 -0.7490  0.7327
32321SOL     OW98969   8.269   2.129   3.096  0.6377  0.2418  0.0201
32321SOL    HW198970   8.221   2.203   3.133  0.2277 -0.4447  0.9153
32321SOL    HW298971   8.354   2.130   3.140  0.1279 -0.6105  1.0853
32322SOL     OW98972   9.611   2.539   5.647 -0.1973  0.0342  0.2640
32322SOL    HW198973   9.564   2.459   5.670 -1.5390  0.7488  0.0406
32322SOL    HW298974   9.662   2.560   5.726 -0.0777 -0.8500  0.4324
32323SOL     OW98975   2.056   6.471  10.193  0.1230  0.3988  0.1482
32323SOL    HW198976   2.054   6.565  10.210  0.4018  0.4070  0.1279
32323SOL    HW298977   2.148   6.449  10.190  0.1261  0.5075 -1.8792
32324SOL     OW98978   3.652   0.020   7.997 -0.1313 -0.0116 -0.2926
32324SOL    HW198979   3.673   0.113   8.003 -0.0702 -0.0203 -0.3611
32324SOL    HW298980   3.711  -0.013   7.929  0.1933 -0.1996  0.0749
32325SOL     OW98981   6.094   2.500   1.157  0.5413  0.1675 -0.1703
32325SOL    HW198982   6.039   2.433   1.196 -0.5352  0.5863 -0.9307
32325SOL    HW298983   6.037   2.577   1.149  1.6091  1.0438  0.2473
32326SOL     OW98984   1.286  10.697   4.845  0.5263 -0.3020 -0.1164
32326SOL    HW198985   1.264  10.620   4.792 -0.7790 -1.7159  2.2955
32326SOL    HW298986   1.339  10.662   4.916  0.4266  1.1357  0.6874
32327SOL     OW98987   8.460   6.789   8.222 -0.1748  0.5006  0.2816
32327SOL    HW198988   8.404   6.735   8.167 -0.6092  0.2758  0.9235
32327SOL    HW298989   8.549   6.771   8.191 -0.4428  0.7373 -0.6417
32328SOL     OW98990   7.175   3.605   5.810  0.2917 -0.1913  0.1538
32328SOL    HW198991   7.080   3.611   5.821  0.1584 -2.6841  0.8629
32328SOL    HW298992   7.192   3.649   5.726 -1.5846 -0.3985 -0.3729
32329SOL     OW98993   1.828   6.270   4.518  0.4548  0.6784 -0.2418
32329SOL    HW198994   1.868   6.205   4.576  0.9191  0.9252 -0.2812
32329SOL    HW298995   1.816   6.347   4.573  0.2033  0.6640 -0.2784
32330SOL     OW98996   7.617   2.529  10.214 -0.1457 -0.5789 -0.5307
32330SOL    HW198997   7.594   2.620  10.231  2.0101  0.3258 -2.1150
32330SOL    HW298998   7.687   2.510  10.275 -0.0494 -0.9300 -0.7476
32331SOL     OW98999   2.798   0.376   7.263 -0.2653 -0.4950  0.1751
32331SOL    HW199000   2.742   0.444   7.300  0.2199  0.6531 -1.1292
32331SOL    HW299001   2.881   0.420   7.245  1.0442 -2.0910  1.8184
32332SOL     OW99002   7.440   9.857   9.682 -0.2329  0.5637 -0.0528
32332SOL    HW199003   7.482   9.923   9.738  4.3640 -0.9380 -1.3254
32332SOL    HW299004   7.462   9.773   9.722 -0.5961 -0.4066 -1.7976
32333SOL     OW99005   6.820   5.369   7.592 -0.7583 -0.1647  0.2942
32333SOL    HW199006   6.758   5.315   7.543  0.4817 -0.6090 -0.8276
32333SOL    HW299007   6.847   5.437   7.530 -1.8389  1.4164  1.4988
32334SOL     OW99008   9.181   6.847   9.927 -0.4780  0.8231 -0.0030
32334SOL    HW199009   9.088   6.827   9.916  0.0174 -1.0671 -1.2533
32334SOL    HW299010   9.220   6.830   9.842  1.1968  0.4164  0.7969
32335SOL     OW99011   5.980   9.262   0.259 -0.6786  0.2144  0.1196
32335SOL    HW199012   5.897   9.307   0.243 -1.2572 -1.7029 -3.1999
32335SOL    HW299013   6.034   9.282   0.182  1.7571  0.8195  1.8550
32336SOL     OW99014   2.325   9.694   3.303 -0.4109 -0.5686 -0.3214
32336SOL    HW199015   2.399   9.707   3.363 -0.5424 -1.1020 -0.0328
32336SOL    HW299016   2.248   9.718   3.355 -0.3346  1.7531 -1.1871
32337SOL     OW99017   3.054   2.133   7.652  0.1660  0.3981 -0.0603
32337SOL    HW199018   3.111   2.059   7.668 -1.7832 -0.8680  1.4959
32337SOL    HW299019   2.969   2.094   7.633 -0.9228  2.2264  0.8335
32338SOL     OW99020  10.466   0.673   2.609 -0.0443 -0.2767  0.5098
32338SOL    HW199021  10.442   0.764   2.592 -0.2286 -0.3667  0.2757
32338SOL    HW299022  10.382   0.627   2.615  0.0112 -0.2640  1.6077
32339SOL     OW99023   6.230   8.255   6.611  0.4500 -0.0162  0.7261
32339SOL    HW199024   6.277   8.182   6.571  1.3007  0.8967  0.0068
32339SOL    HW299025   6.264   8.332   6.567  0.7661  0.9676  2.5864
32340SOL     OW99026   2.961   4.815   2.205 -0.0401 -0.0585  0.1700
32340SOL    HW199027   3.003   4.862   2.132  0.3508 -0.5517  0.0648
32340SOL    HW299028   3.024   4.820   2.276 -0.2833  0.1454  0.3706
32341SOL     OW99029   1.770   9.868   7.450 -0.0477  0.6664 -0.0041
32341SOL    HW199030   1.720   9.938   7.492 -0.0373  1.3200 -1.0432
32341SOL    HW299031   1.704   9.809   7.414 -0.1023  1.6304 -1.5429
32342SOL     OW99032   5.863   6.590   8.732 -0.0124 -0.1194  0.1241
32342SOL    HW199033   5.862   6.665   8.671 -0.4264 -0.8451 -0.7917
32342SOL    HW299034   5.935   6.536   8.701 -0.3390 -0.5812  0.1641
32343SOL     OW99035   4.677   4.878   5.145 -0.4365 -0.4721 -0.0422
32343SOL    HW199036   4.698   4.814   5.212 -0.1340  0.7113  1.0269
32343SOL    HW299037   4.754   4.936   5.142 -1.7805  1.4893  1.0304
32344SOL     OW99038  10.592   9.868   9.468 -0.2057 -0.2881 -0.6039
32344SOL    HW199039  10.505   9.881   9.504 -0.6432  0.0245 -1.7628
32344SOL    HW299040  10.602   9.935   9.401  1.6131  0.8339  0.6653
32345SOL     OW99041   7.844   1.155  10.614 -0.0836  0.2462  0.6376
32345SOL    HW199042   7.777   1.112  10.667 -0.7605 -0.5479 -0.7840
32345SOL    HW299043   7.874   1.087  10.554  0.5592  1.1273 -0.0688
32346SOL     OW99044   3.015   7.915   0.966  0.4944 -0.4532 -0.0160
32346SOL    HW199045   2.950   7.952   1.025  0.2539 -1.0357  0.1000
32346SOL    HW299046   2.975   7.919   0.880  0.9981  0.7419 -0.2035
32347SOL     OW99047   6.596   8.938   8.006 -0.2794 -0.2770 -0.7067
32347SOL    HW199048   6.520   8.980   8.046  0.2397  2.0595 -2.0216
32347SOL    HW299049   6.646   8.904   8.081 -1.0139  0.9666  0.4006
32348SOL     OW99050   1.849   5.418   1.544 -0.3108  0.6427  0.9638
32348SOL    HW199051   1.814   5.506   1.558 -2.2892  0.1306 -0.3580
32348SOL    HW299052   1.919   5.430   1.480 -1.3697  1.1816 -0.1550
32349SOL     OW99053  10.450   1.749  10.511 -1.0615 -0.0724  0.3454
32349SOL    HW199054  10.502   1.738  10.431 -0.6214 -0.4648  0.6757
32349SOL    HW299055  10.364   1.777  10.480 -0.2564  2.0341 -0.1371
32350SOL     OW99056   9.159  10.331   9.853 -0.0890 -0.4943  0.0599
32350SOL    HW199057   9.085  10.270   9.851 -1.7576  1.4281 -0.1509
32350SOL    HW299058   9.167  10.361   9.762  0.3756 -0.0442  0.2460
32351SOL     OW99059  10.447   5.873   5.547  0.6352 -0.1805 -0.4668
32351SOL    HW199060  10.415   5.905   5.462 -0.1449  0.6072  0.1144
32351SOL    HW299061  10.519   5.814   5.524 -0.0381 -0.5625 -1.7147
32352SOL     OW99062   3.781   1.331   9.044 -0.2904  0.2551  0.4303
32352SOL    HW199063   3.751   1.335   8.953  1.9932 -1.7217 -0.5074
32352SOL    HW299064   3.867   1.371   9.043 -0.3079  0.3730  1.7896
32353SOL     OW99065   9.840   1.724   5.419  0.0578  0.1567  0.0863
32353SOL    HW199066   9.775   1.795   5.418  0.1206  0.3535  3.0936
32353SOL    HW299067   9.788   1.645   5.431  0.0761 -0.2994 -2.2919
32354SOL     OW99068   5.000   5.128   5.509  0.7572  0.5419  0.0968
32354SOL    HW199069   5.091   5.101   5.502  1.0670  0.9250  2.1098
32354SOL    HW299070   4.966   5.081   5.585 -0.7023  0.5121 -0.5238
32355SOL     OW99071  10.112  10.671   4.725 -0.1723 -0.7235 -0.2230
32355SOL    HW199072  10.191  10.674   4.672 -0.9809  0.4228 -1.4353
32355SOL    HW299073  10.061  10.599   4.687 -1.0598  0.5388 -1.5381
32356SOL     OW99074   2.857  10.939   2.954 -0.4895 -0.4678 -0.1926
32356SOL    HW199075   2.896  10.941   2.866  0.2549  1.7616  0.1216
32356SOL    HW299076   2.932  10.935   3.013 -0.9215 -0.2376  0.3763
32357SOL     OW99077   9.273   6.902   2.416  0.1063  0.1977 -0.2510
32357SOL    HW199078   9.207   6.866   2.475  1.4731 -1.2835  0.4691
32357SOL    HW299079   9.242   6.990   2.396 -1.1744  0.1997  1.4777
32358SOL     OW99080   3.541   7.520   2.788  0.4113 -0.1371 -0.5724
32358SOL    HW199081   3.494   7.602   2.802  0.6550 -0.2641  1.3130
32358SOL    HW299082   3.633   7.542   2.805  0.5334 -0.6945 -0.4790
32359SOL     OW99083   5.522   0.601   7.982  0.3761  0.0538 -0.8675
32359SOL    HW199084   5.466   0.532   7.946  1.3023 -0.3577 -1.5523
32359SOL    HW299085   5.475   0.682   7.963  0.6200 -0.1866 -2.6274
32360SOL     OW99086   7.927   8.670   2.684  0.3477 -0.2149  0.4175
32360SOL    HW199087   7.966   8.630   2.762  0.1448  1.5836  1.5145
32360SOL    HW299088   7.867   8.736   2.719 -0.3283  0.1189 -1.2746
32361SOL     OW99089   6.340   4.899   6.282 -0.7808  0.7586 -0.3312
32361SOL    HW199090   6.270   4.941   6.231 -1.7811  0.1496  0.5043
32361SOL    HW299091   6.392   4.972   6.315 -0.2254  1.1827 -2.0094
32362SOL     OW99092   8.039   7.018   1.029  0.4619  0.3198 -0.0656
32362SOL    HW199093   8.033   7.063   0.945 -1.1246  0.6852  0.2218
32362SOL    HW299094   7.998   7.077   1.092 -1.5388 -1.4072  0.3528
32363SOL     OW99095   7.922   1.711   6.727 -0.1564 -0.4882 -0.1459
32363SOL    HW199096   8.013   1.706   6.697  0.2726 -0.6291  1.1061
32363SOL    HW299097   7.894   1.799   6.703 -0.3298 -1.0607 -2.2239
32364SOL     OW99098   5.374   5.199   9.589 -0.1045  0.4036 -0.1544
32364SOL    HW199099   5.379   5.120   9.535  1.2898  0.4394 -0.1146
32364SOL    HW299100   5.286   5.233   9.574 -0.0640 -0.0990 -1.6872
32365SOL     OW99101   6.587  10.185  10.023  0.0715  0.3026 -0.2309
32365SOL    HW199102   6.494  10.208  10.034 -0.3264 -0.9274 -0.9157
32365SOL    HW299103   6.630  10.229  10.096 -1.2754 -0.4025  1.0653
32366SOL     OW99104  11.019   3.290   6.365  0.3394  0.5328 -0.0199
32366SOL    HW199105  10.962   3.213   6.370  0.1531  0.7251  1.0416
32366SOL    HW299106  11.079   3.280   6.439  0.3547  1.3691  0.0934
32367SOL     OW99107   3.325   7.175   8.315 -0.4927 -0.5352  0.5286
32367SOL    HW199108   3.261   7.122   8.362 -1.5497  0.5050  0.3059
32367SOL    HW299109   3.273   7.227   8.253  0.6558 -0.3457 -0.3197
32368SOL     OW99110   5.506  10.884   2.758  0.5762 -0.0292 -0.3806
32368SOL    HW199111   5.584  10.840   2.792  0.4303 -1.4794 -1.7955
32368SOL    HW299112   5.446  10.887   2.832  1.3516 -0.4086  0.2798
32369SOL     OW99113   8.017   9.632   6.894 -0.6390 -0.0100 -0.1255
32369SOL    HW199114   8.096   9.589   6.926 -1.0094 -0.9257 -0.3806
32369SOL    HW299115   7.950   9.610   6.959 -1.2821 -1.4861 -1.2083
32370SOL     OW99116   6.789   4.412   3.655 -0.4531 -0.1814  0.4355
32370SOL    HW199117   6.757   4.359   3.582  0.5409 -0.1392 -0.0447
32370SOL    HW299118   6.764   4.363   3.733 -0.5880 -0.7617  0.0371
32371SOL     OW99119   2.898  10.867   4.737 -0.3792  0.3045 -0.0143
32371SOL    HW199120   2.976  10.919   4.758  0.9498 -0.7086 -2.0582
32371SOL    HW299121   2.880  10.887   4.645 -1.8513 -0.3791  0.0926
32372SOL     OW99122   2.457   3.813   2.999 -0.0269  0.1847 -0.2337
32372SOL    HW199123   2.381   3.791   2.944  0.2320  1.1203 -0.9909
32372SOL    HW299124   2.423   3.809   3.089 -0.0204 -3.2330 -0.2321
32373SOL     OW99125   0.045   3.679   4.242  0.2675 -0.3635  0.0341
32373SOL    HW199126   0.030   3.612   4.308 -1.4909  1.7550  1.9641
32373SOL    HW299127  -0.020   3.661   4.174  0.3134 -1.0320  0.1644
32374SOL     OW99128   8.648   2.665   1.980  0.3331 -0.4111 -0.4543
32374SOL    HW199129   8.694   2.715   1.913  0.0887  2.4448  1.3263
32374SOL    HW299130   8.617   2.731   2.042 -1.0425 -2.7284  1.5113
32375SOL     OW99131   2.234  10.786   1.234  0.2355  0.8328 -0.2984
32375SOL    HW199132   2.291  10.740   1.295  0.3351  1.2314 -0.0850
32375SOL    HW299133   2.294  10.821   1.167  0.0131 -0.5409 -1.2468
32376SOL     OW99134   2.469   7.654   4.650  0.0399  0.2207  0.2556
32376SOL    HW199135   2.435   7.567   4.628 -0.9676  0.7128 -0.1958
32376SOL    HW299136   2.420   7.680   4.727  0.8634  0.0964  0.8313
32377SOL     OW99137   9.460   1.392   7.503  0.6438 -0.4280 -0.4886
32377SOL    HW199138   9.518   1.340   7.559  1.6328 -1.5616 -2.4378
32377SOL    HW299139   9.489   1.371   7.414 -0.9073  1.2225 -1.4365
32378SOL     OW99140  10.812   3.601   5.789 -0.3376 -0.1722  0.2745
32378SOL    HW199141  10.730   3.566   5.753 -0.0838  0.0971 -0.6073
32378SOL    HW299142  10.879   3.542   5.756 -0.2057 -0.5841  1.2723
32379SOL     OW99143   1.943   7.963   0.292  0.6805 -0.2144  0.2805
32379SOL    HW199144   1.891   7.926   0.364 -0.0644  1.3111  0.5519
32379SOL    HW299145   1.904   7.926   0.213  1.3494 -1.7104  0.5979
32380SOL     OW99146   2.458   9.845   3.619 -0.0947 -0.3481  0.3869
32380SOL    HW199147   2.452   9.750   3.634 -0.8357 -0.3167  0.3030
32380SOL    HW299148   2.373   9.869   3.582 -0.7566  0.7334  2.4428
32381SOL     OW99149   5.697  10.277   0.307 -0.0418 -0.1068  0.7241
32381SOL    HW199150   5.647  10.213   0.358  1.0759  0.8928  3.2644
32381SOL    HW299151   5.635  10.309   0.241 -2.4670  0.2721  2.9910
32382SOL     OW99152   0.269   1.590   3.327 -0.1314 -0.0896  0.1993
32382SOL    HW199153   0.212   1.633   3.263 -0.2842  1.5183  1.3659
32382SOL    HW299154   0.338   1.654   3.345  1.8912 -1.8118 -0.8366
32383SOL     OW99155  10.537  10.490   6.174  0.3571  0.3306 -0.0722
32383SOL    HW199156  10.512  10.503   6.266  1.4889 -2.4019  0.7332
32383SOL    HW299157  10.457  10.462   6.130  0.1383  0.0705  0.4823
32384SOL     OW99158   5.497  10.001   7.241 -0.3383  0.1586  0.5902
32384SOL    HW199159   5.412   9.969   7.212 -0.6273  1.9175 -0.6732
32384SOL    HW299160   5.490  10.006   7.336 -1.6031  0.1788  0.5139
32385SOL     OW99161   7.670   8.719   5.265 -0.1575 -0.0187  0.3495
32385SOL    HW199162   7.601   8.672   5.218 -0.7858  0.7531  0.4753
32385SOL    HW299163   7.625   8.793   5.306  0.8137  0.7426  0.0914
32386SOL     OW99164   2.326  10.948   1.729  0.0389  0.3729 -0.2557
32386SOL    HW199165   2.271  10.994   1.793  0.1109 -0.1683  0.1977
32386SOL    HW299166   2.281  10.865   1.714  0.2194  0.3395 -0.6305
32387SOL     OW99167   5.144   7.585   3.505  0.4690  0.0378 -0.3561
32387SOL    HW199168   5.060   7.585   3.459 -0.0653 -0.4905  0.6029
32387SOL    HW299169   5.163   7.492   3.521  0.5178  0.2195  0.7075
32388SOL     OW99170   5.773   1.181   7.636  0.6752 -0.3664 -0.0357
32388SOL    HW199171   5.735   1.102   7.675  1.5970 -2.1542 -2.4784
32388SOL    HW299172   5.702   1.245   7.639 -0.1572 -1.2833  1.8908
32389SOL     OW99173   3.874   2.637   4.288 -0.0704  0.5676  0.5516
32389SOL    HW199174   3.927   2.632   4.209  0.0170  1.4653  0.5436
32389SOL    HW299175   3.822   2.556   4.288 -0.5534  0.8638 -0.7580
32390SOL     OW99176   3.633   4.639   8.220  0.0752  0.2766  0.1348
32390SOL    HW199177   3.546   4.599   8.227  0.9687 -2.3438 -1.9467
32390SOL    HW299178   3.691   4.580   8.268  0.9626  0.9930 -0.0326
32391SOL     OW99179   6.479   6.942   3.635  0.0327 -0.3041 -0.4622
32391SOL    HW199180   6.484   6.854   3.597 -0.1935 -0.3406 -0.4113
32391SOL    HW299181   6.533   6.996   3.577 -2.3664  0.2002 -2.4382
32392SOL     OW99182  10.880   8.074   9.816  0.1164  0.4758 -0.0306
32392SOL    HW199183  10.808   8.116   9.770  1.4557  2.6259 -0.3254
32392SOL    HW299184  10.902   8.135   9.887 -0.2716 -1.5710  1.9655
32393SOL     OW99185   5.648   8.219   5.523 -0.1953 -0.3262  0.5454
32393SOL    HW199186   5.600   8.252   5.446  0.4564 -0.7410 -0.0480
32393SOL    HW299187   5.695   8.142   5.490  1.9495  0.8145  0.7679
32394SOL     OW99188   3.288   8.476   0.453  0.1686  0.2421  0.2922
32394SOL    HW199189   3.260   8.401   0.400 -0.3612  0.1808  0.6504
32394SOL    HW299190   3.271   8.552   0.397 -2.7220  0.4044  1.2260
32395SOL     OW99191   9.367   8.166   4.079 -0.2800  0.1066 -0.0449
32395SOL    HW199192   9.367   8.074   4.106  1.1343  0.1014  0.0168
32395SOL    HW299193   9.407   8.213   4.152  2.7865  0.2064 -1.6227
32396SOL     OW99194   0.911  10.374   8.735 -0.0258  0.3067  0.0827
32396SOL    HW199195   0.830  10.408   8.697  0.0103  0.3133  0.0138
32396SOL    HW299196   0.890  10.363   8.828 -0.6660 -1.3143 -0.2067
32397SOL     OW99197   6.872   1.319   2.063  0.4814 -0.2442  0.1107
32397SOL    HW199198   6.927   1.364   1.999 -0.4098  0.2441 -0.3227
32397SOL    HW299199   6.835   1.389   2.118 -1.2909 -0.3496 -0.8671
32398SOL     OW99200   1.936   8.642   9.578 -0.3880  0.1266  0.1736
32398SOL    HW199201   1.956   8.586   9.653  0.7982 -1.4206 -1.2457
32398SOL    HW299202   1.954   8.588   9.501 -0.6938  1.9517 -1.2571
32399SOL     OW99203   8.280  10.954   7.766 -0.7347 -0.4280  0.2790
32399SOL    HW199204   8.232  10.975   7.687 -0.3392  1.2642  0.4394
32399SOL    HW299205   8.254  11.021   7.829 -0.5094 -1.3177  1.3691
32400SOL     OW99206   8.732  11.034   2.839  0.8160 -0.0577  0.9421
32400SOL    HW199207   8.781  10.985   2.773 -0.2483 -0.6112  0.5362
32400SOL    HW299208   8.797  11.088   2.882  1.3587  1.2197 -1.3459
32401SOL     OW99209   3.358   8.122   0.510 -0.0468 -0.4100  0.5375
32401SOL    HW199210   3.393   8.202   0.551  3.1403 -0.4264 -1.8000
32401SOL    HW299211   3.267   8.144   0.490  0.8726  2.9800 -0.6424
32402SOL     OW99212   8.207   8.032   4.259 -0.1726  0.4706  0.3179
32402SOL    HW199213   8.247   7.971   4.321 -0.7577 -0.4566 -0.1792
32402SOL    HW299214   8.221   7.992   4.173 -0.4659  1.0979 -0.0327
32403SOL     OW99215   3.278  10.041   0.368  0.3765 -0.0834 -0.6188
32403SOL    HW199216   3.345  10.100   0.403  1.0754 -0.4166 -1.3708
32403SOL    HW299217   3.326   9.964   0.339 -0.1141  0.2923 -2.5565
32404SOL     OW99218   9.088   8.714   3.068 -0.3012  0.1025 -0.2612
32404SOL    HW199219   9.097   8.792   3.012 -2.6243  0.3164 -0.4548
32404SOL    HW299220   9.000   8.682   3.049  0.7933 -2.9631 -0.6177
32405SOL     OW99221   5.125   7.452   2.084  0.4733  0.6174  0.3662
32405SOL    HW199222   5.077   7.373   2.061 -0.1076  0.6775  1.3142
32405SOL    HW299223   5.150   7.440   2.176  1.1171  1.1652  0.2745
32406SOL     OW99224   7.652   0.341   1.664  0.0356  0.5483 -0.0616
32406SOL    HW199225   7.570   0.344   1.614  1.0315  1.4328 -1.7523
32406SOL    HW299226   7.656   0.426   1.708 -0.0677  0.4020  0.2341
32407SOL     OW99227  10.526   5.270   1.281  0.0230  0.1622  0.0667
32407SOL    HW199228  10.528   5.222   1.363 -2.2159 -1.6759 -0.8494
32407SOL    HW299229  10.434   5.284   1.263  0.5329  2.5766 -1.0363
32408SOL     OW99230   3.480  10.349   0.995  0.0613 -0.1598  0.1876
32408SOL    HW199231   3.465  10.441   1.018 -1.1610  0.0207 -1.2054
32408SOL    HW299232   3.393  10.309   0.998  0.4585 -1.0660 -0.0616
32409SOL     OW99233   5.430  10.690   7.131 -0.2288 -0.0409  0.2003
32409SOL    HW199234   5.524  10.675   7.135 -0.1973 -0.3613 -1.3106
32409SOL    HW299235   5.395  10.644   7.208  0.6207 -1.8645 -0.4634
32410SOL     OW99236   3.416   9.237   9.036 -0.2305  0.1042  0.1905
32410SOL    HW199237   3.433   9.247   9.129 -0.2414 -1.1986  0.3443
32410SOL    HW299238   3.425   9.143   9.019 -2.6246 -0.0466 -0.6276
32411SOL     OW99239   6.228   9.782   3.233  0.3194  0.0654 -0.3230
32411SOL    HW199240   6.248   9.727   3.158  1.1172 -0.3049  0.1512
32411SOL    HW299241   6.260   9.869   3.209 -1.0551  0.3720 -1.1226
32412SOL     OW99242   2.489  10.037   7.894 -0.2848  0.4601 -0.0945
32412SOL    HW199243   2.523  10.123   7.868 -1.6912  0.5150 -2.0032
32412SOL    HW299244   2.446  10.053   7.978  0.0715  1.4640 -0.0889
32413SOL     OW99245   8.267   0.855   2.368  0.0376  0.4936  0.2062
32413SOL    HW199246   8.270   0.761   2.387  0.0439  0.5373  0.4257
32413SOL    HW299247   8.350   0.889   2.401  1.2097  0.1629 -2.1919
32414SOL     OW99248   1.801   6.544   7.711 -0.0530 -0.3822 -0.0690
32414SOL    HW199249   1.843   6.470   7.667 -1.9448 -1.4130 -0.2496
32414SOL    HW299250   1.761   6.594   7.639 -0.3241 -0.1960  0.2111
32415SOL     OW99251   9.704  10.060   9.801 -0.0153  0.3175 -0.1700
32415SOL    HW199252   9.745  10.058   9.714 -0.3475 -1.3549 -0.3299
32415SOL    HW299253   9.610  10.055   9.783 -0.1476  1.1411  0.2638
32416SOL     OW99254   7.317   9.810   6.242  0.1816 -0.4362  0.4330
32416SOL    HW199255   7.276   9.868   6.179  0.3599 -1.3088 -0.5148
32416SOL    HW299256   7.289   9.843   6.328  0.0994  0.8806 -0.0887
32417SOL     OW99257   6.749   9.476   4.740 -0.3945 -0.5123 -0.0248
32417SOL    HW199258   6.680   9.507   4.798  0.1182  0.6407 -0.0175
32417SOL    HW299259   6.775   9.391   4.776  0.2721  0.4009  1.7457
32418SOL     OW99260   9.865   8.418   6.525  0.2321  0.1765  0.4765
32418SOL    HW199261   9.784   8.374   6.497  0.8613 -0.3897 -0.5153
32418SOL    HW299262   9.935   8.369   6.482  1.0498  1.2209  0.5783
32419SOL     OW99263   2.465   9.327   1.535  0.7609  0.5630  0.2156
32419SOL    HW199264   2.458   9.412   1.492  0.5799 -0.1311 -1.1737
32419SOL    HW299265   2.422   9.339   1.620  1.0359  1.9347  0.1835
32420SOL     OW99266   6.630   3.584   7.818 -0.0120 -0.3898 -0.1791
32420SOL    HW199267   6.595   3.511   7.868  0.5042  0.1693  1.0373
32420SOL    HW299268   6.688   3.544   7.754 -0.0389 -1.0632  0.2140
32421SOL     OW99269   9.558   6.555   2.749  0.5415 -0.5893  0.1837
32421SOL    HW199270   9.566   6.461   2.731 -1.3559 -0.6972 -0.3364
32421SOL    HW299271   9.549   6.595   2.662 -0.7128 -0.1892  0.4751
32422SOL     OW99272   4.168  10.940   6.480 -0.5448 -0.3115  0.1143
32422SOL    HW199273   4.234  10.991   6.527 -2.1212  2.3391 -0.3636
32422SOL    HW299274   4.212  10.857   6.460  2.2707  0.9227  0.7148
32423SOL     OW99275   1.243   4.848   4.776 -0.0057  0.1536 -0.4059
32423SOL    HW199276   1.282   4.762   4.763  0.7071  0.5677 -1.1699
32423SOL    HW299277   1.149   4.834   4.767  0.1382 -0.4688 -1.0104
32424SOL     OW99278   4.236   0.458   9.730  0.6179 -0.2381  0.1931
32424SOL    HW199279   4.211   0.462   9.638  1.7013  0.5152 -0.0866
32424SOL    HW299280   4.199   0.537   9.769  2.1671  0.6947 -0.1459
32425SOL     OW99281   7.345   6.686   1.667  0.0040 -0.6038 -0.3124
32425SOL    HW199282   7.304   6.735   1.737 -1.3371 -0.7978 -0.9397
32425SOL    HW299283   7.375   6.752   1.605 -0.5605 -0.5149 -0.4911
32426SOL     OW99284   3.103   8.761   8.992 -0.4524  0.3694 -0.0235
32426SOL    HW199285   3.148   8.834   9.036  1.4373  0.0494 -1.2750
32426SOL    HW299286   3.028   8.802   8.950 -0.2399  1.3320  0.4901
32427SOL     OW99287   4.176   7.177   9.876 -0.1171  0.0949 -0.6167
32427SOL    HW199288   4.172   7.083   9.892 -3.2132  0.2740  0.2159
32427SOL    HW299289   4.207   7.214   9.958  0.1056 -0.1261 -0.6024
32428SOL     OW99290   1.432  10.306   1.570 -0.7796  0.3466 -0.0285
32428SOL    HW199291   1.461  10.361   1.497 -1.1371  0.9634  0.2959
32428SOL    HW299292   1.513  10.267   1.604 -0.5760  0.3119 -0.5407
32429SOL     OW99293  10.409  10.434   8.593  0.2070  0.0711  0.0759
32429SOL    HW199294  10.350  10.388   8.653  0.0894 -2.9217 -2.1472
32429SOL    HW299295  10.496  10.409   8.622  0.1964 -0.2070 -0.1327
32430SOL     OW99296   7.607   3.947   1.452  0.0462 -0.3462 -0.3402
32430SOL    HW199297   7.645   3.866   1.486  1.2582  0.0433 -0.7155
32430SOL    HW299298   7.574   3.992   1.530  0.2989 -0.7347 -0.0068
32431SOL     OW99299   2.151   2.551   4.888  0.0188  0.4948  0.4403
32431SOL    HW199300   2.107   2.593   4.813  1.3044 -0.8732 -1.1613
32431SOL    HW299301   2.150   2.618   4.956 -1.2855  1.7767 -0.7431
32432SOL     OW99302   9.254  10.457   6.162  0.5890  0.5780  0.2553
32432SOL    HW199303   9.215  10.439   6.248 -2.8627  0.1403 -1.2250
32432SOL    HW299304   9.233  10.549   6.145  0.5680  0.4549 -0.4178
32433SOL     OW99305   7.760   8.468   1.021  0.4211  0.0137 -0.2549
32433SOL    HW199306   7.698   8.457   1.093  1.9599 -1.8647  0.8845
32433SOL    HW299307   7.846   8.453   1.061  1.7528  3.0156 -1.6495
32434SOL     OW99308   8.371  10.617   1.627 -0.3525  0.0506 -0.2752
32434SOL    HW199309   8.291  10.630   1.678  0.1061 -0.1063  0.5065
32434SOL    HW299310   8.388  10.523   1.634  1.4885  0.4861  2.0531
32435SOL     OW99311  10.317   6.122   4.106 -0.2287 -0.4665  0.1077
32435SOL    HW199312  10.250   6.104   4.172 -0.3176  0.1908  0.2057
32435SOL    HW299313  10.393   6.069   4.134 -0.6070 -0.9948  0.1515
32436SOL     OW99314  10.359   2.240   8.968  0.1556  0.0296  0.3273
32436SOL    HW199315  10.363   2.335   8.958 -0.2835 -0.0234 -0.4752
32436SOL    HW299316  10.315   2.210   8.888  0.7085 -0.8897  0.3560
32437SOL     OW99317   5.965   2.437   2.631 -0.8980  0.2022 -0.0422
32437SOL    HW199318   5.965   2.342   2.644 -1.9205  0.4358  2.1860
32437SOL    HW299319   6.055   2.464   2.648 -0.5758 -0.3453 -0.7976
32438SOL     OW99320   8.455   3.871   9.555 -0.1362 -0.1050  0.0212
32438SOL    HW199321   8.496   3.946   9.598  2.3750 -1.1181 -0.4123
32438SOL    HW299322   8.519   3.843   9.490 -0.6670 -3.0247  0.6112
32439SOL     OW99323   7.258   3.074   0.737 -0.4446 -0.3007  0.3371
32439SOL    HW199324   7.287   3.008   0.800 -1.5516 -1.2170 -0.0670
32439SOL    HW299325   7.224   3.145   0.791  0.3646 -0.2426  0.7780
32440SOL     OW99326   7.875   4.551   7.577 -0.2365  0.0151  0.4864
32440SOL    HW199327   7.909   4.488   7.641  0.6562 -0.3533 -0.3320
32440SOL    HW299328   7.926   4.535   7.498  0.1153  1.8700  0.3061
32441SOL     OW99329   7.835   1.151   6.250 -0.0202 -1.0190 -0.2939
32441SOL    HW199330   7.842   1.224   6.188 -0.3341  0.0272  0.8596
32441SOL    HW299331   7.807   1.077   6.198  0.0688 -0.2503 -1.4601
32442SOL     OW99332   7.368   7.960   0.901 -0.5966 -0.4439 -0.2307
32442SOL    HW199333   7.382   7.998   0.988 -0.7415  0.7894 -0.7209
32442SOL    HW299334   7.281   7.921   0.907 -1.5805  1.5660 -0.4275
32443SOL     OW99335   2.486   5.674   2.716 -0.1725 -0.2464 -0.0630
32443SOL    HW199336   2.451   5.707   2.634 -1.2446 -1.3162 -0.0706
32443SOL    HW299337   2.529   5.591   2.692  1.5586  0.5547  0.1074
32444SOL     OW99338   8.200   3.827  10.619 -0.5737  0.0883 -0.0206
32444SOL    HW199339   8.197   3.922  10.607  1.0174  0.0370 -1.1310
32444SOL    HW299340   8.113   3.797  10.594 -1.3437  1.3029  1.0610
32445SOL     OW99341   3.075   0.097   9.225  0.3283  0.0794 -0.1623
32445SOL    HW199342   2.992   0.060   9.193 -1.0147  0.6345  2.3758
32445SOL    HW299343   3.072   0.189   9.199  1.2749 -0.3637 -2.0220
32446SOL     OW99344   3.984   4.572   6.413  0.0263  0.0493  0.1202
32446SOL    HW199345   4.040   4.649   6.414  0.9516 -0.5276 -1.9872
32446SOL    HW299346   4.008   4.523   6.491 -0.3089  1.6532  1.2916
32447SOL     OW99347   4.243  10.691   6.719  0.1999  0.3666 -0.3866
32447SOL    HW199348   4.313  10.755   6.734  1.0735 -0.0250 -2.4058
32447SOL    HW299349   4.242  10.679   6.624 -1.5143 -0.8886 -0.2509
32448SOL     OW99350   2.440   3.805  10.509  0.4995  0.6225 -0.4687
32448SOL    HW199351   2.344   3.810  10.501  0.3547  0.9295  1.1568
32448SOL    HW299352   2.455   3.725  10.559  1.1095  0.5641 -0.7438
32449SOL     OW99353   6.716  10.341   7.328 -0.2618  0.1008  0.2890
32449SOL    HW199354   6.687  10.379   7.411  0.4249 -1.0517  1.0873
32449SOL    HW299355   6.783  10.402   7.296 -0.2961  0.3844  0.7423
32450SOL     OW99356   8.441   3.619   9.434  0.5257  0.5588  0.7369
32450SOL    HW199357   8.506   3.666   9.382  0.5587  0.2353  0.4821
32450SOL    HW299358   8.404   3.685   9.493 -0.4028  1.1981 -0.5355
32451SOL     OW99359   2.857   4.485   2.618  0.6194  0.0459  0.2339
32451SOL    HW199360   2.838   4.394   2.642 -0.1428 -0.5280 -2.2422
32451SOL    HW299361   2.773   4.521   2.593  1.3674  0.4109 -1.9032
32452SOL     OW99362   9.402  10.641   1.910  0.1558 -0.2458 -0.0067
32452SOL    HW199363   9.417  10.735   1.903 -0.7396 -0.0819  0.1611
32452SOL    HW299364   9.477  10.608   1.960  1.1702  0.1648 -1.2129
32453SOL     OW99365   3.044   8.395   4.392 -0.2805 -0.4147  0.4607
32453SOL    HW199366   2.976   8.369   4.331 -1.9151  0.8274  1.6692
32453SOL    HW299367   3.010   8.372   4.478  1.7313 -1.6140  1.0226
32454SOL     OW99368   2.812   3.319   2.854 -0.0794 -0.3685  0.5203
32454SOL    HW199369   2.781   3.289   2.940 -1.0445  0.5318  0.5167
32454SOL    HW299370   2.803   3.415   2.858  1.9920 -0.1274  0.2060
32455SOL     OW99371   3.105   0.293   5.913 -0.4651  0.5561  0.3412
32455SOL    HW199372   3.021   0.247   5.908  0.7639 -1.8335 -0.2009
32455SOL    HW299373   3.099   0.348   5.991 -2.4876  0.4009  0.3386
32456SOL     OW99374   6.437  10.790   9.633  0.4541 -0.1570  0.4603
32456SOL    HW199375   6.474  10.868   9.592  1.1628 -1.0702 -0.7197
32456SOL    HW299376   6.474  10.717   9.583 -3.1139 -1.1861 -0.9886
32457SOL     OW99377   8.509   2.203   9.535 -0.3174  0.7669 -0.5952
32457SOL    HW199378   8.439   2.140   9.555  0.5844 -0.0124  0.2521
32457SOL    HW299379   8.499   2.222   9.442 -1.4474  0.4168 -0.5583
32458SOL     OW99380   6.214   7.299   3.859  0.1811  0.3170 -0.5302
32458SOL    HW199381   6.195   7.215   3.818 -1.3110  0.3908 -0.0418
32458SOL    HW299382   6.172   7.294   3.945  4.2647 -0.3420  1.7115
32459SOL     OW99383   4.051   9.642   8.107 -0.4452  0.1061 -0.1478
32459SOL    HW199384   4.040   9.659   8.014  2.1754  0.6726 -0.4382
32459SOL    HW299385   4.105   9.563   8.111  0.0467  0.4723  0.8485
32460SOL     OW99386   4.566   4.189  10.676 -0.2928 -0.4657  0.6872
32460SOL    HW199387   4.618   4.250  10.728 -2.6725  1.5933  0.8287
32460SOL    HW299388   4.488   4.174  10.729 -1.0486 -1.3758 -0.6353
32461SOL     OW99389   5.331  10.084   9.756  0.0910  0.4777 -0.0119
32461SOL    HW199390   5.417  10.057   9.789  0.3525  1.2009 -0.0893
32461SOL    HW299391   5.346  10.108   9.665 -0.2461  0.3630 -0.1001
32462SOL     OW99392   6.775   9.516   6.700 -0.2541 -0.3618 -0.7477
32462SOL    HW199393   6.680   9.515   6.695 -0.2587 -0.7662 -0.5788
32462SOL    HW299394   6.798   9.435   6.744  0.0881  0.5698  0.8441
32463SOL     OW99395   0.246   8.420   1.890  0.4449 -0.1041 -0.1401
32463SOL    HW199396   0.234   8.495   1.831  0.2987  0.8473  1.0526
32463SOL    HW299397   0.304   8.453   1.959 -0.9661 -0.5519  1.3133
32464SOL     OW99398   1.224   7.999   3.446  0.0463 -0.0608  0.3924
32464SOL    HW199399   1.226   7.945   3.367  1.9150 -1.7951  1.5259
32464SOL    HW299400   1.159   7.958   3.503  0.3131 -0.1834  0.6162
32465SOL     OW99401   7.884   7.748  10.669 -0.1058 -0.0516 -0.0384
32465SOL    HW199402   7.793   7.762  10.698 -0.4408  0.7453 -1.3680
32465SOL    HW299403   7.913   7.671  10.718 -1.2807  0.0663  0.8947
32466SOL     OW99404   6.364   8.910   6.710  0.2620  0.3284  0.3025
32466SOL    HW199405   6.414   8.963   6.772  0.9115  0.5787 -0.4134
32466SOL    HW299406   6.426   8.892   6.639 -0.6547  0.6181 -0.6007
32467SOL     OW99407   4.292   6.101   2.098  0.2580 -0.3516  0.5919
32467SOL    HW199408   4.286   6.081   2.192  0.1090 -1.1244  0.4253
32467SOL    HW299409   4.227   6.044   2.057 -2.7612  2.9395  0.3709
32468SOL     OW99410   0.570   8.789  10.409 -0.4605 -0.2395  0.1574
32468SOL    HW199411   0.660   8.758  10.421 -1.3459 -2.8627  0.7073
32468SOL    HW299412   0.551   8.838  10.489 -0.2562 -1.7793  1.2108
32469SOL     OW99413   6.292   9.202   0.558 -0.1758  0.1592 -0.2326
32469SOL    HW199414   6.221   9.140   0.538 -0.5730  0.3170  0.6239
32469SOL    HW299415   6.322   9.176   0.645  0.7245  0.1944 -0.5216
32470SOL     OW99416   2.806   9.811  10.781 -1.2774 -0.2829  0.3644
32470SOL    HW199417   2.724   9.831  10.737 -0.8100 -0.1453 -0.4549
32470SOL    HW299418   2.842   9.897  10.805 -0.4717 -0.2371 -0.9485
32471SOL     OW99419   7.783   6.737   8.219 -0.1512  0.4620 -0.0026
32471SOL    HW199420   7.742   6.739   8.305  0.5377  0.6199  0.3310
32471SOL    HW299421   7.806   6.829   8.201  0.6939  0.2947  0.1426
32472SOL     OW99422   5.925   3.603   4.974 -0.6523  0.2006  0.5414
32472SOL    HW199423   5.884   3.687   4.991  0.2273  0.9018 -0.6977
32472SOL    HW299424   6.007   3.624   4.930 -0.5096 -1.3112  0.0270
32473SOL     OW99425   2.020   5.535   2.918  0.2773 -0.3714  0.2989
32473SOL    HW199426   2.015   5.446   2.883 -0.4370 -0.2440  0.0543
32473SOL    HW299427   2.110   5.563   2.902  1.2710 -1.9365  2.5664
32474SOL     OW99428  10.258   2.758   8.628  0.2971  0.1323  0.2834
32474SOL    HW199429  10.318   2.815   8.580  0.2302 -0.3982 -0.4426
32474SOL    HW299430  10.180   2.810   8.641  1.0799  1.0255  1.7093
32475SOL     OW99431   2.649   3.131   0.382 -0.0020  0.2593 -0.3611
32475SOL    HW199432   2.574   3.173   0.338 -1.3665 -0.5423  1.1134
32475SOL    HW299433   2.723   3.149   0.324 -1.6275 -0.4806 -2.8470
32476SOL     OW99434   7.065   4.934   5.930 -0.5174  0.2099 -0.8039
32476SOL    HW199435   7.090   4.988   5.855 -0.9576 -0.6673 -1.6182
32476SOL    HW299436   7.143   4.929   5.984 -0.4028  1.4353 -0.8468
32477SOL     OW99437   3.035   9.861   8.107 -0.0303  0.3079  0.2813
32477SOL    HW199438   3.056   9.906   8.189 -2.0281  0.2384  0.9015
32477SOL    HW299439   3.008   9.931   8.048  2.6759  0.5168 -0.8537
32478SOL     OW99440   7.562  10.544   3.342  0.6206  0.0760  0.8335
32478SOL    HW199441   7.613  10.465   3.328  1.2524  0.5643  0.3389
32478SOL    HW299442   7.562  10.588   3.257  0.1013  0.5134  1.0506
32479SOL     OW99443   7.957   0.034   6.174 -0.7803  0.1626 -0.0834
32479SOL    HW199444   7.939   0.121   6.139  2.1797  0.9627  0.1537
32479SOL    HW299445   7.949   0.044   6.269 -1.4384 -0.0971 -0.1086
32480SOL     OW99446   6.675   1.027   8.885 -0.5362 -0.0613  0.2501
32480SOL    HW199447   6.583   1.051   8.894 -1.1214 -2.6326  2.2784
32480SOL    HW299448   6.674   0.935   8.859  1.4692 -0.3367  0.9312
32481SOL     OW99449   8.515   1.610  10.279  0.9710  0.5021 -0.2397
32481SOL    HW199450   8.441   1.574  10.230 -0.8623  0.6593  2.2081
32481SOL    HW299451   8.586   1.547  10.266 -0.1798 -0.6720 -1.1175
32482SOL     OW99452   1.749  10.500  10.207 -0.9769  0.2257  0.2152
32482SOL    HW199453   1.737  10.589  10.173 -0.0387  0.8307  1.3893
32482SOL    HW299454   1.673  10.485  10.263 -1.4198  0.0625 -0.4201
32483SOL     OW99455   7.257   5.689   7.811  0.0984 -0.4831  0.3421
32483SOL    HW199456   7.259   5.594   7.809 -0.0664 -0.4822 -0.8955
32483SOL    HW299457   7.281   5.715   7.722 -0.5712  0.6120  0.4661
32484SOL     OW99458   2.283   8.503   4.012  0.2550  0.1091  0.1307
32484SOL    HW199459   2.326   8.577   4.054 -1.7230  1.5333 -0.2314
32484SOL    HW299460   2.189   8.516   4.029 -0.3134 -1.2131 -1.6595
32485SOL     OW99461   0.052   5.502   7.887  0.8386  0.2450 -0.1687
32485SOL    HW199462   0.138   5.527   7.922  0.5199  1.5204 -0.2664
32485SOL    HW299463  -0.002   5.581   7.896 -0.7418 -0.9221  1.1250
32486SOL     OW99464   9.219   9.776   6.815 -0.7265  0.3679 -0.1127
32486SOL    HW199465   9.277   9.708   6.852 -1.4555 -0.4026 -0.3565
32486SOL    HW299466   9.253   9.790   6.727  0.3541  1.4343  0.4352
32487SOL     OW99467   5.802   4.109   7.404 -0.1429  0.1917  0.4476
32487SOL    HW199468   5.894   4.114   7.376 -0.5295 -1.1416 -1.3129
32487SOL    HW299469   5.806   4.074   7.493  1.0516 -2.2643 -0.4594
32488SOL     OW99470   6.106   0.817   0.040 -0.4101  0.0958 -0.7108
32488SOL    HW199471   6.172   0.811   0.108  2.0494 -1.5231 -3.0276
32488SOL    HW299472   6.023   0.810   0.086  1.0788 -0.3479  2.1239
32489SOL     OW99473   2.090   5.591   3.673  0.1453 -0.1677  0.0982
32489SOL    HW199474   2.029   5.625   3.739  0.8471  1.2827  0.0279
32489SOL    HW299475   2.170   5.642   3.684  0.0505  0.6741 -2.3321
32490SOL     OW99476   9.376   7.852   4.839 -0.4718 -0.3655 -0.0708
32490SOL    HW199477   9.456   7.806   4.867  0.3944  1.3339  0.4076
32490SOL    HW299478   9.396   7.881   4.750  0.1832  1.5033  0.6227
32491SOL     OW99479   6.871   0.407   1.929  0.0380  0.1316 -0.1167
32491SOL    HW199480   6.788   0.374   1.894 -0.2703 -1.2336  1.7280
32491SOL    HW299481   6.859   0.405   2.024  2.6088 -1.3678  0.2560
32492SOL     OW99482   6.607   4.273   8.200  0.5101  0.2913 -0.0299
32492SOL    HW199483   6.626   4.249   8.109 -0.0120 -2.1364  0.4240
32492SOL    HW299484   6.552   4.351   8.193  0.8692  0.4350 -1.7727
32493SOL     OW99485   7.906   9.913   7.072  0.1986 -0.1962  0.0755
32493SOL    HW199486   7.861   9.835   7.039  0.0100  0.0794 -0.3219
32493SOL    HW299487   7.960   9.880   7.144  1.0614 -0.9300 -0.8605
32494SOL     OW99488   3.785   7.616   3.470 -0.2441 -0.5891  0.0164
32494SOL    HW199489   3.864   7.652   3.430 -0.3697  0.2069  0.4714
32494SOL    HW299490   3.810   7.595   3.559 -0.7192  0.3442  0.3894
32495SOL     OW99491   8.088  10.750   4.683  0.2022 -0.0283 -0.4534
32495SOL    HW199492   8.100  10.722   4.592 -1.5952 -0.0660 -0.6970
32495SOL    HW299493   8.141  10.688   4.733 -0.2132 -1.1463 -1.3405
32496SOL     OW99494   9.693   9.837   2.515  0.1723  0.2581 -0.2226
32496SOL    HW199495   9.632   9.905   2.544  0.6111  0.2302  0.8079
32496SOL    HW299496   9.675   9.827   2.421  0.1442  1.8359 -0.4173
32497SOL     OW99497   6.241   4.687   7.332 -0.0066  0.0989  0.5206
32497SOL    HW199498   6.263   4.637   7.253 -0.5735  1.9188 -0.8604
32497SOL    HW299499   6.233   4.777   7.302  0.4155  0.9669  2.8155
32498SOL     OW99500   0.800   0.044   4.419 -0.3398  0.3429  0.1707
32498SOL    HW199501   0.748   0.124   4.429  0.4052  0.9821 -0.8350
32498SOL    HW299502   0.749  -0.011   4.360 -0.2737  0.6116 -0.1394
32499SOL     OW99503   5.105   7.305   5.611 -0.1877  0.0016  0.5801
32499SOL    HW199504   5.129   7.237   5.674 -0.4351  0.4535  1.1768
32499SOL    HW299505   5.048   7.261   5.548  1.4197 -0.8697 -0.3282
32500SOL     OW99506   4.469   3.204   0.564 -0.0046 -0.4404 -0.2881
32500SOL    HW199507   4.440   3.266   0.497  2.6590  0.6829 -0.5185
32500SOL    HW299508   4.467   3.255   0.645  1.9202 -0.0847 -0.4310
32501SOL     OW99509   8.425   8.342   3.015  0.3227  0.3995 -0.3098
32501SOL    HW199510   8.447   8.269   3.074  0.7674 -0.3813 -1.4173
32501SOL    HW299511   8.330   8.340   3.009  0.3349 -0.1318 -0.3885
32502SOL     OW99512   0.195   2.243  10.615 -0.3546 -0.3023 -1.0256
32502SOL    HW199513   0.109   2.210  10.589  0.0580 -1.7831 -0.5841
32502SOL    HW299514   0.210   2.205  10.701 -0.6989  2.6692  0.4646
32503SOL     OW99515   8.721   2.606   0.074  0.6047 -0.1196  0.3337
32503SOL    HW199516   8.815   2.605   0.059  0.8238  0.3145  1.6161
32503SOL    HW299517   8.709   2.653   0.156 -0.8294  1.1411 -0.5176
32504SOL     OW99518   6.545   0.662  10.065  0.5790  0.1835 -0.4032
32504SOL    HW199519   6.638   0.647  10.043  0.8993  0.1094  0.9262
32504SOL    HW299520   6.548   0.703  10.152 -0.6300  0.5551 -0.5289
32505SOL     OW99521   8.170   7.856   1.715  0.1823  0.4722  0.0462
32505SOL    HW199522   8.173   7.870   1.810  2.0266  1.1341 -0.0603
32505SOL    HW299523   8.262   7.846   1.690 -0.3843 -2.1537 -1.3525
32506SOL     OW99524   8.484   7.399   9.954  0.0556  0.5565  0.6107
32506SOL    HW199525   8.517   7.361   9.872 -0.8920  0.2100  0.3791
32506SOL    HW299526   8.396   7.364   9.963  0.4648 -0.1248  2.2685
32507SOL     OW99527   1.413   1.686   3.575 -0.2460  0.2802  0.2476
32507SOL    HW199528   1.460   1.769   3.570 -1.8378  1.2401  0.4593
32507SOL    HW299529   1.320   1.711   3.573 -0.7621 -1.4863  0.4750
32508SOL     OW99530   5.790   0.190   0.478 -0.2043  0.3273 -0.4469
32508SOL    HW199531   5.810   0.147   0.560 -1.3445  0.6984  0.0467
32508SOL    HW299532   5.871   0.184   0.427  1.0686  1.5567  1.3191
32509SOL     OW99533  10.436   4.239  10.571  0.2540 -0.3695 -0.3266
32509SOL    HW199534  10.407   4.148  10.565  0.1458 -0.2799 -1.3422
32509SOL    HW299535  10.521   4.234  10.613 -0.4711 -0.7891  1.1450
32510SOL     OW99536   1.132   3.298   4.344  0.5148 -0.1594 -0.5873
32510SOL    HW199537   1.206   3.337   4.298  0.4775 -0.6562 -1.0799
32510SOL    HW299538   1.170   3.258   4.422  0.7806 -0.4382 -0.8529
32511SOL     OW99539   9.715   8.761   9.457 -0.5092 -0.2146 -0.7552
32511SOL    HW199540   9.645   8.817   9.426 -0.7667 -0.3758 -0.4718
32511SOL    HW299541   9.791   8.820   9.465 -0.2891 -0.2749 -2.1613
32512SOL     OW99542   7.635   5.724  10.433 -0.4575  0.3134  0.0418
32512SOL    HW199543   7.558   5.778  10.418 -0.5263  0.0231 -0.6543
32512SOL    HW299544   7.679   5.720  10.348 -1.0181 -1.5889 -0.1993
32513SOL     OW99545   3.663   8.462   6.306  0.0931  0.0569  0.2048
32513SOL    HW199546   3.587   8.465   6.248 -0.8922  1.9477  1.4809
32513SOL    HW299547   3.683   8.369   6.315 -0.7452 -0.3728 -1.7981
32514SOL     OW99548   3.059   3.486   4.979  0.1158 -0.7934 -0.0110
32514SOL    HW199549   3.109   3.495   5.059 -1.9863 -0.4657  1.3304
32514SOL    HW299550   3.091   3.556   4.922  0.4206  0.0984  1.2247
32515SOL     OW99551   9.182   3.667  10.397 -0.1632 -0.3116 -0.0486
32515SOL    HW199552   9.177   3.581  10.355 -4.3436 -0.3305  0.0516
32515SOL    HW299553   9.156   3.652  10.488  3.6132  0.5357  1.3649
32516SOL     OW99554   2.817   8.313   4.558  0.8637 -0.3022 -0.2654
32516SOL    HW199555   2.795   8.249   4.490  2.7042 -0.3310 -0.8919
32516SOL    HW299556   2.810   8.265   4.640  0.8599 -0.9225 -0.6204
32517SOL     OW99557  10.449   5.735   1.558  0.0374 -0.0102 -0.2823
32517SOL    HW199558  10.539   5.741   1.527 -0.2570 -0.3752 -1.2622
32517SOL    HW299559  10.427   5.642   1.550 -1.1009  0.3633 -2.1130
32518SOL     OW99560   5.975   6.642   2.740 -0.3109  0.8916 -0.4849
32518SOL    HW199561   5.920   6.718   2.757  1.3541  1.9068  0.6248
32518SOL    HW299562   5.959   6.584   2.815 -0.1241  1.0335 -0.3350
32519SOL     OW99563   4.931   0.320   5.561  0.4219  0.3502 -0.1544
32519SOL    HW199564   4.952   0.236   5.604 -1.9526  0.1327  0.7695
32519SOL    HW299565   5.012   0.370   5.566  1.6754 -1.5662  0.0385
32520SOL     OW99566   4.303   8.348   8.576  0.4914 -0.5316  0.4294
32520SOL    HW199567   4.377   8.395   8.538 -0.2976 -0.4435 -1.0582
32520SOL    HW299568   4.226   8.384   8.532 -0.6112  0.3023  2.8279
32521SOL     OW99569   5.137   4.893   3.004  0.4683 -0.4261  0.1313
32521SOL    HW199570   5.149   4.942   2.922 -0.1743 -3.7740 -2.1813
32521SOL    HW299571   5.071   4.943   3.052  0.8720  1.6675 -1.3214
32522SOL     OW99572   9.045   0.899   7.476 -0.3075 -0.3253 -0.2545
32522SOL    HW199573   9.140   0.895   7.491 -0.5506 -1.3090  1.2852
32522SOL    HW299574   9.012   0.817   7.513 -1.4345 -1.6103 -3.7666
32523SOL     OW99575   8.807   0.105   2.370  0.2989 -0.2624  0.3847
32523SOL    HW199576   8.807   0.104   2.274  0.4034  1.0627  0.3479
32523SOL    HW299577   8.802   0.013   2.395 -2.3768 -0.5533 -0.8884
32524SOL     OW99578   2.821   4.255   9.900 -0.3229 -0.1211 -0.2271
32524SOL    HW199579   2.796   4.294   9.817  1.1923  0.3291 -0.5048
32524SOL    HW299580   2.915   4.274   9.908 -0.5786  0.5073  1.9172
32525SOL     OW99581   0.800   7.213   1.505 -0.1075  0.5103 -0.2025
32525SOL    HW199582   0.780   7.297   1.548 -0.3563  1.4180 -1.9846
32525SOL    HW299583   0.744   7.213   1.428 -1.0154 -1.8921  0.3826
32526SOL     OW99584   0.189   9.138   7.238 -0.1783  0.0181 -0.0464
32526SOL    HW199585   0.188   9.199   7.312 -0.4415  1.3599 -1.1017
32526SOL    HW299586   0.097   9.119   7.222 -0.1589  0.1929 -0.3763
32527SOL     OW99587   4.546   1.039   8.624 -0.4364  0.1261  0.3253
32527SOL    HW199588   4.470   1.084   8.662 -0.5902  0.9549 -0.9258
32527SOL    HW299589   4.547   1.066   8.533 -0.1883 -1.9730 -0.3577
32528SOL     OW99590   3.156   0.458   3.473  0.6646  0.3787  0.3602
32528SOL    HW199591   3.095   0.524   3.440 -0.3512  0.6104  2.4951
32528SOL    HW299592   3.215   0.508   3.531  2.0624 -0.0666 -0.6429
32529SOL     OW99593   1.599   7.310   5.611 -0.5976 -0.2161  0.9045
32529SOL    HW199594   1.594   7.217   5.633 -0.1045 -0.6262 -0.5967
32529SOL    HW299595   1.599   7.312   5.515  0.7310  1.2484  0.8964
32530SOL     OW99596   1.545   0.758   3.577 -0.0505 -0.3190  0.7359
32530SOL    HW199597   1.520   0.684   3.522 -0.5207 -0.3941  1.0396
32530SOL    HW299598   1.513   0.835   3.529  1.3582 -0.2173 -0.0886
32531SOL     OW99599   9.153   0.150   6.068  0.3656  0.3218  0.0100
32531SOL    HW199600   9.096   0.214   6.025 -1.0804 -1.5058 -0.9439
32531SOL    HW299601   9.184   0.194   6.147 -2.2664  1.4892  0.4839
32532SOL     OW99602   1.684   6.124   9.031 -0.8123  0.4927 -0.8921
32532SOL    HW199603   1.682   6.131   8.935  2.3645  1.9528 -0.9837
32532SOL    HW299604   1.625   6.193   9.062 -2.2508 -0.3091 -1.7409
32533SOL     OW99605   2.227   4.735  10.166 -0.3630 -0.2124 -0.0207
32533SOL    HW199606   2.168   4.660  10.177 -1.0455  0.4998  1.3247
32533SOL    HW299607   2.310   4.696  10.139 -1.3422 -1.2588 -1.6991
32534SOL     OW99608   2.257   7.113   2.683 -0.2972  0.1749 -0.2681
32534SOL    HW199609   2.296   7.177   2.622 -0.5145  0.1204 -0.4631
32534SOL    HW299610   2.297   7.135   2.767  1.2375 -0.7729 -0.7090
32535SOL     OW99611   8.763   7.261   2.969 -0.0234  0.2374  0.1611
32535SOL    HW199612   8.794   7.329   2.909 -1.2499 -0.0844 -0.8820
32535SOL    HW299613   8.829   7.258   3.038  0.6920  1.6120 -0.4276
32536SOL     OW99614   3.899   7.366   2.684 -0.3016 -1.2854  1.0448
32536SOL    HW199615   3.866   7.447   2.645 -1.5245 -0.7443  3.0608
32536SOL    HW299616   3.994   7.378   2.687 -0.4305 -0.1336  0.8791
32537SOL     OW99617   5.296   4.465   8.253 -0.1832  0.8237 -0.0510
32537SOL    HW199618   5.359   4.468   8.325  1.3715 -1.2717 -1.2467
32537SOL    HW299619   5.323   4.536   8.195  0.9330  0.1296 -0.4071
32538SOL     OW99620   2.769   0.361   1.915 -0.2389 -0.4611  0.1837
32538SOL    HW199621   2.832   0.368   1.844  0.2413 -1.5067  0.4825
32538SOL    HW299622   2.704   0.298   1.883 -1.2564  0.7254 -0.1898
32539SOL     OW99623   0.180   4.474   5.173 -0.7105 -0.2608  0.4596
32539SOL    HW199624   0.145   4.555   5.211 -1.0960  0.3138 -1.0120
32539SOL    HW299625   0.145   4.404   5.227 -0.5846  0.5339  1.6124
32540SOL     OW99626   0.877   8.760   5.787  0.1490  0.0359 -0.4429
32540SOL    HW199627   0.910   8.841   5.826 -0.2457 -0.2837  0.5818
32540SOL    HW299628   0.821   8.790   5.715  0.7447  0.6451 -0.6642
32541SOL     OW99629   3.364   9.584   4.757 -0.0446 -0.1849 -0.5397
32541SOL    HW199630   3.395   9.506   4.712  2.4548  0.7749 -0.6319
32541SOL    HW299631   3.357   9.650   4.688 -0.5387  0.1204 -0.2073
32542SOL     OW99632   9.193   4.248   7.341  0.1116  0.3978  0.0125
32542SOL    HW199633   9.209   4.218   7.252  0.9184 -0.4446  0.4257
32542SOL    HW299634   9.233   4.181   7.397 -0.2246  0.9985  1.0047
32543SOL     OW99635   4.455   2.570   4.358 -0.2823  0.0895  0.9114
32543SOL    HW199636   4.369   2.536   4.335 -0.9025  1.1817  1.4861
32543SOL    HW299637   4.495   2.596   4.275 -1.4683  1.6880  0.7907
32544SOL     OW99638   2.866  10.235   5.741 -0.3482 -0.1795 -0.5801
32544SOL    HW199639   2.851  10.223   5.647 -0.2066 -0.5783 -0.5570
32544SOL    HW299640   2.951  10.279   5.746  0.1878 -1.1802 -0.6138
32545SOL     OW99641   4.778   9.100   8.042  0.3199 -0.0506 -0.1382
32545SOL    HW199642   4.799   9.012   8.076 -0.1100 -0.3093 -0.5328
32545SOL    HW299643   4.719   9.138   8.107  1.4430  0.4290  0.6497
32546SOL     OW99644   1.913  10.856   2.057  0.1256 -0.0526 -0.3132
32546SOL    HW199645   1.858  10.888   2.129  2.5518  0.7033  1.3386
32546SOL    HW299646   1.861  10.873   1.978 -0.6509  3.9037  0.8059
32547SOL     OW99647   3.058   3.190   5.360  0.4487  0.1131 -0.0756
32547SOL    HW199648   3.013   3.237   5.430  2.1182  0.1621  0.9921
32547SOL    HW299649   3.137   3.155   5.400  0.1323 -2.1875 -1.2526
32548SOL     OW99650   9.042   4.485   7.152  0.2774 -0.0822  0.4751
32548SOL    HW199651   9.082   4.439   7.078 -0.6484 -1.3245  0.7233
32548SOL    HW299652   8.969   4.534   7.114 -0.8387 -1.5257  0.6654
32549SOL     OW99653   3.629   5.550   1.399 -0.1644  0.5929  0.3256
32549SOL    HW199654   3.562   5.567   1.333  1.0637 -1.1290 -1.4527
32549SOL    HW299655   3.683   5.629   1.399 -0.9800  1.1625  0.2998
32550SOL     OW99656   7.623   6.797   7.060  0.1953  0.7098 -0.0166
32550SOL    HW199657   7.594   6.866   7.000 -2.0258  0.5620  0.8091
32550SOL    HW299658   7.542   6.761   7.096  1.3830 -1.0182  1.0562
32551SOL     OW99659   5.466   4.259   9.175  0.0970  0.6816 -0.1384
32551SOL    HW199660   5.427   4.207   9.245  1.4965  0.1589  0.2947
32551SOL    HW299661   5.522   4.322   9.220  0.9443  0.4011 -0.7590
32552SOL     OW99662   4.912   5.660   1.219 -0.4551  0.1352  0.1292
32552SOL    HW199663   4.973   5.678   1.290 -1.1010  1.5616  0.3573
32552SOL    HW299664   4.828   5.647   1.262 -0.5363 -0.7010 -0.2635
32553SOL     OW99665   5.940   4.507  10.368  0.0556  0.1459 -0.1917
32553SOL    HW199666   5.972   4.441  10.430  1.6597 -0.2260 -1.3532
32553SOL    HW299667   5.966   4.591  10.408  0.2027 -0.0427  0.1130
32554SOL     OW99668   7.689   7.002   1.824 -0.0703  0.7215  0.5366
32554SOL    HW199669   7.738   7.081   1.801 -1.3325  1.0991 -1.0435
32554SOL    HW299670   7.679   6.955   1.741 -1.6787  0.2622  0.9500
32555SOL     OW99671   0.656   4.281   6.372  0.2809 -0.2617  0.1321
32555SOL    HW199672   0.694   4.335   6.442  2.8794 -1.6936 -0.0320
32555SOL    HW299673   0.619   4.206   6.417  3.0758 -1.8195  0.0334
32556SOL     OW99674   8.839   3.623  10.503 -0.6868  0.6087  0.0264
32556SOL    HW199675   8.919   3.632  10.554  0.3494 -1.2527 -1.1457
32556SOL    HW299676   8.846   3.537  10.461 -2.2772  1.2967 -1.8504
32557SOL     OW99677   4.689   1.398   1.743 -0.0625  0.0054  0.1989
32557SOL    HW199678   4.596   1.406   1.723 -0.6192 -1.5264  1.9245
32557SOL    HW299679   4.711   1.309   1.717  0.4503 -0.2592  1.4807
32558SOL     OW99680   1.441  10.052   9.422  0.0752  0.3114  0.0645
32558SOL    HW199681   1.504  10.110   9.380  0.5487  0.4013  0.8786
32558SOL    HW299682   1.434  10.084   9.512 -1.4587  0.5691 -0.1135
32559SOL     OW99683   0.141   3.177   0.099 -0.1205 -0.4139  0.2830
32559SOL    HW199684   0.071   3.140   0.045 -0.4167 -0.0775  0.4313
32559SOL    HW299685   0.216   3.120   0.083 -0.3283 -0.5741 -0.1457
32560SOL     OW99686  10.196   2.125   2.449 -0.2803 -0.3771  0.7787
32560SOL    HW199687  10.180   2.219   2.439  0.0091 -0.3396  0.6494
32560SOL    HW299688  10.291   2.118   2.457 -0.0110 -0.8958 -1.9388
32561SOL     OW99689   7.930   2.549   9.213 -0.1064  0.4494 -0.2222
32561SOL    HW199690   7.855   2.604   9.234 -0.5717 -0.3220  0.1595
32561SOL    HW299691   7.913   2.466   9.258  2.1147  1.0270  1.8890
32562SOL     OW99692   1.733   5.851   7.471 -0.1061 -0.3370  0.1366
32562SOL    HW199693   1.816   5.893   7.450  0.7425 -1.5342  1.0059
32562SOL    HW299694   1.667   5.910   7.434  1.0587  1.3144  0.5770
32563SOL     OW99695   5.579   7.525   1.527  0.0956  0.3118  0.3414
32563SOL    HW199696   5.492   7.549   1.494  0.4460  1.5763  0.2723
32563SOL    HW299697   5.602   7.596   1.587  1.7257  0.8234 -0.8083
32564SOL     OW99698   2.512   1.168   3.239  0.2567  0.5129  0.8753
32564SOL    HW199699   2.455   1.188   3.313 -1.5768 -0.5918 -0.1603
32564SOL    HW299700   2.515   1.072   3.236 -3.3864  0.2286 -2.9631
32565SOL     OW99701   3.929  10.197  10.016 -0.0348 -0.0491  0.1346
32565SOL    HW199702   4.019  10.198  10.049  0.1208  0.5948 -0.2919
32565SOL    HW299703   3.932  10.251   9.937 -1.3461  2.3945  1.6262
32566SOL     OW99704   5.213   1.996   6.951 -0.1956  0.3596 -0.1185
32566SOL    HW199705   5.233   1.976   6.859  1.3615 -1.3575  0.5268
32566SOL    HW299706   5.211   2.091   6.955 -1.9404  0.5003 -2.2428
32567SOL     OW99707   8.820   5.050  10.796  0.0307  0.1560 -0.0694
32567SOL    HW199708   8.724   5.054  10.792 -0.0501  0.3840  1.5389
32567SOL    HW299709   8.838   4.973  10.850  0.7588  0.2105 -0.2236
32568SOL     OW99710   9.610   2.370   5.411  0.2405 -0.6221 -0.2069
32568SOL    HW199711   9.583   2.438   5.473 -0.6635 -1.4877  0.3739
32568SOL    HW299712   9.685   2.408   5.365 -0.1313  0.6970  0.2306
32569SOL     OW99713   3.151   9.020   1.770  0.1911 -0.1013 -0.3152
32569SOL    HW199714   3.151   9.115   1.764  1.1098  0.0282  1.1466
32569SOL    HW299715   3.075   8.992   1.720  1.2132  1.2308 -2.7367
32570SOL     OW99716   5.597   2.786   6.609 -0.7429  0.0580 -0.5226
32570SOL    HW199717   5.533   2.838   6.560 -1.4137 -0.4334 -0.1874
32570SOL    HW299718   5.567   2.792   6.700 -0.2323 -0.0677 -0.3448
32571SOL     OW99719   5.839   2.500   7.753 -0.1767  0.1459 -0.3864
32571SOL    HW199720   5.788   2.576   7.727 -0.3088  0.3392  0.3986
32571SOL    HW299721   5.930   2.524   7.737 -0.0949  1.0597  1.2402
32572SOL     OW99722  10.118   5.240   7.867  0.6753  0.0567  0.9079
32572SOL    HW199723  10.109   5.336   7.863  0.9087  0.0455 -1.1359
32572SOL    HW299724  10.105   5.219   7.959 -0.6969  1.9285  1.2165
32573SOL     OW99725   7.411   7.225   8.275 -0.1995 -0.0816  0.4108
32573SOL    HW199726   7.412   7.160   8.345  0.3061  1.1862  1.6280
32573SOL    HW299727   7.351   7.293   8.306  0.7154  0.9227  0.0567
32574SOL     OW99728  10.617   4.980  10.673  0.1927 -0.4772  0.0998
32574SOL    HW199729  10.632   4.911  10.739 -2.5288  0.3243  1.7098
32574SOL    HW299730  10.579   5.052  10.723 -0.7562  0.6823 -2.1975
32575SOL     OW99731   5.445   7.275   3.091  0.0100 -0.0943  0.1680
32575SOL    HW199732   5.439   7.277   3.187 -1.5308  2.6833  0.1256
32575SOL    HW299733   5.506   7.345   3.069 -1.0593  0.5331 -0.9157
32576SOL     OW99734   5.678   4.870   0.008  0.4056 -0.0008 -0.2781
32576SOL    HW199735   5.591   4.864  -0.032  0.0003 -0.6903  0.6924
32576SOL    HW299736   5.679   4.957   0.049  0.9252  0.8336 -1.9542
32577SOL     OW99737   1.905   0.363   5.028 -0.0376  0.2164 -0.0387
32577SOL    HW199738   1.927   0.456   5.035 -0.1119  0.2086  0.3429
32577SOL    HW299739   1.984   0.317   5.057  0.0348  0.1602 -0.3290
32578SOL     OW99740   3.139   7.989   7.118 -0.2231  0.2552  0.3536
32578SOL    HW199741   3.112   7.954   7.203  0.9396 -0.2260  0.5376
32578SOL    HW299742   3.057   8.002   7.071 -0.8518  0.0441  1.3616
32579SOL     OW99743   7.301   3.081   6.552  0.1978  0.0128  0.1989
32579SOL    HW199744   7.249   3.079   6.472 -0.0692 -1.1439  0.3908
32579SOL    HW299745   7.284   3.168   6.589  0.2686  0.5346 -0.9497
32580SOL     OW99746   3.176   4.621  10.241 -0.5507  0.6039  0.6059
32580SOL    HW199747   3.130   4.705  10.244 -1.0063  0.3469  1.6215
32580SOL    HW299748   3.112   4.560  10.206 -0.0395  0.7710 -0.6535
32581SOL     OW99749   0.939   3.828   3.876  0.3445  0.4216  0.0325
32581SOL    HW199750   0.975   3.740   3.892 -0.6713  0.2374  1.5292
32581SOL    HW299751   0.932   3.834   3.781  3.0714 -0.0144 -0.2759
32582SOL     OW99752   1.179   9.215   8.400  0.0547 -0.3933  0.0305
32582SOL    HW199753   1.104   9.156   8.401  0.4398 -0.8866 -0.2095
32582SOL    HW299754   1.152   9.286   8.340 -0.6513  0.0167  0.8100
32583SOL     OW99755   0.328   0.077   6.879 -0.3028 -0.2049 -0.3809
32583SOL    HW199756   0.267   0.150   6.880 -0.8097 -0.6234  0.6879
32583SOL    HW299757   0.411   0.114   6.910 -0.9505 -0.3754  1.7030
32584SOL     OW99758  10.499   7.246   7.470 -0.2785  0.6018 -0.0164
32584SOL    HW199759  10.470   7.217   7.556 -1.0355 -1.1969 -0.8200
32584SOL    HW299760  10.492   7.342   7.473 -2.5896  0.4571  1.1426
32585SOL     OW99761   6.147   5.645   9.500 -0.0192  0.2239  0.4428
32585SOL    HW199762   6.134   5.668   9.592  1.4905 -0.6320  0.9216
32585SOL    HW299763   6.062   5.657   9.459 -1.2207 -1.1411  2.3591
32586SOL     OW99764   2.458   3.293   0.214 -0.0447  0.6181  0.1041
32586SOL    HW199765   2.370   3.328   0.227 -0.2795  0.1564 -0.2321
32586SOL    HW299766   2.485   3.327   0.128  0.1020  0.7422  0.1976
32587SOL     OW99767   8.950   5.045   4.398 -0.1107  0.3022  0.4930
32587SOL    HW199768   8.886   5.072   4.332 -0.1593 -2.0045 -0.4885
32587SOL    HW299769   8.898   5.023   4.475 -0.4070 -0.3942  0.1019
32588SOL     OW99770   7.735   5.201   8.733 -0.3659  0.7438 -0.2777
32588SOL    HW199771   7.733   5.244   8.818  1.6940  0.2191  0.0692
32588SOL    HW299772   7.801   5.248   8.683 -0.7889  0.3699 -1.2216
32589SOL     OW99773  10.680   7.899   5.340  0.0593  0.2926 -0.4123
32589SOL    HW199774  10.718   7.973   5.293 -0.5213  1.6911  1.2208
32589SOL    HW299775  10.748   7.870   5.400 -0.9351  2.0348  1.6694
32590SOL     OW99776   7.053   1.636   9.399  0.2745 -0.1050 -0.2377
32590SOL    HW199777   7.083   1.596   9.318  0.4988  0.9576 -0.6943
32590SOL    HW299778   7.095   1.723   9.400 -1.0740  0.5643  0.1674
32591SOL     OW99779   1.759   7.350   8.725 -0.0159 -0.6199  0.0044
32591SOL    HW199780   1.791   7.398   8.802  0.9450 -0.1149 -0.6967
32591SOL    HW299781   1.799   7.394   8.651 -0.3646 -1.5581 -0.7582
32592SOL     OW99782   3.119   5.169   3.863  0.1902 -0.0184  0.1256
32592SOL    HW199783   3.117   5.252   3.911 -0.0377  1.2354 -1.9067
32592SOL    HW299784   3.040   5.123   3.892  1.1780 -0.3639  2.5398
32593SOL     OW99785   2.845   5.475   4.137  0.1858 -0.1797  0.5622
32593SOL    HW199786   2.826   5.452   4.228  0.8648  0.5269  0.8895
32593SOL    HW299787   2.857   5.569   4.137 -0.0971 -0.1265 -0.3263
32594SOL     OW99788   3.891  10.503   8.160 -0.2374  0.3027 -0.0753
32594SOL    HW199789   3.907  10.535   8.249 -0.7483  0.2580  0.0356
32594SOL    HW299790   3.968  10.530   8.111  0.1738  0.0865  0.4452
32595SOL     OW99791   5.956  10.558  10.974  0.0936 -0.6236 -0.6204
32595SOL    HW199792   5.967  10.614  10.897 -0.1045  0.0391 -0.1787
32595SOL    HW299793   6.026  10.585  11.033 -0.0176 -0.8339 -0.3925
32596SOL     OW99794   6.545   2.305   4.534 -0.3776  0.2692 -0.4875
32596SOL    HW199795   6.578   2.389   4.565 -1.9768  0.7516  0.0148
32596SOL    HW299796   6.592   2.240   4.586  0.3733  0.8765 -0.3951
32597SOL     OW99797   6.721   4.146   8.426  0.4050 -0.7041 -0.0334
32597SOL    HW199798   6.683   4.149   8.338  1.8688 -1.2688 -0.7159
32597SOL    HW299799   6.725   4.237   8.454 -2.1306 -0.6655  0.4075
32598SOL     OW99800   9.012   1.265   2.891  0.3081  0.3551  0.2182
32598SOL    HW199801   8.988   1.244   2.801  1.8032 -0.1735 -0.0853
32598SOL    HW299802   9.082   1.331   2.883  0.2229  0.5540  0.9947
32599SOL     OW99803   6.682   8.362   7.165 -0.3027 -0.0753 -0.4337
32599SOL    HW199804   6.681   8.455   7.188 -2.3974 -0.3107  0.6093
32599SOL    HW299805   6.763   8.329   7.203  0.6024  1.3432 -1.0311
32600SOL     OW99806  10.702   0.004   5.014 -0.2873  0.4007  0.1387
32600SOL    HW199807  10.651   0.038   5.088 -0.6180  1.4546 -0.5427
32600SOL    HW299808  10.641   0.005   4.941 -0.3288 -1.8382  0.0929
32601SOL     OW99809   1.158   8.716   4.570 -0.1361  0.0733  0.0224
32601SOL    HW199810   1.149   8.769   4.650 -0.9126  2.4195 -1.5135
32601SOL    HW299811   1.070   8.684   4.552 -0.0550 -0.0634 -0.1351
32602SOL     OW99812   3.855  10.677   2.709 -0.1854 -0.3150 -0.3503
32602SOL    HW199813   3.896  10.684   2.623 -0.7243 -1.0227 -0.6742
32602SOL    HW299814   3.827  10.766   2.730 -0.4614 -0.2189 -1.1110
32603SOL     OW99815   8.238   6.281   3.306  0.2231 -0.1146  0.4310
32603SOL    HW199816   8.183   6.300   3.230  0.1133 -0.2704  0.4698
32603SOL    HW299817   8.236   6.361   3.359  1.5095  0.5344 -0.4548
32604SOL     OW99818   6.025   9.796   5.750  0.3092 -0.0554  0.3196
32604SOL    HW199819   6.084   9.721   5.753 -0.3130 -0.5341  2.0335
32604SOL    HW299820   6.004   9.814   5.842 -3.0055 -0.5747 -0.1930
32605SOL     OW99821   9.415   3.455   8.668 -0.4329 -0.1501  0.4179
32605SOL    HW199822   9.406   3.514   8.594  0.5596 -0.6939 -0.1601
32605SOL    HW299823   9.474   3.386   8.637  0.2829 -0.2041  1.8127
32606SOL     OW99824   0.094   7.485   6.514  0.5180 -0.0172  0.3258
32606SOL    HW199825   0.105   7.391   6.502  0.3425  0.1090 -0.9987
32606SOL    HW299826   0.002   7.496   6.540  0.3944 -0.1799 -0.0337
32607SOL     OW99827   7.904   4.636   1.930  0.6661  0.3713 -0.1720
32607SOL    HW199828   7.867   4.702   1.872 -1.4354  1.7399  2.4971
32607SOL    HW299829   7.828   4.590   1.966  1.5614  1.2409  3.2345
32608SOL     OW99830   8.224   8.670   8.451 -0.3449  0.0746  0.0792
32608SOL    HW199831   8.168   8.677   8.528 -0.0870  1.3730  0.1706
32608SOL    HW299832   8.205   8.583   8.416 -0.6506 -0.4432  1.4527
32609SOL     OW99833   5.274  10.723   2.430 -0.2685 -0.2252 -0.1236
32609SOL    HW199834   5.319  10.705   2.512 -2.0681 -1.7210  0.5971
32609SOL    HW299835   5.308  10.658   2.369  0.0512  0.0003 -0.1909
32610SOL     OW99836   9.579   6.324   9.035 -0.7612  0.1631 -0.0546
32610SOL    HW199837   9.593   6.229   9.030 -2.2552 -0.1060  0.1730
32610SOL    HW299838   9.655   6.362   8.991  0.7085 -1.0703  1.3118
32611SOL     OW99839  10.536   6.778   7.092  0.0506 -0.3988 -0.1673
32611SOL    HW199840  10.590   6.845   7.133  1.8169  0.1322 -3.1355
32611SOL    HW299841  10.584   6.696   7.107  1.0198 -0.1192 -1.6172
32612SOL     OW99842   1.930   7.860   9.468  0.2228  0.3163  0.2333
32612SOL    HW199843   1.864   7.821   9.526  0.4096 -0.1135  0.1550
32612SOL    HW299844   1.940   7.950   9.502  0.3330  0.0706  0.8735
32613SOL     OW99845  10.886   1.585   8.435 -1.0550  0.0875  0.4392
32613SOL    HW199846  10.887   1.677   8.461  2.0859  0.4423 -0.4499
32613SOL    HW299847  10.847   1.585   8.348 -1.5055  0.4954  0.6377
32614SOL     OW99848   2.500   9.159   9.048 -0.0265 -0.2965 -0.4715
32614SOL    HW199849   2.576   9.191   9.097 -0.8398  0.5093  0.2985
32614SOL    HW299850   2.511   9.197   8.960  0.7780 -0.6945 -0.5469
32615SOL     OW99851  10.024   0.786   8.472  0.3321  0.5662 -0.0752
32615SOL    HW199852   9.963   0.734   8.420  1.8015 -0.4431 -0.8954
32615SOL    HW299853  10.012   0.876   8.442 -1.6672  0.6133  0.7590
32616SOL     OW99854   8.597   4.895   4.286 -0.5765  0.3799  0.4363
32616SOL    HW199855   8.616   4.938   4.203 -1.1041  2.2088  1.2129
32616SOL    HW299856   8.645   4.812   4.282 -0.5807  0.4370 -1.6614
32617SOL     OW99857   8.779   0.540   0.520 -0.0814 -0.3911 -0.3641
32617SOL    HW199858   8.722   0.613   0.544  0.5532  0.8542 -2.3950
32617SOL    HW299859   8.791   0.549   0.425  0.9997 -2.4387 -0.4811
32618SOL     OW99860   8.727   9.724   8.086  0.2984  0.2350  0.0880
32618SOL    HW199861   8.715   9.809   8.129 -0.8527 -0.4285  1.1751
32618SOL    HW299862   8.776   9.672   8.149  2.1367  0.4556 -1.1034
32619SOL     OW99863  10.710  10.127   8.258 -1.0349 -0.7131 -0.4101
32619SOL    HW199864  10.704  10.179   8.338 -2.3266 -0.9023 -0.3763
32619SOL    HW299865  10.711  10.192   8.187  1.9589 -0.4294 -0.2403
32620SOL     OW99866   4.927   6.876   4.203  0.0306  0.5223  0.2282
32620SOL    HW199867   4.989   6.938   4.165  0.3698 -0.7947 -1.4944
32620SOL    HW299868   4.983   6.811   4.247 -0.1254 -0.2766 -0.7132
32621SOL     OW99869   7.796   8.716   0.932 -0.2737  0.0705  0.3754
32621SOL    HW199870   7.795   8.627   0.967 -1.5704 -0.2152 -0.3272
32621SOL    HW299871   7.717   8.757   0.966  0.6861  1.2408  1.3120
32622SOL     OW99872   6.610  10.659   1.088  0.4042 -0.1413  0.1251
32622SOL    HW199873   6.537  10.699   1.135  0.5420  0.7913 -0.4213
32622SOL    HW299874   6.572  10.630   1.005  0.2998 -1.1975  0.5257
32623SOL     OW99875  10.609   6.528   9.455 -0.7062  0.2748  0.0889
32623SOL    HW199876  10.640   6.468   9.387 -2.5267  0.4040 -0.9338
32623SOL    HW299877  10.681   6.590   9.468  0.0492 -0.3345 -1.0267
32624SOL     OW99878   8.530   2.516   9.278 -0.2357 -0.2668  0.2957
32624SOL    HW199879   8.476   2.595   9.282  0.7202  0.3628  2.6274
32624SOL    HW299880   8.468   2.444   9.282 -1.0509  0.3714 -0.4822
32625SOL     OW99881   6.958   6.620   6.161 -0.0901 -0.6410 -0.3379
32625SOL    HW199882   6.938   6.711   6.182  0.6388 -0.0774 -1.9989
32625SOL    HW299883   6.918   6.605   6.076  1.5189 -1.2412 -1.0318
32626SOL     OW99884   1.322  10.816  10.862 -0.4294 -0.2087  0.2387
32626SOL    HW199885   1.237  10.817  10.817 -0.7301  1.0016  0.7739
32626SOL    HW299886   1.344  10.724  10.870 -1.8523 -0.5686  0.3527
32627SOL     OW99887  10.475   8.667   3.724 -0.2904 -0.2680  0.5080
32627SOL    HW199888  10.521   8.683   3.642 -1.9439  0.6188 -0.2959
32627SOL    HW299889  10.518   8.590   3.761  0.7826 -0.4175 -0.9520
32628SOL     OW99890   2.194   1.851   1.990 -0.2783  0.3915 -0.0471
32628SOL    HW199891   2.275   1.901   1.980 -0.1169 -0.3631 -3.9020
32628SOL    HW299892   2.128   1.903   1.945 -0.8045 -1.2804 -1.3038
32629SOL     OW99893   3.831   1.355   7.669 -0.0922 -0.1285 -0.2129
32629SOL    HW199894   3.795   1.316   7.590 -0.7509  1.0007 -0.4992
32629SOL    HW299895   3.914   1.394   7.641 -0.0129 -0.2948 -0.2053
32630SOL     OW99896   8.503   5.217   0.093  0.0728 -0.2775 -0.5322
32630SOL    HW199897   8.573   5.196   0.030  2.1124 -0.5060  1.6609
32630SOL    HW299898   8.473   5.132   0.124  0.7092 -0.1737  0.4277
32631SOL     OW99899   9.757   9.500  10.688  0.1357 -0.3628  0.9430
32631SOL    HW199900   9.715   9.472  10.607 -1.4942 -1.8014  2.1888
32631SOL    HW299901   9.848   9.519  10.664 -0.2309 -1.0423 -1.1304
32632SOL     OW99902   6.211   2.355   0.292  0.2251  0.0599 -0.0985
32632SOL    HW199903   6.128   2.385   0.255 -0.2468 -0.3285  0.6047
32632SOL    HW299904   6.234   2.421   0.357 -0.1841 -0.4433  0.5807
32633SOL     OW99905   8.097   7.928  10.631 -0.8183  0.2109 -0.5327
32633SOL    HW199906   8.052   8.012  10.618 -1.7304 -0.3507 -1.0546
32633SOL    HW299907   8.028   7.866  10.651 -0.1250 -0.3891  0.0758
32634SOL     OW99908  10.737   3.140   7.769 -0.2432  0.1214 -0.3193
32634SOL    HW199909  10.716   3.233   7.764  0.9095  0.6843  2.9768
32634SOL    HW299910  10.670   3.097   7.716 -2.3147  2.6592  0.0780
32635SOL     OW99911   3.853   3.234   2.211 -0.3464  0.0090  0.4114
32635SOL    HW199912   3.842   3.144   2.241  1.6029  0.3114  2.2330
32635SOL    HW299913   3.908   3.226   2.132  2.7324 -0.3320  2.4120
32636SOL     OW99914   0.189   0.651   0.007 -0.8390  0.3986  0.1644
32636SOL    HW199915   0.178   0.593  -0.068 -0.1614 -0.1340  0.4629
32636SOL    HW299916   0.109   0.704   0.009 -1.9746 -1.2536  0.5031
32637SOL     OW99917   5.341   5.105   5.779 -0.4061  0.0694  0.1522
32637SOL    HW199918   5.393   5.077   5.854  1.0252  0.4010 -0.6806
32637SOL    HW299919   5.251   5.098   5.808  0.1139 -0.1033  1.7968
32638SOL     OW99920   3.952   8.186   3.161 -0.4508  0.2702 -0.2473
32638SOL    HW199921   3.999   8.230   3.090  0.4954  0.9575  0.7961
32638SOL    HW299922   3.981   8.229   3.241 -1.5017 -0.4987  0.5849
32639SOL     OW99923   4.753   5.905   8.133 -0.2328 -0.7005 -0.0678
32639SOL    HW199924   4.815   5.972   8.160 -0.6893 -0.6063  0.7761
32639SOL    HW299925   4.712   5.876   8.214 -0.2696 -1.7787 -0.4538
32640SOL     OW99926   1.109   7.871   9.649  0.1453  0.1298 -0.3134
32640SOL    HW199927   1.075   7.915   9.571 -0.0825  1.0537  0.2925
32640SOL    HW299928   1.186   7.823   9.618  0.9702  1.7188 -0.8252
32641SOL     OW99929   1.775   2.649   0.502 -0.1840  0.1691 -0.6478
32641SOL    HW199930   1.839   2.718   0.483 -0.3672  0.2075 -1.1450
32641SOL    HW299931   1.810   2.571   0.459  0.4026 -0.2413  0.5508
32642SOL     OW99932   7.396  10.646   4.099 -0.6924  0.5066  0.5350
32642SOL    HW199933   7.389  10.729   4.052 -1.9458  1.1862  1.8205
32642SOL    HW299934   7.483  10.649   4.140  0.5649 -0.2603 -1.9173
32643SOL     OW99935   1.464   4.044   9.423  0.0667  0.1034 -0.0457
32643SOL    HW199936   1.419   3.960   9.432 -0.5462  0.4283 -0.0345
32643SOL    HW299937   1.549   4.030   9.464 -0.5112 -0.1325  1.1178
32644SOL     OW99938  10.866  10.448   8.625  0.1524  0.7180  0.0595
32644SOL    HW199939  10.846  10.455   8.718 -0.2668 -2.0625  0.2476
32644SOL    HW299940  10.795  10.395   8.589  1.2354  0.2574 -1.4923
32645SOL     OW99941   8.136   0.394   8.206 -0.2719  0.0191 -0.4850
32645SOL    HW199942   8.199   0.465   8.215 -1.3276  1.0020 -0.5925
32645SOL    HW299943   8.185   0.315   8.227  0.7312  0.8602  0.4310
32646SOL     OW99944   2.760   3.837   9.122  0.1719  0.0783 -0.0163
32646SOL    HW199945   2.753   3.932   9.128 -1.2520  0.0884 -1.3846
32646SOL    HW299946   2.672   3.805   9.140  0.1990 -0.8565 -1.4240
32647SOL     OW99947   8.874   2.316   2.378 -0.1347 -0.0299 -0.2161
32647SOL    HW199948   8.931   2.356   2.444  0.2268 -0.1309 -0.4677
32647SOL    HW299949   8.933   2.285   2.310 -0.4692 -0.3771 -0.3537
32648SOL     OW99950   4.851   3.966   2.368  0.3574 -0.1489  0.2226
32648SOL    HW199951   4.939   3.975   2.404  1.0964 -1.6222 -1.1071
32648SOL    HW299952   4.816   3.886   2.409  0.6504 -1.0114 -1.1450
32649SOL     OW99953   3.175   2.540   8.448  0.2044  0.1915 -0.1641
32649SOL    HW199954   3.248   2.486   8.418  0.3130  0.6464 -0.7425
32649SOL    HW299955   3.177   2.616   8.390  0.1777  0.9089  0.7562
32650SOL     OW99956  10.671   4.830  10.916 -0.2014 -0.1897  0.3398
32650SOL    HW199957  10.591   4.781  10.933 -0.6785  0.4564 -0.0030
32650SOL    HW299958  10.695   4.867  11.001 -0.1182 -0.5856  0.4947
32651SOL     OW99959   5.538  10.629   3.091  0.5062 -0.3188  0.3247
32651SOL    HW199960   5.472  10.671   3.036  0.0449  0.2236  1.2705
32651SOL    HW299961   5.588  10.702   3.128  0.7370 -0.6699  0.7053
32652SOL     OW99962   8.525   0.595   4.959 -0.1558  0.0122  0.4536
32652SOL    HW199963   8.508   0.549   5.041 -0.6513  0.3004  0.5165
32652SOL    HW299964   8.492   0.536   4.891  1.9697 -1.0930  0.3043
32653SOL     OW99965   4.237   9.783  10.172 -0.0430  0.4261 -0.0721
32653SOL    HW199966   4.219   9.700  10.127  1.3624 -0.8116  1.5304
32653SOL    HW299967   4.327   9.804  10.147 -0.3120  1.3786 -0.2807
32654SOL     OW99968   3.386   7.987   0.879  0.1986  0.1293 -0.0078
32654SOL    HW199969   3.315   7.923   0.889 -0.8283  0.9545 -1.6146
32654SOL    HW299970   3.441   7.950   0.810  0.3588  0.3260  0.0158
32655SOL     OW99971   1.042  10.879   8.931 -0.2602  0.3605  0.2749
32655SOL    HW199972   1.113  10.814   8.932 -1.2707 -0.8344 -1.1368
32655SOL    HW299973   1.016  10.884   8.839 -1.7979  1.0159  0.7180
32656SOL     OW99974   3.663   4.277   2.562 -0.6378  0.8993 -0.4809
32656SOL    HW199975   3.597   4.337   2.528 -2.1722 -0.0130  0.7638
32656SOL    HW299976   3.713   4.250   2.484 -0.3485  3.1702 -1.1649
32657SOL     OW99977   4.198   7.206   3.677 -0.1049 -0.4189 -0.3956
32657SOL    HW199978   4.206   7.301   3.665 -1.5593 -0.3439 -0.9175
32657SOL    HW299979   4.250   7.188   3.756  0.0899  0.8257 -0.2153
32658SOL     OW99980   1.221   7.959   0.834  0.1203 -0.2448  0.0482
32658SOL    HW199981   1.268   7.940   0.915  2.6672 -1.5307 -1.6377
32658SOL    HW299982   1.270   8.031   0.794 -1.4231  0.7378 -0.1720
32659SOL     OW99983   5.756   6.768   1.004  0.2025  0.5799  0.5292
32659SOL    HW199984   5.766   6.825   1.080  0.1856 -0.3282  1.2179
32659SOL    HW299985   5.662   6.770   0.985 -0.0171 -0.3433  1.4456
32660SOL     OW99986   5.472   7.823   2.311 -0.4068  0.4653  0.5715
32660SOL    HW199987   5.421   7.748   2.279 -0.2140  0.0823  1.1473
32660SOL    HW299988   5.554   7.819   2.262 -0.0734 -0.1747  1.1634
32661SOL     OW99989   7.587   3.744   9.364  0.1604  0.0300  0.2061
32661SOL    HW199990   7.653   3.757   9.296 -1.0105  1.1024 -0.8031
32661SOL    HW299991   7.600   3.654   9.394  0.5730 -0.5690 -1.6220
32662SOL     OW99992   8.082   4.184   1.975 -0.2938  0.2588  0.2181
32662SOL    HW199993   8.171   4.177   1.942 -0.4004 -1.3139  0.2184
32662SOL    HW299994   8.039   4.245   1.914 -0.2029 -1.7636 -2.0609
32663SOL     OW99995   5.152   7.500   9.837  0.3761 -0.1798  0.5585
32663SOL    HW199996   5.175   7.409   9.853  1.3506  0.1040  0.8707
32663SOL    HW299997   5.156   7.510   9.742  2.8181  0.1321  0.6276
32664SOL     OW99998   1.678   9.144   2.054  0.7114 -0.1567  0.2180
32664SOL    HW199999   1.633   9.221   2.088  1.2468  0.0120  0.5556
32664SOL    HW2    0   1.718   9.173   1.972  0.4663 -0.2268  0.0706
32665SOL     OW    1   0.618   8.620   9.274  0.0741  0.6305 -0.0042
32665SOL    HW1    2   0.662   8.704   9.266 -0.6219  1.0764  0.6005
32665SOL    HW2    3   0.527   8.643   9.296 -0.2269 -0.2688 -0.2526
32666SOL     OW    4   4.148   0.638   4.640 -0.1538 -0.7320 -0.0536
32666SOL    HW1    5   4.086   0.596   4.700 -0.0678 -0.7756  0.0051
32666SOL    HW2    6   4.159   0.727   4.675 -0.5394 -0.5742 -0.3286
32667SOL     OW    7   8.092   5.841   6.407 -0.1503 -0.4556 -0.1497
32667SOL    HW1    8   8.089   5.826   6.501 -0.8002 -1.6453 -0.3412
32667SOL    HW2    9   8.080   5.936   6.397 -0.7623 -0.4058  0.9334
32668SOL     OW   10   1.016   9.767   1.804  0.4390  0.0054 -0.2875
32668SOL    HW1   11   0.947   9.710   1.771  0.3438 -0.2209  0.2849
32668SOL    HW2   12   0.972   9.850   1.823  0.4919  0.1310 -0.7098
32669SOL     OW   13   9.399   4.189   2.202  0.1994 -0.2454  0.4572
32669SOL    HW1   14   9.449   4.247   2.260 -0.0222  1.3361 -0.8407
32669SOL    HW2   15   9.433   4.209   2.114 -1.8401 -0.0208 -0.3192
32670SOL     OW   16   4.663  10.251   6.526  0.6595  0.1866 -0.3762
32670SOL    HW1   17   4.742  10.297   6.496  1.6290 -0.7806  0.6060
32670SOL    HW2   18   4.643  10.291   6.611 -0.7356  1.3542 -1.2139
32671SOL     OW   19   5.156   5.036   4.677 -0.3211  0.2060 -0.2830
32671SOL    HW1   20   5.107   5.013   4.597 -0.0619 -1.1440 -0.0915
32671SOL    HW2   21   5.211   4.959   4.693 -0.4786  0.3998  1.2842
32672SOL     OW   22   2.377   4.921   0.498 -0.0528 -0.1660  0.1422
32672SOL    HW1   23   2.309   4.861   0.529  1.2075 -1.3314  0.7300
32672SOL    HW2   24   2.337   4.964   0.422 -1.4413 -0.8199  0.4572
32673SOL     OW   25   7.526   9.857   0.956  0.0187  0.4913  0.0227
32673SOL    HW1   26   7.447   9.889   0.915 -1.8418 -1.4834  1.7875
32673SOL    HW2   27   7.537   9.768   0.922  1.4602  0.7059 -0.1395
32674SOL     OW   28   0.585   4.065   7.462  0.1232 -0.2609  0.2865
32674SOL    HW1   29   0.674   4.057   7.426  0.0709  0.2245  0.0392
32674SOL    HW2   30   0.536   3.995   7.418  0.2240 -0.1068 -0.0730
32675SOL     OW   31   8.042   6.495   2.424  0.3406  0.6586  0.1017
32675SOL    HW1   32   8.117   6.443   2.397 -0.0603  0.2627 -0.2543
32675SOL    HW2   33   8.080   6.579   2.451  1.0416  0.0455  1.1291
32676SOL     OW   34   5.469   3.591   7.630  0.7120  0.1203  0.2307
32676SOL    HW1   35   5.540   3.654   7.648  0.6513  0.7359 -1.4507
32676SOL    HW2   36   5.514   3.515   7.595  0.6731 -0.2261  0.9230
32677SOL     OW   37   8.378   0.733   5.975  0.1043 -0.3760 -0.4162
32677SOL    HW1   38   8.295   0.691   5.952 -0.4052  0.5138 -0.2495
32677SOL    HW2   39   8.413   0.679   6.046 -0.2131 -0.8867 -0.6380
32678SOL     OW   40  10.847   4.249   8.545 -0.1722  0.2337 -0.0117
32678SOL    HW1   41  10.775   4.198   8.582  0.1696  0.1115  0.4992
32678SOL    HW2   42  10.888   4.292   8.620  0.5923 -0.0941 -0.2202
32679SOL     OW   43   9.248   7.466   3.333  0.2222 -0.2044  0.2356
32679SOL    HW1   44   9.175   7.429   3.383 -1.1720 -1.2712 -2.4058
32679SOL    HW2   45   9.229   7.560   3.329 -0.1138 -0.2356  0.9484
32680SOL     OW   46   6.077   5.258   4.776  0.0221  0.4443 -0.4051
32680SOL    HW1   47   6.105   5.228   4.689 -1.3650 -0.1344 -0.6782
32680SOL    HW2   48   5.983   5.274   4.767  0.2314  2.3386  0.4760
32681SOL     OW   49  10.876   2.920   9.882  0.0637 -0.2820  0.1688
32681SOL    HW1   50  10.811   2.933   9.952  0.0980 -1.5549  0.4510
32681SOL    HW2   51  10.946   2.869   9.923  1.2992  1.1023 -0.1226
32682SOL     OW   52   2.374   9.042   1.407 -0.3691 -0.0869  0.3396
32682SOL    HW1   53   2.345   9.074   1.321 -2.1321  0.2452  1.0107
32682SOL    HW2   54   2.440   9.105   1.435  0.0312 -0.0552 -0.6541
32683SOL     OW   55   0.615   9.325  10.789 -0.3655 -0.1870  0.0527
32683SOL    HW1   56   0.696   9.348  10.744 -0.7073  1.0771  0.0292
32683SOL    HW2   57   0.631   9.237  10.824  1.0184  0.0403  0.0611
32684SOL     OW   58   1.113  10.978   6.937 -0.5480 -0.1354 -0.2134
32684SOL    HW1   59   1.202  10.960   6.967 -0.8428 -0.2220  0.6484
32684SOL    HW2   60   1.058  10.916   6.985 -0.9756 -0.8171 -1.5430
32685SOL     OW   61   6.357   7.081   8.796 -0.0709 -0.4245 -0.0278
32685SOL    HW1   62   6.290   7.120   8.739 -1.1426 -0.7500  0.9541
32685SOL    HW2   63   6.310   7.013   8.844  0.9113 -0.4843  0.8896
32686SOL     OW   64   0.796   8.116   9.247 -0.0275  0.1706  0.0328
32686SOL    HW1   65   0.794   8.209   9.223  0.6808 -0.1625 -1.4062
32686SOL    HW2   66   0.707   8.085   9.228  0.2157  0.1710 -1.2170
32687SOL     OW   67   3.722   7.933   0.884 -0.2490  0.1111  0.4167
32687SOL    HW1   68   3.715   7.881   0.964 -1.0055  0.8253  0.8337
32687SOL    HW2   69   3.647   7.905   0.831  1.0874 -1.4713 -0.7497
32688SOL     OW   70   6.003   5.503   3.384  0.3906 -0.6438  0.1082
32688SOL    HW1   71   5.986   5.587   3.342  0.2164 -0.7247  0.0198
32688SOL    HW2   72   5.935   5.494   3.451 -0.5737 -1.4482 -0.9437
32689SOL     OW   73   0.093   8.798  10.214  0.4635 -0.3730 -0.4707
32689SOL    HW1   74   0.110   8.856  10.141 -0.3007 -0.9890 -1.1626
32689SOL    HW2   75   0.004   8.765  10.199  1.6020 -3.4050 -1.3139
32690SOL     OW   76   0.749   2.401   2.155 -0.6759 -0.4308  0.1068
32690SOL    HW1   77   0.720   2.372   2.242 -0.4194  2.8390  1.4417
32690SOL    HW2   78   0.693   2.355   2.094 -2.1861 -1.4010  2.1100
32691SOL     OW   79   2.944   2.273   2.310 -0.1934  1.0769 -0.3368
32691SOL    HW1   80   2.891   2.253   2.232 -0.4071 -0.6102  0.2091
32691SOL    HW2   81   2.930   2.199   2.368  1.3947  1.4410  0.5648
32692SOL     OW   82  10.722   2.983  10.099  0.2507 -0.0707  0.3080
32692SOL    HW1   83  10.650   3.029  10.056  0.9538 -0.4794 -1.4166
32692SOL    HW2   84  10.711   3.002  10.192 -0.1686  2.6504 -0.1896
32693SOL     OW   85   6.284   6.296   4.389  0.4507  0.2017  0.1069
32693SOL    HW1   86   6.236   6.224   4.349  1.4844 -0.1564 -0.5311
32693SOL    HW2   87   6.251   6.299   4.479 -1.2644  0.4505 -0.4900
32694SOL     OW   88   2.232   8.326   1.935  0.4237 -0.5340  0.5282
32694SOL    HW1   89   2.187   8.281   1.863  1.0620  0.6362 -0.6549
32694SOL    HW2   90   2.325   8.319   1.913  0.6663 -0.5552  1.5024
32695SOL     OW   91   6.312   1.146   0.293  0.0144 -0.6214  0.0855
32695SOL    HW1   92   6.393   1.157   0.343  0.1845 -1.2858 -0.0376
32695SOL    HW2   93   6.326   1.199   0.214 -0.0740  0.0626  0.5168
32696SOL     OW   94   7.463   4.624   0.847  0.4358 -0.4208  0.4068
32696SOL    HW1   95   7.392   4.613   0.784 -0.0237  1.1280  0.6056
32696SOL    HW2   96   7.494   4.713   0.831 -0.7187  0.6243  3.3471
32697SOL     OW   97   6.975   9.153   4.484 -0.1002  0.2751  0.1788
32697SOL    HW1   98   6.926   9.234   4.498 -1.2536 -0.6357  1.7198
32697SOL    HW2   99   7.035   9.149   4.558  0.7049  0.2247 -0.4640
32698SOL     OW  100   7.843   1.943   6.408 -0.3102  0.6127 -0.0037
32698SOL    HW1  101   7.826   2.037   6.410  0.3543  0.7228  0.9319
32698SOL    HW2  102   7.801   1.910   6.487 -0.0585  0.2009 -0.0420
32699SOL     OW  103   6.102   1.310   0.535 -0.0311  0.7398 -0.0335
32699SOL    HW1  104   6.071   1.396   0.563 -1.7341 -0.1673  1.0445
32699SOL    HW2  105   6.065   1.298   0.448  2.2871  2.0669 -1.3051
32700SOL     OW  106   6.665   0.017   6.313  0.1801 -0.3564 -0.4814
32700SOL    HW1  107   6.753   0.010   6.276 -0.1037 -0.3671 -1.1540
32700SOL    HW2  108   6.661   0.107   6.348  0.7253 -0.6095  0.2622
32701SOL     OW  109   7.037   6.836   1.908 -0.1378  0.9513  0.1337
32701SOL    HW1  110   7.033   6.743   1.886 -0.8759  0.2491  2.8061
32701SOL    HW2  111   7.124   6.864   1.880 -0.2741 -0.2427 -1.6629
32702SOL     OW  112   5.777   5.370  10.224 -0.3983 -0.1991  0.0980
32702SOL    HW1  113   5.831   5.402  10.152  0.7984 -2.2272  0.0195
32702SOL    HW2  114   5.694   5.416  10.214  0.1924  0.5492 -1.7701
32703SOL     OW  115   0.751   0.711   7.860 -0.6177 -0.5189  0.0312
32703SOL    HW1  116   0.801   0.792   7.867 -1.3823 -0.0325 -0.0366
32703SOL    HW2  117   0.813   0.642   7.886  0.9486 -0.2718 -2.6520
32704SOL     OW  118   6.777   5.683   7.865  0.6652  0.6262 -0.9763
32704SOL    HW1  119   6.870   5.694   7.850  1.0919 -1.3137 -0.1564
32704SOL    HW2  120   6.764   5.707   7.957  0.7692 -1.0084 -0.5068
32705SOL     OW  121   3.554   6.969   2.826  0.9057  0.3574  0.0539
32705SOL    HW1  122   3.578   7.040   2.766  1.2200  0.8417  0.7345
32705SOL    HW2  123   3.511   7.014   2.899 -1.6746 -0.4203 -0.8741
32706SOL     OW  124   5.490   1.763   9.036  0.1800  0.4846  0.1744
32706SOL    HW1  125   5.412   1.798   8.994  0.1209 -0.7258 -0.8040
32706SOL    HW2  126   5.503   1.678   8.994  1.1098 -0.0341  1.4433
32707SOL     OW  127  10.806   2.561   8.006 -0.5210  0.3360  0.3661
32707SOL    HW1  128  10.715   2.570   7.978 -0.9215  1.4919  1.8532
32707SOL    HW2  129  10.857   2.576   7.927 -1.5924 -2.3847 -0.9470
32708SOL     OW  130   2.666   1.716   5.263  0.2415 -0.1570 -0.5345
32708SOL    HW1  131   2.584   1.760   5.241 -0.1879  0.2157  1.5623
32708SOL    HW2  132   2.649   1.623   5.244 -0.2877  0.0513 -1.1222
32709SOL     OW  133  10.381   9.816   7.751  0.2823  0.1547  0.3328
32709SOL    HW1  134  10.444   9.833   7.681  0.3391  0.5459  0.4759
32709SOL    HW2  135  10.418   9.860   7.827 -1.2151  2.2960 -0.0915
32710SOL     OW  136   5.176   9.441   9.828 -0.3748  0.6246  0.6856
32710SOL    HW1  137   5.242   9.438   9.759 -0.9283  0.1902  0.1628
32710SOL    HW2  138   5.147   9.350   9.838 -0.3748  0.6962  1.4215
32711SOL     OW  139   4.880  10.978   3.775 -0.3310  0.2548  0.1288
32711SOL    HW1  140   4.858  10.892   3.810  1.3891 -0.0178  0.6475
32711SOL    HW2  141   4.833  11.040   3.831 -1.5756 -0.3189 -0.2444
32712SOL     OW  142  10.410   6.774   2.045  0.0821  0.3918  0.1555
32712SOL    HW1  143  10.420   6.711   2.116  0.4483  0.3884  0.1055
32712SOL    HW2  144  10.366   6.849   2.085 -1.1469 -0.2344  0.0045
32713SOL     OW  145   6.307   5.703  10.284  0.4590  0.2948 -0.0890
32713SOL    HW1  146   6.265   5.621  10.312  0.5519 -0.1583 -1.2417
32713SOL    HW2  147   6.248   5.772  10.314 -0.7311 -0.2961 -0.9936
32714SOL     OW  148   7.863  10.139   3.830 -0.5519 -0.2145  0.4317
32714SOL    HW1  149   7.853  10.126   3.735  4.1914  0.5678 -0.4459
32714SOL    HW2  150   7.896  10.229   3.838 -0.9089 -0.2439  2.8927
32715SOL     OW  151   6.971   8.786   0.258 -0.1146  0.2567 -0.0755
32715SOL    HW1  152   6.931   8.858   0.209 -0.0980  0.1443 -0.2517
32715SOL    HW2  153   7.060   8.779   0.222  0.7712  1.8134  1.6433
32716SOL     OW  154   4.422   6.094   6.061 -0.6437  0.1778  0.0056
32716SOL    HW1  155   4.458   6.090   6.149 -0.7924  2.1314  0.1903
32716SOL    HW2  156   4.366   6.171   6.061 -2.2781 -0.9533 -1.2204
32717SOL     OW  157   8.783   6.633   3.969 -0.2488  0.3196 -0.4766
32717SOL    HW1  158   8.822   6.693   3.905 -1.0525  1.4588  0.0578
32717SOL    HW2  159   8.754   6.690   4.040 -0.4908 -0.7903  0.3367
32718SOL     OW  160   0.459   3.133   0.896 -0.3737  0.1294  0.0021
32718SOL    HW1  161   0.523   3.134   0.967 -1.6304  2.1327  1.1804
32718SOL    HW2  162   0.389   3.191   0.925 -0.8959  1.1534 -2.9342
32719SOL     OW  163   7.078   1.243   5.146 -0.2752  0.2941  0.1688
32719SOL    HW1  164   7.040   1.329   5.162 -1.2338  0.1922 -1.4025
32719SOL    HW2  165   7.057   1.223   5.055 -1.4549 -2.2847  0.9196
32720SOL     OW  166   7.139   0.779   2.858  0.0960 -0.1423  0.0710
32720SOL    HW1  167   7.133   0.762   2.952 -1.3051 -0.4552 -0.0611
32720SOL    HW2  168   7.092   0.861   2.845  2.9770  1.6244  0.0528
32721SOL     OW  169   0.080   2.470   9.135  0.8349  0.2861 -0.6922
32721SOL    HW1  170   0.109   2.483   9.226 -2.2018 -0.0614  0.4268
32721SOL    HW2  171   0.076   2.558   9.099  1.3881  0.4877 -0.2806
32722SOL     OW  172   9.853   6.432   0.534 -0.2489  0.0507  0.1940
32722SOL    HW1  173   9.778   6.475   0.491  1.0470  1.9371 -0.3067
32722SOL    HW2  174   9.916   6.418   0.464  0.0614 -1.1671  0.6877
32723SOL     OW  175   4.359   7.716   5.537 -0.1062 -0.7992 -0.4702
32723SOL    HW1  176   4.271   7.745   5.512 -0.1703 -1.3050 -0.8533
32723SOL    HW2  177   4.370   7.633   5.490 -0.1901 -1.7383  1.0987
32724SOL     OW  178   3.399   0.509   2.572  0.0189  0.0562  0.2910
32724SOL    HW1  179   3.364   0.529   2.486  1.1221 -1.1926 -0.4973
32724SOL    HW2  180   3.490   0.484   2.555  0.2908 -0.0990  1.8312
32725SOL     OW  181  10.783   1.468   0.149  0.1213  0.0636  0.0298
32725SOL    HW1  182  10.705   1.429   0.110 -0.0533 -0.0333  0.4773
32725SOL    HW2  183  10.851   1.402   0.137  0.5219  0.7252 -1.6923
32726SOL     OW  184   3.822   2.311   0.354  0.2089 -0.4093  0.2336
32726SOL    HW1  185   3.730   2.289   0.367  0.0200  0.0545 -0.2949
32726SOL    HW2  186   3.869   2.257   0.417 -0.5915  1.1344  2.2463
32727SOL     OW  187  10.567   6.479   4.637  0.8363 -0.3634  0.2386
32727SOL    HW1  188  10.594   6.520   4.555  0.1635 -0.3353  0.0214
32727SOL    HW2  189  10.647   6.475   4.689  1.1797  0.0295 -0.2425
32728SOL     OW  190   9.982   5.565   6.983  0.5555  0.0325 -0.3126
32728SOL    HW1  191  10.052   5.548   7.047  1.6540  0.7807 -1.2769
32728SOL    HW2  192   9.974   5.660   6.982 -0.4191 -0.0456 -0.2956
32729SOL     OW  193   7.216   1.598   4.976  0.2112  0.0235  0.1923
32729SOL    HW1  194   7.146   1.559   5.028 -0.2241 -1.7544 -1.5979
32729SOL    HW2  195   7.207   1.558   4.889  3.3865 -0.2455 -0.1561
32730SOL     OW  196   9.564   6.673   6.456  0.6069 -0.7824  0.6119
32730SOL    HW1  197   9.642   6.636   6.498  0.1004 -2.4129  0.1997
32730SOL    HW2  198   9.596   6.708   6.373  1.1877  0.2370  1.2364
32731SOL     OW  199   8.272   7.096   1.262 -0.2988  0.1318  0.0391
32731SOL    HW1  200   8.205   7.053   1.209  1.4249 -0.4835 -1.7609
32731SOL    HW2  201   8.243   7.187   1.267 -1.4260 -0.1841 -0.4421
32732SOL     OW  202   1.429   0.903   1.493  0.0535 -0.2220  0.4620
32732SOL    HW1  203   1.456   0.862   1.575 -0.0984  0.1684  0.7123
32732SOL    HW2  204   1.410   0.994   1.517 -0.0817 -0.1294  0.0126
32733SOL     OW  205   0.343   3.643  10.722 -0.0516 -0.1340 -0.5004
32733SOL    HW1  206   0.401   3.617  10.793 -0.1766 -0.0352 -0.3590
32733SOL    HW2  207   0.315   3.561  10.682  0.7364 -0.1555 -1.0223
32734SOL     OW  208   4.159   2.159   4.407  0.0663 -0.0413  0.2360
32734SOL    HW1  209   4.154   2.068   4.435 -2.3124  0.0401  0.2443
32734SOL    HW2  210   4.192   2.207   4.483  0.8760 -0.7996  0.3770
32735SOL     OW  211   0.537   4.549   3.959  0.5774 -0.6948 -0.2642
32735SOL    HW1  212   0.505   4.604   3.887  0.4610 -1.2543 -0.6480
32735SOL    HW2  213   0.613   4.596   3.992 -0.7072  0.7504  0.7894
32736SOL     OW  214   7.786   2.906   9.492  0.6998 -0.2724  0.3971
32736SOL    HW1  215   7.764   2.821   9.530  2.1813 -0.6587  0.4790
32736SOL    HW2  216   7.741   2.970   9.546 -2.0171 -1.0430 -0.8095
32737SOL     OW  217   4.934  10.755   2.035  0.4048 -0.4871  0.0224
32737SOL    HW1  218   5.024  10.748   2.002 -0.1811  0.1222 -1.8288
32737SOL    HW2  219   4.886  10.686   1.989  0.2867 -2.2289  2.5710
32738SOL     OW  220   6.273   4.436   0.795 -0.2013  0.2137 -0.4931
32738SOL    HW1  221   6.180   4.414   0.786 -0.3200  0.2944  0.4752
32738SOL    HW2  222   6.318   4.353   0.779 -0.5468 -0.2868  0.9545
32739SOL     OW  223   0.186   2.734   7.946 -0.2433 -0.4495  0.0740
32739SOL    HW1  224   0.196   2.746   7.852 -1.3988 -0.1897 -0.0290
32739SOL    HW2  225   0.159   2.820   7.979 -2.5812 -1.1434  0.2006
32740SOL     OW  226   3.662   6.474   9.344 -0.7192  0.0596 -0.0280
32740SOL    HW1  227   3.578   6.443   9.311 -0.5307  0.9332 -1.4586
32740SOL    HW2  228   3.641   6.554   9.392 -0.6959  0.4158 -0.5990
32741SOL     OW  229   4.967   0.306   7.406  0.2960 -0.9538 -0.1483
32741SOL    HW1  230   4.998   0.318   7.316 -0.0866 -1.0080 -0.2893
32741SOL    HW2  231   4.942   0.213   7.409  0.0018 -0.8714 -0.0823
32742SOL     OW  232   7.415  10.812   3.277 -0.2492  0.0534  0.2353
32742SOL    HW1  233   7.497  10.806   3.227  0.3388  1.2672  0.9886
32742SOL    HW2  234   7.402  10.906   3.289 -0.1790 -0.1785  2.6330
32743SOL     OW  235   2.186   4.628   3.758 -0.2819 -0.1395  0.0616
32743SOL    HW1  236   2.129   4.704   3.772 -0.9972 -0.7312  0.4369
32743SOL    HW2  237   2.147   4.584   3.682  1.1769  0.8151 -1.3179
32744SOL     OW  238   6.604   0.458   6.814 -0.6103  0.4778  0.2299
32744SOL    HW1  239   6.630   0.401   6.886 -2.2501  0.3750  0.7658
32744SOL    HW2  240   6.649   0.421   6.738 -1.5719 -1.5223  0.5698
32745SOL     OW  241  10.420   0.271   0.547 -0.3232 -0.6787  0.1718
32745SOL    HW1  242  10.420   0.349   0.492  1.3615 -1.3160 -0.8007
32745SOL    HW2  243  10.343   0.221   0.518 -1.0474  0.3035  0.3737
32746SOL     OW  244   5.749   9.158   1.761 -0.2696 -0.8135 -0.1512
32746SOL    HW1  245   5.677   9.217   1.784  0.3939  1.1013 -2.6504
32746SOL    HW2  246   5.807   9.160   1.837  0.4351  2.9843 -0.6039
32747SOL     OW  247   7.532   9.135   3.822  0.6469 -0.0313  0.6090
32747SOL    HW1  248   7.538   9.062   3.760  1.8010  0.0970  0.5329
32747SOL    HW2  249   7.611   9.126   3.875  0.1347  0.4132  1.4483
32748SOL     OW  250   8.432   4.309   5.373 -0.0208  0.1018 -0.4389
32748SOL    HW1  251   8.519   4.333   5.405  0.3329 -0.2866 -1.0830
32748SOL    HW2  252   8.449   4.252   5.298 -0.8148 -1.5122  0.5486
32749SOL     OW  253   6.020   9.163   2.645 -0.1383 -0.2243 -0.2233
32749SOL    HW1  254   6.064   9.216   2.579 -0.3606  1.0316  0.6069
32749SOL    HW2  255   5.945   9.216   2.673  0.3158 -0.4405  1.4929
32750SOL     OW  256   3.496  10.431   5.071 -0.1493  0.1221 -0.1466
32750SOL    HW1  257   3.471  10.514   5.112  0.5294 -0.3305  1.2164
32750SOL    HW2  258   3.543  10.383   5.139  2.5201  0.0223 -1.9339
32751SOL     OW  259   3.260  10.178   8.261  0.2691  0.4852  0.2198
32751SOL    HW1  260   3.198  10.250   8.267 -1.0436 -0.6038  0.4076
32751SOL    HW2  261   3.208  10.101   8.285  1.8411 -0.4002  0.9171
32752SOL     OW  262   4.804   5.263   5.279 -1.0449  0.1410  0.1740
32752SOL    HW1  263   4.833   5.189   5.226 -1.7469 -0.5491  0.7421
32752SOL    HW2  264   4.860   5.261   5.356  1.9052  2.7799 -1.6380
32753SOL     OW  265   5.982   0.670   7.409  0.3859 -0.1889  0.0666
32753SOL    HW1  266   5.940   0.702   7.329 -0.3754  1.7071  1.1733
32753SOL    HW2  267   5.969   0.575   7.406  1.4260 -0.3488 -2.6130
32754SOL     OW  268   4.612   7.306   1.545 -0.1942 -0.3433  0.4542
32754SOL    HW1  269   4.611   7.213   1.523 -0.7182 -0.3199  0.3676
32754SOL    HW2  270   4.561   7.348   1.475 -2.2433 -0.3128  1.8713
32755SOL     OW  271   5.926   9.252   4.663  0.0041 -0.5073  0.2591
32755SOL    HW1  272   5.978   9.304   4.602 -0.9101  0.9402  0.6618
32755SOL    HW2  273   5.839   9.293   4.660  0.3482  0.7755  3.8407
32756SOL     OW  274   1.821   4.290   8.851  0.1646  0.0446  0.7422
32756SOL    HW1  275   1.862   4.274   8.766 -0.7528  3.5044 -0.4784
32756SOL    HW2  276   1.792   4.203   8.880 -0.6890 -1.1248 -3.0988
32757SOL     OW  277   5.296   7.408   7.259 -0.6593 -0.7022  0.3838
32757SOL    HW1  278   5.387   7.425   7.282 -0.1998 -1.5501 -0.7542
32757SOL    HW2  279   5.250   7.405   7.343  0.1994  0.5303  0.9279
32758SOL     OW  280  10.544   5.520   6.804  0.5132 -0.5577  0.4815
32758SOL    HW1  281  10.554   5.615   6.793  1.5222 -0.6781  0.2727
32758SOL    HW2  282  10.454   5.502   6.776 -0.0783  0.4880  1.5877
32759SOL     OW  283   1.303   7.549  10.744  0.0734 -0.3415 -0.1695
32759SOL    HW1  284   1.272   7.607  10.814 -0.7663  0.3713 -1.1056
32759SOL    HW2  285   1.398   7.562  10.744  0.0062  0.2120  0.3590
32760SOL     OW  286   4.803   8.782   6.969 -0.1661  0.0907 -0.2362
32760SOL    HW1  287   4.837   8.838   7.039  1.1015 -0.2350 -0.5628
32760SOL    HW2  288   4.719   8.751   7.002  0.9368 -1.0199  1.6757
32761SOL     OW  289   8.174   1.261   4.491  0.3870 -0.3288 -0.8643
32761SOL    HW1  290   8.189   1.277   4.398  0.5588 -1.9177 -1.1394
32761SOL    HW2  291   8.231   1.186   4.512 -0.0235 -0.3167  0.3998
32762SOL     OW  292   0.875   4.904  10.459 -0.4080  0.1359 -0.3628
32762SOL    HW1  293   0.953   4.951  10.430 -0.8555  1.5073  0.5388
32762SOL    HW2  294   0.807   4.932  10.397 -0.1167 -1.4380 -1.4500
32763SOL     OW  295   8.605   0.787   3.983 -0.2175 -0.6545  0.0672
32763SOL    HW1  296   8.546   0.754   4.050 -0.4333 -1.7007 -0.6080
32763SOL    HW2  297   8.662   0.713   3.963  0.5100 -0.0443 -0.1823
32764SOL     OW  298   0.204   8.361   6.818 -0.3456  0.5256  0.0434
32764SOL    HW1  299   0.200   8.390   6.727  2.7512  0.9177 -0.0788
32764SOL    HW2  300   0.172   8.435   6.869 -0.8102  0.8150 -0.6586
32765SOL     OW  301   8.693   6.783   9.527  0.1981  0.1366 -0.3076
32765SOL    HW1  302   8.621   6.847   9.530 -0.3255 -0.4892  1.8764
32765SOL    HW2  303   8.689   6.747   9.438 -2.0772  0.2809 -0.3236
32766SOL     OW  304   6.848   1.760   9.701  0.1562 -0.3913  0.0182
32766SOL    HW1  305   6.807   1.775   9.786  0.9156  1.3863  0.1201
32766SOL    HW2  306   6.784   1.791   9.637  0.3602  0.1407  0.0628
32767SOL     OW  307   0.417   0.652   7.209 -0.2358  0.1325 -0.4390
32767SOL    HW1  308   0.424   0.746   7.227 -0.7978 -0.1797  1.6856
32767SOL    HW2  309   0.506   0.624   7.192  0.5194  0.4306  2.5797
32768SOL     OW  310  10.063  10.041   7.983 -0.1501  0.0818  0.3245
32768SOL    HW1  311  10.012  10.120   7.965 -0.1345  0.2456  0.9705
32768SOL    HW2  312  10.048  10.023   8.076 -0.7033 -1.0698  0.0379
32769SOL     OW  313   1.471   5.791   3.973  0.0636  0.2684 -0.0972
32769SOL    HW1  314   1.437   5.759   3.890 -2.0409  1.8797  0.0523
32769SOL    HW2  315   1.437   5.729   4.038  1.2702 -0.6905 -0.3448
32770SOL     OW  316   0.711   2.871   7.664  0.0499  0.1052 -0.2744
32770SOL    HW1  317   0.795   2.829   7.682 -0.4381 -0.5668  0.5185
32770SOL    HW2  318   0.732   2.941   7.603  1.5123  1.2416  1.4445
32771SOL     OW  319   3.475   9.542   6.551 -0.3559 -0.3382 -0.2554
32771SOL    HW1  320   3.527   9.472   6.511  0.6332 -0.9442  1.9497
32771SOL    HW2  321   3.531   9.577   6.620 -1.8543  0.8572  0.4091
32772SOL     OW  322   0.909  10.843   5.704  0.5734  0.3605  0.4714
32772SOL    HW1  323   0.834  10.814   5.757  0.8681  0.1710  0.7897
32772SOL    HW2  324   0.914  10.937   5.718 -0.5842  0.6444 -0.8128
32773SOL     OW  325   1.723  10.164   2.848 -0.9003 -0.3317  0.7554
32773SOL    HW1  326   1.785  10.196   2.783 -0.8439  0.0009  0.9676
32773SOL    HW2  327   1.740  10.070   2.854  0.1030 -0.1273  1.3654
32774SOL     OW  328   8.309   4.736   8.389  0.4509  0.1713 -0.1499
32774SOL    HW1  329   8.230   4.687   8.409 -0.8871  2.7626  1.4537
32774SOL    HW2  330   8.370   4.714   8.459 -1.0472  2.4819  2.0641
32775SOL     OW  331   5.458   0.243   1.036  0.6619 -0.8692 -0.7032
32775SOL    HW1  332   5.413   0.316   1.077  0.2339 -1.1262 -0.7080
32775SOL    HW2  333   5.505   0.200   1.108 -1.6633 -2.5013 -0.0482
32776SOL     OW  334   2.227   8.719   1.765  0.0915 -0.4614 -0.2124
32776SOL    HW1  335   2.321   8.737   1.773  0.2528 -1.8268  1.5727
32776SOL    HW2  336   2.188   8.805   1.752  1.3507  0.5381  1.9700
32777SOL     OW  337   6.411   0.212   2.047 -0.4082  0.1661  0.5018
32777SOL    HW1  338   6.365   0.165   2.117 -0.3368 -2.8966 -1.2883
32777SOL    HW2  339   6.503   0.206   2.072 -0.4431 -0.2020  0.5558
32778SOL     OW  340  10.853   1.483   4.855 -0.1419 -0.0183 -0.1961
32778SOL    HW1  341  10.865   1.391   4.879 -3.1010 -0.5458 -0.2869
32778SOL    HW2  342  10.933   1.507   4.810  0.6979 -2.5858 -0.2195
32779SOL     OW  343   5.129  10.747   9.748 -0.6764 -0.3648  0.2397
32779SOL    HW1  344   5.141  10.714   9.837 -0.7860 -0.1063  0.3519
32779SOL    HW2  345   5.084  10.831   9.760  0.3662  0.2425  0.0029
32780SOL     OW  346   1.764  10.018   3.141 -0.0335  0.1642  0.1086
32780SOL    HW1  347   1.731  10.108   3.131  1.6262  0.8694  0.5829
32780SOL    HW2  348   1.736   9.973   3.061 -1.0471  1.0367 -0.0565
32781SOL     OW  349   2.464   1.468   2.857 -0.1663 -0.2816  0.3654
32781SOL    HW1  350   2.505   1.471   2.943  0.7302  0.7398 -0.0687
32781SOL    HW2  351   2.374   1.498   2.872 -0.4969 -1.5827  1.1629
32782SOL     OW  352   6.086   6.296   0.711  0.2538 -0.0718  0.6444
32782SOL    HW1  353   6.147   6.272   0.641  0.2860  1.3981  0.1247
32782SOL    HW2  354   6.005   6.317   0.665 -0.1185 -0.3167  1.1809
32783SOL     OW  355   2.527   5.776   6.861  0.1829 -1.1243 -0.0678
32783SOL    HW1  356   2.436   5.807   6.862  0.3254 -0.6960  0.7086
32783SOL    HW2  357   2.520   5.681   6.874 -0.1266 -0.9890  0.8178
32784SOL     OW  358   2.113   0.389   8.028 -0.9374 -0.4477 -0.3228
32784SOL    HW1  359   2.183   0.430   8.080 -0.4516 -0.1448 -1.1941
32784SOL    HW2  360   2.037   0.392   8.085  0.1301 -2.3327  1.3315
32785SOL     OW  361   5.086  10.463  10.538 -0.2277 -0.1794  0.3611
32785SOL    HW1  362   5.103  10.541  10.485 -0.0059 -0.9006 -0.6660
32785SOL    HW2  363   5.007  10.485  10.587 -0.5028  0.4902 -0.3496
32786SOL     OW  364   9.910   5.335   8.147  0.5934 -0.2294 -0.4921
32786SOL    HW1  365   9.904   5.395   8.221 -0.4345 -0.8408 -0.0524
32786SOL    HW2  366   9.833   5.356   8.093  0.1334 -1.2214 -0.2568
32787SOL     OW  367  10.310   4.761  11.039 -0.4717 -0.3964 -0.1732
32787SOL    HW1  368  10.239   4.703  11.010 -0.6781  0.4468 -1.4340
32787SOL    HW2  369  10.390   4.712  11.020 -0.6820 -0.9241  0.2796
32788SOL     OW  370   1.253   5.555  10.820  0.4314 -0.2425 -0.8435
32788SOL    HW1  371   1.279   5.490  10.884 -1.2599 -1.5735 -1.4154
32788SOL    HW2  372   1.172   5.593  10.855  0.6409  0.5376 -1.1812
32789SOL     OW  373   9.012   1.563   8.965 -0.2421 -0.1917 -0.3406
32789SOL    HW1  374   9.089   1.566   9.021 -0.4579  0.4116 -0.0595
32789SOL    HW2  375   8.981   1.472   8.970 -0.1985 -0.1665  0.4418
32790SOL     OW  376   0.684   4.393   9.273 -0.3501  0.4192 -0.1176
32790SOL    HW1  377   0.683   4.449   9.351  1.6304  2.0046 -1.1376
32790SOL    HW2  378   0.766   4.345   9.279 -0.8282 -0.4797 -0.5771
32791SOL     OW  379   4.737   5.983   3.410  0.7770  0.4156  0.2062
32791SOL    HW1  380   4.800   6.054   3.421  0.4146  1.1581 -2.0062
32791SOL    HW2  381   4.783   5.905   3.439  2.0598  1.2185  0.3891
32792SOL     OW  382   9.913   1.934   7.815  0.0491 -0.3754 -0.5455
32792SOL    HW1  383   9.866   2.015   7.836  2.6814  1.1909 -0.3001
32792SOL    HW2  384   9.889   1.916   7.724  0.3548  1.3964 -1.0060
32793SOL     OW  385   2.595   7.418   2.278  0.7541 -0.1598  0.1228
32793SOL    HW1  386   2.688   7.433   2.260  0.8548 -0.3578  0.4641
32793SOL    HW2  387   2.554   7.502   2.259  0.8016 -0.4305 -1.3000
32794SOL     OW  388   0.380   7.713   5.786  0.0354 -0.1095  0.1055
32794SOL    HW1  389   0.407   7.719   5.877 -1.8084  0.0275  0.6886
32794SOL    HW2  390   0.426   7.784   5.742 -0.5794  1.1010  1.3494
32795SOL     OW  391   8.451  10.655   7.218 -0.5513 -0.1937  0.7034
32795SOL    HW1  392   8.490  10.631   7.302  0.4366 -0.7547  0.1034
32795SOL    HW2  393   8.467  10.749   7.209  0.2816 -0.3297  0.6761
32796SOL     OW  394   2.903   2.943   5.329 -0.0719 -0.4336  0.1367
32796SOL    HW1  395   2.910   3.038   5.337  2.1508 -0.5729  0.4428
32796SOL    HW2  396   2.838   2.918   5.395 -0.3553  0.8241  0.3564
32797SOL     OW  397   5.335   1.597  10.213 -0.8572  0.2453  0.2744
32797SOL    HW1  398   5.285   1.630  10.287 -0.7975  1.0631 -0.0354
32797SOL    HW2  399   5.341   1.672  10.153 -1.2976 -0.5230 -0.7613
32798SOL     OW  400   1.627   6.485   0.647 -0.3910  0.1056 -0.1105
32798SOL    HW1  401   1.539   6.466   0.679 -0.9224  0.1388 -1.4925
32798SOL    HW2  402   1.626   6.580   0.631 -1.1733 -0.3086 -3.0594
32799SOL     OW  403   8.365   9.462   8.777  0.7500  0.3919  0.0714
32799SOL    HW1  404   8.342   9.554   8.762 -0.5105 -0.2495 -2.3271
32799SOL    HW2  405   8.393   9.460   8.869 -1.4605  2.7220  0.9134
32800SOL     OW  406   2.272   0.640   8.041  0.2412  0.1638 -0.4797
32800SOL    HW1  407   2.272   0.690   8.122  1.3594  1.4653 -1.2339
32800SOL    HW2  408   2.199   0.676   7.990  0.0448 -0.0885 -0.3768
32801SOL     OW  409   8.599   8.877   8.732 -0.9359  0.3112 -0.1184
32801SOL    HW1  410   8.613   8.938   8.805 -2.8758  0.4988  0.1363
32801SOL    HW2  411   8.517   8.906   8.692 -0.3859 -0.3684 -1.8245
32802SOL     OW  412   0.525  10.326   1.515  0.2818  0.1429  0.3288
32802SOL    HW1  413   0.460  10.397   1.515  0.2812  0.1560  1.0819
32802SOL    HW2  414   0.473  10.246   1.506  0.2090  0.1928  0.2947
32803SOL     OW  415  10.514   1.142   2.853 -0.3282  0.2413  0.5588
32803SOL    HW1  416  10.549   1.210   2.910  0.5840  1.0121 -0.8377
32803SOL    HW2  417  10.419   1.144   2.867 -0.0668 -0.2150  2.6511
32804SOL     OW  418   2.170   9.447   0.207 -0.0780  0.5188 -0.4011
32804SOL    HW1  419   2.112   9.455   0.131  2.6560 -0.0726 -2.6998
32804SOL    HW2  420   2.173   9.535   0.244 -2.4770  0.5427 -0.0649
32805SOL     OW  421   4.224   6.647  10.617  0.6387  0.0548  0.1891
32805SOL    HW1  422   4.172   6.719  10.582  0.5086  0.3385  0.9585
32805SOL    HW2  423   4.190   6.569  10.573 -1.5036  0.0228  1.7712
32806SOL     OW  424   3.613   4.694   4.398  0.5459  0.2778 -0.2306
32806SOL    HW1  425   3.538   4.635   4.390  0.2421  0.8320 -1.6983
32806SOL    HW2  426   3.684   4.639   4.431 -0.2725 -0.4372  0.3863
32807SOL     OW  427   5.295   9.186   0.988  0.2762 -0.1058 -0.4051
32807SOL    HW1  428   5.212   9.139   0.994 -0.0487  0.4790 -0.1716
32807SOL    HW2  429   5.319   9.181   0.896 -0.0923 -0.1686 -0.4992
32808SOL     OW  430   3.840   0.209   8.860  0.2996  0.4861 -0.2464
32808SOL    HW1  431   3.880   0.263   8.792 -0.5364  2.0347  0.4262
32808SOL    HW2  432   3.747   0.232   8.857 -0.2285 -1.5014 -0.4146
32809SOL     OW  433   0.733   4.254   1.043  0.5013 -0.0582 -0.1728
32809SOL    HW1  434   0.818   4.273   1.003  0.4326 -0.6392 -0.5966
32809SOL    HW2  435   0.751   4.183   1.104  0.1622 -0.7658 -0.8870
32810SOL     OW  436   9.250   1.823   5.301 -0.2624 -0.6349  0.3553
32810SOL    HW1  437   9.247   1.730   5.323 -3.9174 -0.9661 -0.8467
32810SOL    HW2  438   9.202   1.829   5.218  1.8401  2.0940 -0.8230
32811SOL     OW  439   3.567   1.004   2.907  0.1683 -0.1848 -0.3988
32811SOL    HW1  440   3.635   1.033   2.846  0.7103 -1.0306 -0.2299
32811SOL    HW2  441   3.504   1.076   2.911  1.0063  0.5746 -0.6407
32812SOL     OW  442  10.645   1.230   3.907 -0.1918  0.0852 -1.0571
32812SOL    HW1  443  10.676   1.200   3.993 -1.2200  2.2718  0.1634
32812SOL    HW2  444  10.719   1.279   3.871 -0.0141 -0.1980 -1.0801
32813SOL     OW  445   1.367   1.198   2.183  0.5332  0.0362  0.0293
32813SOL    HW1  446   1.398   1.111   2.158  0.6825 -0.2762  1.2613
32813SOL    HW2  447   1.404   1.213   2.270  1.2621  1.7274 -0.5297
32814SOL     OW  448  10.036   8.248   5.901  0.1645 -0.5467 -0.4624
32814SOL    HW1  449   9.995   8.283   5.980  0.8101 -0.3813 -0.2007
32814SOL    HW2  450  10.006   8.157   5.897  0.2414 -0.5943  0.0406
32815SOL     OW  451   9.632   9.163   6.827 -0.5900 -0.2692  0.9153
32815SOL    HW1  452   9.548   9.137   6.866 -0.8003  0.6697  1.1034
32815SOL    HW2  453   9.696   9.142   6.895 -0.5763 -1.5783  0.5322
32816SOL     OW  454  10.223   5.594  10.040 -0.2105  0.0116 -0.4173
32816SOL    HW1  455  10.278   5.671  10.058  0.1527 -0.0099 -1.3936
32816SOL    HW2  456  10.239   5.535  10.114 -1.7667  1.5379  1.2376
32817SOL     OW  457   8.218   1.719   6.660  0.1671  0.3994  0.2037
32817SOL    HW1  458   8.273   1.793   6.636 -0.3047  0.6359 -0.1638
32817SOL    HW2  459   8.194   1.678   6.577 -2.5341  1.9814  0.0527
32818SOL     OW  460   6.737   5.704   7.584  0.1437 -0.1233 -0.0498
32818SOL    HW1  461   6.750   5.701   7.679 -1.7625  0.8558  0.2947
32818SOL    HW2  462   6.807   5.760   7.552  0.0888  0.5446  0.9495
32819SOL     OW  463   5.081   5.099   5.840  0.7526  0.5453  0.6704
32819SOL    HW1  464   5.073   5.021   5.894  0.9019  1.5161  2.1416
32819SOL    HW2  465   5.004   5.152   5.861 -0.3073  0.0470 -1.6482
32820SOL     OW  466   8.044   2.916   0.765  0.5414 -0.7235  0.3706
32820SOL    HW1  467   8.009   2.976   0.831  0.2638 -2.9960  2.4486
32820SOL    HW2  468   8.139   2.932   0.766  0.2119  2.1001 -1.7952
32821SOL     OW  469   8.851   3.875   6.646 -0.1323 -0.7576  0.1556
32821SOL    HW1  470   8.878   3.934   6.576 -1.9057  0.9186  0.8113
32821SOL    HW2  471   8.896   3.908   6.724 -1.5050  0.0580  0.6192
32822SOL     OW  472   3.453   0.924   0.127 -0.3790 -0.2737  0.0008
32822SOL    HW1  473   3.505   0.927   0.208  1.4696 -0.3559 -1.1083
32822SOL    HW2  474   3.362   0.921   0.156  0.2586 -0.9467  2.0847
32823SOL     OW  475   2.589   4.015  10.664 -0.2447 -0.3794  0.2020
32823SOL    HW1  476   2.567   3.942  10.723 -0.5951  1.0647  1.9722
32823SOL    HW2  477   2.588   4.092  10.721  1.0969  0.8947 -1.4008
32824SOL     OW  478   3.375   0.754   2.321  0.1336 -0.2732  0.6385
32824SOL    HW1  479   3.393   0.812   2.247 -2.3359 -0.1228  0.0789
32824SOL    HW2  480   3.398   0.667   2.289 -0.6308 -0.1698 -0.2173
32825SOL     OW  481   9.807   4.001   1.597  0.3590  0.1723  0.3428
32825SOL    HW1  482   9.875   4.062   1.625  0.3269  0.1721  0.4216
32825SOL    HW2  483   9.839   3.965   1.514 -0.2520  1.3304 -0.4202
32826SOL     OW  484   5.941   0.325   8.344  0.0912 -0.1048  0.0705
32826SOL    HW1  485   5.889   0.322   8.424 -0.3167  2.7296  0.0117
32826SOL    HW2  486   6.025   0.285   8.368 -0.4659 -0.4831  1.5110
32827SOL     OW  487   9.021   5.016   8.310  0.7853  0.4421 -0.2800
32827SOL    HW1  488   9.073   5.004   8.390 -0.0894 -1.3958  0.0585
32827SOL    HW2  489   8.934   5.038   8.341  0.9066  1.6931 -0.7996
32828SOL     OW  490   1.148   0.950   0.030 -0.8589  0.3667 -0.7243
32828SOL    HW1  491   1.143   0.995   0.114  0.5413  1.1059 -1.0113
32828SOL    HW2  492   1.148   0.857   0.053  0.5450  0.5550  0.2150
32829SOL     OW  493   0.066   1.232  10.336 -0.0517  0.3498 -0.2839
32829SOL    HW1  494   0.158   1.253  10.323 -0.1524  1.2341  0.2790
32829SOL    HW2  495   0.042   1.177  10.262  0.6184  1.1355 -1.1013
32830SOL     OW  496   0.239   0.808   6.399 -0.1939  0.2077  0.2112
32830SOL    HW1  497   0.239   0.713   6.412  0.8192  0.1850  0.1025
32830SOL    HW2  498   0.214   0.820   6.308  0.4529  0.0035  0.0043
32831SOL     OW  499   7.387  10.444   2.469  0.0517 -0.5300 -0.1240
32831SOL    HW1  500   7.427  10.504   2.406 -0.5541 -0.4771 -0.4644
32831SOL    HW2  501   7.372  10.364   2.419  2.2753 -1.5448  0.7154
32832SOL     OW  502  10.639   5.236   5.995 -0.2564  0.0936  0.0708
32832SOL    HW1  503  10.687   5.159   6.025 -1.6205 -0.3302  1.2873
32832SOL    HW2  504  10.602   5.210   5.911  0.9575  0.1572 -0.5046
32833SOL     OW  505   1.775   1.695   3.472 -0.0981  0.1533 -0.1759
32833SOL    HW1  506   1.834   1.712   3.545  0.7251  1.1264 -1.0357
32833SOL    HW2  507   1.767   1.779   3.428 -0.2082 -0.5137 -1.4736
32834SOL     OW  508   2.180   3.075   6.590 -0.0590 -0.4910  0.0609
32834SOL    HW1  509   2.267   3.083   6.630 -0.2370  0.3568  0.2922
32834SOL    HW2  510   2.197   3.075   6.496  0.1323  0.8704  0.0648
32835SOL     OW  511   0.041   1.438   9.991  0.3710  0.0182  0.2319
32835SOL    HW1  512  -0.044   1.453   9.949 -2.1381  0.3257  4.8232
32835SOL    HW2  513   0.053   1.343   9.987 -1.4835 -0.3342  1.4969
32836SOL     OW  514   8.783   2.823   5.835 -0.0009  0.0438  0.4652
32836SOL    HW1  515   8.857   2.876   5.805 -0.0878  0.6670  1.3240
32836SOL    HW2  516   8.823   2.751   5.884  0.1036 -0.5323 -0.4479
32837SOL     OW  517   2.896   6.414   5.917  0.3278  0.1726  0.2818
32837SOL    HW1  518   2.844   6.491   5.891  1.7012  1.7824  2.0072
32837SOL    HW2  519   2.833   6.343   5.921 -1.3342  1.5652  0.1398
32838SOL     OW  520   8.195   3.365   7.659 -0.5771 -0.1522  0.0764
32838SOL    HW1  521   8.212   3.358   7.565 -0.0889 -2.9057  0.2769
32838SOL    HW2  522   8.279   3.390   7.697 -0.6113  0.3223 -0.1540
32839SOL     OW  523  10.191   9.377   4.525 -0.2232  0.4000  0.4903
32839SOL    HW1  524  10.217   9.444   4.587 -0.5333  0.6869  0.3142
32839SOL    HW2  525  10.107   9.345   4.557 -1.2611  1.7847 -0.7187
32840SOL     OW  526   3.193   3.375   2.124 -0.4826 -0.4820  0.0058
32840SOL    HW1  527   3.184   3.440   2.054 -0.1307 -0.2140  0.2042
32840SOL    HW2  528   3.103   3.356   2.151 -0.5894 -0.1024 -0.0798
32841SOL     OW  529   4.396   7.586   7.610 -0.3166 -0.0358  0.6444
32841SOL    HW1  530   4.478   7.635   7.603 -0.0823 -0.0314  2.7847
32841SOL    HW2  531   4.330   7.651   7.634 -0.5261 -0.3527  0.9423
32842SOL     OW  532  10.236   5.470   3.228 -0.3636 -0.1085 -0.0098
32842SOL    HW1  533  10.302   5.428   3.284  0.2790  1.3905  0.4125
32842SOL    HW2  534  10.261   5.562   3.227 -1.0405  0.0942 -1.8518
32843SOL     OW  535   5.192   8.026   5.513 -0.2578  0.3609 -0.6753
32843SOL    HW1  536   5.181   8.121   5.517  1.3771  0.5500  1.0860
32843SOL    HW2  537   5.147   7.999   5.433 -1.9600  2.4275 -0.4978
32844SOL     OW  538   8.066  10.201   2.857 -0.0065  0.0046 -0.1629
32844SOL    HW1  539   8.063  10.208   2.952 -0.7651  1.3373 -0.2531
32844SOL    HW2  540   8.082  10.108   2.840 -2.7548 -0.8610  1.2568
32845SOL     OW  541   1.193   8.153   9.239 -0.0947  0.4980 -0.0109
32845SOL    HW1  542   1.146   8.114   9.312 -0.7418  1.6176  0.1826
32845SOL    HW2  543   1.127   8.167   9.171  0.4963 -0.5368 -0.8447
32846SOL     OW  544   9.218   7.732   8.766  0.5365 -0.3105  0.1509
32846SOL    HW1  545   9.203   7.820   8.801  0.7507 -0.3580  0.3625
32846SOL    HW2  546   9.148   7.679   8.804  0.4826 -0.2589  0.1244
32847SOL     OW  547   3.957   0.571   1.556  0.5809 -0.0062 -0.1921
32847SOL    HW1  548   4.042   0.615   1.547  0.2602  0.5705 -0.4694
32847SOL    HW2  549   3.901   0.614   1.492 -0.1623  0.2236  0.5872
32848SOL     OW  550   6.102   7.745   3.492 -0.0327  0.6395  0.5092
32848SOL    HW1  551   6.172   7.737   3.428  1.9372  4.4468  1.8706
32848SOL    HW2  552   6.097   7.659   3.534  1.7268 -0.6032 -1.6219
32849SOL     OW  553   9.383   2.321   8.304 -0.1273 -0.2379  0.3158
32849SOL    HW1  554   9.339   2.314   8.220  2.0681 -0.2810 -0.8778
32849SOL    HW2  555   9.374   2.413   8.328  1.3587  0.3557 -1.2230
32850SOL     OW  556   4.889   6.528   5.932 -0.1169  0.5915 -0.1471
32850SOL    HW1  557   4.868   6.606   5.983  0.2875 -0.2128  1.2997
32850SOL    HW2  558   4.838   6.458   5.973 -0.1039 -0.0038 -1.1211
32851SOL     OW  559   0.204   2.013  10.297 -0.7569  0.4016 -0.2033
32851SOL    HW1  560   0.283   2.014  10.351 -0.6966 -0.8450 -0.2346
32851SOL    HW2  561   0.168   2.101  10.305  0.7115  1.0419 -0.3088
32852SOL     OW  562   1.073  10.155   2.272 -0.3961 -0.2888  0.2745
32852SOL    HW1  563   1.161  10.193   2.262 -0.8446  1.1938  1.6224
32852SOL    HW2  564   1.021  10.225   2.312 -1.6760 -1.8337  1.4286
32853SOL     OW  565   3.745   3.846   5.010  0.3843 -0.4184 -0.3267
32853SOL    HW1  566   3.661   3.801   5.006  0.7020 -1.2653  1.6643
32853SOL    HW2  567   3.749   3.896   4.928 -2.1063 -0.2362 -0.4028
32854SOL     OW  568  10.602   7.279   8.336 -0.1538  0.3761  0.2056
32854SOL    HW1  569  10.515   7.269   8.299 -0.2559  0.7360  0.3456
32854SOL    HW2  570  10.592   7.259   8.429 -0.0688  0.3244  0.2043
32855SOL     OW  571   1.260  10.132   0.619  0.3976  0.0948  0.2315
32855SOL    HW1  572   1.176  10.100   0.588 -0.0657 -0.3692  1.8754
32855SOL    HW2  573   1.317  10.127   0.543 -1.0020  0.2359 -0.8569
32856SOL     OW  574   2.058   1.027   1.820  0.6189 -0.2051  0.0861
32856SOL    HW1  575   1.982   0.973   1.800  0.2572  0.4146 -0.2604
32856SOL    HW2  576   2.114   0.971   1.874  0.9407 -1.4134 -1.4415
32857SOL     OW  577   6.233   2.128   3.378 -0.7815 -0.8536 -0.2082
32857SOL    HW1  578   6.206   2.121   3.469  0.8247 -0.6236  0.3246
32857SOL    HW2  579   6.324   2.096   3.377 -0.4361  0.0531 -1.5308
32858SOL     OW  580   0.400   8.520   7.342 -1.0388  0.2659 -0.1385
32858SOL    HW1  581   0.441   8.453   7.288 -1.8024  0.5299 -1.0720
32858SOL    HW2  582   0.348   8.572   7.281 -1.0084  1.2895  0.6759
32859SOL     OW  583   7.223   2.653   3.264  0.7139  0.2122  0.6375
32859SOL    HW1  584   7.301   2.704   3.280  1.0724 -0.5201  1.3002
32859SOL    HW2  585   7.153   2.717   3.250  1.1280  0.8663  1.5659
32860SOL     OW  586   9.741  10.150   0.140  0.0280 -0.1072 -0.1365
32860SOL    HW1  587   9.813  10.151   0.203 -0.3882 -0.8250  0.3633
32860SOL    HW2  588   9.735  10.060   0.111 -1.5291 -0.3605  0.8563
32861SOL     OW  589   0.246   2.833   4.868 -0.4536  0.1925  0.0603
32861SOL    HW1  590   0.152   2.834   4.852 -0.6664  0.4879  1.2339
32861SOL    HW2  591   0.266   2.743   4.890  0.1819 -0.6802 -3.4762
32862SOL     OW  592   4.987   7.819   5.358  0.4378 -0.0530  0.4080
32862SOL    HW1  593   5.047   7.758   5.402  0.4589  0.9608  1.8664
32862SOL    HW2  594   4.936   7.858   5.430 -2.0433 -0.9146 -0.7695
32863SOL     OW  595  10.341   8.745   7.132  0.2584  0.1105 -0.6660
32863SOL    HW1  596  10.425   8.754   7.175 -0.3192 -0.8801  0.7336
32863SOL    HW2  597  10.362   8.725   7.041  1.5235 -0.0076 -0.3577
32864SOL     OW  598  10.781   4.484   4.967  0.1508 -0.4153 -0.1747
32864SOL    HW1  599  10.874   4.468   4.953 -0.2097 -2.4898 -0.5113
32864SOL    HW2  600  10.762   4.447   5.053 -0.2428  0.6100  0.1938
32865SOL     OW  601   1.468   8.167  10.771 -0.1674 -0.0254  0.1346
32865SOL    HW1  602   1.559   8.188  10.794 -0.0310 -1.5945  1.1529
32865SOL    HW2  603   1.448   8.226  10.698  1.2004  1.3336  0.7880
32866SOL     OW  604   4.654   7.807   4.092  0.0339  0.3230  0.5799
32866SOL    HW1  605   4.669   7.828   4.184 -1.2338  2.2056  0.4257
32866SOL    HW2  606   4.567   7.844   4.073 -0.1396 -0.8358 -1.1338
32867SOL     OW  607   3.381   2.205   8.560 -0.4847 -0.0029 -0.0017
32867SOL    HW1  608   3.393   2.277   8.498 -0.9201  0.4602  0.4471
32867SOL    HW2  609   3.412   2.128   8.513  1.1533  0.6522 -0.0523
32868SOL     OW  610   7.989   4.387   6.915 -0.0158  0.1261 -0.0614
32868SOL    HW1  611   8.015   4.393   6.823  0.7962  0.1600  0.1583
32868SOL    HW2  612   7.993   4.477   6.946 -1.0494  0.2192 -0.1865
32869SOL     OW  613   4.595   7.552  10.790 -0.1114 -0.0498  0.7099
32869SOL    HW1  614   4.550   7.634  10.810 -1.1209 -0.8214  1.7288
32869SOL    HW2  615   4.599   7.506  10.874 -0.4644 -1.4817 -0.0295
32870SOL     OW  616   7.918  10.836   3.090  0.5495 -0.0873  0.6998
32870SOL    HW1  617   7.949  10.751   3.122  0.7673  0.1498  1.1296
32870SOL    HW2  618   7.909  10.824   2.996 -0.9653 -1.0884  0.9322
32871SOL     OW  619   2.501   8.333   1.536  0.0828 -0.2340  0.1630
32871SOL    HW1  620   2.495   8.264   1.602  0.8028 -0.4611  0.0133
32871SOL    HW2  621   2.575   8.305   1.480 -0.3429  0.0792 -0.5745
32872SOL     OW  622   0.707   6.837   7.264  0.0849  0.1944  0.0915
32872SOL    HW1  623   0.800   6.819   7.254 -0.1951 -1.2037 -0.1664
32872SOL    HW2  624   0.665   6.792   7.191 -0.9652 -0.9276  1.3408
32873SOL     OW  625   3.796   9.964  10.102  0.1660  0.2751  0.3059
32873SOL    HW1  626   3.804   9.890  10.043  3.0260  0.0781  0.8261
32873SOL    HW2  627   3.836  10.037  10.055 -0.7472  0.9954  0.6213
32874SOL     OW  628   8.772   5.939  10.268 -0.5160  0.5919 -0.1770
32874SOL    HW1  629   8.820   5.901  10.342 -1.2189  1.0683  0.5405
32874SOL    HW2  630   8.763   5.867  10.206 -0.5361 -0.0149  0.5159
32875SOL     OW  631   9.700   3.213   8.322 -0.4264  0.3818 -0.5855
32875SOL    HW1  632   9.787   3.253   8.312  1.0056 -2.7345 -1.7891
32875SOL    HW2  633   9.655   3.232   8.240 -0.2632  0.5971 -0.6264
32876SOL     OW  634   4.552   7.627   6.020  0.2944  0.0199 -0.0367
32876SOL    HW1  635   4.558   7.611   5.926  0.3312 -1.1093  0.1475
32876SOL    HW2  636   4.483   7.694   6.028 -0.7599 -0.9321 -0.7783
32877SOL     OW  637   2.489   4.721   7.076 -0.3717 -0.4275  0.0190
32877SOL    HW1  638   2.493   4.813   7.101  1.7515 -0.8629  1.5909
32877SOL    HW2  639   2.433   4.681   7.142 -0.5196 -0.4112 -0.0975
32878SOL     OW  640   7.058   1.502   2.446 -0.6988  0.2414  0.3364
32878SOL    HW1  641   7.036   1.409   2.443  1.4175 -0.2958 -0.7047
32878SOL    HW2  642   6.991   1.540   2.503 -1.6345 -1.8994  0.7997
32879SOL     OW  643   0.341   5.270   8.207  0.3669  0.5556 -0.5631
32879SOL    HW1  644   0.392   5.190   8.213  1.1594  1.0835 -0.0726
32879SOL    HW2  645   0.406   5.340   8.210 -0.3463  1.2311 -0.5249
32880SOL     OW  646   1.511   4.663   1.975 -0.7358 -0.3893 -0.4743
32880SOL    HW1  647   1.466   4.579   1.970  0.4214 -1.2732  2.2002
32880SOL    HW2  648   1.444   4.725   2.002 -1.3858 -0.6140 -1.5080
32881SOL     OW  649   5.183   8.304   5.494 -0.0298  0.1380 -1.0188
32881SOL    HW1  650   5.106   8.357   5.475  0.2729  0.5301 -1.1533
32881SOL    HW2  651   5.245   8.364   5.534  0.4426 -0.0337 -1.4809
32882SOL     OW  652   3.684   2.102   0.138 -0.2551  0.0881 -0.2553
32882SOL    HW1  653   3.771   2.074   0.167 -0.2086  0.1140 -0.3691
32882SOL    HW2  654   3.695   2.123   0.046 -0.4582 -0.2312 -0.3554
32883SOL     OW  655   0.749   1.316   2.293 -0.0981  0.0427 -0.1625
32883SOL    HW1  656   0.761   1.230   2.335 -0.1329 -0.6165 -1.4446
32883SOL    HW2  657   0.818   1.371   2.330  1.1892 -1.1058 -0.7611
32884SOL     OW  658  10.567   5.829   9.169 -0.5930 -0.5746 -0.4975
32884SOL    HW1  659  10.639   5.767   9.172  0.1778  0.3332  1.8534
32884SOL    HW2  660  10.562   5.856   9.078  1.0046 -1.8086 -0.9901
32885SOL     OW  661   3.503   0.738   0.751 -0.0998 -0.1681 -0.2839
32885SOL    HW1  662   3.419   0.712   0.713  0.8213  0.5971 -3.0917
32885SOL    HW2  663   3.492   0.831   0.770 -0.6051 -0.5809  1.6095
32886SOL     OW  664   1.696   8.573   8.527  0.3117 -0.1871 -0.4025
32886SOL    HW1  665   1.608   8.610   8.515  0.5231  0.4594  0.0021
32886SOL    HW2  666   1.686   8.513   8.600  0.3024  0.2162 -0.0704
32887SOL     OW  667   4.948   6.657   4.832 -0.0686 -0.5501  0.0772
32887SOL    HW1  668   4.946   6.603   4.911 -1.5356 -1.5041 -0.5635
32887SOL    HW2  669   4.861   6.697   4.827  1.0284  2.1393  0.6412
32888SOL     OW  670   4.702   4.090   0.486  0.5799  0.1707  0.9718
32888SOL    HW1  671   4.698   3.995   0.472  1.4007  0.2825 -0.1986
32888SOL    HW2  672   4.741   4.124   0.405  2.0784  1.3218  2.1228
32889SOL     OW  673   3.423   5.780   2.825 -0.1535  0.2428 -0.0380
32889SOL    HW1  674   3.498   5.771   2.766 -0.0885  0.0149  0.0794
32889SOL    HW2  675   3.389   5.691   2.836 -0.7822  0.4177 -0.5294
32890SOL     OW  676   8.591   7.076   2.906 -0.6614 -0.3857  0.3518
32890SOL    HW1  677   8.661   7.134   2.936  0.5433 -2.0120  0.8253
32890SOL    HW2  678   8.636   6.998   2.874 -2.2562 -1.7344  1.2364
32891SOL     OW  679   5.936   1.369  10.734  0.8539 -0.0893  0.2111
32891SOL    HW1  680   5.965   1.290  10.780 -3.1301 -2.3682 -0.7072
32891SOL    HW2  681   5.933   1.342  10.642 -1.2781  0.8071 -0.0368
32892SOL     OW  682   4.578   9.168   4.522 -0.2938 -0.3105  0.2301
32892SOL    HW1  683   4.640   9.241   4.526  1.9233 -2.1020  0.6118
32892SOL    HW2  684   4.601   9.112   4.597 -0.0513 -2.7684 -1.5580
32893SOL     OW  685   5.700   6.421   1.894  0.3959 -0.0693  0.1000
32893SOL    HW1  686   5.696   6.516   1.902  2.7841  0.0892  0.2028
32893SOL    HW2  687   5.623   6.389   1.942  0.2960  1.7532  1.2326
32894SOL     OW  688   7.697   6.097   7.334 -0.4835  0.6186 -0.4178
32894SOL    HW1  689   7.780   6.050   7.326 -0.9632  0.0361 -2.3583
32894SOL    HW2  690   7.631   6.029   7.344 -0.8177  1.0572  0.5201
32895SOL     OW  691   4.431   2.736   6.352  0.4018  0.0314  0.1952
32895SOL    HW1  692   4.495   2.665   6.362  0.8714  0.2378 -1.2060
32895SOL    HW2  693   4.471   2.797   6.290 -1.0162  0.3313 -0.4709
32896SOL     OW  694   1.457   1.889   7.500 -0.2563  0.2694  0.0546
32896SOL    HW1  695   1.505   1.929   7.428 -0.6880  0.8068  0.0620
32896SOL    HW2  696   1.401   1.823   7.458  2.7976 -2.7687  0.3083
32897SOL     OW  697   4.327   3.986   4.732 -0.2467 -0.0720  0.2849
32897SOL    HW1  698   4.240   4.017   4.705 -0.6294  0.6055  2.1696
32897SOL    HW2  699   4.373   4.064   4.761  0.0281 -0.7588  1.8169
32898SOL     OW  700   7.991   2.009   0.134  0.1154 -0.0484 -0.5542
32898SOL    HW1  701   8.086   2.004   0.128  0.1306  0.4289 -0.7533
32898SOL    HW2  702   7.975   2.078   0.200 -0.0893 -0.6855  0.0765
32899SOL     OW  703   2.323   7.165   7.436 -0.0712  0.8812  0.3547
32899SOL    HW1  704   2.390   7.219   7.477  0.9429 -0.2171  0.2100
32899SOL    HW2  705   2.277   7.224   7.377  0.3520  1.8042  0.9249
32900SOL     OW  706  10.440   5.087   8.719  0.1224 -0.2677  0.2120
32900SOL    HW1  707  10.395   5.169   8.701  2.1657  0.7439 -0.6488
32900SOL    HW2  708  10.370   5.025   8.741 -1.6113  1.2636 -0.7207
32901SOL     OW  709   4.479   9.989   7.831  0.2930  0.5345 -0.1678
32901SOL    HW1  710   4.550   9.938   7.868 -0.2615  0.1572  0.3845
32901SOL    HW2  711   4.473  10.067   7.887 -1.6294 -0.8014  1.6490
32902SOL     OW  712   6.176   3.924  10.829 -0.5372 -0.2042 -0.4943
32902SOL    HW1  713   6.114   3.977  10.880 -0.2571  0.5221 -0.8960
32902SOL    HW2  714   6.242   3.897  10.893 -1.5582 -1.4680  0.0613
32903SOL     OW  715   0.361   5.372   5.197 -0.3173 -0.1762  0.4958
32903SOL    HW1  716   0.299   5.444   5.214 -1.4446 -0.7985 -0.8321
32903SOL    HW2  717   0.309   5.293   5.208  0.3253 -0.7283 -0.3235
32904SOL     OW  718  10.212   8.574   4.625  0.1904 -0.2074 -0.2355
32904SOL    HW1  719  10.154   8.523   4.567 -1.5773  0.5082  0.8050
32904SOL    HW2  720  10.275   8.510   4.658  2.3869 -0.3764 -4.1011
32905SOL     OW  721   6.474   3.465   9.418 -0.0427  0.7858 -0.5257
32905SOL    HW1  722   6.382   3.448   9.439  0.0627  1.3075  0.4223
32905SOL    HW2  723   6.487   3.556   9.443  0.5106  0.9811 -1.4843
32906SOL     OW  724   3.936   7.618   9.716 -0.1929 -0.8357  0.0484
32906SOL    HW1  725   3.945   7.709   9.744  1.6328 -0.5196 -1.3019
32906SOL    HW2  726   3.866   7.619   9.651  0.6545 -0.1259 -0.8745
32907SOL     OW  727   6.475   4.136   3.010  0.1158  0.2253  0.1799
32907SOL    HW1  728   6.541   4.097   3.067  1.1081 -0.9495 -1.6651
32907SOL    HW2  729   6.526   4.187   2.947 -0.9483  1.5667  0.3708
32908SOL     OW  730   7.074   7.842   0.213 -0.1906 -0.0533  0.1009
32908SOL    HW1  731   7.071   7.924   0.162 -2.2482  0.7068  1.3385
32908SOL    HW2  732   7.148   7.794   0.175  2.8965  3.4725  1.0324
32909SOL     OW  733   2.210   6.842   2.622  0.3162 -0.2873 -0.7889
32909SOL    HW1  734   2.243   6.929   2.645 -0.0227 -0.2393 -0.4754
32909SOL    HW2  735   2.250   6.823   2.537  2.0779 -0.7246  0.0980
32910SOL     OW  736   7.650   6.398   3.192 -0.3092 -0.0608 -0.1699
32910SOL    HW1  737   7.580   6.335   3.209 -1.1284  1.2668  1.7410
32910SOL    HW2  738   7.645   6.414   3.097 -1.7723 -0.9263 -0.2757
32911SOL     OW  739   5.462   6.349   2.029  0.2150 -0.0470  0.3920
32911SOL    HW1  740   5.374   6.375   2.056  0.0497 -0.8332  0.6353
32911SOL    HW2  741   5.490   6.286   2.096  0.2728 -1.1247 -0.6294
32912SOL     OW  742   8.872   2.141   2.650 -0.4453  0.3152 -0.6539
32912SOL    HW1  743   8.785   2.160   2.614 -1.2773 -1.2769  0.3903
32912SOL    HW2  744   8.885   2.207   2.718 -2.4532 -1.4151  1.6184
32913SOL     OW  745   5.589  10.494   6.752 -0.4168  0.2632 -0.6202
32913SOL    HW1  746   5.500  10.520   6.778 -0.5951  0.4155 -1.3571
32913SOL    HW2  747   5.620  10.567   6.698  0.1086  0.1517 -0.4683
32914SOL     OW  748   5.952  10.711   4.222  0.1215 -0.2044  0.0134
32914SOL    HW1  749   6.037  10.743   4.192 -0.2999  1.4769  0.5091
32914SOL    HW2  750   5.913  10.670   4.145  0.0972  1.7966 -1.0992
32915SOL     OW  751   7.573   3.761   0.944 -0.2591  0.2763  0.0493
32915SOL    HW1  752   7.662   3.728   0.940 -0.0589  0.7610  0.4154
32915SOL    HW2  753   7.522   3.701   0.889 -0.0810 -1.1946  1.3970
32916SOL     OW  754  10.949   5.251  10.921 -0.0538 -0.0468  0.1010
32916SOL    HW1  755  10.986   5.310  10.987  0.9313 -0.3224 -0.1960
32916SOL    HW2  756  10.855   5.269  10.924  0.2638  2.0160 -0.4428
32917SOL     OW  757  10.701   1.558   5.902 -0.2408  0.1022  0.0125
32917SOL    HW1  758  10.751   1.515   5.832  1.4800 -0.1910  1.3571
32917SOL    HW2  759  10.704   1.651   5.880  1.4208  0.1587  0.3430
32918SOL     OW  760  10.263   7.063   2.852  0.3079  0.4677 -0.4342
32918SOL    HW1  761  10.230   6.974   2.861 -0.2977  0.6691 -0.6523
32918SOL    HW2  762  10.237   7.090   2.764  1.1259  0.6037 -0.6494
32919SOL     OW  763  10.278   6.663   1.586  0.5529 -0.3809  0.2688
32919SOL    HW1  764  10.281   6.706   1.672 -0.5245  0.5559 -0.1247
32919SOL    HW2  765  10.184   6.652   1.569  0.7442 -0.2937 -0.9040
32920SOL     OW  766   2.320  10.667   7.535 -0.4230 -0.2238  0.0257
32920SOL    HW1  767   2.348  10.603   7.602 -0.9880 -1.3196 -0.7582
32920SOL    HW2  768   2.305  10.748   7.584  1.1419 -0.4357  0.9255
32921SOL     OW  769   4.281  10.978   5.838  0.4561  0.3959 -0.0384
32921SOL    HW1  770   4.222  10.925   5.786  0.3196  0.6318 -0.1249
32921SOL    HW2  771   4.341  11.018   5.775 -1.5982  3.1440 -0.4139
32922SOL     OW  772   1.889   2.209   7.325  0.1949 -0.3441 -0.3057
32922SOL    HW1  773   1.822   2.264   7.285 -0.0314 -0.8881 -0.6821
32922SOL    HW2  774   1.918   2.150   7.255  1.1870 -0.0051 -0.1965
32923SOL     OW  775   5.107   7.575   2.852  0.2811  0.0319 -0.3559
32923SOL    HW1  776   5.081   7.601   2.940 -0.9298  0.3754 -0.7933
32923SOL    HW2  777   5.203   7.578   2.853  0.2583  1.9741  0.3835
32924SOL     OW  778   2.613   6.513  10.890 -0.2002 -0.8312  0.7815
32924SOL    HW1  779   2.581   6.514  10.981 -2.9412  1.1543 -0.0329
32924SOL    HW2  780   2.569   6.438  10.850 -1.0881 -0.1850  0.5144
32925SOL     OW  781   8.390   8.215   0.017 -0.0210  0.6574 -0.0219
32925SOL    HW1  782   8.438   8.264  -0.050  0.8451 -2.4051 -1.8409
32925SOL    HW2  783   8.299   8.217  -0.012  0.4575 -1.3405 -1.9027
32926SOL     OW  784   8.863   4.749   5.346  0.8561  0.1058  0.2572
32926SOL    HW1  785   8.911   4.672   5.315  1.3327  0.3008  0.5029
32926SOL    HW2  786   8.874   4.747   5.441 -0.1042 -0.1609  0.3672
32927SOL     OW  787   9.271   9.566   4.124 -0.0236  0.6913  0.4981
32927SOL    HW1  788   9.354   9.613   4.127  0.7767 -0.5088 -0.8633
32927SOL    HW2  789   9.292   9.478   4.156  0.0765 -0.6196 -2.7749
32928SOL     OW  790   6.693   2.351  10.152 -0.2233 -0.2166 -0.5500
32928SOL    HW1  791   6.785   2.374  10.142  0.1887 -0.9537  1.1814
32928SOL    HW2  792   6.646   2.428  10.120  1.0108  0.7884 -0.0370
32929SOL     OW  793   6.833   0.816   5.393  0.1406 -0.0630 -0.3467
32929SOL    HW1  794   6.838   0.910   5.375  0.3584  0.0065  0.0549
32929SOL    HW2  795   6.913   0.780   5.356 -0.5072 -0.2866 -1.5856
32930SOL     OW  796   1.618   7.390   4.326 -0.1561 -0.8171 -0.2367
32930SOL    HW1  797   1.600   7.329   4.398  0.0226  1.1411  1.5501
32930SOL    HW2  798   1.581   7.473   4.355 -2.1703 -0.4159 -3.4350
32931SOL     OW  799   4.428  10.895   1.709 -0.0302 -0.2719  0.2218
32931SOL    HW1  800   4.358  10.830   1.704  0.4114 -0.8953  1.7125
32931SOL    HW2  801   4.491  10.858   1.772  0.2240  1.5930  1.1214
32932SOL     OW  802   1.440   7.503   7.491 -0.6512 -0.2035 -0.0257
32932SOL    HW1  803   1.516   7.500   7.433 -1.3829  0.0231 -1.0231
32932SOL    HW2  804   1.473   7.473   7.575  0.6777  0.4597 -0.2875
32933SOL     OW  805   7.664   4.001  11.014  0.7604  0.0921 -0.3940
32933SOL    HW1  806   7.689   4.039  10.930 -0.6560  2.5395  0.1943
32933SOL    HW2  807   7.574   4.032  11.029  0.0019 -2.4493  0.8292
32934SOL     OW  808   2.525   0.810   8.432 -0.2181  0.4248 -0.0465
32934SOL    HW1  809   2.557   0.818   8.342  3.0641 -1.4663  0.7620
32934SOL    HW2  810   2.560   0.887   8.476 -1.5088  1.1565 -0.2612
32935SOL     OW  811   0.786   7.541   1.892 -0.3533 -0.0756 -0.2952
32935SOL    HW1  812   0.695   7.566   1.876 -1.5882 -3.3893  0.7182
32935SOL    HW2  813   0.780   7.472   1.958  2.7941 -1.2899 -1.1212
32936SOL     OW  814   2.227   3.604   8.538  0.4663 -0.7111  0.5312
32936SOL    HW1  815   2.308   3.645   8.509  0.2994 -0.6371  0.1521
32936SOL    HW2  816   2.254   3.539   8.603  0.7575 -0.1877  0.9358
32937SOL     OW  817  10.624   6.007   5.951  0.1728 -0.7067  0.0013
32937SOL    HW1  818  10.559   6.030   6.017  1.1758  0.6966  0.5365
32937SOL    HW2  819  10.677   5.938   5.992  0.5762 -0.0834  0.5457
32938SOL     OW  820   0.117   7.362   2.310  0.3384 -0.1870 -0.4611
32938SOL    HW1  821   0.144   7.393   2.224  0.6041 -1.7480 -0.9720
32938SOL    HW2  822   0.172   7.285   2.327 -0.5440 -0.6218  0.5672
32939SOL     OW  823   7.501   1.513   9.428  0.5679  0.1807 -0.3488
32939SOL    HW1  824   7.486   1.595   9.476 -0.1678 -0.1330 -0.0220
32939SOL    HW2  825   7.594   1.496   9.438  0.4683  0.2445  0.8042
32940SOL     OW  826   2.739   5.488   6.673 -0.1119 -0.3764 -0.5864
32940SOL    HW1  827   2.648   5.465   6.654 -0.4425  0.6811 -0.3631
32940SOL    HW2  828   2.753   5.571   6.628  0.8061 -0.6190 -0.7698
32941SOL     OW  829   3.105   3.793   8.491 -0.2933 -0.1489 -0.6152
32941SOL    HW1  830   3.170   3.757   8.431  0.6937  1.4477 -0.5626
32941SOL    HW2  831   3.045   3.721   8.508  0.7413 -1.2975 -1.6752
32942SOL     OW  832   9.309   2.863   4.517  0.1530  0.5233  0.0598
32942SOL    HW1  833   9.342   2.804   4.450 -0.0905  0.6718 -0.1914
32942SOL    HW2  834   9.370   2.853   4.590 -0.2640 -0.5441  0.2851
32943SOL     OW  835   9.556   0.223   1.225  0.1064 -0.6790 -0.2390
32943SOL    HW1  836   9.488   0.256   1.166 -2.4457  0.0245  2.7746
32943SOL    HW2  837   9.513   0.150   1.271  1.6243 -0.6229  1.3371
32944SOL     OW  838   0.061   8.753   8.439 -0.1489 -0.4099  0.0631
32944SOL    HW1  839   0.112   8.678   8.469  0.0002  0.0861  1.1030
32944SOL    HW2  840  -0.008   8.716   8.384 -0.0391 -1.2955  0.5097
32945SOL     OW  841   5.110   0.034   6.283 -0.1145 -0.0716 -0.0921
32945SOL    HW1  842   5.153  -0.040   6.239  0.2150 -0.2432  0.5073
32945SOL    HW2  843   5.119   0.015   6.376  2.0193  1.8260  0.1770
32946SOL     OW  844   2.935   2.449   8.504 -0.2086 -0.5641 -0.0603
32946SOL    HW1  845   2.901   2.461   8.415 -1.3677 -0.8842  0.3190
32946SOL    HW2  846   3.009   2.509   8.509 -1.7352  1.4638 -0.3978
32947SOL     OW  847   5.696   1.212   1.833  0.1147 -0.1014 -0.3849
32947SOL    HW1  848   5.764   1.175   1.776 -0.0333  1.3172 -1.5506
32947SOL    HW2  849   5.618   1.216   1.777 -1.2066 -2.4196  1.1510
32948SOL     OW  850   8.282   3.051   2.774  0.2104 -0.0940 -0.0754
32948SOL    HW1  851   8.269   2.962   2.743 -0.8580 -0.2312  0.7219
32948SOL    HW2  852   8.365   3.078   2.735 -0.4660 -0.6779 -2.0104
32949SOL     OW  853   8.602  10.110   8.468 -0.0507  0.5039  0.1047
32949SOL    HW1  854   8.567  10.121   8.380 -0.2097 -1.0445 -0.0580
32949SOL    HW2  855   8.587  10.194   8.511  0.0016  1.2661 -1.3294
32950SOL     OW  856   7.277   2.374   6.592 -0.3701  0.6373 -0.0226
32950SOL    HW1  857   7.196   2.417   6.564 -0.7965 -0.6404 -0.8548
32950SOL    HW2  858   7.299   2.316   6.519  0.6058  0.0251  0.7410
32951SOL     OW  859   0.175   7.382   8.203  0.6248 -0.6970  0.1244
32951SOL    HW1  860   0.205   7.421   8.285  0.4652  0.1387 -0.2027
32951SOL    HW2  861   0.080   7.387   8.208  0.6181 -0.5262 -0.1676
32952SOL     OW  862   2.534   1.297   9.400  0.4619  0.0240  0.2463
32952SOL    HW1  863   2.560   1.248   9.322 -1.0442  0.3966 -0.5282
32952SOL    HW2  864   2.490   1.375   9.365  1.1518  0.9887  1.4710
32953SOL     OW  865   2.822   1.670   1.709 -0.3596  0.1328  0.1433
32953SOL    HW1  866   2.822   1.710   1.796 -0.2807 -1.2899  0.8326
32953SOL    HW2  867   2.911   1.681   1.677  0.3352 -1.5118  1.3436
32954SOL     OW  868   8.194   1.096   5.236 -0.2201  0.2154  0.7730
32954SOL    HW1  869   8.221   1.053   5.155  0.2086  2.8436 -0.5953
32954SOL    HW2  870   8.267   1.082   5.296  0.4878  0.1566 -0.0861
32955SOL     OW  871   5.830   3.831   9.731  0.4984 -0.0200 -0.4868
32955SOL    HW1  872   5.739   3.840   9.704  0.4069  1.4667  0.2272
32955SOL    HW2  873   5.842   3.736   9.743 -0.0883 -0.5339 -3.3837
32956SOL     OW  874   9.023   2.158   2.216 -0.0682  0.0717 -0.0533
32956SOL    HW1  875   9.054   2.166   2.125 -1.1196  0.5945 -0.3809
32956SOL    HW2  876   8.990   2.068   2.222  1.9567 -0.6844  0.4669
32957SOL     OW  877   8.639   0.147   7.912 -0.0179  0.3323  0.0378
32957SOL    HW1  878   8.567   0.182   7.965  0.8404  0.6132  1.0508
32957SOL    HW2  879   8.657   0.217   7.849  0.1268  0.7387  0.5252
32958SOL     OW  880   0.418   4.443   8.150 -0.5011 -0.0790  0.0077
32958SOL    HW1  881   0.411   4.507   8.079 -1.9621  0.4975  0.6179
32958SOL    HW2  882   0.414   4.495   8.230 -2.0503 -0.8967  0.5265
32959SOL     OW  883   1.477   8.627   4.215  0.0865 -0.2484 -0.4270
32959SOL    HW1  884   1.470   8.646   4.308 -0.3735 -0.3239 -0.4461
32959SOL    HW2  885   1.564   8.587   4.205  0.3393  0.2280 -0.1157
32960SOL     OW  886   0.746   2.279   7.751 -0.1057  0.0200 -0.0753
32960SOL    HW1  887   0.652   2.275   7.765  0.0849 -1.6580  0.9920
32960SOL    HW2  888   0.760   2.241   7.665 -0.3974  0.2753 -0.2345
32961SOL     OW  889   1.306   3.394   7.446 -0.2054  0.2151 -0.3422
32961SOL    HW1  890   1.317   3.442   7.364 -1.1254  0.2340 -0.4652
32961SOL    HW2  891   1.380   3.422   7.500 -0.4153  1.3666 -0.6186
32962SOL     OW  892   8.889   1.941   3.820 -0.2420 -0.3529  0.2162
32962SOL    HW1  893   8.849   2.028   3.816 -1.1899 -0.7897 -0.1734
32962SOL    HW2  894   8.873   1.904   3.733 -0.8279 -1.3333  0.7383
32963SOL     OW  895   2.194   9.959   2.371  0.0129 -0.1145  0.4479
32963SOL    HW1  896   2.268   9.929   2.319  0.8066  0.6844  1.0826
32963SOL    HW2  897   2.176  10.047   2.338 -0.5389 -0.2339  0.4211
32964SOL     OW  898   4.512   7.586   7.205  0.2987  0.3602 -0.2976
32964SOL    HW1  899   4.511   7.518   7.138 -0.0868 -1.8154  1.7935
32964SOL    HW2  900   4.427   7.579   7.248  0.5257  1.7155  0.4482
32965SOL     OW  901   7.446  10.767   4.985 -0.1353 -0.3126 -0.0291
32965SOL    HW1  902   7.428  10.854   5.021  0.4691 -0.2683  0.1839
32965SOL    HW2  903   7.371  10.714   5.012  0.3966 -0.3310  1.4871
32966SOL     OW  904   6.583   1.623   4.344  0.6232 -0.2513  0.1992
32966SOL    HW1  905   6.597   1.537   4.304 -0.5357 -0.1958 -0.3579
32966SOL    HW2  906   6.592   1.607   4.438  1.7100 -0.7111  0.0327
32967SOL     OW  907   9.410   8.685   9.930  0.8966 -0.0498 -0.5424
32967SOL    HW1  908   9.401   8.775   9.897  0.6064  1.6502  3.5519
32967SOL    HW2  909   9.325   8.644   9.913  0.9094  0.4882 -2.1337
32968SOL     OW  910   6.163   3.325   2.762 -0.2884 -0.3049  0.4153
32968SOL    HW1  911   6.171   3.368   2.846 -0.9433  1.3026 -0.3003
32968SOL    HW2  912   6.244   3.346   2.716 -0.3573 -0.3459  0.2744
32969SOL     OW  913   2.882   7.857   3.017  0.0142  0.4827 -0.0269
32969SOL    HW1  914   2.903   7.933   2.962  1.0939  0.1699 -0.0804
32969SOL    HW2  915   2.827   7.892   3.086 -1.3021  0.9034 -1.2403
32970SOL     OW  916  10.306   2.667   8.323 -0.8128 -0.0472  0.1814
32970SOL    HW1  917  10.396   2.633   8.325 -0.3108  1.2248  1.6045
32970SOL    HW2  918  10.263   2.624   8.396 -1.4467 -0.8218 -0.6352
32971SOL     OW  919   1.432   1.528   3.242  0.1069 -0.5464  0.5960
32971SOL    HW1  920   1.358   1.537   3.182  0.9375 -0.2312 -0.4138
32971SOL    HW2  921   1.476   1.613   3.238 -1.0180  0.2932  3.3536
32972SOL     OW  922   9.156   9.606   5.953  0.0847  0.7103  0.0660
32972SOL    HW1  923   9.096   9.539   5.985  1.3663  0.0424  1.1367
32972SOL    HW2  924   9.240   9.561   5.942  0.2532  1.4501 -2.1285
32973SOL     OW  925   5.332   2.962   3.629 -0.7261  0.0741  0.2368
32973SOL    HW1  926   5.257   2.905   3.620 -0.7858  0.2097 -0.1365
32973SOL    HW2  927   5.359   2.952   3.721  0.3606 -1.9059 -0.2515
32974SOL     OW  928   3.395  10.050   4.490  0.5462  0.0051 -0.3067
32974SOL    HW1  929   3.482  10.082   4.513  0.4942  0.3322 -0.5576
32974SOL    HW2  930   3.400  10.032   4.396  0.6361 -0.9305 -0.1347
32975SOL     OW  931   7.535   6.840   4.968 -0.3528 -0.2145  0.4789
32975SOL    HW1  932   7.565   6.754   4.939 -0.5276 -0.2511  0.4079
32975SOL    HW2  933   7.575   6.901   4.905 -1.3462 -0.3550 -0.3065
32976SOL     OW  934   1.215   0.496   1.148 -0.6137  0.0145 -0.0290
32976SOL    HW1  935   1.259   0.489   1.063 -0.8167 -1.7708 -0.0233
32976SOL    HW2  936   1.286   0.512   1.210  0.3764 -4.0882  0.1554
32977SOL     OW  937   1.004   8.872  10.782  0.1999  0.0428  0.0038
32977SOL    HW1  938   0.980   8.784  10.810 -0.3421 -0.3835 -1.7162
32977SOL    HW2  939   1.085   8.891  10.830 -0.0007 -1.1258  0.8570
32978SOL     OW  940  10.470   5.960   8.687  0.2510  0.0157 -0.4793
32978SOL    HW1  941  10.407   6.030   8.671  0.3951  0.4461  0.7393
32978SOL    HW2  942  10.555   6.004   8.689  0.2353  0.0432  1.5151
32979SOL     OW  943  10.213  10.607   4.460  0.2977 -0.0623 -0.0606
32979SOL    HW1  944  10.135  10.552   4.468 -0.2598  0.7199 -0.0594
32979SOL    HW2  945  10.193  10.667   4.389  2.2938 -2.1245 -2.5439
32980SOL     OW  946   9.222   7.605   0.908 -0.0973 -0.0343  0.1023
32980SOL    HW1  947   9.240   7.587   1.001 -1.4446  0.5121  0.4916
32980SOL    HW2  948   9.293   7.562   0.861  0.4948 -0.4991  1.3821
32981SOL     OW  949   9.011   8.453  10.984  0.1006  0.2297  0.8023
32981SOL    HW1  950   8.946   8.435  10.917 -0.0210  2.0422  0.3828
32981SOL    HW2  951   9.002   8.547  11.002  2.9892  0.6956  0.2987
32982SOL     OW  952   2.235   4.488   6.253  0.1111 -0.2441 -0.6877
32982SOL    HW1  953   2.212   4.454   6.340  1.8565 -0.2270 -0.1859
32982SOL    HW2  954   2.233   4.583   6.263  3.0041 -0.1782  0.1864
32983SOL     OW  955   1.475   5.839   4.490  0.2606  0.3035  0.2746
32983SOL    HW1  956   1.484   5.854   4.396  1.5436  1.3146  0.5264
32983SOL    HW2  957   1.560   5.862   4.526 -1.0958  3.0505  2.0472
32984SOL     OW  958  10.654   7.971  10.995 -0.0237  0.6029 -0.5797
32984SOL    HW1  959  10.594   7.928  11.056 -0.2160  0.1950 -1.0515
32984SOL    HW2  960  10.721   8.010  11.051 -0.0396 -0.0153 -0.1228
32985SOL     OW  961   1.018   2.034   0.580  0.2285  0.1031 -0.0752
32985SOL    HW1  962   0.976   2.041   0.666 -0.6286  0.1704 -0.4891
32985SOL    HW2  963   1.112   2.039   0.599  0.0491  3.8189  0.5483
32986SOL     OW  964   6.976   1.328   2.973 -0.1798  0.0122 -0.8526
32986SOL    HW1  965   6.883   1.348   2.975 -0.3155 -0.5498  1.5348
32986SOL    HW2  966   7.017   1.407   2.935 -1.2514  2.3932  2.4513
32987SOL     OW  967  10.848   1.336   4.559  0.2495  0.4440 -0.1486
32987SOL    HW1  968  10.753   1.346   4.557  0.1656 -0.4024 -1.7283
32987SOL    HW2  969  10.881   1.419   4.526  0.0805  0.7595  0.4525
32988SOL     OW  970   3.291   8.350   9.178 -0.3131  0.1435 -0.1709
32988SOL    HW1  971   3.241   8.277   9.215 -1.3703 -0.1031 -1.9588
32988SOL    HW2  972   3.226   8.420   9.168 -0.6902 -0.4972 -3.4413
32989SOL     OW  973   0.800   7.686   9.757 -0.3724 -0.6947  0.2533
32989SOL    HW1  974   0.888   7.666   9.789 -0.6890 -1.0613  0.9214
32989SOL    HW2  975   0.757   7.728   9.832 -0.5970 -0.0234 -0.2443
32990SOL     OW  976   8.240   7.178   7.795 -0.6071 -0.5587 -0.3185
32990SOL    HW1  977   8.287   7.246   7.747 -0.5309 -1.1261 -1.0627
32990SOL    HW2  978   8.200   7.225   7.869  0.7351  0.0182  0.0854
32991SOL     OW  979   0.079   7.963  10.910  0.3369  0.0376  0.4311
32991SOL    HW1  980   0.066   7.882  10.860 -1.0278  1.1834 -1.1955
32991SOL    HW2  981   0.063   8.033  10.847 -0.6434  1.5820  2.2825
32992SOL     OW  982   5.407   8.650   5.188  0.0855 -0.5738  0.6879
32992SOL    HW1  983   5.457   8.724   5.152 -0.9934 -0.1511  0.0128
32992SOL    HW2  984   5.470   8.603   5.243  2.0488 -1.6159 -2.2069
32993SOL     OW  985   1.409   6.059   9.629 -0.6535 -0.1857 -0.1638
32993SOL    HW1  986   1.406   6.006   9.709  0.3195  0.9265  0.6504
32993SOL    HW2  987   1.428   6.147   9.659 -1.2196  0.4534 -1.5726
32994SOL     OW  988   0.382   1.735   2.455  0.0222  0.0988 -0.0913
32994SOL    HW1  989   0.356   1.823   2.479  0.2295  0.3012 -0.5956
32994SOL    HW2  990   0.464   1.746   2.407 -0.6772 -0.2258 -1.4302
32995SOL     OW  991   6.528   6.449   7.286  0.3682 -0.5802  0.6725
32995SOL    HW1  992   6.434   6.440   7.301  0.2581 -0.0181  0.3339
32995SOL    HW2  993   6.543   6.410   7.200  0.4123 -0.5110  0.6482
32996SOL     OW  994   1.053   0.814   0.869 -0.5347 -0.1583 -0.0939
32996SOL    HW1  995   0.988   0.863   0.919  1.4682  0.8563  1.6441
32996SOL    HW2  996   1.127   0.874   0.859  0.4674 -1.5119 -1.3642
32997SOL     OW  997  10.226   5.023   3.501 -0.0986 -0.0749  0.1444
32997SOL    HW1  998  10.265   5.025   3.588  0.1203 -0.5293  0.0613
32997SOL    HW2  999  10.165   4.949   3.504 -1.6176  1.1525  0.5491
32998SOL     OW 1000   6.525   3.133   8.973  0.2613  0.0521 -0.3875
32998SOL    HW1 1001   6.530   3.184   9.053 -1.6120 -0.1544 -0.1002
32998SOL    HW2 1002   6.597   3.166   8.919  1.7009  0.0326  1.4331
32999SOL     OW 1003  10.714   7.536   2.044 -0.1136 -0.2735 -0.0697
32999SOL    HW1 1004  10.784   7.472   2.054 -0.5985 -0.6149  1.5891
32999SOL    HW2 1005  10.659   7.501   1.974  0.9328 -0.4118 -0.8338
33000SOL     OW 1006   5.027   4.675   7.534  0.3982  0.1281 -1.1249
33000SOL    HW1 1007   5.000   4.599   7.586  2.1735  0.0212 -0.2759
33000SOL    HW2 1008   5.116   4.655   7.506  1.7962  2.7309  0.9666
33001SOL     OW 1009   6.652   0.445   4.867 -0.6303  0.7262 -0.2174
33001SOL    HW1 1010   6.745   0.432   4.848 -0.7025  2.1200 -1.7333
33001SOL    HW2 1011   6.632   0.379   4.933  0.8846 -1.1826 -1.5442
33002SOL     OW 1012  10.632   4.901   8.587  0.1032  0.2608  0.3702
33002SOL    HW1 1013  10.579   4.969   8.629 -0.5964  0.0044 -0.0841
33002SOL    HW2 1014  10.618   4.914   8.493 -1.1773 -1.3532  0.2803
33003SOL     OW 1015  10.700   8.038   1.975  0.1311 -0.2311 -0.0502
33003SOL    HW1 1016  10.628   8.052   2.037 -0.0034  1.3412 -0.5052
33003SOL    HW2 1017  10.774   8.085   2.014  0.4984 -0.6133 -0.2840
33004SOL     OW 1018  10.892   0.836   9.491  0.1975  0.0083  0.0114
33004SOL    HW1 1019  10.898   0.766   9.425  0.4997 -0.0732  0.1249
33004SOL    HW2 1020  10.980   0.872   9.496  0.2543 -0.1991  0.6031
33005SOL     OW 1021   4.180   0.107   6.308 -0.5105  0.0088 -0.2774
33005SOL    HW1 1022   4.232   0.072   6.235 -2.0395 -1.1162 -0.8723
33005SOL    HW2 1023   4.153   0.030   6.358 -1.4625  0.5610  0.0900
33006SOL     OW 1024   6.906   7.707   2.800 -0.2559 -0.0091  0.2677
33006SOL    HW1 1025   6.873   7.621   2.826 -0.7396 -0.1497 -0.7592
33006SOL    HW2 1026   6.855   7.769   2.852 -0.3853 -0.3153  0.5073
33007SOL     OW 1027   0.191  10.640   6.459 -0.7810 -0.2834  0.2879
33007SOL    HW1 1028   0.171  10.553   6.494 -0.2617 -0.3673  0.3846
33007SOL    HW2 1029   0.279  10.632   6.423 -0.9458  0.0597 -0.2014
33008SOL     OW 1030   7.005   0.743   1.008 -0.0059 -0.0030  0.4995
33008SOL    HW1 1031   7.023   0.791   1.089 -1.1837  0.2847  0.6176
33008SOL    HW2 1032   6.914   0.765   0.988  0.8847  1.6592 -2.0974
33009SOL     OW 1033   8.462   9.944  10.357 -0.1050  0.1453  0.0524
33009SOL    HW1 1034   8.496  10.025  10.320  0.3324 -0.2021 -0.3178
33009SOL    HW2 1035   8.525   9.877  10.330 -0.0612 -0.1993  0.9815
33010SOL     OW 1036   8.169  10.339   5.724  0.1080 -0.8773 -0.3821
33010SOL    HW1 1037   8.094  10.316   5.779  0.1200  0.4903  0.2463
33010SOL    HW2 1038   8.244  10.339   5.783  0.3737 -0.8643 -0.7111
33011SOL     OW 1039   6.127   3.246   8.223 -0.1330 -0.2109 -0.0673
33011SOL    HW1 1040   6.048   3.204   8.188 -0.6552  0.2904  0.4768
33011SOL    HW2 1041   6.188   3.248   8.150 -1.7214  2.2099 -1.4611
33012SOL     OW 1042   9.171  10.236   7.089 -0.0976  0.0366  0.2600
33012SOL    HW1 1043   9.237  10.248   7.157 -1.1489  0.9310  1.1644
33012SOL    HW2 1044   9.121  10.159   7.118 -0.6312  0.4990  0.5892
33013SOL     OW 1045   0.877   4.823   7.779  0.4343 -0.3430 -0.0737
33013SOL    HW1 1046   0.917   4.744   7.743  2.6054  0.9239 -0.6579
33013SOL    HW2 1047   0.873   4.883   7.705 -0.3239  0.4102  0.5667
33014SOL     OW 1048   1.942   8.887   4.464 -0.0468  0.7709  0.1398
33014SOL    HW1 1049   2.004   8.854   4.398 -0.6403  2.8378 -1.5964
33014SOL    HW2 1050   1.856   8.870   4.426 -0.4922 -0.0170  1.4652
33015SOL     OW 1051   8.652   4.989   7.640  0.1884 -0.2447  0.3632
33015SOL    HW1 1052   8.679   4.967   7.551  1.7432  0.3085  0.6656
33015SOL    HW2 1053   8.560   4.962   7.645  0.2415 -0.8031 -1.2177
33016SOL     OW 1054   7.282   1.505   6.701  0.4513  0.4295 -0.0828
33016SOL    HW1 1055   7.205   1.472   6.654 -0.1961 -1.7901  2.3331
33016SOL    HW2 1056   7.252   1.586   6.743 -0.7337 -0.5980  1.1177
33017SOL     OW 1057   4.345   7.673   1.095  0.2759 -0.0191 -0.3469
33017SOL    HW1 1058   4.311   7.659   1.183  1.0647  0.7822  0.1104
33017SOL    HW2 1059   4.374   7.586   1.066  1.2746 -0.0827  0.7508
33018SOL     OW 1060   0.893   6.877   2.662 -0.5417 -0.3580  0.2868
33018SOL    HW1 1061   0.962   6.811   2.654 -1.1317 -0.9959  0.3979
33018SOL    HW2 1062   0.837   6.864   2.585 -0.6815 -0.0049  0.3235
33019SOL     OW 1063   6.865   1.561   2.621 -0.4571  0.1428 -0.0174
33019SOL    HW1 1064   6.894   1.539   2.710 -1.3482  2.0356  0.8112
33019SOL    HW2 1065   6.770   1.558   2.625 -0.5321  1.0999 -0.6517
33020SOL     OW 1066   3.331   0.623   4.454 -0.0185  0.4410 -0.5520
33020SOL    HW1 1067   3.319   0.594   4.545  1.2868 -0.2607 -0.5808
33020SOL    HW2 1068   3.282   0.704   4.448 -0.4063  0.3203  0.6900
33021SOL     OW 1069   9.594   8.545   9.149  0.2689  0.1364 -0.3270
33021SOL    HW1 1070   9.557   8.543   9.237  0.8944 -0.7682 -0.0786
33021SOL    HW2 1071   9.649   8.623   9.147 -0.4885  0.6867 -0.2368
33022SOL     OW 1072   1.068   1.597   6.967 -0.9475 -0.1946 -0.8404
33022SOL    HW1 1073   0.984   1.641   6.976 -0.8651 -0.3151  0.9891
33022SOL    HW2 1074   1.119   1.653   6.908 -0.7491  2.4183  1.5797
33023SOL     OW 1075   5.339   0.891   9.581  0.5204 -0.0616  0.1477
33023SOL    HW1 1076   5.291   0.879   9.663  1.0812  1.2174  0.6853
33023SOL    HW2 1077   5.316   0.979   9.552  1.3265 -0.0224 -0.4039
33024SOL     OW 1078   3.396   9.507   5.039 -0.1959 -0.3315  0.3742
33024SOL    HW1 1079   3.388   9.539   4.949 -1.6864  0.5058  0.7742
33024SOL    HW2 1080   3.338   9.431   5.042  0.1241 -0.5688  0.5415
33025SOL     OW 1081   9.657   8.738   8.522 -0.1035  0.6243  0.2592
33025SOL    HW1 1082   9.709   8.730   8.602  0.4762  1.5911 -0.0034
33025SOL    HW2 1083   9.618   8.652   8.509 -0.1456  0.4446  1.5436
33026SOL     OW 1084   6.374   9.886  10.631  0.5923 -0.5008  0.0621
33026SOL    HW1 1085   6.351   9.873  10.723 -3.5434 -0.1231 -0.7458
33026SOL    HW2 1086   6.385   9.980  10.622  0.5990 -0.4976  0.1024
33027SOL     OW 1087   2.417   3.148   1.162 -0.0842  0.1882  0.1082
33027SOL    HW1 1088   2.374   3.091   1.226  0.4134 -0.6609 -0.2967
33027SOL    HW2 1089   2.508   3.153   1.192 -0.6488  3.0709  1.7371
33028SOL     OW 1090  10.117  10.554   2.973 -0.4497  0.0951  0.1319
33028SOL    HW1 1091  10.152  10.641   2.997  1.7117 -0.2613 -1.4108
33028SOL    HW2 1092  10.179  10.492   3.012 -1.2504 -0.7354  0.1145
33029SOL     OW 1093   0.752   0.791   3.211 -0.5135  0.2381  0.8779
33029SOL    HW1 1094   0.768   0.736   3.134 -0.3171  0.0652  1.0406
33029SOL    HW2 1095   0.691   0.858   3.181 -0.9662 -0.2266  0.7448
33030SOL     OW 1096   2.976   7.494   4.969  0.4277  0.1478  0.0445
33030SOL    HW1 1097   2.933   7.413   4.941  0.8768  0.1401 -0.6618
33030SOL    HW2 1098   2.954   7.502   5.061 -1.3949  0.3538 -0.3725
33031SOL     OW 1099   5.072   1.780   5.549 -0.0820  0.2044  0.4405
33031SOL    HW1 1100   5.080   1.871   5.577  0.5805 -0.0944  1.2642
33031SOL    HW2 1101   5.030   1.736   5.623  0.2601 -0.2902  0.3451
33032SOL     OW 1102   5.371   4.906   3.352 -0.7871 -0.0024  0.3804
33032SOL    HW1 1103   5.399   4.939   3.266 -2.3961  0.7177  0.1007
33032SOL    HW2 1104   5.278   4.885   3.341 -1.2634  0.9580  2.1687
33033SOL     OW 1105  10.798   3.518   7.951  0.2484  0.2976  0.3726
33033SOL    HW1 1106  10.751   3.530   7.868  1.7349  0.7808 -0.4459
33033SOL    HW2 1107  10.858   3.593   7.956  2.7713 -1.5382  0.0400
33034SOL     OW 1108  10.401   1.848   7.923 -0.2673 -0.2943  0.2530
33034SOL    HW1 1109  10.311   1.880   7.911  0.4287  0.6764 -4.0048
33034SOL    HW2 1110  10.451   1.926   7.946 -0.0073 -0.0546 -1.0391
33035SOL     OW 1111   2.889   6.001  10.200  0.5511 -0.3114 -0.0849
33035SOL    HW1 1112   2.955   5.993  10.130  2.8224 -1.7368  2.0329
33035SOL    HW2 1113   2.862   5.911  10.217 -1.6010  0.2152 -0.5240
33036SOL     OW 1114   6.608  10.904   0.453 -0.2532  0.5851  0.0493
33036SOL    HW1 1115   6.684  10.882   0.508  0.2843 -0.1427 -0.9665
33036SOL    HW2 1116   6.539  10.846   0.483  0.1609 -0.1010 -0.3091
33037SOL     OW 1117  10.022   9.153  10.811  0.4813 -0.3534  0.0629
33037SOL    HW1 1118  10.110   9.165  10.848 -0.0733 -1.7646  2.0005
33037SOL    HW2 1119   9.987   9.076  10.856 -2.6324  1.4851  1.0976
33038SOL     OW 1120   6.980   0.815   1.303  0.6195  0.0163  0.1862
33038SOL    HW1 1121   6.893   0.824   1.342  0.3348  1.7622 -0.7586
33038SOL    HW2 1122   7.034   0.878   1.352  1.0652 -0.1853 -0.0425
33039SOL     OW 1123   6.454   4.168   6.463  0.2290 -0.2782  0.1609
33039SOL    HW1 1124   6.516   4.096   6.471 -0.2165 -0.6966 -0.0758
33039SOL    HW2 1125   6.368   4.126   6.468 -0.1545 -0.3428 -3.9668
33040SOL     OW 1126  10.193   0.317   7.581  0.1323  0.0976  0.2357
33040SOL    HW1 1127  10.281   0.354   7.571  0.0246  0.3577  0.2370
33040SOL    HW2 1128  10.189   0.246   7.516  0.8295 -0.8402  1.1870
33041SOL     OW 1129   3.996   1.436   9.930  0.0275 -0.4797  0.8008
33041SOL    HW1 1130   3.944   1.377   9.984 -0.0894 -0.7909  0.3577
33041SOL    HW2 1131   4.027   1.381   9.858  0.4123 -0.1373  0.7049
33042SOL     OW 1132   2.083   2.393  10.402 -0.0945  0.5146 -0.5777
33042SOL    HW1 1133   2.048   2.339  10.473  0.8926 -0.6997 -0.9750
33042SOL    HW2 1134   2.033   2.367  10.325  0.6026 -0.1215 -0.8364
33043SOL     OW 1135   6.445   3.875   8.317 -0.4110  0.0598  0.1228
33043SOL    HW1 1136   6.457   3.969   8.329 -0.9455  0.1758 -0.2518
33043SOL    HW2 1137   6.423   3.865   8.225  2.6576 -0.7385 -0.6443
33044SOL     OW 1138   1.699   0.125   2.260  0.3424 -0.1258  0.0040
33044SOL    HW1 1139   1.605   0.144   2.266 -0.1177 -1.8859 -0.9487
33044SOL    HW2 1140   1.711   0.049   2.317  1.1548 -0.0215 -0.0198
33045SOL     OW 1141   8.811   1.474   4.521  0.0851 -0.4681 -0.0457
33045SOL    HW1 1142   8.743   1.535   4.495  0.4361 -0.8767 -2.0744
33045SOL    HW2 1143   8.883   1.529   4.551 -0.1657  0.0503 -0.3963
33046SOL     OW 1144   5.878   2.688   8.163  0.0211  0.4109 -0.6441
33046SOL    HW1 1145   5.857   2.599   8.134 -0.0930  0.4032 -0.5396
33046SOL    HW2 1146   5.973   2.689   8.173 -0.1660 -0.4375  1.7336
33047SOL     OW 1147   5.424   5.711   9.024  0.0229 -0.2907 -0.4691
33047SOL    HW1 1148   5.408   5.804   9.040 -0.7944 -0.3417 -0.9155
33047SOL    HW2 1149   5.337   5.673   9.019  0.3555 -1.3183  0.9896
33048SOL     OW 1150   7.629   7.221   4.946  0.1767  0.1541 -0.6454
33048SOL    HW1 1151   7.653   7.143   4.896 -0.9596 -0.0053 -0.9812
33048SOL    HW2 1152   7.599   7.283   4.880  0.3849  0.6083 -0.3142
33049SOL     OW 1153   9.644   2.631   6.877  0.4175  0.6810  0.8412
33049SOL    HW1 1154   9.642   2.699   6.944 -0.4781  0.8340  0.6785
33049SOL    HW2 1155   9.564   2.646   6.826  1.0187  0.4930 -0.1814
33050SOL     OW 1156   0.398   4.988   4.932 -0.3404  0.1280  0.0161
33050SOL    HW1 1157   0.459   4.989   4.857  0.0764 -0.3829  0.3428
33050SOL    HW2 1158   0.451   5.019   5.006 -0.8015  0.8070  0.0702
33051SOL     OW 1159   0.090   0.859   4.104  0.2501  0.5076  0.4663
33051SOL    HW1 1160   0.178   0.890   4.082 -0.6864  1.4404 -2.3086
33051SOL    HW2 1161   0.032   0.928   4.073 -1.5772 -1.2047 -0.0745
33052SOL     OW 1162   1.714   1.314   5.995 -0.9613  0.6436 -0.7068
33052SOL    HW1 1163   1.701   1.270   6.079 -0.0501  2.7338  0.5893
33052SOL    HW2 1164   1.801   1.353   6.001  0.3312 -1.4236 -3.7578
33053SOL     OW 1165  10.490   9.808   5.512 -0.3686  0.0133  0.0695
33053SOL    HW1 1166  10.518   9.721   5.484  2.6973  0.6455  0.8128
33053SOL    HW2 1167  10.553   9.868   5.472  1.5651  1.3069  4.4131
33054SOL     OW 1168   8.823  10.607   4.892 -0.2034  0.8760  0.0764
33054SOL    HW1 1169   8.759  10.569   4.832  1.1442  1.7015 -1.9913
33054SOL    HW2 1170   8.872  10.670   4.838  1.0267  1.7164  2.0816
33055SOL     OW 1171   1.797   8.066  10.492 -0.2647  0.3791 -0.1018
33055SOL    HW1 1172   1.842   8.104  10.568 -1.9285  1.1945  0.5316
33055SOL    HW2 1173   1.815   8.127  10.421 -0.3969  0.7151  0.1492
33056SOL     OW 1174   2.741   3.219   3.972 -0.1648 -0.0528  0.3235
33056SOL    HW1 1175   2.808   3.243   4.037  0.4413 -1.3556  0.1944
33056SOL    HW2 1176   2.698   3.302   3.951  2.1939  1.0548 -0.4891
33057SOL     OW 1177   5.882   0.865  10.580  0.0362  0.0380 -0.0088
33057SOL    HW1 1178   5.833   0.946  10.567 -1.0068 -0.4738  0.6128
33057SOL    HW2 1179   5.894   0.830  10.491 -0.1896  0.4668 -0.2126
33058SOL     OW 1180  10.149   9.750  10.933 -0.2602 -0.1171  0.3677
33058SOL    HW1 1181  10.188   9.799  11.004  0.0726 -0.6196  0.5351
33058SOL    HW2 1182  10.061   9.787  10.924  0.0084  0.5486  0.4414
33059SOL     OW 1183   8.794   8.192   4.874 -0.4947 -0.3976  0.1364
33059SOL    HW1 1184   8.807   8.100   4.895 -0.0299 -0.2555  0.4863
33059SOL    HW2 1185   8.776   8.234   4.959 -1.5626 -0.3000 -0.1198
33060SOL     OW 1186   6.479   6.298   5.188  0.0971 -0.1452  0.2519
33060SOL    HW1 1187   6.385   6.296   5.171  0.0687  0.9348  0.1987
33060SOL    HW2 1188   6.486   6.308   5.283  0.1603 -0.0465  0.2366
33061SOL     OW 1189  10.405   1.438   7.710 -0.4336 -0.0233 -0.1516
33061SOL    HW1 1190  10.403   1.501   7.637 -0.7250  1.2341  0.9037
33061SOL    HW2 1191  10.376   1.489   7.786  0.6232 -1.0878  1.0063
33062SOL     OW 1192   1.229   4.505   1.004  0.1298  0.2698  0.0294
33062SOL    HW1 1193   1.239   4.505   1.099  1.3994 -0.0918 -0.0819
33062SOL    HW2 1194   1.262   4.419   0.976 -0.6224  0.2023 -0.7099
33063SOL     OW 1195   2.357   3.011   4.127  0.4188 -0.3779  0.0121
33063SOL    HW1 1196   2.434   2.980   4.079  0.0827  0.1507 -0.8900
33063SOL    HW2 1197   2.329   3.090   4.080  0.3501  0.4374  1.3408
33064SOL     OW 1198  10.777   7.203   7.363  0.0665  0.1616 -0.3419
33064SOL    HW1 1199  10.692   7.236   7.394  1.0228  1.5490  0.9128
33064SOL    HW2 1200  10.834   7.208   7.439  0.8452 -2.5233 -0.6543
33065SOL     OW 1201   7.996   4.374   9.600  0.1791 -0.1554 -0.4727
33065SOL    HW1 1202   8.063   4.347   9.538  0.9332  2.5641 -0.9891
33065SOL    HW2 1203   7.940   4.434   9.551 -0.9952 -0.2725  0.6758
33066SOL     OW 1204   9.156   2.494   6.456 -0.1506  0.4490 -0.4750
33066SOL    HW1 1205   9.208   2.572   6.442 -1.2765  1.3584  0.2014
33066SOL    HW2 1206   9.075   2.526   6.496  0.5237 -1.3172  2.6707
33067SOL     OW 1207   5.884   1.607   3.372  0.1749  0.2160  0.0732
33067SOL    HW1 1208   5.831   1.686   3.387  0.2810  0.1655  0.7340
33067SOL    HW2 1209   5.973   1.640   3.358  0.4162  0.1612  1.3914
33068SOL     OW 1210   1.434  10.129   3.833  0.5176 -0.1630  0.1188
33068SOL    HW1 1211   1.508  10.179   3.799  1.6893 -1.1237  1.1828
33068SOL    HW2 1212   1.369  10.131   3.762  1.0844  1.6494 -0.3924
33069SOL     OW 1213   5.981   0.633   5.052 -0.0625  0.0714 -0.0706
33069SOL    HW1 1214   5.995   0.558   5.110 -1.5250  0.3582  0.6867
33069SOL    HW2 1215   6.017   0.708   5.099 -1.8315  0.4174  0.8395
33070SOL     OW 1216   4.782   5.179   3.171  0.1098 -0.3712 -0.8302
33070SOL    HW1 1217   4.809   5.255   3.221 -1.1993  2.2501 -3.7570
33070SOL    HW2 1218   4.693   5.160   3.200  0.3950 -0.7337 -0.1828
33071SOL     OW 1219   4.983   4.441   8.097  0.1460  0.4493 -0.4274
33071SOL    HW1 1220   4.917   4.508   8.083 -0.2592 -0.1572 -1.4816
33071SOL    HW2 1221   4.947   4.387   8.168  1.4622  2.5490  2.0471
33072SOL     OW 1222   8.176   2.518   2.308  0.0302  0.4449 -0.1023
33072SOL    HW1 1223   8.210   2.564   2.232  1.3051 -1.3415 -0.6854
33072SOL    HW2 1224   8.250   2.466   2.340 -1.3068 -1.2285  0.4548
33073SOL     OW 1225   8.429   3.384   0.980  0.0252 -0.7739 -0.0120
33073SOL    HW1 1226   8.450   3.402   1.071  1.3249  1.5069 -0.6809
33073SOL    HW2 1227   8.404   3.470   0.944 -2.0892 -1.8877 -1.4275
33074SOL     OW 1228  10.895   1.252   9.342  0.1240  0.5774  0.7705
33074SOL    HW1 1229  10.854   1.172   9.310 -0.7763 -0.1306  3.4477
33074SOL    HW2 1230  10.823   1.316   9.346  0.0946  0.5069  1.7198
33075SOL     OW 1231   1.158  10.576   7.793 -0.0096  0.1394  0.4301
33075SOL    HW1 1232   1.178  10.669   7.790 -1.0667  0.3509 -1.6012
33075SOL    HW2 1233   1.195  10.546   7.877  0.8450  2.2342  0.8597
33076SOL     OW 1234   6.373   2.228   6.931 -0.0999  0.3819  0.0696
33076SOL    HW1 1235   6.301   2.282   6.964  0.2032 -0.3684  2.0970
33076SOL    HW2 1236   6.355   2.140   6.965  1.4074  0.0297  0.0227
33077SOL     OW 1237   5.665   7.578   2.023  0.3341 -0.5598  0.3673
33077SOL    HW1 1238   5.600   7.508   2.016  1.3197 -1.6623  1.6064
33077SOL    HW2 1239   5.681   7.586   2.117 -1.3014  2.8643  0.5139
33078SOL     OW 1240   2.942   5.034   0.777 -0.0024  0.2500 -0.1084
33078SOL    HW1 1241   2.874   4.973   0.805  0.7087 -0.5643 -0.1371
33078SOL    HW2 1242   2.987   5.058   0.858  0.5712 -0.2971 -0.2667
33079SOL     OW 1243   5.827   5.216  10.452 -0.5894 -0.4336 -0.4293
33079SOL    HW1 1244   5.747   5.246  10.496  0.6964  1.0451  0.9856
33079SOL    HW2 1245   5.808   5.227  10.358 -1.7157  0.7340 -0.0877
33080SOL     OW 1246   3.334   9.032   7.628  0.2039 -0.2682 -0.7909
33080SOL    HW1 1247   3.350   8.940   7.605  0.1135 -0.3541 -0.5118
33080SOL    HW2 1248   3.369   9.042   7.716  1.1401  0.2351 -1.2098
33081SOL     OW 1249   1.427   7.257   6.738  0.5337 -0.0487  0.0456
33081SOL    HW1 1250   1.409   7.325   6.803 -0.8906 -0.2055 -0.1401
33081SOL    HW2 1251   1.414   7.301   6.654 -0.1139 -0.4626 -0.0802
33082SOL     OW 1252   6.029   3.081  10.326  0.5037  0.5813 -0.0923
33082SOL    HW1 1253   5.942   3.115  10.305  1.0256  1.4731 -0.9186
33082SOL    HW2 1254   6.037   3.095  10.421 -0.1431  0.7636 -0.0579
33083SOL     OW 1255   8.800   5.822   0.109 -0.2321 -0.0846 -0.3739
33083SOL    HW1 1256   8.825   5.749   0.165  1.8095 -0.8186 -2.0853
33083SOL    HW2 1257   8.807   5.899   0.166 -1.0044 -1.0434  1.0734
33084SOL     OW 1258   3.725  10.797   5.240  0.0046  0.2252  0.1980
33084SOL    HW1 1259   3.749  10.764   5.154 -0.4438  0.0632  0.1328
33084SOL    HW2 1260   3.773  10.880   5.249 -0.6123  0.6746 -0.5573
33085SOL     OW 1261   2.010   9.334   4.438  0.0429  0.2872 -0.3261
33085SOL    HW1 1262   2.001   9.370   4.526  0.7498 -0.0388 -0.1183
33085SOL    HW2 1263   1.944   9.381   4.386 -1.2862 -0.4145  0.6407
33086SOL     OW 1264   8.993  10.191   4.179  0.6192  0.5474  0.1768
33086SOL    HW1 1265   9.040  10.110   4.159  3.8096  1.8513  1.6073
33086SOL    HW2 1266   8.988  10.237   4.096 -0.6471 -0.7644 -0.5213
33087SOL     OW 1267   3.796   0.828   0.565 -0.3388 -0.1156 -0.0113
33087SOL    HW1 1268   3.714   0.859   0.603 -0.0739 -0.4816  0.8630
33087SOL    HW2 1269   3.848   0.907   0.551 -0.7273  0.0898 -0.3117
33088SOL     OW 1270   0.603   9.934   9.171  0.4094  0.1258  0.0157
33088SOL    HW1 1271   0.678   9.883   9.202  0.5971 -0.2312 -0.9813
33088SOL    HW2 1272   0.593   9.909   9.079 -0.8857  0.2300  0.1032
33089SOL     OW 1273   2.728   3.581   2.839 -0.8673  0.1141  0.6704
33089SOL    HW1 1274   2.735   3.646   2.908 -0.2896  0.5068  0.2441
33089SOL    HW2 1275   2.684   3.627   2.767 -1.0209 -0.1487  0.5949
33090SOL     OW 1276   5.803   5.934   7.028 -0.5085  0.3764 -0.0204
33090SOL    HW1 1277   5.724   5.979   6.995 -0.3784 -1.2307 -2.8567
33090SOL    HW2 1278   5.782   5.841   7.022  1.2152 -0.0590  0.2617
33091SOL     OW 1279   7.052   6.192   2.807 -0.4547 -0.5774 -0.0531
33091SOL    HW1 1280   7.104   6.144   2.743 -0.8310 -0.6558 -0.3073
33091SOL    HW2 1281   6.962   6.186   2.774 -0.3368  1.6210 -0.9641
33092SOL     OW 1282   6.812   5.603   3.959  0.0522  0.3482  0.2185
33092SOL    HW1 1283   6.787   5.676   4.016 -0.3847  0.2534  0.1585
33092SOL    HW2 1284   6.863   5.643   3.889 -0.0280  0.5712  0.2858
33093SOL     OW 1285   0.628   0.555   5.260 -0.3769  0.1085 -0.2941
33093SOL    HW1 1286   0.653   0.642   5.291  0.4915 -0.1857 -0.1524
33093SOL    HW2 1287   0.569   0.521   5.327  0.2149  0.1178  0.2364
33094SOL     OW 1288   5.283   0.621  11.014  0.6125 -0.0059  0.2652
33094SOL    HW1 1289   5.195   0.633  11.050  0.4357 -0.8124  0.1059
33094SOL    HW2 1290   5.324   0.555  11.070  0.5288 -0.8615 -0.6722
33095SOL     OW 1291   7.305   1.160   2.529 -0.0218  0.2639 -0.3362
33095SOL    HW1 1292   7.349   1.169   2.613 -1.0411  1.2294  0.1142
33095SOL    HW2 1293   7.220   1.121   2.549  0.1932 -0.6081 -1.0648
33096SOL     OW 1294   7.582   7.796   7.431 -0.0959 -0.0919 -0.5044
33096SOL    HW1 1295   7.589   7.783   7.336 -0.4632 -1.3640 -0.3810
33096SOL    HW2 1296   7.631   7.722   7.468 -2.3954 -1.3234  0.2872
33097SOL     OW 1297   3.105  10.941   3.397 -0.1946 -0.2873  0.8147
33097SOL    HW1 1298   3.043  10.895   3.453  0.3484 -1.9330  0.1014
33097SOL    HW2 1299   3.187  10.892   3.405  0.8099  1.3187  1.0411
33098SOL     OW 1300   2.438  10.293   6.148  0.1252 -0.1012  0.2031
33098SOL    HW1 1301   2.403  10.381   6.134 -1.7147 -0.6521  1.0678
33098SOL    HW2 1302   2.471  10.293   6.238 -0.4403 -0.4447  0.4206
33099SOL     OW 1303   6.464   6.656   6.713 -0.2054 -0.2670 -0.0802
33099SOL    HW1 1304   6.405   6.618   6.778  0.6767  0.3773  1.1444
33099SOL    HW2 1305   6.407   6.701   6.652 -0.9921  0.8823  1.4372
33100SOL     OW 1306  10.591   5.479   1.845 -0.0057 -0.9933  0.2285
33100SOL    HW1 1307  10.514   5.512   1.891  0.2780  0.0730 -0.0313
33100SOL    HW2 1308  10.636   5.558   1.813 -0.1315 -1.6754 -1.7887
33101SOL     OW 1309   3.411   2.675   3.182  0.3057  0.7148  0.1631
33101SOL    HW1 1310   3.360   2.636   3.110  0.4901  1.7320 -0.5454
33101SOL    HW2 1311   3.368   2.644   3.261  1.5606 -2.5109 -0.2478
33102SOL     OW 1312   2.001   2.259   8.801  0.6829 -0.1704  0.1767
33102SOL    HW1 1313   1.953   2.315   8.862  0.6873 -0.6910  0.6606
33102SOL    HW2 1314   2.010   2.175   8.846 -0.6723 -1.0749 -1.1305
33103SOL     OW 1315   3.952   9.653   5.965  0.3513  0.1177 -0.1759
33103SOL    HW1 1316   4.034   9.672   5.920 -0.3133  2.1348 -0.6444
33103SOL    HW2 1317   3.942   9.724   6.029 -1.7323  0.7970 -1.1619
33104SOL     OW 1318   0.578   3.453   6.272 -0.5250  0.5593  0.0139
33104SOL    HW1 1319   0.649   3.517   6.284 -1.9847  2.2071  0.2923
33104SOL    HW2 1320   0.518   3.471   6.345 -0.8304 -1.3903  0.2917
33105SOL     OW 1321   9.802   9.420   9.349  0.2150 -0.3143  0.0817
33105SOL    HW1 1322   9.716   9.383   9.330  0.3232 -0.6546  0.2606
33105SOL    HW2 1323   9.811   9.492   9.286 -0.2427 -0.2079  0.1297
33106SOL     OW 1324   8.278   0.571   3.067  0.0771 -0.2890  0.6325
33106SOL    HW1 1325   8.277   0.506   3.138  1.8946 -1.0130  0.0735
33106SOL    HW2 1326   8.350   0.543   3.011 -0.5452  0.9637 -0.8608
33107SOL     OW 1327   0.813   1.186   9.186  0.3167 -0.6850 -0.3835
33107SOL    HW1 1328   0.868   1.113   9.158 -0.0820 -1.1119 -0.0673
33107SOL    HW2 1329   0.833   1.257   9.124  1.0033 -0.9269 -0.4454
33108SOL     OW 1330   1.770  10.356   3.450 -0.1463  0.1987 -0.1167
33108SOL    HW1 1331   1.828  10.286   3.422  1.0253  0.3099  1.8209
33108SOL    HW2 1332   1.763  10.413   3.374  3.5036  0.9587 -0.0801
33109SOL     OW 1333   5.127   3.916   4.685 -0.1544 -0.2864  0.4198
33109SOL    HW1 1334   5.156   3.836   4.641  0.9664 -0.5495  1.5684
33109SOL    HW2 1335   5.141   3.899   4.778 -0.3375  1.0683  0.7228
33110SOL     OW 1336   4.873   2.449  10.649  0.1848  0.0967 -0.1675
33110SOL    HW1 1337   4.856   2.368  10.697  2.1815  0.3664  1.1198
33110SOL    HW2 1338   4.867   2.518  10.716  0.4958  0.7764 -0.8293
33111SOL     OW 1339   3.737   5.385   9.609  0.2311  0.4054 -0.3979
33111SOL    HW1 1340   3.752   5.463   9.555  3.0428  0.9264  0.9646
33111SOL    HW2 1341   3.701   5.420   9.691 -2.1186 -0.1939 -1.0845
33112SOL     OW 1342  10.916   2.946   3.205  0.0941 -0.2136 -0.2313
33112SOL    HW1 1343  10.961   2.864   3.185 -0.4348 -0.2421 -1.3532
33112SOL    HW2 1344  10.892   2.982   3.120 -0.5203  0.6392  0.2859
33113SOL     OW 1345   8.345  10.181   4.479  0.3947 -0.9070  0.4846
33113SOL    HW1 1346   8.356  10.148   4.390 -2.0982  0.0090 -0.2616
33113SOL    HW2 1347   8.343  10.103   4.534  1.7378 -1.5032 -0.2626
33114SOL     OW 1348   1.557   1.317   7.361  0.1212  0.2328 -0.4249
33114SOL    HW1 1349   1.591   1.268   7.285 -0.2893 -0.4622 -0.1673
33114SOL    HW2 1350   1.504   1.253   7.409 -1.1422  1.1608 -0.5424
33115SOL     OW 1351   6.807  10.792   2.790  0.2227 -0.1667  0.4227
33115SOL    HW1 1352   6.826  10.751   2.875  0.6332  1.0876  0.9613
33115SOL    HW2 1353   6.815  10.886   2.806  0.8905  0.0832 -1.1487
33116SOL     OW 1354   0.922   2.546   3.579 -0.0308 -0.0543  0.3918
33116SOL    HW1 1355   0.876   2.462   3.574  1.3235 -0.7903 -0.0190
33116SOL    HW2 1356   0.949   2.565   3.489 -1.3247  1.4332  0.2628
33117SOL     OW 1357   4.072   3.558   3.763  0.1534  0.6903  0.4658
33117SOL    HW1 1358   4.007   3.571   3.832 -1.6861 -0.5904 -0.9217
33117SOL    HW2 1359   4.069   3.640   3.712 -1.1217  0.3011 -0.1335
33118SOL     OW 1360   5.392   1.676   2.593 -0.2634 -0.3728  0.1738
33118SOL    HW1 1361   5.400   1.751   2.533 -1.0565 -1.2115 -1.0452
33118SOL    HW2 1362   5.443   1.607   2.552 -1.7015 -1.2959 -0.1465
33119SOL     OW 1363   5.015   3.102   4.389 -0.0201 -0.0614  0.4108
33119SOL    HW1 1364   5.044   3.147   4.468 -0.0366 -1.1054  1.0267
33119SOL    HW2 1365   5.075   3.028   4.381  0.5562  0.5257 -1.0645
33120SOL     OW 1366   9.695   2.361   2.577  0.5843 -0.4126 -0.1028
33120SOL    HW1 1367   9.643   2.435   2.546 -0.1800  0.0613  2.1764
33120SOL    HW2 1368   9.692   2.366   2.672  0.3014 -3.5152  0.1717
33121SOL     OW 1369   0.660   6.639   1.998 -0.2017 -0.5459 -0.1836
33121SOL    HW1 1370   0.669   6.692   1.919  0.5405 -0.9205 -0.3597
33121SOL    HW2 1371   0.587   6.580   1.980 -0.7005  0.0646 -0.1832
33122SOL     OW 1372   1.990   0.239   9.867  0.3454  0.2664 -0.5715
33122SOL    HW1 1373   1.917   0.283   9.910  0.5788  2.3132 -2.1081
33122SOL    HW2 1374   2.019   0.172   9.929 -2.4723 -0.2635  0.2942
33123SOL     OW 1375   6.110   8.799   2.586  0.2886 -0.4600  0.5045
33123SOL    HW1 1376   6.107   8.856   2.509 -1.9125  2.9550  2.7951
33123SOL    HW2 1377   6.191   8.823   2.631  0.0004 -0.0553  0.8174
33124SOL     OW 1378  10.336  10.369   7.280  0.2347  0.1290  0.0694
33124SOL    HW1 1379  10.423  10.329   7.276  0.1145 -0.2052  0.6880
33124SOL    HW2 1380  10.276  10.295   7.277 -0.0040  0.2978  0.5950
33125SOL     OW 1381  10.650   0.580  10.414 -0.1842 -0.1240  0.0981
33125SOL    HW1 1382  10.557   0.556  10.420  0.2359 -2.2647 -1.1517
33125SOL    HW2 1383  10.660   0.613  10.325  0.5533 -1.4290 -0.3191
33126SOL     OW 1384  10.816   6.294   7.820  0.0056  0.0888 -0.2410
33126SOL    HW1 1385  10.829   6.375   7.771  0.2859  1.6802  2.2547
33126SOL    HW2 1386  10.899   6.281   7.866 -0.4101 -1.0055  0.2301
33127SOL     OW 1387   8.126   1.751   2.217  0.4304  0.5205  0.0651
33127SOL    HW1 1388   8.166   1.729   2.301  0.0977  1.4677  0.4770
33127SOL    HW2 1389   8.059   1.683   2.204  1.0578 -0.1299  0.1396
33128SOL     OW 1390   6.593  10.423   4.140  0.3312 -0.1127  0.4929
33128SOL    HW1 1391   6.685  10.402   4.156 -0.0955 -1.2418  1.6491
33128SOL    HW2 1392   6.580  10.508   4.182  0.0869 -1.4621  3.3756
33129SOL     OW 1393  10.839   1.181   8.221  0.1330 -0.4345 -0.6490
33129SOL    HW1 1394  10.909   1.208   8.281 -0.8278 -0.9154  0.7301
33129SOL    HW2 1395  10.866   1.216   8.136  0.9277  1.3739  0.2820
33130SOL     OW 1396   4.125   6.333   2.078  0.1663 -0.1826  0.3019
33130SOL    HW1 1397   4.153   6.245   2.101 -0.1441 -0.6626 -1.0785
33130SOL    HW2 1398   4.045   6.347   2.129  0.3049 -0.6372  0.6453
33131SOL     OW 1399   1.047   8.167   0.549  0.8018  0.3840  0.2323
33131SOL    HW1 1400   0.975   8.220   0.514  1.7308  1.5441  0.0100
33131SOL    HW2 1401   1.047   8.088   0.495 -0.6746  0.0926  0.6249
33132SOL     OW 1402   0.181   4.318   1.448  0.3414  0.4972 -0.0938
33132SOL    HW1 1403   0.205   4.314   1.541  0.1394  0.9869 -0.0149
33132SOL    HW2 1404   0.172   4.227   1.421 -1.2107  0.3450  0.7935
33133SOL     OW 1405   1.043  10.461   2.198  0.3018  0.2009  0.4169
33133SOL    HW1 1406   0.992  10.502   2.268 -0.6423  0.4548 -0.3835
33133SOL    HW2 1407   1.092  10.533   2.158 -1.8419  0.7706 -1.3993
33134SOL     OW 1408   5.009   7.343   0.202 -0.3169  0.0791 -0.2939
33134SOL    HW1 1409   5.080   7.282   0.185  1.4905  1.1483  2.5851
33134SOL    HW2 1410   5.015   7.408   0.132  2.1415  0.5817  0.2933
33135SOL     OW 1411   0.779   0.433   6.907 -0.4032  0.9567 -0.0083
33135SOL    HW1 1412   0.848   0.488   6.871  0.0365  1.4020  1.4467
33135SOL    HW2 1413   0.801   0.344   6.878  1.2724  0.9734  1.0881
33136SOL     OW 1414   0.152  10.378   8.463  0.4974 -0.0417  1.1021
33136SOL    HW1 1415   0.172  10.312   8.397  0.8824 -0.6113  1.7668
33136SOL    HW2 1416   0.060  10.364   8.484  0.2565  0.4271  0.3853
33137SOL     OW 1417   2.997   4.941   8.911  0.3959 -0.2422  0.1502
33137SOL    HW1 1418   3.067   4.880   8.934  1.2416  1.1370  1.4611
33137SOL    HW2 1419   2.977   4.986   8.993 -1.6383 -0.1785 -0.3281
33138SOL     OW 1420  10.804   9.508   5.636  0.2145  0.0153 -0.1497
33138SOL    HW1 1421  10.709   9.503   5.631  0.1538  0.2791  0.6595
33138SOL    HW2 1422  10.826   9.590   5.593 -0.0100  0.4663  0.5802
33139SOL     OW 1423  10.221   1.544   5.005  0.5718 -0.1725 -0.0191
33139SOL    HW1 1424  10.256   1.624   5.045  0.2693  0.1166 -0.3125
33139SOL    HW2 1425  10.142   1.525   5.056  0.6997 -0.3404  0.1143
33140SOL     OW 1426   3.639   9.284   4.044  0.0160  0.1038 -0.2549
33140SOL    HW1 1427   3.586   9.364   4.040 -0.6118 -0.2674  0.5730
33140SOL    HW2 1428   3.617   9.245   4.128  2.6906  0.7062  0.8328
33141SOL     OW 1429   3.916   9.349   4.736 -0.3401 -0.3794  0.2998
33141SOL    HW1 1430   4.006   9.324   4.716 -0.1330  0.8751 -0.4412
33141SOL    HW2 1431   3.923   9.401   4.816 -0.7455 -2.3819  1.7214
33142SOL     OW 1432  10.802   0.083   2.044 -0.2767 -1.1393  0.6131
33142SOL    HW1 1433  10.853   0.160   2.016 -0.9131 -1.1843 -0.8005
33142SOL    HW2 1434  10.856   0.008   2.019  0.3837 -1.1838  2.0713
33143SOL     OW 1435   3.482   8.754  10.993  0.7494  0.1330 -0.2691
33143SOL    HW1 1436   3.557   8.695  11.003  0.3000 -0.2676  0.8554
33143SOL    HW2 1437   3.440   8.725  10.912  0.5360 -1.1141  0.2611
33144SOL     OW 1438  10.413   0.220  10.843 -0.4352  0.2241 -0.3480
33144SOL    HW1 1439  10.358   0.261  10.910 -0.2026 -0.9154  0.5657
33144SOL    HW2 1440  10.490   0.277  10.836  0.3996 -0.5642  1.6926
33145SOL     OW 1441   6.868   1.102   4.634 -0.1124  0.0073  0.1093
33145SOL    HW1 1442   6.802   1.033   4.637 -0.9276  0.7423 -0.3403
33145SOL    HW2 1443   6.897   1.104   4.543 -0.0406  0.2047  0.1368
33146SOL     OW 1444   0.904   4.583   6.384 -0.1734  0.0479  0.1957
33146SOL    HW1 1445   0.899   4.529   6.305  0.5935  0.8072 -0.3884
33146SOL    HW2 1446   0.871   4.669   6.357  0.2928  0.3715  0.6397
33147SOL     OW 1447   0.459   3.477   8.089 -0.3401 -0.0902 -0.2576
33147SOL    HW1 1448   0.529   3.415   8.063 -0.3257 -0.0019 -0.4327
33147SOL    HW2 1449   0.443   3.457   8.181  1.6513  1.5385  0.5141
33148SOL     OW 1450   1.501   3.237  10.913  0.3479  0.3020  0.1464
33148SOL    HW1 1451   1.481   3.316  10.863  1.9930  0.8197  0.2418
33148SOL    HW2 1452   1.479   3.165  10.855  2.1030  0.8876 -1.3278
33149SOL     OW 1453   5.524   4.525   5.143  0.9910  0.2964 -0.1772
33149SOL    HW1 1454   5.489   4.437   5.159  0.5888  0.4539 -0.1714
33149SOL    HW2 1455   5.477   4.581   5.205  1.6026  0.4409  0.1596
33150SOL     OW 1456  10.711   3.925   6.741 -0.3321 -0.1240  0.4958
33150SOL    HW1 1457  10.697   3.852   6.681  2.2043  1.2589 -2.0332
33150SOL    HW2 1458  10.795   3.905   6.783 -0.9095  0.1025  1.7968
33151SOL     OW 1459  10.675   5.680   2.468 -0.2127  0.0743  0.6799
33151SOL    HW1 1460  10.757   5.689   2.516  0.5971  0.5790 -0.7281
33151SOL    HW2 1461  10.671   5.587   2.443  0.5881  0.2913 -0.3220
33152SOL     OW 1462   6.324   9.444   6.475  0.2847 -0.5378 -0.3879
33152SOL    HW1 1463   6.274   9.519   6.443 -0.7799 -1.0556 -0.0214
33152SOL    HW2 1464   6.343   9.392   6.397 -0.6745 -0.8560 -0.4251
33153SOL     OW 1465   5.230   7.192   0.174 -0.0991  0.4431  0.0043
33153SOL    HW1 1466   5.273   7.144   0.245 -0.1438  0.1087 -0.1938
33153SOL    HW2 1467   5.299   7.203   0.108 -0.7841 -1.8588 -1.2043
33154SOL     OW 1468   6.247   6.627   6.243 -0.5688 -0.2773  0.7211
33154SOL    HW1 1469   6.219   6.543   6.206 -1.7369  1.0181 -1.6119
33154SOL    HW2 1470   6.340   6.633   6.221 -0.3319 -1.1789  1.4175
33155SOL     OW 1471   4.203   0.363   4.519  0.1640  0.4811  0.0536
33155SOL    HW1 1472   4.178   0.415   4.596  0.0354 -2.0234  1.8297
33155SOL    HW2 1473   4.202   0.273   4.550  1.5839 -0.5267 -2.5484
33156SOL     OW 1474   8.897   1.589   3.935  0.5699  0.0690 -0.7183
33156SOL    HW1 1475   8.830   1.656   3.941 -1.3285 -1.8595  1.7492
33156SOL    HW2 1476   8.926   1.576   4.025  0.3277 -2.8429 -0.9632
33157SOL     OW 1477   4.611   5.988   0.122  0.0749  0.4619 -0.4999
33157SOL    HW1 1478   4.596   5.897   0.097 -0.9928 -0.0409  1.7235
33157SOL    HW2 1479   4.534   6.035   0.088 -1.3446 -0.2047  1.5834
33158SOL     OW 1480   1.559   0.328   7.380 -0.8781  0.4663 -0.3427
33158SOL    HW1 1481   1.580   0.411   7.338  0.4838 -0.2670 -1.1619
33158SOL    HW2 1482   1.627   0.317   7.447 -0.4536 -0.4631 -0.9202
33159SOL     OW 1483   2.980   6.882  10.061 -0.6967 -0.3284  0.3851
33159SOL    HW1 1484   3.017   6.970  10.072  1.7686 -1.0330 -1.2979
33159SOL    HW2 1485   2.887   6.892  10.082 -0.3368  2.4631  1.1115
33160SOL     OW 1486   3.974   8.781   3.919  0.0665  0.2525  0.1780
33160SOL    HW1 1487   3.922   8.810   3.844  0.4055 -0.9002 -0.5470
33160SOL    HW2 1488   3.981   8.858   3.975  0.2609  1.3122 -1.2395
33161SOL     OW 1489  10.403   0.630   6.336 -0.7873 -0.6624  0.1108
33161SOL    HW1 1490  10.393   0.718   6.371 -0.6024 -0.1268 -1.1209
33161SOL    HW2 1491  10.321   0.613   6.290 -1.1350 -1.4588  0.9866
33162SOL     OW 1492   2.467   5.238   3.115  0.1524 -0.1410 -0.4822
33162SOL    HW1 1493   2.470   5.334   3.106 -0.4558 -0.1318 -0.6326
33162SOL    HW2 1494   2.390   5.212   3.065  0.1524 -0.6852 -0.2035
33163SOL     OW 1495   1.377   1.452   2.379 -0.7135 -0.0459 -0.0660
33163SOL    HW1 1496   1.450   1.432   2.437 -1.0637 -1.5182 -0.0936
33163SOL    HW2 1497   1.350   1.540   2.403  2.4076  1.4373 -1.4904
33164SOL     OW 1498   7.530   5.469  10.310  0.1812  0.3162  0.2307
33164SOL    HW1 1499   7.565   5.541  10.257  1.6028 -0.2333  0.3606
33164SOL    HW2 1500   7.574   5.479  10.395 -1.2454  0.5431  0.9652
33165SOL     OW 1501   8.624   7.701   5.408  0.4419  0.2399  0.1076
33165SOL    HW1 1502   8.698   7.641   5.401  1.7546  1.6555  1.1119
33165SOL    HW2 1503   8.561   7.669   5.343  0.9274 -2.3504  0.7923
33166SOL     OW 1504   1.600  10.597   0.849 -0.3412 -0.0891  0.0599
33166SOL    HW1 1505   1.663  10.640   0.790 -0.3830  0.3868  0.3539
33166SOL    HW2 1506   1.515  10.629   0.819 -0.4803 -1.0098 -0.5642
33167SOL     OW 1507   5.681   5.295   2.735  0.6507 -0.0239 -0.8805
33167SOL    HW1 1508   5.715   5.381   2.758  0.8289 -0.0749 -0.9472
33167SOL    HW2 1509   5.596   5.312   2.695 -0.4576 -0.0258  1.2912
33168SOL     OW 1510   4.729   1.036   0.862 -0.0073  0.1866  0.2856
33168SOL    HW1 1511   4.809   1.050   0.812  1.0530 -0.3074  1.7706
33168SOL    HW2 1512   4.689   0.959   0.822  1.3511 -0.8238  0.7885
33169SOL     OW 1513   4.980   1.833   8.623 -0.0458  0.3445  0.2590
33169SOL    HW1 1514   4.948   1.755   8.668 -1.3494  1.0235  0.5434
33169SOL    HW2 1515   5.068   1.809   8.594 -0.1683 -0.9949  0.9179
33170SOL     OW 1516   6.313   7.330  10.364  0.3667 -0.3099  0.4716
33170SOL    HW1 1517   6.400   7.369  10.373 -0.1852  1.7952 -1.9995
33170SOL    HW2 1518   6.313   7.292  10.276 -1.3276  0.1152  0.2522
33171SOL     OW 1519   0.995   2.726   6.272  0.0786  0.1630  0.2837
33171SOL    HW1 1520   1.090   2.717   6.266  0.0428 -0.7020  0.8010
33171SOL    HW2 1521   0.982   2.791   6.341  0.3033 -0.5055  0.9847
33172SOL     OW 1522   7.292   3.986   6.573  0.7748  0.5208  0.3436
33172SOL    HW1 1523   7.284   4.071   6.531  0.6615 -0.3806 -1.6059
33172SOL    HW2 1524   7.384   3.979   6.599  0.3934  1.9556  2.2996
33173SOL     OW 1525   8.374   4.399  10.914  0.3284  0.2329  0.2029
33173SOL    HW1 1526   8.367   4.306  10.891  1.2264 -0.2457  1.7327
33173SOL    HW2 1527   8.466   4.420  10.900 -0.0074  1.1153 -0.8167
33174SOL     OW 1528   5.025   1.731   8.008  0.1457  0.6722 -0.0144
33174SOL    HW1 1529   4.986   1.676   8.076  0.8474  0.5062  0.2650
33174SOL    HW2 1530   4.964   1.726   7.935 -1.6899  2.4720  1.2672
33175SOL     OW 1531   6.656   1.520   7.204  0.1079  0.4793  0.1887
33175SOL    HW1 1532   6.589   1.497   7.140 -0.3611  0.1011  0.8001
33175SOL    HW2 1533   6.680   1.436   7.244  1.7644  0.4470 -0.7832
33176SOL     OW 1534   4.391   6.682   4.048  0.4322 -0.4029 -0.6102
33176SOL    HW1 1535   4.344   6.622   3.990 -3.3110  0.2628  1.4211
33176SOL    HW2 1536   4.477   6.642   4.060 -0.9886 -4.0058 -1.3201
33177SOL     OW 1537   6.172   4.422   5.867  0.5147  0.4414  0.1127
33177SOL    HW1 1538   6.234   4.350   5.875  2.6998  2.2449  0.5557
33177SOL    HW2 1539   6.186   4.474   5.947 -1.3419  1.1131  0.0527
33178SOL     OW 1540   5.197   6.965   1.342  0.0489 -0.6466  0.4293
33178SOL    HW1 1541   5.209   7.058   1.360 -0.0235 -0.8877  1.8235
33178SOL    HW2 1542   5.265   6.921   1.392  0.1257 -1.3535 -0.2693
33179SOL     OW 1543   9.359   6.520   6.172 -0.4507  0.1258  0.5287
33179SOL    HW1 1544   9.334   6.589   6.233 -1.1027 -0.7979  1.3338
33179SOL    HW2 1545   9.369   6.442   6.226  0.1047 -0.4627 -0.3849
33180SOL     OW 1546  10.155  10.824   2.300 -0.1730  0.7309  0.0849
33180SOL    HW1 1547  10.197  10.831   2.215  2.3900  0.9440  1.2787
33180SOL    HW2 1548  10.180  10.904   2.346 -3.6985  1.9439  0.2445
33181SOL     OW 1549   6.159  10.896   5.363  0.1147  0.0981  0.0422
33181SOL    HW1 1550   6.178  10.982   5.324  0.3822  0.1223  0.2205
33181SOL    HW2 1551   6.196  10.833   5.301 -1.3688  0.0389 -0.8316
33182SOL     OW 1552  10.851   8.143   5.929  0.5976  0.2871 -0.5411
33182SOL    HW1 1553  10.880   8.183   6.011 -0.7521 -0.8088  0.5044
33182SOL    HW2 1554  10.905   8.065   5.920 -0.8243 -0.8644  0.5569
33183SOL     OW 1555   8.094   5.786   3.241  0.2356 -0.1905  0.5023
33183SOL    HW1 1556   8.171   5.729   3.245 -1.3982 -2.6198 -0.3155
33183SOL    HW2 1557   8.121   5.859   3.185  1.5580 -1.6965 -0.9269
33184SOL     OW 1558   6.217   8.942   6.464 -0.2525  0.1279  0.3329
33184SOL    HW1 1559   6.221   8.930   6.559 -1.4494  0.3289  0.4318
33184SOL    HW2 1560   6.126   8.922   6.442 -0.3139  1.3360 -0.5958
33185SOL     OW 1561   0.744   2.871   9.916 -0.8862 -0.7043 -0.1598
33185SOL    HW1 1562   0.656   2.909   9.915 -0.7856 -0.4716 -0.1117
33185SOL    HW2 1563   0.776   2.888  10.005  0.0377  1.1131 -0.7966
33186SOL     OW 1564  10.646   5.391   0.464 -0.4763  0.0141  0.0918
33186SOL    HW1 1565  10.650   5.477   0.506  2.6120 -0.6922  1.4909
33186SOL    HW2 1566  10.553   5.367   0.469 -0.9941  2.0867  2.1203
33187SOL     OW 1567   6.960   7.616   4.867  0.4238  0.5191  0.5835
33187SOL    HW1 1568   7.027   7.660   4.814  2.4784 -0.4410  2.2583
33187SOL    HW2 1569   6.878   7.636   4.822  1.9258  0.5741 -2.4064
33188SOL     OW 1570   1.460   7.047   9.888 -0.7033  0.4491  0.2160
33188SOL    HW1 1571   1.446   6.987   9.815  1.1549 -1.8207  1.5672
33188SOL    HW2 1572   1.505   7.122   9.849 -0.8007 -0.1726 -1.1472
33189SOL     OW 1573   6.444   0.407   8.681 -0.2145 -0.0644  0.3773
33189SOL    HW1 1574   6.450   0.317   8.650 -0.0505  0.1024 -0.0894
33189SOL    HW2 1575   6.512   0.415   8.748  0.9231  0.1785 -0.7737
33190SOL     OW 1576   0.057   5.956   2.157  0.0461 -0.2015 -0.5177
33190SOL    HW1 1577  -0.002   6.017   2.201  2.2948  1.9858 -0.2667
33190SOL    HW2 1578   0.114   6.013   2.105  0.9469 -2.3050 -1.9544
33191SOL     OW 1579   2.509   6.199   7.312  0.0968  0.0789  0.3771
33191SOL    HW1 1580   2.460   6.189   7.230 -1.8284  2.4979  1.1208
33191SOL    HW2 1581   2.442   6.219   7.377  1.7619 -0.1058  2.2092
33192SOL     OW 1582   5.438   5.044   6.268  0.1963  0.3326 -0.7388
33192SOL    HW1 1583   5.481   4.977   6.320  2.1428  1.6117 -0.6148
33192SOL    HW2 1584   5.417   5.113   6.330  1.0633  1.1734 -1.3496
33193SOL     OW 1585   3.887  10.451   8.726  0.2272  0.0887  0.6002
33193SOL    HW1 1586   3.973  10.432   8.687 -0.6738 -1.2138 -0.8710
33193SOL    HW2 1587   3.872  10.379   8.787  0.6465  0.9234  1.7135
33194SOL     OW 1588   8.632   1.480   2.830 -0.5033  0.5226  0.1245
33194SOL    HW1 1589   8.581   1.447   2.756 -0.3436  1.6053 -0.4899
33194SOL    HW2 1590   8.616   1.575   2.829 -0.5458  0.5530  1.5148
33195SOL     OW 1591   6.654   9.348   3.648 -0.2544 -0.0193  0.1455
33195SOL    HW1 1592   6.602   9.300   3.712 -0.8518  2.3389  1.5537
33195SOL    HW2 1593   6.590   9.394   3.594  0.3114  0.6700  0.0388
33196SOL     OW 1594   1.510  10.059   0.995  0.2975  0.6487  0.5406
33196SOL    HW1 1595   1.503   9.964   0.984 -0.2072  0.7985 -0.5569
33196SOL    HW2 1596   1.580  10.085   0.936  0.0168  1.0303  0.3727
33197SOL     OW 1597   7.901   6.676  10.906 -0.5787  0.1166 -0.4714
33197SOL    HW1 1598   7.976   6.734  10.890 -1.3976  1.2496 -0.3114
33197SOL    HW2 1599   7.932   6.615  10.973  0.6799 -0.4096 -1.4563
33198SOL     OW 1600  10.493   3.367   7.177  0.0946 -0.2564 -0.3164
33198SOL    HW1 1601  10.443   3.315   7.114 -0.9062 -0.4327  0.6099
33198SOL    HW2 1602  10.579   3.376   7.136 -0.5495 -0.2962 -1.7493
33199SOL     OW 1603   8.985   9.086   4.893 -0.0488 -1.0924 -0.1116
33199SOL    HW1 1604   8.981   9.123   4.805 -1.0263 -0.6388  0.1077
33199SOL    HW2 1605   8.902   9.111   4.933  0.8267 -0.3296  1.3123
33200SOL     OW 1606   0.879   8.723  10.443 -0.2213  0.5216  0.9433
33200SOL    HW1 1607   0.925   8.665  10.504  2.4055 -0.9020 -2.0913
33200SOL    HW2 1608   0.943   8.791  10.422 -0.5946  0.3183 -1.0098
33201SOL     OW 1609   7.325   0.948   1.961  0.4729  0.0254 -0.5553
33201SOL    HW1 1610   7.380   1.021   1.932  2.3642  1.0499  4.4577
33201SOL    HW2 1611   7.386   0.875   1.970 -0.0894 -0.3626  0.1613
33202SOL     OW 1612   0.225   5.431   0.312  0.2478 -0.2659 -0.1517
33202SOL    HW1 1613   0.130   5.438   0.301 -0.1460 -1.1343  2.0211
33202SOL    HW2 1614   0.235   5.366   0.382  2.3447  1.5039  1.3097
33203SOL     OW 1615   4.178  10.330   7.559 -0.3263 -0.1813  0.5221
33203SOL    HW1 1616   4.154  10.355   7.470 -1.4440  0.1293  0.8838
33203SOL    HW2 1617   4.214  10.242   7.551  1.1235  0.4743 -0.4351
33204SOL     OW 1618   7.440   6.276   2.159 -0.2812 -0.4189  0.2650
33204SOL    HW1 1619   7.496   6.289   2.082 -0.0761  0.6235  0.5820
33204SOL    HW2 1620   7.456   6.352   2.214 -0.6849 -0.9867  1.1955
33205SOL     OW 1621   6.946   4.187   3.838 -0.0947 -0.1289 -0.1914
33205SOL    HW1 1622   6.952   4.258   3.903  1.6251 -0.4396  0.0481
33205SOL    HW2 1623   6.987   4.224   3.759  0.4119 -0.6935 -0.1989
33206SOL     OW 1624   6.358   1.143   1.831  0.2812  0.4795  0.5825
33206SOL    HW1 1625   6.305   1.187   1.765 -1.5999 -0.3181  1.4793
33206SOL    HW2 1626   6.427   1.206   1.853  0.2062  1.2312 -1.2132
33207SOL     OW 1627   4.410  10.568   6.965 -0.5398 -0.6111  0.6835
33207SOL    HW1 1628   4.345  10.599   6.902  0.5400  0.1580 -0.1064
33207SOL    HW2 1629   4.385  10.478   6.983 -0.8432 -0.8800 -0.9263
33208SOL     OW 1630   9.740   2.181   0.766  0.3465 -0.2426 -0.1723
33208SOL    HW1 1631   9.820   2.215   0.727  0.9016 -2.2413 -0.9166
33208SOL    HW2 1632   9.672   2.197   0.701  0.2761  0.7445  0.1267
33209SOL     OW 1633   3.929   6.404   8.501 -0.0098  0.4027 -0.4953
33209SOL    HW1 1634   3.979   6.469   8.450  0.4394  0.6677  0.2615
33209SOL    HW2 1635   3.890   6.455   8.573 -0.2011 -0.0541 -0.2708
33210SOL     OW 1636  10.261   5.627   3.575 -0.5376  0.0193  0.2280
33210SOL    HW1 1637  10.254   5.650   3.667  2.9154  1.9314  0.1720
33210SOL    HW2 1638  10.260   5.711   3.529  1.1219 -0.6627 -1.1289
33211SOL     OW 1639   7.781   9.400   5.358 -0.2794  0.0087  0.2069
33211SOL    HW1 1640   7.845   9.465   5.386  0.3053 -0.7648  0.7264
33211SOL    HW2 1641   7.817   9.364   5.276 -1.3149  1.3217 -0.8557
33212SOL     OW 1642   9.968   8.769   0.930  0.6024  0.1111 -0.1395
33212SOL    HW1 1643   9.884   8.724   0.944  0.9664 -1.1624 -1.7359
33212SOL    HW2 1644   9.946   8.846   0.878 -0.0043  1.8446  2.4726
33213SOL     OW 1645   5.374  10.213   0.104 -0.0045 -0.3594  0.2038
33213SOL    HW1 1646   5.453  10.264   0.084  0.2662 -0.8765 -0.0634
33213SOL    HW2 1647   5.387  10.129   0.059 -0.2773 -0.8040  0.9324
33214SOL     OW 1648   5.512  10.018  11.013  0.4157 -0.0244  0.1299
33214SOL    HW1 1649   5.482  10.048  10.928  1.3717  1.4414  0.2660
33214SOL    HW2 1650   5.604   9.995  10.999  0.2286 -1.0357  0.4878
33215SOL     OW 1651   2.746   9.062   3.583  0.3168 -0.1864  0.0417
33215SOL    HW1 1652   2.702   9.139   3.617 -0.9268 -0.4542 -0.9020
33215SOL    HW2 1653   2.718   8.991   3.641  0.7697 -0.0884  0.3855
33216SOL     OW 1654   3.088   1.387   6.356 -0.0072  0.4309 -0.1903
33216SOL    HW1 1655   3.078   1.335   6.435 -0.1500 -1.8486 -1.6186
33216SOL    HW2 1656   3.036   1.466   6.372 -2.1815 -1.1516  0.9868
33217SOL     OW 1657   3.300   6.444   2.130 -0.2369  0.3507  0.2711
33217SOL    HW1 1658   3.390   6.472   2.118  0.0715 -0.2236  1.1004
33217SOL    HW2 1659   3.276   6.478   2.217 -0.2635 -0.8481  0.7523
33218SOL     OW 1660   4.308   2.582   9.933  0.5608  0.4458  0.1214
33218SOL    HW1 1661   4.280   2.613   9.847 -2.6621 -0.9678  0.5392
33218SOL    HW2 1662   4.243   2.518   9.959  1.3442  0.8507  3.6985
33219SOL     OW 1663   5.470   3.796  10.659  0.3235  0.3742  0.1221
33219SOL    HW1 1664   5.440   3.716  10.615 -0.2854 -0.1535  1.4221
33219SOL    HW2 1665   5.390   3.845  10.676  0.5364  0.5422  0.6569
33220SOL     OW 1666  10.079   6.111  10.852 -0.4437 -0.6522 -0.5605
33220SOL    HW1 1667  10.068   6.099  10.758 -1.6424 -1.2489 -0.3665
33220SOL    HW2 1668  10.094   6.022  10.886  1.3886 -0.2994 -0.3270
33221SOL     OW 1669  10.088   8.956   0.158 -0.3552  0.0356  0.1568
33221SOL    HW1 1670  10.113   8.867   0.183  0.7998  0.6247  1.2387
33221SOL    HW2 1671  10.053   8.948   0.070  0.3442 -1.3961 -0.0112
33222SOL     OW 1672   0.957   2.230  10.353 -0.2314  0.5446 -0.0155
33222SOL    HW1 1673   0.890   2.276  10.403 -0.1793 -0.9559  1.5025
33222SOL    HW2 1674   0.922   2.141  10.341  0.1490  0.5956 -1.9140
33223SOL     OW 1675   6.257   7.522   5.603  0.1398  0.5181 -0.2435
33223SOL    HW1 1676   6.249   7.471   5.523 -0.3064  0.6457 -0.2830
33223SOL    HW2 1677   6.296   7.462   5.666  0.1837  0.3167 -0.4615
33224SOL     OW 1678   8.769   6.900   2.784  0.2916 -0.5710 -0.2116
33224SOL    HW1 1679   8.813   6.853   2.855 -1.8281 -1.3019  0.7126
33224SOL    HW2 1680   8.735   6.830   2.728 -0.8278 -0.0878 -0.1464
33225SOL     OW 1681   2.327   7.679   7.468  0.2909  0.4215  0.4265
33225SOL    HW1 1682   2.301   7.754   7.415  2.3643  1.0116  0.1425
33225SOL    HW2 1683   2.356   7.716   7.551 -0.0823 -0.2179  0.8512
33226SOL     OW 1684   6.627   4.145   7.465 -0.4239  0.4952  0.6435
33226SOL    HW1 1685   6.541   4.179   7.491 -1.0596 -0.1645 -0.5021
33226SOL    HW2 1686   6.616   4.050   7.463  0.7682  0.3045  1.8968
33227SOL     OW 1687   0.435   0.426   9.349 -0.4275 -0.3951  0.1977
33227SOL    HW1 1688   0.364   0.469   9.396 -0.6520  0.1826 -0.6404
33227SOL    HW2 1689   0.412   0.437   9.256  0.1066 -1.3133 -0.0524
33228SOL     OW 1690   7.412   7.939   7.110 -0.1561 -0.4478  0.1439
33228SOL    HW1 1691   7.423   7.916   7.018  0.4878 -0.0728  0.1175
33228SOL    HW2 1692   7.369   7.864   7.149 -0.2733 -0.6837 -0.4278
33229SOL     OW 1693   8.320   9.688   2.785  0.2278  0.4540 -0.0986
33229SOL    HW1 1694   8.397   9.678   2.842 -0.3024 -0.9378  0.3956
33229SOL    HW2 1695   8.294   9.599   2.764 -2.3641  0.7960  1.2561
33230SOL     OW 1696   2.781   1.452   0.286 -0.0536  0.3946 -0.2534
33230SOL    HW1 1697   2.797   1.526   0.228  0.3825  0.8307  0.4003
33230SOL    HW2 1698   2.868   1.430   0.321 -0.2826  0.0270  0.0961
33231SOL     OW 1699   7.475   8.372  10.618 -0.2791 -0.1612  0.3624
33231SOL    HW1 1700   7.440   8.447  10.667 -0.6331 -1.0243  1.4528
33231SOL    HW2 1701   7.442   8.385  10.529 -3.5096 -0.9272  1.3096
33232SOL     OW 1702   0.209   9.661   5.905  0.5731  0.1542  0.8639
33232SOL    HW1 1703   0.153   9.608   5.848 -1.3357  1.6477  1.2595
33232SOL    HW2 1704   0.262   9.713   5.845 -1.3302  1.6254  0.3648
33233SOL     OW 1705   2.518   7.288   9.746 -0.0471  0.1196  0.2006
33233SOL    HW1 1706   2.547   7.245   9.827 -0.1428  1.1568  0.7934
33233SOL    HW2 1707   2.439   7.240   9.721  0.8683 -1.2659 -0.1985
33234SOL     OW 1708   3.018   9.683   5.678  0.1486 -0.2557  0.3600
33234SOL    HW1 1709   3.025   9.708   5.770  0.5317 -0.2854  0.3380
33234SOL    HW2 1710   3.108   9.668   5.650 -0.0830 -1.9620  0.4519
33235SOL     OW 1711   3.096   2.605   7.443 -0.0713 -0.0165 -0.2902
33235SOL    HW1 1712   3.023   2.663   7.461  2.1161  2.3111  1.8555
33235SOL    HW2 1713   3.084   2.531   7.503 -1.1201 -0.1952 -0.6900
33236SOL     OW 1714   7.308   4.406   0.330 -1.1341  0.4828  0.5629
33236SOL    HW1 1715   7.316   4.364   0.416 -1.6071  1.3087  1.0165
33236SOL    HW2 1716   7.319   4.499   0.347 -1.4917  0.6807 -0.2334
33237SOL     OW 1717   4.537   8.373   7.576  0.2570 -0.6524 -0.3982
33237SOL    HW1 1718   4.615   8.369   7.631 -1.5860 -0.0540  2.5273
33237SOL    HW2 1719   4.507   8.464   7.585 -1.7534 -1.3260  0.0898
33238SOL     OW 1720   4.376   6.895   9.869  0.1726 -0.0592  0.4183
33238SOL    HW1 1721   4.286   6.881   9.899  0.4033 -4.4933 -0.2563
33238SOL    HW2 1722   4.430   6.855   9.937  1.5286  0.7166 -0.1710
33239SOL     OW 1723  10.374   4.392   7.898  0.4695 -0.2778 -0.2624
33239SOL    HW1 1724  10.311   4.393   7.971 -0.3974  2.9680 -0.8770
33239SOL    HW2 1725  10.458   4.414   7.939  0.4333 -0.6807  0.0349
33240SOL     OW 1726   3.714   3.967   7.653 -0.2218 -0.2586  0.5060
33240SOL    HW1 1727   3.663   3.954   7.733 -0.9602  0.3873  0.1496
33240SOL    HW2 1728   3.778   4.035   7.676 -0.5273  0.0298  0.5095
33241SOL     OW 1729   0.819   2.824  10.406  0.0638 -0.6825 -0.0027
33241SOL    HW1 1730   0.858   2.910  10.415  0.1577 -0.8329  1.2604
33241SOL    HW2 1731   0.845   2.777  10.486 -0.4366 -1.6904 -0.4065
33242SOL     OW 1732   5.340   5.276   7.954 -0.2083  0.3816 -0.5302
33242SOL    HW1 1733   5.423   5.304   7.993 -0.9242  0.8869  0.6760
33242SOL    HW2 1734   5.281   5.350   7.967 -0.8541  0.0323 -1.3991
33243SOL     OW 1735   4.970   6.260   2.955 -0.0164  0.3682  0.0456
33243SOL    HW1 1736   4.882   6.232   2.979  0.8527 -0.9946  1.8017
33243SOL    HW2 1737   5.027   6.224   3.022  2.2912 -1.4511 -2.6256
33244SOL     OW 1738   1.675   5.056   5.006  0.1045 -0.0708  0.0624
33244SOL    HW1 1739   1.660   5.135   4.955  0.3446  1.4621  2.2480
33244SOL    HW2 1740   1.770   5.043   5.003  0.1060 -0.0577  0.0552
33245SOL     OW 1741   4.627   6.438   9.135  0.2417 -0.3971  0.3601
33245SOL    HW1 1742   4.629   6.371   9.068 -1.1851  0.9494 -1.1271
33245SOL    HW2 1743   4.534   6.461   9.144  0.7137  1.7328  0.3857
33246SOL     OW 1744  10.226   9.104   4.469 -0.2345 -0.3541  0.0822
33246SOL    HW1 1745  10.170   9.173   4.432 -1.5906 -1.5552 -0.2283
33246SOL    HW2 1746  10.251   9.136   4.555  1.4262  1.6960 -1.0778
33247SOL     OW 1747   5.564   5.134   8.271 -0.3988  0.8129  0.3160
33247SOL    HW1 1748   5.659   5.126   8.278 -0.4460  1.1023  1.6514
33247SOL    HW2 1749   5.546   5.131   8.177  0.8386 -0.1989  0.0885
33248SOL     OW 1750   5.872   3.517   1.724  0.3929  0.2950  0.1195
33248SOL    HW1 1751   5.831   3.467   1.654  0.0260  1.1127 -0.2537
33248SOL    HW2 1752   5.802   3.572   1.760  0.8987  0.9077  0.1894
33249SOL     OW 1753   1.117   8.223   6.631  0.0187  0.3427 -0.2856
33249SOL    HW1 1754   1.053   8.202   6.698  0.2857  0.9132  0.1593
33249SOL    HW2 1755   1.071   8.209   6.548 -0.4480  0.0550  0.0185
33250SOL     OW 1756   0.733   1.274   8.155  0.0900  0.0451  0.2849
33250SOL    HW1 1757   0.662   1.311   8.103  0.5906 -0.4137 -0.7566
33250SOL    HW2 1758   0.691   1.208   8.210 -0.1503 -1.0737 -1.1808
33251SOL     OW 1759  10.754   0.991   1.830  0.4539  0.4453  0.3247
33251SOL    HW1 1760  10.696   0.989   1.906  0.6971 -0.7434  0.5084
33251SOL    HW2 1761  10.769   1.084   1.812 -0.9691  0.7608  0.6758
33252SOL     OW 1762   2.001   8.530  10.608 -0.0149 -0.0944  0.7605
33252SOL    HW1 1763   2.005   8.607  10.664  0.4565  0.0747  0.4924
33252SOL    HW2 1764   2.017   8.563  10.520 -0.1039 -0.4568  0.6066
33253SOL     OW 1765   1.290   0.966   7.198  0.5981  0.2018 -0.2234
33253SOL    HW1 1766   1.383   0.947   7.199  0.8370  1.3272 -0.1863
33253SOL    HW2 1767   1.248   0.884   7.226  1.4287 -1.0114 -2.2804
33254SOL     OW 1768   7.493   4.077   9.355  0.1226 -0.0095 -0.7341
33254SOL    HW1 1769   7.544   4.159   9.353  0.6951 -0.3488 -0.4809
33254SOL    HW2 1770   7.539   4.023   9.420 -0.6512 -0.2750 -0.4045
33255SOL     OW 1771   9.108  10.428   0.084 -0.4592 -0.3658  0.3053
33255SOL    HW1 1772   9.106  10.455  -0.008  1.1147  1.2285  0.6670
33255SOL    HW2 1773   9.189  10.377   0.091 -0.5277 -0.3997  0.8212
33256SOL     OW 1774   1.068  10.558   4.376  0.0602 -0.2118 -0.1132
33256SOL    HW1 1775   1.005  10.553   4.303  1.2189  2.0484 -1.3994
33256SOL    HW2 1776   1.142  10.505   4.348  0.3992  0.4532 -0.5173
33257SOL     OW 1777   1.998   6.356   5.952  0.7145  0.5187  0.5402
33257SOL    HW1 1778   1.942   6.312   6.015  1.0509 -1.7558 -0.6330
33257SOL    HW2 1779   2.084   6.318   5.966  0.6433 -0.6334 -1.7295
33258SOL     OW 1780   0.554   2.642   6.245 -0.2149 -0.2628  0.2166
33258SOL    HW1 1781   0.557   2.550   6.222  1.4414 -1.3261  3.9214
33258SOL    HW2 1782   0.623   2.683   6.193  0.2920 -1.4915 -0.1043
33259SOL     OW 1783  10.219   4.115  10.107  0.1528  0.3915  0.1930
33259SOL    HW1 1784  10.263   4.044  10.155 -1.5364  0.0402  1.3057
33259SOL    HW2 1785  10.221   4.190  10.167  1.4849  1.1797 -0.7793
33260SOL     OW 1786   9.237   0.750   9.989  0.3002  0.1231 -0.4086
33260SOL    HW1 1787   9.171   0.763   9.921  1.0447 -0.2145 -1.2100
33260SOL    HW2 1788   9.306   0.699   9.947 -0.4077 -2.4714  1.3380
33261SOL     OW 1789  10.289   3.120   7.714  0.0155 -0.0333 -0.0548
33261SOL    HW1 1790  10.236   3.082   7.645 -2.9661  0.4914  1.7747
33261SOL    HW2 1791  10.330   3.197   7.674 -1.0450 -0.1421 -1.4090
33262SOL     OW 1792   5.182  10.449  10.247  0.3107 -0.0994  0.4821
33262SOL    HW1 1793   5.268  10.427  10.282  0.6190  1.7642  0.9966
33262SOL    HW2 1794   5.162  10.535  10.283 -1.2546  0.0403 -0.5863
33263SOL     OW 1795   9.084   4.468   4.664 -0.3492 -0.0949  0.1833
33263SOL    HW1 1796   9.142   4.405   4.707  0.7494  0.2847 -0.6861
33263SOL    HW2 1797   9.007   4.417   4.638  0.6571 -1.1610 -0.7952
33264SOL     OW 1798   9.418   7.267   2.651 -0.2781 -0.0570 -0.2634
33264SOL    HW1 1799   9.389   7.251   2.561  0.9819  0.5161 -0.7935
33264SOL    HW2 1800   9.459   7.185   2.678 -0.7217 -0.2538 -0.1649
33265SOL     OW 1801   4.178   4.040   8.063 -0.7959  0.1074 -0.1280
33265SOL    HW1 1802   4.160   4.001   8.148  0.9888 -2.0576 -0.6485
33265SOL    HW2 1803   4.100   4.022   8.011 -1.6647  0.9575  0.8343
33266SOL     OW 1804   5.011   3.187   3.531 -0.2624 -0.0140 -0.0728
33266SOL    HW1 1805   4.932   3.206   3.481 -0.1089 -1.3165 -0.8427
33266SOL    HW2 1806   5.027   3.267   3.581 -1.2444  0.7885 -0.9929
33267SOL     OW 1807   6.450   8.506   2.487 -0.0829  0.7483  0.2472
33267SOL    HW1 1808   6.389   8.564   2.441  0.4866  0.8467 -0.4060
33267SOL    HW2 1809   6.498   8.564   2.546  1.4353  1.2375 -1.3719
33268SOL     OW 1810   6.631   4.634   1.867 -0.2500  0.3578  0.5834
33268SOL    HW1 1811   6.611   4.655   1.776 -1.4165 -1.0170  0.4821
33268SOL    HW2 1812   6.582   4.699   1.918 -0.4741  0.4694  0.2319
33269SOL     OW 1813   9.628   7.259   7.882 -0.4514  0.3176  0.4559
33269SOL    HW1 1814   9.544   7.213   7.871 -0.5270  0.3521  0.8786
33269SOL    HW2 1815   9.667   7.219   7.960 -0.3728  0.7495  0.6424
33270SOL     OW 1816   3.168   6.203   9.303  0.3161  0.1015 -0.6434
33270SOL    HW1 1817   3.080   6.238   9.288  0.4313 -0.1599 -2.0860
33270SOL    HW2 1818   3.182   6.212   9.397 -1.2038  0.2651 -0.4076
33271SOL     OW 1819  10.183   8.699   2.683  0.3565  0.1017  0.0696
33271SOL    HW1 1820  10.191   8.604   2.691 -0.3973  0.1023  1.0753
33271SOL    HW2 1821  10.257   8.726   2.628  0.6969 -1.0344 -0.0398
33272SOL     OW 1822   9.848   6.450   6.360 -0.7347  0.0990 -0.1979
33272SOL    HW1 1823   9.807   6.419   6.279 -0.7494 -0.6331  0.0852
33272SOL    HW2 1824   9.897   6.528   6.333 -1.5890  0.4790 -0.7064
33273SOL     OW 1825   8.842   2.658   9.013  0.0334  0.6211 -0.3164
33273SOL    HW1 1826   8.766   2.644   8.956 -1.0247 -1.4193  1.4777
33273SOL    HW2 1827   8.809   2.714   9.083 -0.8465 -2.5916  2.0823
33274SOL     OW 1828   4.226   8.641   6.791 -0.5159  0.0827  0.0340
33274SOL    HW1 1829   4.213   8.566   6.733  0.6925  0.6111 -0.9788
33274SOL    HW2 1830   4.174   8.621   6.869 -0.7880 -1.4580 -0.5115
33275SOL     OW 1831  10.934   6.338   6.034 -0.5331  0.4539 -0.0746
33275SOL    HW1 1832  10.908   6.350   6.125 -0.6730  0.4936 -0.1203
33275SOL    HW2 1833  10.975   6.421   6.008  1.4742 -0.2560  0.6075
33276SOL     OW 1834   3.847   1.056   9.826 -0.6030  0.2416 -0.0493
33276SOL    HW1 1835   3.882   1.092   9.908  0.9842  0.9484 -0.9840
33276SOL    HW2 1836   3.808   1.132   9.782  1.0388  0.5025 -1.1602
33277SOL     OW 1837   1.643   7.773   9.292 -0.0858  0.2630 -1.1260
33277SOL    HW1 1838   1.689   7.689   9.304  0.9708  0.8236 -1.1199
33277SOL    HW2 1839   1.670   7.802   9.205 -1.0887  0.2309 -1.4641
33278SOL     OW 1840   3.113  11.032  11.029 -0.2645 -0.4567 -0.0266
33278SOL    HW1 1841   3.172  11.089  11.079 -0.0711 -1.4967  0.9557
33278SOL    HW2 1842   3.164  10.952  11.015 -0.8918 -0.7717 -0.5200
33279SOL     OW 1843   5.586   3.196   0.383  0.8823 -0.4944 -0.4043
33279SOL    HW1 1844   5.614   3.259   0.450 -0.3159 -0.6617  0.2845
33279SOL    HW2 1845   5.586   3.247   0.302  0.5872  0.2184  0.0320
33280SOL     OW 1846  10.655   9.762   8.089 -0.5726  0.8763  0.1858
33280SOL    HW1 1847  10.584   9.801   8.141 -2.1430  0.1264 -1.3090
33280SOL    HW2 1848  10.702   9.837   8.053 -0.8717  1.3871  0.8272
33281SOL     OW 1849   8.092   7.663   2.769  0.2494 -0.0722  0.0839
33281SOL    HW1 1850   8.175   7.667   2.816 -0.9712 -1.6662  2.5969
33281SOL    HW2 1851   8.109   7.606   2.694  1.1480 -1.3583  1.2263
33282SOL     OW 1852   6.840   1.163   7.618 -0.6290  0.1446  0.1216
33282SOL    HW1 1853   6.888   1.106   7.558  0.4282  2.2019 -1.0816
33282SOL    HW2 1854   6.763   1.112   7.642  1.0247 -2.4197  0.4193
33283SOL     OW 1855   4.713   8.954   2.743  0.2251  0.6081 -0.2158
33283SOL    HW1 1856   4.792   8.949   2.796 -0.7610  0.5531  1.3234
33283SOL    HW2 1857   4.659   8.881   2.774 -0.6293  0.9384 -0.8770
33284SOL     OW 1858   0.514   7.904  10.247  0.2635  0.2335  0.6717
33284SOL    HW1 1859   0.422   7.930  10.246  0.0301 -0.2356 -2.7339
33284SOL    HW2 1860   0.516   7.826  10.302 -1.5373 -0.1294  0.2886
33285SOL     OW 1861   4.576   3.577   3.044  0.6782 -0.1010  0.1931
33285SOL    HW1 1862   4.575   3.673   3.044 -0.9429 -0.1041  0.1168
33285SOL    HW2 1863   4.642   3.554   3.111 -1.2313  1.0775  2.6350
33286SOL     OW 1864   8.774   3.404  10.255 -0.4648  0.1067 -0.4406
33286SOL    HW1 1865   8.734   3.317  10.252  1.3515 -0.7693 -1.6433
33286SOL    HW2 1866   8.727   3.454  10.188 -1.6012  0.1211  0.3399
33287SOL     OW 1867   0.414   8.533   2.081 -0.0009  0.1326 -0.5322
33287SOL    HW1 1868   0.405   8.546   2.176  2.1448  2.5730 -0.5509
33287SOL    HW2 1869   0.417   8.622   2.045 -0.6150 -0.7344 -2.8987
33288SOL     OW 1870   2.183   1.748   6.041  0.4388  0.0891 -0.0709
33288SOL    HW1 1871   2.115   1.775   5.979 -0.9276  1.0162  1.7218
33288SOL    HW2 1872   2.265   1.775   6.000 -0.1196 -1.8342 -2.7135
33289SOL     OW 1873   7.613   2.435   3.977  0.1877  0.2263  0.2894
33289SOL    HW1 1874   7.649   2.463   4.061  1.3326  0.0069 -0.1059
33289SOL    HW2 1875   7.687   2.441   3.916 -0.4907 -0.1080 -0.5972
33290SOL     OW 1876   2.606   5.691   3.788  0.4230  0.1750  0.0858
33290SOL    HW1 1877   2.581   5.604   3.818 -0.2838  0.3989  0.1538
33290SOL    HW2 1878   2.681   5.676   3.730  0.5547 -0.4372  0.4137
33291SOL     OW 1879   5.553   5.205   1.718 -0.0852 -0.4638 -0.3935
33291SOL    HW1 1880   5.595   5.179   1.636 -1.2839 -0.4416 -1.0371
33291SOL    HW2 1881   5.476   5.255   1.690 -0.9383 -1.1090  0.7208
33292SOL     OW 1882   7.735   9.211   5.579 -0.3918 -0.3570  0.0925
33292SOL    HW1 1883   7.753   9.283   5.518 -1.7376  0.0606  0.1641
33292SOL    HW2 1884   7.811   9.209   5.637  0.3795 -0.0157 -0.8856
33293SOL     OW 1885   0.012   5.052   0.496  0.0697 -0.4565 -0.1422
33293SOL    HW1 1886  -0.052   5.124   0.502  0.6228  0.0137  0.2559
33293SOL    HW2 1887  -0.029   4.980   0.543  0.1039  0.0493  0.6800
33294SOL     OW 1888   0.363   6.057   5.853  0.0564 -0.0279  0.0999
33294SOL    HW1 1889   0.273   6.024   5.861 -0.4042  0.8228 -1.1432
33294SOL    HW2 1890   0.418   5.980   5.864 -0.7151 -0.2964  2.7028
33295SOL     OW 1891   3.843   8.788   2.987  0.4293 -0.2666  0.3108
33295SOL    HW1 1892   3.835   8.809   2.894  0.7649 -0.0005  0.3406
33295SOL    HW2 1893   3.878   8.699   2.989 -1.0044 -0.8500  0.1833
33296SOL     OW 1894   8.132   4.925   1.487 -0.2497 -0.0908 -0.0989
33296SOL    HW1 1895   8.042   4.911   1.518 -0.8229  0.8450 -1.2754
33296SOL    HW2 1896   8.163   4.837   1.466 -0.7878 -0.4576  0.5579
33297SOL     OW 1897   8.784   1.897   5.509 -0.3237 -0.4545  0.3148
33297SOL    HW1 1898   8.864   1.885   5.459 -0.3845  0.6971 -0.0709
33297SOL    HW2 1899   8.715   1.901   5.443 -0.4462  0.6923  0.4974
33298SOL     OW 1900   4.123   9.754   5.786  0.3292 -0.2532  0.3507
33298SOL    HW1 1901   4.117   9.747   5.691 -0.8917  0.2185  0.3801
33298SOL    HW2 1902   4.153   9.843   5.802 -2.6676  0.8696  0.4375
33299SOL     OW 1903   2.036   1.034   9.748 -0.1725 -0.1081 -0.6214
33299SOL    HW1 1904   2.007   0.965   9.807 -1.8280 -0.6217 -1.9734
33299SOL    HW2 1905   2.068   0.988   9.671  2.5424  0.5196  0.0055
33300SOL     OW 1906   2.528   9.612   9.705 -0.4414  0.5159 -0.3897
33300SOL    HW1 1907   2.475   9.557   9.762 -0.0682  0.3416 -0.2142
33300SOL    HW2 1908   2.565   9.553   9.640  2.1093  0.0703  1.3376
33301SOL     OW 1909   8.416   8.899  10.392  0.0464  0.0167  0.7429
33301SOL    HW1 1910   8.501   8.857  10.402  1.5280  2.6904  0.1921
33301SOL    HW2 1911   8.405   8.908  10.297 -1.1807 -0.8472  0.7772
33302SOL     OW 1912   4.901   8.220   7.951 -0.4794  0.5960  0.1654
33302SOL    HW1 1913   4.886   8.128   7.974 -1.7970  0.6101 -0.5372
33302SOL    HW2 1914   4.947   8.256   8.027  2.6923 -1.2840 -0.6684
33303SOL     OW 1915  10.768   1.231   7.384 -0.0158 -0.4296  0.1251
33303SOL    HW1 1916  10.863   1.222   7.373  0.1810  1.2570  0.2490
33303SOL    HW2 1917  10.757   1.250   7.477 -0.2886  1.2045 -0.2077
33304SOL     OW 1918   5.270  10.281   1.669 -0.2914 -0.1957 -0.3828
33304SOL    HW1 1919   5.204  10.333   1.714 -0.4400 -0.2509 -0.5386
33304SOL    HW2 1920   5.306  10.223   1.737  0.1954  0.4220 -0.0960
33305SOL     OW 1921   5.232   0.064   1.095 -0.0407 -0.2285 -0.2086
33305SOL    HW1 1922   5.279   0.143   1.122 -0.2759  0.2447 -1.1559
33305SOL    HW2 1923   5.164   0.096   1.036 -1.2693 -0.9528  0.7741
33306SOL     OW 1924   5.772   0.621   9.524  0.2245  0.1673  0.5741
33306SOL    HW1 1925   5.842   0.570   9.564  0.8542  0.5121 -0.0450
33306SOL    HW2 1926   5.704   0.557   9.502 -0.1462 -0.0183  2.1819
33307SOL     OW 1927   0.153   4.278   4.302 -0.0633 -0.1845 -0.2216
33307SOL    HW1 1928   0.241   4.312   4.283 -0.2920  1.0503  0.8067
33307SOL    HW2 1929   0.104   4.355   4.331 -0.3915 -1.4685  3.0561
33308SOL     OW 1930   5.628   6.027   4.397 -0.4643  0.4009 -0.1756
33308SOL    HW1 1931   5.571   5.976   4.341  0.0786  0.7637 -1.0746
33308SOL    HW2 1932   5.570   6.063   4.464 -1.1176 -0.0336 -0.5029
33309SOL     OW 1933   9.360   7.739   6.283  0.4684 -0.2711 -0.0392
33309SOL    HW1 1934   9.318   7.681   6.220 -1.7198 -0.4331  1.4573
33309SOL    HW2 1935   9.295   7.751   6.352  1.9380  1.6509  1.1278
33310SOL     OW 1936   0.648   1.460   9.749 -0.2156 -0.4483  0.7515
33310SOL    HW1 1937   0.728   1.509   9.769  0.3870 -1.0524 -0.1426
33310SOL    HW2 1938   0.679   1.375   9.717 -1.0995  0.2254 -2.1954
33311SOL     OW 1939   0.999   0.719   4.894 -0.4242  0.1547 -1.0327
33311SOL    HW1 1940   0.998   0.662   4.817  0.6977 -0.5904 -0.5172
33311SOL    HW2 1941   0.958   0.667   4.963 -0.3433  0.3697 -0.8208
33312SOL     OW 1942   6.576   7.384   8.356  0.2853  0.0435 -0.0160
33312SOL    HW1 1943   6.662   7.362   8.321  0.4021 -2.2712  1.4828
33312SOL    HW2 1944   6.521   7.309   8.334 -2.1086  2.4286 -2.9712
33313SOL     OW 1945   9.864   6.503   1.370 -0.3149 -0.6515  1.0727
33313SOL    HW1 1946   9.773   6.474   1.375 -0.1970 -1.0979  0.6212
33313SOL    HW2 1947   9.892   6.484   1.281 -0.0746  0.3821  0.9099
33314SOL     OW 1948   6.701   2.753   1.398  0.1388  0.4539 -0.0884
33314SOL    HW1 1949   6.621   2.723   1.441  0.0723  1.0256  0.2000
33314SOL    HW2 1950   6.744   2.673   1.367 -1.5908  0.2374 -2.1411
33315SOL     OW 1951   6.494   1.989   1.417  0.1167 -0.1678  0.0901
33315SOL    HW1 1952   6.399   1.997   1.417 -0.0355 -1.6622  0.4163
33315SOL    HW2 1953   6.510   1.896   1.428  1.6358  0.2199  1.6394
33316SOL     OW 1954   2.202   6.074   9.410  0.2547  0.5381 -0.2258
33316SOL    HW1 1955   2.286   6.028   9.401 -0.9131 -2.6563  2.9109
33316SOL    HW2 1956   2.151   6.045   9.334  0.8583 -0.3750 -0.3031
33317SOL     OW 1957   7.290   5.727   7.538  0.2488  0.0829 -0.3494
33317SOL    HW1 1958   7.312   5.637   7.517 -0.2667 -0.6135  1.8355
33317SOL    HW2 1959   7.205   5.742   7.495 -0.2377 -0.8963  0.2272
33318SOL     OW 1960   1.538   3.088   9.149  0.3317 -0.6485  0.0599
33318SOL    HW1 1961   1.516   3.035   9.226  3.8077 -0.4315  1.3564
33318SOL    HW2 1962   1.599   3.034   9.099  0.7544  0.5564 -0.7586
33319SOL     OW 1963   1.884   1.772   5.481 -0.2623 -0.1229  0.1342
33319SOL    HW1 1964   1.896   1.829   5.405 -0.1365 -0.0114  0.2360
33319SOL    HW2 1965   1.845   1.692   5.445  1.6156 -0.8757 -0.3775
33320SOL     OW 1966   3.953   8.060  10.783  0.5398 -0.4438 -0.1493
33320SOL    HW1 1967   3.875   8.077  10.835  2.4487  0.1544  2.7312
33320SOL    HW2 1968   3.935   7.975  10.741 -1.3891 -0.6380  0.9341
33321SOL     OW 1969  10.461   4.288   6.636  0.8794 -0.2509 -0.1015
33321SOL    HW1 1970  10.519   4.249   6.702 -0.3990 -1.9705  0.0533
33321SOL    HW2 1971  10.377   4.298   6.681  0.8192  1.6063 -0.5303
33322SOL     OW 1972   3.942   1.712   2.544  0.4151  0.0656 -0.5270
33322SOL    HW1 1973   3.987   1.706   2.460 -0.2659  1.5901 -1.0304
33322SOL    HW2 1974   3.977   1.792   2.584  0.1858 -0.2417  0.3096
33323SOL     OW 1975   4.674   7.343   3.967  0.2522  0.1603  0.2762
33323SOL    HW1 1976   4.622   7.312   3.893  0.5741  1.4913 -0.5552
33323SOL    HW2 1977   4.753   7.290   3.965 -0.0143 -0.2366  0.0508
33324SOL     OW 1978   0.949   5.943   9.287  0.1457  0.2862 -0.4284
33324SOL    HW1 1979   0.916   5.978   9.204 -1.7980  0.8450  0.5103
33324SOL    HW2 1980   1.021   6.001   9.311 -0.7106  1.5024 -0.6800
33325SOL     OW 1981   2.021   4.783   8.747  0.2258 -0.4056 -0.2031
33325SOL    HW1 1982   2.048   4.742   8.665 -1.1597  0.1979 -0.9974
33325SOL    HW2 1983   1.992   4.711   8.802  2.6455 -1.0062  0.4250
33326SOL     OW 1984   1.289  10.938   7.970 -0.5529  0.2334 -0.0642
33326SOL    HW1 1985   1.345  11.015   7.968  0.3163 -0.3951 -0.6646
33326SOL    HW2 1986   1.346  10.868   8.002 -0.6597 -0.6503 -1.6653
33327SOL     OW 1987   8.614   5.520   2.059  0.1702  0.3302  0.2923
33327SOL    HW1 1988   8.596   5.426   2.065  0.3424  0.2065 -0.8503
33327SOL    HW2 1989   8.528   5.562   2.065  0.0077  0.0445 -0.0138
33328SOL     OW 1990   5.368   5.875  10.371  0.7080  0.2568  0.3248
33328SOL    HW1 1991   5.407   5.951  10.414  0.4755  0.2610  0.5298
33328SOL    HW2 1992   5.299   5.912  10.315 -0.8887  0.0508  2.0513
33329SOL     OW 1993   4.653  10.716   6.859 -0.1228 -0.0943 -0.5431
33329SOL    HW1 1994   4.660  10.677   6.772  1.6470 -1.2022  0.0440
33329SOL    HW2 1995   4.584  10.666   6.902  0.0180 -0.5265 -0.8139
33330SOL     OW 1996  10.554   1.942   2.448 -0.4548  0.1925  0.3026
33330SOL    HW1 1997  10.517   2.029   2.461  1.2386  1.1113 -0.8407
33330SOL    HW2 1998  10.513   1.889   2.517 -1.4353  1.8876  1.0931
33331SOL     OW 1999   3.053  11.031   6.958  0.6295  0.2506 -0.4114
33331SOL    HW1 2000   2.979  11.076   6.918  0.0312 -0.4649 -0.1404
33331SOL    HW2 2001   3.127  11.089   6.944  0.1323  0.7042 -1.2146
33332SOL     OW 2002   8.874   6.558   6.804 -0.3219  0.3981  0.3655
33332SOL    HW1 2003   8.918   6.579   6.722 -0.5762  3.5666  0.9430
33332SOL    HW2 2004   8.945   6.537   6.865 -0.1104 -1.4686 -0.4465
33333SOL     OW 2005   4.346   3.166   2.122  0.2275 -0.0614 -0.3544
33333SOL    HW1 2006   4.283   3.238   2.116  0.2097 -0.0142  0.3432
33333SOL    HW2 2007   4.422   3.197   2.074  0.0173  0.2035 -0.5226
33334SOL     OW 2008   7.282   7.080   8.962 -0.4305 -0.1175  0.3799
33334SOL    HW1 2009   7.243   7.078   9.050  0.7596 -0.9426  0.9090
33334SOL    HW2 2010   7.290   7.173   8.941  0.7521  0.1455  1.8394
33335SOL     OW 2011   0.149  10.304   5.776 -0.1258 -0.6347 -0.4589
33335SOL    HW1 2012   0.136  10.212   5.756  0.9793 -1.2557  1.4342
33335SOL    HW2 2013   0.225  10.330   5.723 -1.4177 -0.3034 -2.2489
33336SOL     OW 2014  10.985   5.027   3.283  0.3750  0.1669 -0.3174
33336SOL    HW1 2015  11.048   5.040   3.354 -1.8267 -0.2797  1.8727
33336SOL    HW2 2016  10.961   4.934   3.289  1.3756 -0.3213 -2.8294
33337SOL     OW 2017   5.741   1.365   0.734  0.2147  0.1133  0.5031
33337SOL    HW1 2018   5.811   1.404   0.681 -0.6064 -1.0364 -1.5478
33337SOL    HW2 2019   5.781   1.350   0.819  2.0475  0.7250 -0.2012
33338SOL     OW 2020   4.123   6.618   1.789  0.4785  0.4006  0.1431
33338SOL    HW1 2021   4.127   6.694   1.731 -0.0654 -0.4742 -1.0781
33338SOL    HW2 2022   4.154   6.651   1.873 -0.4106  2.1591 -0.1592
33339SOL     OW 2023   5.754   7.463   2.280 -0.2036 -0.3348  0.0530
33339SOL    HW1 2024   5.834   7.470   2.227  1.0484 -0.4950  1.8530
33339SOL    HW2 2025   5.773   7.514   2.359 -1.9875 -0.1802  0.4216
33340SOL     OW 2026   1.297   6.521   9.771  0.3948  0.0100  0.7863
33340SOL    HW1 2027   1.262   6.600   9.813  0.5670 -0.5536  2.0147
33340SOL    HW2 2028   1.283   6.451   9.834  2.2283 -0.5456  0.6490
33341SOL     OW 2029   9.324   0.998   1.910 -0.4897 -0.0753  0.4227
33341SOL    HW1 2030   9.316   1.081   1.959 -0.4205  0.7940 -0.9793
33341SOL    HW2 2031   9.246   0.995   1.855 -0.6393 -1.1057  0.6798
33342SOL     OW 2032  10.903  10.869   5.939  0.3079 -0.4522 -0.6519
33342SOL    HW1 2033  10.910  10.783   5.979  1.1279 -0.0247  0.1524
33342SOL    HW2 2034  10.972  10.921   5.980 -0.6866  0.8275 -0.5257
33343SOL     OW 2035   0.493  10.604  10.064 -0.3579  0.4351 -0.5248
33343SOL    HW1 2036   0.429  10.534  10.060  0.6634 -0.6003  0.4509
33343SOL    HW2 2037   0.496  10.639   9.975 -0.4618 -1.1653 -1.1909
33344SOL     OW 2038   0.642   4.876   6.499  0.0179  0.0693  0.0175
33344SOL    HW1 2039   0.650   4.837   6.586  0.6707 -1.0387 -0.5085
33344SOL    HW2 2040   0.589   4.954   6.512  1.1116  0.5945  1.6130
33345SOL     OW 2041   1.496   7.078   5.710 -0.0388  0.2299  0.2830
33345SOL    HW1 2042   1.444   7.154   5.737 -0.8725 -0.1602 -0.1577
33345SOL    HW2 2043   1.433   7.005   5.711  0.8716 -0.5678  1.2284
33346SOL     OW 2044  10.483   1.554   2.246 -0.1104  0.3445 -0.0898
33346SOL    HW1 2045  10.515   1.639   2.215 -0.1520 -0.0752 -1.3093
33346SOL    HW2 2046  10.451   1.509   2.168 -1.1855 -0.3424  0.7064
33347SOL     OW 2047   9.314   7.443   5.853 -0.0838 -0.1159 -0.7025
33347SOL    HW1 2048   9.398   7.419   5.891 -0.0103  1.3169  0.1228
33347SOL    HW2 2049   9.319   7.415   5.762  1.0084 -0.6833 -0.4784
33348SOL     OW 2050   9.615   5.804   4.919 -0.0436  0.6302 -0.0915
33348SOL    HW1 2051   9.554   5.812   4.845  0.6189 -1.4488 -0.9236
33348SOL    HW2 2052   9.573   5.740   4.977  2.3156 -2.8392 -1.8790
33349SOL     OW 2053   0.799   7.862   3.186 -0.0762 -0.2424  0.4201
33349SOL    HW1 2054   0.711   7.871   3.150 -0.0088 -0.8849  0.0796
33349SOL    HW2 2055   0.814   7.943   3.235 -0.1520  0.6926 -1.0552
33350SOL     OW 2056   4.175   0.009   8.481 -0.2505 -0.3699  0.2019
33350SOL    HW1 2057   4.262  -0.012   8.513  0.6766  0.0087 -1.8801
33350SOL    HW2 2058   4.181   0.101   8.453 -1.2111 -0.4398 -0.2778
33351SOL     OW 2059   4.145  10.331   2.692  0.2672  0.0689 -0.0298
33351SOL    HW1 2060   4.209  10.262   2.674 -1.3722 -1.4574 -0.3578
33351SOL    HW2 2061   4.085  10.327   2.618 -0.7718  0.7487  0.7578
33352SOL     OW 2062   9.795   5.697   4.505 -0.1143 -0.2800  0.0269
33352SOL    HW1 2063   9.734   5.624   4.509  0.5282 -0.8597 -0.3957
33352SOL    HW2 2064   9.746   5.772   4.538 -1.4273 -0.4694 -1.3927
33353SOL     OW 2065   0.475   1.008   2.439  0.0804 -0.6581 -0.2578
33353SOL    HW1 2066   0.565   1.007   2.470 -0.2704  1.4183  1.0389
33353SOL    HW2 2067   0.422   1.011   2.519 -0.9233  2.7428 -0.8808
33354SOL     OW 2068   6.411   7.499   3.855  0.5574  0.6724  0.7271
33354SOL    HW1 2069   6.390   7.550   3.933 -0.6255  1.9354 -0.3757
33354SOL    HW2 2070   6.342   7.432   3.851 -1.1339  2.4067 -0.7635
33355SOL     OW 2071   5.729   1.184   2.096 -0.1688  0.1750  0.1249
33355SOL    HW1 2072   5.822   1.198   2.075 -0.2198  0.1280 -0.1407
33355SOL    HW2 2073   5.684   1.199   2.013 -0.5819  1.9029  0.6061
33356SOL     OW 2074   4.903   9.441   2.777  0.3926 -0.9427  0.0448
33356SOL    HW1 2075   4.937   9.355   2.801  0.0949 -1.1830 -0.3843
33356SOL    HW2 2076   4.870   9.430   2.688 -0.4997 -0.6229  0.3310
33357SOL     OW 2077   6.918   5.123  10.165 -0.2219  0.4862  0.5730
33357SOL    HW1 2078   6.899   5.029  10.173  0.4572  0.1864 -0.9757
33357SOL    HW2 2079   7.010   5.131  10.190 -0.5561  0.9141  1.7000
33358SOL     OW 2080   8.492   9.917   7.517  0.2646  0.2642  0.0855
33358SOL    HW1 2081   8.485   9.890   7.425 -0.0400 -0.3002  0.2716
33358SOL    HW2 2082   8.508  10.011   7.513 -0.7013  0.4132 -0.5310
33359SOL     OW 2083  10.411   6.843   7.933 -0.0599  0.5385  0.2893
33359SOL    HW1 2084  10.383   6.807   7.849 -3.1014  0.5879  1.1628
33359SOL    HW2 2085  10.394   6.937   7.927  3.3279  1.2695 -0.2689
33360SOL     OW 2086   2.268   1.452   3.282  0.3246  0.8631  0.1928
33360SOL    HW1 2087   2.284   1.375   3.337  1.3516  1.0265  0.1355
33360SOL    HW2 2088   2.242   1.520   3.344  1.7405  1.1210  0.5407
33361SOL     OW 2089   8.270   8.733   0.450 -0.0258  0.0001  0.7695
33361SOL    HW1 2090   8.337   8.672   0.420  0.3064 -1.0581  3.3896
33361SOL    HW2 2091   8.190   8.680   0.456 -1.9537  1.6663 -4.3349
33362SOL     OW 2092   5.437   0.231  10.333  0.3930 -0.2863  0.1445
33362SOL    HW1 2093   5.532   0.242  10.329  0.3338  0.2705  0.1918
33362SOL    HW2 2094   5.416   0.181  10.254  0.5901  0.5951 -0.4791
33363SOL     OW 2095   7.992   0.068   1.274  0.3232 -0.5762 -0.1263
33363SOL    HW1 2096   7.998   0.059   1.369 -0.3164 -1.9520 -0.1844
33363SOL    HW2 2097   8.027   0.155   1.255  2.1735 -0.9823  1.1822
33364SOL     OW 2098   3.090   2.676   2.506 -0.5817  0.1634  0.4619
33364SOL    HW1 2099   3.067   2.616   2.578 -0.1080 -1.2764 -0.5368
33364SOL    HW2 2100   3.080   2.623   2.427  0.7089  1.1613 -0.4134
33365SOL     OW 2101   1.473   3.617   6.652  0.1645 -0.2778  0.2017
33365SOL    HW1 2102   1.536   3.556   6.614  0.2901  0.6717 -1.1688
33365SOL    HW2 2103   1.389   3.590   6.613  0.3195  0.8033 -0.9465
33366SOL     OW 2104   5.206  10.279   4.855  0.4369  0.2915  0.1910
33366SOL    HW1 2105   5.163  10.217   4.796 -0.1880  1.1932 -0.3202
33366SOL    HW2 2106   5.288  10.236   4.880  0.9663  0.0997 -1.7454
33367SOL     OW 2107   0.386   5.073   6.163 -0.1412 -0.2533 -0.3775
33367SOL    HW1 2108   0.432   4.990   6.160  2.1122  0.9433 -2.8496
33367SOL    HW2 2109   0.345   5.081   6.077 -2.1756  0.3022  0.5635
33368SOL     OW 2110   8.076  10.889   8.698 -0.3315 -0.2013 -0.3362
33368SOL    HW1 2111   8.013  10.912   8.630  0.4372  0.2989 -0.8920
33368SOL    HW2 2112   8.149  10.949   8.685 -0.1919 -0.0514  0.9693
33369SOL     OW 2113   8.551   0.480   2.312 -0.6077 -0.2327  0.3574
33369SOL    HW1 2114   8.536   0.565   2.354 -0.7401 -0.2006  0.2479
33369SOL    HW2 2115   8.644   0.462   2.325 -0.7649 -0.4824  1.1476
33370SOL     OW 2116   3.597   8.488   8.031  0.1933  0.1475 -0.0222
33370SOL    HW1 2117   3.552   8.567   8.002  0.0614 -0.5119 -1.7442
33370SOL    HW2 2118   3.559   8.418   7.978  1.1704 -0.8908  0.5944
33371SOL     OW 2119   4.093  10.269   7.009  0.7452  0.0702  0.2699
33371SOL    HW1 2120   4.024  10.262   7.075  1.6031  2.0654  1.4748
33371SOL    HW2 2121   4.068  10.345   6.956  0.5214 -0.9916 -1.1949
33372SOL     OW 2122   7.296   2.636   7.075  0.4622  0.1245 -0.2365
33372SOL    HW1 2123   7.301   2.543   7.100  1.2625  0.9095  3.0040
33372SOL    HW2 2124   7.260   2.635   6.986 -2.2171 -3.1850  0.6586
33373SOL     OW 2125   0.756   4.956   5.561 -0.1883  0.0571  0.1633
33373SOL    HW1 2126   0.794   4.915   5.483  0.5490 -0.6166  0.8539
33373SOL    HW2 2127   0.829   4.961   5.623 -0.4754  1.6980  0.3925
33374SOL     OW 2128   1.370   9.664   7.887  0.3478  0.3340  0.0155
33374SOL    HW1 2129   1.460   9.639   7.911 -0.5633 -1.0607  2.2455
33374SOL    HW2 2130   1.320   9.583   7.895 -1.7400  1.7333  2.2299
33375SOL     OW 2131   0.953   7.241   4.460 -0.3724  0.2932  0.3483
33375SOL    HW1 2132   0.889   7.188   4.414 -0.1478 -0.5550  0.9836
33375SOL    HW2 2133   1.027   7.182   4.474 -0.1260  0.7655  1.0873
33376SOL     OW 2134   0.133   6.656   6.172 -0.0663  0.1400 -0.2982
33376SOL    HW1 2135   0.211   6.706   6.147 -0.7457  0.4319 -1.9617
33376SOL    HW2 2136   0.102   6.618   6.090 -1.7327  0.1107  0.3138
33377SOL     OW 2137   5.837   1.824   6.877  0.1873 -0.7142  0.2561
33377SOL    HW1 2138   5.777   1.899   6.881  0.0167 -0.8397  0.1135
33377SOL    HW2 2139   5.883   1.825   6.961 -0.9091 -1.3547  0.8866
33378SOL     OW 2140   7.101   1.590  10.219  0.1688  0.4967 -0.3368
33378SOL    HW1 2141   7.116   1.635  10.302  1.9825 -0.3144 -0.1722
33378SOL    HW2 2142   7.084   1.499  10.244  1.5486  0.0680 -0.8389
33379SOL     OW 2143   2.942  10.628   2.612 -0.1070  0.3492 -0.0285
33379SOL    HW1 2144   2.891  10.642   2.691 -0.1429  1.1273 -0.1858
33379SOL    HW2 2145   3.029  10.664   2.632 -0.3710  1.3552 -0.6347
33380SOL     OW 2146   6.043  10.313   8.491  0.0516 -0.5740  0.4394
33380SOL    HW1 2147   6.084  10.360   8.563  1.6478 -1.0845 -0.1012
33380SOL    HW2 2148   5.985  10.250   8.534  0.8744 -0.7842  1.2685
33381SOL     OW 2149   6.370   4.016   3.335 -0.1799  0.5512  0.2794
33381SOL    HW1 2150   6.343   4.104   3.363  1.1055  1.7103 -1.8875
33381SOL    HW2 2151   6.340   3.959   3.406 -2.6606  2.4754  0.9523
33382SOL     OW 2152   8.105   3.142   6.142  0.2798  0.1171 -0.2013
33382SOL    HW1 2153   8.145   3.198   6.076  0.2092  0.9334  0.4343
33382SOL    HW2 2154   8.175   3.086   6.173  0.2313 -0.5351 -1.2242
33383SOL     OW 2155   8.013   5.697   8.615  0.4226 -0.0271 -0.1145
33383SOL    HW1 2156   8.097   5.650   8.613  0.1815 -0.4945 -2.2966
33383SOL    HW2 2157   8.031   5.776   8.666  2.1308 -0.2361 -0.3250
33384SOL     OW 2158   3.411   6.041   1.906 -0.4181 -0.4257  0.6083
33384SOL    HW1 2159   3.486   6.097   1.926 -0.4298 -0.8571  1.9753
33384SOL    HW2 2160   3.401   6.047   1.811  1.1726 -0.1312  0.4272
33385SOL     OW 2161   2.933   3.188  10.937  0.3965 -0.7165 -0.1476
33385SOL    HW1 2162   2.869   3.259  10.942  0.4271 -0.7608  0.9597
33385SOL    HW2 2163   2.992   3.215  10.866 -0.3935 -0.3200 -0.6817
33386SOL     OW 2164   0.626   9.394   4.639  0.1665 -0.2705  0.2717
33386SOL    HW1 2165   0.609   9.434   4.725  0.5933 -0.4479  0.4402
33386SOL    HW2 2166   0.717   9.364   4.644  0.2278 -0.1800 -0.2846
33387SOL     OW 2167   5.195   2.647   7.579 -0.5105 -0.2525  0.2363
33387SOL    HW1 2168   5.238   2.562   7.569 -0.3855 -0.2714  0.8686
33387SOL    HW2 2169   5.251   2.708   7.532  0.2874 -0.2600  1.1363
33388SOL     OW 2170   3.371  10.020   4.190 -0.1150  0.3219 -0.0774
33388SOL    HW1 2171   3.415  10.020   4.106  0.6367 -0.7281  0.2957
33388SOL    HW2 2172   3.358  10.113   4.211  2.1248  0.6775 -0.0983
33389SOL     OW 2173   6.690  10.698   9.756 -0.1623  0.1822  0.0413
33389SOL    HW1 2174   6.670  10.617   9.708 -2.4101 -0.0713  1.2902
33389SOL    HW2 2175   6.707  10.762   9.687  1.0530 -1.1543 -0.9849
33390SOL     OW 2176   6.804   6.388   5.580 -0.2109  0.6417 -0.1573
33390SOL    HW1 2177   6.891   6.368   5.615  0.0143  1.9898  0.1097
33390SOL    HW2 2178   6.821   6.425   5.494 -0.6841 -1.3154 -1.1353
33391SOL     OW 2179  10.155   8.289   4.335 -0.1102 -0.0778 -0.4407
33391SOL    HW1 2180  10.184   8.267   4.423 -1.2195  0.8367  0.1768
33391SOL    HW2 2181  10.159   8.385   4.332  0.1786 -0.1032 -1.4911
33392SOL     OW 2182   6.446   7.481   1.966  0.0233 -0.1743 -0.6098
33392SOL    HW1 2183   6.403   7.395   1.966  1.1198 -0.7438 -1.5632
33392SOL    HW2 2184   6.540   7.461   1.966  0.3424  1.0372  1.2075
33393SOL     OW 2185   5.725   2.135   2.386 -0.2705  0.9651  0.1556
33393SOL    HW1 2186   5.733   2.039   2.384  0.7379  1.0460 -0.2586
33393SOL    HW2 2187   5.680   2.153   2.469  0.2499  0.1650  0.6304
33394SOL     OW 2188   2.122   6.438   8.597 -0.4449  0.1650 -0.3182
33394SOL    HW1 2189   2.209   6.452   8.560  0.2202  0.0344  1.1318
33394SOL    HW2 2190   2.132   6.362   8.655 -1.5269  0.1229 -0.1522
33395SOL     OW 2191   7.321   2.372   8.179 -0.0363 -0.4499 -0.3998
33395SOL    HW1 2192   7.394   2.372   8.118 -1.3683  1.0578 -2.1095
33395SOL    HW2 2193   7.277   2.288   8.165  0.1171 -0.4356 -0.9811
33396SOL     OW 2194   2.968   6.728   8.590 -0.2004  0.7305  0.1899
33396SOL    HW1 2195   3.007   6.644   8.565  1.7699  1.7724 -0.4584
33396SOL    HW2 2196   3.006   6.749   8.675 -2.1841  0.1094  1.2976
33397SOL     OW 2197   4.293   7.270   6.494  0.2943  0.0870  0.0088
33397SOL    HW1 2198   4.264   7.280   6.585  3.0647 -3.7408  1.5658
33397SOL    HW2 2199   4.370   7.328   6.487 -0.0079  0.4951  0.0391
33398SOL     OW 2200   7.363   7.744   2.265 -0.0410  0.3050 -0.5324
33398SOL    HW1 2201   7.444   7.793   2.279 -0.2776  1.3750 -2.6545
33398SOL    HW2 2202   7.297   7.792   2.315  0.5206 -0.4603  1.0412
33399SOL     OW 2203   6.285   5.654   3.162  0.5969 -0.0812  0.1666
33399SOL    HW1 2204   6.242   5.739   3.172 -0.3265 -0.7444  2.7581
33399SOL    HW2 2205   6.255   5.621   3.077 -0.6085  1.3375  0.0103
33400SOL     OW 2206  10.019   3.560   8.648 -0.1624 -0.0429 -0.1840
33400SOL    HW1 2207   9.979   3.477   8.674  0.4550 -0.0053  0.9821
33400SOL    HW2 2208   9.945   3.617   8.628 -0.7828  0.0985  2.1464
33401SOL     OW 2209   1.205  10.999   8.302  0.4881  0.0700  0.0375
33401SOL    HW1 2210   1.162  11.010   8.217  0.3650 -0.9340 -0.0321
33401SOL    HW2 2211   1.291  10.963   8.281  0.2469 -0.7126  0.3679
33402SOL     OW 2212   2.453   2.935   9.918  0.5223  0.5212  0.4035
33402SOL    HW1 2213   2.498   2.896   9.993  1.0775  0.7194  0.1812
33402SOL    HW2 2214   2.468   3.029   9.927  0.9629  0.5113 -0.1837
33403SOL     OW 2215   6.416   2.451   6.214  0.0488  0.3058 -0.4429
33403SOL    HW1 2216   6.357   2.457   6.289  1.3844 -0.0029  0.6571
33403SOL    HW2 2217   6.367   2.492   6.142 -0.1230  3.3462  1.2561
33404SOL     OW 2218   4.562   9.058   3.359  0.0940  0.1749  0.0569
33404SOL    HW1 2219   4.605   9.141   3.378 -0.2829 -0.0297  2.0155
33404SOL    HW2 2220   4.622   8.991   3.391  0.3661 -0.3594 -1.4462
33405SOL     OW 2221   5.488   4.240   8.886 -0.0434 -0.1733 -0.0378
33405SOL    HW1 2222   5.583   4.249   8.887 -0.0716  0.8040 -1.8432
33405SOL    HW2 2223   5.460   4.270   8.973  1.3144 -1.0286  0.7245
33406SOL     OW 2224   5.970   1.112   9.176 -0.2980 -0.2337 -0.5225
33406SOL    HW1 2225   5.917   1.094   9.254  0.0934  0.8808  0.0295
33406SOL    HW2 2226   5.909   1.106   9.103 -0.8725 -0.3867 -0.0364
33407SOL     OW 2227   7.390   5.777   4.678  0.4799 -0.0831  0.4526
33407SOL    HW1 2228   7.345   5.693   4.674 -0.7391  0.5720 -0.0265
33407SOL    HW2 2229   7.363   5.815   4.761  1.4557 -0.3755  0.9205
33408SOL     OW 2230  10.696   3.722   6.543  0.8386  0.0845  0.1086
33408SOL    HW1 2231  10.680   3.771   6.462 -0.3168  0.5849  0.6092
33408SOL    HW2 2232  10.721   3.635   6.514 -4.0267 -1.2837 -0.9851
33409SOL     OW 2233   4.160   3.023   7.606  0.1375 -0.0493 -0.2737
33409SOL    HW1 2234   4.176   2.985   7.693  0.3327 -1.8972 -1.0764
33409SOL    HW2 2235   4.240   3.074   7.588 -0.6082  1.8216  1.2995
33410SOL     OW 2236   2.657   5.898   6.648 -0.0695 -0.0335  0.4963
33410SOL    HW1 2237   2.615   5.848   6.719 -3.1578  1.4069 -0.1519
33410SOL    HW2 2238   2.601   5.883   6.572 -0.1587  2.9449 -0.1519
33411SOL     OW 2239   9.647   2.837   0.024 -0.0436  0.0420  0.8964
33411SOL    HW1 2240   9.734   2.875   0.014  0.3640 -0.8401  0.9949
33411SOL    HW2 2241   9.587   2.911   0.011  0.6480  0.3487 -0.8775
33412SOL     OW 2242   2.161   9.578   3.110 -0.2569  0.4181  0.4657
33412SOL    HW1 2243   2.206   9.502   3.074 -0.3436  0.0717  1.0753
33412SOL    HW2 2244   2.213   9.603   3.187 -0.6106  0.5526  0.6650
33413SOL     OW 2245   2.597  10.434   8.422 -0.0423  0.0662  0.1425
33413SOL    HW1 2246   2.568  10.524   8.432 -1.8369 -0.5822  1.5453
33413SOL    HW2 2247   2.577  10.394   8.507  1.2365 -1.5096 -0.2572
33414SOL     OW 2248   8.226   5.520   4.379  0.5576 -0.3538 -0.7089
33414SOL    HW1 2249   8.219   5.437   4.426 -0.2617 -0.4444 -0.9667
33414SOL    HW2 2250   8.277   5.576   4.437 -0.8615 -0.2985  0.5657
33415SOL     OW 2251   6.596   8.729   5.849  0.8032  0.3769  0.1843
33415SOL    HW1 2252   6.534   8.689   5.789 -0.6379  2.0288  0.5071
33415SOL    HW2 2253   6.575   8.690   5.934  0.0411  1.0953  0.3319
33416SOL     OW 2254   2.168   9.620   9.927 -0.1104  0.1650 -0.6097
33416SOL    HW1 2255   2.101   9.559   9.958  0.2192 -0.3173 -0.8334
33416SOL    HW2 2256   2.240   9.564   9.898  0.5570  0.6844 -0.0066
33417SOL     OW 2257   1.628   6.782  10.457  0.6742 -1.2531 -0.5391
33417SOL    HW1 2258   1.543   6.813  10.490  0.5780 -2.5604  0.5240
33417SOL    HW2 2259   1.607   6.740  10.374 -0.2878 -4.2668  1.1011
33418SOL     OW 2260   7.706   5.191   0.978 -0.4226  0.3144 -0.2554
33418SOL    HW1 2261   7.728   5.104   0.943  0.7120  0.7629 -0.6933
33418SOL    HW2 2262   7.710   5.180   1.073 -1.8056 -0.4769 -0.2579
33419SOL     OW 2263   0.424   6.322   3.536 -0.3297 -0.5862  0.1738
33419SOL    HW1 2264   0.355   6.261   3.561  0.3306 -0.6333  1.9833
33419SOL    HW2 2265   0.411   6.398   3.592  0.6094 -0.2689 -0.0202
33420SOL     OW 2266   1.170   1.044   8.910  0.0657 -0.6625  0.5811
33420SOL    HW1 2267   1.250   0.992   8.904 -0.3009 -1.1804 -0.0001
33420SOL    HW2 2268   1.152   1.070   8.820 -1.5936 -2.3798  0.3690
33421SOL     OW 2269   6.493   8.611   8.273  0.5479 -0.1265 -0.3064
33421SOL    HW1 2270   6.442   8.648   8.201  2.1083 -1.5825 -2.2704
33421SOL    HW2 2271   6.455   8.524   8.287  0.6588 -0.0940  0.2428
33422SOL     OW 2272   7.068   7.191   9.701 -0.0413  0.4912  0.1113
33422SOL    HW1 2273   7.161   7.189   9.675  0.2449  3.0184  0.7190
33422SOL    HW2 2274   7.024   7.236   9.629 -0.8375 -0.6535 -0.1515
33423SOL     OW 2275   1.209   1.785   6.817 -0.1837  0.1897 -0.0490
33423SOL    HW1 2276   1.300   1.810   6.802 -0.3478  0.9449  0.1525
33423SOL    HW2 2277   1.169   1.784   6.730  0.5247 -2.3212 -0.4112
33424SOL     OW 2278   2.328   7.622   3.042  0.2867 -0.0354  0.2743
33424SOL    HW1 2279   2.384   7.546   3.030  0.6654  0.0916  1.1870
33424SOL    HW2 2280   2.242   7.593   3.009  0.6047 -0.6005 -0.0799
33425SOL     OW 2281   1.881   7.119   6.433  0.9693 -0.4480  0.1038
33425SOL    HW1 2282   1.875   7.201   6.383 -2.6820 -0.5090  0.1816
33425SOL    HW2 2283   1.849   7.052   6.374 -3.5723 -0.5139  2.2150
33426SOL     OW 2284   5.172   1.541   2.725 -0.3180 -0.1347 -0.3733
33426SOL    HW1 2285   5.204   1.538   2.635 -1.1110  0.0275 -0.6705
33426SOL    HW2 2286   5.189   1.453   2.759 -1.4046 -0.6836 -1.1822
33427SOL     OW 2287   3.099   1.253   4.142  0.1957  0.9430  0.1720
33427SOL    HW1 2288   3.036   1.205   4.196 -1.5240  2.6361 -0.2117
33427SOL    HW2 2289   3.185   1.221   4.170 -0.8084 -1.4259  0.7379
33428SOL     OW 2290  10.061   5.795   5.369 -0.3122 -0.8235 -0.2627
33428SOL    HW1 2291  10.055   5.890   5.374 -0.3236 -0.8313 -0.1112
33428SOL    HW2 2292  10.085   5.777   5.278  1.5104 -0.5827  0.1487
33429SOL     OW 2293   9.028  10.430   3.601 -0.3728 -0.1067 -0.2238
33429SOL    HW1 2294   8.940  10.405   3.574 -0.0185 -1.8807  0.1477
33429SOL    HW2 2295   9.075  10.444   3.519 -0.6588 -0.4150 -0.4420
33430SOL     OW 2296   2.338   9.950   8.137 -0.2846 -0.4510 -0.0438
33430SOL    HW1 2297   2.393   9.877   8.164  0.3701 -0.1896 -0.6407
33430SOL    HW2 2298   2.257   9.909   8.106 -0.3007 -0.8583  0.5167
33431SOL     OW 2299   5.377  10.112   5.649  0.3594  0.3745 -0.5972
33431SOL    HW1 2300   5.469  10.085   5.652  0.1205 -0.3908  1.6303
33431SOL    HW2 2301   5.329  10.033   5.627  0.0247  0.0144  1.3076
33432SOL     OW 2302   1.462   4.798   8.452 -0.4635 -0.2369  0.5204
33432SOL    HW1 2303   1.528   4.866   8.462 -0.4109 -0.3429  0.8993
33432SOL    HW2 2304   1.493   4.726   8.506  0.0840 -1.0324 -0.8073
33433SOL     OW 2305   8.390   2.268  10.546  0.9211 -0.6710  0.0573
33433SOL    HW1 2306   8.363   2.185  10.508  0.7430 -0.5960  0.0229
33433SOL    HW2 2307   8.471   2.247  10.593  1.8135 -0.5203 -1.3449
33434SOL     OW 2308   4.627   9.454   7.995 -0.2235 -0.3547 -0.1467
33434SOL    HW1 2309   4.578   9.475   7.916 -0.2011 -0.2538 -0.1346
33434SOL    HW2 2310   4.586   9.374   8.028  1.0632 -1.5452 -1.3494
33435SOL     OW 2311  10.674   7.233   2.416 -0.3876 -0.2126 -0.2450
33435SOL    HW1 2312  10.700   7.244   2.507  0.6521  0.8592 -0.6362
33435SOL    HW2 2313  10.756   7.214   2.370 -0.6912  0.5600 -1.1343
33436SOL     OW 2314   2.657   0.247   7.067 -0.1478 -0.1681 -0.3082
33436SOL    HW1 2315   2.676   0.293   7.148 -2.6541 -0.6517  0.6436
33436SOL    HW2 2316   2.681   0.156   7.085  0.5964 -0.0470 -0.6315
33437SOL     OW 2317   8.215   7.847   8.677 -0.0096  0.0229  0.1866
33437SOL    HW1 2318   8.140   7.907   8.687 -0.1057 -0.2935  1.6243
33437SOL    HW2 2319   8.260   7.878   8.599 -2.9248 -1.1989 -2.1925
33438SOL     OW 2320   1.646   0.422   3.067 -0.4113 -0.0910  0.0995
33438SOL    HW1 2321   1.557   0.431   3.101 -0.4005 -2.1219  0.7907
33438SOL    HW2 2322   1.691   0.501   3.097 -1.7526  0.5791  0.4363
33439SOL     OW 2323   2.153   6.220   5.020  0.2528 -0.4121 -0.5905
33439SOL    HW1 2324   2.222   6.202   5.084  0.3365  1.8400  0.0100
33439SOL    HW2 2325   2.198   6.220   4.936  0.5646 -1.0737 -0.4333
33440SOL     OW 2326   6.310   9.759   1.147 -0.6247  0.4845 -0.1114
33440SOL    HW1 2327   6.339   9.849   1.161 -1.3262  0.6018  0.6307
33440SOL    HW2 2328   6.383   9.718   1.099  2.0592  0.0570  3.8830
33441SOL     OW 2329   7.147   0.343   4.600  0.4647 -0.0123 -0.0018
33441SOL    HW1 2330   7.168   0.250   4.586 -0.6214 -0.2686  0.0011
33441SOL    HW2 2331   7.110   0.372   4.516  1.7069  0.6983 -0.3333
33442SOL     OW 2332   0.121   7.216   1.990 -0.7726  0.5628 -0.2597
33442SOL    HW1 2333   0.191   7.153   2.004 -0.4816  1.1358  0.9893
33442SOL    HW2 2334   0.050   7.165   1.949 -1.1271 -0.9521  2.0767
33443SOL     OW 2335   1.087   6.113   6.757 -0.0614  0.7477  0.6076
33443SOL    HW1 2336   1.124   6.118   6.669  0.1169 -2.8824  0.2890
33443SOL    HW2 2337   0.997   6.143   6.747 -1.1911 -2.7495 -1.8311
33444SOL     OW 2338   9.895   5.825   7.099 -0.1457 -0.2924  0.1063
33444SOL    HW1 2339   9.908   5.841   7.005 -0.1442  1.9617  0.4302
33444SOL    HW2 2340   9.802   5.807   7.108  0.1303 -2.1844 -0.4986
33445SOL     OW 2341   3.630   4.009  10.527 -0.4018 -0.0588  0.1775
33445SOL    HW1 2342   3.590   4.096  10.528 -0.2098  0.0664  2.4531
33445SOL    HW2 2343   3.657   3.994  10.617  1.0316 -1.8377 -0.4806
33446SOL     OW 2344   5.684   6.665  11.016 -0.1155 -0.0260 -0.3000
33446SOL    HW1 2345   5.755   6.630  11.070  0.2886 -1.1698 -1.5262
33446SOL    HW2 2346   5.728   6.713  10.947 -0.5401 -0.4126 -0.8462
33447SOL     OW 2347   5.208   9.795   1.293 -0.2756 -0.1114  0.4449
33447SOL    HW1 2348   5.229   9.787   1.201  0.3297 -0.7033  0.6359
33447SOL    HW2 2349   5.262   9.868   1.324  1.4941 -1.5623  0.9127
33448SOL     OW 2350   0.138   9.349   7.426 -0.3492  0.4345  0.0086
33448SOL    HW1 2351   0.084   9.419   7.388 -1.0330  0.8201  1.5989
33448SOL    HW2 2352   0.130   9.362   7.520  0.4804 -1.0818  0.3092
33449SOL     OW 2353   3.633   2.385   6.025  0.2285 -0.2727  0.0285
33449SOL    HW1 2354   3.559   2.411   5.971 -0.2897  0.7611  1.1986
33449SOL    HW2 2355   3.681   2.322   5.970 -2.4854 -2.4526 -0.0695
33450SOL     OW 2356   1.505  10.348   2.891  0.3127  0.1935 -0.5555
33450SOL    HW1 2357   1.462  10.339   2.976  0.4632  0.0244 -0.4964
33450SOL    HW2 2358   1.570  10.278   2.889  0.0276 -0.0668 -0.9802
33451SOL     OW 2359   6.118   6.416   6.463  0.1264 -0.3501  0.6100
33451SOL    HW1 2360   6.057   6.488   6.477  0.6754  0.5196 -1.1308
33451SOL    HW2 2361   6.119   6.368   6.546 -0.3386  1.5622  1.7839
33452SOL     OW 2362   4.977   8.423   6.055  0.0193  0.2264  0.0783
33452SOL    HW1 2363   4.889   8.461   6.052  0.4277  1.2886  0.9868
33452SOL    HW2 2364   5.020   8.457   5.976 -0.5280 -0.7179 -0.6496
33453SOL     OW 2365   7.131   0.381   7.526 -0.2139  0.2577  0.4192
33453SOL    HW1 2366   7.165   0.448   7.585  0.3476  0.8569 -0.5600
33453SOL    HW2 2367   7.087   0.429   7.456 -0.8225 -0.4335  0.3104
33454SOL     OW 2368   7.861  10.380   4.702 -0.0936 -0.0806 -0.4586
33454SOL    HW1 2369   7.899  10.425   4.627  3.9512 -0.2318  1.2588
33454SOL    HW2 2370   7.914  10.301   4.713  0.9536  0.9478  3.6710
33455SOL     OW 2371   8.569   8.558   3.104 -0.2530 -0.5980  0.5389
33455SOL    HW1 2372   8.523   8.490   3.055 -0.0535 -0.5942  0.3391
33455SOL    HW2 2373   8.660   8.551   3.074  0.0088 -1.0463  1.4215
33456SOL     OW 2374   3.765   7.698   7.886 -0.1271  0.0334 -0.8477
33456SOL    HW1 2375   3.693   7.758   7.905  1.3780  1.6252  0.2075
33456SOL    HW2 2376   3.802   7.730   7.804 -0.5019 -0.6744 -1.3007
33457SOL     OW 2377   2.289   2.639   1.330 -0.1528  0.4375  0.2110
33457SOL    HW1 2378   2.277   2.622   1.423  2.0191 -1.2598  0.2568
33457SOL    HW2 2379   2.264   2.558   1.286  0.3841  0.6448 -0.5193
33458SOL     OW 2380  10.993   9.554   2.840 -0.0849 -0.2161 -0.4185
33458SOL    HW1 2381  10.951   9.568   2.755  3.6836  1.5819 -2.1935
33458SOL    HW2 2382  11.004   9.643   2.876  0.0791 -0.8154  1.0906
33459SOL     OW 2383   3.882   6.969   0.601 -0.1388  0.2970  0.2005
33459SOL    HW1 2384   3.807   6.928   0.644 -0.4822 -0.0562 -0.7091
33459SOL    HW2 2385   3.893   7.052   0.647 -0.9568  0.2586  0.4837
33460SOL     OW 2386   7.276   5.161   3.050 -0.3651 -0.8319  0.2717
33460SOL    HW1 2387   7.284   5.076   3.007 -1.0949 -0.1687 -1.2581
33460SOL    HW2 2388   7.238   5.218   2.983  0.2779  0.7493  1.1958
33461SOL     OW 2389   7.329  10.595   0.933  0.6301 -0.6649 -0.5234
33461SOL    HW1 2390   7.291  10.513   0.963 -1.1755  0.0410 -0.7477
33461SOL    HW2 2391   7.380  10.627   1.008 -0.9549 -0.6365  0.6095
33462SOL     OW 2392   0.001   7.462   0.049 -0.3497  0.0772  0.6052
33462SOL    HW1 2393  -0.044   7.379   0.066  2.2847 -1.5931  0.0047
33462SOL    HW2 2394  -0.034   7.491  -0.035 -3.9710  1.6326  2.4469
33463SOL     OW 2395   6.902  11.019   5.655  0.1130 -0.2655 -0.1385
33463SOL    HW1 2396   6.896  10.940   5.602 -2.0405 -0.3758  0.1909
33463SOL    HW2 2397   6.865  11.088   5.600  2.4456  0.6763 -0.6276
33464SOL     OW 2398   7.152   6.997   8.340  0.1106 -0.0603  0.3192
33464SOL    HW1 2399   7.239   7.035   8.345  0.4665 -0.2994 -2.4882
33464SOL    HW2 2400   7.164   6.913   8.294 -1.5224 -0.2542  0.1488
33465SOL     OW 2401   7.051   2.729   7.806 -0.7957 -0.2933 -0.6095
33465SOL    HW1 2402   7.118   2.692   7.749 -0.8950  0.0194 -0.9327
33465SOL    HW2 2403   7.044   2.820   7.779 -0.5964 -0.0508  0.1381
33466SOL     OW 2404   8.332   4.969   7.554  0.3854  0.0853  0.5677
33466SOL    HW1 2405   8.239   4.973   7.531  0.5973  1.1788 -0.1895
33466SOL    HW2 2406   8.349   4.877   7.572 -0.5698 -0.3076 -0.4666
33467SOL     OW 2407   2.205   5.998   8.497  0.0657  0.5338 -0.1511
33467SOL    HW1 2408   2.171   6.051   8.425 -2.1767  0.6191  0.9004
33467SOL    HW2 2409   2.135   5.935   8.516  0.8568  0.1055  1.5362
33468SOL     OW 2410   9.339   1.369   5.879 -0.3464  0.3465 -0.4015
33468SOL    HW1 2411   9.369   1.377   5.970  0.5571  1.7344 -0.8001
33468SOL    HW2 2412   9.390   1.296   5.843 -2.6610 -2.1075  0.9176
33469SOL     OW 2413   7.609   4.896   8.676 -0.0030 -0.1801  0.1258
33469SOL    HW1 2414   7.664   4.900   8.597  1.2090  0.2719  0.9638
33469SOL    HW2 2415   7.595   4.988   8.700  0.7094 -0.3223  1.1439
33470SOL     OW 2416   8.419   0.030   6.209 -0.3710  0.0712  0.0730
33470SOL    HW1 2417   8.481  -0.034   6.174  0.8759  0.5978  1.2363
33470SOL    HW2 2418   8.341  -0.021   6.229  0.0924 -0.8191 -0.3274
33471SOL     OW 2419  10.804   3.496   0.999 -0.4472 -0.2076  0.1638
33471SOL    HW1 2420  10.802   3.411   1.042  0.2842  0.1990  1.0285
33471SOL    HW2 2421  10.854   3.552   1.058 -0.4395  0.6824 -0.6591
33472SOL     OW 2422   1.579   8.462   7.958 -0.1174  0.8384 -0.2576
33472SOL    HW1 2423   1.594   8.373   7.991 -5.6126 -0.3151  0.1304
33472SOL    HW2 2424   1.607   8.519   8.030  0.2321 -0.7823  0.9705
33473SOL     OW 2425   9.685  10.531   7.907  1.0593  0.0684  0.1625
33473SOL    HW1 2426   9.669  10.508   7.815  0.8791 -0.5246  0.3419
33473SOL    HW2 2427   9.687  10.627   7.907 -1.2382  0.1594 -0.0773
33474SOL     OW 2428   5.059   8.278   8.994 -0.1830  0.6039 -0.1984
33474SOL    HW1 2429   5.004   8.234   8.929  0.5225 -0.2939 -0.2169
33474SOL    HW2 2430   5.141   8.296   8.948  1.6598 -3.0527  1.1855
33475SOL     OW 2431   7.040   6.582   1.009 -0.8672 -0.0642 -0.1542
33475SOL    HW1 2432   7.097   6.505   1.015  0.5407  0.9497 -0.1518
33475SOL    HW2 2433   7.000   6.588   1.096 -2.3164 -1.7282 -0.6304
33476SOL     OW 2434   4.901   3.405   0.566 -0.3754 -0.7705 -0.5356
33476SOL    HW1 2435   4.992   3.393   0.540  0.0256 -0.1159  0.5118
33476SOL    HW2 2436   4.903   3.478   0.628 -1.4608 -1.4539  0.3398
33477SOL     OW 2437   9.536   5.783   0.188  0.4264 -0.2791  0.0826
33477SOL    HW1 2438   9.585   5.808   0.109  0.7525  1.2056  0.7133
33477SOL    HW2 2439   9.571   5.840   0.256 -0.2680 -1.1266  1.1758
33478SOL     OW 2440   5.094   5.196   4.873  0.4183  0.2160  0.1031
33478SOL    HW1 2441   5.009   5.224   4.841  0.5671  0.2093 -0.3114
33478SOL    HW2 2442   5.109   5.112   4.830  0.6728  0.2578  0.1070
33479SOL     OW 2443   3.491   5.848   8.702  0.1479  0.4657 -0.3955
33479SOL    HW1 2444   3.553   5.837   8.774 -0.0903 -1.2402 -0.4116
33479SOL    HW2 2445   3.448   5.931   8.721 -0.1912 -0.1064  1.6779
33480SOL     OW 2446   5.216   4.116   5.822 -0.1854 -0.1966  0.3070
33480SOL    HW1 2447   5.194   4.101   5.914 -2.0895 -1.4947 -0.3106
33480SOL    HW2 2448   5.202   4.210   5.810 -0.0046 -0.0242  1.3068
33481SOL     OW 2449   7.261   6.539   6.856  0.4953  0.1945 -0.0752
33481SOL    HW1 2450   7.178   6.528   6.903  0.9230  0.8951  0.8762
33481SOL    HW2 2451   7.245   6.612   6.796  0.0486 -0.4938 -0.8205
33482SOL     OW 2452   6.576   3.449   4.290 -0.3707 -0.0211  0.3056
33482SOL    HW1 2453   6.628   3.433   4.211 -0.8585 -1.6367  0.2857
33482SOL    HW2 2454   6.637   3.435   4.362 -0.2877  0.0763  0.2563
33483SOL     OW 2455   9.473   8.455   2.868 -0.4657 -0.1740  0.0725
33483SOL    HW1 2456   9.447   8.429   2.779  1.0150 -0.1138 -0.4066
33483SOL    HW2 2457   9.441   8.545   2.876  3.6960  1.8587 -2.4470
33484SOL     OW 2458   2.595   1.490   0.472  0.4617  0.1608  0.2550
33484SOL    HW1 2459   2.664   1.471   0.409  1.2416  1.1917  0.7704
33484SOL    HW2 2460   2.523   1.526   0.419  0.1982 -1.1209 -0.3098
33485SOL     OW 2461   2.473   8.569   1.157 -0.0426 -0.6669 -0.0490
33485SOL    HW1 2462   2.451   8.569   1.251  0.8005 -1.1957  0.1624
33485SOL    HW2 2463   2.410   8.509   1.118  0.1797 -1.1569  0.3332
33486SOL     OW 2464   9.777   2.665   0.722 -0.3754  0.1251 -0.1090
33486SOL    HW1 2465   9.714   2.645   0.653 -0.1505 -0.4417 -0.1592
33486SOL    HW2 2466   9.852   2.607   0.703 -0.7857 -0.9232  1.2831
33487SOL     OW 2467   0.122   4.453   2.737 -0.6192  0.1222 -0.2848
33487SOL    HW1 2468   0.044   4.454   2.793 -1.6605  0.6755 -1.7086
33487SOL    HW2 2469   0.090   4.477   2.650  1.4405  2.4232 -0.5108
33488SOL     OW 2470   9.105   5.348   8.794  0.1150 -0.4945  0.6392
33488SOL    HW1 2471   9.150   5.313   8.871  2.4665  1.4988  0.2967
33488SOL    HW2 2472   9.155   5.315   8.719  0.5006  1.0271  0.1886
33489SOL     OW 2473   8.256   9.972   5.791 -0.1621 -0.0083 -0.1629
33489SOL    HW1 2474   8.296   9.885   5.799  0.2894 -0.1894 -3.0488
33489SOL    HW2 2475   8.320  10.032   5.829  0.4891 -0.7744 -0.0369
33490SOL     OW 2476   4.199   0.404   4.235 -0.1060  0.0747 -0.2761
33490SOL    HW1 2477   4.133   0.338   4.214 -0.6582  0.1039  1.2406
33490SOL    HW2 2478   4.218   0.390   4.328  1.7989  0.2822 -0.5899
33491SOL     OW 2479   3.252   6.205   2.274  0.1472 -0.0419  0.2007
33491SOL    HW1 2480   3.161   6.185   2.250 -0.1580  0.8705  0.5657
33491SOL    HW2 2481   3.279   6.272   2.211  0.6694 -0.5273 -0.0947
33492SOL     OW 2482   1.098   2.938   5.500 -0.9755 -0.1570 -0.3108
33492SOL    HW1 2483   1.183   2.973   5.472 -1.6574  0.7496 -1.3053
33492SOL    HW2 2484   1.043   2.943   5.421 -1.3303 -2.8159 -0.3284
33493SOL     OW 2485   9.772   9.635   4.015 -0.6843  0.7336 -0.1926
33493SOL    HW1 2486   9.709   9.589   4.070  0.0904  0.1521  0.2231
33493SOL    HW2 2487   9.836   9.671   4.077  1.3395 -1.6326 -0.7648
33494SOL     OW 2488   5.182   8.199   4.217 -0.1833  0.5172 -0.1029
33494SOL    HW1 2489   5.164   8.154   4.299 -0.4341  0.4738 -0.1799
33494SOL    HW2 2490   5.228   8.279   4.242  1.7578 -0.5540 -0.0693
33495SOL     OW 2491   8.970   9.089   9.989 -0.2259 -0.7796 -0.1933
33495SOL    HW1 2492   9.006   9.003  10.013 -0.1660 -0.2016  2.0836
33495SOL    HW2 2493   9.040   9.133   9.941  0.5690 -1.2151  0.5415
33496SOL     OW 2494   6.627   0.571   1.240  0.0919 -0.8470  0.0214
33496SOL    HW1 2495   6.585   0.507   1.296  1.3633 -1.8415 -0.1105
33496SOL    HW2 2496   6.582   0.563   1.156 -0.4664 -0.7876  0.3107
33497SOL     OW 2497   7.193   4.315   3.652  0.4340 -0.3126  0.3582
33497SOL    HW1 2498   7.216   4.390   3.707  1.8811  0.5401 -1.3309
33497SOL    HW2 2499   7.250   4.244   3.682 -0.8816 -0.7751  1.9049
33498SOL     OW 2500   3.605   9.885   3.246 -0.3770 -0.6028  0.1405
33498SOL    HW1 2501   3.580   9.964   3.199  0.6005 -0.7369 -0.6428
33498SOL    HW2 2502   3.648   9.830   3.180  0.7950 -0.9048  1.1167
33499SOL     OW 2503   7.991   2.335   1.475 -0.0665  0.7802 -0.0577
33499SOL    HW1 2504   7.924   2.390   1.515  0.2716 -0.2015  2.0080
33499SOL    HW2 2505   8.074   2.375   1.502  0.1744 -0.2465  0.7985
33500SOL     OW 2506   5.476   1.366   1.372  0.7625 -0.0869 -0.2387
33500SOL    HW1 2507   5.568   1.355   1.350  0.0655 -1.2892 -2.9658
33500SOL    HW2 2508   5.465   1.320   1.456  2.6745  0.5226  0.4054
33501SOL     OW 2509   9.117   5.596   4.036 -0.1743  0.2188  0.1534
33501SOL    HW1 2510   9.134   5.517   3.984  0.2697  0.9941 -0.9292
33501SOL    HW2 2511   9.022   5.609   4.031 -0.2248 -0.1360  0.1830
33502SOL     OW 2512   7.150  10.628   1.494 -0.0892  0.6112  0.5138
33502SOL    HW1 2513   7.076  10.597   1.546  0.6026  0.0433  1.1918
33502SOL    HW2 2514   7.125  10.716   1.467 -0.1255  1.2731  2.5552
33503SOL     OW 2515   8.693   1.061   1.966  0.2862 -0.4160  0.0131
33503SOL    HW1 2516   8.746   1.122   2.016  1.1818  0.5077 -1.9357
33503SOL    HW2 2517   8.602   1.086   1.985  0.6302  1.9323 -1.1098
33504SOL     OW 2518   4.084   6.210   8.655 -0.1822  0.5724  0.8132
33504SOL    HW1 2519   4.016   6.261   8.611 -0.8461 -0.9252  0.0642
33504SOL    HW2 2520   4.105   6.261   8.733 -2.9030  0.5758  1.6229
33505SOL     OW 2521   1.410  10.013   4.080 -0.2411 -0.0348  0.3886
33505SOL    HW1 2522   1.492   9.975   4.112 -0.4758 -0.3980  0.5578
33505SOL    HW2 2523   1.426  10.029   3.987 -0.7813 -2.3578 -0.1680
33506SOL     OW 2524   6.779   0.424   3.708 -0.4611  0.6794 -0.4116
33506SOL    HW1 2525   6.819   0.337   3.710 -0.9023  0.4719 -0.5191
33506SOL    HW2 2526   6.756   0.439   3.617 -1.8087  0.2458 -0.1633
33507SOL     OW 2527   8.415   9.830   7.247 -0.0994 -0.1490  0.2722
33507SOL    HW1 2528   8.510   9.819   7.238  0.0186  1.1967 -0.4853
33507SOL    HW2 2529   8.385   9.749   7.287  1.4382 -0.4081  0.9744
33508SOL     OW 2530  10.661   0.288   3.124  0.1511  0.3888  0.2124
33508SOL    HW1 2531  10.590   0.246   3.173 -1.2310  0.7301 -1.3642
33508SOL    HW2 2532  10.620   0.366   3.086  0.9221 -0.2006 -1.9762
33509SOL     OW 2533   8.120   9.125   8.121  0.1423 -0.5131 -0.1951
33509SOL    HW1 2534   8.133   9.214   8.088  0.8056 -0.1592  0.9672
33509SOL    HW2 2535   8.091   9.075   8.045  0.9403  0.4270 -1.1420
33510SOL     OW 2536   4.090   9.784   7.889  0.0468  0.3383  0.1361
33510SOL    HW1 2537   4.175   9.783   7.845  0.3591  1.9397  0.6440
33510SOL    HW2 2538   4.079   9.875   7.917 -1.8198  0.1437  0.1181
33511SOL     OW 2539   6.739   6.934   1.356 -0.1321 -0.2377  0.0336
33511SOL    HW1 2540   6.687   6.974   1.426 -1.8881 -0.2364 -1.1933
33511SOL    HW2 2541   6.759   7.008   1.298 -1.6358 -0.7294 -1.1836
33512SOL     OW 2542   7.936   7.326   8.859 -0.1145  0.0678  0.7025
33512SOL    HW1 2543   7.854   7.278   8.849  1.1654 -2.0596 -0.3413
33512SOL    HW2 2544   7.934   7.393   8.790 -0.5720 -0.6200  0.0373
33513SOL     OW 2545   0.209   9.042   9.731  0.1746 -0.2271 -0.6992
33513SOL    HW1 2546   0.248   8.971   9.679  1.9295  0.0826  0.1164
33513SOL    HW2 2547   0.283   9.081   9.777 -1.1219  0.5143  0.8333
33514SOL     OW 2548   6.217   1.144   3.227  0.7185  0.0098 -0.3512
33514SOL    HW1 2549   6.238   1.231   3.262 -0.0235 -0.2814  0.8941
33514SOL    HW2 2550   6.302   1.105   3.208  1.2744 -0.2189  2.2453
33515SOL     OW 2551   8.377   9.227   2.239 -0.0853 -0.4765 -0.0742
33515SOL    HW1 2552   8.376   9.303   2.297  1.1582 -0.9294  0.5933
33515SOL    HW2 2553   8.295   9.231   2.191 -0.4629  0.7480  0.6498
33516SOL     OW 2554   5.058   4.981   8.654 -0.7192 -0.2848  0.3704
33516SOL    HW1 2555   4.973   4.985   8.611 -0.5556 -0.4707  0.0259
33516SOL    HW2 2556   5.099   4.902   8.618 -0.4784 -0.2978  0.6729
33517SOL     OW 2557  10.040  10.305  11.022  0.0719  0.1220 -0.4952
33517SOL    HW1 2558   9.980  10.240  11.059 -0.7707  1.5658  0.7858
33517SOL    HW2 2559  10.098  10.328  11.095  0.5791  0.5420 -1.0275
33518SOL     OW 2560   8.785  10.642   5.808  0.0213 -0.6973  0.4448
33518SOL    HW1 2561   8.779  10.684   5.723  1.3262 -0.0869  0.6234
33518SOL    HW2 2562   8.698  10.605   5.823 -1.3759  2.3007  0.4729
33519SOL     OW 2563  10.995   1.548  10.262  0.2900 -0.3321  0.6794
33519SOL    HW1 2564  11.026   1.505  10.342 -0.0581 -0.5299  0.7076
33519SOL    HW2 2565  11.017   1.488  10.191  1.5877  0.3212  0.4922
33520SOL     OW 2566   1.236   4.568   8.669  0.1906  0.7400 -0.1710
33520SOL    HW1 2567   1.264   4.553   8.579  1.5101 -0.2786  0.3565
33520SOL    HW2 2568   1.161   4.510   8.681  0.2317  0.6095 -0.5208
33521SOL     OW 2569   3.355  10.547   5.310  0.1323  0.2078 -0.5561
33521SOL    HW1 2570   3.430  10.578   5.360  1.0339 -0.2815 -1.5720
33521SOL    HW2 2571   3.288  10.615   5.324  0.3245  0.0801  1.2888
33522SOL     OW 2572   6.294   5.518   4.570  0.3375  0.3367  0.1333
33522SOL    HW1 2573   6.343   5.581   4.518  0.0664  0.9683  0.6293
33522SOL    HW2 2574   6.281   5.443   4.512  1.2260  0.4720 -0.2442
33523SOL     OW 2575   1.921   4.811   4.709 -0.0443 -0.3074  0.3822
33523SOL    HW1 2576   1.985   4.857   4.762  1.7335 -0.7404 -1.2821
33523SOL    HW2 2577   1.913   4.863   4.629  0.5580 -1.7976 -0.7081
33524SOL     OW 2578   0.512   1.227   3.192 -0.1153  0.2796  0.6260
33524SOL    HW1 2579   0.421   1.258   3.194 -0.7491 -1.2570 -1.3397
33524SOL    HW2 2580   0.547   1.259   3.109  0.3386 -1.1433  0.2392
33525SOL     OW 2581   1.634   0.311   5.063 -0.0181 -0.8363  0.0806
33525SOL    HW1 2582   1.725   0.325   5.036 -0.5877  0.4393 -1.3341
33525SOL    HW2 2583   1.627   0.356   5.147  0.8400 -1.6630  0.6241
33526SOL     OW 2584   0.488   5.520   0.539  0.2518  0.7059 -0.3419
33526SOL    HW1 2585   0.466   5.525   0.446  0.6632  1.6697 -0.3967
33526SOL    HW2 2586   0.557   5.454   0.544  0.2683  0.6924 -0.7336
33527SOL     OW 2587  10.165   7.050   7.630  0.0414  0.6396 -0.1711
33527SOL    HW1 2588  10.124   7.020   7.549  0.3397  0.7986 -0.3821
33527SOL    HW2 2589  10.178   7.144   7.616  2.2575  0.2650 -0.8848
33528SOL     OW 2590   7.850   5.207   3.803 -0.1251  0.6492  0.3812
33528SOL    HW1 2591   7.830   5.126   3.755 -0.1475  1.5010 -1.1049
33528SOL    HW2 2592   7.934   5.236   3.767 -0.9907  2.2391 -0.4554
33529SOL     OW 2593   8.535   9.071   6.001  0.0154  0.2062  0.1757
33529SOL    HW1 2594   8.564   9.033   5.918 -0.2866  0.9891 -0.3005
33529SOL    HW2 2595   8.533   9.166   5.984 -1.6412  0.2657  0.5598
33530SOL     OW 2596  10.170   5.641   5.577 -0.2274 -0.0742 -0.5136
33530SOL    HW1 2597  10.140   5.697   5.506  1.1011  1.0144 -0.2645
33530SOL    HW2 2598  10.100   5.643   5.642  0.2325  2.2168 -0.0199
33531SOL     OW 2599   5.122   5.315   9.537 -0.0547  0.1324 -0.4424
33531SOL    HW1 2600   5.043   5.325   9.484  0.7066  1.3183 -1.4120
33531SOL    HW2 2601   5.162   5.402   9.538  1.2439 -0.4336  0.0279
33532SOL     OW 2602   0.439   0.930   7.182  0.6280 -0.0264 -0.2535
33532SOL    HW1 2603   0.375   0.963   7.245  1.8753  2.1648 -0.0149
33532SOL    HW2 2604   0.432   0.988   7.106  1.1535 -0.8149 -0.9366
33533SOL     OW 2605   7.410  10.190   6.844 -0.2805 -0.1945  0.1523
33533SOL    HW1 2606   7.428  10.180   6.751 -2.0079  0.7818 -0.3368
33533SOL    HW2 2607   7.389  10.102   6.875  1.5642 -0.7363 -0.0550
33534SOL     OW 2608   8.370   6.520  10.454 -0.4798 -0.2685 -0.3770
33534SOL    HW1 2609   8.286   6.549  10.490 -0.4418 -0.5292 -0.0782
33534SOL    HW2 2610   8.346   6.457  10.386 -0.5273 -0.3964 -0.2440
33535SOL     OW 2611   6.036   7.031   2.023 -0.3783 -0.2642  0.7601
33535SOL    HW1 2612   6.097   7.035   2.097  0.6842 -1.8003  0.0285
33535SOL    HW2 2613   5.950   7.046   2.062  0.3567  1.0827  1.9564
33536SOL     OW 2614   0.765   8.077   9.723 -0.4350  0.7095  0.1222
33536SOL    HW1 2615   0.714   8.157   9.738 -0.4293  0.8604 -0.6239
33536SOL    HW2 2616   0.735   8.045   9.638  1.9557  1.7831 -1.2288
33537SOL     OW 2617   4.806   4.430   2.315 -0.1291 -0.1224  0.1329
33537SOL    HW1 2618   4.727   4.479   2.292  0.0073  0.0416  0.0150
33537SOL    HW2 2619   4.870   4.455   2.249 -0.3414 -1.1839 -0.4999
33538SOL     OW 2620   6.140   7.392   6.979 -0.1915  0.2463 -0.5992
33538SOL    HW1 2621   6.157   7.349   6.896 -0.4883 -4.0799  1.2989
33538SOL    HW2 2622   6.058   7.354   7.010  0.0192  1.5012  1.7755
33539SOL     OW 2623  10.455   3.179  10.290  0.1582  0.4838  0.1223
33539SOL    HW1 2624  10.396   3.104  10.296  1.2497 -0.3945  0.2160
33539SOL    HW2 2625  10.465   3.209  10.380 -1.8940  2.0750 -0.1180
33540SOL     OW 2626   5.022   6.843   0.751 -0.0895  0.5969 -0.0976
33540SOL    HW1 2627   5.080   6.779   0.792 -0.0313 -0.4644 -1.7406
33540SOL    HW2 2628   5.041   6.925   0.796  1.5294 -0.0641  0.4883
33541SOL     OW 2629   0.581   5.019   4.624  0.2718 -0.4301  0.0967
33541SOL    HW1 2630   0.615   5.081   4.560 -1.1357 -0.9466 -1.2205
33541SOL    HW2 2631   0.581   4.935   4.577  0.0908 -0.9991  1.1007
33542SOL     OW 2632   4.819   0.568   3.024  0.0688  0.2672  0.1559
33542SOL    HW1 2633   4.794   0.487   2.979  1.0548 -0.5844  1.0820
33542SOL    HW2 2634   4.898   0.545   3.073  1.2267  2.1861 -0.7030
33543SOL     OW 2635  10.774  10.406   6.984 -0.0058  0.5334 -0.1875
33543SOL    HW1 2636  10.794  10.321   7.024 -2.8430 -0.2827 -0.3058
33543SOL    HW2 2637  10.802  10.470   7.049  0.2711 -0.5789  0.8313
33544SOL     OW 2638   0.087   6.764   8.535  0.2317  0.0461  0.3941
33544SOL    HW1 2639   0.165   6.738   8.584  1.7703  0.3400 -1.7443
33544SOL    HW2 2640   0.081   6.859   8.546 -1.0333 -0.1900  2.1444
33545SOL     OW 2641   0.670   9.987  10.336  0.1358 -0.3155  0.0571
33545SOL    HW1 2642   0.720   9.913  10.371 -0.8861 -0.7554  0.6344
33545SOL    HW2 2643   0.736  10.052  10.313  1.1357 -1.8067 -1.4667
33546SOL     OW 2644   4.904   3.636  10.105 -0.2307 -0.5541 -0.2444
33546SOL    HW1 2645   4.973   3.668  10.046 -0.2869  0.0484  0.0089
33546SOL    HW2 2646   4.930   3.668  10.191 -1.1651  0.2534 -0.2437
33547SOL     OW 2647   9.402   7.131   6.671  0.3678  0.2079  0.5489
33547SOL    HW1 2648   9.404   7.065   6.740 -0.5337  0.7960  1.1640
33547SOL    HW2 2649   9.336   7.099   6.609  1.2405 -0.3646 -0.1017
33548SOL     OW 2650   2.554   3.627   3.452  0.1980 -0.1388  0.5799
33548SOL    HW1 2651   2.630   3.685   3.446 -0.4633  0.6671 -0.2530
33548SOL    HW2 2652   2.577   3.564   3.520  1.4741  0.2930  0.5639
33549SOL     OW 2653   8.346   6.732   1.897  0.7624 -0.2469 -0.1572
33549SOL    HW1 2654   8.352   6.780   1.815  0.3606 -0.2708 -0.1988
33549SOL    HW2 2655   8.438   6.717   1.923  0.9850 -2.6556 -2.0061
33550SOL     OW 2656   8.284   7.388   1.973  0.0485  0.1559 -0.4456
33550SOL    HW1 2657   8.227   7.332   2.025 -0.7375  0.3428 -1.0934
33550SOL    HW2 2658   8.231   7.465   1.954 -0.1113 -0.4098 -2.5187
33551SOL     OW 2659   2.151   6.153   1.664  0.1292  0.0023 -0.8693
33551SOL    HW1 2660   2.215   6.082   1.661  1.7357  1.3651 -0.5387
33551SOL    HW2 2661   2.191   6.223   1.612 -1.3329  0.7417 -1.0490
33552SOL     OW 2662   5.737   0.394   0.699  0.1202 -0.0503 -0.2982
33552SOL    HW1 2663   5.746   0.339   0.622 -0.5695 -1.1652  0.3805
33552SOL    HW2 2664   5.825   0.425   0.718  0.3663 -0.1565 -1.2436
33553SOL     OW 2665   2.908   8.651   9.482 -0.0981  0.3937  0.1811
33553SOL    HW1 2666   2.842   8.720   9.489  0.9200  1.2972  1.2548
33553SOL    HW2 2667   2.918   8.617   9.571  0.8202  0.2235  0.0237
33554SOL     OW 2668   9.598   4.408   0.933 -0.4589 -0.1281  0.6091
33554SOL    HW1 2669   9.525   4.346   0.926 -0.5600  0.0217  0.3198
33554SOL    HW2 2670   9.670   4.366   0.885  0.1278 -0.9657  2.1346
33555SOL     OW 2671   4.418   3.545  10.009 -0.4167  0.0140  0.3075
33555SOL    HW1 2672   4.489   3.522   9.949 -0.1353  3.2888 -0.8413
33555SOL    HW2 2673   4.356   3.473  10.001  1.0224 -1.1270 -1.5893
33556SOL     OW 2674   5.970   4.716   5.409 -0.0784 -0.8197  0.0996
33556SOL    HW1 2675   5.995   4.623   5.414  0.8356 -0.5432  1.4243
33556SOL    HW2 2676   6.012   4.755   5.486 -1.0709  0.5548 -0.0301
33557SOL     OW 2677  10.373   0.524   7.713 -0.3639 -0.3978 -0.0754
33557SOL    HW1 2678  10.378   0.505   7.806  0.5363  1.0794  0.2004
33557SOL    HW2 2679  10.459   0.500   7.679  1.3183  3.9718  0.5094
33558SOL     OW 2680  10.749   1.760   0.744  0.1165 -0.5068 -0.1484
33558SOL    HW1 2681  10.816   1.693   0.729 -1.2856 -1.5111 -2.5568
33558SOL    HW2 2682  10.744   1.807   0.661 -0.9479  0.6896  0.5637
33559SOL     OW 2683   6.770   2.908  10.584  0.0249  0.2023  0.4532
33559SOL    HW1 2684   6.778   2.942  10.673 -0.4169 -0.4592  0.7544
33559SOL    HW2 2685   6.791   2.815  10.592  1.0263  0.3434 -0.3148
33560SOL     OW 2686   1.546   3.252   2.810  0.0120  0.0840  0.1179
33560SOL    HW1 2687   1.518   3.251   2.718  1.5813 -1.3860 -0.4164
33560SOL    HW2 2688   1.606   3.178   2.816  0.1319  0.3127  2.2952
33561SOL     OW 2689   4.801   7.601   7.342 -0.4315 -0.1507 -0.3410
33561SOL    HW1 2690   4.863   7.674   7.348  0.1373 -0.7719  2.9189
33561SOL    HW2 2691   4.726   7.637   7.296  1.3475  1.3071 -2.3180
33562SOL     OW 2692   5.593   3.405   0.582 -0.2388  0.4926  0.2969
33562SOL    HW1 2693   5.625   3.495   0.591  1.4591  0.0181 -0.5279
33562SOL    HW2 2694   5.552   3.386   0.666 -0.8206  2.1042  0.4163
33563SOL     OW 2695   8.452   4.956   0.478 -0.5167 -0.3634 -0.2066
33563SOL    HW1 2696   8.447   4.906   0.559  0.5222  0.3162  0.2981
33563SOL    HW2 2697   8.370   5.007   0.476  0.1018  0.7609  1.2154
33564SOL     OW 2698   3.346   9.381   2.973  0.4449 -0.0955 -0.1841
33564SOL    HW1 2699   3.284   9.410   3.040  0.3696  1.0516 -0.7211
33564SOL    HW2 2700   3.387   9.303   3.010 -1.5455 -1.0949  0.0515
33565SOL     OW 2701   0.407   8.574   2.424  0.0063  0.2712 -0.1413
33565SOL    HW1 2702   0.355   8.504   2.463  1.2286 -1.1255 -0.8987
33565SOL    HW2 2703   0.347   8.618   2.364 -0.9140  0.2037  0.7011
33566SOL     OW 2704   5.751   0.024   7.154  0.6078 -0.0975 -0.4952
33566SOL    HW1 2705   5.758  -0.059   7.201  0.8085 -0.1465 -0.6095
33566SOL    HW2 2706   5.743   0.090   7.222 -0.0956 -0.2621 -0.4118
33567SOL     OW 2707  10.775   5.071   5.716 -0.0955  0.3444  0.4954
33567SOL    HW1 2708  10.687   5.107   5.729 -0.4480 -0.2835 -0.0729
33567SOL    HW2 2709  10.784   5.065   5.621 -0.1221 -1.2184  0.5696
33568SOL     OW 2710   8.305   3.579   2.772  0.2656 -0.3940  0.3547
33568SOL    HW1 2711   8.350   3.585   2.687 -1.1888  0.0223 -0.4217
33568SOL    HW2 2712   8.274   3.668   2.788  1.6870 -0.1586  2.0175
33569SOL     OW 2713   5.716   8.604  10.762  0.0134 -0.1106 -0.6930
33569SOL    HW1 2714   5.698   8.560  10.845  0.4839  1.3340  0.2246
33569SOL    HW2 2715   5.771   8.543  10.713  0.1530 -0.7898  0.2777
33570SOL     OW 2716   0.491   7.804   2.554 -0.2366  0.2200 -0.6034
33570SOL    HW1 2717   0.420   7.772   2.498 -0.1342 -1.4717  0.2061
33570SOL    HW2 2718   0.569   7.758   2.523  0.1704  0.6656 -0.2625
33571SOL     OW 2719   9.807   2.491  10.995  0.1326 -0.3382 -0.1313
33571SOL    HW1 2720   9.735   2.500  11.058  0.2413 -0.4296  0.0049
33571SOL    HW2 2721   9.884   2.521  11.043 -0.1131  1.7406 -0.8976
33572SOL     OW 2722   9.426   2.148   6.745 -0.0273 -0.0848 -0.4889
33572SOL    HW1 2723   9.503   2.120   6.794 -0.2228  2.7458  1.6537
33572SOL    HW2 2724   9.459   2.212   6.682 -0.5822  1.2706  0.5544
33573SOL     OW 2725   7.331   2.925   3.027  0.2797 -0.2804 -0.3221
33573SOL    HW1 2726   7.273   2.870   2.974  1.7163  0.1389 -2.4881
33573SOL    HW2 2727   7.273   2.965   3.092 -1.7217 -0.4826 -1.8530
33574SOL     OW 2728   5.964  10.405   5.886  0.3202  0.2672 -0.0649
33574SOL    HW1 2729   6.040  10.460   5.866  0.2566  0.2491 -0.3573
33574SOL    HW2 2730   5.939  10.430   5.975  0.7134  0.2234  0.0592
33575SOL     OW 2731  10.344   0.893   9.930  0.1737  0.0835 -0.2408
33575SOL    HW1 2732  10.354   0.834   9.855 -0.5272  1.1684 -1.2319
33575SOL    HW2 2733  10.384   0.975   9.901 -3.6505  1.8670 -1.1333
33576SOL     OW 2734   4.142   3.917   7.637 -0.2422  0.3349  0.2879
33576SOL    HW1 2735   4.092   3.982   7.587 -0.3997  0.2462  0.3273
33576SOL    HW2 2736   4.230   3.920   7.599 -0.5347 -0.2205 -0.4674
33577SOL     OW 2737   4.714  10.847   4.763 -0.2584 -0.1161  0.4240
33577SOL    HW1 2738   4.766  10.926   4.776 -0.6613  0.3229 -0.5368
33577SOL    HW2 2739   4.625  10.879   4.747 -1.0353 -0.8672  2.7702
33578SOL     OW 2740  10.274   8.489   8.745  0.1182 -0.2698  0.1734
33578SOL    HW1 2741  10.194   8.473   8.696  0.3490 -0.7566 -0.0435
33578SOL    HW2 2742  10.253   8.461   8.834  0.0100 -0.2720  0.1479
33579SOL     OW 2743   5.476   0.980   0.131 -0.1036  0.2652 -0.3270
33579SOL    HW1 2744   5.499   0.888   0.144 -0.4319  0.0255 -1.3432
33579SOL    HW2 2745   5.559   1.023   0.112  0.3831  0.6079  2.1629
33580SOL     OW 2746   2.367   7.685   2.390 -0.2279 -0.2801 -0.1517
33580SOL    HW1 2747   2.342   7.755   2.330 -0.3500  1.1478  1.4948
33580SOL    HW2 2748   2.316   7.609   2.362 -0.3462  0.3601 -1.7577
33581SOL     OW 2749   0.635   4.367   2.680 -0.6788 -0.3169  0.0365
33581SOL    HW1 2750   0.650   4.456   2.648  0.2239  0.4430  2.3360
33581SOL    HW2 2751   0.574   4.378   2.753  0.5049 -1.3818  1.2295
33582SOL     OW 2752   8.868   4.766   3.163  0.3781 -0.0760 -0.5979
33582SOL    HW1 2753   8.881   4.857   3.138  0.1840 -0.0348 -0.5549
33582SOL    HW2 2754   8.893   4.715   3.086  1.8453 -0.0598 -0.1569
33583SOL     OW 2755   3.764   1.289   9.711 -0.3386  0.6460 -0.3979
33583SOL    HW1 2756   3.806   1.306   9.626  1.4145  1.3630  0.5749
33583SOL    HW2 2757   3.733   1.375   9.739 -0.8813  0.4126 -0.2674
33584SOL     OW 2758   2.286   3.338   5.620 -0.3941  0.3630 -0.0550
33584SOL    HW1 2759   2.310   3.356   5.529 -3.4104  0.1243 -1.0276
33584SOL    HW2 2760   2.216   3.401   5.639 -3.6084 -2.9385  0.1442
33585SOL     OW 2761   2.863  10.065   9.459  0.1046  0.4443  0.0020
33585SOL    HW1 2762   2.814   9.986   9.481 -0.9315  0.9658 -0.3359
33585SOL    HW2 2763   2.954  10.042   9.474 -0.2866 -0.3080  1.4647
33586SOL     OW 2764   9.214   4.505   2.456 -0.3043  0.5123  0.3110
33586SOL    HW1 2765   9.297   4.511   2.409 -0.8009 -1.8503 -1.0237
33586SOL    HW2 2766   9.170   4.588   2.436  0.6255  0.6894 -1.2283
33587SOL     OW 2767   0.174   2.193   1.607 -0.1556 -0.0215  0.1788
33587SOL    HW1 2768   0.105   2.255   1.585 -0.3682 -0.7553 -1.3158
33587SOL    HW2 2769   0.234   2.196   1.533 -0.6941 -2.3166 -0.4116
33588SOL     OW 2770  10.775  10.428   5.313  0.5108  0.1163  0.1739
33588SOL    HW1 2771  10.713  10.490   5.353 -0.5079 -0.4680 -0.4664
33588SOL    HW2 2772  10.822  10.390   5.388  1.1269  1.6080  0.5854
33589SOL     OW 2773   4.521   3.521   4.352  0.1988 -0.7363  0.1216
33589SOL    HW1 2774   4.429   3.537   4.375  0.4220 -0.3784  0.7731
33589SOL    HW2 2775   4.562   3.494   4.434  0.8768 -0.0319  0.0162
33590SOL     OW 2776   2.262   6.570   4.785  0.8392 -0.4216  0.1745
33590SOL    HW1 2777   2.356   6.552   4.790  1.1791  1.4774  1.9649
33590SOL    HW2 2778   2.230   6.551   4.873 -0.4440 -0.9291 -0.3866
33591SOL     OW 2779   9.508   8.363   1.119  0.2733 -0.0888  0.3350
33591SOL    HW1 2780   9.539   8.275   1.099 -0.2806  0.0424 -1.2607
33591SOL    HW2 2781   9.437   8.349   1.183 -1.9871 -1.1601 -2.2100
33592SOL     OW 2782   7.029   4.904   4.269  0.3955  0.2750 -0.1312
33592SOL    HW1 2783   6.978   4.957   4.208 -2.2730  0.3700  1.9607
33592SOL    HW2 2784   6.982   4.820   4.272 -0.3216  0.6554  2.5196
33593SOL     OW 2785   9.399  10.243   5.081 -0.2856  0.4464 -0.0144
33593SOL    HW1 2786   9.465  10.188   5.124 -1.6328 -0.6455  0.7084
33593SOL    HW2 2787   9.447  10.324   5.059  0.3731  1.4571  4.2303
33594SOL     OW 2788   3.458   4.046   9.366  0.3085 -0.2624  0.5078
33594SOL    HW1 2789   3.382   4.008   9.322  0.4636  0.9952 -0.9505
33594SOL    HW2 2790   3.524   3.977   9.364  0.4343 -0.1577 -1.6340
33595SOL     OW 2791   7.775   0.370   1.386 -0.5985  0.4106 -0.1376
33595SOL    HW1 2792   7.730   0.423   1.452 -0.5894  0.0569  0.1564
33595SOL    HW2 2793   7.866   0.398   1.391 -0.8835  1.5699 -1.1646
33596SOL     OW 2794   5.814   0.948   6.897 -0.2236 -0.1791 -0.6061
33596SOL    HW1 2795   5.826   0.975   6.806 -2.3147  1.2391 -0.5313
33596SOL    HW2 2796   5.722   0.924   6.904 -0.3200  0.5175  1.2835
33597SOL     OW 2797   3.678   5.831   8.191  1.0642 -0.2995 -0.0559
33597SOL    HW1 2798   3.615   5.896   8.222 -2.5016 -2.1582 -2.6678
33597SOL    HW2 2799   3.675   5.762   8.258  1.9249  0.4618  0.8013
33598SOL     OW 2800   1.592   3.330   4.212  0.4187  0.6297 -0.1022
33598SOL    HW1 2801   1.598   3.400   4.277  1.7153  1.2518 -0.8551
33598SOL    HW2 2802   1.664   3.347   4.151 -1.1652  0.5189 -2.1451
33599SOL     OW 2803   0.422   3.054   2.566 -0.0453 -0.1614  0.0527
33599SOL    HW1 2804   0.333   3.031   2.592 -0.2307 -2.0259 -1.9374
33599SOL    HW2 2805   0.414   3.083   2.475  1.5063 -1.7922 -0.6687
33600SOL     OW 2806   8.853  10.598   5.290  0.2503  0.6103  0.5682
33600SOL    HW1 2807   8.807  10.660   5.232 -0.4578  0.8687  1.3787
33600SOL    HW2 2808   8.806  10.605   5.373  0.4054 -0.7362  0.7897
33601SOL     OW 2809   8.657   5.267  10.303 -0.0656  0.2086 -0.0387
33601SOL    HW1 2810   8.603   5.313  10.367  2.1018  1.5487  0.9451
33601SOL    HW2 2811   8.661   5.177  10.335 -0.4335  0.4684  0.7625
33602SOL     OW 2812   9.130   3.259   1.767 -0.0327 -0.0078  0.3994
33602SOL    HW1 2813   9.203   3.243   1.828  1.0995  1.0386 -0.6183
33602SOL    HW2 2814   9.097   3.172   1.746  2.8141 -0.8145 -1.3146
33603SOL     OW 2815   3.066   0.666  10.042 -0.1849 -0.4535  0.1854
33603SOL    HW1 2816   3.020   0.630  10.117  2.4229  0.9727  2.6574
33603SOL    HW2 2817   3.142   0.711  10.079  1.6279 -0.2031 -3.3661
33604SOL     OW 2818   8.511   5.680  10.736 -0.6638  0.0886  0.3876
33604SOL    HW1 2819   8.574   5.680  10.809  0.5944  1.2040 -0.6461
33604SOL    HW2 2820   8.538   5.754  10.681 -1.6615 -0.6403 -1.1498
33605SOL     OW 2821   9.268   7.743   2.360 -0.0615 -0.5142 -0.1004
33605SOL    HW1 2822   9.345   7.717   2.409  0.5157 -0.1971 -0.8117
33605SOL    HW2 2823   9.257   7.836   2.379  1.0754  0.0032 -1.7037
33606SOL     OW 2824  10.714   4.530   9.442 -0.6177 -0.3834  0.4116
33606SOL    HW1 2825  10.788   4.470   9.429  0.1948  0.2987  1.7049
33606SOL    HW2 2826  10.659   4.516   9.365  2.2079  1.0734 -2.0929
33607SOL     OW 2827   8.097   6.691   1.981 -0.2754 -0.0385 -0.8517
33607SOL    HW1 2828   8.189   6.710   1.963 -0.2752  0.9040  0.0519
33607SOL    HW2 2829   8.049   6.741   1.915 -0.2206  2.1800  0.6632
33608SOL     OW 2830  10.977   7.149   8.559  0.2286  0.2088  0.2031
33608SOL    HW1 2831  10.887   7.116   8.557 -0.5075  2.1042 -1.2663
33608SOL    HW2 2832  11.004   7.149   8.467  0.6474  2.3167  0.2764
33609SOL     OW 2833   7.565   6.836   2.779  0.0398 -0.6478 -0.2241
33609SOL    HW1 2834   7.597   6.885   2.855  1.3504  0.1813 -1.2688
33609SOL    HW2 2835   7.597   6.886   2.704 -3.0585 -0.2411 -1.3728
33610SOL     OW 2836   5.739   7.312   3.205  0.0830 -0.2903 -0.2926
33610SOL    HW1 2837   5.817   7.362   3.181  0.0591  0.2701  0.7541
33610SOL    HW2 2838   5.691   7.369   3.265 -0.4718 -1.1518  0.1014
33611SOL     OW 2839  10.660   9.764   5.952 -1.2640 -0.3175 -0.2323
33611SOL    HW1 2840  10.615   9.680   5.948 -0.5494 -0.6972 -0.3584
33611SOL    HW2 2841  10.753   9.742   5.955 -1.1073  0.3652  2.3388
33612SOL     OW 2842   5.776   8.389   5.696  0.0142  0.3515 -0.4270
33612SOL    HW1 2843   5.735   8.323   5.639  0.6627 -0.8989  0.5029
33612SOL    HW2 2844   5.857   8.412   5.651 -0.1975  0.4842 -0.7411
33613SOL     OW 2845   8.786   9.433   8.910  0.3043  0.7001 -0.1016
33613SOL    HW1 2846   8.819   9.491   8.979  0.1885  3.1031 -1.9174
33613SOL    HW2 2847   8.785   9.488   8.832 -1.5837 -1.2790 -1.5796
33614SOL     OW 2848  10.691   4.693   2.786  0.1028  0.7924  0.4342
33614SOL    HW1 2849  10.779   4.722   2.762 -0.6983  3.2442  0.1766
33614SOL    HW2 2850  10.649   4.670   2.703  0.7214 -1.2590  0.6337
33615SOL     OW 2851   7.973   2.166   8.551 -0.7308 -0.2509 -0.2109
33615SOL    HW1 2852   7.884   2.200   8.562 -0.2298  1.3472 -0.6945
33615SOL    HW2 2853   8.022   2.205   8.624 -0.2387 -0.3690 -0.4775
33616SOL     OW 2854   3.090   8.592   0.933 -0.0793 -0.0866  0.2985
33616SOL    HW1 2855   3.037   8.622   0.859  0.8582  2.5580  0.6166
33616SOL    HW2 2856   3.045   8.512   0.962 -1.1113 -0.6190 -2.3748
33617SOL     OW 2857   2.797   0.762   1.478 -0.3376  0.1716  0.3206
33617SOL    HW1 2858   2.856   0.837   1.473 -0.5950  0.2941 -2.4428
33617SOL    HW2 2859   2.856   0.686   1.489  0.0333  0.5899  1.3543
33618SOL     OW 2860   0.258   5.883   0.262  0.4245  0.4934 -0.0907
33618SOL    HW1 2861   0.338   5.864   0.212  0.5884 -0.4223  0.5098
33618SOL    HW2 2862   0.283   5.954   0.321  0.8737  0.0490  0.2624
33619SOL     OW 2863   6.458   7.067   7.699  0.2314 -0.1746 -0.0022
33619SOL    HW1 2864   6.480   7.097   7.787  0.0609  0.7995 -0.2764
33619SOL    HW2 2865   6.540   7.034   7.663  0.3048 -0.5602  0.5106
33620SOL     OW 2866   0.037   9.153   5.095 -0.6548 -0.1506 -0.3233
33620SOL    HW1 2867   0.049   9.066   5.056  0.3019  0.2775 -1.0549
33620SOL    HW2 2868   0.026   9.211   5.020 -0.8179  0.4264  0.1411
33621SOL     OW 2869   2.184   8.461   4.758  0.3918  0.4449 -0.3292
33621SOL    HW1 2870   2.236   8.404   4.702 -0.0165 -0.2430 -0.0261
33621SOL    HW2 2871   2.166   8.538   4.705  3.6783  1.7955  0.3174
33622SOL     OW 2872   7.292   6.312   5.747 -0.2478 -0.3392 -0.4981
33622SOL    HW1 2873   7.338   6.364   5.813 -1.7379  1.4688 -0.8008
33622SOL    HW2 2874   7.349   6.237   5.732  0.6153 -0.3145  2.1075
33623SOL     OW 2875   6.041   8.342   1.064 -0.2876  0.0847  0.2366
33623SOL    HW1 2876   6.135   8.338   1.047 -0.1737  3.1922 -0.3325
33623SOL    HW2 2877   6.001   8.316   0.980  0.0068 -1.3127  0.5003
33624SOL     OW 2878   1.881  10.028   0.314 -1.0148  0.2672 -0.0669
33624SOL    HW1 2879   1.877  10.011   0.220  0.2190 -0.3728 -0.0285
33624SOL    HW2 2880   1.799   9.992   0.348 -1.2322  0.0173 -0.8248
33625SOL     OW 2881   7.060   3.188   2.876  0.1961 -0.1617  0.0505
33625SOL    HW1 2882   7.096   3.160   2.960 -0.5909  0.3201  0.5646
33625SOL    HW2 2883   6.977   3.229   2.899 -0.5251 -0.9390 -1.0643
33626SOL     OW 2884   6.519   1.791   6.233  0.0960 -0.1179 -0.3414
33626SOL    HW1 2885   6.432   1.762   6.206 -0.7911 -0.0773  2.2359
33626SOL    HW2 2886   6.508   1.883   6.257  0.4787 -0.4612  1.2950
33627SOL     OW 2887   1.633   3.800   1.555  0.6328  0.4382  0.1987
33627SOL    HW1 2888   1.647   3.893   1.538 -1.6981  0.4036 -2.7683
33627SOL    HW2 2889   1.681   3.755   1.485 -1.2095 -0.3119 -0.6707
33628SOL     OW 2890   8.992   9.211   3.512  0.2016  0.3924 -0.0835
33628SOL    HW1 2891   9.053   9.147   3.476 -0.2450  0.7538 -1.5743
33628SOL    HW2 2892   8.953   9.168   3.588  0.7150 -0.6734 -0.4093
33629SOL     OW 2893   4.820   6.829   6.540  0.8302  0.1705 -0.2824
33629SOL    HW1 2894   4.904   6.874   6.552  0.9362 -0.1817  0.3013
33629SOL    HW2 2895   4.800   6.840   6.446  0.7120  1.6886 -0.1185
33630SOL     OW 2896  10.092   8.737   7.287 -0.2676  0.7838 -0.8667
33630SOL    HW1 2897  10.182   8.712   7.269 -0.6997  0.6870 -3.2604
33630SOL    HW2 2898  10.098   8.813   7.345  1.2932  0.1800 -0.1988
33631SOL     OW 2899   2.929   8.503   4.758 -0.0761  0.5161  0.0113
33631SOL    HW1 2900   2.923   8.429   4.698  0.4690 -0.4190  1.0618
33631SOL    HW2 2901   3.021   8.530   4.753 -0.4599  1.7153 -1.0188
33632SOL     OW 2902   8.544   6.097   3.483  0.0318  0.2477 -0.3664
33632SOL    HW1 2903   8.485   6.158   3.528  0.3305  0.0936  0.2542
33632SOL    HW2 2904   8.488   6.052   3.420  0.0881  2.1559 -1.8640
33633SOL     OW 2905   9.583   1.695  10.536  0.0276 -0.1442  0.3354
33633SOL    HW1 2906   9.515   1.631  10.560 -0.5245  0.2877 -0.0553
33633SOL    HW2 2907   9.665   1.649  10.553 -0.3529 -1.2391 -0.6627
33634SOL     OW 2908   5.135   8.599  10.995 -0.5140  0.0938  0.2751
33634SOL    HW1 2909   5.103   8.688  10.982  2.7409  1.5279  1.0504
33634SOL    HW2 2910   5.139   8.589  11.091  1.4402  0.1171  0.2356
33635SOL     OW 2911  10.932   3.733   0.666 -0.1398 -0.2677 -0.1114
33635SOL    HW1 2912  10.841   3.703   0.668 -0.6743  1.2180 -0.6366
33635SOL    HW2 2913  10.937   3.787   0.587  0.1566  2.7293  1.8108
33636SOL     OW 2914   4.315   3.510   9.181  0.0471 -0.0454  0.4641
33636SOL    HW1 2915   4.278   3.446   9.120  0.0338  1.1030 -0.7803
33636SOL    HW2 2916   4.389   3.548   9.134  1.1118 -0.3207  1.8437
33637SOL     OW 2917   7.821   3.149   8.766 -0.1493 -0.2024 -0.2492
33637SOL    HW1 2918   7.906   3.188   8.782 -1.2863  1.6819  1.6262
33637SOL    HW2 2919   7.841   3.063   8.728  2.4897  1.5445 -3.3365
33638SOL     OW 2920   9.395   9.222   8.505 -0.5229 -0.5063 -0.2186
33638SOL    HW1 2921   9.483   9.260   8.503 -1.3677  1.5607 -2.4639
33638SOL    HW2 2922   9.392   9.165   8.428 -1.5275  0.4158 -0.8793
33639SOL     OW 2923   1.330   4.152   0.707  0.7190 -0.4072  0.0222
33639SOL    HW1 2924   1.246   4.163   0.663  0.3585  0.5073  0.8965
33639SOL    HW2 2925   1.337   4.057   0.723 -0.0179 -0.5180 -0.2969
33640SOL     OW 2926   3.795   0.664   1.769 -0.2239 -0.0847 -0.1111
33640SOL    HW1 2927   3.826   0.618   1.690 -2.4634  0.2273 -1.2487
33640SOL    HW2 2928   3.858   0.736   1.780  0.7041 -0.7145 -1.0115
33641SOL     OW 2929  10.578   8.687   1.615  0.6860 -0.1775  0.0606
33641SOL    HW1 2930  10.564   8.777   1.585 -3.0218 -0.1016  1.6038
33641SOL    HW2 2931  10.590   8.694   1.710 -0.2849 -1.3251  0.2925
33642SOL     OW 2932   2.786   5.076  10.065 -0.5608  0.3826 -0.4552
33642SOL    HW1 2933   2.828   5.107  10.145  0.3131  0.5664 -0.9683
33642SOL    HW2 2934   2.773   4.983  10.079 -1.8208  0.6738  0.4999
33643SOL     OW 2935   6.657   2.770   6.411  0.2216  0.5054 -0.0041
33643SOL    HW1 2936   6.565   2.789   6.397  0.4275  1.0278 -0.7256
33643SOL    HW2 2937   6.701   2.854   6.399  0.8132  0.2118  0.0616
33644SOL     OW 2938   7.765   4.342   7.869 -0.3127  0.3305 -0.2344
33644SOL    HW1 2939   7.817   4.338   7.789  0.4448 -1.1548  0.2940
33644SOL    HW2 2940   7.805   4.277   7.927  0.3434  2.6697  2.0972
33645SOL     OW 2941  10.403   9.285   2.470 -0.1036  0.2260  0.0214
33645SOL    HW1 2942  10.359   9.370   2.468 -2.1909 -0.7827  0.1003
33645SOL    HW2 2943  10.362   9.235   2.400  0.3940 -1.0251  0.5918
33646SOL     OW 2944   0.631   8.488   0.646 -0.4990 -0.1120  0.1150
33646SOL    HW1 2945   0.624   8.575   0.686 -0.9348 -0.4159  0.7326
33646SOL    HW2 2946   0.593   8.429   0.711  0.2438 -0.8320 -0.0756
33647SOL     OW 2947   5.994   3.156   1.134  0.2343 -0.1457  0.1647
33647SOL    HW1 2948   5.959   3.194   1.215  0.0859  1.1890 -0.4934
33647SOL    HW2 2949   6.088   3.153   1.149 -0.0062 -3.4377  1.8117
33648SOL     OW 2950   2.608   5.357  10.021 -0.8503 -0.0028  0.0930
33648SOL    HW1 2951   2.558   5.276  10.018  0.0877 -0.6222  0.8896
33648SOL    HW2 2952   2.674   5.347   9.952  0.8307 -0.9907  1.7759
33649SOL     OW 2953   9.854   9.842   0.865  0.3094 -0.4103  0.9300
33649SOL    HW1 2954   9.895   9.830   0.779  0.5017 -1.1383  1.1122
33649SOL    HW2 2955   9.874   9.932   0.889  0.9907 -0.4634  0.5907
33650SOL     OW 2956   4.878   9.042   6.830 -0.1863 -0.5086 -0.2368
33650SOL    HW1 2957   4.864   8.949   6.850  0.6811 -0.6761 -0.3535
33650SOL    HW2 2958   4.863   9.049   6.735 -0.8086 -0.4152 -0.1330
33651SOL     OW 2959   6.627   0.131   5.829  0.4182  0.5279  0.1547
33651SOL    HW1 2960   6.673   0.101   5.750 -0.3037  0.1986 -0.1543
33651SOL    HW2 2961   6.550   0.075   5.834  0.0273  1.0978  0.6400
33652SOL     OW 2962   3.925   5.381   7.040  0.4155  0.2149 -0.3425
33652SOL    HW1 2963   3.955   5.471   7.051  0.9427 -0.1760  1.9817
33652SOL    HW2 2964   3.854   5.387   6.976  2.4524  1.7844 -2.6375
33653SOL     OW 2965   8.922  10.004   2.706  0.4287 -0.1101  0.3751
33653SOL    HW1 2966   8.944  10.039   2.792  1.1322  0.7654 -0.1481
33653SOL    HW2 2967   8.989  10.038   2.648 -0.0953 -0.6056 -0.5486
33654SOL     OW 2968   2.449   8.003  10.818 -0.1149 -0.1957 -0.7515
33654SOL    HW1 2969   2.415   7.985  10.906  1.2516 -0.4261 -0.2465
33654SOL    HW2 2970   2.542   8.022  10.832  0.3196 -1.0973 -2.2414
33655SOL     OW 2971   9.617   7.220   6.447  0.0856  0.4648  0.0934
33655SOL    HW1 2972   9.680   7.150   6.458 -0.4524 -0.0704 -0.1575
33655SOL    HW2 2973   9.551   7.204   6.515 -1.6907 -1.1395 -1.8686
33656SOL     OW 2974   8.452   6.505  11.030 -0.2812 -0.1731  0.2555
33656SOL    HW1 2975   8.461   6.562  10.953 -0.2214  0.8374  0.9807
33656SOL    HW2 2976   8.527   6.445  11.023  0.4139  0.6727  0.1360
33657SOL     OW 2977  10.875   0.876   0.717 -0.0806  0.4630 -0.0903
33657SOL    HW1 2978  10.961   0.905   0.687 -0.6873  0.8814 -1.5286
33657SOL    HW2 2979  10.818   0.888   0.641 -1.1852 -0.8415  0.4898
33658SOL     OW 2980   0.860   9.641   2.748 -0.2127 -0.4415  0.2075
33658SOL    HW1 2981   0.921   9.572   2.723 -0.1470 -0.2651 -0.1263
33658SOL    HW2 2982   0.780   9.595   2.773  0.1412 -0.6936  0.9214
33659SOL     OW 2983   2.436   3.269   8.577 -0.1192 -0.2818 -0.2961
33659SOL    HW1 2984   2.346   3.261   8.609 -0.2080  0.8029 -0.2361
33659SOL    HW2 2985   2.426   3.286   8.483  0.0010  0.2085 -0.2235
33660SOL     OW 2986   2.299   6.479   1.953 -0.4265  0.1913 -0.2253
33660SOL    HW1 2987   2.273   6.387   1.947  0.1733  0.0229 -0.3581
33660SOL    HW2 2988   2.365   6.490   1.884 -0.6670  0.7833 -0.3671
33661SOL     OW 2989   9.610   6.032   8.932  0.3542  0.8167 -0.1463
33661SOL    HW1 2990   9.528   6.021   8.883 -0.7847  1.1842  1.5605
33661SOL    HW2 2991   9.639   5.943   8.951  0.7092  0.6731 -1.2725
33662SOL     OW 2992   1.911   3.456   2.679  0.3758  0.7610  0.2971
33662SOL    HW1 2993   1.976   3.493   2.739  0.4079 -0.8805  1.3373
33662SOL    HW2 2994   1.947   3.370   2.656 -1.0560  0.1431  0.2866
33663SOL     OW 2995   9.711   5.386   3.934  0.8616 -0.2321  0.1233
33663SOL    HW1 2996   9.772   5.460   3.942  1.0970 -0.5546  1.5669
33663SOL    HW2 2997   9.645   5.403   4.002 -1.2873  0.6351 -2.0211
33664SOL     OW 2998   9.463   8.655   0.380 -0.1976  0.2790  0.2552
33664SOL    HW1 2999   9.397   8.586   0.378  1.8556 -1.8779  2.1772
33664SOL    HW2 3000   9.520   8.636   0.306  0.8439 -0.6558  1.2655
33665SOL     OW 3001   6.579   4.483   2.735 -0.3454  0.3914 -0.8003
33665SOL    HW1 3002   6.643   4.511   2.801  0.4247  0.0861 -1.3977
33665SOL    HW2 3003   6.612   4.518   2.653 -0.2893 -0.7725 -1.2982
33666SOL     OW 3004   6.928   3.956   9.316 -0.3331  0.0855 -0.0003
33666SOL    HW1 3005   6.905   3.866   9.291 -0.5045 -0.6609  2.5553
33666SOL    HW2 3006   7.023   3.953   9.329 -0.0773  0.7571 -1.5990
33667SOL     OW 3007   8.599  10.075   2.290 -0.3473  0.2157  0.2013
33667SOL    HW1 3008   8.559  10.066   2.376 -1.6042  0.4941 -0.3404
33667SOL    HW2 3009   8.595   9.987   2.252  0.5549  0.0078  0.5568
33668SOL     OW 3010   0.422   7.087   6.036 -0.1358  0.3809 -0.3427
33668SOL    HW1 3011   0.383   7.138   5.965  0.1336  0.9742 -0.0752
33668SOL    HW2 3012   0.350   7.032   6.068 -0.3705  0.4263 -0.7907
33669SOL     OW 3013   7.735  10.772   9.756  0.7017 -0.5802 -0.1716
33669SOL    HW1 3014   7.803  10.743   9.694 -0.1902 -0.6732 -1.1256
33669SOL    HW2 3015   7.757  10.863   9.775  0.5805 -0.3303 -1.1977
33670SOL     OW 3016   1.250   1.731   2.832  0.0345 -0.4721  0.0530
33670SOL    HW1 3017   1.276   1.720   2.740 -0.5678 -0.0055 -0.1829
33670SOL    HW2 3018   1.175   1.790   2.828 -0.4721 -1.0536  0.7849
33671SOL     OW 3019  10.235   8.463   2.819  0.0865  0.1077  0.4575
33671SOL    HW1 3020  10.255   8.374   2.846  2.0036  0.2288 -0.4456
33671SOL    HW2 3021  10.143   8.475   2.844  0.2023 -1.6007  1.9054
33672SOL     OW 3022   9.586  10.356   5.704 -0.4420  0.3484 -0.0168
33672SOL    HW1 3023   9.578  10.284   5.767 -1.0091  0.2848 -0.1616
33672SOL    HW2 3024   9.504  10.403   5.711 -0.9692 -0.2964 -1.4930
33673SOL     OW 3025   6.130   1.532   3.864 -0.0524  0.0350 -0.1591
33673SOL    HW1 3026   6.147   1.612   3.915 -1.8454  0.3040  0.0732
33673SOL    HW2 3027   6.082   1.562   3.787  1.6263 -0.5212 -1.4976
33674SOL     OW 3028   0.170   9.685   0.314  0.0897  0.3438 -0.6012
33674SOL    HW1 3029   0.110   9.665   0.385 -1.9738 -0.1042 -2.3507
33674SOL    HW2 3030   0.213   9.766   0.341 -1.5095  0.8366  0.6471
33675SOL     OW 3031  10.951   1.798   2.009 -0.1896  0.1889 -0.1769
33675SOL    HW1 3032  10.901   1.718   2.028 -0.6101  0.5251  0.1313
33675SOL    HW2 3033  11.020   1.768   1.949 -0.0454 -0.4995  0.3112
33676SOL     OW 3034   0.759   6.103  10.298 -0.1318 -0.6284 -0.7477
33676SOL    HW1 3035   0.780   6.010  10.293 -0.0197 -0.7434  1.1026
33676SOL    HW2 3036   0.667   6.108  10.274 -0.5883 -1.4598  0.7132
33677SOL     OW 3037   6.812   9.922  10.548  0.4076 -0.4866 -0.0192
33677SOL    HW1 3038   6.797  10.009  10.584 -2.6540 -1.1598  0.5749
33677SOL    HW2 3039   6.806   9.934  10.453  1.5139  0.1379 -0.0342
33678SOL     OW 3040   9.109   6.121   5.730  0.6011 -0.0968 -0.1099
33678SOL    HW1 3041   9.139   6.202   5.771  2.9690 -2.4377  3.2759
33678SOL    HW2 3042   9.076   6.069   5.802 -2.2424 -1.7205 -2.3855
33679SOL     OW 3043   0.449   6.546   9.244 -0.1229  0.1772 -0.2298
33679SOL    HW1 3044   0.539   6.560   9.273  0.5064 -1.5600 -1.1887
33679SOL    HW2 3045   0.408   6.495   9.314 -1.1214  2.7882  1.2557
33680SOL     OW 3046   7.031   1.028   2.967  0.4740 -0.1795  0.0218
33680SOL    HW1 3047   7.005   1.120   2.964 -1.8236 -0.7928 -0.9681
33680SOL    HW2 3048   7.014   1.002   3.058 -0.7464 -0.0866 -0.1605
33681SOL     OW 3049   1.093   2.292   7.315  0.2891  0.3941 -0.1029
33681SOL    HW1 3050   1.032   2.302   7.242  0.0392  1.3528  0.2223
33681SOL    HW2 3051   1.117   2.199   7.314 -0.4189  0.2091 -0.8371
33682SOL     OW 3052   4.048   9.366   1.953 -0.3841 -0.1000 -0.6906
33682SOL    HW1 3053   4.078   9.278   1.978  0.2374  0.3647  0.2439
33682SOL    HW2 3054   4.083   9.379   1.865  3.0947  0.7665  0.6411
33683SOL     OW 3055   1.144   5.027   0.528 -0.4854 -0.3164  0.1629
33683SOL    HW1 3056   1.203   5.001   0.599 -1.3632  1.8285  1.7889
33683SOL    HW2 3057   1.068   4.970   0.538  0.4473 -1.7780 -0.7361
33684SOL     OW 3058   2.942   2.708   9.787  0.3500 -0.4526 -0.2589
33684SOL    HW1 3059   2.959   2.669   9.701  1.7944  1.8795 -1.1320
33684SOL    HW2 3060   2.866   2.764   9.773  0.8894  0.3203 -0.2096
33685SOL     OW 3061   1.926   4.767   8.200  0.3208  0.3462 -0.0410
33685SOL    HW1 3062   1.924   4.675   8.174 -3.0899  0.1264  0.5567
33685SOL    HW2 3063   1.889   4.768   8.288 -1.1221  2.4019 -0.6009
33686SOL     OW 3064   0.804   7.594   5.929  0.1476  0.2104  0.1153
33686SOL    HW1 3065   0.867   7.665   5.921  0.3161  0.0068 -0.4171
33686SOL    HW2 3066   0.723   7.636   5.959  1.0346  0.2268  2.7645
33687SOL     OW 3067   7.352   9.443   8.243 -0.5122 -0.0501  0.0003
33687SOL    HW1 3068   7.314   9.465   8.158  1.9174 -0.0025 -1.1332
33687SOL    HW2 3069   7.425   9.503   8.254  0.5746 -1.5037  1.0927
33688SOL     OW 3070   7.167   2.590   5.395 -0.2406  0.2278  0.7486
33688SOL    HW1 3071   7.139   2.521   5.336  0.8678  0.5957 -0.2424
33688SOL    HW2 3072   7.093   2.651   5.398 -1.6740 -1.4693  2.4866
33689SOL     OW 3073   4.200   9.300  10.680  0.1811  0.4297 -0.1132
33689SOL    HW1 3074   4.126   9.274  10.735 -0.4998 -0.7567 -1.4839
33689SOL    HW2 3075   4.169   9.377  10.633  0.2583  0.6394  0.1807
33690SOL     OW 3076   9.035   4.801   7.727 -0.2176  0.2669  0.4841
33690SOL    HW1 3077   9.086   4.874   7.763  0.2957  0.1678 -0.0259
33690SOL    HW2 3078   9.094   4.726   7.732 -0.4302  0.0787  0.2025
33691SOL     OW 3079   2.639   8.413   6.990  0.0444 -0.1953  0.1460
33691SOL    HW1 3080   2.626   8.369   6.906  2.4872 -0.6414 -0.0938
33691SOL    HW2 3081   2.647   8.506   6.967  1.2146 -0.3644 -0.2518
33692SOL     OW 3082   5.878  10.155   6.810  0.8309 -0.3505 -0.0339
33692SOL    HW1 3083   5.887  10.186   6.900 -0.3009  0.7042 -0.2586
33692SOL    HW2 3084   5.957  10.186   6.766  0.7188  0.3661  0.2638
33693SOL     OW 3085  10.249   8.215   1.932  0.7175 -0.0796  0.5151
33693SOL    HW1 3086  10.308   8.282   1.897  0.4507  0.6043  1.3588
33693SOL    HW2 3087  10.235   8.155   1.858  2.0241  0.0445  0.1361
33694SOL     OW 3088   7.912   1.112  10.301 -0.0310 -0.5135  0.1848
33694SOL    HW1 3089   7.859   1.090  10.224 -1.1845 -2.6907  1.4681
33694SOL    HW2 3090   7.855   1.170  10.353  0.5491  0.5502 -0.3429
33695SOL     OW 3091   9.670  10.291   4.005 -0.5646  0.5688  0.2614
33695SOL    HW1 3092   9.717  10.249   4.076 -0.4271 -0.9959 -0.6973
33695SOL    HW2 3093   9.714  10.375   3.993  0.9520 -0.1687  0.4537
33696SOL     OW 3094   0.923   0.572   9.613 -0.2862 -0.0471  0.1657
33696SOL    HW1 3095   1.000   0.591   9.559 -0.8727 -0.5315 -0.8592
33696SOL    HW2 3096   0.896   0.657   9.647  0.1679  0.2494 -0.2091
33697SOL     OW 3097  10.103   9.836   9.441 -0.3914 -0.8454 -0.0061
33697SOL    HW1 3098  10.029   9.796   9.486  0.5078 -1.9649  0.5281
33697SOL    HW2 3099  10.071   9.853   9.353 -0.8854 -2.5111 -0.1746
33698SOL     OW 3100   3.313  10.847   8.695  0.7393 -0.0578 -0.1746
33698SOL    HW1 3101   3.247  10.811   8.636 -1.0797 -1.2669  2.4399
33698SOL    HW2 3102   3.332  10.934   8.659 -1.4711 -0.0915 -1.6322
33699SOL     OW 3103   7.906   5.373   8.623  0.0085 -0.8387 -0.2347
33699SOL    HW1 3104   7.887   5.425   8.545  0.8568  0.5065  0.4256
33699SOL    HW2 3105   7.993   5.336   8.607 -0.3313 -1.5773 -0.4336
33700SOL     OW 3106   0.586   4.677   2.029  0.1612 -0.2916 -0.1048
33700SOL    HW1 3107   0.499   4.716   2.040  0.1776 -0.2026 -0.2875
33700SOL    HW2 3108   0.579   4.591   2.072  0.1860 -0.0042  0.4796
33701SOL     OW 3109   3.594   9.374   6.345 -0.2526 -0.1651  0.0417
33701SOL    HW1 3110   3.576   9.459   6.305 -0.2097 -0.5889 -0.8870
33701SOL    HW2 3111   3.689   9.365   6.343 -0.2313 -0.0887  0.4659
33702SOL     OW 3112   7.230   1.935   6.858  0.0031 -0.3512  0.2228
33702SOL    HW1 3113   7.283   1.872   6.906 -1.4441 -1.2853  0.6365
33702SOL    HW2 3114   7.169   1.970   6.923  1.0574  1.8552  0.1197
33703SOL     OW 3115   3.173   9.766   3.873 -0.0767 -0.0569 -0.1380
33703SOL    HW1 3116   3.226   9.687   3.880 -0.6298 -0.6148 -1.8123
33703SOL    HW2 3117   3.139   9.765   3.784  0.6671  2.5869 -0.5418
33704SOL     OW 3118   8.091   3.319   5.923  0.3712  0.2478  0.1102
33704SOL    HW1 3119   8.077   3.349   5.833 -0.8109  0.0641  0.2200
33704SOL    HW2 3120   8.077   3.397   5.977  3.3770  0.9522  0.0410
33705SOL     OW 3121   4.217   6.455   7.005  0.6061 -0.0857  0.4583
33705SOL    HW1 3122   4.167   6.534   6.986  1.8040  0.1017 -2.4569
33705SOL    HW2 3123   4.269   6.478   7.083 -1.0346  0.9687  1.3137
33706SOL     OW 3124   9.977   8.707   5.450  0.4151  0.5880  0.7108
33706SOL    HW1 3125   9.893   8.673   5.481  0.4903  0.4443  0.7596
33706SOL    HW2 3126  10.010   8.758   5.524 -1.0042  3.1974 -0.2982
33707SOL     OW 3127   6.994  10.861   1.494  0.3573  0.3833 -0.3100
33707SOL    HW1 3128   7.008  10.871   1.588  1.6885 -0.9649 -0.3187
33707SOL    HW2 3129   6.911  10.812   1.487 -0.5904  1.8732  0.0627
33708SOL     OW 3130   0.438   4.826   7.145  0.3681 -0.3493  0.2626
33708SOL    HW1 3131   0.433   4.808   7.052  0.6996  0.9824 -0.0430
33708SOL    HW2 3132   0.359   4.788   7.182  0.8671 -2.0519 -0.3266
33709SOL     OW 3133   0.559   5.965   5.509 -0.3930 -0.2139  0.0836
33709SOL    HW1 3134   0.540   5.923   5.592 -0.9437 -0.4588 -0.1568
33709SOL    HW2 3135   0.535   5.899   5.443 -1.2577  0.4568 -0.2946
33710SOL     OW 3136   5.917   9.280  10.793 -0.0787 -0.1299 -0.4497
33710SOL    HW1 3137   5.999   9.239  10.764 -0.5799 -1.2092 -0.3573
33710SOL    HW2 3138   5.942   9.332  10.869  0.5783 -0.1791 -0.6237
33711SOL     OW 3139   8.060   1.304   9.055  0.2335  0.1481  0.6157
33711SOL    HW1 3140   8.134   1.362   9.069 -0.7276  1.6136 -0.0783
33711SOL    HW2 3141   8.044   1.263   9.140 -0.9145  3.2298  2.0346
33712SOL     OW 3142   3.322   3.849   0.960  1.1541 -0.1619 -0.3056
33712SOL    HW1 3143   3.324   3.859   1.055  0.9510 -1.4126 -0.1503
33712SOL    HW2 3144   3.272   3.925   0.929 -0.0712 -0.4992  0.7303
33713SOL     OW 3145   9.383  10.562   6.588  0.1002  0.7753 -0.5747
33713SOL    HW1 3146   9.423  10.543   6.503  1.4323  0.7384  0.0353
33713SOL    HW2 3147   9.355  10.653   6.581  0.5417  0.8897 -0.9411
33714SOL     OW 3148   4.984   8.438   2.482 -0.5515  0.1509 -0.1626
33714SOL    HW1 3149   4.921   8.370   2.457 -1.4549  1.3139 -1.1134
33714SOL    HW2 3150   4.934   8.496   2.540  0.0127  0.4128  0.0619
33715SOL     OW 3151   2.658   1.560   6.089  0.3541  0.2774 -0.1601
33715SOL    HW1 3152   2.724   1.506   6.046 -0.0402 -1.9706  1.8578
33715SOL    HW2 3153   2.576   1.536   6.046  0.4375  0.8186 -0.6318
33716SOL     OW 3154   1.684   7.526   7.349  0.1632  0.4731 -0.1888
33716SOL    HW1 3155   1.746   7.453   7.339  0.6065  0.7227  0.6108
33716SOL    HW2 3156   1.738   7.599   7.379 -0.4786  0.7758  0.2477
33717SOL     OW 3157   0.522   0.903   5.699 -0.3480  0.0671 -0.4184
33717SOL    HW1 3158   0.610   0.930   5.675 -0.4510  0.3268 -0.5114
33717SOL    HW2 3159   0.501   0.831   5.639 -0.0780 -0.2105 -0.1824
33718SOL     OW 3160  10.712   3.291   6.965 -0.2554 -0.0593  0.0309
33718SOL    HW1 3161  10.762   3.255   6.891 -1.0074 -0.0746 -0.4855
33718SOL    HW2 3162  10.651   3.352   6.924 -2.1616 -1.6384  0.3881
33719SOL     OW 3163   4.236   8.686   1.917  0.3077  0.0760 -0.3596
33719SOL    HW1 3164   4.325   8.710   1.894  0.1622 -1.0979 -2.3961
33719SOL    HW2 3165   4.182   8.758   1.886  0.4357  0.2234 -0.2407
33720SOL     OW 3166   0.275   0.791   8.612  0.1479 -0.1547  0.0403
33720SOL    HW1 3167   0.191   0.836   8.623  1.4635  2.2125  1.0982
33720SOL    HW2 3168   0.308   0.779   8.701  0.8572 -1.3045 -0.3501
33721SOL     OW 3169   6.224   6.495   5.291  0.5355  0.2139  0.3962
33721SOL    HW1 3170   6.201   6.440   5.216  0.5716 -0.6311  0.9867
33721SOL    HW2 3171   6.141   6.538   5.315  0.9250  2.0882 -1.3494
33722SOL     OW 3172   1.705   0.627   1.724  0.0790  0.0151 -0.1032
33722SOL    HW1 3173   1.641   0.698   1.719  0.3332  0.2487 -0.0714
33722SOL    HW2 3174   1.692   0.589   1.811  1.9800  1.9882  1.1572
33723SOL     OW 3175   7.841  10.449   5.670 -0.4574  0.0727 -0.5065
33723SOL    HW1 3176   7.860  10.372   5.723 -1.5826  0.9970  1.3718
33723SOL    HW2 3177   7.897  10.517   5.706 -1.8479  0.9333  0.1325
33724SOL     OW 3178   5.963  10.913   2.332  0.5047  0.3159  0.0799
33724SOL    HW1 3179   6.025  10.850   2.368  1.1794  1.0880  0.3129
33724SOL    HW2 3180   5.879  10.867   2.331  0.4856  0.1828  2.4210
33725SOL     OW 3181   3.086   8.527   5.985 -0.3048 -0.0288 -0.0642
33725SOL    HW1 3182   3.030   8.479   6.046  0.9051 -0.5956  0.6654
33725SOL    HW2 3183   3.048   8.614   5.980 -0.8474 -0.1967  0.9507
33726SOL     OW 3184   3.274   1.002   4.801 -0.4847 -0.4918  0.5974
33726SOL    HW1 3185   3.352   0.962   4.763 -1.1267 -1.4291  0.2405
33726SOL    HW2 3186   3.253   0.947   4.876 -0.3181  0.2577  1.2053
33727SOL     OW 3187   7.870   0.608   6.788 -0.4387  0.4150 -0.2186
33727SOL    HW1 3188   7.917   0.665   6.727 -1.4270  0.4512 -0.9654
33727SOL    HW2 3189   7.895   0.519   6.763 -1.0649  0.4160 -0.8890
33728SOL     OW 3190   0.850   0.091   5.166  0.9985  0.1940  0.0957
33728SOL    HW1 3191   0.760   0.063   5.151  0.8420 -0.3984  1.8469
33728SOL    HW2 3192   0.899   0.010   5.177  0.8513  0.3967  3.5544
33729SOL     OW 3193   5.645   4.919   4.309  0.4241  0.2257 -0.0744
33729SOL    HW1 3194   5.574   4.865   4.343  1.0408 -0.4409  0.1862
33729SOL    HW2 3195   5.677   4.871   4.232 -0.2706  1.1957 -1.0097
33730SOL     OW 3196   7.982   8.563   9.918 -0.3349 -0.4539 -0.6439
33730SOL    HW1 3197   8.055   8.513   9.956  0.6719  1.2547 -0.2087
33730SOL    HW2 3198   7.912   8.555   9.983  0.0750 -0.6947 -0.2211
33731SOL     OW 3199   8.991   2.268   3.310  0.0283 -0.3192 -0.5806
33731SOL    HW1 3200   9.064   2.330   3.306  0.8114 -1.2066 -0.4368
33731SOL    HW2 3201   9.012   2.203   3.243  0.0495 -1.2945  0.3465
33732SOL     OW 3202   8.405   2.151   0.903 -0.1525 -0.4594  0.1144
33732SOL    HW1 3203   8.452   2.118   0.826  0.2322  0.2653  0.0295
33732SOL    HW2 3204   8.415   2.082   0.968 -1.0669 -1.3938 -0.7003
33733SOL     OW 3205   0.475   1.599   5.478  0.4590 -0.0156 -0.2163
33733SOL    HW1 3206   0.389   1.640   5.489  0.7413  0.9852 -1.5448
33733SOL    HW2 3207   0.458   1.505   5.489 -0.3779  0.3144  1.8395
33734SOL     OW 3208   1.173   3.283   6.503 -0.2026 -0.2650 -0.5456
33734SOL    HW1 3209   1.161   3.211   6.565 -1.5014 -0.3121 -0.8237
33734SOL    HW2 3210   1.211   3.354   6.555  0.8160 -1.0362 -0.2018
33735SOL     OW 3211   4.356   4.394   1.267  0.3564  0.2406  0.0435
33735SOL    HW1 3212   4.403   4.467   1.307  1.6287  0.7558 -2.2633
33735SOL    HW2 3213   4.391   4.387   1.179 -1.9898 -1.1502 -0.8821
33736SOL     OW 3214   9.362   2.325   5.296 -0.0783 -0.6968 -0.1234
33736SOL    HW1 3215   9.328   2.406   5.259 -0.0355 -1.3915 -1.8035
33736SOL    HW2 3216   9.438   2.352   5.348 -0.2075  0.3565 -0.4653
33737SOL     OW 3217   6.806   2.700  10.358 -0.4491  0.3891  0.3661
33737SOL    HW1 3218   6.735   2.765  10.355 -0.9748 -0.1939 -0.0363
33737SOL    HW2 3219   6.876   2.739  10.306 -1.2372  0.0945 -0.9614
33738SOL     OW 3220   5.019   8.698   2.030  0.2435  0.6609 -0.0153
33738SOL    HW1 3221   4.966   8.763   1.986 -3.9963 -0.4276  2.8857
33738SOL    HW2 3222   5.070   8.748   2.094 -0.7495  1.4379  0.1960
33739SOL     OW 3223  10.947   1.919   2.259 -0.4624 -0.0782 -0.3146
33739SOL    HW1 3224  10.990   2.003   2.239 -0.9304  0.3673  0.4752
33739SOL    HW2 3225  10.949   1.871   2.177  0.6064  0.3573 -0.5610
33740SOL     OW 3226   5.436   2.224   5.605 -0.0078  0.0625 -0.5372
33740SOL    HW1 3227   5.393   2.178   5.677  1.6173  0.8501  1.0207
33740SOL    HW2 3228   5.424   2.167   5.529 -0.1106 -1.7400  0.7729
33741SOL     OW 3229   9.709   0.711  10.639  0.2076 -0.0593 -0.1188
33741SOL    HW1 3230   9.703   0.764  10.719  0.1884  0.5882 -0.5421
33741SOL    HW2 3231   9.720   0.621  10.671 -0.2564  0.1320  0.6152
33742SOL     OW 3232   0.676   3.739   9.169  0.2612 -0.0621  0.3279
33742SOL    HW1 3233   0.661   3.734   9.264 -1.7192 -0.9576  0.0169
33742SOL    HW2 3234   0.713   3.654   9.146  0.4739  0.0493  0.2627
33743SOL     OW 3235   5.776   1.289   8.091 -0.0511 -0.6227 -0.0860
33743SOL    HW1 3236   5.738   1.357   8.035 -1.6439  1.2094  2.9845
33743SOL    HW2 3237   5.861   1.324   8.117 -0.2148 -0.5029  0.2908
33744SOL     OW 3238   8.128   9.910   7.267  0.0933 -0.5799 -0.0897
33744SOL    HW1 3239   8.104   9.847   7.336 -0.8202 -0.8646 -0.6535
33744SOL    HW2 3240   8.223   9.902   7.260  0.2292 -0.4329  1.2407
33745SOL     OW 3241   5.177   9.276   4.981  0.4521 -0.7071 -0.2412
33745SOL    HW1 3242   5.208   9.188   5.003  0.5233 -1.1244 -1.9068
33745SOL    HW2 3243   5.091   9.282   5.023  0.9238 -1.1289  0.8337
33746SOL     OW 3244  10.702   9.099   4.553 -0.2702 -0.1664  0.5438
33746SOL    HW1 3245  10.637   9.169   4.550 -0.0752  0.1804  2.6593
33746SOL    HW2 3246  10.659   9.029   4.602  1.2924  0.6096  3.2761
33747SOL     OW 3247  10.175   1.177   4.400  0.3167 -0.3226  0.0102
33747SOL    HW1 3248  10.135   1.165   4.486  1.6019  2.6373  1.1327
33747SOL    HW2 3249  10.104   1.212   4.346  0.1513  0.2201  0.5737
33748SOL     OW 3250   3.016   7.729   8.937 -0.3223  0.1603 -0.4877
33748SOL    HW1 3251   2.932   7.746   8.980 -0.9534  1.0682 -1.9875
33748SOL    HW2 3252   3.035   7.810   8.889  1.5822  0.0830  0.0664
33749SOL     OW 3253   8.902   1.897   6.985 -0.0979 -0.1204  0.8468
33749SOL    HW1 3254   8.953   1.825   6.948  1.1243  1.2636 -0.2901
33749SOL    HW2 3255   8.812   1.866   6.984  0.4846 -1.8882  1.0490
33750SOL     OW 3256   0.115   9.063   6.453  0.9891 -0.1072 -0.5576
33750SOL    HW1 3257   0.077   9.150   6.445 -2.4559 -1.5338 -1.2458
33750SOL    HW2 3258   0.155   9.063   6.540 -3.8734  0.5464  2.0152
33751SOL     OW 3259   7.026   8.773   6.546 -0.2123 -0.3371  0.7223
33751SOL    HW1 3260   6.947   8.800   6.592 -0.8865 -0.6571 -0.2133
33751SOL    HW2 3261   7.005   8.783   6.453  0.2229 -2.0994  0.3985
33752SOL     OW 3262   2.553   0.183   5.971 -0.0010 -0.6007  0.6004
33752SOL    HW1 3263   2.511   0.230   5.899  0.5159 -0.5865  0.3053
33752SOL    HW2 3264   2.517   0.223   6.050  0.5899  0.4419  0.3592
33753SOL     OW 3265   2.779   5.256   7.636 -0.4975  0.5414  0.0592
33753SOL    HW1 3266   2.688   5.229   7.646 -0.1065 -0.1963  2.3756
33753SOL    HW2 3267   2.801   5.295   7.721  1.6425 -0.3228 -0.0440
33754SOL     OW 3268   7.033   8.304   4.005 -0.6990 -0.2871 -0.3234
33754SOL    HW1 3269   7.040   8.280   3.913  0.7417 -1.1766 -0.0138
33754SOL    HW2 3270   7.075   8.389   4.011 -0.5191 -0.3682 -0.4347
33755SOL     OW 3271   1.156   5.906   9.000 -0.0830 -0.3169  0.3939
33755SOL    HW1 3272   1.243   5.922   8.963 -0.0702  0.3672  0.7106
33755SOL    HW2 3273   1.153   5.960   9.079 -1.4554  1.0963 -0.5673
33756SOL     OW 3274   7.090   0.977   6.412 -0.4793  0.2838 -0.0178
33756SOL    HW1 3275   7.068   0.892   6.450 -1.1777  0.0197 -0.9834
33756SOL    HW2 3276   7.174   0.999   6.452 -0.1415 -0.9882  0.0333
33757SOL     OW 3277   9.198   2.095   8.455 -0.0535  0.5141 -0.5002
33757SOL    HW1 3278   9.254   2.110   8.379 -0.7304  0.5246 -1.0072
33757SOL    HW2 3279   9.114   2.069   8.418 -0.8821  2.0871  0.1951
33758SOL     OW 3280   7.563   9.760   6.110  0.6659 -0.6237  0.4520
33758SOL    HW1 3281   7.640   9.739   6.164  0.4854  0.3024  1.0939
33758SOL    HW2 3282   7.494   9.777   6.174  0.8131  1.9668  0.0326
33759SOL     OW 3283   6.117   5.224   3.574  0.1717  0.3554  0.7161
33759SOL    HW1 3284   6.092   5.145   3.621 -0.5267  0.1100 -0.0305
33759SOL    HW2 3285   6.170   5.274   3.636  0.1553 -0.4396  1.3834
33760SOL     OW 3286   7.629   3.742   1.734 -0.2804  0.4201  0.2096
33760SOL    HW1 3287   7.640   3.689   1.656 -1.5987 -0.8509  0.8577
33760SOL    HW2 3288   7.719   3.758   1.765  0.1588 -2.3238  0.5642
33761SOL     OW 3289   1.612  10.955   9.289  0.1575 -0.1612 -0.1985
33761SOL    HW1 3290   1.703  10.977   9.271 -0.2869  1.5813 -0.5099
33761SOL    HW2 3291   1.564  10.988   9.214 -0.8025 -0.5873  0.2100
33762SOL     OW 3292   0.990   6.433   8.426  0.9072 -0.1188 -0.2263
33762SOL    HW1 3293   0.936   6.470   8.356 -0.6214  0.6834  1.3291
33762SOL    HW2 3294   0.974   6.339   8.422 -1.9079  0.1969  1.1480
33763SOL     OW 3295   7.404   3.254   3.989 -0.1946  0.1121 -0.0407
33763SOL    HW1 3296   7.461   3.210   4.051 -1.2380 -1.3482 -0.0740
33763SOL    HW2 3297   7.378   3.335   4.033  1.4610  0.5780  0.1652
33764SOL     OW 3298   4.747   7.806  10.989 -0.1981 -0.2164  0.1397
33764SOL    HW1 3299   4.747   7.813  10.894 -0.3155  2.8916  0.2686
33764SOL    HW2 3300   4.834   7.835  11.016  0.0921 -1.7651  1.0047
33765SOL     OW 3301   9.729   0.810   2.058 -0.6041  0.0712 -0.2923
33765SOL    HW1 3302   9.777   0.782   2.136  2.5256 -2.1867 -2.7482
33765SOL    HW2 3303   9.668   0.738   2.041  0.4227 -0.6229 -1.1663
33766SOL     OW 3304   8.729   6.294   0.966  0.3759  0.1991  0.4121
33766SOL    HW1 3305   8.708   6.203   0.986  0.7777  0.5099  2.4750
33766SOL    HW2 3306   8.644   6.339   0.969  0.2382 -0.0092 -0.1609
33767SOL     OW 3307   0.020   3.773   0.953  0.0786  0.3834  0.1001
33767SOL    HW1 3308   0.023   3.684   0.989  2.1006 -0.1079 -1.0854
33767SOL    HW2 3309  -0.033   3.765   0.874 -0.3570  0.3991  0.3897
33768SOL     OW 3310   6.387   9.382   6.917 -0.1242  0.3754 -0.0788
33768SOL    HW1 3311   6.366   9.290   6.904  4.0556 -0.7857 -0.1437
33768SOL    HW2 3312   6.379   9.395   7.012  0.8728 -0.6125  0.1694
33769SOL     OW 3313   6.442   3.080  10.944 -0.0631  0.1096 -0.0579
33769SOL    HW1 3314   6.492   3.005  10.977  0.6612  0.1542 -0.9963
33769SOL    HW2 3315   6.465   3.152  11.003  0.1221 -0.1375  0.1764
33770SOL     OW 3316   6.659   1.333  10.319 -0.1107  0.4456  0.2332
33770SOL    HW1 3317   6.667   1.309  10.226 -0.6376 -0.5050  0.4179
33770SOL    HW2 3318   6.579   1.386  10.323 -1.0769 -0.9580  0.3843
33771SOL     OW 3319   2.083   7.540   2.636 -0.3129 -0.3520  0.1584
33771SOL    HW1 3320   2.158   7.514   2.689 -0.7549 -1.4301  0.2774
33771SOL    HW2 3321   2.067   7.465   2.579 -1.2606 -0.1090  0.0918
33772SOL     OW 3322   5.336   5.075  10.205 -0.8783 -0.2229  0.1662
33772SOL    HW1 3323   5.314   4.983  10.199 -0.6647 -0.2832  0.3124
33772SOL    HW2 3324   5.276   5.111  10.270 -1.4861 -0.0944 -0.4506
33773SOL     OW 3325   8.874   5.254   4.683  0.0075 -0.4583 -0.4473
33773SOL    HW1 3326   8.912   5.168   4.664 -0.4708 -0.9697  0.7997
33773SOL    HW2 3327   8.863   5.255   4.778 -0.4786  0.7798 -0.4997
33774SOL     OW 3328   7.294   6.863   6.423  0.2254  0.7621  0.0754
33774SOL    HW1 3329   7.300   6.796   6.354  0.4359 -0.6349  1.3875
33774SOL    HW2 3330   7.384   6.896   6.430  0.1628  1.0598 -0.4464
33775SOL     OW 3331   3.413   0.328   5.607 -0.2144 -0.3525 -0.0538
33775SOL    HW1 3332   3.417   0.399   5.671  0.5065 -0.0576 -0.4074
33775SOL    HW2 3333   3.443   0.251   5.654 -2.0727 -0.6856  0.6519
33776SOL     OW 3334   1.963   7.075   0.979 -0.4287 -0.4103  0.3126
33776SOL    HW1 3335   2.025   7.098   0.910  0.3734 -1.3077  0.7032
33776SOL    HW2 3336   2.018   7.038   1.049 -1.3019 -0.2569  1.0999
33777SOL     OW 3337   9.487   5.284   6.775 -0.2868 -0.0674  0.5838
33777SOL    HW1 3338   9.486   5.379   6.788 -0.0988 -0.2352  1.9000
33777SOL    HW2 3339   9.543   5.250   6.845  2.0270 -0.9249 -1.5263
33778SOL     OW 3340   4.517   2.316   8.488  0.0447 -0.6467  0.4575
33778SOL    HW1 3341   4.516   2.320   8.392  0.3178 -0.3134  0.4680
33778SOL    HW2 3342   4.606   2.290   8.510  0.4253  0.7507  0.6725
33779SOL     OW 3343   3.117   2.953   6.540  0.2790 -0.1281  0.1429
33779SOL    HW1 3344   3.114   2.863   6.508  0.6324  0.0739 -0.4688
33779SOL    HW2 3345   3.032   2.966   6.583 -1.2365  0.3236 -2.7518
33780SOL     OW 3346   6.265   6.563   3.894 -0.2050 -0.5497  0.0760
33780SOL    HW1 3347   6.263   6.492   3.958 -0.9108 -1.3705 -0.8303
33780SOL    HW2 3348   6.263   6.643   3.948 -0.1809 -1.2092  1.0900
33781SOL     OW 3349   9.812   4.578  10.411  0.7185  0.5016  0.5598
33781SOL    HW1 3350   9.796   4.484  10.417  0.9680  0.5154  1.6994
33781SOL    HW2 3351   9.804   4.598  10.318 -1.9448 -0.1701  0.5579
33782SOL     OW 3352   8.973   8.769  10.993  0.3409 -0.1860  0.7497
33782SOL    HW1 3353   8.942   8.778  10.903  1.5061 -0.1554  0.3490
33782SOL    HW2 3354   8.919   8.830  11.043  0.2986  0.4547 -0.0737
33783SOL     OW 3355   9.283   5.725   6.649  0.3838 -0.8401  0.0967
33783SOL    HW1 3356   9.203   5.752   6.602  0.5646 -0.7230 -0.1465
33783SOL    HW2 3357   9.347   5.794   6.629  0.0747 -0.0577  1.6108
33784SOL     OW 3358   6.702   5.940   0.489  0.1129 -0.0899  0.1436
33784SOL    HW1 3359   6.620   5.927   0.441 -0.1305  1.5169  0.0653
33784SOL    HW2 3360   6.675   5.952   0.580 -0.1579  3.6656 -0.2792
33785SOL     OW 3361   6.765   5.638   3.054  0.3653 -0.4203  1.0883
33785SOL    HW1 3362   6.688   5.681   3.092  0.1821  0.0899  0.1615
33785SOL    HW2 3363   6.729   5.564   3.005  0.1604  1.2143 -1.4069
33786SOL     OW 3364   5.580   5.028  10.700 -0.3694  0.1047 -0.7041
33786SOL    HW1 3365   5.544   5.092  10.639 -0.7637 -0.2316 -0.8290
33786SOL    HW2 3366   5.650   5.075  10.745 -1.8444  1.2392  0.5303
33787SOL     OW 3367   1.843   8.447   3.155  0.6237 -0.0689  0.2856
33787SOL    HW1 3368   1.858   8.362   3.197  2.2979  0.3029  0.4920
33787SOL    HW2 3369   1.751   8.445   3.130  0.9941 -2.6087 -1.1926
33788SOL     OW 3370   9.270   4.198   3.962  0.4857  0.3177  0.2483
33788SOL    HW1 3371   9.191   4.251   3.961 -0.6482 -1.2419  1.7107
33788SOL    HW2 3372   9.340   4.260   3.985 -0.2390  1.7516 -1.2349
33789SOL     OW 3373   1.571   2.500  10.048  0.0593  0.0879 -0.0877
33789SOL    HW1 3374   1.666   2.512  10.059  0.0520  0.0291  0.0342
33789SOL    HW2 3375   1.562   2.469   9.958  0.1263  0.4330 -0.2141
33790SOL     OW 3376   5.428   5.076   3.555  0.0778 -0.2187  0.2386
33790SOL    HW1 3377   5.390   5.044   3.473 -0.4523 -1.9750  1.1163
33790SOL    HW2 3378   5.466   5.161   3.533 -1.0245 -0.1497 -1.5559
33791SOL     OW 3379   1.315   6.825   4.875 -0.5112  0.1987  0.0929
33791SOL    HW1 3380   1.390   6.870   4.915  0.3285 -1.9114  1.0993
33791SOL    HW2 3381   1.292   6.757   4.939 -0.7828 -1.6842 -1.9110
33792SOL     OW 3382   7.858   9.757  10.326 -0.2142 -0.1545 -0.6710
33792SOL    HW1 3383   7.859   9.699  10.250 -1.6533  0.9312 -1.5757
33792SOL    HW2 3384   7.922   9.825  10.304 -2.2638  1.4645 -2.0866
33793SOL     OW 3385   0.067   5.831   1.498 -0.7329  0.3515 -0.1352
33793SOL    HW1 3386   0.024   5.916   1.495 -2.7481 -0.5840  0.3970
33793SOL    HW2 3387   0.138   5.838   1.434 -0.8663  2.3898 -0.1356
33794SOL     OW 3388   9.086  10.943   2.760  0.2410 -0.1834 -0.2147
33794SOL    HW1 3389   9.005  10.906   2.727  1.5274 -0.7628 -3.0182
33794SOL    HW2 3390   9.133  10.869   2.799  0.4651 -0.3915 -0.8642
33795SOL     OW 3391   9.614   7.738   1.111 -0.1326  0.1050 -0.0821
33795SOL    HW1 3392   9.543   7.789   1.070 -1.2735 -0.2449  1.3894
33795SOL    HW2 3393   9.656   7.694   1.037 -0.3224  1.6626 -1.1895
33796SOL     OW 3394   5.035   6.540   0.093  0.2005  0.1759 -0.2226
33796SOL    HW1 3395   4.990   6.520   0.175 -0.1290  0.5637 -0.3083
33796SOL    HW2 3396   5.117   6.580   0.120  0.0088  0.4742 -0.0855
33797SOL     OW 3397   1.666   1.587  10.110  0.8165  0.3967  0.2430
33797SOL    HW1 3398   1.594   1.540  10.068  0.3162 -0.1302  1.6451
33797SOL    HW2 3399   1.659   1.677  10.076  0.0063  0.1541 -0.2566
33798SOL     OW 3400   8.629   0.878   7.218  0.4413 -0.2994 -0.5022
33798SOL    HW1 3401   8.720   0.848   7.218  0.2774 -0.9631  1.4982
33798SOL    HW2 3402   8.624   0.938   7.293 -1.1054 -1.4733  0.3987
33799SOL     OW 3403   1.601   0.606   0.326  0.1147  0.4702 -0.4837
33799SOL    HW1 3404   1.520   0.653   0.304 -0.7162 -0.3883  0.6205
33799SOL    HW2 3405   1.667   0.674   0.333 -0.9996  1.4764  0.7935
33800SOL     OW 3406   1.059   0.750   3.374  0.2306 -0.3945 -0.0148
33800SOL    HW1 3407   1.036   0.842   3.375 -0.0186 -0.4470 -0.8344
33800SOL    HW2 3408   0.975   0.704   3.364  0.5223 -0.6283 -1.6701
33801SOL     OW 3409   5.920   1.095   8.507 -0.6132  0.1426  0.0696
33801SOL    HW1 3410   5.996   1.134   8.463 -0.7554 -1.2473 -1.5004
33801SOL    HW2 3411   5.862   1.068   8.436 -1.8012 -0.3646  1.1915
33802SOL     OW 3412   6.159   0.137   8.409 -0.1660  0.9678  0.1192
33802SOL    HW1 3413   6.205   0.201   8.464  0.8949  0.6286 -0.3523
33802SOL    HW2 3414   6.219   0.120   8.336 -0.7411 -0.0131 -0.1443
33803SOL     OW 3415  10.757   9.989   8.030 -0.2905  0.4886  0.1084
33803SOL    HW1 3416  10.709  10.049   7.973 -0.7798 -0.6415 -0.7245
33803SOL    HW2 3417  10.747  10.026   8.118 -2.3435  0.5502 -0.0953
33804SOL     OW 3418  10.173   9.132   7.004  0.5234 -0.0429 -0.2683
33804SOL    HW1 3419  10.165   9.154   6.911 -1.0547  0.2856 -0.0702
33804SOL    HW2 3420  10.085   9.142   7.039  1.0540 -0.3866  1.2282
33805SOL     OW 3421   8.105   7.825   4.031  0.5325  0.6203  0.1040
33805SOL    HW1 3422   8.110   7.875   3.949  1.8573 -0.1725 -0.3376
33805SOL    HW2 3423   8.164   7.751   4.017 -0.2777 -0.2773  1.2827
33806SOL     OW 3424   9.795   5.944   8.635  0.3455 -0.0497  0.3956
33806SOL    HW1 3425   9.751   5.859   8.633  0.2484  0.0064  0.2094
33806SOL    HW2 3426   9.724   6.008   8.638  0.4208  0.0078  1.1666
33807SOL     OW 3427  10.484   7.844   7.610 -0.0441  0.1025 -0.3340
33807SOL    HW1 3428  10.524   7.883   7.688  1.5660 -3.7585  1.0344
33807SOL    HW2 3429  10.557   7.831   7.549 -0.8719  0.9323 -1.5396
33808SOL     OW 3430   4.142   1.021   2.730 -0.3305 -0.5518 -0.2234
33808SOL    HW1 3431   4.123   1.108   2.696 -2.5785  0.1724  2.4915
33808SOL    HW2 3432   4.234   1.024   2.756 -0.4529  1.1125  0.0858
33809SOL     OW 3433   0.803   7.681   3.418  0.2027  0.2789  0.0179
33809SOL    HW1 3434   0.790   7.590   3.391 -1.0953  0.3555  0.3139
33809SOL    HW2 3435   0.801   7.731   3.336  1.1773  0.0291 -0.1693
33810SOL     OW 3436   2.566   7.075   7.765 -0.0510 -0.5210  0.3901
33810SOL    HW1 3437   2.576   7.148   7.704 -2.2348 -1.7234 -1.5736
33810SOL    HW2 3438   2.608   7.001   7.722 -1.1553 -1.2637  0.5273
33811SOL     OW 3439   1.781   1.326   9.378  0.2612 -0.2179 -0.3221
33811SOL    HW1 3440   1.811   1.248   9.424 -1.4530  1.0650  3.3257
33811SOL    HW2 3441   1.857   1.383   9.374  0.2419  0.0917  2.1914
33812SOL     OW 3442   1.028   3.206   7.891  0.3644  0.0539  0.1093
33812SOL    HW1 3443   1.017   3.145   7.818  1.8990  0.1276 -0.2328
33812SOL    HW2 3444   1.060   3.287   7.850  0.8389  0.2339  0.8133
33813SOL     OW 3445   8.790   5.882   8.238  0.3680 -0.5468  0.2679
33813SOL    HW1 3446   8.698   5.864   8.221  0.3987 -2.4783  1.7083
33813SOL    HW2 3447   8.826   5.908   8.154 -1.0083 -2.0806 -0.8622
33814SOL     OW 3448   9.813   7.313   9.771 -0.2683 -1.0026  0.0029
33814SOL    HW1 3449   9.896   7.342   9.807 -0.8983  1.8570 -0.6436
33814SOL    HW2 3450   9.757   7.298   9.847  0.2740 -1.2282  0.3672
33815SOL     OW 3451   3.555   4.322   3.161 -0.2860  0.2666  0.3860
33815SOL    HW1 3452   3.507   4.290   3.085  0.4459 -0.4864  0.2272
33815SOL    HW2 3453   3.602   4.245   3.195  1.3720  1.0983  0.1049
33816SOL     OW 3454   2.357   3.699   4.552 -0.3093 -0.3409 -0.4125
33816SOL    HW1 3455   2.433   3.641   4.556 -1.1889 -1.4623  2.0567
33816SOL    HW2 3456   2.282   3.639   4.552 -1.2155  0.7678 -0.2253
33817SOL     OW 3457   6.061   5.942   5.428 -0.2810 -0.7535 -0.2576
33817SOL    HW1 3458   6.024   5.894   5.354  0.3073 -1.3812 -0.1511
33817SOL    HW2 3459   6.075   5.876   5.495  0.6784 -0.4721 -0.1671
33818SOL     OW 3460   4.489  10.630   0.526  0.5032  0.2460  0.0245
33818SOL    HW1 3461   4.566  10.613   0.581  2.2369 -0.3466 -2.4017
33818SOL    HW2 3462   4.514  10.708   0.475 -1.0690  0.8347  0.1184
33819SOL     OW 3463   0.849   7.735  10.396  0.2642 -0.3256 -0.4545
33819SOL    HW1 3464   0.913   7.795  10.435  1.7030 -2.3077  0.4273
33819SOL    HW2 3465   0.830   7.774  10.311  2.4244  0.5612 -0.6192
33820SOL     OW 3466   2.206   1.109   3.280 -0.2043 -0.0893  0.3473
33820SOL    HW1 3467   2.273   1.041   3.270 -1.6342 -1.6447  0.8097
33820SOL    HW2 3468   2.185   1.107   3.373  0.1126  1.4041  0.4665
33821SOL     OW 3469   2.640   8.469   5.194 -0.7400 -0.0646 -0.8638
33821SOL    HW1 3470   2.666   8.557   5.219 -0.1971  0.7076 -3.7480
33821SOL    HW2 3471   2.712   8.438   5.139 -0.8095 -2.4390  0.2596
33822SOL     OW 3472   2.700   4.557   9.950 -0.1719 -0.1655 -0.1108
33822SOL    HW1 3473   2.650   4.528   9.874 -0.8543  0.9302 -0.0990
33822SOL    HW2 3474   2.791   4.558   9.920 -0.5992  2.1704 -1.5923
33823SOL     OW 3475   0.979   1.823  10.754 -0.3793 -0.1531 -0.7772
33823SOL    HW1 3476   0.919   1.770  10.702 -0.5453 -0.2607 -0.4799
33823SOL    HW2 3477   0.992   1.772  10.834 -0.4938  0.2252 -0.5135
33824SOL     OW 3478   7.088   5.655   3.305 -0.7779 -0.8159 -0.0988
33824SOL    HW1 3479   7.106   5.579   3.360  0.4943 -0.1339  0.4964
33824SOL    HW2 3480   7.047   5.719   3.364 -0.7351 -0.6078 -0.2896
33825SOL     OW 3481   9.572   2.232   0.565  1.3854  0.3327 -0.0671
33825SOL    HW1 3482   9.553   2.142   0.536 -0.0277  0.7713 -0.5957
33825SOL    HW2 3483   9.603   2.276   0.487  0.6846  0.6718 -0.1617
33826SOL     OW 3484   0.974   0.457   2.944  0.4658  0.2572  0.4698
33826SOL    HW1 3485   0.970   0.364   2.923  2.2005 -0.4920  3.0253
33826SOL    HW2 3486   0.883   0.483   2.956 -0.0694 -0.9598 -0.6682
33827SOL     OW 3487   0.825   7.483   1.605 -0.7344  0.5196 -0.3071
33827SOL    HW1 3488   0.839   7.496   1.699  0.9112 -2.3359 -0.0388
33827SOL    HW2 3489   0.731   7.496   1.592 -0.6897  3.0137  1.2900
33828SOL     OW 3490   1.627   1.836   5.632 -0.5578 -0.1796  0.0492
33828SOL    HW1 3491   1.717   1.816   5.606 -0.6427 -0.7688  0.1921
33828SOL    HW2 3492   1.584   1.750   5.638 -1.3868  0.1425 -0.9627
33829SOL     OW 3493   6.311   3.508   4.628  0.1316 -0.4979  0.0985
33829SOL    HW1 3494   6.285   3.418   4.648 -0.7647 -0.5405 -1.1058
33829SOL    HW2 3495   6.301   3.515   4.533  0.1445  0.8881  0.1761
33830SOL     OW 3496   3.039   4.899   9.957 -0.0920  0.1137 -0.3852
33830SOL    HW1 3497   2.950   4.933   9.944 -0.6533 -1.5812 -1.3654
33830SOL    HW2 3498   3.076   4.896   9.869  0.6225 -0.0062 -0.0846
33831SOL     OW 3499   7.976   7.082  10.513 -0.3072 -0.0253 -0.4950
33831SOL    HW1 3500   7.975   7.174  10.487 -1.4523  0.4455  1.0180
33831SOL    HW2 3501   8.067   7.055  10.505 -0.2019  0.7648 -2.4664
33832SOL     OW 3502   0.194   7.937   5.569  0.2431  0.6934  0.3043
33832SOL    HW1 3503   0.106   7.932   5.532 -0.1055 -0.0211  1.1853
33832SOL    HW2 3504   0.195   8.019   5.619  0.6816  1.6075 -1.1394
33833SOL     OW 3505   4.823   7.529   7.999  0.0630 -0.2099 -0.0720
33833SOL    HW1 3506   4.834   7.554   8.091  0.1399 -1.0599  0.1575
33833SOL    HW2 3507   4.732   7.500   7.994 -0.1408  0.4778 -0.4253
33834SOL     OW 3508   1.786   7.783   3.228 -0.2062  0.1323 -0.1458
33834SOL    HW1 3509   1.741   7.811   3.307 -1.2533  0.4978 -0.8521
33834SOL    HW2 3510   1.879   7.799   3.247 -0.3506 -0.5548  1.2913
33835SOL     OW 3511  10.999   7.020   5.070  0.3046  0.4567  0.1704
33835SOL    HW1 3512  11.022   7.014   5.163  1.4781  1.6326 -0.0197
33835SOL    HW2 3513  11.047   6.949   5.029  1.6674  1.3528  0.1520
33836SOL     OW 3514   3.129   6.834   8.905 -0.3873  0.0610 -0.2090
33836SOL    HW1 3515   3.221   6.813   8.887 -0.2630 -2.6874  2.7030
33836SOL    HW2 3516   3.131   6.925   8.935  1.1423  0.4630 -1.4040
33837SOL     OW 3517  10.725   1.488   0.960 -0.5180 -0.6661 -0.3169
33837SOL    HW1 3518  10.814   1.468   0.933 -0.2206 -2.4142  1.7032
33837SOL    HW2 3519  10.670   1.437   0.901 -0.1826 -0.1572 -1.0901
33838SOL     OW 3520   0.465  10.391  10.738 -0.3783 -0.2422  0.4148
33838SOL    HW1 3521   0.412  10.321  10.776  2.1111 -1.3655  2.1288
33838SOL    HW2 3522   0.438  10.470  10.785  0.5251 -1.0961  2.5259
33839SOL     OW 3523   4.323   6.615   7.825 -0.1104  0.0906  0.0764
33839SOL    HW1 3524   4.354   6.657   7.906  1.5486 -2.8063  1.0861
33839SOL    HW2 3525   4.234   6.584   7.847 -0.6745  1.5078 -0.1177
33840SOL     OW 3526  10.869   9.242   5.590  0.5245 -0.1296  0.1269
33840SOL    HW1 3527  10.856   9.207   5.678  0.3707  0.3842  0.3085
33840SOL    HW2 3528  10.850   9.335   5.598  2.0067  0.2233 -0.1038
33841SOL     OW 3529   2.533   6.547   0.104  0.4294  0.3188  0.2328
33841SOL    HW1 3530   2.521   6.607   0.178 -2.4322 -0.8068  0.8232
33841SOL    HW2 3531   2.500   6.463   0.136  0.3912 -0.5307 -1.8877
33842SOL     OW 3532   6.912   8.430  10.699  0.0402  0.3472  0.4311
33842SOL    HW1 3533   6.874   8.481  10.771 -1.7800 -0.4661  0.1111
33842SOL    HW2 3534   6.840   8.374  10.670  1.4979 -1.2043 -0.3195
33843SOL     OW 3535   8.387   9.023   9.217 -0.0035 -0.3134  0.7697
33843SOL    HW1 3536   8.336   8.966   9.275  2.1123 -1.2409  1.8056
33843SOL    HW2 3537   8.469   9.037   9.263  0.9700  0.5904 -1.1294
33844SOL     OW 3538   8.852   0.705   4.705 -0.3203  0.5818 -0.7928
33844SOL    HW1 3539   8.891   0.682   4.621  1.6182  0.2936  0.1192
33844SOL    HW2 3540   8.825   0.796   4.695  1.5625  1.1534 -1.2052
33845SOL     OW 3541   3.072   1.888   5.410 -0.2397  0.3221 -0.1047
33845SOL    HW1 3542   3.132   1.930   5.349  0.2937  1.1132  0.9407
33845SOL    HW2 3543   3.006   1.847   5.354  0.4643  0.6684 -1.2159
33846SOL     OW 3544   3.305   6.944   3.803  0.7061 -0.5057  0.1614
33846SOL    HW1 3545   3.353   6.939   3.720  0.0914  0.6850 -0.2941
33846SOL    HW2 3546   3.372   6.964   3.868  1.3950 -2.6450  0.2062
33847SOL     OW 3547   7.535   7.135   0.274  0.0353 -0.3737 -0.1217
33847SOL    HW1 3548   7.556   7.226   0.257 -0.2278 -0.3559 -0.3534
33847SOL    HW2 3549   7.523   7.096   0.187  1.0392 -0.8492 -0.0667
33848SOL     OW 3550   6.243   1.281   9.460  0.4141  0.4109 -0.0491
33848SOL    HW1 3551   6.323   1.263   9.410  0.2081 -1.1954  0.1499
33848SOL    HW2 3552   6.188   1.331   9.400  0.0504 -1.7007 -1.6032
33849SOL     OW 3553   2.787  10.567   7.429 -0.1095  1.1183 -0.0707
33849SOL    HW1 3554   2.798  10.637   7.494  2.1967  0.1296  0.7182
33849SOL    HW2 3555   2.706  10.523   7.454  0.6220  0.8818  2.1005
33850SOL     OW 3556   5.258  10.562   0.035 -0.7156 -0.0910 -0.3978
33850SOL    HW1 3557   5.327  10.564   0.102 -0.8905 -1.7530 -0.1376
33850SOL    HW2 3558   5.304  10.577  -0.048 -0.1196 -0.6723 -0.1759
33851SOL     OW 3559   5.150   6.640   4.649 -0.7241  0.0357  0.6246
33851SOL    HW1 3560   5.205   6.577   4.696 -1.4267 -1.4896 -0.5054
33851SOL    HW2 3561   5.069   6.644   4.700 -0.6716  0.0158  0.7094
33852SOL     OW 3562   6.570   6.259   2.673 -0.0216  0.1852  0.5944
33852SOL    HW1 3563   6.574   6.256   2.768  0.7712 -0.2866  0.5588
33852SOL    HW2 3564   6.662   6.257   2.645 -0.2576 -0.2428 -0.1853
33853SOL     OW 3565   8.028   0.774   2.186 -0.3425  0.2850 -0.0427
33853SOL    HW1 3566   7.963   0.716   2.226  0.4038  0.2875  1.2156
33853SOL    HW2 3567   8.066   0.722   2.115 -1.1727  0.0134 -0.3015
33854SOL     OW 3568   2.354   1.002   1.682 -0.2697  0.6393  0.0748
33854SOL    HW1 3569   2.384   1.029   1.769  1.1332  1.8392 -0.7414
33854SOL    HW2 3570   2.420   0.939   1.653  1.0384  2.5255 -1.3125
33855SOL     OW 3571   1.025   7.069   0.280 -0.2106  0.3673 -0.1098
33855SOL    HW1 3572   0.941   7.032   0.250 -0.2203  0.2827  0.0189
33855SOL    HW2 3573   1.091   7.018   0.233 -0.2300  2.7838 -3.0242
33856SOL     OW 3574   7.308   6.043   6.449  0.6495 -0.2067 -0.0803
33856SOL    HW1 3575   7.314   6.088   6.533 -3.3505 -0.1763  0.4046
33856SOL    HW2 3576   7.330   5.952   6.470  1.1896  0.0796  0.6517
33857SOL     OW 3577   7.432   3.270   1.072  0.2998 -0.3222  0.5959
33857SOL    HW1 3578   7.472   3.238   0.991 -1.6211  0.4727 -0.7171
33857SOL    HW2 3579   7.477   3.221   1.141  1.2730 -1.7738 -0.9897
33858SOL     OW 3580   2.998   9.002   2.214 -0.5211  0.8680  0.5621
33858SOL    HW1 3581   2.974   9.090   2.243 -0.3805  0.9577  0.4058
33858SOL    HW2 3582   3.036   9.015   2.127  0.0895  0.7290  0.8069
33859SOL     OW 3583   2.965   2.016  10.783 -0.0549 -0.5924  0.2728
33859SOL    HW1 3584   2.881   2.000  10.826 -0.3907  0.3638 -0.0081
33859SOL    HW2 3585   3.002   1.929  10.770 -0.4086 -0.9625  1.5755
33860SOL     OW 3586   4.752   3.870   6.310  0.3699 -0.6562  0.3683
33860SOL    HW1 3587   4.817   3.858   6.241  2.2863 -1.1002  2.1702
33860SOL    HW2 3588   4.753   3.964   6.329  1.0000 -0.7618  0.8669
33861SOL     OW 3589   8.406   5.194   6.281  0.3115  0.1709 -0.1881
33861SOL    HW1 3590   8.348   5.208   6.356  1.2406 -0.6957  0.7043
33861SOL    HW2 3591   8.410   5.099   6.271  1.5388  0.2247 -0.2697
33862SOL     OW 3592   3.246   0.710   0.368 -0.0322 -0.4567 -0.1085
33862SOL    HW1 3593   3.251   0.712   0.273  0.2958  1.4052 -0.0949
33862SOL    HW2 3594   3.338   0.717   0.397 -0.2149  0.4934  0.3078
33863SOL     OW 3595   3.851   9.131   0.122  0.3583  0.2901 -0.0786
33863SOL    HW1 3596   3.773   9.155   0.072 -0.1481  0.6208  0.8460
33863SOL    HW2 3597   3.819   9.112   0.210  1.3168  0.4340  0.3178
33864SOL     OW 3598   4.955   0.415   7.706  0.3171 -0.5285  0.2621
33864SOL    HW1 3599   4.935   0.489   7.763  0.2389 -1.2777  1.2334
33864SOL    HW2 3600   5.024   0.446   7.648 -0.3076  0.5702  0.0900
33865SOL     OW 3601   0.530   6.764   7.063  0.1520 -0.2714 -0.2218
33865SOL    HW1 3602   0.565   6.679   7.036 -0.2855 -1.4590  2.5439
33865SOL    HW2 3603   0.513   6.811   6.981  0.6493 -2.7353 -1.8396
33866SOL     OW 3604   1.977   2.536   8.922  0.1186 -0.5516 -0.1087
33866SOL    HW1 3605   1.897   2.570   8.961  0.7477  2.2392 -1.0380
33866SOL    HW2 3606   2.032   2.513   8.997  0.0074  1.4707  0.6543
33867SOL     OW 3607   6.701   5.281   6.676 -0.0570 -0.7691 -0.0368
33867SOL    HW1 3608   6.709   5.278   6.771  1.8314  0.1499 -0.1218
33867SOL    HW2 3609   6.608   5.270   6.659 -0.3848 -1.2791  1.8931
33868SOL     OW 3610   2.640   7.252   7.284 -0.0308  0.1636 -0.5824
33868SOL    HW1 3611   2.599   7.243   7.370 -0.9186 -1.6528 -1.1516
33868SOL    HW2 3612   2.711   7.188   7.284  1.1089  1.3849 -0.5970
33869SOL     OW 3613   7.298  11.021   4.091 -0.0190 -0.4419  0.1525
33869SOL    HW1 3614   7.278  11.039   4.183  0.8703  0.3344  0.2136
33869SOL    HW2 3615   7.214  11.025   4.046 -0.3512  0.0308  0.8029
33870SOL     OW 3616   4.882   6.512   2.587 -0.5357  0.2473  0.2422
33870SOL    HW1 3617   4.862   6.556   2.670 -0.2817 -1.0887  1.0352
33870SOL    HW2 3618   4.870   6.419   2.605 -0.8595 -0.0461 -1.3456
33871SOL     OW 3619   2.265   4.378   2.820  0.1225 -0.4938  0.1193
33871SOL    HW1 3620   2.315   4.299   2.843 -0.2633 -0.7427  0.1083
33871SOL    HW2 3621   2.330   4.438   2.783  0.1652 -1.3674 -1.2682
33872SOL     OW 3622   2.802   5.732   2.116  0.7013 -0.6146  0.0048
33872SOL    HW1 3623   2.886   5.770   2.142  0.7364 -0.9669  0.4133
33872SOL    HW2 3624   2.824   5.672   2.044  0.4009  1.5939 -2.0742
33873SOL     OW 3625   8.530   5.019   6.565  0.4993 -0.0295  0.0540
33873SOL    HW1 3626   8.506   4.928   6.580  3.6449 -1.2415 -1.3194
33873SOL    HW2 3627   8.491   5.042   6.481 -0.1105 -0.1797  0.2966
33874SOL     OW 3628   7.037   2.847   3.214 -0.0952 -0.3168  0.4713
33874SOL    HW1 3629   6.947   2.878   3.209 -0.3837 -1.2652 -1.3418
33874SOL    HW2 3630   7.091   2.926   3.205 -0.7632  0.1305  0.3609
33875SOL     OW 3631   4.238   3.705   8.944 -0.1420 -0.0717 -0.1982
33875SOL    HW1 3632   4.163   3.686   9.001  0.2496 -2.0183 -0.2887
33875SOL    HW2 3633   4.239   3.634   8.880  1.4677  0.2332 -0.5462
33876SOL     OW 3634   2.252   6.595   3.051  0.2138  0.0522  0.4572
33876SOL    HW1 3635   2.264   6.643   3.133 -0.7092  1.0675  0.0336
33876SOL    HW2 3636   2.340   6.587   3.014  0.5038  0.5377  1.0293
33877SOL     OW 3637   7.887   9.468   3.590  0.6601  0.4261  0.4818
33877SOL    HW1 3638   7.823   9.531   3.622  1.5330  0.3506  2.5089
33877SOL    HW2 3639   7.946   9.520   3.535  0.4678  1.0592  0.8707
33878SOL     OW 3640   0.086   6.400   2.460 -0.0712  0.1058 -0.8397
33878SOL    HW1 3641   0.047   6.313   2.453 -1.8607  0.9728 -2.5722
33878SOL    HW2 3642   0.125   6.417   2.375  1.3811  0.5488 -0.1312
33879SOL     OW 3643  10.900   6.172   5.660 -0.0740  0.2371  0.0218
33879SOL    HW1 3644  10.921   6.255   5.617  1.5344 -0.4809 -0.6481
33879SOL    HW2 3645  10.805   6.162   5.648 -0.1563  1.5693 -0.6050
33880SOL     OW 3646   7.595   8.780   1.132 -0.0054 -0.3476 -0.6434
33880SOL    HW1 3647   7.507   8.746   1.149 -1.1818  2.9689  0.6950
33880SOL    HW2 3648   7.644   8.761   1.212 -0.0506 -0.5780 -0.6699
33881SOL     OW 3649   5.275   1.780   9.430  0.2214  0.1084 -0.4043
33881SOL    HW1 3650   5.239   1.801   9.516  0.1938 -1.1684 -0.0791
33881SOL    HW2 3651   5.199   1.749   9.380  0.2408  0.8267 -0.8885
33882SOL     OW 3652   2.277   4.539   2.465  0.3389  0.4210 -0.5725
33882SOL    HW1 3653   2.243   4.450   2.457  1.1844  0.1179 -0.8843
33882SOL    HW2 3654   2.224   4.578   2.535 -1.0597  0.1823 -1.4519
33883SOL     OW 3655  10.431   3.694   8.357 -0.2846  0.1601 -0.5352
33883SOL    HW1 3656  10.521   3.726   8.356 -0.4691  0.7110 -0.2830
33883SOL    HW2 3657  10.438   3.601   8.337  0.2153  0.4792 -2.0045
33884SOL     OW 3658   1.314   5.759   1.896 -0.5302 -0.7751  0.0958
33884SOL    HW1 3659   1.305   5.789   1.805 -0.4956  1.4572  0.7676
33884SOL    HW2 3660   1.401   5.721   1.900 -0.9691 -1.9723 -1.0601
33885SOL     OW 3661   1.975   6.970   0.037 -0.3407  0.3174  0.5262
33885SOL    HW1 3662   1.927   6.897   0.076 -1.6485  1.0411  0.3348
33885SOL    HW2 3663   2.063   6.964   0.074 -0.6201 -0.9526  1.0195
33886SOL     OW 3664   5.833   2.562   4.701  0.1317  0.1202 -0.8269
33886SOL    HW1 3665   5.922   2.527   4.688  0.0921  0.4102 -2.0393
33886SOL    HW2 3666   5.844   2.634   4.763  0.6728 -0.1532 -0.6028
33887SOL     OW 3667   2.477   6.377   9.546  0.4701  0.3391  0.4247
33887SOL    HW1 3668   2.518   6.433   9.612  0.4700  1.4910 -0.5061
33887SOL    HW2 3669   2.438   6.439   9.484 -1.7869 -0.6821  0.6963
33888SOL     OW 3670  10.686   9.789   8.840 -0.0133  0.5939  0.3480
33888SOL    HW1 3671  10.686   9.750   8.928  0.3826 -0.1812  0.0082
33888SOL    HW2 3672  10.691   9.715   8.780 -0.1162  1.1270 -0.3343
33889SOL     OW 3673   4.011   5.298   1.446  0.2369  0.8553 -0.0990
33889SOL    HW1 3674   4.065   5.340   1.513  1.0444  1.1616 -0.9137
33889SOL    HW2 3675   4.040   5.207   1.445  0.0765  0.8009  0.1054
33890SOL     OW 3676   1.699   1.222   2.920 -0.0374  0.2105 -0.1629
33890SOL    HW1 3677   1.675   1.304   2.878 -0.2950 -0.4563 -1.3808
33890SOL    HW2 3678   1.635   1.211   2.990  0.0741  1.1052  0.0830
33891SOL     OW 3679   4.893   1.155  10.445  0.3182  0.1148  0.3123
33891SOL    HW1 3680   4.854   1.218  10.384 -0.8355  0.1791  1.0985
33891SOL    HW2 3681   4.903   1.203  10.527 -0.7488 -0.7406  0.9813
33892SOL     OW 3682   1.701   9.977   3.674 -0.0055 -0.2966  0.5855
33892SOL    HW1 3683   1.682   9.956   3.766 -0.5260  0.7900  0.7506
33892SOL    HW2 3684   1.641  10.049   3.654  1.1887  0.5268 -0.1406
33893SOL     OW 3685   0.483   3.245   6.660 -0.4157  0.6176 -0.3482
33893SOL    HW1 3686   0.577   3.243   6.641 -0.6225  0.6462 -1.4258
33893SOL    HW2 3687   0.465   3.160   6.700  0.1355  0.7773  0.2667
33894SOL     OW 3688   8.310  10.795   0.800 -0.1719 -0.3060  0.4418
33894SOL    HW1 3689   8.272  10.882   0.806  0.8300  0.1414  0.5843
33894SOL    HW2 3690   8.237  10.735   0.813 -0.5563  0.5160  2.2974
33895SOL     OW 3691   5.540   1.954   3.367 -0.2035 -0.4746 -0.0200
33895SOL    HW1 3692   5.553   2.009   3.445  0.8948  0.7632 -1.0284
33895SOL    HW2 3693   5.500   2.013   3.303  1.3751 -0.6848 -1.2714
33896SOL     OW 3694   1.076   0.894   4.342 -0.4655 -0.0700 -0.0541
33896SOL    HW1 3695   1.029   0.812   4.326  0.5884 -0.2551 -2.6582
33896SOL    HW2 3696   1.109   0.886   4.432  1.6178 -3.5952 -0.9688
33897SOL     OW 3697   5.879   9.139   9.144 -0.0981 -0.0731 -0.0271
33897SOL    HW1 3698   5.941   9.211   9.154 -1.4405  1.2644 -0.9086
33897SOL    HW2 3699   5.933   9.063   9.122  1.5069  0.2299  2.5390
33898SOL     OW 3700   8.197   5.854   3.563  0.4829  0.1605 -0.4917
33898SOL    HW1 3701   8.218   5.931   3.510 -0.1719  0.9975  0.4285
33898SOL    HW2 3702   8.175   5.787   3.499  0.5066  0.9019 -1.3055
33899SOL     OW 3703   1.822   9.968   9.564 -0.0893  0.0290  0.0851
33899SOL    HW1 3704   1.757   9.973   9.634 -1.7196 -0.5289 -1.3186
33899SOL    HW2 3705   1.856  10.057   9.557 -1.2372  0.5176  0.4064
33900SOL     OW 3706   9.204   6.050   4.700  0.2171  0.3975  1.3472
33900SOL    HW1 3707   9.196   6.124   4.639  1.8985  0.2236  0.8590
33900SOL    HW2 3708   9.171   5.975   4.651  1.6237  0.2477  0.5933
33901SOL     OW 3709   6.041   2.797   5.099  0.0045  0.3052  0.0665
33901SOL    HW1 3710   5.991   2.733   5.150  1.1999 -0.6388  0.0914
33901SOL    HW2 3711   6.022   2.880   5.143 -0.4894 -0.2151  0.8909
33902SOL     OW 3712  10.261   3.985   5.710  0.0027  0.2646  0.7450
33902SOL    HW1 3713  10.199   3.942   5.769 -0.4146 -1.5365 -0.9314
33902SOL    HW2 3714  10.229   3.966   5.622  0.1851  3.4789 -0.1631
33903SOL     OW 3715   7.049   5.176   7.265  0.3418 -0.4810 -0.5027
33903SOL    HW1 3716   7.027   5.245   7.202  0.6273  0.9806  0.9363
33903SOL    HW2 3717   7.143   5.164   7.255  0.6768  0.8543  0.6326
33904SOL     OW 3718   3.675   8.019  10.086 -0.0724 -0.4828  0.4172
33904SOL    HW1 3719   3.605   8.078  10.113  0.9992  0.2912  1.6185
33904SOL    HW2 3720   3.631   7.953  10.033 -1.4744  0.8051 -0.1218
33905SOL     OW 3721   6.337   5.302   2.745 -0.2905  0.6162  0.4041
33905SOL    HW1 3722   6.406   5.325   2.682  0.4353  2.2769  1.7250
33905SOL    HW2 3723   6.370   5.224   2.788 -0.4254 -0.0673 -0.6833
33906SOL     OW 3724   6.660   2.212   2.075 -0.4834 -0.0988 -0.1299
33906SOL    HW1 3725   6.684   2.280   2.012 -0.4256  0.3426  0.3675
33906SOL    HW2 3726   6.651   2.258   2.158  0.1332 -0.7816  0.3282
33907SOL     OW 3727   6.017   3.711   0.294 -0.0718 -0.3692  0.5652
33907SOL    HW1 3728   5.978   3.623   0.301 -0.8056 -0.1377 -0.3854
33907SOL    HW2 3729   6.019   3.743   0.384  0.0993 -1.3125  0.9164
33908SOL     OW 3730   1.835   4.813   5.796  0.2425  0.3724  0.1124
33908SOL    HW1 3731   1.929   4.794   5.799  0.3107  0.6342 -0.2763
33908SOL    HW2 3732   1.793   4.727   5.789  0.5083  0.3063 -0.8662
33909SOL     OW 3733   3.757  10.412   1.028  0.0247 -0.0728 -0.1015
33909SOL    HW1 3734   3.801  10.327   1.021  0.3509  0.1975 -1.6261
33909SOL    HW2 3735   3.665  10.393   1.008  0.5283  0.2873 -3.2570
33910SOL     OW 3736   2.364   0.333   4.095 -0.4446  0.4535 -0.0070
33910SOL    HW1 3737   2.365   0.357   4.003 -2.4636 -0.1533 -0.2301
33910SOL    HW2 3738   2.286   0.278   4.105  1.2270 -1.8356  1.4906
33911SOL     OW 3739   3.764   6.487   3.825  0.0537  0.0121  0.4003
33911SOL    HW1 3740   3.730   6.577   3.817  0.0903  0.0536  0.7087
33911SOL    HW2 3741   3.697   6.441   3.875 -1.4742 -0.9474 -2.3075
33912SOL     OW 3742   1.750  10.736  10.075 -0.4413 -0.1443 -0.0303
33912SOL    HW1 3743   1.807  10.779  10.011 -0.4955  0.7565  0.5149
33912SOL    HW2 3744   1.687  10.804  10.100 -0.0287 -0.2807  1.4609
33913SOL     OW 3745  10.178   0.702   7.642  0.1794  0.1305 -0.7535
33913SOL    HW1 3746  10.252   0.644   7.663  1.6010  2.1375  0.0571
33913SOL    HW2 3747  10.150   0.737   7.726 -2.0379 -0.8980 -1.0020
33914SOL     OW 3748   7.451   4.091   0.122 -0.0350  0.3149  0.2844
33914SOL    HW1 3749   7.545   4.091   0.141  0.5804  2.5425 -2.0854
33914SOL    HW2 3750   7.426   4.184   0.125 -1.5240  0.0451 -1.6988
33915SOL     OW 3751   7.637   3.743  10.752  0.0689  0.1595 -0.6401
33915SOL    HW1 3752   7.643   3.689  10.831  1.2575  1.9236  0.5380
33915SOL    HW2 3753   7.550   3.781  10.755  0.4733  1.0387  0.4077
33916SOL     OW 3754   8.220   3.787   5.823  0.7006  0.0934 -0.5620
33916SOL    HW1 3755   8.140   3.748   5.856  0.7291  0.7605  0.3390
33916SOL    HW2 3756   8.217   3.773   5.728 -0.0315 -0.6831 -0.4305
33917SOL     OW 3757   1.089   7.877   4.183  0.5540  0.1811  0.4813
33917SOL    HW1 3758   1.090   7.799   4.239 -0.7061  1.1967  2.0132
33917SOL    HW2 3759   1.001   7.877   4.145  0.5898  0.7962  0.3996
33918SOL     OW 3760   9.310   4.782   2.825 -0.3881 -0.3844 -0.0675
33918SOL    HW1 3761   9.365   4.774   2.747 -1.1137 -0.7355 -0.5503
33918SOL    HW2 3762   9.312   4.876   2.845 -0.3804 -0.2557 -0.6432
33919SOL     OW 3763   9.562   2.469   3.304  0.5295 -0.2530 -0.3187
33919SOL    HW1 3764   9.584   2.551   3.349  1.1220 -0.9155  0.6336
33919SOL    HW2 3765   9.561   2.403   3.374 -0.8347 -0.9066 -0.9289
33920SOL     OW 3766   2.994   4.800   7.100 -0.0952  0.0231 -0.1162
33920SOL    HW1 3767   2.951   4.856   7.036 -1.1162  1.0778  1.4149
33920SOL    HW2 3768   3.068   4.763   7.053 -1.2889  0.0367 -2.1526
33921SOL     OW 3769   7.375   7.415   0.370  0.0314 -0.0426  0.3125
33921SOL    HW1 3770   7.434   7.340   0.366 -0.4519 -0.3915 -0.7470
33921SOL    HW2 3771   7.326   7.404   0.451  1.5103  0.3349  1.2978
33922SOL     OW 3772   7.036   1.329  10.241  0.0970 -0.2367  0.4650
33922SOL    HW1 3773   7.043   1.245  10.197 -1.9754 -1.2322  1.8555
33922SOL    HW2 3774   6.993   1.309  10.325 -0.1020  2.1354  1.0077
33923SOL     OW 3775   1.286   1.424   1.605 -0.0194  0.4587  0.5283
33923SOL    HW1 3776   1.209   1.414   1.661 -0.7597 -1.4826 -0.7174
33923SOL    HW2 3777   1.320   1.335   1.595  1.7046  1.1246  0.0760
33924SOL     OW 3778   1.997   4.483   6.065  0.3942  0.2796 -0.0326
33924SOL    HW1 3779   2.083   4.508   6.099  0.2706  0.5128  0.1050
33924SOL    HW2 3780   1.937   4.547   6.102  0.2867  0.6821 -0.8724
33925SOL     OW 3781   9.679   8.522   3.957 -0.1592 -0.3226  0.4675
33925SOL    HW1 3782   9.732   8.588   3.914  1.4227 -1.0836  1.1441
33925SOL    HW2 3783   9.706   8.439   3.917 -1.9087 -0.6201 -0.1796
33926SOL     OW 3784   9.983   2.336   0.740 -0.0813 -0.0441  0.1081
33926SOL    HW1 3785   9.938   2.388   0.807 -0.1605  0.5483 -0.3991
33926SOL    HW2 3786  10.070   2.319   0.777 -1.0634 -2.2760  1.6612
33927SOL     OW 3787   2.989   6.957   5.795  0.0187  0.2432  0.4494
33927SOL    HW1 3788   3.045   6.880   5.787  0.0124  0.2419  0.4176
33927SOL    HW2 3789   2.924   6.933   5.860  0.9023  0.7498  1.5513
33928SOL     OW 3790   8.632   9.363   8.288 -0.6295  0.1383 -0.1578
33928SOL    HW1 3791   8.558   9.382   8.346  0.1178  0.5237  0.6915
33928SOL    HW2 3792   8.595   9.305   8.222 -2.1536  1.8284 -0.8826
33929SOL     OW 3793   9.541  10.190   8.184  0.2563 -0.0222  0.1209
33929SOL    HW1 3794   9.520  10.279   8.155  1.5216  0.2227 -0.1461
33929SOL    HW2 3795   9.488  10.133   8.128 -0.2026  0.5494 -0.0386
33930SOL     OW 3796   1.306   7.003   4.619 -0.2699 -0.0921 -0.2770
33930SOL    HW1 3797   1.224   7.020   4.665  0.0027 -0.1320  0.2379
33930SOL    HW2 3798   1.339   6.922   4.658 -0.9322 -1.1629 -1.8229
33931SOL     OW 3799   3.213   2.467   3.884 -0.3624  0.2822  0.2609
33931SOL    HW1 3800   3.299   2.495   3.914 -0.9202 -0.5513  2.8617
33931SOL    HW2 3801   3.231   2.395   3.823  0.7657  0.1454  0.7287
33932SOL     OW 3802  10.529   0.151  10.275 -0.1586  0.1884 -0.2372
33932SOL    HW1 3803  10.532   0.145  10.180  1.8022 -0.8463 -0.1489
33932SOL    HW2 3804  10.604   0.206  10.298 -0.0590 -0.3414  0.7515
33933SOL     OW 3805   5.514   8.374   9.462  0.2250  0.5063 -0.2617
33933SOL    HW1 3806   5.523   8.446   9.524  0.3913  1.5719 -1.4826
33933SOL    HW2 3807   5.521   8.416   9.376 -2.3853 -0.5371 -1.0785
33934SOL     OW 3808   9.562   4.631   8.318 -0.3215 -0.3402  0.0418
33934SOL    HW1 3809   9.645   4.622   8.270  0.2037 -1.7510  1.1352
33934SOL    HW2 3810   9.580   4.697   8.384 -0.2766 -0.1637 -0.1449
33935SOL     OW 3811   8.898   4.758   5.600  0.0909  0.1066  0.6889
33935SOL    HW1 3812   8.968   4.745   5.664 -1.0406 -2.1557  1.5909
33935SOL    HW2 3813   8.833   4.811   5.646  0.7493  1.3605  0.1993
33936SOL     OW 3814   6.805   3.564   0.171 -0.4606  0.5322  0.1588
33936SOL    HW1 3815   6.789   3.505   0.245 -0.9379 -1.4388 -1.4385
33936SOL    HW2 3816   6.765   3.520   0.096 -0.7058  2.8484 -1.1635
33937SOL     OW 3817   7.531   0.274   2.783  0.3261  0.0261  0.1702
33937SOL    HW1 3818   7.473   0.272   2.859 -1.7580  0.4581 -1.2991
33937SOL    HW2 3819   7.507   0.355   2.737  2.2282  0.2965 -0.4551
33938SOL     OW 3820   4.650   4.740   1.781 -0.0995 -0.1519 -0.2603
33938SOL    HW1 3821   4.715   4.805   1.809 -0.9583  0.8087 -0.4341
33938SOL    HW2 3822   4.635   4.687   1.859 -0.9382  1.1956  0.5442
33939SOL     OW 3823   9.136   6.645   4.054  1.1722 -0.1396  0.1057
33939SOL    HW1 3824   9.218   6.602   4.076  2.0176  0.7588 -1.1493
33939SOL    HW2 3825   9.146   6.671   3.962  0.8780  2.9959  0.8557
33940SOL     OW 3826   3.542   3.141   6.118 -0.3422 -0.0781  0.2562
33940SOL    HW1 3827   3.585   3.169   6.199 -0.3410  0.2446  0.1456
33940SOL    HW2 3828   3.602   3.168   6.049 -0.1532 -0.7075  0.1640
33941SOL     OW 3829   2.724   7.488   8.688 -0.1630  0.0811  0.0487
33941SOL    HW1 3830   2.669   7.430   8.635  1.1329  1.6778 -3.3573
33941SOL    HW2 3831   2.663   7.553   8.723 -0.8934 -0.0316 -0.9546
33942SOL     OW 3832   5.144   8.625   6.928 -0.1681  0.4051 -0.0712
33942SOL    HW1 3833   5.092   8.551   6.960 -2.3539  1.3914 -1.1116
33942SOL    HW2 3834   5.153   8.682   7.004 -0.6312  0.2262  0.1225
33943SOL     OW 3835   2.760   6.138   6.708 -0.3252 -0.4079 -0.1476
33943SOL    HW1 3836   2.778   6.169   6.620  0.9533 -0.8498 -0.0631
33943SOL    HW2 3837   2.716   6.054   6.696  1.0590 -1.1235 -0.3868
33944SOL     OW 3838   0.278   2.919   5.640 -0.2052  0.1582 -0.3638
33944SOL    HW1 3839   0.314   2.953   5.722 -1.3626 -0.0642  0.2478
33944SOL    HW2 3840   0.256   2.997   5.589 -0.2191  0.3053 -0.1342
33945SOL     OW 3841   9.022   7.583   7.894  0.3330  0.1586 -0.1302
33945SOL    HW1 3842   9.005   7.609   7.803 -0.0689 -1.5936 -0.6073
33945SOL    HW2 3843   9.054   7.493   7.887  1.9893  0.5714  1.3630
33946SOL     OW 3844   2.653   6.392   1.178  0.3199 -0.4602  0.0767
33946SOL    HW1 3845   2.732   6.340   1.195  0.3181 -0.7403 -0.7791
33946SOL    HW2 3846   2.681   6.458   1.115 -0.3081 -1.0149 -0.7971
33947SOL     OW 3847   7.583   6.663  10.161 -0.8278 -0.2648 -0.1168
33947SOL    HW1 3848   7.578   6.722  10.237  0.7944  1.7680 -1.4750
33947SOL    HW2 3849   7.495   6.668  10.122 -0.8179  1.1057 -0.0339
33948SOL     OW 3850   7.615   8.156   0.023  0.2313  0.2399  0.0122
33948SOL    HW1 3851   7.683   8.089   0.013 -2.5097 -3.0662  1.4372
33948SOL    HW2 3852   7.580   8.168  -0.065  1.0357  0.1791 -0.3278
33949SOL     OW 3853   2.476   8.366   2.396 -0.2792  0.2706  0.0559
33949SOL    HW1 3854   2.435   8.430   2.454 -0.2107 -0.1420  0.5716
33949SOL    HW2 3855   2.448   8.281   2.430  0.5757 -0.0096  0.1042
33950SOL     OW 3856   5.945   5.437   9.823 -0.3154 -0.3540 -0.0099
33950SOL    HW1 3857   5.949   5.394   9.737  0.2363  0.6061 -0.4739
33950SOL    HW2 3858   5.862   5.407   9.860  0.3849 -2.4196  0.0163
33951SOL     OW 3859   3.023   5.379   7.777 -0.1967  0.9842 -0.1834
33951SOL    HW1 3860   3.109   5.415   7.754 -0.2851  1.6436  0.4998
33951SOL    HW2 3861   3.031   5.285   7.761  0.8523  0.9510  0.4737
33952SOL     OW 3862   6.577   0.443  11.038 -0.4094 -0.1991 -0.0832
33952SOL    HW1 3863   6.603   0.358  11.074  1.6590 -0.1270 -1.2430
33952SOL    HW2 3864   6.579   0.502  11.113  0.6926 -0.6767  0.2840
33953SOL     OW 3865   8.994   8.346   9.242  0.1885  0.6049 -0.8599
33953SOL    HW1 3866   9.008   8.433   9.205  0.3215  1.1721  0.4545
33953SOL    HW2 3867   8.932   8.360   9.314  0.2923 -0.3654 -0.5542
33954SOL     OW 3868   7.222   5.552   5.397  0.1582  0.7532 -0.0586
33954SOL    HW1 3869   7.130   5.528   5.408  0.4282 -1.2200 -1.5571
33954SOL    HW2 3870   7.227   5.582   5.306  1.6248 -3.0212 -1.4228
33955SOL     OW 3871   1.271   0.869   2.000  0.5775 -0.4053  0.7018
33955SOL    HW1 3872   1.271   0.913   2.085  0.6178 -0.0597  0.5254
33955SOL    HW2 3873   1.289   0.778   2.020  1.0885 -0.2375  1.0238
33956SOL     OW 3874   2.530   9.109   7.105  0.2203  0.5102 -0.7781
33956SOL    HW1 3875   2.550   9.192   7.149  1.5780  1.2433 -2.6631
33956SOL    HW2 3876   2.441   9.088   7.133 -0.2616  2.7488 -0.4559
33957SOL     OW 3877   8.876   5.849   4.067 -0.2834  0.1207  0.4923
33957SOL    HW1 3878   8.855   5.826   3.976 -0.9398 -0.4906  0.7894
33957SOL    HW2 3879   8.803   5.814   4.118  1.4832 -2.3366  1.5869
33958SOL     OW 3880  10.303   8.153   5.664 -0.0046 -0.1876  0.4668
33958SOL    HW1 3881  10.224   8.202   5.641 -0.4109 -0.6188  0.9100
33958SOL    HW2 3882  10.273   8.062   5.672  0.8259 -0.6022 -0.8088
33959SOL     OW 3883   2.089   7.943   1.841  0.5329 -0.3276  0.2505
33959SOL    HW1 3884   2.036   8.007   1.890  0.2283  0.2107 -0.7520
33959SOL    HW2 3885   2.167   7.931   1.895 -0.3664 -0.7386  1.5036
33960SOL     OW 3886   2.571   0.771   2.512  0.2145 -0.0376 -0.3335
33960SOL    HW1 3887   2.552   0.726   2.595  2.0140 -0.2723 -0.0225
33960SOL    HW2 3888   2.631   0.712   2.466  0.8064  1.0091 -0.9293
33961SOL     OW 3889   0.061   9.766   8.043  0.5780 -0.4112 -0.4480
33961SOL    HW1 3890   0.148   9.756   8.005 -0.0017 -0.6433 -1.7920
33961SOL    HW2 3891   0.006   9.707   7.992 -0.5040  0.2701 -0.1020
33962SOL     OW 3892   3.003   7.243   0.936  0.1846 -0.4975 -0.0301
33962SOL    HW1 3893   3.084   7.285   0.965 -0.4549 -0.3977  1.7104
33962SOL    HW2 3894   2.938   7.314   0.938 -0.6921 -1.2973  2.0103
33963SOL     OW 3895   9.145   9.841   1.628  0.5899 -0.4783  0.0579
33963SOL    HW1 3896   9.213   9.859   1.564  1.0506 -2.7222 -0.1877
33963SOL    HW2 3897   9.093   9.770   1.588  0.3227 -1.2977  1.7485
33964SOL     OW 3898   2.433   5.925   4.657 -0.4893  0.3293  0.2118
33964SOL    HW1 3899   2.457   5.956   4.570  0.6416  0.5523  0.5858
33964SOL    HW2 3900   2.375   5.851   4.640  0.5937 -0.3468 -0.7696
33965SOL     OW 3901   4.178   4.427  10.085  0.0213 -0.7504  0.3543
33965SOL    HW1 3902   4.093   4.445  10.125 -0.2748 -1.1046 -0.1048
33965SOL    HW2 3903   4.242   4.455  10.151 -0.3989  1.4082 -0.0756
33966SOL     OW 3904   4.547   9.501   7.745  0.0562 -0.4073 -0.0277
33966SOL    HW1 3905   4.564   9.570   7.682  1.7372 -3.1936 -2.8816
33966SOL    HW2 3906   4.454   9.481   7.735 -1.3011  3.1856  3.0252
33967SOL     OW 3907   8.727   7.424  10.076  0.0791 -0.2461  0.4820
33967SOL    HW1 3908   8.767   7.510  10.062  1.6238 -0.9219  0.5536
33967SOL    HW2 3909   8.644   7.429  10.029  0.4157  1.0765 -0.0341
33968SOL     OW 3910   7.142   1.765   9.758 -0.1221  0.2222 -0.2923
33968SOL    HW1 3911   7.048   1.777   9.744 -0.1192  0.1160 -0.3978
33968SOL    HW2 3912   7.148   1.700   9.828 -0.1250  0.0163 -0.4812
33969SOL     OW 3913   9.074   6.008   0.079  0.0474  0.9184  0.0580
33969SOL    HW1 3914   9.111   6.085   0.035 -0.2049 -0.1096 -2.0786
33969SOL    HW2 3915   9.150   5.961   0.113  0.2645  1.6437  0.6059
33970SOL     OW 3916   0.695   3.705   7.327 -0.2692  0.5125  0.1501
33970SOL    HW1 3917   0.747   3.629   7.300 -1.2468 -0.5549  1.1201
33970SOL    HW2 3918   0.724   3.776   7.271 -1.6115 -1.3264 -3.1213
33971SOL     OW 3919   8.132   3.526   3.471  0.3012  0.0737  0.3180
33971SOL    HW1 3920   8.112   3.447   3.521 -0.6620  0.4360  0.5087
33971SOL    HW2 3921   8.156   3.591   3.538 -2.9075  1.1622  0.5643
33972SOL     OW 3922   6.999   4.913  10.891  0.0146 -0.7874  0.4533
33972SOL    HW1 3923   7.079   4.965  10.894  0.3832 -1.0951 -1.8590
33972SOL    HW2 3924   7.030   4.822  10.895  0.0566 -0.9875 -2.3877
33973SOL     OW 3925   9.856   5.180   5.594  0.1555  0.7757 -0.5226
33973SOL    HW1 3926   9.920   5.195   5.663  0.7027  0.3091 -0.9143
33973SOL    HW2 3927   9.903   5.126   5.530  0.0491  2.1621 -1.8274
33974SOL     OW 3928   7.304   2.680  10.408 -0.3637  0.4398 -0.5673
33974SOL    HW1 3929   7.292   2.632  10.326  0.4574 -3.1766  1.2307
33974SOL    HW2 3930   7.224   2.664  10.458  0.9629 -1.4827  1.1071
33975SOL     OW 3931   0.475  10.788   4.827 -0.1859  0.2405 -0.6320
33975SOL    HW1 3932   0.567  10.770   4.806  0.2799 -0.5674  1.8314
33975SOL    HW2 3933   0.431  10.789   4.742  1.9442 -0.1862 -1.8119
33976SOL     OW 3934   3.488   7.183   7.310  0.0516  0.0527  0.2222
33976SOL    HW1 3935   3.477   7.093   7.340 -0.2704 -0.6959 -1.9354
33976SOL    HW2 3936   3.467   7.237   7.385 -1.7488 -1.6401  0.9997
33977SOL     OW 3937   1.558   4.456   6.154  0.1089  0.2771 -0.0619
33977SOL    HW1 3938   1.581   4.444   6.062 -2.3941  0.8339 -0.8285
33977SOL    HW2 3939   1.543   4.368   6.187 -3.5375  0.1810 -1.5600
33978SOL     OW 3940   1.663   3.082   7.437  0.0250 -0.3999  0.5299
33978SOL    HW1 3941   1.675   2.990   7.414  1.7881 -0.0073 -0.2294
33978SOL    HW2 3942   1.609   3.118   7.367  1.3304 -0.3306 -0.4711
33979SOL     OW 3943   1.127   2.349   5.189 -0.2560 -0.6398 -0.2205
33979SOL    HW1 3944   1.071   2.328   5.115  0.0793 -0.8875 -0.4086
33979SOL    HW2 3945   1.216   2.336   5.156 -0.0484  0.5538 -0.1888
33980SOL     OW 3946   5.678   3.734   6.839 -0.4373 -0.1320  0.2079
33980SOL    HW1 3947   5.703   3.668   6.903 -2.5864 -0.6303  0.6053
33980SOL    HW2 3948   5.665   3.684   6.758  1.2808  0.3468 -0.3976
33981SOL     OW 3949   8.659   9.049   1.819  0.0486  0.0396  0.0746
33981SOL    HW1 3950   8.611   9.025   1.740  0.2288  0.7194 -0.2513
33981SOL    HW2 3951   8.647   8.975   1.878  1.1624 -1.1498 -1.1258
33982SOL     OW 3952   4.203  10.650   0.579 -0.0711  0.2827 -0.0240
33982SOL    HW1 3953   4.165  10.616   0.659 -1.1524  1.1163 -0.1640
33982SOL    HW2 3954   4.297  10.654   0.597  0.0473 -2.1912  0.1827
33983SOL     OW 3955   6.951   4.026   0.268 -0.6151 -0.3018  0.1372
33983SOL    HW1 3956   7.007   4.101   0.289  1.4108 -1.4847 -0.7799
33983SOL    HW2 3957   6.862   4.060   0.276  0.2148  2.4806 -1.1126
33984SOL     OW 3958   4.050   1.029   6.836  0.1908  0.2108  0.0065
33984SOL    HW1 3959   3.975   0.993   6.788  0.0746 -0.0077  0.3447
33984SOL    HW2 3960   4.015   1.106   6.881  0.1320  0.0210  0.2855
33985SOL     OW 3961   9.814   8.929   1.509  0.1140 -0.1607 -0.0667
33985SOL    HW1 3962   9.816   9.001   1.446 -0.9957 -0.4255 -0.4364
33985SOL    HW2 3963   9.852   8.965   1.589  0.2335  0.6108 -0.4623
33986SOL     OW 3964   3.603  10.855   0.586 -0.5888  0.1482  0.0449
33986SOL    HW1 3965   3.575  10.811   0.666  0.1825  0.2879  0.4052
33986SOL    HW2 3966   3.688  10.816   0.565 -0.4042  0.6842 -0.2367
33987SOL     OW 3967  10.478   5.451   4.244 -0.3350  0.1495  0.2772
33987SOL    HW1 3968  10.421   5.407   4.308  0.5646  0.2435  1.1742
33987SOL    HW2 3969  10.499   5.535   4.286  0.0842  0.3071 -0.2475
33988SOL     OW 3970   5.507   7.007   7.198  0.2645 -0.3843 -0.0731
33988SOL    HW1 3971   5.534   6.959   7.120 -0.0573 -0.3694 -0.1922
33988SOL    HW2 3972   5.447   7.074   7.166 -0.3805 -0.7931  0.2672
33989SOL     OW 3973   4.904   5.881   1.793 -0.3291  0.1050  0.7027
33989SOL    HW1 3974   4.851   5.846   1.864 -1.2668  1.3434  0.6526
33989SOL    HW2 3975   4.842   5.933   1.741  0.6288  0.3315 -0.2375
33990SOL     OW 3976   5.010   1.181   5.423  0.1332  0.3856  0.6015
33990SOL    HW1 3977   4.999   1.135   5.340  0.9424  0.5079  0.4233
33990SOL    HW2 3978   5.037   1.270   5.398 -2.1419  1.2361  0.9057
33991SOL     OW 3979   3.098   6.598   1.875 -0.3310  0.1134  0.4909
33991SOL    HW1 3980   3.135   6.510   1.869  0.1054  0.2708  0.8571
33991SOL    HW2 3981   3.053   6.599   1.959 -1.8405 -0.3240 -0.2680
33992SOL     OW 3982   9.802   3.033   5.322  0.1274 -0.6125  0.3294
33992SOL    HW1 3983   9.758   3.111   5.356 -1.2467 -0.9645 -0.5374
33992SOL    HW2 3984   9.801   3.044   5.227 -1.9198 -2.5487  0.0381
33993SOL     OW 3985   3.876   7.335   3.487 -0.2655 -0.0973 -0.0114
33993SOL    HW1 3986   3.853   7.348   3.395  0.3219 -0.3569 -0.2012
33993SOL    HW2 3987   3.794   7.350   3.534 -0.2968  1.3225 -0.4590
33994SOL     OW 3988   1.482   3.491   5.422 -0.0495  0.0989  0.4629
33994SOL    HW1 3989   1.565   3.516   5.462  0.9312 -0.2680 -1.2347
33994SOL    HW2 3990   1.483   3.395   5.423 -1.1138  0.0680  1.6606
33995SOL     OW 3991  10.985   1.826   9.185  0.4082 -0.0144 -0.1157
33995SOL    HW1 3992  10.998   1.742   9.139  0.6703  1.3877 -2.8074
33995SOL    HW2 3993  10.900   1.816   9.228  1.0012 -2.0855  0.7042
33996SOL     OW 3994   0.748  10.704   5.024 -0.1709  0.4833  0.1132
33996SOL    HW1 3995   0.722  10.638   4.960 -0.5710 -0.1614  0.9248
33996SOL    HW2 3996   0.756  10.785   4.973  0.0847 -0.1291 -0.8503
33997SOL     OW 3997   6.712   0.023   4.853  0.3633  0.5149 -0.2642
33997SOL    HW1 3998   6.637   0.036   4.796 -1.8814 -1.9916  1.8445
33997SOL    HW2 3999   6.787   0.015   4.794 -1.4882  0.0390 -2.6800
33998SOL     OW 4000   9.923   3.914   1.367  0.1204 -0.0370 -0.1060
33998SOL    HW1 4001   9.969   3.830   1.358  0.2488  0.0544 -0.3022
33998SOL    HW2 4002   9.854   3.910   1.300  0.1492  0.0282 -0.1391
33999SOL     OW 4003   9.131  10.302   5.177 -0.1473  0.3825 -0.0876
33999SOL    HW1 4004   9.066  10.346   5.122 -0.0332 -1.1165 -1.4652
33999SOL    HW2 4005   9.205  10.286   5.119  0.0694 -1.0245  0.5578
34000SOL     OW 4006   5.281   2.079   7.268  0.5088 -0.3952 -0.8146
34000SOL    HW1 4007   5.302   1.986   7.260  1.2251 -0.3606  0.3663
34000SOL    HW2 4008   5.188   2.085   7.245  0.8489 -1.1192 -2.6015
34001SOL     OW 4009   0.076   0.434   3.253  0.1521 -0.0741 -0.6386
34001SOL    HW1 4010   0.086   0.355   3.306  1.1107  0.0458 -0.6289
34001SOL    HW2 4011   0.017   0.409   3.183 -1.1272 -0.2441  0.4639
34002SOL     OW 4012   1.652   3.775   2.585 -0.2632  0.0182 -0.1773
34002SOL    HW1 4013   1.706   3.754   2.509 -2.8434 -1.0122 -1.8441
34002SOL    HW2 4014   1.635   3.690   2.626 -1.3366  0.2033 -0.2190
34003SOL     OW 4015   0.986   1.162   4.267  0.1174  0.1818 -0.1197
34003SOL    HW1 4016   1.026   1.200   4.189  0.1131  2.4551  0.8997
34003SOL    HW2 4017   1.036   1.081   4.282  3.0607  1.8397 -0.0887
34004SOL     OW 4018   4.026   0.976   0.552 -0.4277  0.2095  0.2080
34004SOL    HW1 4019   4.037   1.036   0.626  0.5298  0.1299  0.1411
34004SOL    HW2 4020   4.026   0.889   0.591 -2.1902  0.2367  0.3461
34005SOL     OW 4021   1.441   2.310   6.009 -0.0220 -0.2106  0.1279
34005SOL    HW1 4022   1.416   2.217   6.010  0.3178 -0.3095  0.7510
34005SOL    HW2 4023   1.506   2.316   5.940 -1.9214  0.1125 -1.7098
34006SOL     OW 4024   7.021   5.272   7.753  0.0775  0.7199 -0.4452
34006SOL    HW1 4025   6.998   5.182   7.776 -0.2360  1.2917  1.6281
34006SOL    HW2 4026   6.939   5.311   7.723  0.4118  0.0799 -2.3304
34007SOL     OW 4027   4.930   4.355   2.780 -0.2124  0.1504 -0.2138
34007SOL    HW1 4028   4.891   4.421   2.724 -0.9278  1.3737  1.6301
34007SOL    HW2 4029   4.871   4.349   2.855 -0.8776 -3.5230 -0.8441
34008SOL     OW 4030   8.826   7.581   8.328 -0.0739 -0.2074 -0.3199
34008SOL    HW1 4031   8.876   7.647   8.375 -1.1101 -0.2595  0.8964
34008SOL    HW2 4032   8.736   7.594   8.356 -0.7574 -0.2417 -2.3205
34009SOL     OW 4033   1.542   9.830   3.016  0.1441 -1.0118  0.3332
34009SOL    HW1 4034   1.451   9.802   3.009  0.2607 -0.9520 -2.0511
34009SOL    HW2 4035   1.593   9.752   2.995  0.7193 -1.2191  2.2776
34010SOL     OW 4036   2.895   1.148   6.862 -0.4059  0.4809 -0.0443
34010SOL    HW1 4037   2.871   1.240   6.868  0.9063  0.8218  0.2808
34010SOL    HW2 4038   2.945   1.140   6.781 -2.5984 -0.4866 -1.4128
34011SOL     OW 4039   9.599   4.671   5.210  0.5750 -0.6264 -0.3519
34011SOL    HW1 4040   9.525   4.731   5.201  0.5743 -0.4562  0.6800
34011SOL    HW2 4041   9.584   4.604   5.144  0.7498  0.6737 -1.7754
34012SOL     OW 4042   2.017   7.522   5.264  0.9034 -0.1938 -0.1693
34012SOL    HW1 4043   2.100   7.506   5.309  1.6157  0.1970 -1.2965
34012SOL    HW2 4044   2.022   7.469   5.185  0.1581 -0.0121 -0.3465
34013SOL     OW 4045   3.616   8.940   2.068 -0.0829 -0.0082 -0.6222
34013SOL    HW1 4046   3.641   8.855   2.031  1.4066  0.6726 -1.2383
34013SOL    HW2 4047   3.563   8.981   1.999 -1.9199 -0.9287  0.1833
34014SOL     OW 4048   8.863   7.467   2.803  0.4153  0.2753  0.5918
34014SOL    HW1 4049   8.819   7.539   2.758  1.2953  1.5143  1.6155
34014SOL    HW2 4050   8.924   7.431   2.739  0.1226  0.5899  0.1337
34015SOL     OW 4051   2.492   6.181   2.927  0.1412 -0.3265 -0.2828
34015SOL    HW1 4052   2.405   6.154   2.955  0.1296 -1.0235 -0.9643
34015SOL    HW2 4053   2.487   6.185   2.831  0.4753  0.9777 -0.2708
34016SOL     OW 4054   0.475   4.708   8.047  0.5210 -0.0280  0.1233
34016SOL    HW1 4055   0.550   4.677   7.996 -0.1037 -0.0193 -0.8350
34016SOL    HW2 4056   0.481   4.804   8.044  1.1461 -0.0232  1.0983
34017SOL     OW 4057   4.073   2.938   4.054 -0.4425 -0.1527 -0.3096
34017SOL    HW1 4058   4.004   2.878   4.023 -0.6468 -0.7196  1.1714
34017SOL    HW2 4059   4.122   2.888   4.118  0.8708  0.5235 -0.7464
34018SOL     OW 4060   5.504   4.255   2.789 -0.6212  0.3344  0.0968
34018SOL    HW1 4061   5.571   4.201   2.832 -0.1612  0.1224 -0.8441
34018SOL    HW2 4062   5.436   4.193   2.764 -0.7340  0.4035  0.2341
34019SOL     OW 4063   3.984   1.650   6.239 -0.1652 -0.6213 -0.3745
34019SOL    HW1 4064   3.943   1.589   6.178 -1.0628  0.8715 -1.3113
34019SOL    HW2 4065   3.929   1.647   6.317  0.1976 -1.5009 -0.1365
34020SOL     OW 4066   5.807   1.138   4.990  0.1329  0.1249  0.4461
34020SOL    HW1 4067   5.717   1.169   4.999  0.1380  0.3361 -0.1874
34020SOL    HW2 4068   5.798   1.044   4.975 -0.0558  0.3235 -0.7887
34021SOL     OW 4069   1.260   8.556   3.387 -0.2115 -0.3378 -0.2282
34021SOL    HW1 4070   1.197   8.627   3.385 -1.0325 -1.0656 -1.4289
34021SOL    HW2 4071   1.315   8.575   3.464 -0.7763  1.2389 -0.1743
34022SOL     OW 4072   6.615   2.050   7.564  0.8877 -0.6892 -0.5912
34022SOL    HW1 4073   6.535   1.998   7.563 -0.2199  0.9341 -0.1736
34022SOL    HW2 4074   6.643   2.052   7.472 -0.0454 -0.5700 -0.8888
34023SOL     OW 4075  11.008   2.987   8.742 -0.0451  0.0435  0.0649
34023SOL    HW1 4076  11.075   3.017   8.804 -0.2552 -0.8899  0.7691
34023SOL    HW2 4077  11.022   3.040   8.664  2.4233 -1.0414 -0.3325
34024SOL     OW 4078   4.782  10.639   4.945 -0.0814  0.5262 -0.2015
34024SOL    HW1 4079   4.759  10.700   4.875  1.5784  1.5463  0.0791
34024SOL    HW2 4080   4.875  10.656   4.962 -0.1013 -0.6500  1.3191
34025SOL     OW 4081   1.698   2.507   9.642 -0.5120 -0.3170  0.2906
34025SOL    HW1 4082   1.782   2.465   9.662 -0.0913  0.1422 -0.4496
34025SOL    HW2 4083   1.678   2.478   9.553 -0.9883 -0.1813  0.3538
34026SOL     OW 4084   4.129   7.896   3.209 -0.3859 -0.4774  0.0838
34026SOL    HW1 4085   4.132   7.802   3.194 -1.4209 -0.4826 -0.1356
34026SOL    HW2 4086   4.039   7.921   3.189 -0.4525  0.3558  1.3063
34027SOL     OW 4087  10.673   8.529   9.988  0.4982  0.2074 -0.1473
34027SOL    HW1 4088  10.701   8.446  10.027  1.7592  0.5140 -0.3367
34027SOL    HW2 4089  10.629   8.576  10.059  1.7517  0.2802  0.6005
34028SOL     OW 4090   1.945   2.715   9.356 -0.1588  0.8878 -0.3643
34028SOL    HW1 4091   2.032   2.717   9.317  0.6135 -0.8609  1.1394
34028SOL    HW2 4092   1.959   2.723   9.450 -1.6886  1.3415 -0.1349
34029SOL     OW 4093   4.024   2.305   0.155  0.7433  0.8725 -0.6648
34029SOL    HW1 4094   3.962   2.347   0.096  1.2514  1.2276 -0.9378
34029SOL    HW2 4095   4.000   2.338   0.242  0.6239  1.0920 -0.7813
34030SOL     OW 4096   0.986  11.018   9.540 -0.3885  0.0058 -0.0293
34030SOL    HW1 4097   0.975  11.055   9.452 -1.7893 -0.8189 -0.2330
34030SOL    HW2 4098   0.971  10.924   9.528 -1.6919  0.0116  1.2424
34031SOL     OW 4099   8.910   7.214   0.982 -0.0695 -0.0328 -0.0985
34031SOL    HW1 4100   8.897   7.230   0.888  2.0720 -0.6395 -0.5586
34031SOL    HW2 4101   9.002   7.235   0.997 -0.1843 -0.6603  1.7145
34032SOL     OW 4102   6.102   5.701   9.784  0.3536 -0.0492 -0.2739
34032SOL    HW1 4103   6.153   5.684   9.864  0.9414 -0.3477 -0.6988
34032SOL    HW2 4104   6.029   5.640   9.789  1.3733 -1.3788 -0.8199
34033SOL     OW 4105   1.770   0.879   0.568  0.3787 -0.1814  0.3132
34033SOL    HW1 4106   1.761   0.843   0.480 -2.1663 -1.0644  0.8507
34033SOL    HW2 4107   1.856   0.920   0.568  1.0212 -1.3372 -2.1380
34034SOL     OW 4108   7.361   0.347   6.223 -0.2944  0.6963  0.2528
34034SOL    HW1 4109   7.317   0.265   6.244 -0.3829  0.9092  0.9172
34034SOL    HW2 4110   7.386   0.338   6.131  0.6640 -0.5202  0.6012
34035SOL     OW 4111  10.865   0.217   5.405  0.4223 -0.4674 -0.0252
34035SOL    HW1 4112  10.869   0.201   5.500  0.9674  0.7868  0.1845
34035SOL    HW2 4113  10.772   0.223   5.386  0.3197 -0.3491  0.5021
34036SOL     OW 4114   2.720  10.836   8.997  0.8962  0.0758 -0.4191
34036SOL    HW1 4115   2.708  10.783   8.918 -1.1935 -0.9313  0.4844
34036SOL    HW2 4116   2.806  10.811   9.030  1.4026 -0.1846 -1.8605
34037SOL     OW 4117   8.981   0.325   1.542 -0.0885  0.3201  0.4425
34037SOL    HW1 4118   9.069   0.346   1.510 -0.0695 -2.3122 -1.5420
34037SOL    HW2 4119   8.979   0.229   1.544 -2.8731  0.3160  0.6048
34038SOL     OW 4120   0.799   5.337  10.286  0.5102 -0.1642  0.3587
34038SOL    HW1 4121   0.706   5.327  10.268 -0.3443  1.0193  3.4564
34038SOL    HW2 4122   0.841   5.264  10.241 -1.8419 -0.4727 -1.4754
34039SOL     OW 4123  10.978   5.696   4.666 -0.4421  0.1998 -0.3981
34039SOL    HW1 4124  10.960   5.639   4.591  0.6613  3.2272 -3.2383
34039SOL    HW2 4125  11.070   5.677   4.687 -1.0970 -1.5430  1.1625
34040SOL     OW 4126   5.756  10.069   4.231 -0.3446  0.1701 -0.3911
34040SOL    HW1 4127   5.803  10.141   4.273  0.9823 -1.1721  0.5299
34040SOL    HW2 4128   5.803   9.990   4.259 -1.8103 -1.0721 -1.2823
34041SOL     OW 4129   9.684   9.183   0.848  1.1306 -0.1865  0.2658
34041SOL    HW1 4130   9.621   9.173   0.777  1.1363  1.5459 -0.0296
34041SOL    HW2 4131   9.636   9.159   0.927  0.8673 -1.3062 -0.2250
34042SOL     OW 4132  10.734   3.843  10.043  0.5801  0.3035 -0.2763
34042SOL    HW1 4133  10.722   3.936  10.025  0.1122  0.1186 -0.9577
34042SOL    HW2 4134  10.647   3.812  10.067  0.5303 -0.1560 -1.0061
34043SOL     OW 4135   3.469  10.474   8.312 -0.5500  0.3177  0.1332
34043SOL    HW1 4136   3.423  10.507   8.389  0.0230  0.2119  0.5358
34043SOL    HW2 4137   3.558  10.456   8.344 -0.3857 -0.0006 -0.4843
34044SOL     OW 4138   9.004   9.630   8.025 -0.1428  0.3146  0.2390
34044SOL    HW1 4139   9.032   9.597   8.111 -0.1023  2.0838  0.9455
34044SOL    HW2 4140   8.909   9.618   8.025 -0.4317  2.0921  1.4120
34045SOL     OW 4141   5.249   1.427   6.524 -0.2368 -0.8460 -0.4450
34045SOL    HW1 4142   5.181   1.382   6.575 -0.3417 -0.9154 -0.6427
34045SOL    HW2 4143   5.328   1.421   6.577 -0.5984  0.0691  0.2363
34046SOL     OW 4144   2.686   8.337   9.740  0.5831 -0.4921 -0.1618
34046SOL    HW1 4145   2.647   8.259   9.779  4.2588 -3.2256 -1.3566
34046SOL    HW2 4146   2.670   8.406   9.804 -1.9259 -2.4223  1.4969
34047SOL     OW 4147   2.239   4.882   2.182 -0.1434  0.3724 -0.3046
34047SOL    HW1 4148   2.227   4.936   2.260 -0.1458  0.2365 -0.2100
34047SOL    HW2 4149   2.334   4.878   2.169 -0.1313  0.1840 -0.1592
34048SOL     OW 4150   8.437   4.298   0.596 -0.7102  0.5945 -0.7906
34048SOL    HW1 4151   8.350   4.259   0.582  0.3667 -1.9519 -1.0173
34048SOL    HW2 4152   8.446   4.302   0.691 -0.6017 -0.4035 -0.7431
34049SOL     OW 4153   6.859   3.330   9.130 -0.1918 -0.2834  0.1639
34049SOL    HW1 4154   6.772   3.349   9.095 -1.0503 -1.3902  1.5940
34049SOL    HW2 4155   6.880   3.406   9.184  1.3849  1.7067 -2.9498
34050SOL     OW 4156   4.781   8.420   7.379  0.2419 -0.2005 -0.0350
34050SOL    HW1 4157   4.740   8.333   7.384  0.3742 -0.3091 -0.7274
34050SOL    HW2 4158   4.810   8.427   7.288  1.7946 -0.1401  0.4492
34051SOL     OW 4159   0.011   4.147   7.484  0.7584  0.2418 -0.1625
34051SOL    HW1 4160   0.027   4.065   7.437 -1.7203  0.3719 -1.4272
34051SOL    HW2 4161   0.059   4.213   7.434  1.1200 -0.1410 -0.3275
34052SOL     OW 4162   7.484   0.059   6.780 -0.3316 -0.5342 -0.2030
34052SOL    HW1 4163   7.488   0.017   6.694 -0.4878 -0.4537 -0.2495
34052SOL    HW2 4164   7.557   0.121   6.779  0.5529 -1.5443  0.2634
34053SOL     OW 4165   5.245   8.664   4.732  0.8186 -0.3551 -0.1856
34053SOL    HW1 4166   5.286   8.612   4.662  1.6538 -0.2237  0.1912
34053SOL    HW2 4167   5.300   8.648   4.809  0.9570  0.9046  0.0008
34054SOL     OW 4168   2.788   9.703   1.354  0.1332 -0.1053 -1.0341
34054SOL    HW1 4169   2.876   9.739   1.340 -0.0987  1.2671  0.6421
34054SOL    HW2 4170   2.768   9.726   1.445 -0.9203 -2.7049 -0.5271
34055SOL     OW 4171   3.142  10.421   7.218  0.1996 -0.5928  0.1635
34055SOL    HW1 4172   3.086  10.499   7.220  0.9971  0.0518 -0.8990
34055SOL    HW2 4173   3.082  10.348   7.202 -0.4510 -0.0580  0.1144
34056SOL     OW 4174   5.283   4.170   4.488 -0.1470 -0.3505  0.1570
34056SOL    HW1 4175   5.234   4.251   4.499 -0.4422 -0.5581  0.3746
34056SOL    HW2 4176   5.268   4.145   4.397  1.9656  1.1479 -0.6849
34057SOL     OW 4177   1.105   8.742   3.788  0.3067  0.2711  0.1562
34057SOL    HW1 4178   1.086   8.794   3.866 -0.3079 -1.4032  1.1610
34057SOL    HW2 4179   1.189   8.700   3.806  0.2125 -0.0448 -0.1208
34058SOL     OW 4180   8.248   1.178   6.925  0.3367  0.0275  0.2587
34058SOL    HW1 4181   8.291   1.236   6.861 -1.0678  0.2494 -0.5153
34058SOL    HW2 4182   8.265   1.090   6.893  1.3229  0.0432  0.6945
34059SOL     OW 4183   0.968  10.369   5.795  0.4552  0.4212 -0.1118
34059SOL    HW1 4184   0.963  10.426   5.872  1.7755  2.7883 -1.6100
34059SOL    HW2 4185   1.062  10.364   5.776  0.1167  0.9556 -2.2133
34060SOL     OW 4186   0.096   1.380   3.395 -0.7543  0.2096 -0.1305
34060SOL    HW1 4187   0.164   1.445   3.412  1.5077 -1.8393 -0.8549
34060SOL    HW2 4188   0.032   1.427   3.342 -0.1259  2.3103  0.8493
34061SOL     OW 4189   6.423   8.924   2.537 -0.2788 -0.2972 -0.2393
34061SOL    HW1 4190   6.391   8.891   2.621  1.3828  0.3822  0.6847
34061SOL    HW2 4191   6.376   8.871   2.472 -3.8050  1.0866  0.9489
34062SOL     OW 4192   1.890   7.576   8.577  0.2170  0.3328 -0.0384
34062SOL    HW1 4193   1.977   7.586   8.616 -0.2186  2.0167  0.5884
34062SOL    HW2 4194   1.906   7.527   8.497  1.8571  1.2396 -0.3177
34063SOL     OW 4195   2.305   5.513   5.954 -0.1382  0.6727  0.3556
34063SOL    HW1 4196   2.218   5.536   5.921 -0.9159  0.6411  2.2382
34063SOL    HW2 4197   2.311   5.558   6.038  1.2865 -0.0791  0.6825
34064SOL     OW 4198   5.144   2.743   1.134 -0.1113 -0.0190  0.5154
34064SOL    HW1 4199   5.087   2.820   1.131 -1.0492 -0.6986 -1.6206
34064SOL    HW2 4200   5.189   2.744   1.050  0.4233 -1.3960  0.7627
34065SOL     OW 4201   9.523   5.954  10.343 -0.0375  0.3568 -0.1766
34065SOL    HW1 4202   9.585   5.916  10.281 -0.1895  0.5142 -0.4258
34065SOL    HW2 4203   9.488   5.878  10.391  0.2185  0.2524 -0.1534
34066SOL     OW 4204  10.067   4.500   9.345  0.0667 -0.4316 -0.1937
34066SOL    HW1 4205  10.122   4.568   9.385  0.9859 -0.6038 -1.0963
34066SOL    HW2 4206  10.094   4.419   9.388 -0.2037 -0.3786  0.0741
34067SOL     OW 4207   4.195   1.680   0.285  0.8465 -0.2360  0.0651
34067SOL    HW1 4208   4.160   1.595   0.310  0.1719 -0.6690 -2.1362
34067SOL    HW2 4209   4.283   1.661   0.252  0.6748 -0.1154 -0.4836
34068SOL     OW 4210   1.116   1.921  10.354  0.3445 -0.1511  0.5010
34068SOL    HW1 4211   1.189   1.950  10.301  0.1670 -0.1506  0.2570
34068SOL    HW2 4212   1.156   1.877  10.429  0.5921 -0.2495  0.3104
34069SOL     OW 4213   6.283  10.728   5.206  0.3122  0.5091 -0.9630
34069SOL    HW1 4214   6.369  10.702   5.239  0.5642  0.7277 -1.4389
34069SOL    HW2 4215   6.247  10.649   5.167 -0.4128 -0.0211  0.6863
34070SOL     OW 4216   9.531   9.105   8.289  0.0147 -0.4796 -0.3357
34070SOL    HW1 4217   9.620   9.101   8.254 -0.0936  1.8097 -1.0517
34070SOL    HW2 4218   9.475   9.074   8.218  0.0349  1.2800 -1.1795
34071SOL     OW 4219   2.280   5.215   2.275 -0.4396  0.0304 -0.3014
34071SOL    HW1 4220   2.186   5.213   2.258 -0.1362  0.1475 -2.1298
34071SOL    HW2 4221   2.320   5.175   2.198  1.0165 -0.1293  0.4962
34072SOL     OW 4222  10.710   0.815   6.717  0.1939  0.5826  0.4956
34072SOL    HW1 4223  10.763   0.871   6.773 -0.2756 -0.8996  2.5261
34072SOL    HW2 4224  10.773   0.752   6.680  0.3468  0.9572  0.1028
34073SOL     OW 4225   0.307   9.951   4.516 -0.4213  0.0149 -0.0330
34073SOL    HW1 4226   0.284  10.043   4.500 -1.4428 -0.7206 -3.6288
34073SOL    HW2 4227   0.227   9.913   4.552 -0.5731  0.1995 -0.1675
34074SOL     OW 4228   3.913   5.953   2.624  0.2530  0.1011 -0.1647
34074SOL    HW1 4229   3.824   5.938   2.592  0.9449 -1.4956 -1.4960
34074SOL    HW2 4230   3.964   5.973   2.544  1.3967 -0.6355  0.3544
34075SOL     OW 4231   8.537   5.020   5.180 -0.4170  0.8507  0.4798
34075SOL    HW1 4232   8.578   4.953   5.236 -1.2039 -1.2526 -1.3036
34075SOL    HW2 4233   8.579   5.009   5.095 -0.7963  2.4814  0.0511
34076SOL     OW 4234   2.845   0.099   8.558  0.5727  0.2304  0.5898
34076SOL    HW1 4235   2.852   0.163   8.628  1.6956 -0.0328  0.7224
34076SOL    HW2 4236   2.926   0.107   8.509  0.8297 -1.2463  0.7408
34077SOL     OW 4237   4.071   9.008   2.509  0.5585  0.4059  0.1700
34077SOL    HW1 4238   4.152   8.963   2.483  1.2058  0.9720  1.1253
34077SOL    HW2 4239   4.021   8.941   2.556 -0.0160 -0.2358 -1.2962
34078SOL     OW 4240  10.100   7.951  10.217  0.0987 -0.2634  0.2440
34078SOL    HW1 4241  10.039   8.008  10.265 -0.4690 -1.0552  0.4970
34078SOL    HW2 4242  10.044   7.906  10.153  0.6221 -0.1874 -0.2703
34079SOL     OW 4243   6.236   0.187   1.828  0.5006  0.3166 -0.2350
34079SOL    HW1 4244   6.151   0.230   1.836  0.6368  0.5740 -0.1391
34079SOL    HW2 4245   6.287   0.221   1.902  0.9263  0.7358 -0.7111
34080SOL     OW 4246   4.925   3.787  10.354 -0.5090 -0.8136  0.0186
34080SOL    HW1 4247   4.847   3.810  10.403 -1.0654 -1.7570 -0.4003
34080SOL    HW2 4248   4.989   3.856  10.376 -0.6740 -1.2965  2.1633
34081SOL     OW 4249   7.123   2.162   0.473  0.1764  0.3453  0.1955
34081SOL    HW1 4250   7.049   2.202   0.519  0.5275  2.3498 -0.8696
34081SOL    HW2 4251   7.113   2.190   0.382  1.3850 -0.6432 -0.2712
34082SOL     OW 4252   4.641   2.076   1.908  0.0133  0.1283 -0.0156
34082SOL    HW1 4253   4.653   2.086   1.813  1.4773  0.2784  0.1568
34082SOL    HW2 4254   4.614   1.985   1.919  2.2742 -0.6522 -0.4245
34083SOL     OW 4255   5.750  10.002   0.816 -0.0124  0.7668 -0.4246
34083SOL    HW1 4256   5.739  10.020   0.722  1.2896 -1.1569 -0.9916
34083SOL    HW2 4257   5.844  10.004   0.830 -0.2225  3.0595  1.3472
34084SOL     OW 4258   1.842   5.353   6.707 -0.0742 -0.0910  0.0335
34084SOL    HW1 4259   1.803   5.276   6.668  1.9283 -1.1705  0.0065
34084SOL    HW2 4260   1.829   5.422   6.642 -2.4646 -0.1720  0.3424
34085SOL     OW 4261   5.011   1.174   6.522 -0.1119 -0.5435 -0.0714
34085SOL    HW1 4262   5.057   1.205   6.444  0.8100 -0.1266  0.6076
34085SOL    HW2 4263   5.064   1.100   6.553  0.0588 -0.1181  0.6715
34086SOL     OW 4264   3.125   8.906   0.927 -0.0869 -0.0532 -0.0204
34086SOL    HW1 4265   3.146   8.827   0.878  2.2702  0.1543  0.5245
34086SOL    HW2 4266   3.210   8.945   0.948 -1.1191  1.7051  1.2277
34087SOL     OW 4267   8.531   2.294   7.697  1.0045  0.3253 -0.1376
34087SOL    HW1 4268   8.553   2.302   7.790  0.6999  0.9296 -0.1142
34087SOL    HW2 4269   8.469   2.365   7.680  1.1473  0.2951 -0.8336
34088SOL     OW 4270   4.307   0.397   6.615  0.0142 -0.0634 -0.1763
34088SOL    HW1 4271   4.275   0.478   6.576  0.4633 -0.8411 -2.3064
34088SOL    HW2 4272   4.341   0.346   6.541 -2.0674 -3.0527  0.7185
34089SOL     OW 4273   6.917   8.561   1.822  0.4126 -0.0525 -0.2610
34089SOL    HW1 4274   6.958   8.608   1.895  1.1307 -0.4741 -0.3889
34089SOL    HW2 4275   6.986   8.553   1.757  0.1292 -0.7748 -0.4790
34090SOL     OW 4276   0.057  10.863   7.760 -0.5522  0.2975  0.2707
34090SOL    HW1 4277   0.088  10.862   7.851 -1.0989 -3.2473  0.5798
34090SOL    HW2 4278   0.131  10.898   7.710  1.1259 -0.9217  1.7679
34091SOL     OW 4279   1.685   8.341   4.612 -0.4697  0.6675 -0.4110
34091SOL    HW1 4280   1.732   8.258   4.615 -0.7356  0.5437  1.0388
34091SOL    HW2 4281   1.754   8.407   4.602 -0.2681  0.2837 -1.6919
34092SOL     OW 4282   6.671   3.908   5.990  0.1204 -0.0308  0.3139
34092SOL    HW1 4283   6.664   3.997   6.022  0.1308  0.4616 -1.0028
34092SOL    HW2 4284   6.739   3.868   6.044 -2.5247 -0.5112  3.5955
34093SOL     OW 4285   6.269   7.599   4.093  0.2273 -0.1727  0.7198
34093SOL    HW1 4286   6.290   7.561   4.178  2.0592 -1.9468 -0.4306
34093SOL    HW2 4287   6.184   7.562   4.070  0.7427 -1.4832  0.8345
34094SOL     OW 4288   0.277   1.389   2.104 -0.1884  0.3630 -0.3354
34094SOL    HW1 4289   0.355   1.441   2.085 -0.4286  0.7369 -0.3019
34094SOL    HW2 4290   0.308   1.320   2.163 -0.0817  1.1367  0.5414
34095SOL     OW 4291   2.077   2.317   2.001  0.1170  0.4608  0.4039
34095SOL    HW1 4292   2.117   2.300   2.087  0.1096 -0.1211  0.2965
34095SOL    HW2 4293   2.089   2.235   1.953 -0.7012  0.4785  0.1674
34096SOL     OW 4294  10.698   0.853   3.365  0.3975  0.3340 -0.0499
34096SOL    HW1 4295  10.686   0.837   3.271 -0.6584 -1.4077  0.3348
34096SOL    HW2 4296  10.776   0.803   3.388 -1.1295 -1.9516  0.5465
34097SOL     OW 4297   5.467   0.865   9.251  0.0557 -0.2234  0.2803
34097SOL    HW1 4298   5.448   0.858   9.158  0.9785  0.9732 -0.0215
34097SOL    HW2 4299   5.455   0.957   9.272 -0.2925 -0.5017  1.3959
34098SOL     OW 4300   3.311   9.527  10.408 -0.3642 -0.0113 -0.0815
34098SOL    HW1 4301   3.337   9.441  10.441 -1.3143 -0.3456 -0.1727
34098SOL    HW2 4302   3.392   9.566  10.377  0.0509 -0.9625 -0.2366
34099SOL     OW 4303   9.114   3.432   7.180 -0.2821  0.5481 -0.5610
34099SOL    HW1 4304   9.166   3.470   7.251  1.0372 -1.4438 -0.3853
34099SOL    HW2 4305   9.095   3.343   7.209 -4.2499  1.2706 -0.4457
34100SOL     OW 4306   4.402   8.699   4.004  0.2527  0.2762 -0.2468
34100SOL    HW1 4307   4.395   8.653   3.921  0.5583 -0.0805 -0.0786
34100SOL    HW2 4308   4.428   8.788   3.980  0.5726  0.1104 -0.5224
34101SOL     OW 4309   7.922   9.715   0.042 -0.4697 -0.3776 -0.0855
34101SOL    HW1 4310   7.976   9.667  -0.020 -0.3178 -0.9441  0.4761
34101SOL    HW2 4311   7.973   9.793   0.063  0.2857 -1.0551  0.6743
34102SOL     OW 4312   5.753   7.770   6.065  0.3807 -1.0382  0.7637
34102SOL    HW1 4313   5.768   7.699   6.127  3.0285 -1.2763 -0.0063
34102SOL    HW2 4314   5.775   7.849   6.112 -2.0778 -0.6793  1.4605
34103SOL     OW 4315  10.202   7.889   8.493  0.0709 -0.3209 -0.4389
34103SOL    HW1 4316  10.292   7.883   8.523 -0.3824 -0.1569  1.0362
34103SOL    HW2 4317  10.181   7.801   8.461  0.4236 -0.6539  0.2201
34104SOL     OW 4318   1.383   1.558   8.837 -0.1321  0.1988 -0.6286
34104SOL    HW1 4319   1.382   1.516   8.751  0.6063  0.2448 -0.6600
34104SOL    HW2 4320   1.290   1.566   8.860 -0.3893  1.0214 -1.8240
34105SOL     OW 4321   9.759  10.954   3.648 -0.3370 -0.2151 -0.5586
34105SOL    HW1 4322   9.796  11.029   3.695 -1.1938 -0.6098  0.8112
34105SOL    HW2 4323   9.689  10.990   3.595 -0.8581 -0.0545  0.2253
34106SOL     OW 4324   2.556   2.539   9.172 -0.3790 -0.0245  0.1118
34106SOL    HW1 4325   2.539   2.555   9.079  0.1918  0.6607  0.1171
34106SOL    HW2 4326   2.598   2.453   9.174 -0.1545  0.0723 -0.2931
34107SOL     OW 4327   8.587   7.561   0.236 -0.4051 -0.0901 -0.7999
34107SOL    HW1 4328   8.624   7.501   0.301 -0.8286 -0.1482 -0.6072
34107SOL    HW2 4329   8.663   7.595   0.189  0.2252  2.1996  1.6426
34108SOL     OW 4330   5.966   4.754  10.487  0.3344  0.8434 -0.1114
34108SOL    HW1 4331   5.913   4.797  10.421 -0.2493 -0.5569 -0.5886
34108SOL    HW2 4332   5.925   4.778  10.570  0.5216  1.8581 -0.2991
34109SOL     OW 4333   2.873   1.842   2.642  0.3083  0.7947 -0.0994
34109SOL    HW1 4334   2.962   1.837   2.678  1.0525  0.9492 -1.8263
34109SOL    HW2 4335   2.858   1.755   2.604 -0.3520  0.7174  0.3258
34110SOL     OW 4336   9.041   7.357   2.574 -0.0705 -0.2013 -0.3259
34110SOL    HW1 4337   9.002   7.281   2.617  0.8710 -0.8952 -0.6598
34110SOL    HW2 4338   9.126   7.326   2.542 -0.0437  0.7456 -1.2480
34111SOL     OW 4339   5.220   6.357   0.721 -0.0687 -0.2241 -0.0056
34111SOL    HW1 4340   5.214   6.263   0.700  2.9449 -0.7820  1.1889
34111SOL    HW2 4341   5.288   6.390   0.662  0.2927  0.7560  0.9386
34112SOL     OW 4342   1.861   4.022  10.350 -0.1366 -0.1385 -0.4654
34112SOL    HW1 4343   1.878   3.928  10.361 -1.0064 -0.4070 -1.3303
34112SOL    HW2 4344   1.943   4.057  10.314  0.7902 -0.2289  1.4010
34113SOL     OW 4345   0.371  10.372   5.637 -0.5834 -0.0985 -0.8219
34113SOL    HW1 4346   0.407  10.287   5.611  0.2546  0.2380 -0.8017
34113SOL    HW2 4347   0.353  10.417   5.555 -0.4883 -0.0737 -0.8289
34114SOL     OW 4348  10.791   7.220   0.396 -0.3250  0.1630 -0.0581
34114SOL    HW1 4349  10.720   7.213   0.334 -0.3947 -1.2230  0.1529
34114SOL    HW2 4350  10.870   7.208   0.344 -0.2419  1.2537 -0.2178
34115SOL     OW 4351   8.125   7.420   4.140  0.2850 -0.3493  0.6297
34115SOL    HW1 4352   8.209   7.428   4.184  0.6967  0.8170 -0.3366
34115SOL    HW2 4353   8.130   7.480   4.066 -0.7961 -1.4468 -0.3841
34116SOL     OW 4354   4.900  10.689   4.207 -0.5534  1.1872 -0.1933
34116SOL    HW1 4355   4.902  10.738   4.289 -1.2819  2.2941 -0.8078
34116SOL    HW2 4356   4.850  10.610   4.228 -1.4116  1.8311  0.2536
34117SOL     OW 4357   0.218   6.098   3.276  0.1722 -0.7241 -0.3695
34117SOL    HW1 4358   0.168   6.017   3.281 -1.9986  0.6219  2.1144
34117SOL    HW2 4359   0.305   6.075   3.309 -0.3528 -2.1000  0.0935
34118SOL     OW 4360   9.716   7.739   5.156  0.2278  0.2030  0.0919
34118SOL    HW1 4361   9.713   7.705   5.246 -0.4407  0.0337  0.0123
34118SOL    HW2 4362   9.796   7.792   5.153 -1.4969  3.1957  1.8943
34119SOL     OW 4363   1.956  10.193   4.345 -0.2349  0.1030 -0.3189
34119SOL    HW1 4364   1.877  10.241   4.320 -2.1651 -2.2383  0.8722
34119SOL    HW2 4365   1.927  10.103   4.358  2.4598 -0.6860  1.1248
34120SOL     OW 4366   5.441   6.170   4.584  0.2475  0.2181 -0.3120
34120SOL    HW1 4367   5.506   6.201   4.647 -0.1926 -0.3110  0.4207
34120SOL    HW2 4368   5.356   6.187   4.626 -0.0938  0.8236 -1.2232
34121SOL     OW 4369   9.453   5.135  10.388  0.5727  0.1931 -0.2945
34121SOL    HW1 4370   9.466   5.042  10.371  0.5785 -0.2562  1.9060
34121SOL    HW2 4371   9.360   5.144  10.409  0.4826  0.7666 -0.9026
34122SOL     OW 4372   6.322   5.933   4.300  0.5512  0.0838 -0.1870
34122SOL    HW1 4373   6.304   5.864   4.236  0.7502  0.3534 -0.5382
34122SOL    HW2 4374   6.250   5.995   4.290 -1.0939 -1.3213  1.9383
34123SOL     OW 4375   0.755   3.248   6.334  0.1292  0.0050  0.5714
34123SOL    HW1 4376   0.681   3.309   6.338 -1.0462 -1.0754 -2.2147
34123SOL    HW2 4377   0.825   3.299   6.292 -0.2287  0.0066 -0.0341
34124SOL     OW 4378   8.820   0.032   9.501  0.1974  0.3332 -0.1876
34124SOL    HW1 4379   8.757   0.098   9.472 -1.5313 -1.4626 -0.7704
34124SOL    HW2 4380   8.788  -0.050   9.463  1.3489 -1.1089  1.7484
34125SOL     OW 4381   5.750   2.378   1.065 -0.1796 -0.4997 -0.2995
34125SOL    HW1 4382   5.728   2.449   1.126  0.6338 -0.5865  0.1154
34125SOL    HW2 4383   5.816   2.417   1.007  0.7165 -1.0882  0.3079
34126SOL     OW 4384   3.602   3.777  10.382 -0.0498 -0.0224 -0.0844
34126SOL    HW1 4385   3.609   3.857  10.435  0.8353  1.4124 -2.2255
34126SOL    HW2 4386   3.628   3.707  10.442 -1.2188  1.1882  1.9814
34127SOL     OW 4387   3.468   3.916   2.708  0.2549 -0.0975 -0.1558
34127SOL    HW1 4388   3.489   3.943   2.618 -1.7228 -0.8948 -0.9095
34127SOL    HW2 4389   3.457   3.821   2.702 -2.3742  0.1128  0.3559
34128SOL     OW 4390   0.513   1.887   9.704 -0.1386  0.2755  0.0486
34128SOL    HW1 4391   0.596   1.842   9.689 -1.6743 -2.0873 -2.4050
34128SOL    HW2 4392   0.481   1.853   9.788  0.4684 -0.3467  0.0324
34129SOL     OW 4393  10.647   9.966   2.974  0.1314  0.0714 -0.6814
34129SOL    HW1 4394  10.624   9.998   2.887 -1.3227 -0.9976 -0.7256
34129SOL    HW2 4395  10.605   9.881   2.981  1.8411 -0.7538  0.3603
34130SOL     OW 4396   9.341   1.810   6.357  0.1082 -0.2098 -0.0118
34130SOL    HW1 4397   9.336   1.714   6.357 -1.6575 -0.1627 -0.8629
34130SOL    HW2 4398   9.321   1.835   6.447  0.6211 -0.6388  0.2252
34131SOL     OW 4399   7.704   6.701   1.360  0.2884 -0.2133  0.1578
34131SOL    HW1 4400   7.674   6.785   1.325 -0.3671 -0.7444 -0.5882
34131SOL    HW2 4401   7.716   6.646   1.282  0.0501 -1.0209  0.6891
34132SOL     OW 4402  10.059   0.111   2.543 -0.3976  0.3926 -0.0714
34132SOL    HW1 4403  10.093   0.145   2.626  0.4671  2.5700 -1.2214
34132SOL    HW2 4404  10.029   0.022   2.563  0.1811  0.6973  2.4442
34133SOL     OW 4405   7.702   2.216   8.579 -0.5653 -0.4732 -0.1672
34133SOL    HW1 4406   7.674   2.293   8.628  1.3672  1.0307 -1.2708
34133SOL    HW2 4407   7.696   2.144   8.641  0.2516  1.0647  1.8045
34134SOL     OW 4408   8.020   8.291   3.730  0.4331  0.7774  0.1145
34134SOL    HW1 4409   8.107   8.319   3.700  0.0900  0.4285 -1.3118
34134SOL    HW2 4410   8.001   8.349   3.803  0.6907  2.8337 -1.3324
34135SOL     OW 4411   8.544   9.336   5.974  0.4664  0.2513 -0.7337
34135SOL    HW1 4412   8.538   9.345   6.069  1.6758  0.5174 -0.6683
34135SOL    HW2 4413   8.461   9.370   5.941  0.2655  0.6741  0.1871
34136SOL     OW 4414   2.216   2.565   0.443  0.7862 -0.0135  0.7279
34136SOL    HW1 4415   2.262   2.517   0.374 -0.5679 -0.4967  0.1301
34136SOL    HW2 4416   2.188   2.498   0.505 -0.1834  0.1129  0.4421
34137SOL     OW 4417   7.478  10.407   6.072 -0.3924 -0.2767  0.8395
34137SOL    HW1 4418   7.534  10.428   6.147 -0.2129 -1.0941  0.9500
34137SOL    HW2 4419   7.486  10.482   6.014  1.9188 -0.9490  0.1936
34138SOL     OW 4420   6.485   0.678   9.202 -0.5883 -0.2569  0.4068
34138SOL    HW1 4421   6.563   0.731   9.215 -2.2610  2.1085  1.4979
34138SOL    HW2 4422   6.504   0.596   9.248  0.8874  0.6237  1.4689
34139SOL     OW 4423   5.210   1.975   0.937  0.2841  0.3815 -0.2043
34139SOL    HW1 4424   5.127   1.985   0.984 -1.0330  0.9937 -2.4784
34139SOL    HW2 4425   5.213   1.882   0.914 -0.8652  0.6964 -1.8428
34140SOL     OW 4426   1.638  10.114   9.103  0.0979 -0.4198  0.0622
34140SOL    HW1 4427   1.577  10.168   9.153  0.2839 -1.4393  1.4425
34140SOL    HW2 4428   1.722  10.126   9.148 -0.2634 -3.4851  1.7964
34141SOL     OW 4429   6.685   6.079   6.997 -0.3060  0.5488  0.0984
34141SOL    HW1 4430   6.766   6.105   6.954 -0.7632 -0.5812 -1.5654
34141SOL    HW2 4431   6.631   6.042   6.927 -1.6805 -0.0910  1.4176
34142SOL     OW 4432   2.563   7.512   1.631  0.4377 -0.4126  0.7243
34142SOL    HW1 4433   2.539   7.422   1.607 -0.1811 -0.1365  0.2575
34142SOL    HW2 4434   2.538   7.564   1.554 -0.2028  0.2997  1.3954
34143SOL     OW 4435   7.056   6.063  10.749 -0.0877 -0.1084 -0.8002
34143SOL    HW1 4436   7.112   6.041  10.674  1.5692 -1.3551  0.7098
34143SOL    HW2 4437   7.094   6.014  10.822 -1.4428  1.3080  0.9374
34144SOL     OW 4438   5.825   5.099  10.858  0.3182 -0.1779  0.2438
34144SOL    HW1 4439   5.823   5.114  10.953  1.3203  0.3684  0.1903
34144SOL    HW2 4440   5.916   5.080  10.838  0.4040  1.1707 -0.8109
34145SOL     OW 4441   5.813   8.276   3.748  0.3536  0.1998  0.3096
34145SOL    HW1 4442   5.875   8.295   3.677 -0.7638 -1.6972 -1.2618
34145SOL    HW2 4443   5.836   8.188   3.777 -1.2289 -0.3066  0.0781
34146SOL     OW 4444   2.596   1.174   0.992 -0.3027  0.8626 -0.2606
34146SOL    HW1 4445   2.535   1.246   0.976 -0.8402  0.4576 -0.0783
34146SOL    HW2 4446   2.555   1.124   1.063 -1.3955 -1.2520 -2.2593
34147SOL     OW 4447   7.763   5.374   6.629  0.1064  0.2740 -0.5362
34147SOL    HW1 4448   7.680   5.372   6.676  0.3950 -0.8178 -0.0496
34147SOL    HW2 4449   7.812   5.445   6.669 -0.2694  0.3819 -0.2667
34148SOL     OW 4450   7.134   6.554   6.503  0.3151 -0.1563 -0.0746
34148SOL    HW1 4451   7.135   6.488   6.573 -1.6372 -1.2420 -0.9895
34148SOL    HW2 4452   7.200   6.524   6.441  1.2994  0.2270  0.7625
34149SOL     OW 4453  10.241   5.980   7.965 -0.2626 -0.1434 -0.4675
34149SOL    HW1 4454  10.289   6.058   7.994  0.5171 -0.1677 -1.6424
34149SOL    HW2 4455  10.155   6.014   7.939 -0.8307 -0.0599  1.3438
34150SOL     OW 4456   5.655   4.141   0.907 -0.1122 -0.0398  0.7922
34150SOL    HW1 4457   5.677   4.203   0.837 -0.8239  1.8993  2.2102
34150SOL    HW2 4458   5.715   4.164   0.978 -1.0656 -0.2953  1.6949
34151SOL     OW 4459   6.329   3.538   4.339 -0.2070  0.1483 -0.7917
34151SOL    HW1 4460   6.423   3.521   4.334 -0.3316 -1.1623  0.7955
34151SOL    HW2 4461   6.289   3.476   4.278 -0.1130  0.1754 -0.8808
34152SOL     OW 4462   8.947   1.024   0.171 -0.0679  0.3337  0.3081
34152SOL    HW1 4463   8.864   0.999   0.211 -0.3948 -0.7652 -0.9753
34152SOL    HW2 4464   8.960   1.116   0.197 -0.9078  0.0631  1.7709
34153SOL     OW 4465   4.125   7.673   6.258 -0.5577 -0.2833  0.5954
34153SOL    HW1 4466   4.150   7.765   6.250  0.5538 -0.6316  0.0534
34153SOL    HW2 4467   4.104   7.646   6.169 -1.2469 -0.4637  0.8070
34154SOL     OW 4468   0.513   5.134   1.079 -0.3532 -0.0110  0.2961
34154SOL    HW1 4469   0.429   5.118   1.122 -0.6923 -1.8735 -0.9624
34154SOL    HW2 4470   0.495   5.119   0.986  0.4542  3.4569 -0.5692
34155SOL     OW 4471   9.858   3.721  10.505  0.1274  0.2740 -0.5753
34155SOL    HW1 4472   9.775   3.712  10.553  0.6418  3.7800  1.3267
34155SOL    HW2 4473   9.841   3.789  10.440  1.1645  0.0255 -1.1248
34156SOL     OW 4474  10.005   6.913   9.099  0.3570 -0.1472 -0.4566
34156SOL    HW1 4475   9.942   6.850   9.064  0.3807 -0.6706  0.4000
34156SOL    HW2 4476  10.091   6.877   9.077  0.4900 -2.0838  2.5816
34157SOL     OW 4477   2.197   0.254   6.526  0.3715  0.7222  0.3070
34157SOL    HW1 4478   2.281   0.208   6.534 -0.4733 -1.4965 -2.1219
34157SOL    HW2 4479   2.187   0.300   6.609  3.3839  0.0660  1.1674
34158SOL     OW 4480  10.551   7.652   5.258  0.3216  0.3223  0.7969
34158SOL    HW1 4481  10.590   7.739   5.265 -0.0261  0.8673 -2.5940
34158SOL    HW2 4482  10.458   7.668   5.248  0.2890 -0.4084 -0.1594
34159SOL     OW 4483   9.325   6.174   6.620  0.0116  0.1325  0.1187
34159SOL    HW1 4484   9.357   6.203   6.705  1.7254 -1.3169  0.0318
34159SOL    HW2 4485   9.380   6.099   6.598 -2.0986 -1.1811 -1.0833
34160SOL     OW 4486   5.608  10.084   9.506 -0.7424 -0.0204  0.3709
34160SOL    HW1 4487   5.654  10.064   9.425  0.9315  0.8867  1.0445
34160SOL    HW2 4488   5.553  10.159   9.485 -0.7548 -0.1528 -0.0704
34161SOL     OW 4489   4.810   3.520   1.857  0.7639  0.0218  0.5960
34161SOL    HW1 4490   4.725   3.528   1.813  0.6824  1.6109  0.9714
34161SOL    HW2 4491   4.818   3.427   1.878 -0.1365 -0.4229 -0.8995
34162SOL     OW 4492   7.265  10.266   5.151  0.2673  0.0569  0.2339
34162SOL    HW1 4493   7.303  10.179   5.148 -0.3151 -0.1819 -0.8012
34162SOL    HW2 4494   7.205  10.268   5.077  1.9861  2.1450 -1.2091
34163SOL     OW 4495   6.606  10.221   5.244  0.2111  0.1296 -0.1512
34163SOL    HW1 4496   6.618  10.154   5.176 -0.0088  0.5763 -0.6381
34163SOL    HW2 4497   6.518  10.206   5.277  0.3773 -0.1903  0.1537
34164SOL     OW 4498   5.484   1.499   2.451  0.2534  0.5814  0.3868
34164SOL    HW1 4499   5.408   1.481   2.396  1.0942  0.7899 -0.8779
34164SOL    HW2 4500   5.494   1.420   2.504 -0.4985  0.3231  0.1578
34165SOL     OW 4501   5.309   8.790  10.566 -0.1549  0.5597 -0.3227
34165SOL    HW1 4502   5.342   8.776  10.655  1.7939 -2.6952 -1.3595
34165SOL    HW2 4503   5.382   8.831  10.520  0.2232 -0.9447 -1.1537
34166SOL     OW 4504   1.423   2.835   4.566 -0.0858  0.3712 -0.3444
34166SOL    HW1 4505   1.327   2.839   4.568 -0.0891  1.2916 -1.3906
34166SOL    HW2 4506   1.450   2.927   4.571  0.7398  0.1306 -0.3426
34167SOL     OW 4507  10.015   1.340   1.583  0.6113 -0.4684  0.2804
34167SOL    HW1 4508   9.978   1.355   1.670  2.6222 -2.2791  1.5600
34167SOL    HW2 4509   9.946   1.368   1.523 -0.8317  0.9240  2.4289
34168SOL     OW 4510   6.163   2.462   6.355 -0.6580  0.2818 -0.3267
34168SOL    HW1 4511   6.074   2.482   6.328 -0.6303  3.0147  1.1990
34168SOL    HW2 4512   6.153   2.420   6.441 -0.4899 -0.3315 -0.6020
34169SOL     OW 4513   7.244   0.894   8.452  0.2606 -0.0442  0.0105
34169SOL    HW1 4514   7.280   0.853   8.531 -1.2851 -0.4600  0.5401
34169SOL    HW2 4515   7.155   0.859   8.446 -0.0330  0.8731 -1.2817
34170SOL     OW 4516   0.802   2.512   5.937 -0.1553 -0.2726  0.0963
34170SOL    HW1 4517   0.758   2.510   5.852 -2.3039 -2.7405  1.1612
34170SOL    HW2 4518   0.762   2.586   5.984 -0.6315 -0.3569 -0.1816
34171SOL     OW 4519   2.721   8.001   7.332 -0.3046 -0.6117 -0.1658
34171SOL    HW1 4520   2.718   8.071   7.266  1.6366  1.6510  1.9340
34171SOL    HW2 4521   2.635   8.004   7.374 -0.0035  1.1088  0.3943
34172SOL     OW 4522   5.127   8.586   1.556 -0.1950  0.0091  0.4321
34172SOL    HW1 4523   5.140   8.568   1.649 -0.4442 -1.5681  0.1975
34172SOL    HW2 4524   5.130   8.500   1.515 -0.8591  0.6029 -0.9214
34173SOL     OW 4525   9.422   6.204  10.342  0.4734  0.2012 -0.3602
34173SOL    HW1 4526   9.332   6.210  10.309  0.3609  2.0615  0.1937
34173SOL    HW2 4527   9.443   6.111  10.337 -1.5132 -0.2834 -0.4250
34174SOL     OW 4528   0.071   1.325   5.782 -0.1550  0.5032  0.6339
34174SOL    HW1 4529  -0.014   1.363   5.760 -2.0872 -1.4584  3.8698
34174SOL    HW2 4530   0.103   1.288   5.699 -2.3767  1.4124 -0.7023
34175SOL     OW 4531   9.780   9.411  10.949  0.3460 -0.0612  0.3532
34175SOL    HW1 4532   9.766   9.422  10.855  1.7622 -0.4169  0.0694
34175SOL    HW2 4533   9.694   9.391  10.984 -0.2173  0.1320 -0.8666
34176SOL     OW 4534   2.006   4.974  10.830 -1.0948 -0.2488  0.5601
34176SOL    HW1 4535   2.090   4.936  10.856 -1.5178 -1.1084  0.6949
34176SOL    HW2 4536   1.942   4.934  10.889 -1.8567 -1.0184 -0.7409
34177SOL     OW 4537   8.186   9.651   3.351 -0.4672  0.4615  0.0456
34177SOL    HW1 4538   8.246   9.720   3.323  1.0150 -0.9890 -0.4924
34177SOL    HW2 4539   8.203   9.640   3.444  1.1696 -0.8709 -0.3604
34178SOL     OW 4540   1.301   9.578   7.372 -0.2645 -0.1645 -0.1608
34178SOL    HW1 4541   1.313   9.614   7.284  0.8936  0.6744  0.3155
34178SOL    HW2 4542   1.325   9.485   7.364 -1.4176 -0.4069 -0.9897
34179SOL     OW 4543   9.114   0.424   7.726  0.5087  0.2336 -0.0761
34179SOL    HW1 4544   9.178   0.469   7.669 -1.4827  3.0415 -0.3192
34179SOL    HW2 4545   9.067   0.366   7.667 -0.1707  1.5995 -0.9434
34180SOL     OW 4546  10.987   1.772   3.497 -0.0692 -0.2777  0.3667
34180SOL    HW1 4547  10.992   1.732   3.410  0.0457 -1.4360  0.8889
34180SOL    HW2 4548  10.962   1.863   3.480 -1.3353 -0.8066 -0.8119
34181SOL     OW 4549   1.231   5.383   8.461  0.1146 -0.5689 -0.1073
34181SOL    HW1 4550   1.246   5.325   8.536  0.8718 -0.0869  0.1310
34181SOL    HW2 4551   1.273   5.465   8.486 -1.3246  0.2396 -0.2539
34182SOL     OW 4552   9.332   0.647   5.489  0.2950  0.4267 -0.3747
34182SOL    HW1 4553   9.422   0.629   5.513  0.1478 -0.4537 -0.4315
34182SOL    HW2 4554   9.301   0.710   5.554  0.9892  0.8330 -0.4382
34183SOL     OW 4555   5.889   5.591   5.060 -0.1748  0.2376 -0.7445
34183SOL    HW1 4556   5.964   5.562   5.008  0.0918  0.5559 -0.5350
34183SOL    HW2 4557   5.830   5.515   5.061  0.8800 -0.6099  0.4958
34184SOL     OW 4558   1.974   2.630   5.871  0.1435  0.2742 -0.5462
34184SOL    HW1 4559   1.886   2.595   5.885  1.4988 -2.7579  1.6595
34184SOL    HW2 4560   1.984   2.699   5.937 -0.1946 -0.2568  0.0751
34185SOL     OW 4561   5.056   9.212   2.755  0.3457 -0.5143  0.0599
34185SOL    HW1 4562   5.041   9.143   2.819  1.3806  0.0126  0.9108
34185SOL    HW2 4563   5.079   9.166   2.675 -1.3828 -1.1901 -0.0767
34186SOL     OW 4564   5.422   8.174   4.469  0.2208  0.5375  0.0374
34186SOL    HW1 4565   5.378   8.251   4.507  0.1669  1.6794 -2.1819
34186SOL    HW2 4566   5.351   8.113   4.449 -0.1534  1.3963 -1.3760
34187SOL     OW 4567   5.369   9.814   6.655  0.2353 -0.3201 -0.3580
34187SOL    HW1 4568   5.299   9.777   6.708  0.8885 -2.8135 -1.1197
34187SOL    HW2 4569   5.356   9.777   6.568  1.3867  0.7037 -1.0042
34188SOL     OW 4570   8.483  10.094   2.803  0.0307 -0.0711  0.3414
34188SOL    HW1 4571   8.548  10.025   2.804  0.4688  0.3388  1.6463
34188SOL    HW2 4572   8.402  10.052   2.832 -0.1449 -0.4308 -0.6437
34189SOL     OW 4573   9.089   6.732   9.424  0.0216  0.4442 -0.0097
34189SOL    HW1 4574   9.038   6.809   9.401 -0.8277 -0.1298 -0.0742
34189SOL    HW2 4575   9.094   6.681   9.344 -2.2094 -1.1394  0.7631
34190SOL     OW 4576  10.224   3.276   6.584  0.0368  0.1522 -0.3519
34190SOL    HW1 4577  10.151   3.217   6.605 -0.3774 -0.2838 -2.7308
34190SOL    HW2 4578  10.197   3.360   6.621 -0.1930 -0.6750  1.5190
34191SOL     OW 4579   5.191   1.171   5.626  0.0922  0.4549 -0.5651
34191SOL    HW1 4580   5.116   1.175   5.566 -1.1852 -1.3010  0.8152
34191SOL    HW2 4581   5.156   1.131   5.706  1.9338  1.8846  1.0670
34192SOL     OW 4582   1.538   0.149   8.241 -0.5025 -0.2534  0.0486
34192SOL    HW1 4583   1.607   0.195   8.288 -0.7291 -0.5508  0.6727
34192SOL    HW2 4584   1.456   0.188   8.273 -0.6359  0.1447 -0.7359
34193SOL     OW 4585   6.597   9.752  10.578 -0.0928  0.6233  0.2863
34193SOL    HW1 4586   6.517   9.804  10.583  0.3673  1.6244 -1.5489
34193SOL    HW2 4587   6.664   9.815  10.550  1.0328 -0.4660  0.4636
34194SOL     OW 4588   3.193   4.222   8.492  0.1785  0.0166  0.1117
34194SOL    HW1 4589   3.213   4.151   8.553  2.1358 -0.0020 -0.4757
34194SOL    HW2 4590   3.257   4.290   8.514 -1.3013  1.4069  0.2881
34195SOL     OW 4591   4.891   0.208  10.921  0.5207  0.4256 -0.3076
34195SOL    HW1 4592   4.837   0.173  10.850  0.8107 -1.7810  0.4815
34195SOL    HW2 4593   4.981   0.202  10.888  0.7320 -1.3954  0.4939
34196SOL     OW 4594   4.246   9.156   3.501 -0.4193 -0.0324  0.2756
34196SOL    HW1 4595   4.168   9.179   3.551 -0.4179  0.3730  0.0936
34196SOL    HW2 4596   4.213   9.114   3.422 -0.4779  0.7000 -0.0929
34197SOL     OW 4597   8.866   7.358   1.313 -0.4493  0.5286 -0.2177
34197SOL    HW1 4598   8.934   7.381   1.249 -0.3063  0.6177 -0.0339
34197SOL    HW2 4599   8.866   7.430   1.375 -0.7591  0.5595 -0.2532
34198SOL     OW 4600   2.415   1.747   2.177  0.2352  0.0432 -0.5265
34198SOL    HW1 4601   2.347   1.763   2.111  0.6103 -0.0181 -0.9353
34198SOL    HW2 4602   2.461   1.669   2.146 -0.8024 -1.1587  0.8182
34199SOL     OW 4603   0.454  10.952   4.111 -0.0171 -0.0668  0.1661
34199SOL    HW1 4604   0.376  10.919   4.067  0.2042  0.1102 -0.3598
34199SOL    HW2 4605   0.420  11.005   4.183 -0.3781  0.2739 -0.2543
34200SOL     OW 4606   4.543   6.071   3.976  0.3462 -0.1093 -0.0259
34200SOL    HW1 4607   4.634   6.086   3.952  0.7205 -1.4540  0.5069
34200SOL    HW2 4608   4.503   6.034   3.897  0.0778  1.0943 -0.4748
34201SOL     OW 4609   0.248   5.214   2.131  0.1036 -0.0334  0.1139
34201SOL    HW1 4610   0.167   5.208   2.081  0.4503  2.2776 -0.8519
34201SOL    HW2 4611   0.249   5.303   2.166  1.4973 -0.5084  1.4105
34202SOL     OW 4612   3.357   6.720   1.905  0.7437  0.2397  0.1196
34202SOL    HW1 4613   3.289   6.758   1.959  1.7895  0.7245  1.1395
34202SOL    HW2 4614   3.310   6.666   1.841 -0.5275 -0.2561  1.4245
34203SOL     OW 4615   2.327   4.616  11.009 -0.3990 -0.4209 -0.1014
34203SOL    HW1 4616   2.338   4.619  11.104 -1.4985 -0.3529  0.0438
34203SOL    HW2 4617   2.310   4.524  10.989 -0.4705 -0.3889 -0.1907
34204SOL     OW 4618   1.619   2.326   2.029 -0.1659 -0.0660 -0.8745
34204SOL    HW1 4619   1.686   2.388   1.999 -0.4353  1.6930  1.8036
34204SOL    HW2 4620   1.668   2.250   2.060  0.3988  0.1253 -1.2867
34205SOL     OW 4621   5.315   7.593   1.398  0.1210  0.0268 -0.0338
34205SOL    HW1 4622   5.267   7.674   1.418  0.9623  0.4793  0.1786
34205SOL    HW2 4623   5.246   7.528   1.384 -0.5681  0.7563 -0.1218
34206SOL     OW 4624   0.051   1.339   8.711 -0.2371  0.6981 -0.0938
34206SOL    HW1 4625   0.096   1.423   8.699  1.6068 -0.0947  0.8566
34206SOL    HW2 4626  -0.024   1.360   8.767 -1.6607  2.2017 -2.3908
34207SOL     OW 4627   9.050   1.086   4.027  0.1958  0.0817 -0.0440
34207SOL    HW1 4628   9.127   1.108   3.975  0.2227  0.9458  0.3505
34207SOL    HW2 4629   9.001   1.024   3.972  0.8318  0.0412 -0.5766
34208SOL     OW 4630  10.481   4.526   0.628  0.2885 -0.1922 -0.3253
34208SOL    HW1 4631  10.481   4.605   0.575  1.2010 -0.5431 -0.8761
34208SOL    HW2 4632  10.542   4.544   0.699 -0.7490  0.1870  0.4907
34209SOL     OW 4633  10.981   9.109   8.269 -0.2224 -0.1762  0.4447
34209SOL    HW1 4634  10.953   9.080   8.182  1.5576 -0.7358  0.0223
34209SOL    HW2 4635  11.016   9.030   8.311 -0.5577  0.2028  1.4810
34210SOL     OW 4636   6.191  10.678   6.106 -0.2820 -0.0640  0.4304
34210SOL    HW1 4637   6.228  10.728   6.034  0.1255  0.5373  1.0529
34210SOL    HW2 4638   6.153  10.744   6.165  0.1573 -0.4740  1.1981
34211SOL     OW 4639  10.877   5.841   9.790 -0.0087  0.4596  0.2207
34211SOL    HW1 4640  10.968   5.871   9.788 -0.4905  2.0421  0.4609
34211SOL    HW2 4641  10.826   5.920   9.809 -1.2431 -0.7956  2.7033
34212SOL     OW 4642   9.990  10.835  10.199  0.4769 -0.2391  0.5395
34212SOL    HW1 4643   9.945  10.782  10.264 -1.1632  0.0441 -0.3121
34212SOL    HW2 4644  10.026  10.909  10.249  1.2494 -1.2117  1.4498
34213SOL     OW 4645   1.478   3.331   4.972  0.2854 -0.1154  0.6381
34213SOL    HW1 4646   1.385   3.334   4.951  0.1424 -0.7412  1.1408
34213SOL    HW2 4647   1.484   3.269   5.045  0.9198  1.0108  1.5647
34214SOL     OW 4648   7.077   2.588  10.640  0.0793 -0.0430  0.0860
34214SOL    HW1 4649   7.161   2.542  10.652  0.1804  0.1003 -0.0691
34214SOL    HW2 4650   7.090   2.673  10.682  0.1144  0.0948 -0.1982
34215SOL     OW 4651   2.527   6.670   4.228  0.5853 -0.5476  0.3947
34215SOL    HW1 4652   2.533   6.615   4.306  3.4329 -0.1622  0.5368
34215SOL    HW2 4653   2.573   6.621   4.160  2.7200  1.3056  0.3834
34216SOL     OW 4654  11.004   0.270   4.183  0.2921  0.2529 -0.2120
34216SOL    HW1 4655  11.034   0.269   4.092 -0.2370  2.4855 -0.4694
34216SOL    HW2 4656  11.044   0.347   4.221 -1.6102  0.8788  0.6690
34217SOL     OW 4657   6.166   6.354   9.655 -0.1916 -0.2012  0.0639
34217SOL    HW1 4658   6.171   6.396   9.569  0.0801 -1.2379 -0.4502
34217SOL    HW2 4659   6.082   6.380   9.690 -0.6111 -0.3133 -0.8286
34218SOL     OW 4660   1.222   3.412  10.545 -0.4683 -0.0346 -0.2951
34218SOL    HW1 4661   1.147   3.366  10.583 -0.3878  0.4876  0.5084
34218SOL    HW2 4662   1.290   3.410  10.612  0.0112  0.0780 -0.7635
34219SOL     OW 4663   2.098   4.581   5.556  0.0330 -0.0177 -0.0449
34219SOL    HW1 4664   2.035   4.634   5.506 -1.7610  0.3102  2.4019
34219SOL    HW2 4665   2.167   4.643   5.579 -0.1552  0.3325 -0.3973
34220SOL     OW 4666   4.600   8.787   4.576 -0.0986  0.4752 -0.5830
34220SOL    HW1 4667   4.566   8.833   4.499 -0.0412 -0.6507 -1.3010
34220SOL    HW2 4668   4.689   8.821   4.587  1.1767 -1.6781 -3.0712
34221SOL     OW 4669   3.881   1.586   6.937 -0.3161  0.0851  0.1830
34221SOL    HW1 4670   3.934   1.508   6.919 -0.5512 -0.1474  0.5000
34221SOL    HW2 4671   3.849   1.573   7.026 -1.1933  0.0550 -0.1316
34222SOL     OW 4672   1.671   5.381   0.275 -0.5476 -0.2682  0.1123
34222SOL    HW1 4673   1.759   5.376   0.240 -1.0104  0.4487 -1.2298
34222SOL    HW2 4674   1.645   5.290   0.290  0.3030 -0.4919  0.2509
34223SOL     OW 4675   5.610  10.667   7.929  0.2793 -0.0040 -0.3232
34223SOL    HW1 4676   5.700  10.636   7.942  0.1508 -0.3853 -0.3338
34223SOL    HW2 4677   5.558  10.587   7.926  0.1121  0.1350 -1.6850
34224SOL     OW 4678   3.784   7.547   6.183 -0.3395 -0.1612  0.0332
34224SOL    HW1 4679   3.803   7.594   6.102  0.4795  1.5549  1.1534
34224SOL    HW2 4680   3.689   7.541   6.187 -0.3783 -0.6527 -1.2295
34225SOL     OW 4681   3.030   4.958   8.639  0.3465  0.1264 -0.1474
34225SOL    HW1 4682   3.010   4.978   8.730  0.3440  2.5657 -0.5993
34225SOL    HW2 4683   2.958   4.998   8.589  1.4635  0.8142 -1.2918
34226SOL     OW 4684   6.315   1.509   8.922 -0.1319  0.4107  0.2186
34226SOL    HW1 4685   6.395   1.459   8.908 -0.6314  0.2025 -2.5921
34226SOL    HW2 4686   6.265   1.458   8.985  0.1780 -1.7235 -1.1710
34227SOL     OW 4687   6.185  10.054   9.089 -0.3043  0.2548 -0.3116
34227SOL    HW1 4688   6.274  10.059   9.053 -0.6222  1.4463 -0.9766
34227SOL    HW2 4689   6.199  10.041   9.183  0.5418 -2.0978 -0.6942
34228SOL     OW 4690   9.407   9.402   6.736  0.8819  0.2567  0.7591
34228SOL    HW1 4691   9.396   9.378   6.644 -1.5956  0.8463  0.8438
34228SOL    HW2 4692   9.466   9.334   6.771 -0.5373 -1.7804 -0.5515
34229SOL     OW 4693   6.266   6.426   1.950  0.5573  0.2980  0.8392
34229SOL    HW1 4694   6.274   6.474   2.033 -1.3763  1.4673  0.4186
34229SOL    HW2 4695   6.172   6.424   1.932  0.8776 -0.4510 -1.0401
34230SOL     OW 4696   9.243   9.909   1.883 -0.0203 -0.1729 -0.0123
34230SOL    HW1 4697   9.177   9.913   1.952  0.4471 -0.8785  0.4907
34230SOL    HW2 4698   9.196   9.877   1.806 -0.1414 -1.3492  0.5259
34231SOL     OW 4699   0.795   3.091  10.186  0.2239 -0.0731 -0.5442
34231SOL    HW1 4700   0.807   3.096  10.281 -0.9414  1.1369 -0.4423
34231SOL    HW2 4701   0.884   3.084  10.152  0.6226 -1.2902  0.6630
34232SOL     OW 4702   6.296   8.348   9.439  0.0129 -0.4435 -0.4981
34232SOL    HW1 4703   6.315   8.302   9.520 -0.0261 -1.0092 -0.8025
34232SOL    HW2 4704   6.336   8.434   9.450 -1.0397 -0.0609  0.6036
34233SOL     OW 4705   9.443   0.464   7.101  0.3662  0.0429 -0.2822
34233SOL    HW1 4706   9.377   0.473   7.032 -1.9016  2.4120  1.9913
34233SOL    HW2 4707   9.488   0.548   7.102  1.9349 -0.7567 -0.2729
34234SOL     OW 4708  10.611   1.323   9.558 -0.0667  0.7077  0.2873
34234SOL    HW1 4709  10.648   1.359   9.478  0.6060  1.7971  1.0621
34234SOL    HW2 4710  10.529   1.372   9.571 -0.1400  0.5826  0.3097
34235SOL     OW 4711   4.291   0.015   8.022  0.1795  0.1151  0.3519
34235SOL    HW1 4712   4.358  -0.042   7.986 -0.6093 -0.0528 -0.8918
34235SOL    HW2 4713   4.252  -0.037   8.093  0.0404 -0.5603 -0.2105
34236SOL     OW 4714   3.617   3.387   1.794 -0.0877 -0.8137  0.1372
34236SOL    HW1 4715   3.574   3.306   1.821 -0.5257 -0.2389  1.2148
34236SOL    HW2 4716   3.580   3.405   1.707 -1.8621 -0.4803  0.9118
34237SOL     OW 4717   9.033   6.578   4.662  0.3714 -0.0895  0.0157
34237SOL    HW1 4718   9.119   6.571   4.620  1.3884  1.7657  1.6348
34237SOL    HW2 4719   9.037   6.659   4.712 -2.9895  1.0398 -1.2455
34238SOL     OW 4720   3.977   2.756   3.616 -0.7385  0.0554 -0.6816
34238SOL    HW1 4721   3.951   2.847   3.611 -1.8245  0.1043  3.1554
34238SOL    HW2 4722   4.064   2.758   3.656 -0.2413 -0.6122 -1.6715
34239SOL     OW 4723   7.410   6.143   8.773  0.0201  0.8394  0.2188
34239SOL    HW1 4724   7.497   6.164   8.806  0.4059  0.9530 -0.8397
34239SOL    HW2 4725   7.357   6.221   8.794  0.6614  1.5891 -0.8559
34240SOL     OW 4726   6.013   3.194   4.350 -0.4035 -0.1255 -0.1691
34240SOL    HW1 4727   5.959   3.164   4.277 -1.0909  3.5194 -1.3619
34240SOL    HW2 4728   5.977   3.149   4.426 -1.4348 -2.0056 -1.6836
34241SOL     OW 4729   8.459   0.503   2.856 -0.0496  0.0340  0.0431
34241SOL    HW1 4730   8.487   0.440   2.789 -0.3037  0.1310 -0.1574
34241SOL    HW2 4731   8.401   0.563   2.809 -0.2607  0.0807  0.3623
34242SOL     OW 4732   8.062   7.642   9.567  0.0179  0.1799  0.2712
34242SOL    HW1 4733   8.092   7.721   9.522  0.2410 -0.9493 -1.6685
34242SOL    HW2 4734   8.141   7.592   9.585 -0.2436 -0.2750  0.1677
34243SOL     OW 4735   0.453   0.437   4.441 -0.1559  0.0952 -0.3548
34243SOL    HW1 4736   0.456   0.523   4.399 -0.5305 -0.4612 -1.5634
34243SOL    HW2 4737   0.487   0.452   4.529 -1.3551  1.7201 -0.1187
34244SOL     OW 4738   8.734   9.198   2.084  0.2845  0.5817 -0.0795
34244SOL    HW1 4739   8.654   9.246   2.063 -1.0545 -0.6120  1.9613
34244SOL    HW2 4740   8.741   9.132   2.015 -0.0775  1.1654 -0.6810
34245SOL     OW 4741   0.670   0.692   8.619  0.3785 -0.4001  0.0294
34245SOL    HW1 4742   0.681   0.740   8.537  1.4263  0.6119  0.7312
34245SOL    HW2 4743   0.716   0.745   8.684 -0.0885 -1.3882  1.2010
34246SOL     OW 4744   0.106  10.485   2.719  0.3714  0.3443 -0.1837
34246SOL    HW1 4745   0.117  10.455   2.809  2.1172  0.4750 -0.3079
34246SOL    HW2 4746   0.174  10.439   2.670  0.0265  0.9509 -1.2674
34247SOL     OW 4747   2.570   7.910   1.075  0.7237  0.1350 -0.5384
34247SOL    HW1 4748   2.545   7.931   1.165  2.2023  0.4607 -0.1868
34247SOL    HW2 4749   2.547   7.988   1.024  1.9823  0.8591 -0.0304
34248SOL     OW 4750   3.843   3.808   8.499  0.0405 -0.0048 -0.2643
34248SOL    HW1 4751   3.828   3.847   8.413 -1.8298 -0.2198 -0.0732
34248SOL    HW2 4752   3.762   3.824   8.547  0.8416 -0.3946  1.2634
34249SOL     OW 4753   5.533   0.881   8.477  0.1545 -0.2155  0.0681
34249SOL    HW1 4754   5.614   0.849   8.436  0.2894  1.0046 -0.6561
34249SOL    HW2 4755   5.491   0.934   8.410 -0.6813  0.1145  0.8313
34250SOL     OW 4756   9.836   6.254  10.888  0.5392 -0.2354  0.1029
34250SOL    HW1 4757   9.920   6.217  10.913  0.9527  1.6352  1.7691
34250SOL    HW2 4758   9.856   6.320  10.823  0.3635  0.2038  0.4897
34251SOL     OW 4759   6.280   4.327   7.414 -0.4389 -0.0058 -0.0357
34251SOL    HW1 4760   6.249   4.409   7.375 -1.3092  0.3768  1.3795
34251SOL    HW2 4761   6.371   4.344   7.437 -0.1698  0.0463 -1.1203
34252SOL     OW 4762  10.762   1.598   2.142  0.3121  0.2554 -0.3372
34252SOL    HW1 4763  10.724   1.597   2.054  1.6102  1.0678 -0.9388
34252SOL    HW2 4764  10.702   1.652   2.193 -0.5137 -0.3143 -0.6682
34253SOL     OW 4765   7.550   0.979   4.400  0.1184  0.1946 -0.4584
34253SOL    HW1 4766   7.559   0.892   4.361  2.5599  0.2713 -0.2071
34253SOL    HW2 4767   7.549   1.039   4.326  2.3066  0.1599 -0.5959
34254SOL     OW 4768   5.672   4.577   8.753  0.4678  0.6226 -0.0806
34254SOL    HW1 4769   5.577   4.585   8.743  0.5909  1.2865 -0.8312
34254SOL    HW2 4770   5.702   4.666   8.769  1.1049  0.6398 -1.2502
34255SOL     OW 4771   9.062  10.507   9.359  1.0018 -0.0765  0.9305
34255SOL    HW1 4772   8.982  10.555   9.379  1.4842  0.6877  1.0409
34255SOL    HW2 4773   9.116  10.569   9.310  1.8475 -0.3282  1.5206
34256SOL     OW 4774   1.554   5.720   9.603  0.5454  0.6911 -0.1605
34256SOL    HW1 4775   1.642   5.750   9.626  0.8072  0.4381 -0.7999
34256SOL    HW2 4776   1.535   5.651   9.667  0.7813  0.7988  0.0299
34257SOL     OW 4777   6.700   0.060   8.087  0.2509 -0.3268  0.2687
34257SOL    HW1 4778   6.707   0.019   8.001  1.0550 -0.3250  0.3207
34257SOL    HW2 4779   6.691  -0.012   8.148 -1.6189 -0.2916  0.0983
34258SOL     OW 4780   6.408   7.075   4.358 -0.1529 -0.5090  0.5100
34258SOL    HW1 4781   6.377   7.136   4.424 -0.8289 -1.3622  1.0120
34258SOL    HW2 4782   6.455   7.008   4.408  2.6957  0.7959 -0.2409
34259SOL     OW 4783   1.823   7.967   8.139  0.1077  0.4110  0.1406
34259SOL    HW1 4784   1.833   8.006   8.226 -0.0011  0.8626 -0.0479
34259SOL    HW2 4785   1.879   7.889   8.142  2.3721  1.9130 -0.2837
34260SOL     OW 4786   2.067   1.337   0.608  0.3979 -0.2892 -0.1515
34260SOL    HW1 4787   2.081   1.316   0.515 -0.3225 -0.7983 -0.1521
34260SOL    HW2 4788   2.156   1.346   0.644  0.7088  1.7233 -1.2716
34261SOL     OW 4789   6.788   1.272   6.232 -0.5735  0.0433 -0.3830
34261SOL    HW1 4790   6.832   1.227   6.304 -1.3346  0.4079  0.3352
34261SOL    HW2 4791   6.857   1.288   6.167 -0.5235 -3.3693 -1.3437
34262SOL     OW 4792   2.633   3.541   8.079 -0.5467 -0.3408  0.0771
34262SOL    HW1 4793   2.648   3.630   8.047  0.6753 -0.3033  0.7002
34262SOL    HW2 4794   2.690   3.486   8.024 -2.7940 -1.0637 -1.7092
34263SOL     OW 4795   5.190   8.605   9.895  0.1682 -0.1595  0.3317
34263SOL    HW1 4796   5.249   8.576   9.825  1.7840  1.1725  1.0659
34263SOL    HW2 4797   5.108   8.560   9.877  0.6574 -0.2236 -2.1359
34264SOL     OW 4798   0.592   5.966   8.886  0.0309 -0.6649 -0.9712
34264SOL    HW1 4799   0.497   5.975   8.878 -0.3995 -1.7519  1.9808
34264SOL    HW2 4800   0.618   5.920   8.806 -1.6136  1.1081 -2.6437
34265SOL     OW 4801   2.060   3.354   0.429 -0.0097  0.3439 -0.0638
34265SOL    HW1 4802   1.976   3.389   0.399  0.3413  2.0051  0.7184
34265SOL    HW2 4803   2.049   3.259   0.427 -2.0377  0.5153  0.3879
34266SOL     OW 4804   4.382   5.248   1.132  0.3852 -0.5297 -0.2576
34266SOL    HW1 4805   4.476   5.256   1.116  0.3221  0.3976 -0.2006
34266SOL    HW2 4806   4.342   5.265   1.047  0.3222 -2.8560 -0.7510
34267SOL     OW 4807   7.242   1.766   8.617 -0.2528  0.3084  0.4439
34267SOL    HW1 4808   7.224   1.679   8.651 -3.3432  0.2797 -0.8954
34267SOL    HW2 4809   7.305   1.753   8.546  1.6327 -0.3658  2.1758
34268SOL     OW 4810   3.020   3.724   4.742  0.1840 -0.1770  0.3617
34268SOL    HW1 4811   2.979   3.800   4.701  1.2199 -0.6131 -1.5911
34268SOL    HW2 4812   3.052   3.757   4.826  1.0276  1.6982 -0.6327
34269SOL     OW 4813   4.962   7.931   1.854 -0.8822  0.2455  0.2948
34269SOL    HW1 4814   5.002   8.012   1.886 -1.7531  0.7952  0.0241
34269SOL    HW2 4815   4.948   7.878   1.932  1.8856 -0.7087  0.2729
34270SOL     OW 4816   4.730   5.778   5.730  0.1590  0.7131 -0.2610
34270SOL    HW1 4817   4.656   5.828   5.763 -0.3180  0.2142 -0.5542
34270SOL    HW2 4818   4.804   5.805   5.784 -1.0855 -2.2291  3.3468
34271SOL     OW 4819   3.935   0.823   1.243  0.4900 -0.0961 -0.3142
34271SOL    HW1 4820   3.957   0.910   1.212 -0.0491 -0.0719 -0.6285
34271SOL    HW2 4821   4.017   0.789   1.279  0.9894  0.0777 -1.2753
34272SOL     OW 4822   8.305   5.599   3.298  0.1949 -0.1663 -0.0392
34272SOL    HW1 4823   8.336   5.585   3.387 -0.8435  0.1143  0.3784
34272SOL    HW2 4824   8.350   5.532   3.246  1.8597  0.5566  0.4385
34273SOL     OW 4825   0.321   0.769   5.320  0.0331 -0.4445 -0.0831
34273SOL    HW1 4826   0.291   0.859   5.312  1.0501 -0.2098 -1.8042
34273SOL    HW2 4827   0.380   0.757   5.246 -0.3491 -2.6345 -0.0966
34274SOL     OW 4828   3.936   6.958   5.654  0.4859  0.6615 -0.0038
34274SOL    HW1 4829   3.944   7.053   5.656 -1.8339  0.9133  0.4304
34274SOL    HW2 4830   3.844   6.942   5.634  0.3494 -1.4594  1.8771
34275SOL     OW 4831   1.533   5.955   2.163 -0.4809  0.1003 -0.0496
34275SOL    HW1 4832   1.451   5.993   2.195 -0.0032  1.1680 -0.0519
34275SOL    HW2 4833   1.524   5.862   2.182 -0.8319  0.4690  1.9077
34276SOL     OW 4834   4.060   3.987   4.657 -0.7910  0.1743  0.4912
34276SOL    HW1 4835   4.026   3.942   4.735 -1.3239 -0.7850 -0.2766
34276SOL    HW2 4836   3.986   3.989   4.596 -0.6773  1.8014  0.3589
34277SOL     OW 4837   5.846   2.523   5.587  0.1648  0.3360 -0.0980
34277SOL    HW1 4838   5.800   2.439   5.581  0.3067  0.3126 -1.2791
34277SOL    HW2 4839   5.776   2.588   5.589  0.0601  0.2415 -0.5284
34278SOL     OW 4840  10.039   1.427   8.101 -0.0292  0.5750  0.0810
34278SOL    HW1 4841  10.100   1.354   8.111 -2.0395 -1.4980 -1.6587
34278SOL    HW2 4842   9.990   1.428   8.183  0.2976  0.2414  0.2876
34279SOL     OW 4843   6.285   3.978   5.059  0.1385 -0.4946 -0.3130
34279SOL    HW1 4844   6.322   3.984   5.148  0.7294 -0.4659 -0.5561
34279SOL    HW2 4845   6.241   3.893   5.057 -0.0792 -0.3934  0.0845
34280SOL     OW 4846   1.602   1.634   4.159 -0.1755 -0.4352 -1.0815
34280SOL    HW1 4847   1.585   1.605   4.069 -1.9407 -2.2195 -0.2561
34280SOL    HW2 4848   1.669   1.574   4.192  0.9676  0.6434 -1.3783
34281SOL     OW 4849   2.069   3.104   0.497 -0.2856 -0.2425  0.5372
34281SOL    HW1 4850   2.163   3.085   0.504  0.1737  0.8176 -1.6781
34281SOL    HW2 4851   2.041   3.121   0.587  1.9506  0.6882  1.1389
34282SOL     OW 4852   6.829   1.686  10.378  0.3435 -0.2521  0.0757
34282SOL    HW1 4853   6.797   1.619  10.317 -0.0552 -1.4408  1.5257
34282SOL    HW2 4854   6.824   1.767  10.329 -1.3723 -0.9484 -1.0075
34283SOL     OW 4855   1.259   0.970   5.944  0.6667  0.2527 -0.2912
34283SOL    HW1 4856   1.334   1.020   5.975 -0.2915  0.7837  1.3108
34283SOL    HW2 4857   1.199   0.968   6.019 -1.2485  0.4998 -1.7402
34284SOL     OW 4858   2.734   7.448   4.636 -0.3194 -0.1070 -0.2148
34284SOL    HW1 4859   2.716   7.361   4.601 -0.3984  0.2434 -1.0876
34284SOL    HW2 4860   2.682   7.453   4.716  0.0807 -1.0401  0.1184
34285SOL     OW 4861   6.580   6.786   1.793  0.5335 -0.1592 -0.4936
34285SOL    HW1 4862   6.582   6.691   1.787 -0.3154 -0.3677  1.7005
34285SOL    HW2 4863   6.516   6.805   1.862  0.7372  1.9980 -0.8146
34286SOL     OW 4864   6.622   9.949   3.881  0.6568 -0.1767  0.2091
34286SOL    HW1 4865   6.592   9.957   3.791  0.1370 -1.2991  0.2622
34286SOL    HW2 4866   6.627  10.039   3.914 -1.0558  0.1299 -0.3117
34287SOL     OW 4867   6.577   5.796  10.751  0.2621 -0.4570 -0.1404
34287SOL    HW1 4868   6.632   5.782  10.828  2.1755 -0.3864 -1.4441
34287SOL    HW2 4869   6.609   5.877  10.712 -0.1697 -0.8730 -1.4258
34288SOL     OW 4870   7.300   8.166   9.897 -0.6780  0.4293 -0.0251
34288SOL    HW1 4871   7.366   8.108   9.860 -0.3842  0.2852  0.7037
34288SOL    HW2 4872   7.241   8.185   9.824  1.1168  1.9711 -1.1631
34289SOL     OW 4873   5.335   9.044   0.260  0.0399  0.4533  0.0113
34289SOL    HW1 4874   5.322   9.068   0.169  1.4326 -1.3389 -0.7367
34289SOL    HW2 4875   5.429   9.053   0.274  0.0796 -0.8500  0.7626
34290SOL     OW 4876   3.928  10.439  10.671  0.0549  0.4030  0.1930
34290SOL    HW1 4877   3.837  10.457  10.696 -0.2152  1.5166 -1.3805
34290SOL    HW2 4878   3.921  10.376  10.599  0.6212 -0.5465  0.9553
34291SOL     OW 4879   8.194   8.090   6.136 -0.2013  0.0117 -0.3715
34291SOL    HW1 4880   8.138   8.143   6.079 -1.5429 -0.9222  0.0131
34291SOL    HW2 4881   8.132   8.043   6.192  1.0299 -0.2953  0.7754
34292SOL     OW 4882  10.670   8.375   2.701  0.1914 -0.2705 -0.1004
34292SOL    HW1 4883  10.701   8.348   2.788 -0.1673 -1.4585 -0.3194
34292SOL    HW2 4884  10.625   8.297   2.667 -1.6368  0.8858 -0.4315
34293SOL     OW 4885   9.764   6.438   8.868 -0.4295 -0.0919 -0.8937
34293SOL    HW1 4886   9.818   6.474   8.939 -1.6201 -0.4569  0.2200
34293SOL    HW2 4887   9.814   6.362   8.837  0.4451  0.4855 -0.9356
34294SOL     OW 4888   9.160   2.549  10.331 -0.6020  0.0185 -0.1028
34294SOL    HW1 4889   9.108   2.582  10.404 -0.7365 -1.8471  0.6946
34294SOL    HW2 4890   9.096   2.533  10.261 -0.5875  1.0085 -0.3569
34295SOL     OW 4891   1.110   9.098   7.732  0.3713 -0.2702 -0.1180
34295SOL    HW1 4892   1.189   9.092   7.680  1.1810 -2.1024  1.1966
34295SOL    HW2 4893   1.042   9.057   7.678  1.2571 -2.3962  0.2805
34296SOL     OW 4894   4.781   6.293   7.736 -0.3265 -0.5196 -0.4159
34296SOL    HW1 4895   4.839   6.369   7.740 -0.4384 -0.2022 -3.0838
34296SOL    HW2 4896   4.693   6.329   7.732 -0.3560 -0.6667 -2.2916
34297SOL     OW 4897  10.306   3.735   4.827 -0.3670  0.0151 -0.1575
34297SOL    HW1 4898  10.259   3.686   4.760  0.3451 -0.6252 -0.2068
34297SOL    HW2 4899  10.370   3.787   4.779  0.9102 -1.2892  0.0571
34298SOL     OW 4900   8.597   7.441   9.247  0.7671 -0.1538 -0.0782
34298SOL    HW1 4901   8.594   7.438   9.151  3.6482 -1.6841 -0.2172
34298SOL    HW2 4902   8.613   7.351   9.273 -1.8266 -0.1268  2.0560
34299SOL     OW 4903   1.578  10.315   0.855 -0.2219  0.5799 -0.3287
34299SOL    HW1 4904   1.581  10.408   0.831 -1.3207  0.4632 -0.9809
34299SOL    HW2 4905   1.634  10.272   0.791 -1.0791  0.5939 -1.1045
34300SOL     OW 4906   4.739   9.832   2.703  0.2471  1.0217  0.0034
34300SOL    HW1 4907   4.711   9.746   2.736  1.3098  0.5872 -0.1940
34300SOL    HW2 4908   4.746   9.887   2.782  0.7505  0.5759  0.2781
34301SOL     OW 4909   9.929   1.145   5.167 -0.0349  0.1379  0.4925
34301SOL    HW1 4910   9.954   1.189   5.086  0.0318  0.8134  0.8708
34301SOL    HW2 4911  10.002   1.161   5.227 -0.6893  0.8423  1.1251
34302SOL     OW 4912   0.296   2.649   4.028  0.4341 -0.5097 -0.1355
34302SOL    HW1 4913   0.255   2.650   4.115  0.5792  0.2141 -0.0642
34302SOL    HW2 4914   0.379   2.695   4.041 -1.2977  3.3718 -1.4645
34303SOL     OW 4915   7.922   9.990   8.644  0.2642 -0.4223 -0.2554
34303SOL    HW1 4916   7.929   9.898   8.618  1.7818 -0.4755  0.2627
34303SOL    HW2 4917   7.838  10.019   8.608  0.0428 -1.8421 -0.9335
34304SOL     OW 4918   6.913   5.628   9.244 -0.8339  0.4854  0.1737
34304SOL    HW1 4919   6.883   5.585   9.164  0.5576  1.9081 -1.2032
34304SOL    HW2 4920   7.005   5.604   9.250 -0.8530  0.6512  1.1901
34305SOL     OW 4921   3.313   7.045   1.898 -0.5217 -0.9624 -0.3027
34305SOL    HW1 4922   3.259   6.997   1.962 -0.0306 -0.5837  0.4136
34305SOL    HW2 4923   3.391   6.991   1.887  0.6400  0.2484  1.5075
34306SOL     OW 4924   2.197   2.810   6.200  0.2198  0.0734  0.4290
34306SOL    HW1 4925   2.232   2.855   6.123 -1.6345 -2.1200 -1.9041
34306SOL    HW2 4926   2.137   2.872   6.239 -0.2832  0.5927 -1.1034
34307SOL     OW 4927   7.095   8.262   9.069  0.4104 -0.1116 -0.4161
34307SOL    HW1 4928   7.092   8.181   9.018 -2.4659 -0.5146  0.2199
34307SOL    HW2 4929   7.068   8.331   9.008 -1.2365 -0.3216  0.0227
34308SOL     OW 4930   2.181   2.224   2.233  0.3625 -0.2949  0.3437
34308SOL    HW1 4931   2.224   2.143   2.260 -0.4824 -0.1541  2.3136
34308SOL    HW2 4932   2.139   2.256   2.313 -3.0472 -0.2146 -1.3436
34309SOL     OW 4933   0.402  10.593   3.731 -0.0074 -0.2465  0.2711
34309SOL    HW1 4934   0.385  10.684   3.755  1.0043 -0.2726  1.1892
34309SOL    HW2 4935   0.405  10.546   3.814  2.5772 -0.5354  0.1057
34310SOL     OW 4936   5.405  10.626   5.792  0.2829 -0.3114  0.2022
34310SOL    HW1 4937   5.379  10.669   5.711  1.9278  0.7365  0.1793
34310SOL    HW2 4938   5.381  10.688   5.861  0.2696 -0.5303  0.3964
34311SOL     OW 4939   5.001  10.294   3.824  0.2402  0.7283 -0.1028
34311SOL    HW1 4940   5.015  10.200   3.835  0.7862  0.8441  0.2576
34311SOL    HW2 4941   4.920  10.312   3.872  1.2078  0.7711  1.6329
34312SOL     OW 4942   1.834   2.122   5.524  0.4002 -0.4892  0.5343
34312SOL    HW1 4943   1.750   2.110   5.569 -0.7009 -0.7126 -1.4697
34312SOL    HW2 4944   1.822   2.202   5.472  1.3297 -0.6750  0.0149
34313SOL     OW 4945   4.109   4.304   5.442  0.4875  0.0347 -0.2896
34313SOL    HW1 4946   4.023   4.323   5.405  0.6262  1.3265  0.0290
34313SOL    HW2 4947   4.129   4.215   5.411 -0.7115 -0.0687 -0.8124
34314SOL     OW 4948  10.504   4.313   4.186  0.3722  0.2031  0.6963
34314SOL    HW1 4949  10.460   4.294   4.104 -1.3776  0.7015  1.4702
34314SOL    HW2 4950  10.574   4.247   4.192 -0.4978 -0.8628 -0.4232
34315SOL     OW 4951   9.573   6.670   2.233 -0.5203  0.1022 -0.1205
34315SOL    HW1 4952   9.626   6.595   2.208  1.4169  0.9928  1.1040
34315SOL    HW2 4953   9.634   6.743   2.235 -1.5124  0.9806  2.3413
34316SOL     OW 4954   8.980   0.433   5.252 -0.2500 -0.4122  0.0257
34316SOL    HW1 4955   8.961   0.372   5.180  2.9679 -1.4095 -0.0992
34316SOL    HW2 4956   8.956   0.384   5.331 -2.7317  0.2778 -0.1926
34317SOL     OW 4957   1.752   0.746   5.768  0.2757  0.1568  0.2160
34317SOL    HW1 4958   1.698   0.774   5.841 -1.5121 -0.6269 -0.7629
34317SOL    HW2 4959   1.750   0.820   5.707 -1.8822 -0.7905 -0.9661
34318SOL     OW 4960   9.543   1.865   5.065  0.0135  0.1403 -0.8110
34318SOL    HW1 4961   9.632   1.872   5.029 -0.5076  2.2417 -1.8625
34318SOL    HW2 4962   9.498   1.944   5.033 -1.7142  0.0555  1.1853
34319SOL     OW 4963   8.838  10.697   0.427 -0.0138 -0.2837  0.1838
34319SOL    HW1 4964   8.864  10.625   0.370 -0.2199  1.0959 -1.7182
34319SOL    HW2 4965   8.745  10.684   0.442 -0.2421  0.0691 -0.8927
34320SOL     OW 4966   0.657   6.180   2.207  0.4617 -0.1520  0.2546
34320SOL    HW1 4967   0.683   6.124   2.280 -2.5083 -1.0250  0.7996
34320SOL    HW2 4968   0.637   6.120   2.136  2.6519  0.6550 -1.1199
34321SOL     OW 4969   8.849   9.731   5.393 -0.7351  0.1296 -0.2126
34321SOL    HW1 4970   8.766   9.684   5.384  0.0506 -0.9536 -2.8915
34321SOL    HW2 4971   8.840   9.781   5.474 -2.8397 -2.2339  1.1432
34322SOL     OW 4972   1.052   6.568  10.682 -0.3289  0.2245  0.2725
34322SOL    HW1 4973   0.969   6.521  10.682  0.8326 -2.1730 -2.4694
34322SOL    HW2 4974   1.037   6.643  10.624 -0.0472 -1.6420 -2.4056
34323SOL     OW 4975   2.338   0.030   8.220  0.9792 -0.8371  0.5720
34323SOL    HW1 4976   2.301   0.026   8.308 -1.3720 -0.8537 -0.3418
34323SOL    HW2 4977   2.365   0.122   8.210 -2.5657  0.3363 -0.0036
34324SOL     OW 4978   6.008   0.542   0.332 -0.2767  0.1923 -0.1609
34324SOL    HW1 4979   6.098   0.568   0.349 -0.3196  0.2995 -0.1011
34324SOL    HW2 4980   5.955   0.615   0.363 -0.4868 -0.6426  1.5867
34325SOL     OW 4981  10.934  10.503   0.244  0.7604  0.0834  0.0417
34325SOL    HW1 4982  10.954  10.425   0.192  0.3698  0.8328 -1.2759
34325SOL    HW2 4983  10.963  10.576   0.190  1.2311  0.8584  1.3117
34326SOL     OW 4984   0.387   5.674   5.703  0.0556 -0.2772  0.1161
34326SOL    HW1 4985   0.296   5.695   5.725  0.8737  0.9788  2.7930
34326SOL    HW2 4986   0.436   5.752   5.728  1.5981  0.6492 -4.7556
34327SOL     OW 4987   9.422  10.995   3.692 -0.5667 -0.4047  0.2759
34327SOL    HW1 4988   9.380  10.913   3.666  0.5125 -0.5824 -1.0043
34327SOL    HW2 4989   9.490  11.009   3.626  1.0210  0.1613  1.9555
34328SOL     OW 4990   1.910   2.874  10.318 -0.2247 -0.0177 -0.1678
34328SOL    HW1 4991   1.869   2.914  10.394 -0.4921  0.7722 -0.7218
34328SOL    HW2 4992   1.847   2.809  10.287 -1.7857  2.1745 -1.8818
34329SOL     OW 4993   5.214   9.425   6.802 -0.1019 -0.8072  0.5381
34329SOL    HW1 4994   5.136   9.471   6.770  0.0158 -0.9582  0.0243
34329SOL    HW2 4995   5.209   9.339   6.761 -0.0873 -1.0983  1.1505
34330SOL     OW 4996   9.355   8.703   2.850 -0.2258 -0.0212 -0.1268
34330SOL    HW1 4997   9.423   8.766   2.875 -0.3912 -0.3449  1.2415
34330SOL    HW2 4998   9.275   8.736   2.891 -0.9535  0.4141 -1.8150
34331SOL     OW 4999   7.550   2.922   0.627 -0.3153  0.1052  0.5998
34331SOL    HW1 5000   7.537   2.948   0.718 -0.2692  0.9692  0.3606
34331SOL    HW2 5001   7.605   2.990   0.589  0.4979 -0.7644  0.1803
34332SOL     OW 5002   3.239   4.830   5.598 -0.3190  0.0103  0.1100
34332SOL    HW1 5003   3.334   4.820   5.595 -0.2247  0.3275  1.5143
34332SOL    HW2 5004   3.211   4.821   5.507  0.9934 -0.6399 -0.2493
34333SOL     OW 5005   8.254   8.918   9.581  0.0296 -0.3455 -0.0064
34333SOL    HW1 5006   8.209   8.846   9.536 -1.4378 -1.5471  3.1072
34333SOL    HW2 5007   8.283   8.881   9.664  0.5433  2.3097  1.1161
34334SOL     OW 5008   6.732   3.677   6.795 -0.0475  0.9011  0.3831
34334SOL    HW1 5009   6.707   3.769   6.788  0.5498  1.1226  0.9956
34334SOL    HW2 5010   6.687   3.646   6.874 -0.1302  0.7134  0.2621
34335SOL     OW 5011   4.939   1.769  10.586  0.1406 -0.1827 -0.3373
34335SOL    HW1 5012   4.890   1.827  10.528  0.1143  0.7089  0.5398
34335SOL    HW2 5013   4.913   1.681  10.561 -1.1108  0.2454 -0.5826
34336SOL     OW 5014   3.118   0.222   8.612  0.3416  0.6061  0.2515
34336SOL    HW1 5015   3.083   0.236   8.700  0.5014  0.4225  0.3442
34336SOL    HW2 5016   3.158   0.306   8.589  0.2383  0.6759  0.3250
34337SOL     OW 5017   8.417   4.833   8.794  0.1593  0.2137  0.2391
34337SOL    HW1 5018   8.437   4.857   8.885  0.0636  0.8730  0.0924
34337SOL    HW2 5019   8.322   4.842   8.787 -0.1284 -1.9830  0.6707
34338SOL     OW 5020   9.812   8.596   2.675  0.2625 -0.1987 -0.0983
34338SOL    HW1 5021   9.841   8.505   2.677 -0.4709 -0.4326  0.8237
34338SOL    HW2 5022   9.737   8.596   2.615  0.5022 -0.1283 -0.3969
34339SOL     OW 5023   2.871   1.945   7.844  0.7750 -0.0224  0.3333
34339SOL    HW1 5024   2.883   2.029   7.890  0.3974 -0.8013  1.9376
34339SOL    HW2 5025   2.880   1.879   7.913  2.2515 -1.3983 -1.0988
34340SOL     OW 5026   0.657   6.726   5.669  0.3770  0.4782 -0.0571
34340SOL    HW1 5027   0.582   6.667   5.679  0.2983  0.5182 -0.3944
34340SOL    HW2 5028   0.630   6.806   5.715  2.1756 -1.1447  4.4300
34341SOL     OW 5029   7.617   0.605   1.774 -0.0392 -0.5653  0.4246
34341SOL    HW1 5030   7.524   0.580   1.775  0.2474 -1.8683  2.4977
34341SOL    HW2 5031   7.622   0.678   1.835  0.0183  0.9177 -1.2992
34342SOL     OW 5032   3.208   4.190   2.254 -0.6179 -0.2571 -0.0122
34342SOL    HW1 5033   3.282   4.137   2.283 -0.3842  0.3808  0.5793
34342SOL    HW2 5034   3.158   4.208   2.333 -0.5078  0.6814 -0.1429
34343SOL     OW 5035   6.292   6.515   6.873 -0.3309  0.3884  0.1703
34343SOL    HW1 5036   6.201   6.541   6.883 -0.9197 -0.5075 -2.1054
34343SOL    HW2 5037   6.295   6.423   6.899 -0.1293  0.3564  0.0449
34344SOL     OW 5038   2.320  10.940   7.881 -0.0986  0.4067 -0.0374
34344SOL    HW1 5039   2.293  11.020   7.927 -0.0609  0.5629 -0.2887
34344SOL    HW2 5040   2.273  10.942   7.798 -0.7129 -0.2290  0.2833
34345SOL     OW 5041  10.453  10.213  10.129 -0.0002 -0.1244  0.8013
34345SOL    HW1 5042  10.435  10.209  10.035  1.1607 -0.0177  0.5670
34345SOL    HW2 5043  10.389  10.152  10.168 -1.4691  0.9199  0.1182
34346SOL     OW 5044   5.970   3.638  10.545  0.8288 -0.0668 -0.3468
34346SOL    HW1 5045   5.924   3.653  10.628  0.9788 -1.3040 -0.0106
34346SOL    HW2 5046   5.946   3.712  10.490  1.0903  1.0272  0.9535
34347SOL     OW 5047   9.454   4.967   8.750  0.2175  0.0840  0.1379
34347SOL    HW1 5048   9.414   4.924   8.826  0.4741 -0.6364 -0.1291
34347SOL    HW2 5049   9.479   4.895   8.692  2.2526  0.4606  0.4723
34348SOL     OW 5050   6.168   1.304   8.204 -0.1262  0.4083  0.5378
34348SOL    HW1 5051   6.260   1.327   8.220  0.4207 -2.0660  1.4378
34348SOL    HW2 5052   6.152   1.229   8.261 -2.0261 -0.6728 -1.2823
34349SOL     OW 5053   1.854   2.517   4.902 -0.0610 -0.3095 -0.3184
34349SOL    HW1 5054   1.942   2.480   4.893  0.7167  1.0221  1.3245
34349SOL    HW2 5055   1.842   2.529   4.996 -1.0117  1.8102 -0.6504
34350SOL     OW 5056   8.965   8.952   8.968  0.0486  0.4800 -0.3564
34350SOL    HW1 5057   9.006   8.935   9.053 -0.2243  0.3406 -0.2528
34350SOL    HW2 5058   9.028   8.917   8.904 -1.3405 -2.8914 -0.1144
34351SOL     OW 5059   0.771   1.315   3.809 -0.0228 -0.7089 -0.0361
34351SOL    HW1 5060   0.755   1.238   3.863  1.2350 -1.2834 -0.4705
34351SOL    HW2 5061   0.817   1.282   3.732 -0.1471  0.3716 -0.5964
34352SOL     OW 5062   4.181   5.835   0.344 -0.1562  0.1443 -0.4665
34352SOL    HW1 5063   4.266   5.837   0.388  0.0693  2.5714 -0.8292
34352SOL    HW2 5064   4.118   5.854   0.414 -0.3696 -1.1273 -0.2954
34353SOL     OW 5065   5.681   7.168   2.595  0.1611 -0.0776 -0.1447
34353SOL    HW1 5066   5.651   7.127   2.514 -1.2482  1.4788 -0.4532
34353SOL    HW2 5067   5.755   7.222   2.569 -0.0735  0.1508 -0.3462
34354SOL     OW 5068   0.316   2.177   4.618 -0.0249  0.1324  0.3761
34354SOL    HW1 5069   0.305   2.109   4.551  0.9131  0.5737 -0.2343
34354SOL    HW2 5070   0.229   2.217   4.625  0.0954  0.7326 -1.2914
34355SOL     OW 5071   1.022   6.823   0.492  0.3749  0.0221  0.1205
34355SOL    HW1 5072   0.986   6.755   0.435 -0.9864  1.0968 -0.3629
34355SOL    HW2 5073   1.099   6.783   0.532 -0.4090 -1.8163 -0.1049
34356SOL     OW 5074   2.539  10.320   1.611  0.0281  0.9097  0.2099
34356SOL    HW1 5075   2.582  10.289   1.690 -2.6367  0.5344  1.6197
34356SOL    HW2 5076   2.610  10.328   1.547  1.5526 -5.0339  0.5903
34357SOL     OW 5077   3.057   8.794   2.409  0.6347  0.7565 -0.1702
34357SOL    HW1 5078   3.027   8.857   2.343 -1.6013  0.8669  0.8672
34357SOL    HW2 5079   3.098   8.847   2.477 -0.9473  1.1350  0.5418
34358SOL     OW 5080   6.811  10.841   3.361 -0.4903  0.2906 -0.2374
34358SOL    HW1 5081   6.720  10.818   3.380 -0.6879  1.8611  0.9576
34358SOL    HW2 5082   6.855  10.757   3.347 -2.1303 -0.4888 -0.9618
34359SOL     OW 5083   9.992   9.535   3.781 -0.3248 -0.0543  0.2351
34359SOL    HW1 5084   9.951   9.450   3.799  1.4579 -0.8927  0.5576
34359SOL    HW2 5085  10.048   9.551   3.856  0.0004  1.0244 -0.2192
34360SOL     OW 5086   5.339   3.726   8.904 -0.2337  0.6471 -0.5068
34360SOL    HW1 5087   5.309   3.766   8.822 -1.5231  1.8383  0.4928
34360SOL    HW2 5088   5.264   3.734   8.963  0.8640  0.3676  0.9778
34361SOL     OW 5089   1.768   9.489   8.749  0.3892 -0.1177  0.7113
34361SOL    HW1 5090   1.732   9.500   8.837 -0.3450 -0.1938  0.4300
34361SOL    HW2 5091   1.751   9.573   8.706  0.5492 -0.1566  0.5734
34362SOL     OW 5092   5.763  10.505   1.251  0.3529 -0.5820  0.2690
34362SOL    HW1 5093   5.797  10.525   1.338  0.0560 -0.8624  0.4492
34362SOL    HW2 5094   5.817  10.557   1.192 -0.8779  1.3634  0.7755
34363SOL     OW 5095   8.574   9.700   5.276 -0.0991 -0.1698  0.4219
34363SOL    HW1 5096   8.582   9.622   5.330  0.0244 -0.0785  0.5360
34363SOL    HW2 5097   8.573   9.668   5.186  0.7255 -0.2437  0.4369
34364SOL     OW 5098   2.067   9.719   3.431  0.2378  0.2409 -0.2176
34364SOL    HW1 5099   2.017   9.649   3.388 -0.5734  1.1717 -0.8271
34364SOL    HW2 5100   2.051   9.705   3.525  1.4566 -1.3806 -0.1983
34365SOL     OW 5101   0.316   8.587   6.082 -0.3813  0.4957  0.1759
34365SOL    HW1 5102   0.275   8.606   5.997 -1.6047  1.5272  0.9571
34365SOL    HW2 5103   0.397   8.542   6.059  0.1114  2.1397 -1.6240
34366SOL     OW 5104   7.482   6.001   2.259  0.1421  0.4672 -0.0675
34366SOL    HW1 5105   7.549   5.968   2.199  0.7316  0.0443  0.8025
34366SOL    HW2 5106   7.442   6.074   2.212  1.7735  1.2617 -0.2893
34367SOL     OW 5107   8.603   1.149   9.312 -0.7629 -0.8237  0.4539
34367SOL    HW1 5108   8.593   1.208   9.237  0.0416 -0.2564  0.7831
34367SOL    HW2 5109   8.666   1.083   9.283 -0.5555 -0.6821  0.5787
34368SOL     OW 5110   9.449   7.103   7.477  0.3416 -0.0252 -0.1349
34368SOL    HW1 5111   9.437   7.198   7.475 -0.7092 -0.1596 -0.7224
34368SOL    HW2 5112   9.384   7.072   7.540  0.1426 -0.4231 -0.5314
34369SOL     OW 5113  10.690   2.949   9.653  0.0256 -0.3088 -0.3694
34369SOL    HW1 5114  10.699   3.044   9.661  2.1842 -0.4550 -0.6902
34369SOL    HW2 5115  10.742   2.914   9.725  0.3628 -1.2700 -1.0667
34370SOL     OW 5116   6.550   8.441   6.664 -0.5801  0.2259  0.5254
34370SOL    HW1 5117   6.608   8.465   6.736  0.2487  1.7490 -0.5851
34370SOL    HW2 5118   6.463   8.467   6.695 -0.4038 -0.2021  1.4155
34371SOL     OW 5119   1.922   9.822   3.926 -0.1538 -0.8572  0.1556
34371SOL    HW1 5120   1.839   9.820   3.973 -0.0899 -2.0553  0.2345
34371SOL    HW2 5121   1.972   9.892   3.969 -0.3107 -1.5480  1.5253
34372SOL     OW 5122  10.116  10.971   3.794  0.3645  0.3039 -0.1365
34372SOL    HW1 5123  10.095  10.923   3.874  3.4193  1.8704  1.7931
34372SOL    HW2 5124  10.044  11.034   3.783 -1.0132 -1.1435  0.2469
34373SOL     OW 5125   7.896   6.096   4.695 -0.1640 -0.0419 -0.5260
34373SOL    HW1 5126   7.930   6.044   4.622 -2.2231  0.3675 -1.8830
34373SOL    HW2 5127   7.849   6.168   4.652 -2.0300 -0.1681  1.1765
34374SOL     OW 5128  11.030   3.551   7.610  0.1492  0.0219  0.3291
34374SOL    HW1 5129  11.006   3.479   7.551  0.5926 -0.9572  1.3024
34374SOL    HW2 5130  10.980   3.626   7.577 -0.2089 -0.6813 -0.8133
34375SOL     OW 5131   7.268   6.084   1.102  0.5325 -0.0478  0.4041
34375SOL    HW1 5132   7.268   6.004   1.155 -0.5909 -1.2493 -1.3311
34375SOL    HW2 5133   7.207   6.066   1.031  0.5044  2.2514 -0.2285
34376SOL     OW 5134  10.893   3.752   6.886  0.2390  0.5036 -0.5004
34376SOL    HW1 5135  10.920   3.699   6.811 -1.2969 -2.1900  0.7180
34376SOL    HW2 5136  10.941   3.717   6.960 -2.5218 -0.9581  0.7669
34377SOL     OW 5137   4.488   1.777   3.721 -0.2269  0.2631 -0.2446
34377SOL    HW1 5138   4.446   1.831   3.788 -0.8161  1.6162 -1.6465
34377SOL    HW2 5139   4.417   1.725   3.684  0.2467 -1.1288  0.7267
34378SOL     OW 5140   7.665   3.406   1.620  0.2147  0.3523  0.3497
34378SOL    HW1 5141   7.671   3.494   1.583 -1.6402  0.3020 -0.1756
34378SOL    HW2 5142   7.573   3.382   1.611  0.6861 -1.7056  0.3344
34379SOL     OW 5143   6.354  10.848   1.222  0.8430  0.1705  0.2107
34379SOL    HW1 5144   6.280  10.898   1.188 -0.2321 -0.8140  1.0126
34379SOL    HW2 5145   6.341  10.846   1.316  1.1267 -1.1580  0.2490
34380SOL     OW 5146   9.752   7.814   4.090  0.3096 -0.1542  0.0176
34380SOL    HW1 5147   9.735   7.757   4.015  0.6517 -0.0608 -0.1310
34380SOL    HW2 5148   9.806   7.884   4.055  0.5998 -0.1924  0.3844
34381SOL     OW 5149   7.703   2.258   1.109 -0.5651  0.2370  0.3764
34381SOL    HW1 5150   7.791   2.294   1.100 -1.1004  2.0350  1.7944
34381SOL    HW2 5151   7.669   2.297   1.189 -2.5321 -0.6992  0.0542
34382SOL     OW 5152   8.330   8.008   0.757 -0.4501 -0.4415 -0.0531
34382SOL    HW1 5153   8.329   8.081   0.695  2.7247 -1.2581 -1.2908
34382SOL    HW2 5154   8.381   8.040   0.831  0.8439 -1.2839 -0.5433
34383SOL     OW 5155   1.818   8.410   3.612  0.1489 -0.3017 -0.2712
34383SOL    HW1 5156   1.736   8.399   3.565 -0.0724 -0.6479  0.1903
34383SOL    HW2 5157   1.884   8.369   3.556  0.3391  1.7108 -1.5940
34384SOL     OW 5158   8.695  10.734   5.116  0.3551  0.1916  0.7068
34384SOL    HW1 5159   8.719  10.667   5.051  2.0707  0.0713  1.4167
34384SOL    HW2 5160   8.724  10.816   5.077  0.6068  0.2173  0.9489
34385SOL     OW 5161   5.668   8.940   8.614 -0.6968 -0.0121  0.6393
34385SOL    HW1 5162   5.704   8.883   8.547 -2.1732 -1.8722  1.3593
34385SOL    HW2 5163   5.725   8.926   8.690 -0.1010  0.7261  0.3392
34386SOL     OW 5164   4.342   2.854   6.866  0.1024 -0.2168  0.5512
34386SOL    HW1 5165   4.408   2.795   6.901  0.2461  0.1521  0.9025
34386SOL    HW2 5166   4.369   2.941   6.894 -0.6686 -0.0828  0.9157
34387SOL     OW 5167   0.121   6.451   4.435  0.8846 -0.0850  0.6200
34387SOL    HW1 5168   0.146   6.530   4.388  0.6915 -0.1984  0.3273
34387SOL    HW2 5169   0.078   6.396   4.370 -1.5642  0.7409  1.4260
34388SOL     OW 5170   7.071   6.021   5.215  0.1782  0.3030 -0.4762
34388SOL    HW1 5171   7.084   6.112   5.242 -1.2888  0.2679  0.4899
34388SOL    HW2 5172   7.012   5.985   5.282  0.3862 -1.2334 -1.0867
34389SOL     OW 5173   8.162   4.509   2.413 -0.1122  0.1857  0.1714
34389SOL    HW1 5174   8.079   4.543   2.379 -1.4405 -0.0755  2.8711
34389SOL    HW2 5175   8.143   4.417   2.433  0.3686  0.4514  2.0359
34390SOL     OW 5176  10.266   2.841   9.225 -0.3850  0.1096 -0.2152
34390SOL    HW1 5177  10.282   2.930   9.195  0.7445 -0.8520 -2.7820
34390SOL    HW2 5178  10.170   2.834   9.227 -0.4904  1.1245 -0.8164
34391SOL     OW 5179   9.422   5.492   8.755 -0.1027  0.2048  0.0353
34391SOL    HW1 5180   9.328   5.479   8.740 -0.1046 -1.4627  1.2887
34391SOL    HW2 5181   9.427   5.564   8.818 -0.6263 -0.6948  1.1276
34392SOL     OW 5182   2.226   0.490   1.849  0.3806 -0.2033 -0.2110
34392SOL    HW1 5183   2.260   0.499   1.938 -1.7261  1.4489  0.5373
34392SOL    HW2 5184   2.155   0.426   1.857  0.6523 -0.5936 -0.8732
34393SOL     OW 5185   2.486   9.229   6.111  0.2648 -0.6180  0.0044
34393SOL    HW1 5186   2.492   9.221   6.015 -3.3068  1.4103 -0.5536
34393SOL    HW2 5187   2.550   9.296   6.133 -0.9849  1.1831 -1.5040
34394SOL     OW 5188   5.293   8.941   7.819  0.0220  0.1057 -0.5823
34394SOL    HW1 5189   5.325   8.881   7.751  1.1756  1.2309 -1.0833
34394SOL    HW2 5190   5.365   9.003   7.832 -0.3248  0.1523  1.4140
34395SOL     OW 5191   2.608  10.982   6.229 -0.1467 -0.7322  0.2815
34395SOL    HW1 5192   2.540  10.970   6.162  0.3541  1.0134 -0.5873
34395SOL    HW2 5193   2.561  11.017   6.305 -0.5360 -1.6360  0.4729
34396SOL     OW 5194   4.353   5.676   6.362  0.1531  0.1811  0.8814
34396SOL    HW1 5195   4.298   5.633   6.296 -1.1975 -0.8312  2.5790
34396SOL    HW2 5196   4.296   5.742   6.401  1.2462  1.4367  0.4351
34397SOL     OW 5197   6.129  10.441   8.282  0.4709  0.0970  0.1872
34397SOL    HW1 5198   6.102  10.396   8.362 -0.6268  1.5955  0.7038
34397SOL    HW2 5199   6.224  10.429   8.279  0.8552  1.6270  2.8157
34398SOL     OW 5200   5.562  10.953   0.993 -0.0257 -0.1993  0.0441
34398SOL    HW1 5201   5.604  10.969   1.078 -0.0998 -1.1759  0.2775
34398SOL    HW2 5202   5.559  11.039   0.952  1.7774 -0.0089  0.2145
34399SOL     OW 5203   3.656   4.176   3.506  0.6365  0.0589 -0.2171
34399SOL    HW1 5204   3.735   4.227   3.490  0.4100  0.6838  0.6358
34399SOL    HW2 5205   3.675   4.125   3.585  0.2404  0.1082 -0.0873
34400SOL     OW 5206   3.908   6.107   6.411 -0.1572 -0.1668  0.1778
34400SOL    HW1 5207   3.816   6.114   6.386  0.4473  0.7551 -1.9827
34400SOL    HW2 5208   3.956   6.144   6.337  2.1370 -3.4614 -0.2094
34401SOL     OW 5209   3.112   5.891   2.827  0.0688  0.5458  0.1228
34401SOL    HW1 5210   3.187   5.834   2.843 -1.3742 -1.5053 -0.0197
34401SOL    HW2 5211   3.054   5.876   2.901 -0.6004  1.3953 -0.2180
34402SOL     OW 5212   2.294   8.769   3.026  0.0577  0.0032 -0.4606
34402SOL    HW1 5213   2.237   8.781   3.102  1.9326 -0.5130  1.1024
34402SOL    HW2 5214   2.234   8.753   2.954 -1.8900  2.4525  0.4762
34403SOL     OW 5215   0.570   5.777   8.267 -0.0354  0.0736 -0.5204
34403SOL    HW1 5216   0.646   5.782   8.324 -1.3010  0.0378  1.2705
34403SOL    HW2 5217   0.576   5.854   8.212 -0.8735  2.5158  2.5192
34404SOL     OW 5218   1.829   8.003   1.042  0.1241  0.0534 -0.1534
34404SOL    HW1 5219   1.762   7.946   1.004 -1.0110 -0.2040  2.0452
34404SOL    HW2 5220   1.779   8.073   1.084  1.2472  0.1757  1.0256
34405SOL     OW 5221   7.224   7.144   2.124 -0.0452 -0.0156 -0.4812
34405SOL    HW1 5222   7.174   7.185   2.053 -0.7159 -0.5932 -0.3624
34405SOL    HW2 5223   7.241   7.055   2.092 -0.8878 -0.4849  0.3117
34406SOL     OW 5224   4.773   6.286   9.310 -0.3261 -0.0785 -0.4065
34406SOL    HW1 5225   4.810   6.338   9.381 -1.2463 -0.1661  0.1554
34406SOL    HW2 5226   4.717   6.347   9.261  0.3071 -0.0150 -1.0765
34407SOL     OW 5227   7.377  10.327  10.261 -0.0070 -0.1752  0.3555
34407SOL    HW1 5228   7.303  10.329  10.199  0.7515 -2.5973 -0.7653
34407SOL    HW2 5229   7.385  10.235  10.285  2.3764  0.0748  0.7658
34408SOL     OW 5230   8.837   6.176   7.244  0.0211 -0.3423  0.8323
34408SOL    HW1 5231   8.888   6.132   7.312  1.0227 -0.3614  0.0937
34408SOL    HW2 5232   8.796   6.250   7.288  1.8951  0.5613  1.1560
34409SOL     OW 5233   7.065   2.929   9.483 -0.1126 -0.2822  0.1116
34409SOL    HW1 5234   7.125   2.911   9.410  1.9070  1.0079  1.3403
34409SOL    HW2 5235   6.978   2.929   9.443  0.9278  0.7222 -2.3888
34410SOL     OW 5236   1.883   8.836   7.766 -0.4932  0.1886  0.1435
34410SOL    HW1 5237   1.902   8.790   7.684  0.7736  1.7217 -0.4798
34410SOL    HW2 5238   1.791   8.863   7.758 -1.0971 -1.6792  0.2934
34411SOL     OW 5239   3.206   0.304   2.611  0.1183  0.2857 -0.2483
34411SOL    HW1 5240   3.271   0.375   2.605  0.7141 -0.0722  1.4638
34411SOL    HW2 5241   3.233   0.242   2.543  0.3545  1.0814 -0.9035
34412SOL     OW 5242  10.425   6.399   3.383  0.1958 -0.2714 -0.1620
34412SOL    HW1 5243  10.361   6.456   3.341 -0.2131  1.2819  2.3885
34412SOL    HW2 5244  10.409   6.313   3.344  0.1217  1.0524 -3.3497
34413SOL     OW 5245   3.440   0.904   7.735 -0.1029 -0.5073  0.1662
34413SOL    HW1 5246   3.534   0.890   7.736 -0.2649 -2.2132 -2.0214
34413SOL    HW2 5247   3.429   0.992   7.700  0.6760 -1.1075 -1.6761
34414SOL     OW 5248   4.161   6.454   5.725 -0.1249  0.3729  0.2312
34414SOL    HW1 5249   4.126   6.382   5.777 -0.9113  0.1088 -0.6304
34414SOL    HW2 5250   4.205   6.510   5.788  0.4247 -0.8143  0.9330
34415SOL     OW 5251   5.979   5.005   8.622 -0.1222  0.4122  0.1705
34415SOL    HW1 5252   6.070   4.986   8.599 -0.1819 -1.4912  1.3535
34415SOL    HW2 5253   5.969   5.099   8.604  1.8041  0.4691 -0.8126
34416SOL     OW 5254   3.932   9.919   2.048  0.7915  0.6264  0.1555
34416SOL    HW1 5255   3.949   9.838   2.001  3.2886  1.1138  0.0718
34416SOL    HW2 5256   3.911   9.892   2.137  1.8245 -0.1303  0.1832
34417SOL     OW 5257   8.001   9.936   5.849 -0.4705  0.4615 -0.3765
34417SOL    HW1 5258   7.984   9.879   5.924 -0.6774  1.2038  0.1608
34417SOL    HW2 5259   8.096   9.949   5.850 -0.4579  0.3679 -0.3189
34418SOL     OW 5260   3.754   8.297   7.557  0.5075 -0.0243 -0.2494
34418SOL    HW1 5261   3.846   8.299   7.583  0.0188 -0.6386  1.6682
34418SOL    HW2 5262   3.715   8.373   7.600  0.2073  0.5616 -1.5186
34419SOL     OW 5263   4.042   2.409   7.586  0.1061 -0.0219 -0.5041
34419SOL    HW1 5264   4.045   2.322   7.546 -0.4718 -0.0557 -0.4852
34419SOL    HW2 5265   4.133   2.438   7.587  0.9615 -2.1819  2.9254
34420SOL     OW 5266   5.588   6.016   0.493  0.2156 -0.0314 -0.6396
34420SOL    HW1 5267   5.648   6.074   0.539 -0.7253  0.0791  0.5065
34420SOL    HW2 5268   5.642   5.971   0.429  2.1855 -1.9898  2.1508
34421SOL     OW 5269   0.934   0.885   5.994  0.0371 -0.3656 -0.1666
34421SOL    HW1 5270   1.016   0.848   6.028  1.1512 -0.2217 -2.4700
34421SOL    HW2 5271   0.906   0.823   5.927 -1.0653  0.2309 -0.2793
34422SOL     OW 5272   6.659   2.898   7.669 -0.1841  0.1191  0.0921
34422SOL    HW1 5273   6.704   2.814   7.666  2.1116  1.2986 -0.7385
34422SOL    HW2 5274   6.701   2.945   7.742 -1.8490  0.3588  0.9391
34423SOL     OW 5275   6.952   0.072   1.965  0.3214 -0.0398  0.9158
34423SOL    HW1 5276   6.962   0.043   2.055  0.0236  0.5459  1.1419
34423SOL    HW2 5277   7.037   0.110   1.943  0.2976  0.0924  1.0513
34424SOL     OW 5278  10.854   1.303   6.197 -0.0575 -0.2829  0.4304
34424SOL    HW1 5279  10.803   1.228   6.165  0.2694  0.0934 -1.0124
34424SOL    HW2 5280  10.941   1.292   6.158  0.1115  0.6320  0.5297
34425SOL     OW 5281   1.638   6.538   9.788  0.1552 -0.2654  0.3855
34425SOL    HW1 5282   1.662   6.629   9.802 -0.2684 -0.0039 -0.5515
34425SOL    HW2 5283   1.664   6.519   9.698 -0.6255 -0.7780  0.2539
34426SOL     OW 5284  10.118  10.681   8.954 -0.7715  0.0491  0.1082
34426SOL    HW1 5285  10.193  10.635   8.992 -1.4260 -0.5975  0.6280
34426SOL    HW2 5286  10.135  10.679   8.859 -0.4114 -0.5888  0.1793
34427SOL     OW 5287   9.530  10.846   8.741 -0.1874 -0.4705 -0.3638
34427SOL    HW1 5288   9.550  10.801   8.659 -2.1462 -0.4528 -0.8834
34427SOL    HW2 5289   9.450  10.805   8.773  1.2861 -1.4992  2.3596
34428SOL     OW 5290   1.753   8.420   6.317  0.1641 -0.8548 -0.3114
34428SOL    HW1 5291   1.799   8.360   6.259  1.2514 -0.3560  0.0073
34428SOL    HW2 5292   1.745   8.373   6.400  0.8502 -0.6348 -0.1172
34429SOL     OW 5293   5.808   9.875   7.813  0.6064 -0.3018 -0.0985
34429SOL    HW1 5294   5.815   9.965   7.845  0.1636  0.5773 -2.2745
34429SOL    HW2 5295   5.716   9.851   7.828  0.6797 -0.3174  0.3187
34430SOL     OW 5296   1.763   7.621   5.013 -0.2401  0.2252  0.5947
34430SOL    HW1 5297   1.791   7.712   5.008  1.3772 -0.2694 -0.2313
34430SOL    HW2 5298   1.669   7.625   5.028 -0.2018  2.0197  0.5396
34431SOL     OW 5299   1.107   4.751  10.874 -0.3867 -0.1090  0.3192
34431SOL    HW1 5300   1.119   4.831  10.926  1.1059 -0.7816  1.0600
34431SOL    HW2 5301   1.047   4.777  10.805  1.5622  2.2636 -0.6534
34432SOL     OW 5302  10.674   0.288   3.669 -0.8692  0.0332 -0.7986
34432SOL    HW1 5303  10.630   0.310   3.587 -0.6919  0.1213 -0.8716
34432SOL    HW2 5304  10.763   0.323   3.658 -0.1139 -1.9489 -1.4901
34433SOL     OW 5305   5.494  10.095   7.549 -0.3490  0.1174  0.3102
34433SOL    HW1 5306   5.462  10.075   7.637 -1.7777 -1.0168 -0.4267
34433SOL    HW2 5307   5.589  10.089   7.557 -0.1901  3.0670  2.4598
34434SOL     OW 5308   2.897   3.896   3.750  0.4254  0.2871  0.4102
34434SOL    HW1 5309   2.947   3.902   3.669  0.4526 -0.0178  0.4024
34434SOL    HW2 5310   2.884   3.987   3.777  0.6493  0.3799  0.2088
34435SOL     OW 5311   7.292   6.941   5.034  0.3914  0.3086 -0.0683
34435SOL    HW1 5312   7.379   6.901   5.034  0.1504 -0.2460 -1.2993
34435SOL    HW2 5313   7.232   6.868   5.021 -0.2638  0.7095  0.6192
34436SOL     OW 5314   1.626   1.517   8.924  0.0162  0.3140 -0.2180
34436SOL    HW1 5315   1.674   1.503   8.842  0.6355  0.7060  0.0713
34436SOL    HW2 5316   1.535   1.532   8.896 -0.2424 -1.8623 -0.6830
34437SOL     OW 5317   0.951   9.417   4.979 -0.2946  0.1813  0.0965
34437SOL    HW1 5318   0.953   9.343   5.039  0.7946  0.4257  0.3783
34437SOL    HW2 5319   0.904   9.486   5.027 -1.2829 -0.2906 -0.1550
34438SOL     OW 5320   8.029   2.896   9.648  0.0796  0.5576  0.0030
34438SOL    HW1 5321   7.969   2.919   9.576  0.6693 -0.1600 -0.7351
34438SOL    HW2 5322   7.973   2.854   9.713 -0.2988  0.2704 -0.4988
34439SOL     OW 5323   5.570  10.694   9.658 -0.6422  0.2565 -0.3917
34439SOL    HW1 5324   5.608  10.735   9.736 -0.9596 -0.6123  0.2415
34439SOL    HW2 5325   5.640  10.698   9.593 -0.5091  1.3542 -0.1946
34440SOL     OW 5326   6.494   5.391  11.007  1.1793  0.0409  0.6728
34440SOL    HW1 5327   6.547   5.338  10.949 -1.6163 -1.1549 -0.9824
34440SOL    HW2 5328   6.489   5.341  11.088  1.4787 -0.4738  0.3743
34441SOL     OW 5329   1.226   7.497  10.495 -0.2476  0.3370  0.4814
34441SOL    HW1 5330   1.157   7.432  10.488  0.2657 -0.1370 -0.4626
34441SOL    HW2 5331   1.236   7.513  10.589 -0.4512 -0.8738  0.7146
34442SOL     OW 5332   9.477   1.549   3.844 -0.2139 -0.1517  0.0765
34442SOL    HW1 5333   9.425   1.506   3.776  1.4157 -1.5771 -0.3251
34442SOL    HW2 5334   9.412   1.586   3.903 -1.6911 -1.2046 -0.8150
34443SOL     OW 5335   4.462   2.242   5.930  0.1957  0.2495  0.0658
34443SOL    HW1 5336   4.511   2.236   6.011 -0.9840  1.8724  0.9643
34443SOL    HW2 5337   4.429   2.331   5.928 -0.4235  0.0389 -1.8548
34444SOL     OW 5338   2.239   6.265   6.732  0.4035 -0.2565 -0.0069
34444SOL    HW1 5339   2.258   6.172   6.722  1.3542  0.1417 -2.9109
34444SOL    HW2 5340   2.318   6.301   6.773 -0.7593 -0.9184  3.0832
34445SOL     OW 5341   6.357   8.395   0.656 -0.3106  0.4077 -0.7853
34445SOL    HW1 5342   6.441   8.428   0.622 -0.9093  0.7691 -1.9861
34445SOL    HW2 5343   6.329   8.330   0.591 -1.3791  0.9409 -0.8802
34446SOL     OW 5344   5.780   2.001   0.728 -0.3122 -0.4281  0.2260
34446SOL    HW1 5345   5.692   1.965   0.736 -0.2384 -0.4490  1.1017
34446SOL    HW2 5346   5.818   1.957   0.652 -1.0970 -0.3122 -0.2466
34447SOL     OW 5347   1.268   3.125   4.560 -0.7501 -0.3491  0.1427
34447SOL    HW1 5348   1.238   3.047   4.513 -1.6450  0.3936 -0.5297
34447SOL    HW2 5349   1.262   3.100   4.653 -0.9980 -1.0910 -0.0661
34448SOL     OW 5350   7.503   9.981   9.905 -0.2814  0.2498  0.1212
34448SOL    HW1 5351   7.468   9.929   9.978 -0.9442 -0.1274 -0.4408
34448SOL    HW2 5352   7.598   9.979   9.916 -0.3859  0.4150  1.1092
34449SOL     OW 5353   5.046   4.684   2.491 -1.0392  0.4495  0.1982
34449SOL    HW1 5354   5.008   4.695   2.404  0.9659 -2.9174 -1.2902
34449SOL    HW2 5355   4.997   4.610   2.529 -0.8309  0.8607  1.2969
34450SOL     OW 5356   0.612  10.711  10.977  0.0193 -0.1922  0.2983
34450SOL    HW1 5357   0.707  10.701  10.973  0.0535  0.3311 -0.2318
34450SOL    HW2 5358   0.589  10.688  11.068  0.7822  0.8048  0.7518
34451SOL     OW 5359   6.930   4.013  11.007 -0.1489  0.0635  0.1699
34451SOL    HW1 5360   6.901   3.975  11.089 -0.0551  1.0372  0.6736
34451SOL    HW2 5361   7.018   4.047  11.025  0.0876 -0.1773 -0.4795
34452SOL     OW 5362   4.990   4.775   6.680 -0.0933  0.0301  0.1977
34452SOL    HW1 5363   4.976   4.722   6.759 -0.5880  1.1178  0.8667
34452SOL    HW2 5364   5.070   4.824   6.698  0.2212 -0.2919 -0.3124
34453SOL     OW 5365   5.454  10.379   4.185  0.1894  0.2549  0.1668
34453SOL    HW1 5366   5.398  10.417   4.252  0.0642  2.8409 -1.2675
34453SOL    HW2 5367   5.412  10.296   4.162 -2.5893  1.6501 -0.1853
34454SOL     OW 5368   9.154   8.465   3.239  0.1069  0.5048  0.0342
34454SOL    HW1 5369   9.126   8.534   3.179 -0.9994 -0.3216 -0.4445
34454SOL    HW2 5370   9.072   8.431   3.276  0.7152  0.3648  1.2998
34455SOL     OW 5371   9.152  10.327   0.385 -0.4955 -0.5601 -0.7322
34455SOL    HW1 5372   9.125  10.381   0.311 -1.5617  0.7742  0.5722
34455SOL    HW2 5373   9.082  10.337   0.450 -0.1717 -2.6235  0.0251
34456SOL     OW 5374   3.528   1.003   1.088 -0.9272  0.1970 -0.5370
34456SOL    HW1 5375   3.509   1.014   1.181 -1.7853 -0.9791 -0.5316
34456SOL    HW2 5376   3.581   1.078   1.064  3.6249 -1.7714  2.0118
34457SOL     OW 5377   8.339   2.737   0.341  0.0319 -0.5774  0.2516
34457SOL    HW1 5378   8.249   2.717   0.367  0.7807 -3.1462  1.1761
34457SOL    HW2 5379   8.339   2.725   0.246 -0.8177  0.6059  0.0701
34458SOL     OW 5380   7.075   8.331   0.500 -0.1644 -0.2576 -0.5266
34458SOL    HW1 5381   7.075   8.409   0.444  1.1690 -0.4884 -0.8751
34458SOL    HW2 5382   7.118   8.264   0.448  0.6898 -0.6065  0.5981
34459SOL     OW 5383   3.521   7.997  10.653 -0.3675 -0.2404  0.0466
34459SOL    HW1 5384   3.564   7.918  10.618 -1.6070 -0.5061 -0.9327
34459SOL    HW2 5385   3.577   8.069  10.624 -0.7517 -0.5484 -1.5795
34460SOL     OW 5386   0.999   5.595   6.610  0.0201 -0.1054  0.2098
34460SOL    HW1 5387   1.059   5.567   6.541 -0.4221  0.5588 -0.4490
34460SOL    HW2 5388   0.981   5.515   6.659 -0.5690 -0.8299 -1.1410
34461SOL     OW 5389   3.193   1.948   9.633 -0.1127 -0.2262  0.2410
34461SOL    HW1 5390   3.209   2.034   9.671 -0.8736 -0.1346  0.3761
34461SOL    HW2 5391   3.114   1.960   9.580 -0.3149 -0.8775  0.3897
34462SOL     OW 5392   2.507   5.688   5.066 -0.1207 -0.6140 -0.2580
34462SOL    HW1 5393   2.513   5.615   5.128  0.7078  0.2172  0.6795
34462SOL    HW2 5394   2.506   5.646   4.980  1.1114 -1.7322  0.2270
34463SOL     OW 5395   4.017   7.333   1.164 -0.0903  0.1526 -0.1195
34463SOL    HW1 5396   3.960   7.258   1.182  1.0296 -0.3499  1.5598
34463SOL    HW2 5397   3.965   7.390   1.108 -1.0490 -1.7991 -1.3252
34464SOL     OW 5398   6.082   1.448   0.076  0.2697  0.1901  0.3641
34464SOL    HW1 5399   6.155   1.393   0.105  0.5821  1.4303  2.1190
34464SOL    HW2 5400   6.005   1.410   0.119  0.4623  0.9619  1.4471
34465SOL     OW 5401  11.021   9.601   4.574  0.0203  0.1473  0.5581
34465SOL    HW1 5402  11.103   9.558   4.550  1.2842  0.5015  3.7534
34465SOL    HW2 5403  10.967   9.532   4.610 -0.4464  0.2215  0.0206
34466SOL     OW 5404   5.670   8.049   2.566  0.1353 -0.1917 -0.5903
34466SOL    HW1 5405   5.745   8.107   2.584 -0.2881  0.2786 -0.3194
34466SOL    HW2 5406   5.710   7.968   2.534  0.7063  0.6989 -2.2797
34467SOL     OW 5407   4.844   1.402   4.670  0.5256  0.2865  0.6665
34467SOL    HW1 5408   4.867   1.314   4.698 -2.6393 -1.3780 -1.4142
34467SOL    HW2 5409   4.763   1.422   4.718 -0.9951  0.3119 -1.7318
34468SOL     OW 5410   8.495   1.450   9.956 -0.3351  0.2628 -0.0936
34468SOL    HW1 5411   8.473   1.515   9.889 -2.4322 -1.6216 -1.3726
34468SOL    HW2 5412   8.414   1.439  10.006  0.8107  0.6370  1.9194
34469SOL     OW 5413   8.999   4.527   5.296  0.2752 -0.2444 -0.1515
34469SOL    HW1 5414   9.083   4.574   5.297  0.9546 -1.4215  1.2015
34469SOL    HW2 5415   9.023   4.436   5.278 -0.5515 -0.8331  1.5068
34470SOL     OW 5416   8.311   2.700   2.080  0.2483  0.3066  0.3479
34470SOL    HW1 5417   8.392   2.749   2.091  0.5322 -0.5606  2.5910
34470SOL    HW2 5418   8.339   2.615   2.046  0.0606  0.6494 -0.6964
34471SOL     OW 5419   4.632   9.536   2.198  1.0381  0.0248  0.5882
34471SOL    HW1 5420   4.612   9.598   2.269 -0.8670 -0.7668  0.7816
34471SOL    HW2 5421   4.615   9.450   2.236  1.1149 -0.4823 -0.4960
34472SOL     OW 5422  10.224  10.294   1.222  0.0522 -0.1165  0.9418
34472SOL    HW1 5423  10.269  10.244   1.154  0.2720  0.6413  0.5117
34472SOL    HW2 5424  10.148  10.242   1.244 -0.3260 -0.1174 -0.2961
34473SOL     OW 5425   4.355   3.423   9.672  0.2116 -0.0916  0.7893
34473SOL    HW1 5426   4.414   3.464   9.610  0.7858 -1.7665  0.1556
34473SOL    HW2 5427   4.306   3.495   9.711  1.1330  1.1452 -0.2676
34474SOL     OW 5428   3.593   0.615  10.706 -0.5492  0.0807 -0.4723
34474SOL    HW1 5429   3.506   0.596  10.740 -0.7214  1.4761 -0.0558
34474SOL    HW2 5430   3.643   0.644  10.783  0.2557 -0.5608 -0.7280
34475SOL     OW 5431   3.739   9.747   6.400  0.4037 -0.1995 -0.0775
34475SOL    HW1 5432   3.729   9.658   6.366  0.8021 -0.1712 -0.2761
34475SOL    HW2 5433   3.714   9.740   6.492 -0.9181 -0.2319 -0.4197
34476SOL     OW 5434   3.583   3.228   9.920 -0.1514 -0.5203 -0.3093
34476SOL    HW1 5435   3.503   3.185   9.947  0.3187 -0.8764  0.5456
34476SOL    HW2 5436   3.597   3.199   9.830 -1.2350 -0.0573 -0.6432
34477SOL     OW 5437   0.294   4.523   5.697  0.9560 -0.6517 -0.1083
34477SOL    HW1 5438   0.199   4.514   5.701  1.0009 -0.6665  1.2159
34477SOL    HW2 5439   0.309   4.584   5.625 -0.1518  0.5937  0.6719
34478SOL     OW 5440   8.105  10.241   0.638 -0.8233 -0.3071  0.7320
34478SOL    HW1 5441   8.107  10.145   0.631  0.3418 -0.1812 -1.4316
34478SOL    HW2 5442   8.150  10.259   0.721 -1.3265 -1.6181  1.3212
34479SOL     OW 5443   0.607  10.556   5.458 -0.2646  0.5617 -0.1287
34479SOL    HW1 5444   0.652  10.546   5.542 -0.2335  1.5076 -0.0161
34479SOL    HW2 5445   0.624  10.647   5.433 -0.0447  0.2125 -1.2985
34480SOL     OW 5446   5.986   6.136  10.592 -0.6111  0.5124 -0.0971
34480SOL    HW1 5447   5.922   6.185  10.644 -0.7097 -2.1265  2.4954
34480SOL    HW2 5448   6.065   6.190  10.595 -1.6212  2.0622 -0.1908
34481SOL     OW 5449  10.303   3.916   3.981  0.1612  1.0846 -0.2582
34481SOL    HW1 5450  10.247   3.990   3.958  0.2887  1.9509  1.9740
34481SOL    HW2 5451  10.242   3.844   3.998 -0.0456  1.0667 -1.0430
34482SOL     OW 5452   8.663   8.136   3.674 -0.1353  0.1834  0.6004
34482SOL    HW1 5453   8.666   8.059   3.730 -2.1091  0.3551  1.0016
34482SOL    HW2 5454   8.571   8.144   3.648  0.0386  2.3019  0.4510
34483SOL     OW 5455   2.302   8.025   8.934  0.2965 -0.2230 -0.5536
34483SOL    HW1 5456   2.337   7.936   8.937 -0.0147 -0.3321 -0.1194
34483SOL    HW2 5457   2.378   8.080   8.916  0.8778 -0.3502  1.3657
34484SOL     OW 5458   1.354   5.628   3.754 -0.3126 -0.1151 -0.3228
34484SOL    HW1 5459   1.301   5.675   3.689  4.6397  3.5456 -2.3373
34484SOL    HW2 5460   1.390   5.554   3.706 -0.2364 -0.0706 -0.3347
34485SOL     OW 5461   2.426   0.648   3.751 -0.0692 -0.6755  0.1584
34485SOL    HW1 5462   2.375   0.591   3.694  0.2236 -0.8979  0.1172
34485SOL    HW2 5463   2.393   0.629   3.839  0.1462 -1.0341  0.1637
34486SOL     OW 5464   4.156  10.301   3.378  0.6604 -0.6331  0.1479
34486SOL    HW1 5465   4.119  10.367   3.437  0.3116 -1.4963  0.9004
34486SOL    HW2 5466   4.095  10.228   3.382 -0.9030  0.2391 -3.3480
34487SOL     OW 5467   8.843   5.541   6.050 -0.1860  0.6266 -0.1214
34487SOL    HW1 5468   8.749   5.558   6.050 -0.3697 -0.2970 -1.2316
34487SOL    HW2 5469   8.875   5.582   6.131 -1.8999 -1.0653  1.5008
34488SOL     OW 5470   9.840   2.664   6.134  0.4478 -0.1011 -0.3942
34488SOL    HW1 5471   9.853   2.758   6.140 -0.9767  0.0585  0.8343
34488SOL    HW2 5472   9.876   2.629   6.216 -2.2360 -0.1566  0.8700
34489SOL     OW 5473   5.717   4.216   1.780  0.0132  0.2398  0.6036
34489SOL    HW1 5474   5.758   4.143   1.735  0.0781 -0.5623  1.9227
34489SOL    HW2 5475   5.776   4.290   1.765  0.1731 -0.0794 -0.3672
34490SOL     OW 5476   9.500  10.285   3.429  0.0906 -0.0251 -0.2890
34490SOL    HW1 5477   9.470  10.207   3.476  0.1842  0.5870  0.8080
34490SOL    HW2 5478   9.571  10.319   3.482 -0.2039  1.0306 -0.5543
34491SOL     OW 5479  10.053   5.594   6.433  0.1822  0.4981 -0.1092
34491SOL    HW1 5480  10.141   5.631   6.440 -0.1853  1.8515 -1.8859
34491SOL    HW2 5481   9.998   5.650   6.488 -0.0741  1.6440 -1.4700
34492SOL     OW 5482   4.771   3.461   6.583 -0.1389 -0.1930  0.1060
34492SOL    HW1 5483   4.723   3.432   6.661  0.0853 -0.6038  0.0947
34492SOL    HW2 5484   4.757   3.555   6.580 -1.9758 -0.4312 -0.5669
34493SOL     OW 5485  10.780   1.192   9.803 -0.0328 -0.2005  0.5126
34493SOL    HW1 5486  10.817   1.279   9.819  3.0527 -0.7855 -2.1448
34493SOL    HW2 5487  10.728   1.202   9.723 -2.6904 -0.2109  2.1216
34494SOL     OW 5488   2.511   9.537  10.944 -0.2572  0.1728  0.1381
34494SOL    HW1 5489   2.453   9.524  10.868 -0.5219  0.4161  0.2957
34494SOL    HW2 5490   2.512   9.632  10.958  1.2306  0.2958 -0.6647
34495SOL     OW 5491   7.962   2.747  10.148  0.1241  0.0181 -0.5216
34495SOL    HW1 5492   7.906   2.777  10.220  1.7949  1.3527  0.3159
34495SOL    HW2 5493   8.007   2.826  10.119  1.4806 -0.9767 -1.2210
34496SOL     OW 5494   3.824   2.311   0.732  0.1586 -0.0304 -0.2909
34496SOL    HW1 5495   3.796   2.229   0.691 -1.7998 -1.3330  3.2168
34496SOL    HW2 5496   3.913   2.294   0.762  1.5785  0.9013 -3.5114
34497SOL     OW 5497   0.439  10.069   6.458  0.0303  0.5246  0.2015
34497SOL    HW1 5498   0.428  10.147   6.404  0.5743  1.2218  1.0648
34497SOL    HW2 5499   0.448   9.997   6.395 -1.9880  0.9055 -0.6021
34498SOL     OW 5500   7.915   2.068   7.976  0.2768  0.4138 -0.2380
34498SOL    HW1 5501   7.897   1.978   8.002  1.8859 -0.2184 -1.1876
34498SOL    HW2 5502   7.831   2.102   7.947 -0.6407 -0.3182  1.4209
34499SOL     OW 5503   8.998  10.664   3.722  0.2659  0.9511  0.6387
34499SOL    HW1 5504   8.924  10.635   3.774  0.8267  0.5801  1.2488
34499SOL    HW2 5505   9.041  10.583   3.694 -0.0401  1.1409 -0.4285
34500SOL     OW 5506   7.659   0.490   9.432  0.0861 -0.0403 -0.1844
34500SOL    HW1 5507   7.736   0.434   9.425 -0.0867 -0.5032  1.1923
34500SOL    HW2 5508   7.586   0.433   9.410  0.0134 -0.0129 -0.0136
34501SOL     OW 5509   3.598   4.839   7.391  0.3163 -0.1187  0.1560
34501SOL    HW1 5510   3.662   4.795   7.448 -0.4065 -0.5470  0.6537
34501SOL    HW2 5511   3.515   4.797   7.412  0.2379 -1.4370 -2.3784
34502SOL     OW 5512   0.740   2.978   6.197 -0.1641 -0.1825  0.2142
34502SOL    HW1 5513   0.700   2.967   6.283 -1.3042 -0.2821 -0.3112
34502SOL    HW2 5514   0.786   3.062   6.203 -3.3042  1.7409 -0.1569
34503SOL     OW 5515   3.571   3.209   9.466 -0.3591 -0.2117 -0.3230
34503SOL    HW1 5516   3.506   3.235   9.530  0.3802 -0.6061  0.6084
34503SOL    HW2 5517   3.535   3.236   9.382 -1.3016  0.3854  0.2673
34504SOL     OW 5518   3.374   6.732   5.829  0.8129 -0.2194 -0.5411
34504SOL    HW1 5519   3.417   6.812   5.797 -1.8283  0.3978 -3.0439
34504SOL    HW2 5520   3.418   6.661   5.782  1.2933  0.0633 -0.5241
34505SOL     OW 5521   9.648  10.092   4.417  0.2344  0.0788 -0.1083
34505SOL    HW1 5522   9.691  10.099   4.331 -0.5311 -1.2147 -0.6315
34505SOL    HW2 5523   9.557  10.118   4.399  0.6722  2.6407  0.9499
34506SOL     OW 5524   6.261   0.830   9.332 -0.4126 -0.3279  0.4207
34506SOL    HW1 5525   6.313   0.754   9.304  1.0013  0.4438  0.8163
34506SOL    HW2 5526   6.275   0.835   9.426  1.4184  1.7047  0.1273
34507SOL     OW 5527   7.452   1.042   7.420 -0.3947 -0.0429 -0.4584
34507SOL    HW1 5528   7.525   0.985   7.446  0.2992 -0.2017 -2.5257
34507SOL    HW2 5529   7.374   0.987   7.431  0.1302 -0.9574 -1.1237
34508SOL     OW 5530   1.982   0.817   7.278 -0.4037  0.0298 -0.4700
34508SOL    HW1 5531   1.993   0.785   7.368  0.0466  0.9162 -0.2010
34508SOL    HW2 5532   2.043   0.764   7.227 -0.6406 -0.4608 -0.2557
34509SOL     OW 5533   7.192   9.786   6.505 -0.0273  0.4097  0.2870
34509SOL    HW1 5534   7.101   9.758   6.509 -0.0987  0.4600 -0.7092
34509SOL    HW2 5535   7.237   9.733   6.570 -0.8124  0.5637  0.9628
34510SOL     OW 5536  10.463   5.733   7.115 -0.4955 -0.3660 -0.0567
34510SOL    HW1 5537  10.485   5.750   7.023 -0.6801  0.8182  0.1127
34510SOL    HW2 5538  10.548   5.730   7.159 -0.4811  2.7002  0.3319
34511SOL     OW 5539   7.551   1.747   4.387 -0.0649 -0.2319  0.1168
34511SOL    HW1 5540   7.629   1.728   4.440  2.3746  1.4921 -2.5550
34511SOL    HW2 5541   7.568   1.833   4.349 -2.6022 -0.4674 -1.8126
34512SOL     OW 5542   6.803   4.595   2.092 -0.3273  0.6544 -0.3914
34512SOL    HW1 5543   6.894   4.615   2.074  0.6146 -2.4642  0.2974
34512SOL    HW2 5544   6.767   4.567   2.008 -0.4219  1.0043 -0.4719
34513SOL     OW 5545  10.971   2.214  10.168 -0.3328 -1.0087  0.5555
34513SOL    HW1 5546  11.014   2.132  10.145 -0.8626 -1.0759 -0.2510
34513SOL    HW2 5547  10.939   2.249  10.084  1.0015  0.6657  0.6836
34514SOL     OW 5548   4.493   0.022   3.909 -0.6022  0.0809  0.4199
34514SOL    HW1 5549   4.488   0.049   3.817 -1.5889 -1.5977 -0.0579
34514SOL    HW2 5550   4.565   0.074   3.945  0.0421  0.5118 -1.3870
34515SOL     OW 5551   1.946   4.672  10.812  0.1126  0.5272  0.0649
34515SOL    HW1 5552   1.987   4.728  10.746  0.2091  0.5674  0.1607
34515SOL    HW2 5553   1.976   4.706  10.896  1.7754 -0.8685  0.0930
34516SOL     OW 5554   3.930   2.044   0.241 -0.2338 -0.1061  0.1469
34516SOL    HW1 5555   3.972   2.123   0.208 -2.6355  0.7257 -1.1109
34516SOL    HW2 5556   3.986   1.973   0.209  0.6280  0.9628 -0.8114
34517SOL     OW 5557   4.034   5.365   5.714 -0.3215  0.3283  0.2700
34517SOL    HW1 5558   4.047   5.450   5.756 -0.8029  0.5308  0.0262
34517SOL    HW2 5559   3.965   5.323   5.766 -1.1028  0.6832 -0.4365
34518SOL     OW 5560  10.836   1.869   1.417  0.1855 -0.5655  0.1007
34518SOL    HW1 5561  10.786   1.827   1.347 -1.1104  0.4460  0.3679
34518SOL    HW2 5562  10.845   1.960   1.390 -0.2638 -0.1754  1.1823
34519SOL     OW 5563   6.146   4.165   3.107 -0.3789 -0.0867  0.1386
34519SOL    HW1 5564   6.213   4.097   3.110 -0.9341 -0.7602 -1.5813
34519SOL    HW2 5565   6.078   4.135   3.168 -0.7656 -1.2775 -0.8349
34520SOL     OW 5566   6.072   5.851   3.907 -0.1548 -0.5187 -0.0704
34520SOL    HW1 5567   6.112   5.789   3.845  1.8568  0.2781  0.3741
34520SOL    HW2 5568   6.109   5.827   3.992  0.2942  0.9757  0.1809
34521SOL     OW 5569   3.869   1.956   9.672 -0.1689  0.0483 -0.3030
34521SOL    HW1 5570   3.785   1.924   9.705  0.3127  1.4408  2.6368
34521SOL    HW2 5571   3.895   1.891   9.607 -3.1916 -0.7543 -0.9041
34522SOL     OW 5572   3.750   6.580   3.459 -0.1158 -0.4345 -0.1884
34522SOL    HW1 5573   3.838   6.606   3.431  0.2715  0.1658  1.4664
34522SOL    HW2 5574   3.760   6.490   3.491 -0.4329 -0.9030 -1.3601
34523SOL     OW 5575   8.782  10.251   6.723  0.5581  0.1245 -0.2874
34523SOL    HW1 5576   8.803  10.162   6.697  1.5509 -0.3517  1.9506
34523SOL    HW2 5577   8.859  10.281   6.771  0.6024  2.5248 -1.6957
34524SOL     OW 5578   6.255   5.443   3.364 -0.0644  0.3212  0.4358
34524SOL    HW1 5579   6.267   5.510   3.297 -0.0648 -1.6577 -1.6564
34524SOL    HW2 5580   6.160   5.436   3.374 -0.0569  0.8933  0.9678
34525SOL     OW 5581  10.552   2.057   8.984  0.0635 -0.0900 -0.1214
34525SOL    HW1 5582  10.536   1.989   9.050  2.4827  1.5148  2.3042
34525SOL    HW2 5583  10.493   2.128   9.008  1.1751  0.6243  0.5973
34526SOL     OW 5584   0.263   0.815   7.893  0.0792  0.3104  0.0969
34526SOL    HW1 5585   0.208   0.821   7.971  1.0936  0.3220  0.8359
34526SOL    HW2 5586   0.240   0.892   7.841 -0.2131  0.6039  0.6526
34527SOL     OW 5587   3.259   3.796   4.384 -0.4520 -0.1651 -1.5330
34527SOL    HW1 5588   3.225   3.816   4.471 -1.0833 -0.9303 -1.5932
34527SOL    HW2 5589   3.275   3.702   4.386  0.3350 -0.0475 -1.9725
34528SOL     OW 5590   9.655  11.013  10.961  0.4672 -0.1156  0.4902
34528SOL    HW1 5591   9.735  10.992  11.010  1.6714  1.2313 -0.8055
34528SOL    HW2 5592   9.666  10.968  10.878  0.7212  1.4585 -0.3597
34529SOL     OW 5593   4.720   2.245   7.389  0.0773  0.3165 -0.1862
34529SOL    HW1 5594   4.779   2.308   7.348  1.7123 -0.5664  0.7242
34529SOL    HW2 5595   4.703   2.282   7.476  0.7833 -0.3243  0.2308
34530SOL     OW 5596   1.271   8.146   8.853  0.0724 -0.0812 -0.4129
34530SOL    HW1 5597   1.267   8.242   8.856  0.2771 -0.0845  0.7508
34530SOL    HW2 5598   1.219   8.122   8.777 -1.0720  0.9026  0.0241
34531SOL     OW 5599   1.805   1.605   2.329 -0.3008 -0.0414 -0.1430
34531SOL    HW1 5600   1.866   1.531   2.324 -0.7989 -0.5078  0.4431
34531SOL    HW2 5601   1.770   1.613   2.240  0.0081 -0.2980 -0.2897
34532SOL     OW 5602   6.241   4.707   4.792  0.2057 -0.6202  0.3637
34532SOL    HW1 5603   6.312   4.714   4.856  0.8543  1.3738 -0.5069
34532SOL    HW2 5604   6.162   4.699   4.845  0.7370  0.8430  1.4477
34533SOL     OW 5605   2.836   2.294   1.015 -0.1588 -0.0410 -0.0820
34533SOL    HW1 5606   2.863   2.334   0.933  0.5767  0.2162  0.2727
34533SOL    HW2 5607   2.798   2.210   0.990  0.2733 -0.0648 -0.6597
34534SOL     OW 5608   2.441   8.367  10.976 -0.1469 -0.4197 -0.1736
34534SOL    HW1 5609   2.373   8.360  11.044  0.7101  0.1262  0.7629
34534SOL    HW2 5610   2.398   8.334  10.897 -1.5760  0.0938  0.3448
34535SOL     OW 5611   2.284   7.456   2.234  0.0073  0.5562  0.3567
34535SOL    HW1 5612   2.189   7.446   2.246 -0.2464 -0.5152 -1.9253
34535SOL    HW2 5613   2.295   7.463   2.139  2.3069 -0.4330  0.4849
34536SOL     OW 5614   3.353   5.805   2.045  0.0758 -0.2476  0.5838
34536SOL    HW1 5615   3.364   5.897   2.020 -1.5373  0.0394  0.8160
34536SOL    HW2 5616   3.435   5.763   2.018  1.4140  1.4981  1.7279
34537SOL     OW 5617   3.468   8.375   8.531  0.9515  0.3742  0.4613
34537SOL    HW1 5618   3.551   8.335   8.557  0.7624 -0.6906 -0.5070
34537SOL    HW2 5619   3.402   8.310   8.556  0.6114  0.1801 -0.8843
34538SOL     OW 5620   3.490   1.269   4.707 -0.0602  0.7364  0.5139
34538SOL    HW1 5621   3.554   1.240   4.772 -0.4665  1.2812  1.1733
34538SOL    HW2 5622   3.430   1.326   4.756 -1.8637 -0.8062  0.2279
34539SOL     OW 5623   1.700   5.184   7.263 -0.3664 -0.6182 -0.1055
34539SOL    HW1 5624   1.612   5.164   7.295 -0.2506  0.9143  1.3340
34539SOL    HW2 5625   1.686   5.228   7.179 -1.1587  1.2125  0.9022
34540SOL     OW 5626   2.678   8.787   1.622  0.1420 -0.1083  0.2824
34540SOL    HW1 5627   2.745   8.854   1.607  0.3067  0.7786  3.9514
34540SOL    HW2 5628   2.624   8.789   1.543  3.0041  0.8009 -1.8230
34541SOL     OW 5629   2.854   1.776  10.175 -0.1812  0.0666  0.2413
34541SOL    HW1 5630   2.807   1.849  10.134 -1.4601 -1.0239 -0.3181
34541SOL    HW2 5631   2.850   1.794  10.269  1.4384  1.8061  0.0292
34542SOL     OW 5632   6.345   7.281   0.768  0.1929 -0.5801  0.5169
34542SOL    HW1 5633   6.253   7.282   0.741  0.6096  2.1017 -1.1135
34542SOL    HW2 5634   6.391   7.239   0.696  0.6624  1.7451 -0.6188
34543SOL     OW 5635   4.674   9.568  10.610  0.5590 -0.0945 -0.2123
34543SOL    HW1 5636   4.637   9.554  10.523  0.6417 -0.5999 -0.1735
34543SOL    HW2 5637   4.623   9.510  10.667  1.8449 -1.3417 -0.2773
34544SOL     OW 5638   6.985   9.012   8.811 -0.2847 -0.0547  0.3900
34544SOL    HW1 5639   6.929   8.960   8.869  0.1186 -0.4324  0.4393
34544SOL    HW2 5640   6.930   9.031   8.735 -0.1923 -1.2275  0.0024
34545SOL     OW 5641   8.224   6.933   9.060  0.0112 -0.2411  0.0864
34545SOL    HW1 5642   8.194   7.010   9.108 -0.1520  0.6173 -1.3433
34545SOL    HW2 5643   8.277   6.968   8.989  0.3826 -1.4914 -0.2774
34546SOL     OW 5644   8.802   7.539   1.830 -0.4034 -0.3810 -0.1438
34546SOL    HW1 5645   8.839   7.493   1.906  1.2263  1.8033  0.4666
34546SOL    HW2 5646   8.722   7.580   1.865 -1.2878 -1.7691 -0.4298
34547SOL     OW 5647   1.482   7.906   3.433  0.2398 -0.2563 -0.1264
34547SOL    HW1 5648   1.399   7.942   3.465  1.2211  0.6395  1.5657
34547SOL    HW2 5649   1.521   7.977   3.382  0.5091 -0.2302  0.1131
34548SOL     OW 5650   6.288   3.126  10.251  0.0592 -0.1728 -0.1806
34548SOL    HW1 5651   6.264   3.191  10.185 -1.5248 -1.8028 -1.3036
34548SOL    HW2 5652   6.206   3.081  10.272  1.0292 -1.5725  0.8225
34549SOL     OW 5653   7.260  10.899   0.643 -0.2261  0.1570 -0.0111
34549SOL    HW1 5654   7.332  10.912   0.705 -0.4512  0.8286  0.1051
34549SOL    HW2 5655   7.212  10.824   0.678 -1.3919  1.5883  1.6232
34550SOL     OW 5656   7.630   7.757   6.646 -0.2171 -0.2361 -0.2152
34550SOL    HW1 5657   7.636   7.818   6.719 -0.6923 -0.8331  0.3433
34550SOL    HW2 5658   7.700   7.694   6.661  0.2476  0.1407 -0.7676
34551SOL     OW 5659   9.007   2.215   7.215 -0.4626 -0.1403  0.2438
34551SOL    HW1 5660   8.924   2.185   7.252  0.2810 -0.3783  1.8181
34551SOL    HW2 5661   8.992   2.307   7.193 -0.3820  0.6506  3.1472
34552SOL     OW 5662   8.272   8.217   9.486 -0.7337 -0.1412 -0.4066
34552SOL    HW1 5663   8.241   8.284   9.425 -0.9389 -0.3603 -0.5423
34552SOL    HW2 5664   8.357   8.250   9.517 -0.1568 -0.4999 -1.5603
34553SOL     OW 5665   7.427   9.829   3.929 -0.2769 -0.0939  0.0658
34553SOL    HW1 5666   7.438   9.735   3.920 -0.0867 -0.1140  0.4797
34553SOL    HW2 5667   7.497   9.867   3.876  0.0622 -0.1939  0.4380
34554SOL     OW 5668   6.202   6.010  10.454 -0.3805  0.3560 -0.6426
34554SOL    HW1 5669   6.236   5.928  10.491  0.1288  0.6485 -0.4469
34554SOL    HW2 5670   6.127   6.032  10.509  0.5744  0.9633  0.4535
34555SOL     OW 5671   5.933   1.763   1.091  0.3596 -0.0858  0.1633
34555SOL    HW1 5672   5.955   1.671   1.076 -0.5453 -0.6671  2.0773
34555SOL    HW2 5673   5.846   1.774   1.053  0.7483  0.1943 -0.6789
34556SOL     OW 5674   9.123  10.731   9.934  0.1087  0.1681 -0.2771
34556SOL    HW1 5675   9.143  10.793  10.004 -0.3312  0.9738 -0.8465
34556SOL    HW2 5676   9.173  10.652   9.956  0.6951  0.7308  0.4479
34557SOL     OW 5677   1.089   0.312   7.862 -0.0676 -0.2164  0.8385
34557SOL    HW1 5678   1.067   0.235   7.914  0.6220  0.2316  1.8152
34557SOL    HW2 5679   1.181   0.300   7.839 -0.1686 -0.0520  0.3280
34558SOL     OW 5680   6.115   8.145   4.230 -0.2504 -0.7489 -0.0570
34558SOL    HW1 5681   6.039   8.163   4.175 -0.7015 -0.6490  0.5901
34558SOL    HW2 5682   6.130   8.051   4.220 -1.2903 -1.0350  0.8377
34559SOL     OW 5683   4.673   1.907   1.085  0.1987 -0.5299  0.1971
34559SOL    HW1 5684   4.632   1.824   1.061  0.5088 -0.2056 -1.5970
34559SOL    HW2 5685   4.600   1.965   1.105 -0.0432 -1.0176  0.7657
34560SOL     OW 5686   9.383   1.117   2.660 -0.0371  0.1921  0.5468
34560SOL    HW1 5687   9.430   1.142   2.740  1.5526 -0.6678 -0.0786
34560SOL    HW2 5688   9.349   1.200   2.626  2.4665  1.1503  0.1634
34561SOL     OW 5689   4.153   3.048   3.271 -0.0303  0.4794  0.5017
34561SOL    HW1 5690   4.161   3.143   3.277 -1.5947  0.6118  0.9715
34561SOL    HW2 5691   4.222   3.022   3.211 -0.1595  2.0167 -0.3636
34562SOL     OW 5692   3.308   1.200   7.058  0.4533 -0.0896 -0.1572
34562SOL    HW1 5693   3.233   1.142   7.043  0.4803  0.4204 -2.7283
34562SOL    HW2 5694   3.277   1.287   7.033  1.7856  0.1920 -0.9202
34563SOL     OW 5695   7.196   8.229   1.761 -0.0216  0.0709 -0.6321
34563SOL    HW1 5696   7.285   8.216   1.730 -0.9428 -1.3267 -2.9154
34563SOL    HW2 5697   7.161   8.298   1.704 -0.0038  1.7248  1.2446
34564SOL     OW 5698   7.952   1.370   5.281 -0.5996 -0.1244 -0.5470
34564SOL    HW1 5699   8.031   1.357   5.229 -1.2971 -1.8548 -1.2583
34564SOL    HW2 5700   7.881   1.369   5.217 -1.3438 -0.6489  0.2579
34565SOL     OW 5701   2.468   6.417   6.566 -0.2003  0.5207 -0.4038
34565SOL    HW1 5702   2.557   6.442   6.589  0.1202 -0.1904 -0.8521
34565SOL    HW2 5703   2.420   6.500   6.560  0.3221  0.8739  0.2744
34566SOL     OW 5704   3.756   8.783   0.787 -0.2233  0.1873  0.3074
34566SOL    HW1 5705   3.708   8.763   0.706 -0.2744 -1.4233  0.6931
34566SOL    HW2 5706   3.846   8.755   0.769 -0.1993 -0.0324  0.7450
34567SOL     OW 5707   9.210  10.920   1.725 -0.3509 -0.1250  0.1190
34567SOL    HW1 5708   9.287  10.949   1.773 -1.6056 -0.8138  2.7154
34567SOL    HW2 5709   9.238  10.837   1.684 -0.1009 -1.2183  2.3544
34568SOL     OW 5710   6.120  10.010   7.063  0.5969 -0.4132  0.2269
34568SOL    HW1 5711   6.031  10.041   7.080  0.2926 -0.3625 -1.3073
34568SOL    HW2 5712   6.110   9.945   6.994  1.6555 -1.1917  0.7827
34569SOL     OW 5713   5.195   9.324   4.477 -0.0061 -0.7964  0.5304
34569SOL    HW1 5714   5.287   9.328   4.450 -0.4528 -0.1010 -0.9702
34569SOL    HW2 5715   5.186   9.392   4.543  0.3626 -0.2214  0.0009
34570SOL     OW 5716   4.153   1.243   9.293 -0.0414  0.5618 -0.6783
34570SOL    HW1 5717   4.165   1.211   9.204 -1.2713  1.5941 -1.2463
34570SOL    HW2 5718   4.158   1.339   9.284  1.7333  0.6508  0.6725
34571SOL     OW 5719   4.328  10.372   6.680  0.1538  0.6481 -0.9767
34571SOL    HW1 5720   4.243  10.358   6.720  0.3224  1.5625 -0.2905
34571SOL    HW2 5721   4.391  10.341   6.745  0.3788  0.7834 -1.1296
34572SOL     OW 5722   4.580   7.184   0.326  0.1997  0.2082  0.2691
34572SOL    HW1 5723   4.505   7.244   0.323  0.0267 -0.0367 -0.2181
34572SOL    HW2 5724   4.646   7.226   0.271 -0.2058 -0.4348 -0.7316
34573SOL     OW 5725   2.242   5.502   2.229 -0.3119  0.0833  0.1054
34573SOL    HW1 5726   2.251   5.413   2.265  0.9459  0.5382  0.9743
34573SOL    HW2 5727   2.309   5.507   2.161 -1.6803 -0.2570 -1.3323
34574SOL     OW 5728   0.287   1.209   2.326  0.1472  0.4089  0.6951
34574SOL    HW1 5729   0.365   1.154   2.324 -0.3357 -0.2883  0.9021
34574SOL    HW2 5730   0.292   1.255   2.410  0.4414  0.5296  0.6143
34575SOL     OW 5731   7.255   7.604   7.373 -0.2673  0.0376  0.2065
34575SOL    HW1 5732   7.313   7.543   7.419  0.5230  0.8174  0.2489
34575SOL    HW2 5733   7.198   7.547   7.321  2.1425 -0.7132 -1.8214
34576SOL     OW 5734   0.210   3.282   5.549  0.5192  0.3646  0.0680
34576SOL    HW1 5735   0.290   3.320   5.587 -0.2631  2.7784 -0.4975
34576SOL    HW2 5736   0.145   3.289   5.618  0.5125 -0.6484  0.1807
34577SOL     OW 5737   5.338   9.671   3.574  0.0369 -0.6070 -0.6667
34577SOL    HW1 5738   5.379   9.701   3.655  0.7142 -1.4912 -0.6747
34577SOL    HW2 5739   5.308   9.582   3.593 -1.5639 -0.1280 -0.7830
34578SOL     OW 5740   7.200   6.912   3.665  0.4192 -0.0103  0.4090
34578SOL    HW1 5741   7.227   7.001   3.684  4.4015 -1.3844  2.4308
34578SOL    HW2 5742   7.278   6.859   3.683 -1.6443 -3.8977 -0.8954
34579SOL     OW 5743  10.368  10.462   0.810 -0.0912 -0.6705 -0.1785
34579SOL    HW1 5744  10.391  10.461   0.717  1.4511  0.6031  0.1461
34579SOL    HW2 5745  10.444  10.422   0.854  0.4718  1.2816  0.7290
34580SOL     OW 5746  10.980   7.708   8.312 -0.3922 -0.4379 -0.0930
34580SOL    HW1 5747  10.974   7.685   8.219 -0.7410  0.1142 -0.2091
34580SOL    HW2 5748  10.985   7.623   8.357  0.1933 -0.6991 -0.6400
34581SOL     OW 5749  10.185   7.604   8.463 -0.2553 -0.4515  0.3741
34581SOL    HW1 5750  10.102   7.626   8.421  0.9541  0.7371 -1.5701
34581SOL    HW2 5751  10.193   7.509   8.453 -1.1727 -0.5169  0.2031
34582SOL     OW 5752   3.608   2.302   5.671  0.0732 -0.1059  0.3149
34582SOL    HW1 5753   3.526   2.254   5.655 -0.2213  0.0405  1.3099
34582SOL    HW2 5754   3.596   2.385   5.626  0.5804 -0.9362 -1.4166
34583SOL     OW 5755   0.374   5.242   7.711 -0.9120  0.1130  0.1094
34583SOL    HW1 5756   0.390   5.224   7.804 -1.4667  0.0607  0.1998
34583SOL    HW2 5757   0.384   5.336   7.703 -1.6994  0.2294  0.4009
34584SOL     OW 5758   0.006   4.837   7.464  0.5706  0.0034  0.8631
34584SOL    HW1 5759  -0.044   4.869   7.539  0.4215 -1.7600  1.5766
34584SOL    HW2 5760   0.092   4.816   7.500  0.5688 -0.6501  0.4938
34585SOL     OW 5761   8.709   1.064   8.199 -0.3531 -0.1736  0.2221
34585SOL    HW1 5762   8.643   1.112   8.250 -1.4499 -1.1661 -0.2194
34585SOL    HW2 5763   8.719   0.981   8.245  0.7387  0.0303  0.3785
34586SOL     OW 5764   8.364   5.378   1.578  0.4003  0.4995 -0.9052
34586SOL    HW1 5765   8.425   5.353   1.508  1.0502  1.2650 -0.6311
34586SOL    HW2 5766   8.410   5.447   1.626 -0.1089  0.1064  0.1721
34587SOL     OW 5767   4.490   5.262   0.552  0.0260  0.0903  0.2837
34587SOL    HW1 5768   4.446   5.178   0.538  1.4316 -0.7607  0.7472
34587SOL    HW2 5769   4.487   5.305   0.466  1.0869 -1.3469 -0.5196
34588SOL     OW 5770  10.916  10.467   5.084  0.7593  0.0437 -0.5937
34588SOL    HW1 5771  11.004  10.480   5.118  0.6572 -1.2591  0.2728
34588SOL    HW2 5772  10.860  10.468   5.162  0.2813 -1.1358 -0.8974
34589SOL     OW 5773   7.361   1.528   1.485 -0.8352 -0.1490 -0.2547
34589SOL    HW1 5774   7.321   1.493   1.565 -1.0041  1.2501  0.2860
34589SOL    HW2 5775   7.421   1.595   1.516 -1.3171  0.8056 -1.3406
34590SOL     OW 5776   0.373   0.863  10.940 -0.5225 -0.3029 -0.3149
34590SOL    HW1 5777   0.281   0.887  10.945 -0.7075 -0.5912 -1.7665
34590SOL    HW2 5778   0.400   0.852  11.031 -1.8345  0.0813  0.1479
34591SOL     OW 5779   6.805  10.020   1.872  0.1210 -0.0871  0.2730
34591SOL    HW1 5780   6.792   9.948   1.810  0.3541 -1.1690  1.4416
34591SOL    HW2 5781   6.874   9.989   1.931  0.2450  1.1138  0.7844
34592SOL     OW 5782   6.874  10.602   3.641 -0.1110 -0.1355 -0.2896
34592SOL    HW1 5783   6.868  10.565   3.553 -0.1126 -1.6352  0.3102
34592SOL    HW2 5784   6.960  10.576   3.673 -0.1457  0.3059  0.1899
34593SOL     OW 5785   7.800   3.424   8.812 -0.3836  0.3545 -0.7076
34593SOL    HW1 5786   7.795   3.329   8.801 -0.2305  0.5636 -2.8956
34593SOL    HW2 5787   7.891   3.440   8.836 -0.3367 -0.0123 -0.6264
34594SOL     OW 5788   5.444   3.924   3.211 -0.2990  0.6130  0.0879
34594SOL    HW1 5789   5.379   3.993   3.198 -1.6967 -0.2293  2.0254
34594SOL    HW2 5790   5.394   3.853   3.251  1.1477 -1.4405 -1.5471
34595SOL     OW 5791   8.153   8.374   8.480  0.2531 -0.0861 -0.4343
34595SOL    HW1 5792   8.136   8.287   8.443  2.0314 -0.9519  0.6781
34595SOL    HW2 5793   8.162   8.359   8.574  1.4193  1.1513 -0.3254
34596SOL     OW 5794   0.146   8.915   9.122 -0.0049 -0.1202 -0.6592
34596SOL    HW1 5795   0.129   8.821   9.129  3.1098 -0.7492 -0.1318
34596SOL    HW2 5796   0.127   8.949   9.210 -0.3577 -0.3863 -0.6297
34597SOL     OW 5797   1.672   0.069   9.692 -0.7839 -0.1301 -0.4738
34597SOL    HW1 5798   1.636   0.157   9.688 -0.1285  0.1657 -0.0414
34597SOL    HW2 5799   1.665   0.044   9.784  2.0851  0.8100  0.0957
34598SOL     OW 5800   0.709   2.552   8.246 -0.3140 -0.3759 -0.7027
34598SOL    HW1 5801   0.710   2.457   8.231 -0.5640 -0.3492 -0.9074
34598SOL    HW2 5802   0.650   2.585   8.178 -0.4109 -0.0991 -0.4822
34599SOL     OW 5803   7.212   9.429   5.425 -0.2689 -0.3853  0.0060
34599SOL    HW1 5804   7.303   9.402   5.411  0.5502  1.7633  0.7457
34599SOL    HW2 5805   7.186   9.470   5.343 -0.4217 -0.5676 -0.0386
34600SOL     OW 5806   3.296   5.755   7.109 -0.0054  0.1599 -0.4293
34600SOL    HW1 5807   3.358   5.824   7.085  0.4985 -0.9344 -2.5696
34600SOL    HW2 5808   3.211   5.799   7.105  0.4769  1.2966  0.9758
34601SOL     OW 5809   4.713  10.137   4.264 -0.3921 -0.4872 -0.8317
34601SOL    HW1 5810   4.701  10.082   4.186  1.2245 -2.1275  0.0069
34601SOL    HW2 5811   4.727  10.074   4.335  0.7221  1.0176  0.3255
34602SOL     OW 5812   6.680   2.427   1.903 -0.5613  0.3809  0.0750
34602SOL    HW1 5813   6.695   2.428   1.808  0.0956  0.2920  0.1686
34602SOL    HW2 5814   6.588   2.452   1.913 -0.1783  2.2549 -0.5077
34603SOL     OW 5815   6.521   5.565   2.753 -0.0415 -0.0678  0.0861
34603SOL    HW1 5816   6.508   5.641   2.809  0.4412  0.2237 -0.1930
34603SOL    HW2 5817   6.434   5.528   2.741 -0.0318 -0.7890  1.9357
34604SOL     OW 5818   7.563   9.790   2.220  0.3107  0.5476  0.2968
34604SOL    HW1 5819   7.479   9.744   2.229  0.0946  0.9750  0.5060
34604SOL    HW2 5820   7.540   9.873   2.178  0.8319  0.0777 -0.9602
34605SOL     OW 5821   5.711   0.393   2.891  0.2000 -0.3763  0.6573
34605SOL    HW1 5822   5.672   0.318   2.938 -0.9916 -0.2993 -0.1540
34605SOL    HW2 5823   5.663   0.396   2.808 -0.9970  2.3418  1.3603
34606SOL     OW 5824   7.808   6.284   4.104  0.3280 -0.6302 -0.3368
34606SOL    HW1 5825   7.818   6.315   4.015  0.1123  1.1323  0.2184
34606SOL    HW2 5826   7.717   6.303   4.126  0.7506  0.2851  0.7181
34607SOL     OW 5827   1.281   2.579   1.966 -0.2056  0.4670 -0.1392
34607SOL    HW1 5828   1.263   2.593   1.873  0.9908  2.4915 -0.1065
34607SOL    HW2 5829   1.207   2.619   2.011 -1.2345 -1.2775 -0.1722
34608SOL     OW 5830   6.605   1.695   1.909  0.1409 -0.3692 -0.4318
34608SOL    HW1 5831   6.565   1.780   1.892 -0.1973 -0.5503 -0.5680
34608SOL    HW2 5832   6.680   1.714   1.965  0.5315  0.0977 -1.1082
34609SOL     OW 5833   9.542   3.136  10.412 -0.3527  0.2538 -0.0159
34609SOL    HW1 5834   9.633   3.142  10.444 -0.3782  3.5315 -0.1497
34609SOL    HW2 5835   9.549   3.090  10.329  0.8574 -1.3942  0.9345
34610SOL     OW 5836   6.726   4.789   6.148  0.0079  0.4681  0.0220
34610SOL    HW1 5837   6.661   4.828   6.091  0.3948  1.2223  0.0835
34610SOL    HW2 5838   6.691   4.702   6.170 -0.3282  0.3296 -1.0257
34611SOL     OW 5839   6.182   4.281   9.823  0.0615  0.2087 -0.5256
34611SOL    HW1 5840   6.153   4.190   9.822 -0.4166  0.3590 -0.6167
34611SOL    HW2 5841   6.176   4.308   9.914  1.2565 -0.1745 -0.3144
34612SOL     OW 5842   7.938   1.983   6.008 -0.5162  0.9441  0.5190
34612SOL    HW1 5843   8.030   2.003   5.991 -0.1581  0.3159  1.6212
34612SOL    HW2 5844   7.912   1.927   5.935  0.3705  0.0418  0.8673
34613SOL     OW 5845   3.152   2.172   8.177 -0.3078 -0.6096 -0.0884
34613SOL    HW1 5846   3.247   2.173   8.184 -0.2949  0.2800 -0.1768
34613SOL    HW2 5847   3.121   2.165   8.268 -0.1411  0.4939  0.0769
34614SOL     OW 5848   4.786   6.971   1.111 -0.3806 -0.0254 -0.1713
34614SOL    HW1 5849   4.843   6.921   1.171  0.6140 -0.3618 -1.3562
34614SOL    HW2 5850   4.754   7.044   1.164  1.4481  0.3855  0.4574
34615SOL     OW 5851   0.513   7.758   4.431  0.4778 -0.0021  0.1861
34615SOL    HW1 5852   0.498   7.835   4.486  0.1088 -0.1084  0.2328
34615SOL    HW2 5853   0.436   7.704   4.443  1.7201 -1.4965  1.9612
34616SOL     OW 5854   5.942   7.778  10.955 -0.1720  0.0915 -0.2369
34616SOL    HW1 5855   6.025   7.819  10.983 -1.1137 -0.6219  4.4473
34616SOL    HW2 5856   5.879   7.850  10.956 -0.7289 -0.2902  2.6545
34617SOL     OW 5857   7.000   6.907   4.848  0.2392  0.3340  0.5742
34617SOL    HW1 5858   6.965   6.972   4.908 -0.5200  0.7332 -0.2747
34617SOL    HW2 5859   7.038   6.958   4.776 -1.0465 -0.1211 -0.4860
34618SOL     OW 5860  10.833   9.400   4.394  0.6293 -0.4550 -0.1224
34618SOL    HW1 5861  10.849   9.389   4.488 -1.5216  1.4627  0.5531
34618SOL    HW2 5862  10.919   9.419   4.357  1.4027 -0.5065  1.5836
34619SOL     OW 5863   0.580   4.783   7.433 -0.3754  0.1561 -0.3806
34619SOL    HW1 5864   0.504   4.771   7.489 -0.0954 -1.0377 -0.2263
34619SOL    HW2 5865   0.550   4.758   7.345  0.3050 -2.1987  0.0020
34620SOL     OW 5866   2.326  10.743   0.408  0.1729 -0.0612  0.6636
34620SOL    HW1 5867   2.398  10.756   0.470  1.3027  1.1412 -0.7952
34620SOL    HW2 5868   2.369  10.717   0.327 -1.1044  0.0367 -0.0755
34621SOL     OW 5869   0.136   0.688   1.333  0.1607 -0.3181 -0.0925
34621SOL    HW1 5870   0.145   0.782   1.349  0.9731 -0.4163  0.0673
34621SOL    HW2 5871   0.045   0.677   1.307 -0.1144  0.4270  0.5060
34622SOL     OW 5872   4.540   5.063   6.984 -0.2483  0.0456  0.0679
34622SOL    HW1 5873   4.463   5.030   6.937 -1.0282  1.6862  0.1436
34622SOL    HW2 5874   4.596   5.101   6.916 -0.0450 -0.0893  0.1566
34623SOL     OW 5875   5.873   7.648   7.179 -0.0310  0.9558  0.3986
34623SOL    HW1 5876   5.782   7.627   7.202 -0.5272  2.1736 -0.3532
34623SOL    HW2 5877   5.885   7.609   7.093 -0.2190  1.7715 -0.0019
34624SOL     OW 5878   5.339   0.018   5.835 -0.6445  0.0204  0.1629
34624SOL    HW1 5879   5.291   0.061   5.765  0.2396  0.7093 -0.0465
34624SOL    HW2 5880   5.372   0.090   5.889  2.4133 -0.2059 -1.1925
34625SOL     OW 5881   0.738   2.096  10.986 -0.2031  0.2707 -0.2210
34625SOL    HW1 5882   0.801   2.072  11.053  0.3174  1.0152 -0.4279
34625SOL    HW2 5883   0.687   2.017  10.971  0.8778 -0.4349 -0.2629
34626SOL     OW 5884   7.827   8.260   6.864  0.0114  0.2630  0.3611
34626SOL    HW1 5885   7.772   8.288   6.937 -2.7477  1.4256 -1.9971
34626SOL    HW2 5886   7.769   8.209   6.808  1.8928 -0.2143 -1.2805
34627SOL     OW 5887   2.131   3.392   5.101  0.8426 -0.8557  0.2860
34627SOL    HW1 5888   2.149   3.303   5.131 -0.2687 -0.6525  1.6391
34627SOL    HW2 5889   2.065   3.382   5.033  0.5763 -1.0510  0.5728
34628SOL     OW 5890   3.240   2.407   8.786 -0.5425  0.9036  0.1584
34628SOL    HW1 5891   3.304   2.461   8.741 -0.7021 -0.4845 -1.8509
34628SOL    HW2 5892   3.291   2.337   8.826 -0.6733  0.5244 -0.3329
34629SOL     OW 5893   0.882   8.649   4.656  0.2866 -0.3424  0.2910
34629SOL    HW1 5894   0.866   8.555   4.642 -0.4061 -0.2033  0.1042
34629SOL    HW2 5895   0.805   8.680   4.704  0.7869  0.0153  0.8722
34630SOL     OW 5896   2.239   1.080   2.416 -0.8950  0.0723  0.3484
34630SOL    HW1 5897   2.244   1.103   2.324  2.2747 -0.3975  0.2919
34630SOL    HW2 5898   2.261   1.161   2.462 -0.8970 -0.0672  0.5969
34631SOL     OW 5899   8.833   1.161  10.391 -0.8101  0.3055  0.6518
34631SOL    HW1 5900   8.813   1.251  10.417 -0.5274  0.7208 -0.4879
34631SOL    HW2 5901   8.753   1.130  10.348 -0.7425  0.1933  0.6072
34632SOL     OW 5902   8.685   2.076  10.464  0.0113  0.4859  0.3578
34632SOL    HW1 5903   8.689   1.980  10.467  0.6748  0.5089  0.3771
34632SOL    HW2 5904   8.694   2.103  10.556 -0.8595  0.5476  0.4289
34633SOL     OW 5905   1.586   1.519   8.040 -0.5007  0.2467  0.3657
34633SOL    HW1 5906   1.621   1.537   8.127 -1.6189 -0.7682  1.0382
34633SOL    HW2 5907   1.660   1.481   7.992 -0.2701 -0.5006  1.2990
34634SOL     OW 5908   1.377   3.451   9.173  0.1977 -0.1064 -0.1155
34634SOL    HW1 5909   1.371   3.440   9.078 -1.1731  0.3671 -0.1187
34634SOL    HW2 5910   1.291   3.486   9.197  0.6497  0.0913  1.2561
34635SOL     OW 5911   3.622   6.077   6.394  0.4336  0.0683  0.1510
34635SOL    HW1 5912   3.557   6.091   6.325 -0.3333 -1.7427  0.4570
34635SOL    HW2 5913   3.573   6.083   6.476  1.1790  1.3323  0.5416
34636SOL     OW 5914   8.721   3.013   8.978  0.4619  0.1671  0.0516
34636SOL    HW1 5915   8.644   3.067   8.996  0.4944  0.4338 -0.5953
34636SOL    HW2 5916   8.710   2.936   9.034 -0.2936  0.1832 -0.0744
34637SOL     OW 5917   8.814   9.743   8.465  0.0552  0.6077  0.3868
34637SOL    HW1 5918   8.721   9.755   8.486  0.0425  2.5134 -0.5801
34637SOL    HW2 5919   8.859   9.766   8.547 -0.2550  1.9937  0.2010
34638SOL     OW 5920   8.534   9.092   7.789  0.0842  0.2566 -0.5332
34638SOL    HW1 5921   8.559   9.137   7.708 -0.8842 -1.2972 -1.7609
34638SOL    HW2 5922   8.551   8.999   7.771 -1.0198 -0.2113  0.6996
34639SOL     OW 5923   5.079   5.311   0.588  0.1505  0.3060  0.2733
34639SOL    HW1 5924   5.048   5.242   0.646 -1.7476 -0.1241 -1.1718
34639SOL    HW2 5925   5.049   5.392   0.629  1.8452  0.3005  1.6439
34640SOL     OW 5926   7.064   1.016   2.584  0.3948 -0.6681  0.1618
34640SOL    HW1 5927   7.119   0.938   2.575  0.4942 -0.5564 -0.1825
34640SOL    HW2 5928   6.979   0.989   2.550  0.7730 -0.2435 -1.1702
34641SOL     OW 5929   8.218   3.167   2.330  0.3910  0.1872 -0.7376
34641SOL    HW1 5930   8.257   3.089   2.367  2.6822  0.2244 -2.8563
34641SOL    HW2 5931   8.258   3.240   2.378  0.7588  0.1482 -0.9870
34642SOL     OW 5932   4.181  10.336   3.104 -0.3616 -0.8341  0.2433
34642SOL    HW1 5933   4.156  10.337   3.196  2.7436  2.5938  1.2707
34642SOL    HW2 5934   4.124  10.401   3.063  0.9866  0.7618  0.7738
34643SOL     OW 5935   6.349   5.692   8.776 -0.3419 -0.0439 -0.1235
34643SOL    HW1 5936   6.424   5.682   8.718 -0.9846  4.0290 -2.0569
34643SOL    HW2 5937   6.276   5.654   8.728 -0.3495  0.6372 -0.6708
34644SOL     OW 5938   8.863   5.663   2.032  0.8017 -0.2232  0.7691
34644SOL    HW1 5939   8.779   5.632   2.064  1.6075 -0.7390  2.4808
34644SOL    HW2 5940   8.871   5.623   1.945 -1.4374  1.2399 -0.2269
34645SOL     OW 5941   0.885  10.212   4.445  0.4890  0.4728 -0.6187
34645SOL    HW1 5942   0.910  10.121   4.426  0.8431  0.2172  0.8964
34645SOL    HW2 5943   0.954  10.244   4.504 -0.3425  1.2685 -0.0430
34646SOL     OW 5944   8.250   9.552   7.032 -0.5725  0.2330  0.7205
34646SOL    HW1 5945   8.267   9.589   7.119 -1.3427  1.6577  0.2944
34646SOL    HW2 5946   8.292   9.614   6.972 -2.2129  0.6745 -0.0329
34647SOL     OW 5947   5.410   3.175   7.884 -0.0586 -0.6614  0.4283
34647SOL    HW1 5948   5.341   3.110   7.870 -0.5373  0.2681 -2.1129
34647SOL    HW2 5949   5.373   3.235   7.949 -1.1236 -0.8959  0.0645
34648SOL     OW 5950   6.992   9.267   5.403 -0.0170  0.2299 -0.5494
34648SOL    HW1 5951   7.037   9.184   5.394  0.0265  0.2771 -0.7578
34648SOL    HW2 5952   7.060   9.329   5.430 -0.0917  0.1522 -0.1714
34649SOL     OW 5953   6.226   1.719   5.190  0.2855 -0.0543  0.0107
34649SOL    HW1 5954   6.269   1.667   5.258 -0.7366  1.1092  1.6176
34649SOL    HW2 5955   6.144   1.749   5.231 -1.0652 -0.4501 -2.1985
34650SOL     OW 5956   3.716   0.446   1.567  0.2652  0.2541 -0.0513
34650SOL    HW1 5957   3.655   0.515   1.539 -1.9235 -1.5139  0.0237
34650SOL    HW2 5958   3.779   0.439   1.495 -0.3975  1.2772 -0.7644
34651SOL     OW 5959   5.766   9.984  10.911 -0.3280  0.4101  0.7319
34651SOL    HW1 5960   5.793  10.071  10.882 -0.1118 -0.2211 -1.1258
34651SOL    HW2 5961   5.848   9.937  10.923 -0.4391 -0.3553 -1.1224
34652SOL     OW 5962  10.981   1.999   4.280 -0.0343  0.7370 -0.0847
34652SOL    HW1 5963  10.984   2.044   4.195 -2.0126  1.3179  0.1109
34652SOL    HW2 5964  10.961   2.069   4.343 -0.5817 -0.0137  0.5829
34653SOL     OW 5965   4.569  10.940   5.149 -0.1311  0.9053  0.0158
34653SOL    HW1 5966   4.619  10.972   5.074  1.8468  0.1655  0.9359
34653SOL    HW2 5967   4.634  10.931   5.218 -1.3403 -1.2057  0.9665
34654SOL     OW 5968  10.147   0.369   9.790  0.5646  0.2043  0.4203
34654SOL    HW1 5969  10.185   0.322   9.863 -0.1522 -0.7476  0.2010
34654SOL    HW2 5970  10.128   0.302   9.724 -1.2800  0.6376  0.4433
34655SOL     OW 5971   9.336   9.118   3.219 -0.0635  0.4511 -0.3362
34655SOL    HW1 5972   9.368   9.208   3.228  0.7662  0.4356 -2.4473
34655SOL    HW2 5973   9.415   9.064   3.228 -0.0277  0.1700 -2.0169
34656SOL     OW 5974   6.795   6.925   6.390  0.1297  0.0113  0.0246
34656SOL    HW1 5975   6.838   6.841   6.407 -0.6947 -0.1380  1.6316
34656SOL    HW2 5976   6.714   6.901   6.345  0.4049  0.0397 -0.4842
34657SOL     OW 5977  10.115   1.476   1.855  0.4317 -0.0754  0.0982
34657SOL    HW1 5978  10.199   1.483   1.809  0.5183 -1.6568 -0.0204
34657SOL    HW2 5979  10.070   1.558   1.835  1.0424 -0.1315 -1.6566
34658SOL     OW 5980   2.504   7.512  10.110  0.4418  0.2858  0.9125
34658SOL    HW1 5981   2.556   7.573  10.164  0.7438  0.8533  0.0166
34658SOL    HW2 5982   2.452   7.569  10.054  0.0660 -0.2963  0.6655
34659SOL     OW 5983   6.857   2.676   3.763  0.4492 -0.1736 -0.1686
34659SOL    HW1 5984   6.798   2.601   3.755 -0.1011  0.0350  1.5773
34659SOL    HW2 5985   6.864   2.711   3.674 -2.1307 -0.1422 -0.4180
34660SOL     OW 5986   9.135   3.868   6.323  0.2157 -0.4867  0.2783
34660SOL    HW1 5987   9.191   3.836   6.252  1.7367  0.7123  0.8854
34660SOL    HW2 5988   9.047   3.843   6.296  0.8857 -1.2482 -1.3805
34661SOL     OW 5989   0.050   1.662   4.080 -0.2134  0.2239  0.5799
34661SOL    HW1 5990   0.039   1.726   4.010  0.6663 -0.3988 -0.1487
34661SOL    HW2 5991  -0.017   1.685   4.145 -0.6296  1.1868 -0.1753
34662SOL     OW 5992   8.205   8.282   5.353 -0.2010  0.2549  0.1099
34662SOL    HW1 5993   8.259   8.245   5.424 -0.0122  1.1668  0.4522
34662SOL    HW2 5994   8.142   8.338   5.398  0.5578  1.6464 -0.4850
34663SOL     OW 5995   1.543   0.215   0.497  0.4610 -0.0607 -0.0914
34663SOL    HW1 5996   1.460   0.189   0.535 -0.1922  2.2360  0.1920
34663SOL    HW2 5997   1.557   0.153   0.425  0.4096 -2.8176  2.0795
34664SOL     OW 5998   2.670   1.069   0.705  0.6479  0.2370 -0.2791
34664SOL    HW1 5999   2.664   1.129   0.630 -2.0377  0.1151 -0.2557
34664SOL    HW2 6000   2.715   0.992   0.671  1.2068  0.9472 -1.2085
34665SOL     OW 6001   3.244   3.592   8.329 -0.0092 -0.0162  0.2148
34665SOL    HW1 6002   3.157   3.557   8.348 -0.6084  0.5441 -1.3531
34665SOL    HW2 6003   3.260   3.570   8.238  0.7946  1.3147  0.0096
34666SOL     OW 6004  10.657  10.493   4.004 -0.4819  0.0013  0.5662
34666SOL    HW1 6005  10.716  10.527   4.071 -1.4313  0.3923  1.2245
34666SOL    HW2 6006  10.612  10.571   3.970 -1.7145 -0.4230  1.1481
34667SOL     OW 6007   4.371   3.488   6.184 -0.8483 -0.1928  0.0071
34667SOL    HW1 6008   4.447   3.494   6.242 -2.0444 -0.2033  1.6388
34667SOL    HW2 6009   4.400   3.527   6.102  1.5785 -2.1027 -0.1543
34668SOL     OW 6010   9.382   7.162   0.771  0.2243  0.1746 -0.0529
34668SOL    HW1 6011   9.418   7.224   0.707  0.5456  1.3410  1.2242
34668SOL    HW2 6012   9.448   7.093   0.776  0.5198  0.4165 -0.4791
34669SOL     OW 6013   8.213   7.457   2.585 -0.4005  0.6818  0.2577
34669SOL    HW1 6014   8.215   7.487   2.494 -1.6070 -0.0313 -0.0208
34669SOL    HW2 6015   8.305   7.459   2.613  0.4851 -2.0586 -1.9722
34670SOL     OW 6016   4.988   0.496   0.092  0.1872 -0.1578  0.0171
34670SOL    HW1 6017   4.893   0.511   0.098  0.1389  0.4944 -1.7369
34670SOL    HW2 6018   4.997   0.437   0.017  1.1506 -0.7604  0.5814
34671SOL     OW 6019  10.647   4.506  10.621 -0.2808  0.6463  0.5310
34671SOL    HW1 6020  10.596   4.503  10.539 -0.0990  0.4551  0.4226
34671SOL    HW2 6021  10.708   4.578  10.609 -0.3391  0.6984  0.5480
34672SOL     OW 6022  10.888   5.174   6.949 -0.1432  0.2554 -0.3903
34672SOL    HW1 6023  10.929   5.148   7.032  1.6410 -1.3005 -1.6564
34672SOL    HW2 6024  10.807   5.124   6.945 -0.3843  0.5578  0.5222
34673SOL     OW 6025   4.129   0.808   7.785 -0.1527 -0.1529 -0.0163
34673SOL    HW1 6026   4.051   0.859   7.805  0.6319 -0.1671  3.8676
34673SOL    HW2 6027   4.112   0.722   7.825  1.5344 -0.3779  0.2872
34674SOL     OW 6028  10.784   3.343   4.187  0.0666  0.0496 -0.0572
34674SOL    HW1 6029  10.822   3.431   4.187  0.5554 -0.1584  0.7524
34674SOL    HW2 6030  10.832   3.297   4.118  0.5806  0.0890  0.2710
34675SOL     OW 6031   0.308   3.543   1.530 -0.2911  0.4073  0.0654
34675SOL    HW1 6032   0.368   3.474   1.501 -1.0279 -0.0460 -0.4175
34675SOL    HW2 6033   0.327   3.554   1.623 -0.4717 -0.7725  0.2557
34676SOL     OW 6034   6.966   0.847   3.200  0.4902  0.1240  0.2793
34676SOL    HW1 6035   6.883   0.810   3.171  0.8361 -1.2492  0.9910
34676SOL    HW2 6036   7.028   0.774   3.196  1.6962  1.1480 -0.3343
34677SOL     OW 6037   9.503   9.174  10.573 -0.0703 -0.4859  0.1633
34677SOL    HW1 6038   9.431   9.232  10.599 -0.0155 -0.4951  0.3383
34677SOL    HW2 6039   9.554   9.162  10.653  1.7265  1.7643 -0.5384
34678SOL     OW 6040  10.229   0.929   8.792  0.3735 -0.5134  0.0400
34678SOL    HW1 6041  10.267   1.008   8.830 -0.5999 -1.6544  3.7926
34678SOL    HW2 6042  10.253   0.859   8.852 -0.4572 -2.7744 -2.0854
34679SOL     OW 6043   3.812   1.198   4.268  0.4180  0.0519  0.0041
34679SOL    HW1 6044   3.758   1.210   4.346  0.6217  0.7283  0.0435
34679SOL    HW2 6045   3.759   1.141   4.212 -1.5424  2.6991 -1.0657
34680SOL     OW 6046  10.071   2.965   8.819  0.2040 -0.1884 -0.3630
34680SOL    HW1 6047  10.065   2.870   8.829  2.2626 -0.3699 -0.3478
34680SOL    HW2 6048  10.051   2.999   8.906 -1.4778 -0.5203 -0.5901
34681SOL     OW 6049   1.493   5.633   1.606 -0.1621  0.6637 -0.4943
34681SOL    HW1 6050   1.505   5.541   1.586  1.1019  0.7216 -0.1294
34681SOL    HW2 6051   1.400   5.649   1.593 -0.2220 -0.4097 -1.5779
34682SOL     OW 6052   9.350   0.902   2.152  0.6344  0.5997  0.6336
34682SOL    HW1 6053   9.400   0.966   2.202  0.0643  1.0428  0.6444
34682SOL    HW2 6054   9.351   0.935   2.063  1.0638  0.1704  0.4745
34683SOL     OW 6055   0.394   6.172   0.658  0.1355 -0.2957 -0.2656
34683SOL    HW1 6056   0.488   6.162   0.641  0.1353 -0.6933 -0.0602
34683SOL    HW2 6057   0.386   6.252   0.709  0.4295 -0.5785  0.2317
34684SOL     OW 6058   2.255   3.064  10.698  0.4885 -0.1686 -0.9395
34684SOL    HW1 6059   2.349   3.081  10.691  0.5640  0.6526  1.2997
34684SOL    HW2 6060   2.213   3.133  10.647  1.0802  0.1337 -1.0188
34685SOL     OW 6061   5.656   2.470   9.577  0.1726 -0.2694  0.0595
34685SOL    HW1 6062   5.630   2.518   9.656  1.9532 -1.0567  1.1925
34685SOL    HW2 6063   5.614   2.385   9.586 -0.5383  0.0227 -0.4284
34686SOL     OW 6064   3.279   2.118   0.853  0.3603  0.1068  0.4258
34686SOL    HW1 6065   3.357   2.136   0.801  0.5473  1.6616  1.1838
34686SOL    HW2 6066   3.227   2.058   0.799  1.1607  0.6118 -0.9548
34687SOL     OW 6067   0.423   2.269   0.017 -0.1961  0.0089 -0.1317
34687SOL    HW1 6068   0.468   2.353   0.022  0.0749 -0.1584  0.2867
34687SOL    HW2 6069   0.365   2.268   0.093 -0.7311  0.1194 -0.5349
34688SOL     OW 6070   3.161   1.477   0.135 -0.0260  0.6157 -0.4032
34688SOL    HW1 6071   3.186   1.561   0.096 -0.2158  0.6771 -0.3937
34688SOL    HW2 6072   3.108   1.435   0.067  1.2130 -0.1013 -0.9713
34689SOL     OW 6073   3.079   8.162   1.870 -0.2497  0.2707 -0.0287
34689SOL    HW1 6074   3.084   8.191   1.961  0.0055  0.7014 -0.1803
34689SOL    HW2 6075   3.110   8.236   1.819  1.7062 -0.7086 -0.3435
34690SOL     OW 6076  10.672  10.915   0.223 -0.7037 -0.5343 -0.0376
34690SOL    HW1 6077  10.610  10.988   0.221 -0.2005 -0.0971 -0.0550
34690SOL    HW2 6078  10.747  10.946   0.171 -0.8449 -1.4013 -0.7857
34691SOL     OW 6079  10.871   5.732   3.636  0.0929 -0.3563  0.5736
34691SOL    HW1 6080  10.873   5.686   3.719 -1.2034 -0.7963  0.3857
34691SOL    HW2 6081  10.915   5.673   3.575 -0.8449 -1.0076  0.5078
34692SOL     OW 6082   6.772   9.212   9.165  0.1101  0.4642  0.4883
34692SOL    HW1 6083   6.769   9.151   9.239 -0.2995 -2.2002 -1.5523
34692SOL    HW2 6084   6.860   9.200   9.129 -0.2310  0.5141 -0.3799
34693SOL     OW 6085   9.457   7.281  11.011  0.2971  0.0239 -0.5979
34693SOL    HW1 6086   9.391   7.346  10.986  0.8508  0.9518  0.2869
34693SOL    HW2 6087   9.441   7.207  10.952  0.0235  1.1799 -2.0239
34694SOL     OW 6088   7.273   7.367   3.465 -0.1643  0.4734  0.1037
34694SOL    HW1 6089   7.360   7.344   3.434 -0.4965  1.0595 -1.3438
34694SOL    HW2 6090   7.278   7.461   3.483 -1.2234  1.2447 -2.9233
34695SOL     OW 6091   4.821   3.259   9.770  0.1264  0.6137  0.6648
34695SOL    HW1 6092   4.806   3.221   9.684 -0.5720  0.6084  0.7865
34695SOL    HW2 6093   4.904   3.220   9.800  0.2563  0.4508  0.0941
34696SOL     OW 6094  10.809   7.304   4.041  0.1469  0.0578 -0.6162
34696SOL    HW1 6095  10.848   7.318   4.127 -1.5652 -0.0499  0.2186
34696SOL    HW2 6096  10.801   7.391   4.003 -1.2541  0.3850  0.3577
34697SOL     OW 6097   6.624   3.551   0.625  0.1692 -0.4596  0.1369
34697SOL    HW1 6098   6.690   3.539   0.694  0.7277  1.0343 -0.1178
34697SOL    HW2 6099   6.656   3.498   0.552  0.9136 -0.0384  0.1448
34698SOL     OW 6100   3.052   4.792   5.795  0.4532 -0.2913  0.0856
34698SOL    HW1 6101   3.051   4.696   5.792  3.4449 -0.4788  0.9893
34698SOL    HW2 6102   3.106   4.817   5.721  1.3857  0.5214  1.0069
34699SOL     OW 6103   3.423   7.988   5.453  0.0572  0.3447 -0.1565
34699SOL    HW1 6104   3.386   8.076   5.444 -0.0590  0.2876 -0.2437
34699SOL    HW2 6105   3.443   7.979   5.546 -0.4316  0.2612 -0.0571
34700SOL     OW 6106   7.725   3.041   0.470 -0.3773  0.4094  0.1873
34700SOL    HW1 6107   7.805   2.994   0.497 -0.2244  0.2060 -0.6071
34700SOL    HW2 6108   7.696   2.996   0.391 -2.0377 -0.3597  1.1766
34701SOL     OW 6109   7.434   0.108   0.579  0.2860  0.2986  0.0031
34701SOL    HW1 6110   7.456   0.196   0.610  0.8101 -0.4186  1.8124
34701SOL    HW2 6111   7.518   0.073   0.549  0.2546  0.1114  0.1333
34702SOL     OW 6112   3.731   5.571  10.778  0.0565  0.0122 -0.2133
34702SOL    HW1 6113   3.785   5.504  10.735 -0.6558 -0.1666 -0.8500
34702SOL    HW2 6114   3.744   5.555  10.872 -1.2054 -1.9855 -0.3122
34703SOL     OW 6115   3.090   6.131   1.798 -0.5082 -0.4224 -0.2837
34703SOL    HW1 6116   3.073   6.061   1.861  0.8941  0.4701  1.1557
34703SOL    HW2 6117   3.173   6.107   1.757  0.3383  0.6678  0.7047
34704SOL     OW 6118  10.153   9.485   5.027  0.5536  0.2050 -0.0632
34704SOL    HW1 6119  10.129   9.473   5.119  0.6258  0.7136  0.0256
34704SOL    HW2 6120  10.231   9.540   5.030  1.5287 -1.0882 -0.3583
34705SOL     OW 6121   5.633   1.517   2.224 -0.0907  0.1716  0.0226
34705SOL    HW1 6122   5.611   1.430   2.190  1.0011  0.5151 -1.6488
34705SOL    HW2 6123   5.570   1.531   2.295 -2.5328 -0.6047 -1.8468
34706SOL     OW 6124   5.492   7.713   6.983  0.2968 -0.3699 -0.2699
34706SOL    HW1 6125   5.536   7.719   7.068 -0.8462 -0.2354  0.3227
34706SOL    HW2 6126   5.545   7.768   6.925  0.1212  0.9318  0.7668
34707SOL     OW 6127   8.296   5.165   5.551  0.1864 -0.3477  0.6674
34707SOL    HW1 6128   8.360   5.190   5.618 -0.8871 -0.6738  1.8627
34707SOL    HW2 6129   8.318   5.219   5.475  0.9507  0.6216  1.5455
34708SOL     OW 6130   0.128   6.123   3.997  0.5176  0.7100 -0.0339
34708SOL    HW1 6131   0.204   6.064   3.995  0.6293  0.8285  0.5082
34708SOL    HW2 6132   0.166   6.211   3.999  0.3547  0.7942 -0.4994
34709SOL     OW 6133   4.443   4.636   5.225 -0.7241  0.1170  0.3903
34709SOL    HW1 6134   4.534   4.653   5.250 -0.2673 -1.1146 -0.3512
34709SOL    HW2 6135   4.392   4.700   5.274  0.5193  0.6347  1.0391
34710SOL     OW 6136   8.520   0.219   9.617 -0.1106  0.0462  0.2079
34710SOL    HW1 6137   8.604   0.213   9.662  0.2869 -0.2219 -0.5418
34710SOL    HW2 6138   8.543   0.218   9.524 -0.9446 -0.0520 -0.0055
34711SOL     OW 6139   7.491  10.348   7.065 -0.3288  0.2206 -0.0248
34711SOL    HW1 6140   7.464  10.290   6.994  0.1209 -0.5114  0.3919
34711SOL    HW2 6141   7.512  10.431   7.021 -0.9754  0.0776 -0.6215
34712SOL     OW 6142   9.377   0.712   3.523 -0.0897  0.2253 -0.1768
34712SOL    HW1 6143   9.464   0.706   3.564  0.1947 -1.6345 -0.9666
34712SOL    HW2 6144   9.388   0.779   3.455  0.5803  0.3576  0.0473
34713SOL     OW 6145   5.722   6.309   3.135 -0.1786  0.0858  0.7634
34713SOL    HW1 6146   5.811   6.286   3.164 -0.2147 -3.1736 -1.1627
34713SOL    HW2 6147   5.675   6.226   3.136 -2.2915  1.1584 -1.2236
34714SOL     OW 6148   2.566   0.849   4.262 -0.2509  0.5838  0.0257
34714SOL    HW1 6149   2.498   0.913   4.240 -0.4355  0.2050 -0.5113
34714SOL    HW2 6150   2.534   0.808   4.343 -0.9094  0.0672 -0.4812
34715SOL     OW 6151   7.040   9.137   3.609  0.2919  0.2383  0.4099
34715SOL    HW1 6152   7.014   9.229   3.619 -0.6022  0.2528 -1.7214
34715SOL    HW2 6153   6.981   9.101   3.544  1.4932 -1.5174  0.2094
34716SOL     OW 6154   0.129  10.817   3.915  0.1493 -0.1706  0.3276
34716SOL    HW1 6155   0.166  10.875   3.849 -1.8433  1.9909  0.9874
34716SOL    HW2 6156   0.084  10.749   3.865  2.9475 -1.5942 -0.4567
34717SOL     OW 6157  10.426   3.109   6.638 -0.4369 -0.3234 -0.2426
34717SOL    HW1 6158  10.479   3.106   6.558  2.5941  0.9866  1.5530
34717SOL    HW2 6159  10.355   3.170   6.618  0.0633 -0.2665 -1.9870
34718SOL     OW 6160   5.576   4.938   7.968 -0.6229 -0.1809  0.1120
34718SOL    HW1 6161   5.571   4.894   7.883 -0.9150 -1.3238  0.7137
34718SOL    HW2 6162   5.670   4.955   7.980 -0.5461 -0.3021 -0.2873
34719SOL     OW 6163   3.150   7.180   4.115 -0.2095 -0.4927 -0.0821
34719SOL    HW1 6164   3.131   7.097   4.159  0.4324 -0.5830  0.0278
34719SOL    HW2 6165   3.076   7.236   4.139  0.7233 -0.1118  2.1746
34720SOL     OW 6166   2.937   7.937   5.484  0.3188  0.2213 -0.2448
34720SOL    HW1 6167   2.937   7.853   5.530 -1.9039 -0.2059 -0.8829
34720SOL    HW2 6168   3.007   7.929   5.419 -0.6339 -1.6770 -1.1411
34721SOL     OW 6169   1.839   2.428   2.932  0.1779  0.2535  0.2096
34721SOL    HW1 6170   1.766   2.453   2.875 -0.8656  0.6517  1.6682
34721SOL    HW2 6171   1.806   2.440   3.021  2.1618  0.8524  0.9323
34722SOL     OW 6172   6.688   5.923   0.907  0.3466  0.4362  0.0389
34722SOL    HW1 6173   6.713   6.010   0.876 -0.5273  0.3216 -1.0254
34722SOL    HW2 6174   6.754   5.902   0.973  0.8156  1.7221  0.0163
34723SOL     OW 6175   7.436   1.021   5.053  0.1880 -0.3409  0.2190
34723SOL    HW1 6176   7.342   1.033   5.040  0.4009  1.2494 -0.0701
34723SOL    HW2 6177   7.469   0.991   4.968  0.0891  0.1416  0.0075
34724SOL     OW 6178   6.801   8.659   3.044  0.3475 -0.9264 -0.2217
34724SOL    HW1 6179   6.850   8.598   2.989  0.4253 -0.5258 -0.6033
34724SOL    HW2 6180   6.823   8.634   3.134  1.6568 -0.4432 -0.3864
34725SOL     OW 6181   5.933   9.260   3.457  0.2604  0.2559  0.2318
34725SOL    HW1 6182   5.961   9.350   3.469  1.9560 -0.2237  0.1246
34725SOL    HW2 6183   6.010   9.207   3.477  0.2347 -1.0519 -2.6015
34726SOL     OW 6184   5.080  10.305   4.386  0.2510  0.1379  0.5070
34726SOL    HW1 6185   5.051  10.228   4.434 -0.1735  0.1908  0.3317
34726SOL    HW2 6186   5.019  10.314   4.313  1.2443 -0.2894 -0.4046
34727SOL     OW 6187   6.650   4.203   5.229 -0.0290  0.1711 -0.0744
34727SOL    HW1 6188   6.629   4.296   5.223 -0.6428  0.0852  0.6169
34727SOL    HW2 6189   6.616   4.165   5.148  2.4262  0.9209 -1.5620
34728SOL     OW 6190   3.845   1.277   8.722 -0.4001 -0.0694  0.0578
34728SOL    HW1 6191   3.823   1.185   8.710 -0.9344  0.2053 -1.3301
34728SOL    HW2 6192   3.866   1.308   8.634 -1.1475  1.3590  0.3394
34729SOL     OW 6193  10.312   7.885   4.782 -0.2846 -0.0823  0.2122
34729SOL    HW1 6194  10.395   7.846   4.808 -0.1200 -0.5623 -0.9969
34729SOL    HW2 6195  10.318   7.895   4.688 -1.9580 -0.9919 -0.0359
34730SOL     OW 6196   4.008   4.976   2.345  0.3604  0.1356 -0.3430
34730SOL    HW1 6197   3.979   5.036   2.414  0.4149 -0.3739  0.1299
34730SOL    HW2 6198   3.955   5.000   2.269  0.7934  1.1719 -0.3409
34731SOL     OW 6199   8.799   0.399   2.386  0.0273  0.2814 -0.2394
34731SOL    HW1 6200   8.891   0.384   2.366 -0.3146 -1.5314 -0.5950
34731SOL    HW2 6201   8.762   0.312   2.398 -1.5853  0.9821  0.2265
34732SOL     OW 6202   6.110   0.066   9.900  0.7549 -0.2099  0.2889
34732SOL    HW1 6203   6.160   0.146   9.914  0.7233 -0.1123 -0.1469
34732SOL    HW2 6204   6.071   0.077   9.813 -0.2097 -0.1817  0.7088
34733SOL     OW 6205   5.350   3.168   9.562 -0.1820  0.3651  0.1503
34733SOL    HW1 6206   5.325   3.194   9.651 -0.7839 -0.7115  0.3176
34733SOL    HW2 6207   5.444   3.151   9.567 -0.0966  0.9039  0.4262
34734SOL     OW 6208   8.255   9.178   2.816  0.2200 -0.2899 -0.2544
34734SOL    HW1 6209   8.167   9.149   2.841  0.0375 -0.4563 -1.0678
34734SOL    HW2 6210   8.314   9.125   2.870 -0.1813  0.0661  0.5395
34735SOL     OW 6211   8.436   8.463   5.978 -0.1188 -0.1981 -0.2509
34735SOL    HW1 6212   8.458   8.555   5.994  2.0563 -0.6786 -0.1512
34735SOL    HW2 6213   8.341   8.459   5.988 -0.2537  2.0082 -0.1503
34736SOL     OW 6214  10.567   2.303   8.667  0.0027  0.6985  0.2630
34736SOL    HW1 6215  10.607   2.367   8.726  0.0291 -0.3081  1.3864
34736SOL    HW2 6216  10.491   2.271   8.716  0.5209 -0.7867  0.1311
34737SOL     OW 6217  10.139   9.630   9.213 -0.2433  0.1337  0.1670
34737SOL    HW1 6218  10.105   9.718   9.199  0.8753  0.6034  0.2816
34737SOL    HW2 6219  10.139   9.619   9.308  1.9029  0.9776  0.3039
34738SOL     OW 6220   5.802   1.637   0.315  0.2287  0.3543 -0.7826
34738SOL    HW1 6221   5.719   1.673   0.347  1.3651 -0.1390  3.3863
34738SOL    HW2 6222   5.852   1.713   0.285 -0.6030  1.0669 -0.4071
34739SOL     OW 6223   6.599   4.880   7.077  0.2318 -0.1839 -0.1816
34739SOL    HW1 6224   6.651   4.799   7.072 -0.2101 -0.4679 -0.2494
34739SOL    HW2 6225   6.576   4.898   6.986 -0.8007 -0.7290 -0.0360
34740SOL     OW 6226   6.538   0.770   3.296 -0.2395  0.3519 -0.2976
34740SOL    HW1 6227   6.516   0.855   3.335 -2.5344 -0.0430 -0.6178
34740SOL    HW2 6228   6.517   0.706   3.364 -1.6098 -0.1448 -1.1443
34741SOL     OW 6229   3.695   5.184   3.850 -0.3503  0.1340  0.3045
34741SOL    HW1 6230   3.746   5.144   3.921  0.7715  0.0151 -0.5242
34741SOL    HW2 6231   3.634   5.115   3.823 -1.5154  0.5218  1.7939
34742SOL     OW 6232   7.672   4.624   2.704  0.1647  0.0801  0.0503
34742SOL    HW1 6233   7.710   4.680   2.771  2.4909 -1.7405  0.4015
34742SOL    HW2 6234   7.633   4.684   2.641 -2.7933  1.8562  3.2731
34743SOL     OW 6235   8.164   9.868   4.138  0.0331 -0.8258 -0.3899
34743SOL    HW1 6236   8.104   9.903   4.203  0.9193 -0.0578  0.0402
34743SOL    HW2 6237   8.251   9.880   4.176  0.4215 -4.0309  0.0597
34744SOL     OW 6238   0.942   9.581   7.638  0.1452  0.0187  0.1159
34744SOL    HW1 6239   0.979   9.634   7.709  0.8365 -0.1503 -0.1122
34744SOL    HW2 6240   0.980   9.619   7.559 -0.5567  0.1518 -0.1607
34745SOL     OW 6241   9.841   6.015   3.253 -0.7369 -0.4288  0.2821
34745SOL    HW1 6242   9.878   5.948   3.310  0.2518  1.0290  1.4434
34745SOL    HW2 6243   9.880   6.097   3.284 -1.4872  0.6314 -1.4167
34746SOL     OW 6244   7.148  10.693   3.192 -0.1386  0.3732 -0.3829
34746SOL    HW1 6245   7.201  10.621   3.157  1.0813  0.7014  0.7391
34746SOL    HW2 6246   7.211  10.757   3.223 -1.0941 -0.0573  2.7640
34747SOL     OW 6247   1.121   2.602  10.871 -0.0739 -0.4771 -0.5730
34747SOL    HW1 6248   1.106   2.661  10.945 -0.0850 -1.1848 -0.0027
34747SOL    HW2 6249   1.033   2.581  10.840 -0.0791 -0.4684 -0.5640
34748SOL     OW 6250   6.067  10.801   6.805 -0.3021 -0.2160 -0.3167
34748SOL    HW1 6251   6.023  10.716   6.810 -1.1772  0.2812  0.7489
34748SOL    HW2 6252   6.020  10.857   6.867  1.5186  0.4861  0.5229
34749SOL     OW 6253  10.905   6.374   6.331  0.0675  0.7021  0.0280
34749SOL    HW1 6254  10.908   6.415   6.418  0.1102  0.7483  0.0049
34749SOL    HW2 6255  10.955   6.293   6.341 -2.9905 -1.2471  1.0504
34750SOL     OW 6256   8.656   9.871   5.806 -0.5932 -0.3337  0.4926
34750SOL    HW1 6257   8.717   9.797   5.811  0.5854  0.6253  0.8878
34750SOL    HW2 6258   8.649   9.902   5.897  0.6738  1.3752  0.0522
34751SOL     OW 6259   7.776   6.300   6.848 -0.5036 -0.5048  0.2734
34751SOL    HW1 6260   7.755   6.383   6.890  0.5449 -0.3260  0.4575
34751SOL    HW2 6261   7.728   6.235   6.899  0.4311 -0.2506  1.5403
34752SOL     OW 6262   2.463   6.556   1.589  0.2362 -0.5276  0.2155
34752SOL    HW1 6263   2.507   6.546   1.673  0.6391  1.1924  0.2491
34752SOL    HW2 6264   2.379   6.596   1.611  1.6946  3.2356 -0.3580
34753SOL     OW 6265   2.856   1.517   3.908  0.2353 -0.4495  0.5408
34753SOL    HW1 6266   2.853   1.611   3.894 -0.2043 -0.8517 -2.7305
34753SOL    HW2 6267   2.936   1.503   3.960 -0.2191  1.7224  1.9533
34754SOL     OW 6268   7.275   1.737   4.283  0.2262  0.2519 -0.1631
34754SOL    HW1 6269   7.351   1.785   4.251  0.3786  0.8867  1.1001
34754SOL    HW2 6270   7.215   1.804   4.315 -0.1496 -0.3193  0.3628
34755SOL     OW 6271   4.060   7.363   1.832  0.1467  0.0263  0.3873
34755SOL    HW1 6272   4.095   7.415   1.905  1.4846  0.1781 -0.3241
34755SOL    HW2 6273   4.102   7.278   1.842  0.8760  0.2609 -0.5784
34756SOL     OW 6274   4.291  10.107   7.431 -0.1765  0.3345  0.4027
34756SOL    HW1 6275   4.259  10.097   7.341 -2.6108  1.5426  1.0566
34756SOL    HW2 6276   4.293  10.017   7.465 -1.9540  0.0708 -0.0420
34757SOL     OW 6277   5.933  10.237   4.337 -0.0495  0.2639 -0.1809
34757SOL    HW1 6278   5.999  10.217   4.271 -0.2386  0.1104 -0.3262
34757SOL    HW2 6279   5.963  10.192   4.416  0.9473  1.6513  0.2602
34758SOL     OW 6280   9.592   6.883   9.351  0.4977 -0.3173 -0.4689
34758SOL    HW1 6281   9.566   6.812   9.410 -1.0055  1.9935  1.9041
34758SOL    HW2 6282   9.512   6.904   9.301  0.1919  1.1204  0.5393
34759SOL     OW 6283  10.995   2.326   7.097  0.6941  0.7359  0.3819
34759SOL    HW1 6284  10.960   2.387   7.032  0.5199  1.1395  0.8552
34759SOL    HW2 6285  11.029   2.381   7.167  1.8767  0.3440  0.1475
34760SOL     OW 6286   8.472   0.871   9.434  0.2071 -0.1474  0.0602
34760SOL    HW1 6287   8.401   0.806   9.428  0.4011 -0.2450 -2.1800
34760SOL    HW2 6288   8.492   0.876   9.527 -0.5709 -2.4895  0.4327
34761SOL     OW 6289  10.713   1.590   7.536 -0.5095  0.2002 -0.8793
34761SOL    HW1 6290  10.676   1.622   7.619  1.2451 -1.0968  0.5018
34761SOL    HW2 6291  10.726   1.496   7.552  1.2896  0.2188 -2.0642
34762SOL     OW 6292   3.427   7.645   3.434  0.1156  0.1260  0.2528
34762SOL    HW1 6293   3.456   7.598   3.356 -0.6981  1.4002 -0.8688
34762SOL    HW2 6294   3.346   7.601   3.460  2.6242 -3.2873  3.2501
34763SOL     OW 6295   1.066   0.795   6.423 -0.6006  0.4976  0.4920
34763SOL    HW1 6296   1.066   0.887   6.450 -0.3765 -0.1006  2.6720
34763SOL    HW2 6297   1.120   0.751   6.489  0.0146 -1.0872 -1.0004
34764SOL     OW 6298   3.189   9.479  10.645  0.0876  0.0845  0.5802
34764SOL    HW1 6299   3.250   9.410  10.671  1.3791  0.6232 -0.8906
34764SOL    HW2 6300   3.232   9.523  10.571 -1.7564  0.9728 -0.0185
34765SOL     OW 6301   6.516   1.505  10.669  0.9404 -0.1881  0.1307
34765SOL    HW1 6302   6.583   1.572  10.654 -0.4116  1.1903 -0.0517
34765SOL    HW2 6303   6.560   1.438  10.721  2.0244  1.4642  1.4444
34766SOL     OW 6304   1.266   8.618   2.754 -0.6797 -0.1092  0.1933
34766SOL    HW1 6305   1.231   8.578   2.833  1.8578  1.5249  2.3042
34766SOL    HW2 6306   1.318   8.549   2.713 -1.7890 -0.8802  0.0186
34767SOL     OW 6307   8.285   0.891   8.946  0.5538 -0.1301 -0.3277
34767SOL    HW1 6308   8.273   0.927   9.033 -0.6002 -1.1737 -0.0231
34767SOL    HW2 6309   8.227   0.943   8.890 -0.0696 -0.6069 -0.1357
34768SOL     OW 6310   6.158   0.796   0.566 -0.4940 -0.3793 -0.2060
34768SOL    HW1 6311   6.175   0.887   0.590  0.3255 -0.0689 -1.7994
34768SOL    HW2 6312   6.080   0.800   0.510 -1.1791 -0.8378  0.6743
34769SOL     OW 6313   3.873   8.691   2.229  0.1475 -0.0225 -0.4067
34769SOL    HW1 6314   3.835   8.671   2.315  1.5098  1.9714  0.7398
34769SOL    HW2 6315   3.963   8.659   2.235  0.4308  0.6746 -0.8726
34770SOL     OW 6316   8.143  10.641  10.424 -0.3437  0.0578 -0.5829
34770SOL    HW1 6317   8.105  10.617  10.340 -1.4262  1.9143 -0.6758
34770SOL    HW2 6318   8.225  10.685  10.402  0.8669 -1.9959 -0.4758
34771SOL     OW 6319   6.434   0.079   9.851  0.1844 -0.5349 -0.2053
34771SOL    HW1 6320   6.407   0.163   9.889  0.0609  0.3149 -2.0589
34771SOL    HW2 6321   6.411   0.086   9.759  3.9161 -0.9359 -1.3585
34772SOL     OW 6322   3.655   4.004   0.585 -0.2904  0.2892 -0.5299
34772SOL    HW1 6323   3.709   4.045   0.653 -1.8540  1.2239  0.1926
34772SOL    HW2 6324   3.605   4.076   0.547 -0.3703 -0.4176 -1.8309
34773SOL     OW 6325   0.107   2.715  10.927  0.3494 -0.0288 -0.1267
34773SOL    HW1 6326   0.096   2.688  10.836  2.0609  0.8734 -0.6506
34773SOL    HW2 6327   0.115   2.633  10.976  3.4686 -0.6544 -1.4069
34774SOL     OW 6328   9.060   5.281   1.819  0.0973  0.3713 -0.3914
34774SOL    HW1 6329   9.078   5.274   1.912 -3.7049  1.8165  0.6216
34774SOL    HW2 6330   8.999   5.210   1.801  1.9820 -0.9112 -2.2826
34775SOL     OW 6331   6.790   1.246   8.749 -0.0411  0.2780  0.2760
34775SOL    HW1 6332   6.884   1.232   8.760 -0.0002  0.2229 -0.1326
34775SOL    HW2 6333   6.749   1.171   8.791  0.1036  0.1929  0.2632
34776SOL     OW 6334   2.675   3.735   6.915  0.8195  0.8663  0.5990
34776SOL    HW1 6335   2.593   3.761   6.955 -0.7300 -0.4823 -1.4371
34776SOL    HW2 6336   2.675   3.639   6.922 -0.4367  0.3102 -3.7814
34777SOL     OW 6337  10.848   8.772  10.100  0.6738  0.3616  0.4857
34777SOL    HW1 6338  10.833   8.727  10.017  0.1358 -0.5282  1.0472
34777SOL    HW2 6339  10.840   8.865  10.079  3.2329  0.3465 -1.0109
34778SOL     OW 6340   6.374   2.279   8.426  0.5171 -0.0076 -0.1083
34778SOL    HW1 6341   6.340   2.324   8.349 -0.1353 -0.2551  0.0192
34778SOL    HW2 6342   6.468   2.275   8.413  0.5790  1.3285 -0.1533
34779SOL     OW 6343   0.226   8.795   0.885 -0.4984 -0.6904 -0.4002
34779SOL    HW1 6344   0.255   8.727   0.944  1.3797  0.1193 -0.3227
34779SOL    HW2 6345   0.265   8.772   0.800  0.1991  0.2716 -0.3614
34780SOL     OW 6346   4.230   7.075   5.354  0.5128 -0.2368  0.0758
34780SOL    HW1 6347   4.158   7.099   5.413  1.3841 -0.0817  1.1147
34780SOL    HW2 6348   4.195   7.089   5.266 -0.0019  2.0199  0.5696
34781SOL     OW 6349   3.631   2.031   2.450  0.3636 -0.3013 -0.1857
34781SOL    HW1 6350   3.687   2.082   2.508 -0.6382 -0.7651  1.2302
34781SOL    HW2 6351   3.690   2.003   2.379  2.2371 -1.6881  1.7882
34782SOL     OW 6352  10.385   4.810   4.711 -1.0510  0.1102  0.5420
34782SOL    HW1 6353  10.447   4.773   4.774  0.4067  0.6770 -0.4990
34782SOL    HW2 6354  10.363   4.738   4.653  0.4858  0.4050 -0.4769
34783SOL     OW 6355   8.598  10.741   3.712 -0.1450  0.2505 -0.3613
34783SOL    HW1 6356   8.659  10.755   3.639  1.6137  1.2457  1.1904
34783SOL    HW2 6357   8.652  10.701   3.781 -2.2917 -2.9519 -0.3436
34784SOL     OW 6358   2.301   2.098   9.565 -0.7404  0.0414 -0.1160
34784SOL    HW1 6359   2.228   2.056   9.609 -0.8957  1.2232  0.8277
34784SOL    HW2 6360   2.346   2.027   9.519 -2.1546 -0.7866 -0.2782
34785SOL     OW 6361   2.456   7.040   9.922 -0.6829 -0.0816  0.5302
34785SOL    HW1 6362   2.550   7.046   9.938 -0.1425 -2.5393 -1.2188
34785SOL    HW2 6363   2.419   7.021  10.008  0.4234  0.5638  1.1788
34786SOL     OW 6364   4.550   7.692   2.768  0.3296 -0.1050 -0.4243
34786SOL    HW1 6365   4.510   7.669   2.852  0.5065 -2.2543 -0.8694
34786SOL    HW2 6366   4.529   7.618   2.711 -0.9498  1.8958 -2.7209
34787SOL     OW 6367   2.172   5.896   9.169  0.4714  0.0336  0.3617
34787SOL    HW1 6368   2.221   5.878   9.089  0.4718 -0.0774  0.3860
34787SOL    HW2 6369   2.154   5.809   9.205  0.3894  0.0802  0.4322
34788SOL     OW 6370   3.594   0.380   7.687  0.2769  0.1605  0.1754
34788SOL    HW1 6371   3.526   0.444   7.710 -0.0442 -0.1752  0.1573
34788SOL    HW2 6372   3.632   0.415   7.607  0.7426  0.8232  0.6657
34789SOL     OW 6373   3.848   2.975   4.383  0.0235 -0.2453  0.4816
34789SOL    HW1 6374   3.937   2.957   4.414 -0.1411  0.4664  1.4279
34789SOL    HW2 6375   3.806   3.022   4.456  0.0668  2.8617 -1.2885
34790SOL     OW 6376   8.117   3.421   6.975 -0.0015 -0.7456 -0.1642
34790SOL    HW1 6377   8.174   3.459   6.908  0.7336 -1.4728  0.0288
34790SOL    HW2 6378   8.177   3.377   7.035 -0.8279 -4.1085 -1.5192
34791SOL     OW 6379   4.350   6.660   0.269  0.0418 -0.2284  0.2299
34791SOL    HW1 6380   4.435   6.696   0.297  0.1792 -0.7197  0.4634
34791SOL    HW2 6381   4.355   6.567   0.292 -1.0042 -0.0465  1.3022
34792SOL     OW 6382   3.315   5.628  10.322 -0.1888  0.0470 -0.3187
34792SOL    HW1 6383   3.222   5.648  10.333 -0.7370 -1.7306 -1.3389
34792SOL    HW2 6384   3.360   5.711  10.340 -1.8240  0.5439  1.8226
34793SOL     OW 6385   0.295   0.764  10.397 -0.8000 -0.3630 -0.4458
34793SOL    HW1 6386   0.211   0.729  10.366  0.0596 -1.6688 -1.4171
34793SOL    HW2 6387   0.302   0.734  10.487  0.2989 -3.6480 -1.4833
34794SOL     OW 6388   3.996   8.165   4.732 -0.5338 -0.8092 -0.1516
34794SOL    HW1 6389   3.951   8.085   4.706 -0.7932 -0.7255  0.0343
34794SOL    HW2 6390   3.966   8.182   4.821 -0.2120 -0.6943 -0.0609
34795SOL     OW 6391   6.082  10.280  10.754 -0.1481  0.4139 -0.2460
34795SOL    HW1 6392   6.058  10.277  10.661  1.3693  1.4556 -0.6925
34795SOL    HW2 6393   6.144  10.352  10.761  0.6482 -0.3873  1.3764
34796SOL     OW 6394   1.387   7.302   3.370  0.4433 -0.1438 -0.1081
34796SOL    HW1 6395   1.476   7.275   3.392  0.3075 -0.1150  0.4965
34796SOL    HW2 6396   1.332   7.254   3.432 -0.0819 -1.3113 -1.4385
34797SOL     OW 6397   4.434   0.802   4.588 -0.2827 -0.2262  0.3655
34797SOL    HW1 6398   4.512   0.851   4.615 -0.7401  0.8245 -0.1322
34797SOL    HW2 6399   4.382   0.794   4.667 -0.8915  1.4536  0.1787
34798SOL     OW 6400   8.139   6.099   7.442  0.2625  0.3143  0.0931
34798SOL    HW1 6401   8.149   6.163   7.372  0.4424  0.6946  0.4680
34798SOL    HW2 6402   8.207   6.121   7.505 -0.7287  0.7815  1.0113
34799SOL     OW 6403   9.254   3.757   6.576  0.0179  0.0180 -0.0479
34799SOL    HW1 6404   9.202   3.780   6.500  0.7048 -1.1545 -0.8952
34799SOL    HW2 6405   9.263   3.840   6.625  1.4519  1.3622 -2.3690
34800SOL     OW 6406   0.013  10.332   3.248 -0.3062  0.3004  0.1159
34800SOL    HW1 6407   0.097  10.326   3.203 -0.1576 -0.1777  0.4507
34800SOL    HW2 6408  -0.049  10.360   3.181  0.0111  0.0979 -0.2610
34801SOL     OW 6409   9.316   6.428   4.097 -0.0848 -0.0634 -0.1037
34801SOL    HW1 6410   9.389   6.440   4.036  0.4066 -0.8824  0.3024
34801SOL    HW2 6411   9.271   6.350   4.066 -0.3535  0.0145  0.0826
34802SOL     OW 6412   1.914  10.230   6.838  0.1028  0.2069 -0.9077
34802SOL    HW1 6413   1.860  10.291   6.889 -0.1237 -0.0346 -0.8613
34802SOL    HW2 6414   1.851  10.183   6.783  0.1309 -0.8960 -0.0201
34803SOL     OW 6415   9.508   5.989   2.708 -0.3844  0.2586  0.7814
34803SOL    HW1 6416   9.476   5.900   2.720 -2.3329  0.8507  0.4078
34803SOL    HW2 6417   9.584   5.980   2.651 -1.6627 -1.0423 -0.8253
34804SOL     OW 6418   1.439   9.958   4.546  0.2306 -0.4424 -0.4326
34804SOL    HW1 6419   1.454   9.871   4.582  0.3966  0.3178  1.4714
34804SOL    HW2 6420   1.527   9.995   4.537  0.1129  0.9450  2.6919
34805SOL     OW 6421   6.887   5.683   1.245 -0.1602  0.6262  0.2295
34805SOL    HW1 6422   6.951   5.754   1.243 -0.4508  0.8822 -0.2163
34805SOL    HW2 6423   6.871   5.667   1.338 -0.6393  1.6356  0.3312
34806SOL     OW 6424   6.600   2.051   9.729 -0.0321  0.2703 -0.0384
34806SOL    HW1 6425   6.569   2.009   9.649  2.1201 -2.9553  0.6297
34806SOL    HW2 6426   6.552   2.008   9.799  0.7588  0.3342  0.5634
34807SOL     OW 6427   3.379   0.011   4.015 -0.1262  0.3765 -0.2753
34807SOL    HW1 6428   3.409   0.074   4.080 -1.7868  0.8627  0.0647
34807SOL    HW2 6429   3.433  -0.066   4.029 -0.9322  0.1830  2.2350
34808SOL     OW 6430   2.787  10.390   6.691 -0.4901  0.1432  0.1798
34808SOL    HW1 6431   2.751  10.441   6.618 -0.3685 -3.4029 -2.6129
34808SOL    HW2 6432   2.882  10.395   6.680 -0.4828 -0.8722 -0.3010
34809SOL     OW 6433  10.742   8.036   7.078  0.4091 -0.0940 -0.4523
34809SOL    HW1 6434  10.655   8.065   7.104  0.0138 -0.8128 -0.9519
34809SOL    HW2 6435  10.801   8.102   7.114 -0.2456 -0.2073  0.8595
34810SOL     OW 6436  10.938   6.480   0.550 -0.0665 -0.2174  0.1954
34810SOL    HW1 6437  11.027   6.511   0.533  0.7932 -2.2849  0.7244
34810SOL    HW2 6438  10.943   6.385   0.538 -1.9423 -0.4986  1.3605
34811SOL     OW 6439   0.332   5.826   2.309 -0.3998 -0.0769  0.1037
34811SOL    HW1 6440   0.259   5.765   2.325  0.3332 -1.0930 -0.3328
34811SOL    HW2 6441   0.407   5.769   2.292  0.2971  0.9651 -0.3577
34812SOL     OW 6442   7.456   2.146   1.581 -0.0900 -0.3456  0.2228
34812SOL    HW1 6443   7.424   2.226   1.540  1.0887 -1.0419 -2.2758
34812SOL    HW2 6444   7.510   2.176   1.654 -0.5991  1.0649  0.0436
34813SOL     OW 6445   5.185   4.387   1.762  0.3853 -0.1676 -0.3230
34813SOL    HW1 6446   5.195   4.295   1.789  0.7147 -0.7896 -2.3570
34813SOL    HW2 6447   5.218   4.389   1.672 -2.4191  1.2963 -1.4387
34814SOL     OW 6448   6.704   0.276   8.360 -0.0849 -0.7779  0.0491
34814SOL    HW1 6449   6.694   0.182   8.375  0.9471 -0.9378 -0.2362
34814SOL    HW2 6450   6.614   0.309   8.361 -0.5609 -1.9262 -0.8774
34815SOL     OW 6451   6.189   0.579   0.906  0.1318  0.3292 -0.6608
34815SOL    HW1 6452   6.249   0.505   0.919  0.6830  0.6785 -1.1615
34815SOL    HW2 6453   6.221   0.622   0.827 -1.7534 -0.3957 -1.8803
34816SOL     OW 6454   2.748   6.382   8.732 -0.3182 -0.1227 -0.1956
34816SOL    HW1 6455   2.745   6.426   8.647 -0.6100 -0.9712 -0.6380
34816SOL    HW2 6456   2.841   6.375   8.752 -0.1756 -1.2909 -1.1867
34817SOL     OW 6457   8.739   6.824   8.465  0.7368 -0.4823 -0.2761
34817SOL    HW1 6458   8.752   6.729   8.469  0.3676 -0.5197  3.3714
34817SOL    HW2 6459   8.662   6.840   8.520  1.6408  2.0416  0.3766
34818SOL     OW 6460   0.281   1.127   3.881  0.6788  0.0009  0.3856
34818SOL    HW1 6461   0.328   1.202   3.916  0.3218  0.5695 -0.3372
34818SOL    HW2 6462   0.347   1.076   3.834  0.7866  0.2003  0.3236
34819SOL     OW 6463   5.511   1.329   0.958 -0.2946 -0.2607  0.2793
34819SOL    HW1 6464   5.605   1.309   0.955 -0.2183  0.1328 -0.0141
34819SOL    HW2 6465   5.470   1.246   0.982  0.1782 -0.2785  1.0673
34820SOL     OW 6466   3.228   1.245   8.643  0.2804  0.3298 -0.2141
34820SOL    HW1 6467   3.285   1.296   8.700  0.1469  0.5010 -0.2328
34820SOL    HW2 6468   3.251   1.154   8.661  1.6550  0.4177 -1.3374
34821SOL     OW 6469   1.059   5.116  10.411 -0.8078 -0.2672  0.1375
34821SOL    HW1 6470   1.104   5.080  10.487  0.6402 -0.3938 -0.7340
34821SOL    HW2 6471   1.122   5.108  10.340 -1.1960  2.0819 -0.5545
34822SOL     OW 6472   0.149   5.138   7.247 -0.1773 -0.3149 -0.1895
34822SOL    HW1 6473   0.063   5.096   7.243 -1.0654  1.1654  1.8097
34822SOL    HW2 6474   0.172   5.137   7.340  1.1742  0.8687 -0.4715
34823SOL     OW 6475  10.079   6.410   8.183  0.1384  0.5527 -0.0572
34823SOL    HW1 6476  10.016   6.481   8.189 -0.4569 -0.1040  1.9143
34823SOL    HW2 6477  10.156   6.442   8.231  0.4251  0.4097 -0.4113
34824SOL     OW 6478   3.159   8.653   8.136  0.2078  0.0530 -0.1028
34824SOL    HW1 6479   3.132   8.570   8.174  0.0968  0.1244 -0.0281
34824SOL    HW2 6480   3.205   8.699   8.207  1.9599 -0.7427 -0.6644
34825SOL     OW 6481   0.406  10.586   2.583 -0.1814 -0.3840  0.6650
34825SOL    HW1 6482   0.367  10.635   2.656 -0.5897  0.2054  0.0682
34825SOL    HW2 6483   0.431  10.502   2.621  0.4421  0.2420  1.6983
34826SOL     OW 6484   7.359   4.667   1.530  0.0442 -0.6026  0.7875
34826SOL    HW1 6485   7.387   4.755   1.507  0.5384 -0.8339  0.5014
34826SOL    HW2 6486   7.350   4.669   1.626  0.4756 -0.3652  0.8240
34827SOL     OW 6487   6.711   4.516   0.238  0.0048  0.5163 -0.6480
34827SOL    HW1 6488   6.788   4.522   0.180 -0.7079 -1.9143 -1.9660
34827SOL    HW2 6489   6.747   4.520   0.326  1.3099  2.5316 -1.2005
34828SOL     OW 6490   4.523   9.088   7.461 -0.4315 -0.1438 -0.4903
34828SOL    HW1 6491   4.608   9.046   7.448 -0.4209 -0.0407 -0.7497
34828SOL    HW2 6492   4.467   9.052   7.393 -0.3709  0.4013 -0.8368
34829SOL     OW 6493   0.317   8.783   3.804  0.6609 -0.0873 -0.0076
34829SOL    HW1 6494   0.395   8.828   3.772  0.3009  0.0373 -0.7151
34829SOL    HW2 6495   0.286   8.838   3.876 -0.4671  1.4902 -1.6294
34830SOL     OW 6496  10.128   0.004  10.337 -0.2140 -0.5985  0.1204
34830SOL    HW1 6497  10.075   0.084  10.344 -1.2272 -1.0413 -1.6366
34830SOL    HW2 6498  10.204   0.020  10.393  1.3474  3.0089 -2.5954
34831SOL     OW 6499   2.335   6.522   8.429 -0.0987  0.0207 -0.2496
34831SOL    HW1 6500   2.388   6.447   8.403  0.0715 -0.9215  2.4842
34831SOL    HW2 6501   2.396   6.581   8.473 -0.6924  0.5320 -0.1000
34832SOL     OW 6502   3.503   0.524   9.709  0.0557  0.2443 -0.2962
34832SOL    HW1 6503   3.494   0.620   9.710 -0.3931  0.2131  0.7604
34832SOL    HW2 6504   3.418   0.493   9.678  0.7518  0.1954 -2.3196
34833SOL     OW 6505   9.667   6.274   4.732  0.2868 -0.0878  0.5338
34833SOL    HW1 6506   9.694   6.196   4.683  1.0725  0.7955 -0.4792
34833SOL    HW2 6507   9.621   6.239   4.808  2.2532 -1.6067  1.1132
34834SOL     OW 6508   5.291   8.363   0.964 -0.0873  0.2417 -0.3188
34834SOL    HW1 6509   5.355   8.388   1.031  1.9818 -1.9093 -1.3805
34834SOL    HW2 6510   5.210   8.407   0.991  1.3133  1.4947  2.1541
34835SOL     OW 6511   2.603   8.213   7.896 -0.5582 -0.0933  0.3413
34835SOL    HW1 6512   2.651   8.295   7.906 -1.0252  0.3648 -0.9377
34835SOL    HW2 6513   2.606   8.195   7.802 -1.4732 -0.9271  0.4554
34836SOL     OW 6514   5.788  10.216   2.199  0.7099 -0.2203  0.2008
34836SOL    HW1 6515   5.806  10.122   2.205  0.9801 -0.6023 -3.6836
34836SOL    HW2 6516   5.741  10.225   2.116 -0.7039  2.9597  1.2108
34837SOL     OW 6517  10.361   5.977   7.506 -0.7185  0.0752 -0.6804
34837SOL    HW1 6518  10.433   6.021   7.461 -1.1034  1.2345 -0.2107
34837SOL    HW2 6519  10.341   5.901   7.452  0.2483  0.2451 -1.2988
34838SOL     OW 6520   5.292   7.825   4.287 -0.2008  0.1649  0.6366
34838SOL    HW1 6521   5.387   7.815   4.286 -0.1871  0.3215  0.2354
34838SOL    HW2 6522   5.260   7.741   4.321  0.0728  0.0532  0.6210
34839SOL     OW 6523   4.568   2.766  10.370  0.4118 -0.6670  0.0359
34839SOL    HW1 6524   4.656   2.803  10.371  0.3111 -0.4380  0.9955
34839SOL    HW2 6525   4.581   2.673  10.350  1.0281 -0.9984  1.8454
34840SOL     OW 6526   7.897   7.910   6.827 -0.4982 -0.5063  0.5883
34840SOL    HW1 6527   7.846   7.856   6.887  0.0313  0.0652  1.5864
34840SOL    HW2 6528   7.831   7.965   6.784 -0.8227 -0.3058  1.3073
34841SOL     OW 6529   0.276   1.479   3.678  0.1499 -0.3734 -0.1982
34841SOL    HW1 6530   0.258   1.399   3.629  1.0185 -0.5599 -0.2318
34841SOL    HW2 6531   0.317   1.449   3.759 -0.1353  0.0014  0.0878
34842SOL     OW 6532  10.743  10.525   0.528 -0.5883 -0.3975 -0.2471
34842SOL    HW1 6533  10.826  10.550   0.488  1.4042 -2.1224  2.4631
34842SOL    HW2 6534  10.728  10.592   0.595 -0.8539 -0.6270 -0.0780
34843SOL     OW 6535   0.241   8.495   8.729  0.2343 -0.1396 -0.4804
34843SOL    HW1 6536   0.318   8.549   8.749 -0.7413  1.9343 -1.8926
34843SOL    HW2 6537   0.174   8.526   8.791 -0.8931  1.7433 -2.5045
34844SOL     OW 6538   9.565   6.646   1.093 -0.8865 -0.2780  0.1525
34844SOL    HW1 6539   9.636   6.650   1.029 -1.1309 -1.3519 -0.2229
34844SOL    HW2 6540   9.493   6.694   1.053 -0.0599  1.8231  1.0278
34845SOL     OW 6541  10.229   6.525   2.571  0.6660 -0.0545 -0.6095
34845SOL    HW1 6542  10.297   6.511   2.637 -0.8864 -0.0947  1.0692
34845SOL    HW2 6543  10.256   6.469   2.497  2.4239 -0.0564 -0.0202
34846SOL     OW 6544   0.898   6.622   5.863  0.1742 -0.2236 -0.2803
34846SOL    HW1 6545   0.814   6.581   5.842 -0.2848  0.0211  0.9623
34846SOL    HW2 6546   0.949   6.553   5.906  1.1265 -0.7403 -2.1178
34847SOL     OW 6547   7.199   6.673  10.724 -0.8354  0.5436 -0.6211
34847SOL    HW1 6548   7.198   6.610  10.796  0.3918  0.1770 -0.9138
34847SOL    HW2 6549   7.164   6.625  10.649 -0.8385  0.5123 -0.5992
34848SOL     OW 6550   6.186   4.666   1.924 -0.4938 -0.0232 -0.1227
34848SOL    HW1 6551   6.250   4.736   1.914  0.3015 -0.3945  1.8711
34848SOL    HW2 6552   6.132   4.692   1.998 -0.1802 -1.4742  0.6635
34849SOL     OW 6553   0.211   8.761   3.510 -0.5998  0.1261  0.0541
34849SOL    HW1 6554   0.264   8.841   3.508  0.5381 -0.6075  0.0767
34849SOL    HW2 6555   0.202   8.741   3.603  0.5562 -0.6752  0.0179
34850SOL     OW 6556   5.611  10.543   7.455 -0.1605  0.4563  0.6665
34850SOL    HW1 6557   5.536  10.601   7.468  0.7576  1.2533  2.9876
34850SOL    HW2 6558   5.631  10.510   7.543  3.1365  1.5198  0.4387
34851SOL     OW 6559   7.905   1.553   7.837  0.2302  0.0056  0.0449
34851SOL    HW1 6560   7.872   1.475   7.792  0.3666  0.7611 -1.4382
34851SOL    HW2 6561   8.000   1.546   7.832  0.2528  0.8473 -1.2247
34852SOL     OW 6562   7.513   4.907   0.371  0.1645  0.3531 -0.3209
34852SOL    HW1 6563   7.480   4.979   0.424  0.1653 -0.2144  0.4828
34852SOL    HW2 6564   7.598   4.885   0.410 -0.8989 -1.6595  1.0603
34853SOL     OW 6565   9.086   7.946   0.925 -0.5356  0.1936 -0.4181
34853SOL    HW1 6566   9.019   7.987   0.869  0.8321  1.9979 -0.8155
34853SOL    HW2 6567   9.109   8.014   0.988  0.9611 -0.3689 -0.3376
34854SOL     OW 6568  10.729   2.552   9.588  0.1019  0.2674 -0.0682
34854SOL    HW1 6569  10.640   2.585   9.599  0.4060  0.7024  1.1442
34854SOL    HW2 6570  10.734   2.528   9.495 -1.2428  0.3163 -0.1694
34855SOL     OW 6571   9.774   0.347   7.444  0.2297  0.0868 -0.2192
34855SOL    HW1 6572   9.819   0.285   7.387 -0.6429 -0.8508  0.0752
34855SOL    HW2 6573   9.844   0.393   7.489  0.9052 -0.7356 -0.3902
34856SOL     OW 6574   1.241   7.898   4.583  0.0574  0.1352 -0.5650
34856SOL    HW1 6575   1.148   7.920   4.593 -0.3904 -1.7300 -0.3408
34856SOL    HW2 6576   1.279   7.914   4.669  0.4625  2.8807 -1.1390
34857SOL     OW 6577   4.793  10.138   8.705  0.6204  0.4927  0.4184
34857SOL    HW1 6578   4.825  10.050   8.687 -0.0522  0.5636 -1.2248
34857SOL    HW2 6579   4.860  10.196   8.669  0.3330  0.6490  0.1302
34858SOL     OW 6580   4.308   6.726   3.696  0.2202  0.3640 -0.2267
34858SOL    HW1 6581   4.254   6.803   3.715 -0.4607  0.0210 -0.7054
34858SOL    HW2 6582   4.291   6.666   3.769  0.0715  0.3274 -0.2887
34859SOL     OW 6583   3.486   2.617   7.028 -0.5391 -0.1240  0.1872
34859SOL    HW1 6584   3.526   2.538   6.990 -1.3064 -0.2480 -0.3882
34859SOL    HW2 6585   3.545   2.642   7.099 -0.4953 -1.4493  0.6438
34860SOL     OW 6586   7.968   3.176   6.970  0.2782 -0.7468  0.2000
34860SOL    HW1 6587   7.962   3.199   7.063  1.2246 -2.0043  0.6105
34860SOL    HW2 6588   8.033   3.236   6.934  1.5204 -1.6333  0.8785
34861SOL     OW 6589   4.439   3.172   9.568 -0.6381  0.0351  0.1163
34861SOL    HW1 6590   4.412   3.163   9.476 -0.9960  0.1764  0.2025
34861SOL    HW2 6591   4.411   3.261   9.591  2.7652  1.4648 -0.7256
34862SOL     OW 6592   3.036   7.844  10.537  0.2295  0.1635 -0.0855
34862SOL    HW1 6593   3.069   7.862  10.449  1.1343  1.3369  0.4695
34862SOL    HW2 6594   3.109   7.865  10.595 -0.7106  0.4712  1.0263
34863SOL     OW 6595   1.313   3.977   5.116 -0.1587  0.4597 -0.6180
34863SOL    HW1 6596   1.357   3.918   5.176 -2.4203  1.2171  1.9822
34863SOL    HW2 6597   1.319   4.063   5.158 -0.9543  1.2271 -1.9977
34864SOL     OW 6598  11.018   4.360   0.411 -0.0461 -0.4008  0.2197
34864SOL    HW1 6599  11.074   4.303   0.465 -2.4984 -0.9663  2.3819
34864SOL    HW2 6600  10.952   4.301   0.375 -1.0074  0.6539  0.2114
34865SOL     OW 6601   8.988  10.002  10.929 -0.0367  0.0532  0.1292
34865SOL    HW1 6602   8.984  10.071  10.862 -1.2889 -0.5042 -0.3823
34865SOL    HW2 6603   8.904   9.957  10.923  0.2603 -0.6996  1.3511
34866SOL     OW 6604   3.426   9.576   0.933  0.5497  0.1529 -0.1255
34866SOL    HW1 6605   3.434   9.489   0.971  0.8159 -0.2749 -1.1282
34866SOL    HW2 6606   3.334   9.582   0.907  0.2420  0.6406  0.9969
34867SOL     OW 6607   0.776   1.255   6.748  0.2188  0.1790  0.1745
34867SOL    HW1 6608   0.842   1.187   6.738 -1.5684 -1.6851  0.3542
34867SOL    HW2 6609   0.745   1.246   6.838 -1.7896 -0.5024 -0.5271
34868SOL     OW 6610   7.534  10.029   2.120 -0.2144 -0.4539 -0.0616
34868SOL    HW1 6611   7.596  10.102   2.116 -0.5099 -0.1811  0.2595
34868SOL    HW2 6612   7.465  10.053   2.058 -0.0403 -0.7226 -0.3630
34869SOL     OW 6613   4.880   6.760  10.294 -0.3050 -0.0357  0.5362
34869SOL    HW1 6614   4.899   6.673  10.327  0.8759  0.5407  1.4240
34869SOL    HW2 6615   4.904   6.757  10.201  0.1023 -0.5351  0.6594
34870SOL     OW 6616   0.949   9.524   5.814 -0.1275 -0.5325  0.2663
34870SOL    HW1 6617   0.891   9.600   5.824 -1.5593 -1.1045 -2.6053
34870SOL    HW2 6618   0.891   9.448   5.822  0.6555 -1.2028 -0.2580
34871SOL     OW 6619   9.434   3.102   9.073  0.2051  0.2440 -0.1319
34871SOL    HW1 6620   9.422   3.149   9.155  0.9797 -0.6569  0.5143
34871SOL    HW2 6621   9.437   3.170   9.006  1.0922  1.1031  0.7554
34872SOL     OW 6622   3.513   3.182   5.032  0.6353 -0.1772  0.4250
34872SOL    HW1 6623   3.518   3.087   5.026  0.3156 -0.0894 -3.2412
34872SOL    HW2 6624   3.419   3.201   5.033  0.5477  0.0949 -2.9340
34873SOL     OW 6625  10.732  10.246   0.457  0.1504  0.2667 -0.1657
34873SOL    HW1 6626  10.742  10.341   0.465 -1.0209  0.3907 -0.0342
34873SOL    HW2 6627  10.815  10.211   0.490 -0.2767  1.1768  2.0589
34874SOL     OW 6628   5.800   5.713   6.479  0.3307  0.3901 -0.1457
34874SOL    HW1 6629   5.857   5.723   6.555  0.5853 -0.6128 -0.1877
34874SOL    HW2 6630   5.711   5.724   6.513  0.4811  0.7088  0.1470
34875SOL     OW 6631   6.373   4.920   4.617 -0.1961  0.0344 -0.5042
34875SOL    HW1 6632   6.305   4.871   4.664  1.0584  0.6119  2.0886
34875SOL    HW2 6633   6.335   4.938   4.531 -3.2629  0.1863  0.7696
34876SOL     OW 6634   6.093   2.685   3.644 -0.1283  0.1410  0.0762
34876SOL    HW1 6635   6.085   2.595   3.675 -2.0336 -0.0672 -0.8681
34876SOL    HW2 6636   6.023   2.733   3.690 -0.0067  0.8355 -0.4407
34877SOL     OW 6637   5.034   2.075  10.117  0.0543 -0.7188  0.0403
34877SOL    HW1 6638   5.111   2.131  10.131  0.0040 -0.3679 -0.9697
34877SOL    HW2 6639   4.961   2.136  10.111  0.0338 -0.8357 -1.3273
34878SOL     OW 6640   7.952   3.034   9.333  0.0198 -0.1723 -0.0556
34878SOL    HW1 6641   7.989   2.973   9.269  1.2959 -1.1274  1.5110
34878SOL    HW2 6642   7.891   2.981   9.385 -0.6226  0.4663 -0.1335
34879SOL     OW 6643   5.955   4.201   2.851  0.2031 -0.2942  0.3161
34879SOL    HW1 6644   5.921   4.283   2.887  0.7012 -0.4589  1.1738
34879SOL    HW2 6645   6.022   4.173   2.913 -1.4635 -2.5173  1.2535
34880SOL     OW 6646   7.943   2.997   0.198  0.4550  0.0482 -0.2864
34880SOL    HW1 6647   7.950   2.967   0.289 -1.5817  1.1761  0.2976
34880SOL    HW2 6648   7.971   2.921   0.146  2.2756 -0.4125  1.2443
34881SOL     OW 6649  10.822   2.114   0.068  0.5281  0.1448 -0.6903
34881SOL    HW1 6650  10.864   2.030   0.051 -1.3541 -0.9060 -0.4151
34881SOL    HW2 6651  10.728   2.098   0.053  0.0775  2.0881 -0.2678
34882SOL     OW 6652   3.833   0.302   1.323  0.5838 -0.2105 -0.1065
34882SOL    HW1 6653   3.742   0.290   1.297  0.5376  1.4133 -0.7983
34882SOL    HW2 6654   3.876   0.336   1.245  0.8288  3.1578  1.3145
34883SOL     OW 6655   6.547   9.076   1.315 -0.4022 -0.2027 -0.8847
34883SOL    HW1 6656   6.478   9.097   1.378 -0.1499  1.5283 -1.1333
34883SOL    HW2 6657   6.624   9.061   1.369 -0.5861 -0.4654 -0.6940
34884SOL     OW 6658   3.289   2.850   2.474  0.3888 -1.2100  0.0175
34884SOL    HW1 6659   3.370   2.825   2.518  0.0982 -2.7803 -0.2804
34884SOL    HW2 6660   3.228   2.780   2.496 -0.3984 -0.8928 -1.1031
34885SOL     OW 6661   7.110   2.799   1.007  0.4263  0.3066 -0.2341
34885SOL    HW1 6662   7.088   2.780   0.916 -1.8266 -1.6709  0.6060
34885SOL    HW2 6663   7.095   2.716   1.053  1.4259  1.2699  1.9670
34886SOL     OW 6664   0.581   9.495  11.034  0.0060  0.0667  0.2486
34886SOL    HW1 6665   0.489   9.514  11.049 -0.1329  0.7524 -1.2608
34886SOL    HW2 6666   0.582   9.406  10.999 -0.0999  0.0984  0.1653
34887SOL     OW 6667   2.167  10.683   1.615 -0.5923  0.3154 -0.4661
34887SOL    HW1 6668   2.244  10.627   1.603 -1.0664 -0.3770 -0.3304
34887SOL    HW2 6669   2.106  10.630   1.665 -1.4849  0.5637 -1.2677
34888SOL     OW 6670   5.868   1.344   0.166  0.0307 -0.4554 -0.3794
34888SOL    HW1 6671   5.808   1.418   0.168  0.6935  0.0977  1.2547
34888SOL    HW2 6672   5.812   1.267   0.176 -0.4359  0.1532  3.7461
34889SOL     OW 6673   0.368   5.525   8.755  0.0852  0.4065  0.4352
34889SOL    HW1 6674   0.422   5.600   8.781  0.8539  0.4357 -1.1447
34889SOL    HW2 6675   0.428   5.450   8.756  0.0972  0.3641 -0.9150
34890SOL     OW 6676   0.189   4.072  10.834 -0.8243  0.8043  0.5336
34890SOL    HW1 6677   0.225   4.108  10.754 -2.0507 -2.6810 -1.8260
34890SOL    HW2 6678   0.245   3.996  10.853 -1.0157  1.1154  2.5881
34891SOL     OW 6679   0.600   1.815   7.246 -1.0614  0.1637 -0.5411
34891SOL    HW1 6680   0.514   1.794   7.209 -1.4878  0.9792 -0.0546
34891SOL    HW2 6681   0.595   1.784   7.336 -0.0655 -1.7174 -1.0765
34892SOL     OW 6682   4.753   8.313   2.004  0.0276 -0.3357 -0.5292
34892SOL    HW1 6683   4.738   8.241   2.065 -0.3043 -1.1083 -1.4981
34892SOL    HW2 6684   4.753   8.391   2.059  0.9706 -1.1146  0.6165
34893SOL     OW 6685   6.303   7.940   1.767  0.5796 -0.2528  0.2027
34893SOL    HW1 6686   6.388   7.899   1.782  0.0437 -0.5799  2.8362
34893SOL    HW2 6687   6.272   7.964   1.855 -1.6992  0.5716 -0.7473
34894SOL     OW 6688   4.593   0.570   5.823  0.0230 -0.2380  0.7373
34894SOL    HW1 6689   4.521   0.621   5.785  0.0693 -0.9556 -0.3828
34894SOL    HW2 6690   4.549   0.508   5.881 -0.6055 -2.3437 -1.7880
34895SOL     OW 6691   1.897   6.992   4.935 -0.2565 -0.1529 -0.0073
34895SOL    HW1 6692   1.979   6.945   4.919 -0.3469 -0.0157 -0.9139
34895SOL    HW2 6693   1.922   7.085   4.932 -0.2450 -0.1194  0.8570
34896SOL     OW 6694   8.789   5.272   5.938 -0.8394 -0.1057  0.4560
34896SOL    HW1 6695   8.813   5.344   5.996  0.9974 -0.7575  0.5838
34896SOL    HW2 6696   8.694   5.279   5.928 -1.0202  0.8276  2.4360
34897SOL     OW 6697   6.028   7.710   6.406 -0.1869 -0.7947 -0.5355
34897SOL    HW1 6698   5.945   7.664   6.397 -0.0403 -0.8663 -1.8075
34897SOL    HW2 6699   6.078   7.658   6.468 -1.0446 -0.8118  0.1533
34898SOL     OW 6700   6.084   9.265   7.750  0.5185 -0.1572 -0.8448
34898SOL    HW1 6701   6.033   9.272   7.669 -0.5072  0.3273 -0.1748
34898SOL    HW2 6702   6.092   9.355   7.782  1.1186 -0.3165 -0.5278
34899SOL     OW 6703   8.437  10.634   0.054  1.1626  0.2692  0.3696
34899SOL    HW1 6704   8.389  10.611  -0.026  1.7599  0.9543 -0.1961
34899SOL    HW2 6705   8.489  10.556   0.074  0.1732 -0.3193  0.7408
34900SOL     OW 6706   8.615   6.186   8.998 -0.2945 -0.2409 -0.5294
34900SOL    HW1 6707   8.652   6.144   9.075 -1.5146 -0.9576 -0.2953
34900SOL    HW2 6708   8.667   6.265   8.985 -0.3634  0.1415  1.3207
34901SOL     OW 6709   7.193   4.184   5.058  0.0778 -0.7633 -0.7163
34901SOL    HW1 6710   7.174   4.141   5.141  3.0905 -0.2823  0.3445
34901SOL    HW2 6711   7.251   4.123   5.012  2.7362  1.1241 -0.0767
34902SOL     OW 6712  10.622   4.499   8.006 -0.8561 -0.3241  0.1539
34902SOL    HW1 6713  10.574   4.520   8.086 -0.9505 -0.2691  0.0828
34902SOL    HW2 6714  10.695   4.561   8.004  0.7978 -2.0935  1.6501
34903SOL     OW 6715   3.918   6.507   4.178 -0.0524 -0.0957  0.0164
34903SOL    HW1 6716   3.864   6.579   4.211  2.1697  0.2547  3.4374
34903SOL    HW2 6717   3.882   6.429   4.222 -1.7534 -1.0438 -2.8194
34904SOL     OW 6718   4.821   9.256   3.082  0.3978 -0.3906  0.0801
34904SOL    HW1 6719   4.748   9.312   3.107  0.8066 -0.0351  0.4924
34904SOL    HW2 6720   4.789   9.167   3.099 -0.9404 -0.4482 -2.3597
34905SOL     OW 6721   3.055   1.827   5.778  0.0684 -0.4752  0.0018
34905SOL    HW1 6722   3.062   1.737   5.748  0.3674 -0.6100  0.4636
34905SOL    HW2 6723   3.038   1.820   5.872  2.1090 -0.0595  0.4631
34906SOL     OW 6724   6.248   4.736   3.823  0.6055 -0.2365  0.3150
34906SOL    HW1 6725   6.222   4.816   3.868 -2.2124 -0.9844  0.1585
34906SOL    HW2 6726   6.187   4.669   3.853  1.5847 -1.8749 -1.1003
34907SOL     OW 6727   3.545   9.566   3.116 -0.3768  0.4833 -0.3662
34907SOL    HW1 6728   3.509   9.514   3.045 -1.1854 -0.2788  0.5733
34907SOL    HW2 6729   3.597   9.634   3.072 -1.8637  0.8099 -1.7392
34908SOL     OW 6730   5.718   9.681   1.699 -0.0768  0.2279 -0.0175
34908SOL    HW1 6731   5.771   9.629   1.638  0.3613  0.7202 -0.0630
34908SOL    HW2 6732   5.671   9.742   1.643 -0.9998 -0.4662 -0.0118
34909SOL     OW 6733  10.874   7.480  10.795 -0.8699  0.0598  0.2979
34909SOL    HW1 6734  10.891   7.569  10.826 -0.2408 -0.2894  1.0019
34909SOL    HW2 6735  10.813   7.443  10.860 -1.0351 -0.0609  0.0762
34910SOL     OW 6736  10.900   9.352   4.653 -0.1120  0.3289 -0.0163
34910SOL    HW1 6737  10.956   9.330   4.728 -0.6642 -0.9286  0.0544
34910SOL    HW2 6738  10.834   9.282   4.651  0.0419  0.1968 -1.8305
34911SOL     OW 6739   1.609  10.506   9.898 -0.0458 -0.8240 -0.1258
34911SOL    HW1 6740   1.608  10.433   9.960 -1.0363  1.1809  2.4102
34911SOL    HW2 6741   1.655  10.576   9.944 -0.2988  0.5920 -1.9214
34912SOL     OW 6742   9.784   7.154   8.144 -0.1272  0.3495  0.3580
34912SOL    HW1 6743   9.860   7.125   8.195 -0.5591  0.9271  1.3643
34912SOL    HW2 6744   9.709   7.129   8.197 -0.7766 -1.7170 -1.3768
34913SOL     OW 6745   6.447   4.486  10.000  0.1138  0.1754 -0.1528
34913SOL    HW1 6746   6.361   4.452  10.025 -0.0954  1.4706  1.0619
34913SOL    HW2 6747   6.504   4.410   9.999 -1.1621 -0.8103 -1.6088
34914SOL     OW 6748   0.619   0.665   9.977 -0.0012 -0.3537  0.4268
34914SOL    HW1 6749   0.705   0.636  10.007 -0.6706 -2.0219  0.8583
34914SOL    HW2 6750   0.572   0.688  10.058 -0.2181 -0.2058  0.2593
34915SOL     OW 6751   7.780   5.848   8.892 -0.1359  0.0038  0.1002
34915SOL    HW1 6752   7.709   5.880   8.947  0.2277  1.0589 -0.0049
34915SOL    HW2 6753   7.765   5.889   8.807  0.9448  0.7966  0.2628
34916SOL     OW 6754   6.179   6.969   9.784 -0.5340  0.0473  0.2974
34916SOL    HW1 6755   6.170   6.992   9.876 -2.1562  2.0578 -0.2796
34916SOL    HW2 6756   6.248   7.025   9.751 -0.2386 -0.3736  0.1936
34917SOL     OW 6757  10.123   1.136   8.132 -0.0621  0.3879 -0.5568
34917SOL    HW1 6758  10.206   1.089   8.120  0.3128  1.0281 -0.5328
34917SOL    HW2 6759  10.078   1.128   8.048 -0.0888 -0.1716 -0.4928
34918SOL     OW 6760   1.734   1.423   4.555  0.2318  0.5074  0.7257
34918SOL    HW1 6761   1.792   1.414   4.630 -1.8619 -0.0299  2.3844
34918SOL    HW2 6762   1.659   1.474   4.588 -0.9799 -0.1544 -0.8456
34919SOL     OW 6763   2.943   4.901  10.887  0.1723 -0.1187 -0.7720
34919SOL    HW1 6764   2.982   4.987  10.875  1.4160 -0.6897 -1.0613
34919SOL    HW2 6765   2.864   4.902  10.833 -0.8778  1.4629  0.7150
34920SOL     OW 6766   2.117   4.916   1.817 -0.4308  0.3113 -0.8390
34920SOL    HW1 6767   2.085   4.886   1.902 -2.8292 -1.7839 -2.3219
34920SOL    HW2 6768   2.049   4.974   1.785  0.2184  0.7006 -1.5459
34921SOL     OW 6769   0.107   8.980   9.999 -0.2648 -0.3358  0.1796
34921SOL    HW1 6770   0.137   9.037   9.927 -0.5063  0.4461  0.6850
34921SOL    HW2 6771   0.088   8.896   9.956 -1.8864  0.5493 -0.9613
34922SOL     OW 6772   4.318   9.067   5.161 -0.2644 -0.2467 -0.2615
34922SOL    HW1 6773   4.292   9.037   5.248  0.1437 -0.7724 -0.3138
34922SOL    HW2 6774   4.245   9.122   5.132 -0.6513 -0.5144  0.1834
34923SOL     OW 6775  10.833   4.370   3.579 -0.2491  0.4365  0.1147
34923SOL    HW1 6776  10.819   4.275   3.580 -0.1422  0.4237  1.5439
34923SOL    HW2 6777  10.776   4.401   3.508  0.2262 -0.7493 -0.8339
34924SOL     OW 6778   8.248   5.062   8.324 -0.0154  0.2210  0.1579
34924SOL    HW1 6779   8.253   5.053   8.419 -1.0251  2.3217  0.4511
34924SOL    HW2 6780   8.263   4.973   8.291  1.2913 -0.3870  2.2127
34925SOL     OW 6781  10.669   8.838   5.721  0.2458 -0.2293  0.3789
34925SOL    HW1 6782  10.720   8.805   5.647  0.5339  0.5009  0.2356
34925SOL    HW2 6783  10.680   8.772   5.789  0.3900 -0.6682 -0.0606
34926SOL     OW 6784   7.843   4.574   3.762 -0.1884 -0.4057 -0.3148
34926SOL    HW1 6785   7.853   4.491   3.810 -0.8912 -1.6570 -2.1969
34926SOL    HW2 6786   7.883   4.557   3.677 -0.1872  1.2733 -0.6857
34927SOL     OW 6787   0.438   3.843   9.674  0.0908 -0.2822  0.0761
34927SOL    HW1 6788   0.362   3.786   9.683 -0.4617 -0.0227 -2.3036
34927SOL    HW2 6789   0.457   3.872   9.763 -1.8801 -1.2662  0.8725
34928SOL     OW 6790  10.171   1.451   5.782  0.6090 -0.3758  0.2199
34928SOL    HW1 6791  10.228   1.433   5.857 -0.7154  0.8862  1.6116
34928SOL    HW2 6792  10.153   1.545   5.788 -1.0961 -0.6141 -0.5282
34929SOL     OW 6793   6.707   1.974   8.260  0.2946  0.2465 -0.5630
34929SOL    HW1 6794   6.756   2.037   8.313 -1.6174  0.3186  1.2634
34929SOL    HW2 6795   6.713   1.892   8.309 -1.9648  0.4425  0.1415
34930SOL     OW 6796   3.420   5.203   2.603  0.1853  0.6143  0.1833
34930SOL    HW1 6797   3.441   5.250   2.522 -0.4141  0.3744 -0.1136
34930SOL    HW2 6798   3.329   5.176   2.593  0.7238 -1.2674  0.0317
34931SOL     OW 6799   6.250   2.877   7.420  0.0194  0.1218  0.1561
34931SOL    HW1 6800   6.298   2.912   7.495  2.6801 -1.2972 -0.7599
34931SOL    HW2 6801   6.206   2.799   7.455 -1.2936  1.1563  0.8910
34932SOL     OW 6802   7.189   5.311   2.820 -0.3029  0.2423  0.1065
34932SOL    HW1 6803   7.220   5.275   2.738  1.9163 -1.5468  1.6051
34932SOL    HW2 6804   7.209   5.404   2.815  1.5861 -0.1671 -0.6730
34933SOL     OW 6805   3.660   0.659   6.150  0.2016 -0.1187  0.3742
34933SOL    HW1 6806   3.662   0.566   6.171  0.8508  0.0353  1.0230
34933SOL    HW2 6807   3.751   0.681   6.131  0.6249  1.0289  3.2050
34934SOL     OW 6808   5.835   1.698   5.692 -0.0337  0.4322  0.4175
34934SOL    HW1 6809   5.764   1.635   5.677 -0.3300  0.3409  2.0094
34934SOL    HW2 6810   5.909   1.662   5.645  0.1181 -1.7621  2.1414
34935SOL     OW 6811   4.368   8.862   2.662 -0.8135  0.0673  1.0643
34935SOL    HW1 6812   4.347   8.922   2.590  0.1356 -0.5507  0.2590
34935SOL    HW2 6813   4.286   8.855   2.711 -0.9345  2.0911  1.2548
34936SOL     OW 6814   3.860   5.635   8.656 -0.2124 -0.2946 -0.0101
34936SOL    HW1 6815   3.778   5.660   8.615  0.0450 -0.1485 -0.4412
34936SOL    HW2 6816   3.875   5.545   8.627 -0.2115 -0.3155  0.0555
34937SOL     OW 6817   4.712   6.754   7.864  0.4047  0.1738  0.4847
34937SOL    HW1 6818   4.646   6.801   7.915  0.3017 -0.0369  0.5476
34937SOL    HW2 6819   4.782   6.818   7.850  0.0551  0.4885  0.1612
34938SOL     OW 6820   7.581   6.876   6.164 -0.0519 -0.2628 -0.5698
34938SOL    HW1 6821   7.554   6.928   6.240  0.5883  1.4148 -1.4441
34938SOL    HW2 6822   7.501   6.862   6.114 -0.0307  0.9878 -0.9665
34939SOL     OW 6823   1.817   3.805   6.713 -0.1892  0.0023  0.2237
34939SOL    HW1 6824   1.875   3.880   6.722 -0.5360  0.2368  0.5305
34939SOL    HW2 6825   1.798   3.778   6.803 -0.1901 -0.3538  0.1169
34940SOL     OW 6826   1.448   1.579   2.650 -0.4599  0.1873 -0.5241
34940SOL    HW1 6827   1.501   1.549   2.723 -0.7636  0.2476 -0.2757
34940SOL    HW2 6828   1.377   1.515   2.643 -0.0393 -0.2161 -1.2233
34941SOL     OW 6829   5.790   1.653   8.786  0.5080  0.1484 -0.6816
34941SOL    HW1 6830   5.789   1.643   8.691  0.9758 -1.0394 -0.5748
34941SOL    HW2 6831   5.836   1.735   8.802 -1.3094  1.3967 -1.5378
34942SOL     OW 6832   2.633   7.430   5.266  0.0834 -0.3751 -0.0831
34942SOL    HW1 6833   2.546   7.411   5.230 -0.0857 -2.3981  1.2154
34942SOL    HW2 6834   2.620   7.426   5.361  1.6098 -0.8270  0.1200
34943SOL     OW 6835   3.598   2.245   3.469 -0.3260 -0.0820  0.8446
34943SOL    HW1 6836   3.519   2.228   3.520 -1.4592 -0.0587 -0.8450
34943SOL    HW2 6837   3.567   2.262   3.381  1.6894 -2.6498 -0.5005
34944SOL     OW 6838   5.418   0.456   8.392 -0.1272 -0.2495 -0.3238
34944SOL    HW1 6839   5.394   0.373   8.433 -3.0796  0.0473 -1.2318
34944SOL    HW2 6840   5.513   0.450   8.379  0.3089 -2.0269  2.6891
34945SOL     OW 6841  10.305   4.262   5.550  0.0053 -0.4221  0.2512
34945SOL    HW1 6842  10.276   4.194   5.612  1.4450  1.0106  2.6799
34945SOL    HW2 6843  10.395   4.280   5.576 -0.0936  1.8720 -0.7876
34946SOL     OW 6844   2.724   7.098   6.351  0.2233  0.4119  0.4154
34946SOL    HW1 6845   2.739   7.085   6.445  0.9908  2.3939  0.6322
34946SOL    HW2 6846   2.778   7.174   6.330 -0.1447  0.1498 -1.5928
34947SOL     OW 6847   5.361   0.143   0.295 -0.3028  0.1675  0.4922
34947SOL    HW1 6848   5.276   0.115   0.328 -1.3713  2.3145 -0.2164
34947SOL    HW2 6849   5.360   0.120   0.202 -0.9817  1.9105  0.0239
34948SOL     OW 6850   8.056  10.552   1.323 -0.0643 -0.1098 -0.1323
34948SOL    HW1 6851   8.034  10.561   1.415 -0.7851  0.2914 -0.3383
34948SOL    HW2 6852   8.152  10.557   1.321 -0.0239 -0.4522  0.6225
34949SOL     OW 6853   8.067   5.509   1.691  0.3785  0.3907  0.4115
34949SOL    HW1 6854   8.155   5.507   1.654 -0.3978  1.3837 -1.6509
34949SOL    HW2 6855   8.009   5.509   1.615 -1.3690  1.9621  1.6534
34950SOL     OW 6856  10.727   6.170   3.820 -0.3256 -0.6605  0.2435
34950SOL    HW1 6857  10.792   6.118   3.772  2.4334  1.9543  0.8543
34950SOL    HW2 6858  10.704   6.241   3.760 -0.3332  0.0666  1.0817
34951SOL     OW 6859   0.096   5.743   3.962  0.1174 -0.6664  0.3948
34951SOL    HW1 6860   0.036   5.681   3.920  0.1859 -0.1184 -0.5414
34951SOL    HW2 6861   0.171   5.689   3.988 -0.7233 -1.3472  1.5297
34952SOL     OW 6862   6.883   1.076   9.755  0.2661  1.1295 -1.0146
34952SOL    HW1 6863   6.799   1.071   9.710 -1.6728  0.3782  2.3316
34952SOL    HW2 6864   6.899   1.169   9.768  0.0813  1.2812 -1.8633
34953SOL     OW 6865   4.334  10.113   5.180  0.4824 -0.1347  0.1929
34953SOL    HW1 6866   4.384  10.085   5.103 -1.0304  0.5244 -1.0811
34953SOL    HW2 6867   4.386  10.184   5.217  2.1136 -1.5934  0.8619
34954SOL     OW 6868   4.906   4.960   7.500  0.1037  0.3756 -0.6753
34954SOL    HW1 6869   4.963   5.017   7.551 -0.0548  1.9925 -2.2168
34954SOL    HW2 6870   4.951   4.876   7.498  0.1780  0.2678  1.9634
34955SOL     OW 6871   7.180  10.703   7.820 -0.0582 -0.2758 -0.4758
34955SOL    HW1 6872   7.125  10.765   7.867  0.6882 -0.8799  1.2702
34955SOL    HW2 6873   7.224  10.653   7.888  2.6135  0.1358 -1.7534
34956SOL     OW 6874   5.861   3.710   7.777  0.4440  0.0919 -0.3256
34956SOL    HW1 6875   5.923   3.641   7.801  0.1775  0.1550  0.5671
34956SOL    HW2 6876   5.776   3.676   7.805  0.4568  1.3171  1.3573
34957SOL     OW 6877   8.667   7.247   2.625  0.2392  0.0040 -0.0736
34957SOL    HW1 6878   8.708   7.252   2.539  0.8252  0.0974  0.2119
34957SOL    HW2 6879   8.730   7.200   2.680  0.0002  0.2112  0.3847
34958SOL     OW 6880   5.230   0.855   1.657 -0.4598  0.1381 -0.7250
34958SOL    HW1 6881   5.223   0.889   1.746  0.5303  0.1241 -0.6362
34958SOL    HW2 6882   5.303   0.793   1.660 -1.1198 -0.7065 -1.2931
34959SOL     OW 6883   0.079   4.092   6.238 -0.0781  0.2136 -0.6796
34959SOL    HW1 6884   0.138   4.058   6.170  0.4616  1.8515 -1.0748
34959SOL    HW2 6885   0.137   4.130   6.304 -0.6495  0.3940 -0.2706
34960SOL     OW 6886   7.508   7.719   1.683  0.1717 -0.0726  0.2106
34960SOL    HW1 6887   7.461   7.766   1.751 -1.3198 -1.5353  0.2647
34960SOL    HW2 6888   7.518   7.630   1.718  1.8029 -0.1607 -0.3835
34961SOL     OW 6889   4.875   3.324   4.781 -0.1064  0.0585 -0.4418
34961SOL    HW1 6890   4.873   3.413   4.817 -0.6760 -0.3133  0.4925
34961SOL    HW2 6891   4.787   3.289   4.798  0.1593 -0.7359 -0.6472
34962SOL     OW 6892   2.504   6.533   7.043  0.1583 -0.7685 -0.1788
34962SOL    HW1 6893   2.583   6.524   7.096 -0.3305 -1.1451  0.5205
34962SOL    HW2 6894   2.510   6.619   7.004  0.5104 -0.4496  0.5604
34963SOL     OW 6895   2.054   7.261   3.525  0.8724  0.2141  0.1449
34963SOL    HW1 6896   2.145   7.256   3.498  0.3784  0.6950 -1.7531
34963SOL    HW2 6897   2.050   7.334   3.586  2.0625 -1.0135  1.7911
34964SOL     OW 6898  10.185   7.957   9.762  0.0988 -0.1736  0.3946
34964SOL    HW1 6899  10.135   7.967   9.681  0.3593  3.6546  0.5394
34964SOL    HW2 6900  10.119   7.930   9.827 -0.4110 -1.6991 -0.6882
34965SOL     OW 6901  10.805   2.815   6.500 -0.7001 -0.0295  0.2607
34965SOL    HW1 6902  10.869   2.883   6.481 -1.0344 -0.0214 -0.8692
34965SOL    HW2 6903  10.760   2.799   6.417 -1.1409 -1.0956  0.6805
34966SOL     OW 6904   8.958   4.033   5.791 -0.2480  0.1412  0.5267
34966SOL    HW1 6905   8.864   4.025   5.808 -0.1351 -0.4653  0.8460
34966SOL    HW2 6906   8.962   4.062   5.699 -0.7169 -1.0483  0.1099
34967SOL     OW 6907   3.910   8.984   4.171  0.5583  0.1587  0.3595
34967SOL    HW1 6908   3.817   8.967   4.188  0.5460 -0.6827 -0.5051
34967SOL    HW2 6909   3.922   9.075   4.199 -0.6913  0.5064 -0.1475
34968SOL     OW 6910  10.258   9.722  10.381 -1.0166  0.4279  0.1698
34968SOL    HW1 6911  10.196   9.759  10.444  0.1078  1.1392  0.9217
34968SOL    HW2 6912  10.339   9.712  10.432 -0.2319  0.5105 -1.0260
34969SOL     OW 6913   9.740   4.288   2.685  0.4735  0.0583 -0.1795
34969SOL    HW1 6914   9.705   4.373   2.656  1.4618  0.5993  0.1606
34969SOL    HW2 6915   9.778   4.250   2.606 -1.3063 -0.7917 -0.6837
34970SOL     OW 6916   4.212   3.399   2.767 -0.3169 -0.3112  0.0564
34970SOL    HW1 6917   4.149   3.455   2.722 -0.0067 -0.7579 -0.9734
34970SOL    HW2 6918   4.274   3.460   2.806 -0.5547  0.0895 -0.1817
34971SOL     OW 6919   0.722   0.840   5.329  0.6319  0.5778  0.1369
34971SOL    HW1 6920   0.816   0.844   5.313  0.7662  1.3457  1.0364
34971SOL    HW2 6921   0.714   0.828   5.423 -0.1735 -0.7737 -0.0672
34972SOL     OW 6922   9.346   9.913   1.406 -0.4959 -0.0908  0.5760
34972SOL    HW1 6923   9.424   9.867   1.375  0.0126 -0.6736  2.5228
34972SOL    HW2 6924   9.278   9.893   1.341  0.6635 -0.5743 -0.5216
34973SOL     OW 6925   8.148   5.022   0.253 -0.6187 -0.1797 -0.2699
34973SOL    HW1 6926   8.168   5.116   0.243 -1.8137  0.0935 -0.2197
34973SOL    HW2 6927   8.211   4.979   0.195 -0.7302  0.7285 -1.1066
34974SOL     OW 6928   7.579   5.943   3.906 -0.1831 -0.3753 -0.3217
34974SOL    HW1 6929   7.511   5.899   3.956 -0.1068 -0.0973  0.0293
34974SOL    HW2 6930   7.534   6.016   3.862  0.6358  2.9506  3.7639
34975SOL     OW 6931   4.438   5.713   2.811  0.5449 -0.3103 -0.0468
34975SOL    HW1 6932   4.480   5.771   2.747  1.4934 -0.7611  0.1446
34975SOL    HW2 6933   4.505   5.648   2.831  0.3163 -0.1199  1.4857
34976SOL     OW 6934   4.756   4.200   9.568  0.2747  0.7262  0.3893
34976SOL    HW1 6935   4.684   4.202   9.630  0.0400 -0.0437  0.1505
34976SOL    HW2 6936   4.731   4.263   9.500 -0.1905  0.4524  0.2982
34977SOL     OW 6937   5.073   5.845   8.471 -0.1931  0.2111  0.3229
34977SOL    HW1 6938   5.157   5.871   8.510  0.0690 -0.2867  0.0972
34977SOL    HW2 6939   5.097   5.807   8.386 -0.6912  0.5305  0.0369
34978SOL     OW 6940   1.851   5.921   0.783  0.3005  0.0697 -0.4533
34978SOL    HW1 6941   1.807   5.850   0.737  1.2348 -1.1157  0.4009
34978SOL    HW2 6942   1.935   5.931   0.737  0.6230 -0.1366  0.0771
34979SOL     OW 6943   3.481   6.456  10.241 -0.3579 -0.1853 -0.8176
34979SOL    HW1 6944   3.472   6.402  10.163  1.8330  0.0507 -1.3151
34979SOL    HW2 6945   3.493   6.394  10.313 -1.3389 -0.3876 -0.8205
34980SOL     OW 6946   6.518   5.135   1.917 -0.1670  0.4804  0.0315
34980SOL    HW1 6947   6.610   5.148   1.894  1.0873 -1.8574  3.0853
34980SOL    HW2 6948   6.484   5.223   1.929  2.1289  1.3987  0.3411
34981SOL     OW 6949   0.210   0.657   3.372 -0.7119  0.0800 -0.6573
34981SOL    HW1 6950   0.152   0.581   3.366  0.8463 -1.7195  3.2467
34981SOL    HW2 6951   0.263   0.640   3.450  1.7258  3.8979 -1.2221
34982SOL     OW 6952   9.479   5.728   6.066  0.0484 -0.4419 -0.1579
34982SOL    HW1 6953   9.449   5.740   6.156 -0.5164 -0.4352 -0.3375
34982SOL    HW2 6954   9.573   5.713   6.073  0.4042  1.6284  0.2875
34983SOL     OW 6955   6.174   2.009   1.422  0.2251  0.4736  0.1471
34983SOL    HW1 6956   6.145   2.063   1.496 -2.5028  0.9381 -1.1243
34983SOL    HW2 6957   6.117   1.932   1.424 -1.0065  1.1959 -2.2358
34984SOL     OW 6958   5.968   3.550   3.860 -0.0663 -0.4767 -0.3459
34984SOL    HW1 6959   5.921   3.632   3.848 -0.3419 -0.8989 -2.7407
34984SOL    HW2 6960   6.047   3.561   3.806 -0.8432 -2.2765 -1.9552
34985SOL     OW 6961   8.673   7.947   3.464 -0.1898 -0.1069 -0.6730
34985SOL    HW1 6962   8.726   8.011   3.511 -2.0697  0.2391  1.1206
34985SOL    HW2 6963   8.613   8.000   3.411  0.7550 -0.4879 -2.1976
34986SOL     OW 6964  10.777   8.131   5.632 -0.2173  0.3946  0.0711
34986SOL    HW1 6965  10.782   8.170   5.719 -0.7198  0.5065  0.0535
34986SOL    HW2 6966  10.684   8.117   5.618 -0.0129 -1.3536  0.3111
34987SOL     OW 6967   0.231   4.049   8.283 -0.0863 -0.3406  0.1787
34987SOL    HW1 6968   0.164   3.998   8.329 -0.1166  0.9025  1.5799
34987SOL    HW2 6969   0.212   4.140   8.305  0.2260  0.3002 -1.9099
34988SOL     OW 6970   4.596   4.481   7.919 -0.4533  0.1771  0.3945
34988SOL    HW1 6971   4.550   4.451   7.997  0.1644  1.3705  1.2619
34988SOL    HW2 6972   4.666   4.417   7.906 -0.9060 -0.3362  0.4860
34989SOL     OW 6973   6.247   8.236   9.877  0.1022  0.7320  0.1415
34989SOL    HW1 6974   6.156   8.235   9.847  1.0703 -1.0818 -3.2148
34989SOL    HW2 6975   6.265   8.146   9.904  1.3530  0.6272 -0.9315
34990SOL     OW 6976   7.236   1.182   2.870 -0.4228  0.7826  0.2333
34990SOL    HW1 6977   7.301   1.138   2.925 -0.5846  1.9191  1.3490
34990SOL    HW2 6978   7.164   1.120   2.864 -0.4585  0.7028  1.4051
34991SOL     OW 6979   0.183   2.221   2.217  0.2822  0.2852 -0.1187
34991SOL    HW1 6980   0.256   2.170   2.184  0.9194 -0.0779  1.7170
34991SOL    HW2 6981   0.203   2.234   2.310 -0.8640  2.1381 -0.0711
34992SOL     OW 6982   6.115   5.685   4.645 -0.6510  0.0691  0.1305
34992SOL    HW1 6983   6.184   5.620   4.631 -2.0101 -1.2237 -1.0654
34992SOL    HW2 6984   6.086   5.670   4.735 -1.1085 -1.2258 -0.1991
34993SOL     OW 6985   5.032  10.138  10.175  0.0877 -0.1109  0.0076
34993SOL    HW1 6986   5.113  10.143  10.124  0.6551  0.2997  0.9274
34993SOL    HW2 6987   5.004  10.047  10.166  1.5752 -0.7083  1.0429
34994SOL     OW 6988   5.929   6.084   9.287  0.0935 -0.3638 -0.4661
34994SOL    HW1 6989   5.872   6.069   9.363  0.5333 -0.0514 -0.0671
34994SOL    HW2 6990   6.017   6.063   9.319  0.1049 -1.8412 -1.3545
34995SOL     OW 6991   8.427   2.478   0.845 -0.1203  0.4588  0.6216
34995SOL    HW1 6992   8.428   2.565   0.805  0.0978 -0.0671 -0.5568
34995SOL    HW2 6993   8.519   2.459   0.863 -0.0138 -0.0848 -0.4145
34996SOL     OW 6994   2.232   3.736   3.528 -0.1837 -0.4756 -0.1706
34996SOL    HW1 6995   2.173   3.663   3.509 -1.2472  0.5376 -0.8635
34996SOL    HW2 6996   2.180   3.814   3.512  1.2472  0.4547 -0.4406
34997SOL     OW 6997   5.454   8.449   6.787  0.0981  0.1373 -0.0182
34997SOL    HW1 6998   5.519   8.517   6.771 -0.8941  1.6612  1.9388
34997SOL    HW2 6999   5.391   8.459   6.715  2.7398 -2.5390 -2.9899
34998SOL     OW 7000   3.883   9.834   6.177 -0.2752  0.6814 -0.2872
34998SOL    HW1 7001   3.847   9.807   6.262  1.4846  3.9630  1.7177
34998SOL    HW2 7002   3.815   9.889   6.139 -0.6649  0.0284 -0.5515
34999SOL     OW 7003   5.420   8.394   2.525  0.4285  0.6972 -0.2757
34999SOL    HW1 7004   5.514   8.401   2.541  0.3511  0.2370  0.4369
34999SOL    HW2 7005   5.389   8.332   2.591 -0.6038  1.8989  0.4002
35000SOL     OW 7006   4.739   0.841   2.634 -0.5299  0.0279 -0.8197
35000SOL    HW1 7007   4.664   0.889   2.601 -0.3575  0.4468 -0.6206
35000SOL    HW2 7008   4.749   0.873   2.724  1.0711  1.4655 -1.4493
35001SOL     OW 7009  10.903   6.178   7.381 -0.0056 -0.3209  0.4798
35001SOL    HW1 7010  10.944   6.104   7.427  1.3392 -0.2006 -0.4550
35001SOL    HW2 7011  10.923   6.162   7.289 -0.8471  0.5301  0.1466
35002SOL     OW 7012   6.533   9.004   9.165 -0.4214 -0.2523  0.7378
35002SOL    HW1 7013   6.557   9.038   9.079 -0.0355  1.4985  1.4985
35002SOL    HW2 7014   6.463   9.061   9.195 -0.8615 -1.1252  1.4142
35003SOL     OW 7015   4.578   6.003   3.686  0.3109 -0.3917  0.2627
35003SOL    HW1 7016   4.670   6.002   3.659  0.7316  0.6340  1.5578
35003SOL    HW2 7017   4.529   5.983   3.606  1.6038  0.2989 -0.7298
35004SOL     OW 7018   8.563   3.095   4.687 -0.2619  0.1853  0.1454
35004SOL    HW1 7019   8.549   3.020   4.630 -0.0831 -0.8386  1.4030
35004SOL    HW2 7020   8.497   3.086   4.756 -0.5054  1.4156  0.1076
35005SOL     OW 7021   2.025   8.879   6.787 -0.8866  0.2794 -0.3633
35005SOL    HW1 7022   2.073   8.929   6.854  1.1079 -1.1576 -0.6212
35005SOL    HW2 7023   1.997   8.800   6.832  0.1096 -0.5050 -1.0735
35006SOL     OW 7024   1.864   9.735   0.197 -0.1292 -0.0521  0.5168
35006SOL    HW1 7025   1.865   9.669   0.266 -1.0187  0.3259  0.9092
35006SOL    HW2 7026   1.946   9.722   0.150 -0.2593 -1.3928  0.6195
35007SOL     OW 7027  10.337   5.628   1.206 -0.3954  0.0434 -0.2019
35007SOL    HW1 7028  10.412   5.661   1.155 -0.4239  1.0630  0.3961
35007SOL    HW2 7029  10.348   5.532   1.204  0.6832  0.1522 -0.4906
35008SOL     OW 7030   2.850   1.599   9.531  0.1282  0.4768 -0.3704
35008SOL    HW1 7031   2.862   1.531   9.598  0.7670  0.7289 -0.2318
35008SOL    HW2 7032   2.798   1.556   9.463  1.4880 -0.5201 -0.8252
35009SOL     OW 7033   7.892  10.191   1.208 -0.1068 -0.1811 -0.0130
35009SOL    HW1 7034   7.856  10.253   1.271  0.8782 -0.0420  0.4383
35009SOL    HW2 7035   7.955  10.139   1.258  1.9065  1.0005 -1.1497
35010SOL     OW 7036   9.012   7.731   0.767 -0.0448  0.7183  0.9365
35010SOL    HW1 7037   9.034   7.813   0.811 -0.4979  0.2167  2.1381
35010SOL    HW2 7038   9.063   7.665   0.812 -0.1231  0.2532  0.3567
35011SOL     OW 7039   6.586   4.229   1.195 -0.6733 -0.2668 -0.3768
35011SOL    HW1 7040   6.580   4.325   1.185  0.2391 -0.1677 -0.0077
35011SOL    HW2 7041   6.643   4.216   1.270 -1.5600 -1.1060  0.1626
35012SOL     OW 7042   7.503   4.504   5.157  0.0543 -0.1294  0.1897
35012SOL    HW1 7043   7.528   4.428   5.105 -1.6110 -0.1853 -0.5603
35012SOL    HW2 7044   7.574   4.512   5.221  0.2327 -2.3796  0.3708
35013SOL     OW 7045   6.448   9.563   0.932 -0.4197 -0.0407  0.0952
35013SOL    HW1 7046   6.495   9.624   0.875  1.9176 -0.4637  1.4157
35013SOL    HW2 7047   6.401   9.505   0.872  0.1187  0.9154 -1.3034
35014SOL     OW 7048  10.071  10.859   9.774  0.5541  0.0305  0.3108
35014SOL    HW1 7049  10.101  10.948   9.752 -3.6424  1.6552  0.3443
35014SOL    HW2 7050  10.028  10.829   9.694 -1.0622 -0.5264  1.3612
35015SOL     OW 7051  10.064   4.431   8.701 -0.1778 -0.6614 -0.5350
35015SOL    HW1 7052  10.153   4.465   8.710 -0.1065 -1.0293  0.3113
35015SOL    HW2 7053  10.076   4.343   8.664 -0.2252 -0.4946 -0.9420
35016SOL     OW 7054   9.452   2.919   9.490 -0.3020 -0.0483 -0.4391
35016SOL    HW1 7055   9.411   2.866   9.559 -1.0099  2.5861  1.3143
35016SOL    HW2 7056   9.524   2.964   9.534 -2.0621  3.3642 -0.7079
35017SOL     OW 7057   9.000   5.204   4.032 -0.0747 -0.1478 -0.0311
35017SOL    HW1 7058   8.927   5.221   4.091 -0.5075 -1.4369 -0.1688
35017SOL    HW2 7059   9.078   5.222   4.084 -0.4707  0.9761  0.2011
35018SOL     OW 7060   1.190   4.328   3.556  0.2319 -0.3615 -0.0959
35018SOL    HW1 7061   1.146   4.249   3.586  0.0992 -0.0902  0.4339
35018SOL    HW2 7062   1.158   4.340   3.466  0.9451 -1.3935 -0.4946
35019SOL     OW 7063   1.350   9.068   7.581  0.0436  0.4861  0.8366
35019SOL    HW1 7064   1.376   8.978   7.599  2.3632  1.0031  0.4346
35019SOL    HW2 7065   1.379   9.084   7.491 -0.9466  1.4456  0.6646
35020SOL     OW 7066   6.402   9.341   3.045 -0.2568  0.2551  0.7402
35020SOL    HW1 7067   6.322   9.361   3.095 -0.5760  0.6402  0.0979
35020SOL    HW2 7068   6.390   9.389   2.962 -0.6622 -1.9463 -0.5437
35021SOL     OW 7069   1.329   2.405   0.025 -0.4984  0.1258  0.4281
35021SOL    HW1 7070   1.338   2.337  -0.041 -0.5013 -0.6029  1.1619
35021SOL    HW2 7071   1.323   2.487  -0.025  0.0227 -0.3559 -0.4426
35022SOL     OW 7072   0.206   7.973   2.268 -0.2854  0.4893  0.3307
35022SOL    HW1 7073   0.173   7.914   2.335  2.0151  0.9578  2.0020
35022SOL    HW2 7074   0.227   7.915   2.194 -1.5172 -0.2337  0.5144
35023SOL     OW 7075   0.732   8.133   2.514  0.3510  0.0946 -0.8398
35023SOL    HW1 7076   0.812   8.082   2.505 -1.1684 -2.1363 -2.7506
35023SOL    HW2 7077   0.684   8.091   2.586 -0.8387 -1.1845 -2.3201
35024SOL     OW 7078   4.221   4.531   7.830  0.3601  0.6729  0.0712
35024SOL    HW1 7079   4.295   4.573   7.788  0.2881 -0.0021 -0.7585
35024SOL    HW2 7080   4.260   4.463   7.885  0.5584  2.4746  2.3140
35025SOL     OW 7081   5.462   0.907   2.840 -0.8049 -0.2419  0.1554
35025SOL    HW1 7082   5.472   0.986   2.892  0.6093 -0.3611  0.0993
35025SOL    HW2 7083   5.427   0.937   2.756  0.4958  0.4466 -0.1593
35026SOL     OW 7084   0.114   3.818   5.223 -0.6182 -0.9321 -0.0399
35026SOL    HW1 7085   0.081   3.897   5.180 -0.3749  0.8438  2.7491
35026SOL    HW2 7086   0.038   3.785   5.271 -0.1365 -1.0275  0.6584
35027SOL     OW 7087   7.934   5.553   1.450 -0.1592  0.0372 -0.2885
35027SOL    HW1 7088   7.859   5.573   1.395  0.3511 -0.7158 -1.3080
35027SOL    HW2 7089   7.987   5.493   1.397  0.8290  0.0334  0.6594
35028SOL     OW 7090   7.439  10.234   7.541 -0.2604 -0.2784 -0.1338
35028SOL    HW1 7091   7.365  10.260   7.487  0.4254  0.5630 -0.6870
35028SOL    HW2 7092   7.488  10.314   7.555 -0.4504 -0.4615  1.8179
35029SOL     OW 7093   4.600   1.720   7.543 -0.7289 -0.7333 -0.1293
35029SOL    HW1 7094   4.605   1.741   7.450  0.6090  0.6679  0.2096
35029SOL    HW2 7095   4.516   1.676   7.554 -0.6652 -1.4427 -2.0833
35030SOL     OW 7096   7.089   1.150   6.207  0.0316  1.0766 -0.2979
35030SOL    HW1 7097   7.113   1.230   6.255  1.5926  0.8080 -0.5700
35030SOL    HW2 7098   7.076   1.085   6.276  0.9395  1.0295 -0.1548
35031SOL     OW 7099   5.712   2.036   8.235  0.3146 -0.1845  0.2832
35031SOL    HW1 7100   5.775   2.071   8.298  1.7216 -0.4839 -0.8921
35031SOL    HW2 7101   5.668   1.965   8.282  1.4891 -0.5568  0.8848
35032SOL     OW 7102   6.424   3.936   1.451 -0.1621 -0.7076 -0.3514
35032SOL    HW1 7103   6.382   3.973   1.529  0.3992 -0.2529 -0.2649
35032SOL    HW2 7104   6.515   3.963   1.457  0.0724 -1.3894 -0.7286
35033SOL     OW 7105   8.621   3.396  10.614  0.0743 -0.3800  0.3433
35033SOL    HW1 7106   8.675   3.444  10.552  0.6861 -1.1500  0.2599
35033SOL    HW2 7107   8.595   3.461  10.679  0.9128  0.0603  0.2535
35034SOL     OW 7108   9.211   2.003   4.981  0.3427 -0.2673  0.0499
35034SOL    HW1 7109   9.157   1.940   5.029  1.3478 -1.4139 -0.2859
35034SOL    HW2 7110   9.195   2.086   5.026 -1.6562 -0.5713 -0.0217
35035SOL     OW 7111   7.794   3.279   6.767 -0.3568 -0.0983 -0.1229
35035SOL    HW1 7112   7.706   3.242   6.774 -0.4858  0.4755  1.5036
35035SOL    HW2 7113   7.830   3.273   6.855  0.7075  1.0045 -0.4555
35036SOL     OW 7114   1.011   2.582   9.734  0.1119 -0.3250 -0.3471
35036SOL    HW1 7115   0.928   2.618   9.704 -0.0746 -0.6821 -0.2580
35036SOL    HW2 7116   0.987   2.509   9.790  0.4746 -0.1170  0.0859
35037SOL     OW 7117   8.674   6.321   2.267  0.3611 -0.3870  0.1371
35037SOL    HW1 7118   8.762   6.292   2.245 -0.4164 -2.3309 -0.7122
35037SOL    HW2 7119   8.684   6.374   2.346  2.7302  2.7515 -2.0372
35038SOL     OW 7120   1.151   7.408   3.928  0.2333  0.5704  0.0062
35038SOL    HW1 7121   1.069   7.380   3.967  0.3099  1.1178  0.5833
35038SOL    HW2 7122   1.142   7.503   3.919 -0.2772  0.3628 -2.4918
35039SOL     OW 7123   7.420   3.711   6.903 -0.0770 -0.7333 -0.0624
35039SOL    HW1 7124   7.415   3.615   6.898  0.6617 -0.7124 -1.4615
35039SOL    HW2 7125   7.504   3.733   6.863 -0.7612  0.5836 -0.8151
35040SOL     OW 7126   6.528   7.591   6.074  0.3296  0.7267 -0.0556
35040SOL    HW1 7127   6.558   7.682   6.081  0.3276  0.7605 -0.4961
35040SOL    HW2 7128   6.462   7.583   6.143 -0.5704  1.4157 -0.8193
35041SOL     OW 7129   9.042   5.284   6.837  0.2905  0.4253 -0.1972
35041SOL    HW1 7130   8.976   5.232   6.882  0.0367 -0.7787 -1.8280
35041SOL    HW2 7131   9.054   5.362   6.891  0.0146 -0.9019  1.8793
35042SOL     OW 7132   2.874   6.069   9.446 -0.0332 -0.0162 -0.7722
35042SOL    HW1 7133   2.811   6.031   9.385 -1.0046 -0.3713  0.4103
35042SOL    HW2 7134   2.879   6.161   9.422 -1.1149  0.0438 -0.8091
35043SOL     OW 7135  10.927  10.104  10.600 -0.0364 -0.6905  0.1703
35043SOL    HW1 7136  11.004  10.151  10.633 -0.9046  1.5907 -0.8425
35043SOL    HW2 7137  10.907  10.147  10.517 -1.3969 -2.3873 -0.4206
35044SOL     OW 7138   9.084   6.628   3.721  0.1430 -0.2114  0.2245
35044SOL    HW1 7139   9.045   6.542   3.735 -1.5154  0.7848  2.2283
35044SOL    HW2 7140   9.011   6.685   3.700  1.0458  0.9895  0.2459
35045SOL     OW 7141  10.296   5.531  10.328  0.1840  0.6646 -0.0132
35045SOL    HW1 7142  10.355   5.605  10.313  1.6792  0.0410  2.2007
35045SOL    HW2 7143  10.354   5.458  10.347 -1.1969  0.2209  3.1882
35046SOL     OW 7144   8.247   6.927   2.955  0.4405  0.0135  0.1099
35046SOL    HW1 7145   8.269   6.858   2.892 -1.1782 -0.1313 -0.3396
35046SOL    HW2 7146   8.325   6.937   3.008  1.2098 -1.1444 -0.7623
35047SOL     OW 7147   1.591   7.188   5.062 -0.0255 -0.1591  0.1445
35047SOL    HW1 7148   1.627   7.222   4.980 -0.2538 -1.0311 -0.3384
35047SOL    HW2 7149   1.651   7.220   5.129  1.5143 -1.2747 -0.5996
35048SOL     OW 7150  10.041   8.612   6.228 -0.5463  0.3319 -0.0366
35048SOL    HW1 7151  10.101   8.606   6.303  0.9800 -0.7868 -1.2884
35048SOL    HW2 7152  10.098   8.630   6.153 -1.9345  0.4628 -1.0896
35049SOL     OW 7153   7.439   8.107   2.264  0.4106 -0.1875 -0.3479
35049SOL    HW1 7154   7.482   8.143   2.342 -0.8386 -1.6121  1.0873
35049SOL    HW2 7155   7.487   8.027   2.245 -0.1578 -0.5829 -0.1502
35050SOL     OW 7156   3.648   0.856   4.900  0.9406  0.2542 -0.6953
35050SOL    HW1 7157   3.726   0.906   4.876  1.1891 -0.3743 -1.2217
35050SOL    HW2 7158   3.666   0.824   4.989  1.0707  0.5234 -0.6229
35051SOL     OW 7159   9.141   4.084   3.687  0.6022  0.7769  0.1873
35051SOL    HW1 7160   9.148   4.108   3.595  0.9611  1.1277  0.3058
35051SOL    HW2 7161   9.046   4.084   3.705  0.5211  0.4714 -0.2403
35052SOL     OW 7162   4.117   8.552   3.333 -0.5295  0.4173  0.3545
35052SOL    HW1 7163   4.053   8.534   3.403 -1.2439 -0.9693 -0.6126
35052SOL    HW2 7164   4.126   8.648   3.333 -3.9126  0.8630 -0.5647
35053SOL     OW 7165   9.642   0.951   9.917  0.0137 -0.1237  0.1570
35053SOL    HW1 7166   9.575   0.993   9.862  0.3405  0.3073  0.0863
35053SOL    HW2 7167   9.683   0.887   9.859 -0.1006 -0.1434  0.0964
35054SOL     OW 7168   0.787   9.792  10.526  0.5494  0.0004 -0.2849
35054SOL    HW1 7169   0.800   9.881  10.558  0.3007  0.2892 -0.9623
35054SOL    HW2 7170   0.868   9.746  10.546  0.5004  0.2447  0.5012
35055SOL     OW 7171   9.655   1.123   1.702 -0.3326  0.0145  0.0797
35055SOL    HW1 7172   9.709   1.131   1.623  0.2677  0.4106  0.5240
35055SOL    HW2 7173   9.565   1.118   1.669 -0.1227  0.6461 -0.6147
35056SOL     OW 7174   4.740   3.321   5.787  0.2052 -0.0276  0.0150
35056SOL    HW1 7175   4.672   3.264   5.749 -1.2520  0.9506  1.0403
35056SOL    HW2 7176   4.703   3.409   5.782  2.1614  0.7982 -0.9814
35057SOL     OW 7177   8.853   9.180   4.259 -0.2726  0.1820  0.4106
35057SOL    HW1 7178   8.847   9.189   4.355 -1.0398  1.5100  0.2647
35057SOL    HW2 7179   8.909   9.104   4.246 -2.0045 -1.4839  1.9230
35058SOL     OW 7180   0.901   1.681   7.930  0.6344 -0.3162 -0.0745
35058SOL    HW1 7181   0.969   1.713   7.989 -0.4082  1.4260  0.2485
35058SOL    HW2 7182   0.900   1.586   7.944  1.8794 -0.1972  1.0886
35059SOL     OW 7183   4.664   7.745   0.421  0.0451 -0.4275 -0.3466
35059SOL    HW1 7184   4.683   7.728   0.329 -0.7888 -0.4652 -0.5213
35059SOL    HW2 7185   4.629   7.663   0.455 -1.0050 -0.0209 -0.3811
35060SOL     OW 7186   4.289   7.283   8.915 -0.0355 -0.1344 -0.2936
35060SOL    HW1 7187   4.331   7.197   8.921 -3.7043 -2.3628 -2.3754
35060SOL    HW2 7188   4.235   7.289   8.994  0.5772  0.5702  0.0925
35061SOL     OW 7189   1.414   4.357   3.302 -0.4864 -0.0523 -0.4854
35061SOL    HW1 7190   1.330   4.314   3.287 -1.4681  1.5865  0.0585
35061SOL    HW2 7191   1.431   4.404   3.221 -0.1504 -0.2712 -0.5438
35062SOL     OW 7192   9.027   7.659   2.074 -0.3243 -0.3781 -0.1168
35062SOL    HW1 7193   9.110   7.649   2.026 -0.9555 -0.5780 -1.2065
35062SOL    HW2 7194   9.044   7.619   2.159  0.8696  0.0797 -0.1140
35063SOL     OW 7195   4.007   7.132   2.091  0.4015 -0.0190 -0.2354
35063SOL    HW1 7196   3.956   7.213   2.104 -1.7190 -1.0199 -1.8634
35063SOL    HW2 7197   3.957   7.065   2.136  0.5362 -0.9589 -1.4521
35064SOL     OW 7198   1.205   5.782   4.216 -0.3974  0.2865 -0.1179
35064SOL    HW1 7199   1.294   5.778   4.251 -0.0079  0.6057 -1.0508
35064SOL    HW2 7200   1.176   5.872   4.231 -0.5806  0.1789  0.2003
35065SOL     OW 7201  10.605   8.410   7.353 -0.5248  0.2506 -0.1695
35065SOL    HW1 7202  10.531   8.471   7.351 -0.8610 -0.1479 -0.1156
35065SOL    HW2 7203  10.649   8.422   7.269  0.1473  1.4505  0.3319
35066SOL     OW 7204   1.400   2.412   2.165 -0.1956 -0.1150 -0.7129
35066SOL    HW1 7205   1.337   2.445   2.102 -0.1651 -0.0369 -0.7021
35066SOL    HW2 7206   1.466   2.367   2.111 -0.9638 -1.3781 -0.6387
35067SOL     OW 7207   5.651   8.622   6.694  0.1505  0.3882 -0.5469
35067SOL    HW1 7208   5.739   8.659   6.695  0.5769 -0.5165 -1.6198
35067SOL    HW2 7209   5.594   8.693   6.721  1.1868  1.0473 -0.0327
35068SOL     OW 7210   5.079   0.623   1.807 -0.7883  0.6414 -0.6525
35068SOL    HW1 7211   5.114   0.701   1.763 -0.7071  0.3799 -1.0615
35068SOL    HW2 7212   5.053   0.565   1.736  0.5068 -0.3144 -0.3956
35069SOL     OW 7213   9.388   8.146   3.810 -0.2004 -0.3912  0.0430
35069SOL    HW1 7214   9.375   8.166   3.903 -2.5220  0.9465 -0.4816
35069SOL    HW2 7215   9.300   8.146   3.773  0.6123 -1.5678 -2.0655
35070SOL     OW 7216   0.209   8.691   7.181  0.1811  0.0984 -0.3647
35070SOL    HW1 7217   0.200   8.763   7.118  2.0884  2.1369  1.5324
35070SOL    HW2 7218   0.123   8.682   7.220 -0.1166  1.3075 -0.7075
35071SOL     OW 7219   9.286   3.843   4.808 -0.2745 -0.0274  0.5521
35071SOL    HW1 7220   9.297   3.902   4.734 -0.0741  0.5809  1.0633
35071SOL    HW2 7221   9.251   3.763   4.769 -0.6992  0.4771 -0.1272
35072SOL     OW 7222   7.694   5.701   3.052  0.8196  0.5554  0.2743
35072SOL    HW1 7223   7.716   5.630   2.992  0.8372  2.4257 -2.0700
35072SOL    HW2 7224   7.598   5.704   3.053  0.7930 -0.1432  1.2308
35073SOL     OW 7225   9.394   1.153   7.144  0.0121 -0.0456 -0.2981
35073SOL    HW1 7226   9.394   1.058   7.130  1.4210 -0.2495  0.8849
35073SOL    HW2 7227   9.336   1.166   7.219 -0.9073  0.1428 -1.0298
35074SOL     OW 7228   3.287   3.080   9.619 -0.1122  0.0927  0.1066
35074SOL    HW1 7229   3.306   3.169   9.650  0.4245  0.7057 -1.8110
35074SOL    HW2 7230   3.253   3.093   9.531  0.1107 -1.6201 -0.2541
35075SOL     OW 7231  10.686   8.886   2.461 -0.0194  0.1242  0.4849
35075SOL    HW1 7232  10.689   8.964   2.405  1.3459 -0.7639 -0.7308
35075SOL    HW2 7233  10.592   8.867   2.470 -0.4094  2.1462  1.2080
35076SOL     OW 7234   8.543   5.484   4.495 -0.2589  0.4950 -0.2246
35076SOL    HW1 7235   8.472   5.459   4.555  1.0043 -1.9022  0.4021
35076SOL    HW2 7236   8.526   5.576   4.475 -2.3405  0.5889  1.5570
35077SOL     OW 7237   1.595   1.216  10.938 -0.5394 -0.2010  0.1197
35077SOL    HW1 7238   1.576   1.200  11.030 -1.7230 -1.1498 -0.2529
35077SOL    HW2 7239   1.553   1.143  10.892  0.9453 -0.3462 -1.1045
35078SOL     OW 7240   6.861   8.495   2.182 -0.2171  0.0326 -0.1470
35078SOL    HW1 7241   6.868   8.406   2.215  0.7144 -0.2182 -0.9912
35078SOL    HW2 7242   6.779   8.496   2.133  0.2371 -0.6266 -0.9281
35079SOL     OW 7243   4.698   1.327   5.310 -0.3313  0.3896  0.1204
35079SOL    HW1 7244   4.740   1.350   5.226 -0.6211 -1.5238 -0.5988
35079SOL    HW2 7245   4.744   1.380   5.375 -0.0117  1.8376 -1.2270
35080SOL     OW 7246   5.627   7.472   2.952 -0.6981 -0.2062 -0.7053
35080SOL    HW1 7247   5.685   7.428   2.890  2.4464  1.5942  0.6618
35080SOL    HW2 7248   5.685   7.532   3.000 -3.4315  0.4826  2.0880
35081SOL     OW 7249  10.138   0.632   4.525  0.2163  0.5207  0.3766
35081SOL    HW1 7250  10.233   0.616   4.527 -0.0965 -1.7034 -0.4144
35081SOL    HW2 7251  10.102   0.557   4.477 -2.1459  0.2407  2.4066
35082SOL     OW 7252   3.869   2.535   7.400 -0.3064  0.4821 -0.1386
35082SOL    HW1 7253   3.891   2.486   7.480 -0.5990  2.6227  1.3499
35082SOL    HW2 7254   3.838   2.468   7.339 -2.6060 -1.0395  2.4353
35083SOL     OW 7255   1.269   2.402   8.064 -0.3218 -0.2559 -0.5237
35083SOL    HW1 7256   1.364   2.397   8.062 -0.1668  0.2943  1.9794
35083SOL    HW2 7257   1.240   2.322   8.021  1.4101 -2.5633  2.2079
35084SOL     OW 7258   2.872   4.649   8.004 -0.0139 -0.1333  0.5549
35084SOL    HW1 7259   2.882   4.743   7.990  0.4471 -0.1669  0.6476
35084SOL    HW2 7260   2.781   4.638   8.034  0.1985  0.3811  1.4192
35085SOL     OW 7261  10.060   8.199   0.459  0.3027 -0.2203 -0.6306
35085SOL    HW1 7262  10.014   8.274   0.497  2.8295  1.2168 -0.1322
35085SOL    HW2 7263  10.064   8.135   0.530  2.8839  1.4782  0.9290
35086SOL     OW 7264   7.857   5.200   9.266 -0.5695  0.0291  0.0006
35086SOL    HW1 7265   7.867   5.273   9.205  0.1667 -1.2372 -1.4672
35086SOL    HW2 7266   7.940   5.153   9.262 -1.4455 -1.6092 -0.1051
35087SOL     OW 7267   9.350   1.953   2.026  0.0413 -0.1998 -0.3965
35087SOL    HW1 7268   9.261   1.950   1.991  0.1439  2.2875 -1.0506
35087SOL    HW2 7269   9.389   2.030   1.985  2.1428 -0.5949  0.7315
35088SOL     OW 7270   3.413   7.089   2.547  0.0426 -0.0303 -0.3492
35088SOL    HW1 7271   3.409   7.101   2.453  0.4407 -1.0001 -0.5006
35088SOL    HW2 7272   3.459   7.006   2.559 -1.3610 -0.7029  0.6535
35089SOL     OW 7273   8.822   2.141   5.072 -0.0255 -0.1299  0.0910
35089SOL    HW1 7274   8.888   2.150   5.141  0.0012  1.2207 -0.0756
35089SOL    HW2 7275   8.789   2.052   5.082  1.8444 -0.8553  0.1438
35090SOL     OW 7276   6.699   0.506   9.361  0.3316 -0.7111  0.0594
35090SOL    HW1 7277   6.744   0.584   9.392 -0.9897  0.2233 -0.3023
35090SOL    HW2 7278   6.659   0.468   9.439 -0.1100 -0.2965  0.0360
35091SOL     OW 7279   6.746   6.367   8.923 -0.1261 -0.3264  0.4064
35091SOL    HW1 7280   6.783   6.303   8.862  0.1075 -0.8230  1.0618
35091SOL    HW2 7281   6.744   6.322   9.007  2.5918  1.4122  1.5222
35092SOL     OW 7282   6.868  10.191   5.310  0.2103 -0.1322  0.3653
35092SOL    HW1 7283   6.781  10.155   5.298 -0.2507  1.1253 -0.3036
35092SOL    HW2 7284   6.854  10.276   5.351  1.2335 -0.5519  1.6411
35093SOL     OW 7285   1.515   4.074   2.796  0.1066 -0.2312  0.4027
35093SOL    HW1 7286   1.609   4.089   2.804 -0.2837  2.3606  0.9234
35093SOL    HW2 7287   1.494   4.106   2.708 -0.5172  0.7039  0.8839
35094SOL     OW 7288   6.477   2.972  10.092  0.6090 -0.1936  0.3076
35094SOL    HW1 7289   6.426   3.021  10.156  0.3538  1.1791 -0.9035
35094SOL    HW2 7290   6.422   2.970  10.013  2.3200  1.2767 -1.0210
35095SOL     OW 7291   6.285   7.642   0.742 -0.0054 -0.4000  0.1212
35095SOL    HW1 7292   6.350   7.574   0.725  1.7970  1.1316  0.4374
35095SOL    HW2 7293   6.284   7.695   0.662 -1.0865 -0.5631  0.0182
35096SOL     OW 7294   8.502   2.376   1.138  0.1359  0.1932 -0.6141
35096SOL    HW1 7295   8.524   2.301   1.083 -0.5251 -0.4070 -0.0950
35096SOL    HW2 7296   8.573   2.438   1.125  1.0682 -0.8275 -0.5114
35097SOL     OW 7297   7.764   3.411   9.488 -0.1782  0.0547 -0.0325
35097SOL    HW1 7298   7.808   3.445   9.410  1.4509 -1.0222  0.3708
35097SOL    HW2 7299   7.833   3.367   9.537 -1.6066 -1.1845  0.9418
35098SOL     OW 7300   3.158   7.886   4.718  0.3927 -0.1438 -0.0975
35098SOL    HW1 7301   3.158   7.850   4.629  1.2808 -0.9595  0.2183
35098SOL    HW2 7302   3.136   7.812   4.774 -0.5515  0.4554  0.3456
35099SOL     OW 7303   2.366   7.619   1.808  0.2912 -0.1848  0.1046
35099SOL    HW1 7304   2.431   7.576   1.753  1.4057  0.3559  0.9531
35099SOL    HW2 7305   2.411   7.697   1.842 -0.8125  0.2298  0.6865
35100SOL     OW 7306   3.671   5.914   2.517  0.3096  0.2386  0.0468
35100SOL    HW1 7307   3.637   5.895   2.605 -0.9933 -0.0766 -0.5059
35100SOL    HW2 7308   3.608   5.976   2.480  0.2127 -0.5115 -1.0822
35101SOL     OW 7309   5.327   3.355   0.500 -0.0285  0.1678 -0.1560
35101SOL    HW1 7310   5.272   3.428   0.473  0.0177 -0.2744 -1.5081
35101SOL    HW2 7311   5.416   3.391   0.502 -0.1461  0.4357  0.3139
35102SOL     OW 7312   9.473   6.601   8.204  0.8286 -0.3517 -0.1677
35102SOL    HW1 7313   9.408   6.623   8.137  2.6815  2.6147 -1.2207
35102SOL    HW2 7314   9.449   6.654   8.280  0.2884 -1.6456  0.5981
35103SOL     OW 7315   8.110   5.820   0.658  0.2085 -0.3627  0.1087
35103SOL    HW1 7316   8.078   5.846   0.745  3.1167  1.5432  0.7676
35103SOL    HW2 7317   8.124   5.726   0.664 -1.0331 -0.4920  1.2099
35104SOL     OW 7318   3.629   6.464   0.673  0.4600 -0.0388  0.1463
35104SOL    HW1 7319   3.612   6.380   0.630  1.5100  0.6845 -1.7844
35104SOL    HW2 7320   3.549   6.514   0.662 -0.0235 -0.6099  0.9442
35105SOL     OW 7321   1.996   1.392   6.083 -0.5973  0.0728  0.5754
35105SOL    HW1 7322   1.998   1.297   6.093  0.1815  0.1024  0.7947
35105SOL    HW2 7323   2.079   1.422   6.121 -0.6375  0.7985  0.1148
35106SOL     OW 7324   2.948   3.729   2.001  0.0953  0.3200 -0.4552
35106SOL    HW1 7325   2.924   3.766   2.086 -0.6157 -2.4898  0.6478
35106SOL    HW2 7326   2.868   3.689   1.968  1.1241 -1.4843 -0.8899
35107SOL     OW 7327   0.686   6.405   5.802  0.4040 -0.4569  0.6214
35107SOL    HW1 7328   0.740   6.326   5.815  1.0669 -0.5815 -2.2757
35107SOL    HW2 7329   0.596   6.374   5.810  0.5709 -2.0549 -2.4373
35108SOL     OW 7330   2.559   5.549   8.368  0.8056 -0.1194  0.5209
35108SOL    HW1 7331   2.635   5.506   8.328  1.5925  0.9743  0.8152
35108SOL    HW2 7332   2.591   5.584   8.451  0.0464  0.5582  0.5411
35109SOL     OW 7333   6.231   3.036   8.380  0.4920  0.0531 -1.1419
35109SOL    HW1 7334   6.212   3.114   8.329  2.4094  1.8089  0.6446
35109SOL    HW2 7335   6.165   3.036   8.450  0.0254 -0.3643 -1.5804
35110SOL     OW 7336   2.360   7.093   8.180 -0.2444 -0.1987 -0.2005
35110SOL    HW1 7337   2.430   7.156   8.191  0.7244 -1.1138 -0.8601
35110SOL    HW2 7338   2.320   7.085   8.266 -0.6824  1.6094 -0.2018
35111SOL     OW 7339   5.464   0.667   4.034 -0.2597  0.2206 -0.0162
35111SOL    HW1 7340   5.441   0.609   3.961  1.9377 -1.9172  0.8506
35111SOL    HW2 7341   5.542   0.713   4.003  0.4865 -0.4519  0.8232
35112SOL     OW 7342  10.116   7.884   7.231 -0.2087  0.2681  0.2660
35112SOL    HW1 7343  10.163   7.802   7.212  1.2754  1.3216 -0.7891
35112SOL    HW2 7344  10.180   7.937   7.280 -1.2768  0.6905  1.2495
35113SOL     OW 7345  10.712   4.380   4.721 -0.3564  0.3573  0.0895
35113SOL    HW1 7346  10.712   4.454   4.661 -1.2225  1.4136  1.3383
35113SOL    HW2 7347  10.744   4.416   4.804 -0.9359 -0.6251  0.7606
35114SOL     OW 7348   2.162   3.356   2.127 -0.9394  0.1515 -0.2814
35114SOL    HW1 7349   2.178   3.420   2.057 -1.3333 -0.4314 -0.9156
35114SOL    HW2 7350   2.243   3.305   2.131 -1.2681 -0.4458 -0.9957
35115SOL     OW 7351  10.641   5.084   6.857 -0.1874 -0.4599 -0.6115
35115SOL    HW1 7352  10.628   5.090   6.762 -0.2515 -0.3240 -0.5957
35115SOL    HW2 7353  10.579   5.147   6.893  0.1655 -0.1660 -0.5047
35116SOL     OW 7354  10.537   7.833  10.055 -0.4606  0.0964 -0.1071
35116SOL    HW1 7355  10.610   7.888  10.083 -0.4666  0.1669 -0.2294
35116SOL    HW2 7356  10.488   7.814  10.135  0.3183 -0.8708  0.1536
35117SOL     OW 7357   0.880   9.466   6.906 -0.3820 -0.8450  0.3291
35117SOL    HW1 7358   0.789   9.485   6.928 -0.1466 -2.2384  2.9565
35117SOL    HW2 7359   0.879   9.447   6.812 -2.4698  0.8226 -0.0511
35118SOL     OW 7360   2.148   8.704   6.094  0.1121  0.0736 -0.0559
35118SOL    HW1 7361   2.196   8.765   6.150 -0.1557  1.2249 -1.0225
35118SOL    HW2 7362   2.071   8.680   6.145  1.4070 -1.4204  1.3168
35119SOL     OW 7363   0.553   3.293   7.760 -0.0298 -0.0667  0.2175
35119SOL    HW1 7364   0.480   3.257   7.710 -1.8073  1.6734  1.3883
35119SOL    HW2 7365   0.536   3.387   7.762  2.3859  0.4285  0.4023
35120SOL     OW 7366  10.727   4.115   3.568 -0.0020 -0.2752  0.0172
35120SOL    HW1 7367  10.780   4.057   3.514 -1.3306 -0.1674 -1.4826
35120SOL    HW2 7368  10.741   4.084   3.657 -0.0056 -2.3787 -0.6627
35121SOL     OW 7369   0.223   9.463   6.983  0.2689 -0.1403 -0.1946
35121SOL    HW1 7370   0.314   9.479   6.958  0.3085  0.5958  0.4013
35121SOL    HW2 7371   0.191   9.547   7.013 -0.6688 -0.3531 -0.5537
35122SOL     OW 7372   3.901   6.453  10.386 -0.2637 -0.1424  0.2646
35122SOL    HW1 7373   3.825   6.502  10.418 -0.0606  0.2654  0.1294
35122SOL    HW2 7374   3.958   6.519  10.347 -0.1925 -0.5429 -0.3335
35123SOL     OW 7375   5.971   2.355   5.340  0.0942  0.3523  0.0215
35123SOL    HW1 7376   5.881   2.367   5.307  0.4865  2.7242 -0.3114
35123SOL    HW2 7377   5.971   2.397   5.426  0.2522 -1.9838  1.2504
35124SOL     OW 7378   9.759   9.109   7.805  0.3268 -1.0715  0.5286
35124SOL    HW1 7379   9.724   9.195   7.780  1.3381  0.0239  2.6390
35124SOL    HW2 7380   9.815   9.084   7.732  0.2693  0.2354 -0.0024
35125SOL     OW 7381   6.402   0.441   1.861 -0.1892 -0.2418 -0.2112
35125SOL    HW1 7382   6.414   0.360   1.911 -0.7875 -0.5527 -0.5584
35125SOL    HW2 7383   6.445   0.423   1.777 -0.6919 -0.3664 -0.4488
35126SOL     OW 7384   8.919   2.845   6.170 -0.2190  0.5882  0.0568
35126SOL    HW1 7385   8.847   2.902   6.199  0.1726  1.5748 -0.8134
35126SOL    HW2 7386   8.984   2.906   6.135  1.1458 -0.2691  1.0233
35127SOL     OW 7387   8.578   0.970   2.219 -0.5144 -0.0451  0.5096
35127SOL    HW1 7388   8.630   0.963   2.138  0.7726 -2.7575  1.4406
35127SOL    HW2 7389   8.593   1.059   2.250  1.4626  0.0914 -0.6814
35128SOL     OW 7390   7.199   6.510   9.120 -0.1842  0.0862  0.3756
35128SOL    HW1 7391   7.272   6.551   9.165 -0.2231  0.8265 -0.2196
35128SOL    HW2 7392   7.236   6.430   9.081 -0.2662 -0.8585  2.1172
35129SOL     OW 7393   0.724   0.054   2.737 -0.4837  0.7213 -0.1890
35129SOL    HW1 7394   0.748  -0.038   2.749 -1.0796  0.7745  1.5795
35129SOL    HW2 7395   0.638   0.051   2.696 -0.4814  0.4859 -0.1803
35130SOL     OW 7396   8.274   1.155   1.305  0.4736 -0.1915 -0.3201
35130SOL    HW1 7397   8.239   1.222   1.245  1.6866  1.1238  0.3664
35130SOL    HW2 7398   8.361   1.187   1.327  1.4867 -2.5218 -0.6955
35131SOL     OW 7399   2.364   1.953   1.630 -0.0726  0.5963 -0.3094
35131SOL    HW1 7400   2.285   1.989   1.669  0.0545  0.7951 -0.2338
35131SOL    HW2 7401   2.406   1.903   1.700  0.6474  1.7365  0.0959
35132SOL     OW 7402   3.522   0.819   4.030 -0.7390  0.0523 -0.3920
35132SOL    HW1 7403   3.505   0.730   3.997 -0.4961  0.5334 -1.8817
35132SOL    HW2 7404   3.450   0.871   3.995  0.2698  0.8491 -1.3425
35133SOL     OW 7405   7.724   5.613  10.180 -0.1970 -0.0485  0.2270
35133SOL    HW1 7406   7.785   5.555  10.226  0.5108  0.4235 -0.0918
35133SOL    HW2 7407   7.732   5.588  10.088 -1.5757 -0.9605  0.3373
35134SOL     OW 7408   2.539   9.450   0.503 -0.4926 -0.4797 -0.3221
35134SOL    HW1 7409   2.520   9.376   0.560 -1.7260  0.4381  0.5157
35134SOL    HW2 7410   2.521   9.418   0.415  0.1160 -1.5002 -0.0953
35135SOL     OW 7411   9.288   9.442   8.204 -0.0358  0.3188  0.0852
35135SOL    HW1 7412   9.370   9.476   8.239  0.3695 -1.9105  1.5163
35135SOL    HW2 7413   9.314   9.394   8.125 -0.0357  0.0655  0.2387
35136SOL     OW 7414   5.691   4.729   9.375  0.0847  0.0519 -0.3530
35136SOL    HW1 7415   5.739   4.741   9.293 -1.4537  0.2406 -1.2509
35136SOL    HW2 7416   5.734   4.654   9.417  1.9301  0.9609 -0.5223
35137SOL     OW 7417   2.880   6.052   8.284  0.0416 -0.0025  0.2808
35137SOL    HW1 7418   2.838   6.138   8.281 -1.6180 -0.7418  1.0633
35137SOL    HW2 7419   2.872   6.024   8.375  1.5201 -0.5401  0.2671
35138SOL     OW 7420   9.300  10.025   4.927  0.6892  0.0250  0.2618
35138SOL    HW1 7421   9.346  10.107   4.909 -0.0286  0.5172  0.6206
35138SOL    HW2 7422   9.256  10.003   4.845  0.0135  0.5712  0.4710
35139SOL     OW 7423   5.306   3.517   8.196  0.3504 -0.1126 -0.3751
35139SOL    HW1 7424   5.265   3.442   8.152 -3.0573  0.5062  1.4302
35139SOL    HW2 7425   5.386   3.481   8.234 -0.1533 -2.3313 -1.2572
35140SOL     OW 7426   2.447   9.542   8.620 -0.3064  0.8188  0.7813
35140SOL    HW1 7427   2.470   9.635   8.608  0.3398  0.3744 -2.4209
35140SOL    HW2 7428   2.357   9.536   8.588  0.8961 -0.1578 -2.9838
35141SOL     OW 7429   6.415   7.727   7.250 -0.3137 -0.0473  0.0237
35141SOL    HW1 7430   6.342   7.722   7.188  0.7167 -1.0287 -1.1567
35141SOL    HW2 7431   6.456   7.641   7.247  0.4986  0.2611  1.1953
35142SOL     OW 7432   5.759   7.592   7.582  0.1145 -0.3038 -0.4780
35142SOL    HW1 7433   5.774   7.573   7.489  0.9358  0.0694 -0.4295
35142SOL    HW2 7434   5.666   7.576   7.595 -0.0669 -0.0758 -1.4328
35143SOL     OW 7435   3.055   8.153   8.783 -0.3453 -0.3267  0.2614
35143SOL    HW1 7436   3.015   8.229   8.825 -1.4188 -0.7605  0.0408
35143SOL    HW2 7437   2.991   8.124   8.718  1.5672  0.7933 -2.3028
35144SOL     OW 7438   5.713   8.551   1.301 -0.3374 -0.6154 -0.2779
35144SOL    HW1 7439   5.674   8.638   1.313  0.9689  0.0344 -0.4614
35144SOL    HW2 7440   5.697   8.506   1.383  0.8066  0.5923  0.6629
35145SOL     OW 7441   5.687   3.427   7.491  0.0682  0.1338  0.1846
35145SOL    HW1 7442   5.746   3.389   7.556 -0.5904 -0.5539  0.3863
35145SOL    HW2 7443   5.730   3.509   7.465 -0.0509  0.8598  2.1060
35146SOL     OW 7444   3.986  10.541   2.896  0.2606  0.4550 -0.0358
35146SOL    HW1 7445   3.954  10.451   2.893 -1.8256  1.1780 -0.8091
35146SOL    HW2 7446   3.935  10.587   2.830 -0.0028  2.6105  1.5861
35147SOL     OW 7447   6.178   0.263   7.439 -1.1377  0.1623  0.6353
35147SOL    HW1 7448   6.148   0.174   7.458 -1.4946  0.2441  0.4646
35147SOL    HW2 7449   6.098   0.312   7.422 -0.8690 -0.1911 -2.3643
35148SOL     OW 7450   4.585   1.344   4.161 -0.2159 -0.3908  0.3612
35148SOL    HW1 7451   4.649   1.386   4.218  0.4398 -1.7221  0.6406
35148SOL    HW2 7452   4.623   1.259   4.140 -0.5055 -0.0041 -1.9736
35149SOL     OW 7453   0.744   5.048   5.947  0.6172 -0.4277  0.5349
35149SOL    HW1 7454   0.809   4.993   5.990  2.1055 -0.1349 -1.2312
35149SOL    HW2 7455   0.762   5.039   5.853 -1.0008  0.7704  0.0487
35150SOL     OW 7456   3.971   2.423   1.019 -0.0040  0.1162  0.3562
35150SOL    HW1 7457   3.887   2.464   1.000  0.4223  1.2388  0.7632
35150SOL    HW2 7458   3.961   2.386   1.107  0.4390  1.8468  1.2048
35151SOL     OW 7459   1.308   8.199  10.033 -0.0126  0.4319 -0.1893
35151SOL    HW1 7460   1.299   8.273  10.093  1.7813  0.4598  0.0783
35151SOL    HW2 7461   1.255   8.130  10.073  0.0713  0.8777  0.7130
35152SOL     OW 7462   7.266   0.452  10.016  0.0535  0.1118 -0.2114
35152SOL    HW1 7463   7.181   0.485  10.047  0.5064  0.0994  1.0990
35152SOL    HW2 7464   7.266   0.359  10.039  0.2448 -0.0017 -0.6426
35153SOL     OW 7465   4.253   6.279   0.961 -0.1465  0.4219  0.2167
35153SOL    HW1 7466   4.323   6.334   0.996  0.3080  1.8881 -2.6664
35153SOL    HW2 7467   4.284   6.189   0.974  1.1058  0.9573  1.1907
35154SOL     OW 7468  10.958   0.244   8.203 -0.0091 -0.0340  0.7622
35154SOL    HW1 7469  11.016   0.298   8.257  2.6616 -1.1802 -0.8264
35154SOL    HW2 7470  10.929   0.302   8.133 -0.5039  0.4254  1.3333
35155SOL     OW 7471  10.720   2.845   6.907  0.5624 -0.2723 -0.2304
35155SOL    HW1 7472  10.813   2.855   6.927  0.5336  0.9780 -0.6281
35155SOL    HW2 7473  10.676   2.855   6.991  0.6490  1.6858 -0.3706
35156SOL     OW 7474   6.358   4.857   2.875 -0.4421  0.4915  0.4426
35156SOL    HW1 7475   6.271   4.853   2.834  0.6013  0.9712 -2.0307
35156SOL    HW2 7476   6.363   4.779   2.930 -2.4122  0.4420  0.6009
35157SOL     OW 7477   6.043   7.663   0.423 -0.1201  0.4795  0.0750
35157SOL    HW1 7478   5.972   7.726   0.435 -0.6872 -0.3855  1.4540
35157SOL    HW2 7479   6.001   7.578   0.422  0.8022  0.0101 -0.1087
35158SOL     OW 7480   8.027   4.438   9.983  0.3373  0.1753  0.5516
35158SOL    HW1 7481   8.036   4.345   9.961 -1.1785 -0.0327  0.6970
35158SOL    HW2 7482   8.116   4.472   9.979  0.7523 -0.9424 -1.0614
35159SOL     OW 7483   8.719   2.540   2.256  0.1239  0.4071 -0.2550
35159SOL    HW1 7484   8.743   2.625   2.292 -1.7919  1.4171 -1.2151
35159SOL    HW2 7485   8.699   2.486   2.333 -1.8191  1.8581  0.3215
35160SOL     OW 7486   9.702   8.195  10.244 -0.3491  0.3780 -0.8890
35160SOL    HW1 7487   9.746   8.110  10.247 -0.9364  0.0184 -1.9761
35160SOL    HW2 7488   9.614   8.178  10.277 -0.1760  0.7783 -0.1916
35161SOL     OW 7489   2.174   4.542   7.961  0.4488  0.6498 -0.5145
35161SOL    HW1 7490   2.168   4.636   7.943  1.5130  0.9973  0.8052
35161SOL    HW2 7491   2.265   4.528   7.986 -0.1692 -0.3371  1.3775
35162SOL     OW 7492   6.964   3.537   9.315  0.0825  0.0732 -0.3206
35162SOL    HW1 7493   7.057   3.527   9.338  0.2023  2.5222  0.6061
35162SOL    HW2 7494   6.928   3.588   9.387 -2.1724 -1.3641 -0.3632
35163SOL     OW 7495   1.729   4.495   1.392 -0.5071  0.0508 -0.4279
35163SOL    HW1 7496   1.751   4.494   1.299 -0.0689  0.3903 -0.3322
35163SOL    HW2 7497   1.638   4.525   1.394 -0.9475 -1.1833 -0.8169
35164SOL     OW 7498   1.060  10.497   9.099 -0.6412  0.3643  0.2536
35164SOL    HW1 7499   1.055  10.484   9.194  1.1490 -0.9019  0.2135
35164SOL    HW2 7500   1.128  10.564   9.088  2.0108 -2.2235 -0.2171
35165SOL     OW 7501   0.987   0.563  10.632  0.0498 -0.0632  0.2042
35165SOL    HW1 7502   0.964   0.566  10.540  1.0138 -1.1291 -0.0959
35165SOL    HW2 7503   0.971   0.472  10.658  2.3515 -0.4942  0.3637
35166SOL     OW 7504   0.843   3.499   7.279  0.5148  0.5827  0.1956
35166SOL    HW1 7505   0.830   3.482   7.186  2.5994 -1.0466  0.1258
35166SOL    HW2 7506   0.932   3.535   7.284  0.9778 -0.6578  1.6514
35167SOL     OW 7507   2.273   5.867  11.012  1.2179 -0.3195  0.8106
35167SOL    HW1 7508   2.191   5.848  11.059 -0.6409  2.7814 -0.8320
35167SOL    HW2 7509   2.326   5.916  11.074  0.7593 -0.2302  1.1362
35168SOL     OW 7510  10.707   9.975  10.299 -0.1431  0.0613  0.2354
35168SOL    HW1 7511  10.721  10.064  10.268  1.7640 -0.8214 -1.6907
35168SOL    HW2 7512  10.661   9.931  10.227 -0.9172 -0.5726  1.0911
35169SOL     OW 7513   3.097   6.646   5.025 -0.1366  0.2097  0.5091
35169SOL    HW1 7514   3.096   6.553   5.005 -0.3751  0.3825 -0.3114
35169SOL    HW2 7515   3.032   6.656   5.095  0.6086 -0.3816  1.3034
35170SOL     OW 7516   6.509   7.411   9.599 -0.5035  0.5278 -0.2789
35170SOL    HW1 7517   6.505   7.326   9.556 -0.2440 -0.8649  2.2828
35170SOL    HW2 7518   6.425   7.453   9.577 -1.3687 -1.0890 -0.1938
35171SOL     OW 7519   6.389   0.208   6.464 -0.4892  0.0369 -0.0266
35171SOL    HW1 7520   6.366   0.182   6.375  1.0996 -0.5577 -0.2856
35171SOL    HW2 7521   6.455   0.276   6.454 -1.0018  0.6641  0.7098
35172SOL     OW 7522   7.605   3.337   7.465 -0.3235 -0.0970 -0.3233
35172SOL    HW1 7523   7.606   3.357   7.558 -1.3243  1.9104 -0.6851
35172SOL    HW2 7524   7.614   3.242   7.460  0.7349 -0.1514  1.7543
35173SOL     OW 7525   3.173   9.630   0.854 -0.1919  0.2539  0.6240
35173SOL    HW1 7526   3.106   9.565   0.831  1.2196 -1.4405  1.0443
35173SOL    HW2 7527   3.148   9.709   0.805 -1.5069 -0.8604 -0.5957
35174SOL     OW 7528  10.135   9.021   9.747 -0.3744 -0.4818 -0.4247
35174SOL    HW1 7529  10.050   9.065   9.753 -0.0864  0.3046 -1.8187
35174SOL    HW2 7530  10.155   8.995   9.837 -1.4783  0.4947  0.1211
35175SOL     OW 7531   6.490   7.728   7.997 -0.0019 -0.0311 -0.6396
35175SOL    HW1 7532   6.491   7.708   8.090  0.3986 -0.2699 -0.6945
35175SOL    HW2 7533   6.575   7.699   7.964  1.1655  2.8523 -0.4812
35176SOL     OW 7534   1.585   9.684   0.290  0.4771  0.0073 -0.2052
35176SOL    HW1 7535   1.538   9.689   0.206 -1.7270 -2.8111  0.7059
35176SOL    HW2 7536   1.620   9.595   0.292 -2.0687 -1.0997  2.9866
35177SOL     OW 7537   1.638   8.894   2.575  0.0442 -0.0083  0.5630
35177SOL    HW1 7538   1.575   8.963   2.593 -0.9145 -0.7308  0.0799
35177SOL    HW2 7539   1.642   8.889   2.479  0.7862 -0.0201  0.5857
35178SOL     OW 7540   0.452  10.406  10.393 -0.1509  0.7746  0.0308
35178SOL    HW1 7541   0.480  10.322  10.358  0.3837  2.1075 -3.0551
35178SOL    HW2 7542   0.359  10.394  10.414  0.1774 -0.8356  0.7358
35179SOL     OW 7543   1.546   8.778   7.415 -0.4280  0.9131  0.1770
35179SOL    HW1 7544   1.640   8.773   7.430 -0.8814 -0.8727  3.3888
35179SOL    HW2 7545   1.519   8.689   7.392 -1.2711  1.6146 -1.8297
35180SOL     OW 7546   0.544   8.232   5.322 -0.5208 -0.7937  0.0651
35180SOL    HW1 7547   0.530   8.243   5.416 -1.8506 -0.6126 -0.1281
35180SOL    HW2 7548   0.577   8.143   5.313  1.3275 -0.2196  0.8423
35181SOL     OW 7549   8.290   0.135   8.276  0.1921  0.5585  0.2563
35181SOL    HW1 7550   8.228   0.062   8.278 -1.4852  1.8565 -0.8497
35181SOL    HW2 7551   8.347   0.120   8.351  1.7209 -3.2967 -1.4311
35182SOL     OW 7552   6.970   7.680   7.158  0.1607 -0.0966 -1.1784
35182SOL    HW1 7553   7.016   7.603   7.125  2.2115  0.5754 -0.0884
35182SOL    HW2 7554   6.895   7.644   7.207  0.3711 -1.3256 -1.7251
35183SOL     OW 7555   6.859   6.260   1.581  0.7705  0.2826 -0.3372
35183SOL    HW1 7556   6.896   6.348   1.574  1.3732  0.3292  2.3096
35183SOL    HW2 7557   6.769   6.269   1.552  1.5385  1.1679 -2.6119
35184SOL     OW 7558  10.672   5.871   8.478 -0.0754  0.2956 -0.1731
35184SOL    HW1 7559  10.726   5.829   8.544  1.7343  1.4686 -0.8233
35184SOL    HW2 7560  10.701   5.833   8.395 -0.3849  0.7847 -0.5190
35185SOL     OW 7561  10.824   7.277   0.044  0.2051  0.0990 -0.2163
35185SOL    HW1 7562  10.735   7.303   0.022 -0.1370 -0.1828  0.7666
35185SOL    HW2 7563  10.814   7.202   0.103  0.9346  2.1451  2.7522
35186SOL     OW 7564   2.184  10.922   7.649 -0.2389 -0.2636 -0.4006
35186SOL    HW1 7565   2.115  10.987   7.665 -1.1430 -1.0915 -0.7983
35186SOL    HW2 7566   2.184  10.910   7.554  0.5901 -0.1470 -0.4231
35187SOL     OW 7567   7.063   9.981   8.385 -0.2116  0.7551 -0.2612
35187SOL    HW1 7568   7.133  10.026   8.338 -2.1564  2.2024 -1.9061
35187SOL    HW2 7569   7.027  10.048   8.444 -0.2727  0.0341  0.5432
35188SOL     OW 7570  10.992   6.436   7.040  0.0388 -0.0373  0.1613
35188SOL    HW1 7571  11.001   6.521   7.083  0.7333 -0.1641  0.2927
35188SOL    HW2 7572  11.070   6.388   7.068  1.1026  0.2574 -2.0889
35189SOL     OW 7573   5.179   3.994   0.236  0.1973 -0.0301  0.1293
35189SOL    HW1 7574   5.150   4.022   0.323  1.5081  1.0170  0.2517
35189SOL    HW2 7575   5.169   3.899   0.238  0.2087 -0.0325  1.4354
35190SOL     OW 7576   0.450   4.401   0.111  0.3099 -0.2871  0.0865
35190SOL    HW1 7577   0.421   4.378   0.200  1.1699  0.7028  0.6469
35190SOL    HW2 7578   0.508   4.476   0.124  1.5263 -0.9672 -1.1888
35191SOL     OW 7579   5.314   0.393   0.539  0.3301 -1.0293 -0.5182
35191SOL    HW1 7580   5.303   0.364   0.448  1.0419  0.4239 -1.1079
35191SOL    HW2 7581   5.333   0.314   0.588 -0.5942 -1.9186 -1.5480
35192SOL     OW 7582   0.601   7.337   3.073 -0.5189 -0.6622  0.0530
35192SOL    HW1 7583   0.578   7.264   3.130 -0.1393 -1.8113 -1.1983
35192SOL    HW2 7584   0.661   7.299   3.009 -1.3857  0.4092 -1.4629
35193SOL     OW 7585   2.673  10.037   2.547 -0.0936  0.4745 -0.2270
35193SOL    HW1 7586   2.654  10.039   2.453  1.4907  1.4201 -0.5679
35193SOL    HW2 7587   2.589  10.017   2.588 -0.3134 -3.0093 -1.9656
35194SOL     OW 7588   5.935   1.575  10.919  0.4827 -0.0818  0.1103
35194SOL    HW1 7589   5.902   1.492  10.884 -0.1513 -0.4154  1.4297
35194SOL    HW2 7590   6.005   1.549  10.979 -0.5676  0.2034  1.5214
35195SOL     OW 7591   6.790   0.470   2.173 -0.3133 -0.5346 -0.2563
35195SOL    HW1 7592   6.700   0.488   2.144 -1.5631 -1.9272  2.3421
35195SOL    HW2 7593   6.799   0.519   2.254  1.3918 -0.2478 -0.5937
35196SOL     OW 7594   7.212   7.396   5.271 -0.0539 -1.0476  0.3775
35196SOL    HW1 7595   7.149   7.446   5.219 -0.2884 -1.3465  0.3727
35196SOL    HW2 7596   7.267   7.353   5.206  1.3129  0.6287  0.3602
35197SOL     OW 7597   0.392   4.727   6.886 -1.0292  0.1673 -0.7499
35197SOL    HW1 7598   0.381   4.813   6.846 -1.1432 -0.3698 -1.9158
35197SOL    HW2 7599   0.309   4.683   6.870 -0.8188 -0.3061 -0.5410
35198SOL     OW 7600   6.704   7.778   9.894  0.1523 -0.2413 -0.2314
35198SOL    HW1 7601   6.782   7.732   9.926 -0.0389 -0.9181 -0.7071
35198SOL    HW2 7602   6.641   7.709   9.877 -0.0180  0.1550 -1.3101
35199SOL     OW 7603   8.343   9.781   8.878  0.1109  0.1471 -0.0704
35199SOL    HW1 7604   8.331   9.838   8.801 -0.7792 -2.1934 -1.7834
35199SOL    HW2 7605   8.437   9.763   8.879  0.0662 -0.1724 -0.9052
35200SOL     OW 7606   4.888   0.105   8.060 -0.0715  0.0730  0.1959
35200SOL    HW1 7607   4.863   0.035   8.120 -0.1210  0.2402  0.3706
35200SOL    HW2 7608   4.821   0.172   8.072 -0.4954 -0.1978 -0.5758
35201SOL     OW 7609   0.391   1.271   9.622 -0.1303  0.0266  0.5357
35201SOL    HW1 7610   0.426   1.191   9.582 -0.5832  0.2596 -0.3428
35201SOL    HW2 7611   0.414   1.340   9.561 -1.1110  0.3482  0.5139
35202SOL     OW 7612   7.738   0.901   3.826 -0.2645  0.1729 -0.0091
35202SOL    HW1 7613   7.816   0.931   3.779  0.3241  1.0726  1.4495
35202SOL    HW2 7614   7.714   0.976   3.882 -1.0038 -0.7856  1.0014
35203SOL     OW 7615   2.070   8.940   0.691 -0.2904  0.0118 -0.4706
35203SOL    HW1 7616   2.150   8.888   0.678 -0.3214 -0.7294  1.8483
35203SOL    HW2 7617   2.023   8.932   0.608  0.7264 -1.9220 -0.9332
35204SOL     OW 7618   6.643   7.062   3.434 -0.0090 -1.0554  0.1310
35204SOL    HW1 7619   6.605   7.131   3.380  0.2232 -0.3247  0.8932
35204SOL    HW2 7620   6.731   7.048   3.397 -0.9451 -2.7611 -1.6453
35205SOL     OW 7621  10.749   2.038   4.480 -0.0504  0.3689 -0.4634
35205SOL    HW1 7622  10.784   2.079   4.559  1.0208  0.6770 -1.0742
35205SOL    HW2 7623  10.723   2.112   4.425 -2.5133  0.1494  0.3049
35206SOL     OW 7624   0.451   1.699  10.922  0.5531 -0.2306 -0.6821
35206SOL    HW1 7625   0.434   1.731  11.011 -0.5867  0.4375 -1.1190
35206SOL    HW2 7626   0.493   1.614  10.935  2.6664  0.9071  0.5069
35207SOL     OW 7627   2.409   1.242   6.137 -0.2420  0.1397 -0.3000
35207SOL    HW1 7628   2.468   1.172   6.165 -0.7334 -0.2198 -0.1440
35207SOL    HW2 7629   2.400   1.230   6.042 -0.5090 -0.1583 -0.2395
35208SOL     OW 7630   5.147   8.095   5.197 -0.3147  0.6145 -0.1337
35208SOL    HW1 7631   5.205   8.169   5.181 -0.8180  0.2631 -5.0770
35208SOL    HW2 7632   5.060   8.127   5.175 -0.8648 -0.8265 -0.1587
35209SOL     OW 7633   4.714   2.683   2.540  0.6514 -0.5437 -0.3880
35209SOL    HW1 7634   4.735   2.764   2.586  1.0885 -1.2278  0.6634
35209SOL    HW2 7635   4.773   2.618   2.579 -2.2271 -2.2191  1.5064
35210SOL     OW 7636   8.720   2.447   0.812 -0.3460  0.6862  0.1875
35210SOL    HW1 7637   8.716   2.440   0.717  0.0228 -0.4477  0.2508
35210SOL    HW2 7638   8.740   2.540   0.827  0.9854  0.6212 -0.8894
35211SOL     OW 7639   6.338   6.686   9.730 -0.1667 -0.3673 -0.0090
35211SOL    HW1 7640   6.413   6.667   9.786 -0.3377 -0.9123  0.0378
35211SOL    HW2 7641   6.342   6.781   9.716 -0.0348 -0.2534  0.7935
35212SOL     OW 7642   2.823   2.250   9.431  0.7093  0.0054  0.0243
35212SOL    HW1 7643   2.874   2.180   9.391 -0.1605 -0.4307 -0.3471
35212SOL    HW2 7644   2.834   2.324   9.372 -0.5385 -0.6238 -1.0526
35213SOL     OW 7645  10.921   6.673   7.177 -0.1468  0.6040  0.4040
35213SOL    HW1 7646  11.002   6.718   7.197  0.6132 -0.7461  0.4932
35213SOL    HW2 7647  10.868   6.680   7.256 -0.7444  2.7185 -0.1307
35214SOL     OW 7648   7.747   7.172   0.971  0.3022  0.3698  0.5242
35214SOL    HW1 7649   7.797   7.171   1.052  1.6357  3.2086 -0.1569
35214SOL    HW2 7650   7.798   7.226   0.911 -0.7860 -1.3409 -2.1500
35215SOL     OW 7651   9.644  10.412   6.690 -0.0566 -0.1581 -0.1028
35215SOL    HW1 7652   9.555  10.383   6.705  0.7307 -1.7516  1.9444
35215SOL    HW2 7653   9.692  10.387   6.770  1.9593  1.7348 -0.6055
35216SOL     OW 7654   2.287   1.409   5.103  0.0413  0.1672 -0.0667
35216SOL    HW1 7655   2.202   1.368   5.086  0.6205  0.1610 -3.5970
35216SOL    HW2 7656   2.322   1.360   5.178 -1.4828 -2.4016 -0.8939
35217SOL     OW 7657  10.353   5.600   6.468 -0.6606  0.0864 -0.0227
35217SOL    HW1 7658  10.424   5.633   6.412 -0.9063 -0.1534 -0.4805
35217SOL    HW2 7659  10.346   5.507   6.446 -1.4746  0.2231 -0.3667
35218SOL     OW 7660   9.943   4.503   3.279  0.3464  0.2331  0.0747
35218SOL    HW1 7661   9.889   4.534   3.207  0.4479 -0.7943 -0.4643
35218SOL    HW2 7662  10.032   4.500   3.242  0.4953  0.2860  0.4263
35219SOL     OW 7663  10.093   8.991   4.819 -0.8878  0.1819 -0.1994
35219SOL    HW1 7664  10.046   8.908   4.810 -0.1326 -0.3048  0.1882
35219SOL    HW2 7665  10.026   9.058   4.809 -1.7084 -0.4960  0.6092
35220SOL     OW 7666   3.016   4.815   9.264  0.1666  0.7008  0.0834
35220SOL    HW1 7667   2.943   4.758   9.285  1.0628 -1.0621 -1.2811
35220SOL    HW2 7668   3.009   4.828   9.169  0.9169  1.5099  0.1322
35221SOL     OW 7669   7.944   2.916   5.202  0.1186  0.1642 -0.3176
35221SOL    HW1 7670   7.965   2.903   5.109 -0.6086  1.0067 -0.6088
35221SOL    HW2 7671   7.959   3.009   5.218  4.6573 -0.6571  1.5986
35222SOL     OW 7672   0.702   7.605   7.606  0.3406 -0.0507 -0.0970
35222SOL    HW1 7673   0.623   7.659   7.605  1.3675  1.5885  1.4111
35222SOL    HW2 7674   0.694   7.550   7.529 -2.0664  0.3431 -0.2172
35223SOL     OW 7675   5.842   5.505   2.775 -0.2841 -0.2943  0.5693
35223SOL    HW1 7676   5.890   5.499   2.857 -0.5093  3.3908  1.1352
35223SOL    HW2 7677   5.909   5.518   2.707 -0.2617  0.6859  0.7697
35224SOL     OW 7678   8.388   2.794   1.719 -0.2377  0.5799  0.0464
35224SOL    HW1 7679   8.371   2.888   1.728 -1.1292  0.3872  0.5343
35224SOL    HW2 7680   8.419   2.768   1.806 -0.3510  0.3561  0.0192
35225SOL     OW 7681   1.108   4.713   0.395  0.2557  0.5748  0.6321
35225SOL    HW1 7682   1.056   4.732   0.473 -2.1669 -0.7608 -0.5576
35225SOL    HW2 7683   1.046   4.716   0.323  2.3815  1.5722 -1.2929
35226SOL     OW 7684   1.049   0.923   8.457  0.1656  0.4387 -0.5251
35226SOL    HW1 7685   1.023   0.928   8.365  0.4298  0.3684 -0.6055
35226SOL    HW2 7686   1.029   0.833   8.483 -0.3934  0.6086 -0.3657
35227SOL     OW 7687  10.421   3.742   7.052  0.3703 -0.6241  0.3055
35227SOL    HW1 7688  10.515   3.747   7.071  0.9902 -0.0806 -2.3811
35227SOL    HW2 7689  10.410   3.794   6.972 -1.8643 -2.3372 -0.6114
35228SOL     OW 7690   9.219   0.507   9.659  0.3348 -0.5184  0.0815
35228SOL    HW1 7691   9.268   0.584   9.689  0.7253 -0.3154 -1.0046
35228SOL    HW2 7692   9.243   0.438   9.720 -2.3248  0.8477  2.9677
35229SOL     OW 7693   4.795   4.624   8.155 -0.2200  0.2248 -0.1648
35229SOL    HW1 7694   4.765   4.710   8.186  0.5656  0.6315 -0.5220
35229SOL    HW2 7695   4.716   4.569   8.159 -0.8457  1.0794 -0.3722
35230SOL     OW 7696   9.282   9.782   6.565  0.5951  0.4253  0.2175
35230SOL    HW1 7697   9.259   9.728   6.489  0.4708  0.2813  0.3565
35230SOL    HW2 7698   9.376   9.769   6.576  1.0064  1.9486 -1.0942
35231SOL     OW 7699   2.940   1.356   9.660  0.2377  0.1509  0.1240
35231SOL    HW1 7700   2.978   1.346   9.573 -0.0240  0.3108 -0.0095
35231SOL    HW2 7701   2.911   1.268   9.684 -2.9673  0.6291 -1.4602
35232SOL     OW 7702   2.387   1.693  10.624  0.2599  0.7103 -0.1906
35232SOL    HW1 7703   2.439   1.765  10.589 -0.3470  0.9130 -0.6867
35232SOL    HW2 7704   2.411   1.690  10.717  0.8756  1.0359 -0.3286
35233SOL     OW 7705   2.021   4.340   5.818  0.0018 -0.1636  0.2593
35233SOL    HW1 7706   1.998   4.394   5.894  0.1602 -0.2620  0.3766
35233SOL    HW2 7707   1.955   4.363   5.752  0.2177  0.3676  0.2207
35234SOL     OW 7708   3.920   1.506   2.762 -0.6542  0.0611  0.3055
35234SOL    HW1 7709   3.941   1.555   2.684 -0.0251  0.4315  0.6982
35234SOL    HW2 7710   3.992   1.525   2.823 -0.6095 -1.0053  0.6125
35235SOL     OW 7711   0.353   9.910   9.633 -0.2676  0.2915 -0.6687
35235SOL    HW1 7712   0.275   9.956   9.602 -0.2684 -0.6412 -2.1220
35235SOL    HW2 7713   0.389   9.867   9.555 -0.2467 -2.1625  0.6033
35236SOL     OW 7714   4.936   3.338   5.145 -0.0902 -0.2834 -0.8509
35236SOL    HW1 7715   4.897   3.260   5.106  0.8580  0.5832 -3.7756
35236SOL    HW2 7716   5.010   3.304   5.196 -0.1770 -1.3746 -1.4166
35237SOL     OW 7717   8.262   3.268   7.146 -0.1699  0.3539 -0.9572
35237SOL    HW1 7718   8.356   3.278   7.136 -0.0989  1.0735  0.3221
35237SOL    HW2 7719   8.247   3.173   7.145  0.7424  0.1852  0.3711
35238SOL     OW 7720   8.761   5.556   2.926  0.1188  0.1075  0.1887
35238SOL    HW1 7721   8.752   5.614   2.850  1.1337 -0.8968 -0.7259
35238SOL    HW2 7722   8.690   5.493   2.916 -1.0856  1.2279  1.2696
35239SOL     OW 7723   8.808   6.588   1.348  0.4765  0.2108  0.0654
35239SOL    HW1 7724   8.891   6.634   1.359  0.1925  0.3794  1.8431
35239SOL    HW2 7725   8.747   6.635   1.405  0.2112 -2.3862  2.1108
35240SOL     OW 7726   1.102   4.541   3.708  0.2853 -0.8129  0.0484
35240SOL    HW1 7727   1.109   4.456   3.664 -1.4920 -0.3854 -1.1846
35240SOL    HW2 7728   1.105   4.520   3.801  4.5262 -1.7245 -0.0748
35241SOL     OW 7729   0.637   7.745   8.207  0.0480 -0.0107 -0.3233
35241SOL    HW1 7730   0.553   7.700   8.194 -0.7592  1.2133  0.4735
35241SOL    HW2 7731   0.697   7.700   8.148 -1.6311  0.3847 -2.4666
35242SOL     OW 7732   8.159   9.209   4.785 -0.2265  0.4739  0.0534
35242SOL    HW1 7733   8.238   9.198   4.837  0.3103 -1.1112 -1.0219
35242SOL    HW2 7734   8.087   9.199   4.847  0.3973  1.1505  0.9059
35243SOL     OW 7735   2.701   5.365   4.420  0.1529  1.2462  0.2047
35243SOL    HW1 7736   2.738   5.276   4.417 -0.2467  1.0102  1.4495
35243SOL    HW2 7737   2.688   5.381   4.514  0.2992  2.6610 -0.0017
35244SOL     OW 7738   1.981   8.391   0.369  0.4649  0.4141  0.2960
35244SOL    HW1 7739   1.907   8.342   0.333  0.4659 -0.9344  2.0231
35244SOL    HW2 7740   1.943   8.444   0.439  0.8935  0.8356  0.2121
35245SOL     OW 7741   8.271   2.923   0.118 -0.1084 -1.0096  0.4023
35245SOL    HW1 7742   8.241   2.971   0.040 -1.2522 -0.7959  0.9535
35245SOL    HW2 7743   8.329   2.855   0.083  1.0988  0.3855 -0.4579
35246SOL     OW 7744   3.783   5.484   0.050  0.7166 -0.3643 -0.0089
35246SOL    HW1 7745   3.835   5.459   0.127 -0.6314 -1.4033  0.6105
35246SOL    HW2 7746   3.721   5.549   0.083  1.2034  0.4137 -0.6009
35247SOL     OW 7747   1.077   0.584   7.143 -0.1731 -0.3344 -0.3331
35247SOL    HW1 7748   1.144   0.610   7.205  0.5106 -1.1572 -0.7042
35247SOL    HW2 7749   0.995   0.615   7.182  0.5380  2.2810 -0.7399
35248SOL     OW 7750   2.701   6.593   7.878  0.0187 -0.1419 -0.2850
35248SOL    HW1 7751   2.680   6.669   7.931  2.5765 -0.0294  0.7014
35248SOL    HW2 7752   2.735   6.629   7.796 -0.2205 -0.2488 -0.4315
35249SOL     OW 7753  10.287   5.332   1.180 -0.0889 -0.2932  0.3265
35249SOL    HW1 7754  10.224   5.269   1.214  0.3058 -0.1108  1.4517
35249SOL    HW2 7755  10.261   5.346   1.089  0.8759 -3.4067 -0.5319
35250SOL     OW 7756   6.328   9.331  10.092  0.2511 -0.0576 -0.7525
35250SOL    HW1 7757   6.327   9.252  10.038 -2.1962  0.5716 -1.7473
35250SOL    HW2 7758   6.301   9.401  10.033  1.1220  1.3331  0.4330
35251SOL     OW 7759   5.149  10.537   4.748 -0.1220 -0.4931 -0.3837
35251SOL    HW1 7760   5.082  10.481   4.709 -0.9605 -2.0772  3.0267
35251SOL    HW2 7761   5.218  10.476   4.776  0.4671  0.5573  0.5282
35252SOL     OW 7762  10.436  10.943   7.916  0.1584 -0.0057  0.1945
35252SOL    HW1 7763  10.461  10.869   7.971  0.5994 -0.0634 -0.0846
35252SOL    HW2 7764  10.390  11.002   7.976 -0.2508 -0.5273  0.4059
35253SOL     OW 7765   7.508   1.368  10.405 -0.0211  0.2354 -0.4421
35253SOL    HW1 7766   7.478   1.319  10.328  4.0033 -2.9051 -0.3961
35253SOL    HW2 7767   7.578   1.424  10.371  1.1572 -0.4856  0.7033
35254SOL     OW 7768   9.038   7.004   9.270  0.1205  0.7188 -0.5964
35254SOL    HW1 7769   8.993   7.032   9.348  1.4792 -0.6914  0.7822
35254SOL    HW2 7770   9.063   7.085   9.225 -0.8679  1.5406  0.2957
35255SOL     OW 7771   2.544   2.231   7.938  0.0178  0.3698 -0.4539
35255SOL    HW1 7772   2.593   2.166   7.988 -1.3384 -0.6998 -0.4629
35255SOL    HW2 7773   2.458   2.234   7.980 -0.8082  0.2186 -2.0560
35256SOL     OW 7774   9.915   1.266   7.115 -0.0310  0.2085 -0.3053
35256SOL    HW1 7775   9.999   1.258   7.069  0.3785  1.2271  0.2220
35256SOL    HW2 7776   9.850   1.273   7.045  0.3763 -0.0472 -0.7215
35257SOL     OW 7777   7.142   9.601   0.410 -0.7415  0.4517 -0.1446
35257SOL    HW1 7778   7.076   9.562   0.352  0.1058  0.7260 -1.3248
35257SOL    HW2 7779   7.166   9.530   0.469 -0.6832 -0.2418 -0.9750
35258SOL     OW 7780   1.422   5.465   0.015 -0.0097 -0.1940  0.2180
35258SOL    HW1 7781   1.368   5.390   0.038  0.5854 -0.0690  2.1692
35258SOL    HW2 7782   1.508   5.428  -0.007 -0.3085 -0.2309 -0.9636
35259SOL     OW 7783   0.944   2.840   9.244  0.4721 -0.0984 -0.2615
35259SOL    HW1 7784   0.953   2.911   9.308 -1.2441  0.5597 -0.7026
35259SOL    HW2 7785   0.888   2.776   9.288 -0.3370  0.1515 -0.9074
35260SOL     OW 7786   6.767   6.988   3.033 -0.2008  0.0462 -0.2050
35260SOL    HW1 7787   6.724   6.986   2.948 -0.1891 -0.0833 -0.2073
35260SOL    HW2 7788   6.843   7.046   3.021  0.1399 -0.4477 -0.4380
35261SOL     OW 7789   7.500   5.831   1.849  0.5276  0.4610  0.0155
35261SOL    HW1 7790   7.463   5.917   1.867  0.7567  0.8682 -1.3323
35261SOL    HW2 7791   7.566   5.847   1.782 -1.1015 -1.0392 -2.0939
35262SOL     OW 7792   0.723  10.231   9.927  0.2102  0.0015  0.0760
35262SOL    HW1 7793   0.790  10.258   9.865  0.5955 -1.3650 -0.1205
35262SOL    HW2 7794   0.724  10.299   9.995  1.6567  0.1035 -0.0347
35263SOL     OW 7795   9.023   5.706   4.914 -0.2004 -0.0637  0.1633
35263SOL    HW1 7796   9.034   5.801   4.916  0.2051 -0.1146  0.8448
35263SOL    HW2 7797   9.081   5.676   4.845  0.6746  0.0750  0.8200
35264SOL     OW 7798   6.092   6.934   6.703 -0.5459  0.0827 -0.5387
35264SOL    HW1 7799   6.129   6.963   6.787 -0.3974 -1.4491 -0.0481
35264SOL    HW2 7800   6.001   6.966   6.706 -0.7407 -0.4995  0.5113
35265SOL     OW 7801   2.294   9.564   7.111 -0.4026 -0.3101 -0.0915
35265SOL    HW1 7802   2.351   9.528   7.179  0.2421  1.2938  0.2811
35265SOL    HW2 7803   2.213   9.586   7.156  0.1620  1.1103  0.2964
35266SOL     OW 7804   2.181   7.966   8.232  0.1386 -0.4442  0.5602
35266SOL    HW1 7805   2.156   8.048   8.275 -1.7180 -0.5075 -0.3001
35266SOL    HW2 7806   2.265   7.984   8.191  0.6909  0.4152  1.9933
35267SOL     OW 7807   8.408   4.015   7.565  0.1459 -0.3355  0.0946
35267SOL    HW1 7808   8.489   3.978   7.529  0.0485 -0.6236  0.1741
35267SOL    HW2 7809   8.411   3.993   7.658 -0.2013 -0.6595  0.0275
35268SOL     OW 7810   7.739   9.206   2.846 -0.3094  0.0537 -0.0004
35268SOL    HW1 7811   7.701   9.265   2.910 -2.7827 -0.6283 -0.7127
35268SOL    HW2 7812   7.713   9.242   2.761 -1.1225 -1.5058 -0.4638
35269SOL     OW 7813   0.327   3.745   8.920  0.4255  0.0089 -0.0037
35269SOL    HW1 7814   0.405   3.699   8.951  0.0840  0.4788  1.6323
35269SOL    HW2 7815   0.360   3.829   8.887  0.9467 -1.0050 -2.2302
35270SOL     OW 7816   9.490   0.712   0.849  0.0642 -0.3406  0.2058
35270SOL    HW1 7817   9.561   0.741   0.792  0.7981 -1.3850  0.5530
35270SOL    HW2 7818   9.410   0.727   0.798  0.3211  2.4893  0.4652
35271SOL     OW 7819   3.514   4.804   2.247  0.4927 -0.0456 -0.0627
35271SOL    HW1 7820   3.509   4.750   2.167 -1.1539 -0.2177  0.1096
35271SOL    HW2 7821   3.571   4.755   2.306  2.2806  0.3968 -1.3318
35272SOL     OW 7822   8.601   7.768   9.903  0.2296  0.0215  0.2687
35272SOL    HW1 7823   8.690   7.763   9.938  0.2786 -0.3825  0.0877
35272SOL    HW2 7824   8.544   7.756   9.979  0.3340 -1.5234  0.1313
35273SOL     OW 7825   6.648   1.694   7.658 -0.0973  0.9158 -0.0028
35273SOL    HW1 7826   6.670   1.601   7.666 -0.1459  0.8858 -0.1935
35273SOL    HW2 7827   6.718   1.740   7.702 -0.4306  0.7561  0.7007
35274SOL     OW 7828   1.228   5.004   2.575  0.0293 -0.6845 -0.0071
35274SOL    HW1 7829   1.289   5.078   2.575 -0.6709 -0.0951 -0.7281
35274SOL    HW2 7830   1.261   4.947   2.645 -0.7443  1.4161  2.2568
35275SOL     OW 7831  10.946  10.949   5.677  0.2946  0.2730  0.3259
35275SOL    HW1 7832  10.949  11.044   5.676 -0.6266  0.3095  0.2249
35275SOL    HW2 7833  10.914  10.927   5.765 -1.7871  0.1747 -0.3822
35276SOL     OW 7834   9.579  10.077   8.438  0.0369 -0.1941  0.3398
35276SOL    HW1 7835   9.601  10.114   8.524  0.6828  0.1049  0.0498
35276SOL    HW2 7836   9.583  10.152   8.378 -1.9246 -0.0748  0.2765
35277SOL     OW 7837   8.603   1.935   3.739  0.0821 -0.0058 -0.5477
35277SOL    HW1 7838   8.599   1.958   3.832  0.5867 -3.4488  0.4892
35277SOL    HW2 7839   8.686   1.889   3.729 -0.2693 -0.3276 -2.5440
35278SOL     OW 7840   6.487   2.974  10.545  0.5330 -0.0541 -0.5392
35278SOL    HW1 7841   6.444   2.899  10.504 -0.7154  0.1046  0.4198
35278SOL    HW2 7842   6.578   2.947  10.555 -0.0372 -1.7645  0.4884
35279SOL     OW 7843  10.124  10.265   3.300 -0.2738 -0.0255  0.8455
35279SOL    HW1 7844  10.075  10.326   3.245 -1.7628  0.1840  2.3175
35279SOL    HW2 7845  10.169  10.321   3.363  2.0107 -0.2119 -0.5144
35280SOL     OW 7846   7.462   3.832   8.603  0.4234 -0.0286 -0.0488
35280SOL    HW1 7847   7.464   3.916   8.556  1.8319  0.0154  0.0394
35280SOL    HW2 7848   7.546   3.791   8.581  0.7636 -0.3701  1.7850
35281SOL     OW 7849  10.432   3.428   8.280  0.4278 -0.9963  0.2717
35281SOL    HW1 7850  10.390   3.355   8.235  0.1311 -0.6485 -0.0278
35281SOL    HW2 7851  10.481   3.388   8.352  0.6103 -1.5260 -0.1422
35282SOL     OW 7852  10.004   1.488  10.894 -0.0939  0.0164  0.0562
35282SOL    HW1 7853   9.955   1.490  10.976 -0.1907 -0.2306  0.0063
35282SOL    HW2 7854   9.971   1.411  10.849 -0.2371  0.3054 -0.3367
35283SOL     OW 7855   3.215   0.907   5.350  0.0723  0.2150  0.3812
35283SOL    HW1 7856   3.201   0.928   5.443 -0.5226 -0.0601  0.3547
35283SOL    HW2 7857   3.213   0.812   5.347  0.5679  0.2076  0.1532
35284SOL     OW 7858   8.763   8.857   9.664  0.2017  0.0486  0.3904
35284SOL    HW1 7859   8.859   8.855   9.658  0.1928 -2.0433 -0.1139
35284SOL    HW2 7860   8.734   8.826   9.578 -0.9918  1.8307  0.1063
35285SOL     OW 7861   4.244   7.229  10.132 -0.1745  0.0600 -0.2302
35285SOL    HW1 7862   4.191   7.273  10.198  0.8917 -1.9391  2.1217
35285SOL    HW2 7863   4.333   7.260  10.147  0.1372 -0.6617 -0.4990
35286SOL     OW 7864   6.321   1.860   2.504 -0.0030  0.3117  0.0317
35286SOL    HW1 7865   6.384   1.932   2.495 -0.0131  0.3978  0.6177
35286SOL    HW2 7866   6.343   1.820   2.588 -1.2951  0.9020  0.6838
35287SOL     OW 7867  10.593   0.713   1.806  0.5345  0.3562  0.2187
35287SOL    HW1 7868  10.590   0.692   1.899  2.8409  1.9763  0.7598
35287SOL    HW2 7869  10.586   0.809   1.802  0.8910  0.3545 -1.2383
35288SOL     OW 7870   0.460   5.655   1.264  0.0868 -0.1219  0.1071
35288SOL    HW1 7871   0.397   5.597   1.221 -1.9445  0.6760  1.8353
35288SOL    HW2 7872   0.454   5.737   1.215  0.5066 -0.3330 -0.3062
35289SOL     OW 7873   4.108   1.833   3.887  0.0398 -0.3456  0.4569
35289SOL    HW1 7874   4.138   1.747   3.858 -1.0800  0.3189 -3.3400
35289SOL    HW2 7875   4.078   1.820   3.977 -0.4266 -4.0002 -0.0814
35290SOL     OW 7876   4.253   5.458   3.499 -0.4857  0.0628 -0.5246
35290SOL    HW1 7877   4.197   5.492   3.568 -0.4176  1.2718 -1.0290
35290SOL    HW2 7878   4.201   5.466   3.419  0.3282  1.1364 -0.9903
35291SOL     OW 7879   0.418   9.418   3.680  0.6832 -0.4532 -0.2396
35291SOL    HW1 7880   0.324   9.401   3.692  0.2947 -0.0979 -2.4208
35291SOL    HW2 7881   0.447   9.350   3.620  0.9772  1.5387 -2.4722
35292SOL     OW 7882   8.110   4.416  10.988 -0.7179 -0.0680 -0.5765
35292SOL    HW1 7883   8.198   4.414  10.950 -0.1676  0.1972  0.6396
35292SOL    HW2 7884   8.111   4.491  11.048 -1.6360 -0.3321 -0.2043
35293SOL     OW 7885   2.714   0.798   3.296  0.1206  0.7373 -0.5383
35293SOL    HW1 7886   2.640   0.736   3.293  0.8626 -0.1383 -2.1303
35293SOL    HW2 7887   2.792   0.743   3.288  0.9245  1.7285  0.2072
35294SOL     OW 7888   4.122   9.079   8.714 -0.0349  0.3194 -0.9926
35294SOL    HW1 7889   4.099   9.009   8.653  1.7909  1.5277 -3.2200
35294SOL    HW2 7890   4.206   9.052   8.751 -0.1394  0.5556 -0.5740
35295SOL     OW 7891   5.516   8.799   8.998 -0.6409 -0.0298  0.0284
35295SOL    HW1 7892   5.503   8.727   9.060 -0.7795 -0.0834 -0.0642
35295SOL    HW2 7893   5.475   8.874   9.041  1.8673  0.6723  1.4150
35296SOL     OW 7894  10.759   7.391   6.314 -0.0832 -0.2136 -1.1733
35296SOL    HW1 7895  10.814   7.356   6.244  0.6298  3.3108 -2.6190
35296SOL    HW2 7896  10.680   7.420   6.270  0.0855  1.4567 -0.4622
35297SOL     OW 7897   6.303   4.309   3.726  0.0605  0.0422  0.1463
35297SOL    HW1 7898   6.297   4.227   3.677  1.3929 -1.0483  1.6770
35297SOL    HW2 7899   6.398   4.323   3.736 -0.1415  0.1117  2.4804
35298SOL     OW 7900   3.036   1.301  10.539  0.3760  0.2060 -0.3884
35298SOL    HW1 7901   2.999   1.388  10.552  0.0914  0.1207 -0.6266
35298SOL    HW2 7902   3.034   1.287  10.444 -0.1825 -0.3185 -0.3062
35299SOL     OW 7903   7.832  10.160   9.085 -0.0974  0.1461  0.3230
35299SOL    HW1 7904   7.750  10.110   9.088 -0.0245  0.0469  0.6999
35299SOL    HW2 7905   7.900  10.093   9.089  0.0467  0.0629 -1.9797
35300SOL     OW 7906   6.906   2.686   5.277 -0.2683 -0.2885  0.0358
35300SOL    HW1 7907   6.968   2.662   5.209 -1.3232 -3.0487 -0.0754
35300SOL    HW2 7908   6.906   2.611   5.337 -0.7207  1.2824  2.1112
35301SOL     OW 7909   3.431  10.594   6.210 -0.1206  0.0132 -0.2039
35301SOL    HW1 7910   3.510  10.610   6.261 -0.0009 -1.1009 -0.0021
35301SOL    HW2 7911   3.462  10.591   6.119  0.6063 -3.0632  0.0319
35302SOL     OW 7912   7.548   1.753   2.694 -0.0126 -0.5243  0.2025
35302SOL    HW1 7913   7.587   1.693   2.758  0.8372  0.5117  0.7090
35302SOL    HW2 7914   7.622   1.807   2.666 -0.3991 -0.8873 -1.5919
35303SOL     OW 7915   2.219   0.005   2.912 -0.6365 -0.4468  0.0794
35303SOL    HW1 7916   2.157   0.057   2.964  0.8338  0.3143  1.1200
35303SOL    HW2 7917   2.167  -0.024   2.836 -1.8000  1.6760 -0.0243
35304SOL     OW 7918   2.410   9.951   6.018  0.0124  0.1393 -0.5507
35304SOL    HW1 7919   2.430   9.906   6.100 -2.6516  0.1872  0.2267
35304SOL    HW2 7920   2.361   9.886   5.967  0.8080  0.4253 -1.7115
35305SOL     OW 7921   4.634   6.999   4.042  0.1315 -0.2877 -0.1865
35305SOL    HW1 7922   4.727   7.018   4.049 -0.0175  0.0488  1.1128
35305SOL    HW2 7923   4.625   6.953   3.959  1.8160 -2.5713  0.8100
35306SOL     OW 7924   6.670   1.713   3.598  0.2102 -0.3607 -0.3406
35306SOL    HW1 7925   6.749   1.757   3.629 -0.5513  0.6270  0.2487
35306SOL    HW2 7926   6.609   1.719   3.671 -0.6903 -0.3854 -1.0719
35307SOL     OW 7927   3.330   4.238   0.062 -0.4677  0.1758  0.3948
35307SOL    HW1 7928   3.413   4.206   0.097  1.3635  0.8580 -2.9143
35307SOL    HW2 7929   3.278   4.158   0.047  1.1545 -0.6468 -1.0679
35308SOL     OW 7930  10.342   8.158   0.610 -0.6040 -0.2846  0.1249
35308SOL    HW1 7931  10.380   8.082   0.566  0.6195  0.7123 -0.6087
35308SOL    HW2 7932  10.293   8.204   0.543  0.8454  0.9657 -0.1300
35309SOL     OW 7933   2.594   4.199  10.858 -0.2376 -0.0261 -0.4727
35309SOL    HW1 7934   2.516   4.191  10.913 -0.1212 -0.5042 -0.3715
35309SOL    HW2 7935   2.592   4.289  10.826  0.1163  0.5077  0.9368
35310SOL     OW 7936   9.126   7.465   0.307 -0.1483 -0.3193 -0.1436
35310SOL    HW1 7937   9.161   7.477   0.395  1.1180 -1.7161 -0.4272
35310SOL    HW2 7938   9.196   7.422   0.258 -2.1626 -3.1794 -0.7709
35311SOL     OW 7939   9.476   7.002   0.468 -0.8821  0.0450  0.1064
35311SOL    HW1 7940   9.567   6.991   0.494 -1.4150 -1.2290  1.5718
35311SOL    HW2 7941   9.456   7.093   0.489  0.0212  0.3346 -0.2178
35312SOL     OW 7942   4.557   7.481   8.021 -0.0959  0.0550 -0.3525
35312SOL    HW1 7943   4.476   7.531   8.005  1.1856  3.3091  2.2410
35312SOL    HW2 7944   4.533   7.419   8.091 -0.2545  1.5093  0.9332
35313SOL     OW 7945   1.068   6.079  10.402 -0.5895  0.3955 -0.2365
35313SOL    HW1 7946   1.159   6.056  10.421  0.5471  2.1500 -2.9302
35313SOL    HW2 7947   1.054   6.051  10.312 -2.2153  1.4778 -0.3699
35314SOL     OW 7948   2.306   0.841   9.824 -0.5698  0.0883 -0.2203
35314SOL    HW1 7949   2.298   0.906   9.755 -1.9512 -2.0436 -2.2474
35314SOL    HW2 7950   2.387   0.794   9.803 -0.8475 -0.3867 -0.2435
35315SOL     OW 7951   1.578   9.943   5.450 -0.1000 -0.5391  0.1607
35315SOL    HW1 7952   1.573  10.021   5.506  0.4354 -0.1850 -0.2719
35315SOL    HW2 7953   1.518   9.881   5.491  0.3763 -0.3432  1.2043
35316SOL     OW 7954   7.758   6.581   6.911 -0.6134  0.0008  0.8406
35316SOL    HW1 7955   7.707   6.623   6.979  1.3018  0.4236  2.1038
35316SOL    HW2 7956   7.848   6.609   6.927  0.0309 -0.5631 -1.3700
35317SOL     OW 7957   3.606   9.069   3.688  0.2901 -0.1166  0.2903
35317SOL    HW1 7958   3.629   9.063   3.595  2.2267 -0.8850  0.7686
35317SOL    HW2 7959   3.530   9.012   3.697  1.9342 -2.5686 -0.3118
35318SOL     OW 7960   3.992   8.213   0.318  0.1856  0.8548  0.3428
35318SOL    HW1 7961   4.075   8.167   0.308  0.6168  1.9411 -1.7536
35318SOL    HW2 7962   4.000   8.259   0.402  2.3538  2.0493 -0.4294
35319SOL     OW 7963   4.385  10.492   5.238  0.1341  0.2768 -0.0727
35319SOL    HW1 7964   4.431  10.546   5.174  0.9844  1.0628  1.1452
35319SOL    HW2 7965   4.446  10.420   5.256  0.3036  0.5626  0.5206
35320SOL     OW 7966   6.573   4.605   9.145  0.1457 -0.1778 -0.7456
35320SOL    HW1 7967   6.641   4.665   9.177  0.8940 -0.2372 -2.1583
35320SOL    HW2 7968   6.509   4.602   9.216  1.8626 -0.5463  0.8839
35321SOL     OW 7969   8.107   0.766   6.292 -0.0510  0.2249  0.6522
35321SOL    HW1 7970   8.136   0.843   6.244 -0.4527  0.4077  0.6947
35321SOL    HW2 7971   8.059   0.801   6.367 -2.4912 -0.0232 -0.6882
35322SOL     OW 7972   3.073   0.858   6.879 -0.0911  0.3667  0.0554
35322SOL    HW1 7973   2.984   0.892   6.887 -0.5750 -1.1764  1.9210
35322SOL    HW2 7974   3.062   0.763   6.870  1.3408 -0.3281  3.8088
35323SOL     OW 7975   2.874  10.001   5.934  0.2301 -0.2951 -0.3821
35323SOL    HW1 7976   2.818   9.992   5.857  0.4814 -0.7961 -0.5154
35323SOL    HW2 7977   2.815   9.988   6.008 -0.0556  0.4232 -0.4810
35324SOL     OW 7978   5.536   9.626   4.835 -0.0944  0.0988 -0.4939
35324SOL    HW1 7979   5.453   9.642   4.880 -0.1137  0.8385 -0.7764
35324SOL    HW2 7980   5.510   9.594   4.749 -0.0541 -1.7707  0.1499
35325SOL     OW 7981   0.820   1.156   0.381 -0.1733 -0.3694  0.2941
35325SOL    HW1 7982   0.757   1.175   0.311 -0.1500  1.6491  0.7631
35325SOL    HW2 7983   0.810   1.062   0.397 -2.1458 -0.3502 -0.5370
35326SOL     OW 7984   2.048   8.716   9.148  0.5634 -0.2397  0.3750
35326SOL    HW1 7985   2.007   8.778   9.208  0.5862  0.0118  0.1284
35326SOL    HW2 7986   2.110   8.667   9.203  0.3716 -0.2098  0.6181
35327SOL     OW 7987  10.807  10.360   7.364 -0.0524 -0.2948 -0.0796
35327SOL    HW1 7988  10.768  10.328   7.445 -1.0336  0.0328 -0.4027
35327SOL    HW2 7989  10.898  10.381   7.387 -0.6751  1.0844  1.3055
35328SOL     OW 7990   4.408   4.017   2.508  0.1702 -0.3029 -0.4710
35328SOL    HW1 7991   4.437   3.949   2.568  0.3254  0.1887  0.0105
35328SOL    HW2 7992   4.421   3.978   2.421  2.2823 -0.1001 -0.2937
35329SOL     OW 7993   9.757   0.610   3.390  0.6428  0.4747  0.1301
35329SOL    HW1 7994   9.822   0.594   3.459  1.7436 -0.0250 -0.9912
35329SOL    HW2 7995   9.745   0.525   3.348 -2.8444 -0.1615  1.9907
35330SOL     OW 7996   2.797   0.702   4.092  0.4147 -0.0296 -0.4376
35330SOL    HW1 7997   2.718   0.741   4.130  1.4841  2.4607 -0.5998
35330SOL    HW2 7998   2.765   0.629   4.040 -1.9965  1.8570 -1.8239
35331SOL     OW 7999   7.266   7.541  10.333 -0.0089  0.1188  0.4310
35331SOL    HW1 8000   7.240   7.557  10.424  0.0500 -0.6139  0.5808
35331SOL    HW2 8001   7.185   7.552  10.283  0.2208  1.8494  0.3985
35332SOL     OW 8002  10.423   6.600   2.263 -0.2683 -0.7235  0.1389
35332SOL    HW1 8003  10.477   6.533   2.305  0.9455  0.8930  1.2677
35332SOL    HW2 8004  10.392   6.656   2.335 -2.3817 -0.7935 -0.6223
35333SOL     OW 8005   6.831   6.246   7.990 -0.9578  0.4538  0.6110
35333SOL    HW1 8006   6.763   6.209   8.047  0.9498 -2.1966  1.3533
35333SOL    HW2 8007   6.895   6.283   8.051 -0.7078  1.0248  0.0035
35334SOL     OW 8008  10.227   8.015   7.771  0.7569 -0.4460 -0.1347
35334SOL    HW1 8009  10.320   7.996   7.768  0.8866  0.3337 -2.2976
35334SOL    HW2 8010  10.218   8.078   7.843  2.0784  0.3397 -0.6266
35335SOL     OW 8011  10.442  10.851   5.442  0.4692 -0.1505  0.1596
35335SOL    HW1 8012  10.409  10.941   5.446  2.7915  0.7770 -0.1772
35335SOL    HW2 8013  10.363  10.796   5.444 -0.9953  1.8738  0.4498
35336SOL     OW 8014   0.810   8.397   6.717 -0.2117  0.5245  0.0350
35336SOL    HW1 8015   0.752   8.370   6.789 -1.4234  0.8752 -0.7840
35336SOL    HW2 8016   0.794   8.332   6.648  0.2828  0.7003 -0.2483
35337SOL     OW 8017   8.161   8.626   0.819  0.3473 -0.1058 -0.3032
35337SOL    HW1 8018   8.192   8.554   0.764 -0.6264 -0.0784 -0.9243
35337SOL    HW2 8019   8.111   8.582   0.889  0.3936 -0.0749 -0.2511
35338SOL     OW 8020   5.251   9.684   6.446  0.3709 -0.0807  0.0836
35338SOL    HW1 8021   5.224   9.593   6.434 -0.4089  0.2906 -1.2130
35338SOL    HW2 8022   5.293   9.708   6.363 -0.0832  0.9349  0.1203
35339SOL     OW 8023   8.159   4.468   8.418 -0.0181  0.4267 -0.7026
35339SOL    HW1 8024   8.155   4.377   8.448 -0.5351 -0.1913 -2.5034
35339SOL    HW2 8025   8.069   4.488   8.393  0.3055  1.0429 -1.3902
35340SOL     OW 8026   6.689   6.142   7.672 -0.0752  0.1959 -0.2837
35340SOL    HW1 8027   6.732   6.090   7.604  0.2039  0.1119 -0.0468
35340SOL    HW2 8028   6.701   6.232   7.644 -0.9577  0.1248 -0.9299
35341SOL     OW 8029   1.577   2.590   0.128 -0.1396  0.3490  0.3869
35341SOL    HW1 8030   1.626   2.673   0.131 -0.8463  0.8476 -1.0321
35341SOL    HW2 8031   1.636   2.529   0.085  1.7725 -0.9713  4.3542
35342SOL     OW 8032   6.791   1.016  10.134  0.1530 -0.4023  0.2554
35342SOL    HW1 8033   6.859   0.953  10.110 -0.2795  0.0208 -2.4669
35342SOL    HW2 8034   6.743   1.031  10.052 -0.0345  3.0842  0.8545
35343SOL     OW 8035   0.086   9.913   2.309 -0.3996 -0.5730  0.3790
35343SOL    HW1 8036   0.103   9.935   2.400  0.3077 -1.2920  0.4341
35343SOL    HW2 8037   0.173   9.919   2.267 -0.5355 -1.2884 -0.0143
35344SOL     OW 8038   5.525   8.801   9.839 -0.5643 -0.1004  0.6540
35344SOL    HW1 8039   5.499   8.890   9.814  1.1948  0.6572  1.3965
35344SOL    HW2 8040   5.617   8.795   9.816 -0.4062 -1.3915  1.5258
35345SOL     OW 8041   4.021   3.862   4.924  0.1742  0.7729  0.3412
35345SOL    HW1 8042   3.993   3.916   4.997  1.1210  0.4893  0.9383
35345SOL    HW2 8043   3.953   3.795   4.915  1.4795 -1.0731  2.9886
35346SOL     OW 8044   6.632   7.990   0.777 -0.0119 -0.5263 -0.1419
35346SOL    HW1 8045   6.616   8.044   0.855  0.0723 -0.9876  0.1978
35346SOL    HW2 8046   6.679   7.914   0.810 -0.5679 -1.0520 -0.5434
35347SOL     OW 8047   5.229  10.835  10.856 -0.0547 -0.1472 -0.3217
35347SOL    HW1 8048   5.325  10.832  10.853  0.0698 -3.5083  1.6161
35347SOL    HW2 8049   5.205  10.904  10.794  3.6071  1.5552 -0.1225
35348SOL     OW 8050   7.901   5.640   4.779 -0.0899  0.5309  0.2341
35348SOL    HW1 8051   7.925   5.608   4.866  1.1170  0.3230 -0.1622
35348SOL    HW2 8052   7.818   5.686   4.793 -0.4402 -0.3807  1.3042
35349SOL     OW 8053   1.219   9.263   6.467 -0.3236  0.1322  0.0154
35349SOL    HW1 8054   1.265   9.180   6.475 -0.0159  0.3988  1.1133
35349SOL    HW2 8055   1.257   9.304   6.389 -0.4107 -0.6912 -0.4785
35350SOL     OW 8056   4.268   6.975  10.781 -0.4061 -0.0082  0.4789
35350SOL    HW1 8057   4.267   7.015  10.868 -0.2150  0.3039  0.3371
35350SOL    HW2 8058   4.357   6.944  10.769 -0.0681  1.1929 -0.1708
35351SOL     OW 8059   8.012   4.320   3.670  0.1470 -0.8007 -0.5802
35351SOL    HW1 8060   8.059   4.371   3.735 -2.1047  0.2638  0.3197
35351SOL    HW2 8061   8.081   4.280   3.616  2.0456 -0.5477  1.5240
35352SOL     OW 8062   0.119   6.680   8.245 -0.4182 -0.2036  0.1335
35352SOL    HW1 8063   0.131   6.762   8.196 -1.2006  0.5322  1.1253
35352SOL    HW2 8064   0.153   6.699   8.332 -1.0191 -0.7902  0.5018
35353SOL     OW 8065   8.075   2.005  10.608 -0.2563  0.5998  0.3062
35353SOL    HW1 8066   8.078   1.912  10.584  0.4107  1.0775 -1.6893
35353SOL    HW2 8067   8.131   2.012  10.685 -0.7567 -0.7299  0.8150
35354SOL     OW 8068   9.860   7.066   6.417 -0.1488  0.2296 -0.1364
35354SOL    HW1 8069   9.861   6.972   6.437 -0.7180 -0.1988 -1.9807
35354SOL    HW2 8070   9.925   7.076   6.347 -1.0396  0.9663 -0.8772
35355SOL     OW 8071   6.561   4.058   4.103 -0.3041 -0.3928  0.1674
35355SOL    HW1 8072   6.622   4.107   4.158 -0.4090 -1.6205  1.4439
35355SOL    HW2 8073   6.548   3.975   4.149 -0.7134 -1.3257 -1.5317
35356SOL     OW 8074   0.784   5.737   9.730 -0.0735  0.0821  0.0446
35356SOL    HW1 8075   0.751   5.692   9.808  1.1329 -1.6417 -0.3771
35356SOL    HW2 8076   0.853   5.795   9.764 -1.5649  1.6398  0.5770
35357SOL     OW 8077   0.338   2.960  10.284 -0.7836 -0.5339 -0.0945
35357SOL    HW1 8078   0.384   2.900  10.342 -1.4892  1.1513  2.3580
35357SOL    HW2 8079   0.407   2.998  10.229 -0.0605 -1.9905 -0.2293
35358SOL     OW 8080   9.964   1.602   8.722  0.0518  0.0368 -0.2366
35358SOL    HW1 8081  10.012   1.638   8.648  0.3843  0.7341  0.2966
35358SOL    HW2 8082   9.911   1.676   8.754 -0.8055 -0.5179 -0.3581
35359SOL     OW 8083   2.915   3.591  10.692  0.1311  0.1230 -0.0085
35359SOL    HW1 8084   2.848   3.660  10.687  0.6194  0.6487  0.4739
35359SOL    HW2 8085   2.942   3.577  10.602 -1.4843 -0.9740 -0.3703
35360SOL     OW 8086   1.755   5.390  10.630  0.0052  0.3092  0.9892
35360SOL    HW1 8087   1.708   5.441  10.563  0.5845  0.7085  0.8802
35360SOL    HW2 8088   1.766   5.451  10.702 -3.9923 -1.1285  3.1243
35361SOL     OW 8089   6.530   6.045   6.768  0.0877 -0.2622  0.1091
35361SOL    HW1 8090   6.577   6.023   6.688  0.7876 -1.5596  0.8257
35361SOL    HW2 8091   6.439   6.050   6.742  0.1818 -1.6950 -0.6122
35362SOL     OW 8092   5.685   6.731   3.294  0.4676 -0.3453  0.2544
35362SOL    HW1 8093   5.696   6.744   3.388  1.7961  0.6341  0.0046
35362SOL    HW2 8094   5.665   6.819   3.260 -1.9141 -0.9865 -0.1816
35363SOL     OW 8095   0.143   3.925   0.558  0.6216  0.0424 -0.4349
35363SOL    HW1 8096   0.191   3.879   0.489  1.0983  0.7176 -0.5689
35363SOL    HW2 8097   0.181   3.892   0.639 -0.0564 -0.8806 -0.4731
35364SOL     OW 8098   5.004   8.854   6.589 -0.2667 -0.1857  0.5817
35364SOL    HW1 8099   4.923   8.811   6.616  0.0696 -1.5208 -0.4140
35364SOL    HW2 8100   5.069   8.784   6.586  1.0665  0.9183  1.7713
35365SOL     OW 8101   8.322   0.691   2.680 -0.6017  0.3436 -0.4564
35365SOL    HW1 8102   8.353   0.651   2.599 -1.1311  1.1419 -1.0698
35365SOL    HW2 8103   8.395   0.745   2.710  0.0476 -0.9246  0.2785
35366SOL     OW 8104   5.626   3.432   6.459 -0.2336 -0.3613 -0.6503
35366SOL    HW1 8105   5.710   3.400   6.489  0.1570 -1.3891 -2.6676
35366SOL    HW2 8106   5.630   3.527   6.472  0.4228 -0.5887  1.0846
35367SOL     OW 8107  10.474   4.639  10.876 -0.0182  0.4869  0.1381
35367SOL    HW1 8108  10.440   4.550  10.883  0.5885  0.2159 -0.3500
35367SOL    HW2 8109  10.483   4.655  10.782 -1.3723  1.5499  0.1569
35368SOL     OW 8110   2.500   8.727   5.919  0.3099 -0.1201 -0.4182
35368SOL    HW1 8111   2.509   8.657   5.984  1.2059  0.4744  0.1222
35368SOL    HW2 8112   2.499   8.808   5.970 -1.0627  0.2716 -1.0080
35369SOL     OW 8113   9.300   9.940   1.031 -0.0554  0.3902  0.3548
35369SOL    HW1 8114   9.294   9.973   0.941 -0.6506  0.4677  0.4168
35369SOL    HW2 8115   9.331   9.850   1.022  1.0001  0.7579  0.1443
35370SOL     OW 8116   0.322   9.065  10.493 -0.3577 -0.1389 -0.0630
35370SOL    HW1 8117   0.381   9.079  10.567 -1.3776  0.9102  0.5770
35370SOL    HW2 8118   0.238   9.101  10.521 -0.9827 -0.4545 -1.4293
35371SOL     OW 8119   5.387   7.110   7.849  0.7834 -0.0423 -0.2994
35371SOL    HW1 8120   5.328   7.036   7.867 -1.2382  1.3906 -0.5871
35371SOL    HW2 8121   5.403   7.105   7.755 -0.2286  0.4274 -0.5206
35372SOL     OW 8122   5.959   6.433   0.324 -0.5238  0.7068  0.1086
35372SOL    HW1 8123   5.897   6.406   0.392  0.4247 -0.0451  0.6941
35372SOL    HW2 8124   6.043   6.440   0.369  0.6356 -2.0807 -1.3818
35373SOL     OW 8125   9.808   6.915   2.734  0.1260  0.9166 -0.2410
35373SOL    HW1 8126   9.810   6.876   2.821  0.1290 -1.8958 -1.4017
35373SOL    HW2 8127   9.893   6.893   2.696 -0.3476  0.9699 -1.3810
35374SOL     OW 8128   7.579   7.528   2.894  0.3358  0.5756  0.3258
35374SOL    HW1 8129   7.649   7.572   2.845 -0.2498 -0.2951 -1.3854
35374SOL    HW2 8130   7.618   7.446   2.924 -0.4595 -1.0091 -2.5842
35375SOL     OW 8131   4.442   2.319   6.638 -0.2272  0.3031 -0.1438
35375SOL    HW1 8132   4.506   2.378   6.677  1.0446 -1.3776  0.4027
35375SOL    HW2 8133   4.383   2.377   6.589  1.2734  1.9625 -0.0846
35376SOL     OW 8134   6.952  10.704   4.644 -0.3603  0.3975  0.1250
35376SOL    HW1 8135   6.938  10.635   4.579 -1.7152 -1.2648  2.0430
35376SOL    HW2 8136   7.031  10.677   4.691  0.4484  1.4376 -0.5868
35377SOL     OW 8137   4.449   6.293   8.903 -0.3326  0.1696 -0.2016
35377SOL    HW1 8138   4.481   6.250   8.824 -0.8785 -0.0622 -0.3014
35377SOL    HW2 8139   4.461   6.387   8.886 -0.5684  0.1291 -0.6167
35378SOL     OW 8140   4.581   3.939   5.030 -0.0671  0.4922 -0.0104
35378SOL    HW1 8141   4.620   3.937   4.942  0.8273 -0.7328  0.3807
35378SOL    HW2 8142   4.503   3.884   5.023  0.2190  0.0738  0.0465
35379SOL     OW 8143   4.189   1.048   9.058  0.6831  0.2853 -0.2547
35379SOL    HW1 8144   4.279   1.018   9.072  0.5687  0.3915  0.7930
35379SOL    HW2 8145   4.189   1.083   8.969  1.6832  0.2922 -0.2651
35380SOL     OW 8146   3.779   3.375   9.529 -0.1753 -0.3483 -0.1278
35380SOL    HW1 8147   3.696   3.342   9.496 -0.9324  0.7236  0.6400
35380SOL    HW2 8148   3.835   3.297   9.535  0.0256 -0.6432 -3.7561
35381SOL     OW 8149   7.058   7.233   7.604  0.6187 -0.0795 -0.1890
35381SOL    HW1 8150   6.970   7.197   7.611  0.8313 -0.6547 -0.4583
35381SOL    HW2 8151   7.046   7.317   7.558  0.4010 -0.9319 -1.7543
35382SOL     OW 8152   2.040   4.388   2.481 -0.1518 -0.7743 -0.0350
35382SOL    HW1 8153   1.993   4.469   2.501  0.3469  0.3187 -2.8255
35382SOL    HW2 8154   2.006   4.362   2.395 -0.1589 -3.4744  0.7063
35383SOL     OW 8155   7.529  10.587   0.737  0.0539 -0.1626  0.0920
35383SOL    HW1 8156   7.446  10.599   0.784 -0.0961 -1.9930  0.3449
35383SOL    HW2 8157   7.595  10.617   0.799 -0.3444  0.4745  0.2234
35384SOL     OW 8158   5.994   9.975   3.790  0.5890 -0.0966  0.3881
35384SOL    HW1 8159   6.083   9.995   3.819  0.8263  0.7220 -0.8392
35384SOL    HW2 8160   5.970  10.048   3.733 -0.1391 -1.2367 -0.8229
35385SOL     OW 8161  10.507   3.266  10.982  0.2306 -0.1666 -0.4317
35385SOL    HW1 8162  10.561   3.234  11.054 -1.1565  2.0137  1.7287
35385SOL    HW2 8163  10.547   3.349  10.956 -0.9568  0.5319 -0.0970
35386SOL     OW 8164   2.555   1.887   0.613 -0.3546  0.8544  0.6305
35386SOL    HW1 8165   2.591   1.948   0.549 -1.7019 -0.8230 -1.8818
35386SOL    HW2 8166   2.525   1.942   0.685 -1.7040  3.2081 -1.6062
35387SOL     OW 8167   4.135   8.637   3.023 -0.1228 -0.2118  0.3963
35387SOL    HW1 8168   4.105   8.670   3.108 -0.6974  0.3782 -0.0223
35387SOL    HW2 8169   4.165   8.548   3.041 -1.5769 -0.6233  0.9766
35388SOL     OW 8170   9.654   8.787   2.241  0.6257  0.4962  0.4244
35388SOL    HW1 8171   9.691   8.757   2.157 -1.8436  2.5375 -1.5544
35388SOL    HW2 8172   9.706   8.864   2.264 -2.0559  3.4863 -2.4576
35389SOL     OW 8173   2.810   2.325   7.451 -0.2531 -0.4392 -0.6879
35389SOL    HW1 8174   2.799   2.298   7.360 -1.0057 -0.4462 -0.6063
35389SOL    HW2 8175   2.738   2.281   7.497  0.0780 -0.3772 -0.1054
35390SOL     OW 8176   9.762   8.195   4.298  0.0969 -0.1969  0.0375
35390SOL    HW1 8177   9.731   8.104   4.302 -0.7758  0.0170 -1.3007
35390SOL    HW2 8178   9.767   8.214   4.204 -0.7178  1.4756  0.3025
35391SOL     OW 8179   9.445   3.496   9.381  0.2026  0.3922 -0.0967
35391SOL    HW1 8180   9.387   3.489   9.457 -0.7214 -2.0030 -0.8981
35391SOL    HW2 8181   9.434   3.586   9.351 -1.0796  0.7697  1.3454
35392SOL     OW 8182   2.164   5.838   5.795 -0.0271  0.5170 -0.5907
35392SOL    HW1 8183   2.107   5.856   5.720 -2.2037 -1.0225  0.5923
35392SOL    HW2 8184   2.160   5.743   5.807  0.7568  0.6508  1.0922
35393SOL     OW 8185   0.843   3.380   4.748 -0.2920  0.6150  0.1442
35393SOL    HW1 8186   0.850   3.466   4.789 -0.6404  0.5257  0.3916
35393SOL    HW2 8187   0.933   3.348   4.744  0.2066  2.1263 -2.4223
35394SOL     OW 8188   4.996   7.853   6.301 -0.2037  0.0198  0.3322
35394SOL    HW1 8189   5.064   7.788   6.321  1.3090  1.7612  1.1687
35394SOL    HW2 8190   5.042   7.937   6.301 -2.2238  1.2050  0.0700
35395SOL     OW 8191   3.769   7.580   0.271 -0.1322  0.8377 -0.2079
35395SOL    HW1 8192   3.723   7.499   0.295 -2.2270  1.5163 -1.6096
35395SOL    HW2 8193   3.828   7.597   0.345 -1.9878 -0.2510  1.6468
35396SOL     OW 8194   9.066   1.028   6.271 -0.2048 -0.4301 -0.6902
35396SOL    HW1 8195   9.091   0.981   6.192 -1.4235 -1.2509 -0.6229
35396SOL    HW2 8196   9.105   1.115   6.261  1.3838 -1.1671 -1.2080
35397SOL     OW 8197   4.208   7.900  10.272  0.8686  0.0082 -0.2450
35397SOL    HW1 8198   4.194   7.931  10.182 -0.8936  1.1990  0.3838
35397SOL    HW2 8199   4.257   7.971  10.314 -1.3223  1.1161  0.6147
35398SOL     OW 8200   4.439  10.288  10.600  0.7768 -0.3994 -0.1964
35398SOL    HW1 8201   4.379  10.246  10.538 -0.7927  1.6361 -0.1766
35398SOL    HW2 8202   4.428  10.239  10.681  0.1101 -0.8564 -0.5524
35399SOL     OW 8203  10.294   0.362   1.747 -0.3484  0.1163  0.2737
35399SOL    HW1 8204  10.353   0.436   1.729  1.2859 -0.9258  1.1022
35399SOL    HW2 8205  10.241   0.354   1.667  1.3466  0.4568 -0.9440
35400SOL     OW 8206   2.188   1.950   4.577  0.3405  0.2587  0.0176
35400SOL    HW1 8207   2.215   1.901   4.499  2.0542  0.5803  0.3809
35400SOL    HW2 8208   2.127   2.016   4.544 -0.9344 -1.2045 -0.6674
35401SOL     OW 8209   3.621   4.588   8.639  0.1299 -0.2796 -0.2783
35401SOL    HW1 8210   3.548   4.644   8.666 -0.3189 -0.3991 -1.1920
35401SOL    HW2 8211   3.634   4.528   8.713  0.4402  0.8285  0.6036
35402SOL     OW 8212   1.629   5.122   5.875  0.0845  0.9277 -0.3367
35402SOL    HW1 8213   1.630   5.064   5.951  0.5112  0.2867 -0.8251
35402SOL    HW2 8214   1.543   5.162   5.877  0.5294  1.9050  1.2209
35403SOL     OW 8215   1.048   1.920   7.283  0.2205  0.2188 -0.2378
35403SOL    HW1 8216   1.006   1.954   7.204  2.8391 -0.5806 -2.0749
35403SOL    HW2 8217   1.117   1.983   7.303  1.4941 -1.0749 -0.3797
35404SOL     OW 8218   8.172   8.127   7.870 -0.2165  0.1552  0.0355
35404SOL    HW1 8219   8.085   8.115   7.908 -0.6914  2.0526 -0.3481
35404SOL    HW2 8220   8.231   8.127   7.946 -0.4004 -1.8558  0.2439
35405SOL     OW 8221   0.981   1.813   5.696  0.2793  0.1930  0.0094
35405SOL    HW1 8222   1.029   1.869   5.756  0.7533 -0.0074 -0.1760
35405SOL    HW2 8223   0.971   1.865   5.616  1.1388 -0.1463 -0.3331
35406SOL     OW 8224   7.361   0.151   9.625  0.6194 -0.3421 -0.2021
35406SOL    HW1 8225   7.447   0.192   9.640 -0.7714  2.8089 -0.1424
35406SOL    HW2 8226   7.344   0.101   9.705  1.7197  0.2431  0.4249
35407SOL     OW 8227   5.422   1.729   3.123 -0.1487 -0.1624 -0.3929
35407SOL    HW1 8228   5.348   1.762   3.174 -1.1301 -1.8203 -0.6722
35407SOL    HW2 8229   5.382   1.678   3.053  1.2600 -0.8158 -0.7658
35408SOL     OW 8230   4.791   6.297   1.119 -0.7807 -0.3286  0.4162
35408SOL    HW1 8231   4.798   6.232   1.049 -0.7297  1.5909 -1.4586
35408SOL    HW2 8232   4.882   6.316   1.143 -0.7963 -0.9128  0.9817
35409SOL     OW 8233   4.492  10.517   2.609 -0.4528  0.5756  0.1279
35409SOL    HW1 8234   4.407  10.557   2.594 -0.9540  0.4414  2.3453
35409SOL    HW2 8235   4.540  10.581   2.662  0.6113  0.3810 -0.5690
35410SOL     OW 8236   4.585   2.866   3.206  0.2470 -0.9663 -0.3594
35410SOL    HW1 8237   4.658   2.812   3.236 -0.1653 -1.1630  0.3317
35410SOL    HW2 8238   4.531   2.806   3.155  0.2408 -0.9894 -0.3261
35411SOL     OW 8239   6.406  10.700   3.209  0.5128 -0.2656  0.2329
35411SOL    HW1 8240   6.447  10.783   3.235  0.7228 -0.3016  0.0210
35411SOL    HW2 8241   6.474  10.654   3.161  0.4894 -0.6907  0.6084
35412SOL     OW 8242   8.916   6.043  10.900  0.2738 -0.3155 -0.6242
35412SOL    HW1 8243   8.929   5.962  10.851  1.6661 -0.4239 -0.1200
35412SOL    HW2 8244   8.934   6.019  10.991  1.4118  0.6853 -0.5527
35413SOL     OW 8245  11.030   0.427  10.386 -0.3883  0.6355 -0.1091
35413SOL    HW1 8246  10.955   0.436  10.445 -1.7590  0.6980 -1.7875
35413SOL    HW2 8247  11.025   0.337  10.354  0.1886  0.6841 -0.3512
35414SOL     OW 8248   5.638   0.928   6.577  0.8503  0.0681  0.6629
35414SOL    HW1 8249   5.631   0.932   6.482  1.5910 -1.2475  0.5327
35414SOL    HW2 8250   5.688   1.007   6.600  1.4059 -0.0345 -0.1270
35415SOL     OW 8251   8.531   4.532   9.156  0.3667  0.7375 -0.6897
35415SOL    HW1 8252   8.600   4.551   9.220 -0.7217  0.6561  0.5597
35415SOL    HW2 8253   8.523   4.611   9.104  1.9848  0.4488 -1.4436
35416SOL     OW 8254   8.715   9.671   3.556 -0.4744 -0.8789 -0.3465
35416SOL    HW1 8255   8.797   9.712   3.527  0.7549 -3.2562 -0.4153
35416SOL    HW2 8256   8.683   9.729   3.625 -0.1790  1.5203 -2.0894
35417SOL     OW 8257   1.922   3.887  10.697 -0.7646  0.2911  0.2091
35417SOL    HW1 8258   1.996   3.867  10.755 -0.2450 -0.9706 -0.8321
35417SOL    HW2 8259   1.916   3.982  10.697  0.2703  0.3696  1.0434
35418SOL     OW 8260   7.025   2.510  10.384  0.0487 -0.1667 -0.1417
35418SOL    HW1 8261   6.945   2.561  10.383  0.4241  0.4389 -0.8796
35418SOL    HW2 8262   7.065   2.528  10.469 -0.3588 -0.0946  0.0344
35419SOL     OW 8263   9.925   3.383   8.956 -0.2618  0.1522 -0.4987
35419SOL    HW1 8264   9.883   3.331   9.024  0.6262 -0.2011 -0.1928
35419SOL    HW2 8265   9.929   3.471   8.992 -0.4155  0.1086 -0.3754
35420SOL     OW 8266  10.860   2.998   0.233  0.7178 -0.5620  0.0988
35420SOL    HW1 8267  10.897   2.952   0.157  1.3876 -0.3954  0.3191
35420SOL    HW2 8268  10.855   2.931   0.301  1.9416 -0.2612  0.5017
35421SOL     OW 8269   6.929   4.498   6.866  0.0345 -0.1933 -0.1503
35421SOL    HW1 8270   6.911   4.417   6.914  1.0876  0.6190  1.7489
35421SOL    HW2 8271   6.919   4.567   6.931  2.2498  0.9239 -0.8796
35422SOL     OW 8272   8.505   9.715   7.921  0.1112 -0.5362 -0.3856
35422SOL    HW1 8273   8.577   9.721   7.984  0.0553  0.2514 -0.3946
35422SOL    HW2 8274   8.543   9.671   7.845  0.2190 -1.3574  0.1293
35423SOL     OW 8275   7.299   3.594   7.568 -0.1843  0.5376  0.2201
35423SOL    HW1 8276   7.237   3.658   7.602 -2.5715 -1.0205 -0.8891
35423SOL    HW2 8277   7.286   3.595   7.473  0.7388 -0.5600  0.0553
35424SOL     OW 8278   8.306   5.911   5.804  0.2385 -0.0445  0.0894
35424SOL    HW1 8279   8.284   5.998   5.772  0.4445 -1.1489 -3.4773
35424SOL    HW2 8280   8.222   5.872   5.828 -0.3422 -0.0908 -1.8804
35425SOL     OW 8281   3.376  10.717   6.472 -0.3774 -0.1552 -0.2828
35425SOL    HW1 8282   3.316  10.734   6.399  0.2932  0.1484 -0.7712
35425SOL    HW2 8283   3.463  10.733   6.436 -0.0542  0.2555  0.6638
35426SOL     OW 8284  10.472   1.474   5.443 -0.1877  1.1333  0.3648
35426SOL    HW1 8285  10.503   1.442   5.528  2.4179 -2.5297 -1.6758
35426SOL    HW2 8286  10.379   1.451   5.441  0.1777 -0.6191  1.4900
35427SOL     OW 8287  10.610   5.067   9.427  0.1369 -0.8688  0.1334
35427SOL    HW1 8288  10.631   4.980   9.463  0.1189 -0.9567 -0.0662
35427SOL    HW2 8289  10.588   5.050   9.336 -0.5281 -0.7365  0.2663
35428SOL     OW 8290   1.780   2.761   6.291 -0.3856  0.0436  0.1403
35428SOL    HW1 8291   1.702   2.772   6.345  0.0212  0.2275  0.7017
35428SOL    HW2 8292   1.747   2.760   6.201 -1.0965 -0.5252  0.4019
35429SOL     OW 8293   3.452   7.536   5.834  0.2988 -0.4225 -0.3555
35429SOL    HW1 8294   3.368   7.518   5.793  0.4282  0.6430 -1.1122
35429SOL    HW2 8295   3.514   7.480   5.787  0.2896  0.0699 -0.9601
35430SOL     OW 8296   9.597   6.743   3.691  0.1350  0.0213 -0.2471
35430SOL    HW1 8297   9.629   6.738   3.780 -1.3654  0.6591  0.3692
35430SOL    HW2 8298   9.507   6.709   3.695 -0.6141  1.7456 -1.1137
35431SOL     OW 8299   1.162   2.395   2.659  0.2017 -0.2512 -0.1808
35431SOL    HW1 8300   1.257   2.380   2.661  0.4326  1.0930  1.3758
35431SOL    HW2 8301   1.142   2.409   2.566  1.8627  1.2614 -0.3708
35432SOL     OW 8302   5.816   4.459   9.123  0.5431  0.4163 -0.0813
35432SOL    HW1 8303   5.767   4.437   9.202  0.6770 -1.0439 -0.3843
35432SOL    HW2 8304   5.901   4.490   9.156  0.8674 -0.8734  0.3472
35433SOL     OW 8305   3.310   5.569   4.683  0.0805 -0.7162 -0.0570
35433SOL    HW1 8306   3.326   5.643   4.624  1.0921 -0.3424  0.6550
35433SOL    HW2 8307   3.397   5.545   4.716 -0.5104 -0.4690  1.8140
35434SOL     OW 8308   4.742   4.178   2.116 -0.2264  0.2049 -0.0026
35434SOL    HW1 8309   4.702   4.109   2.064 -1.1824 -0.1502  1.1449
35434SOL    HW2 8310   4.752   4.252   2.056  0.6436 -0.8544 -1.2045
35435SOL     OW 8311   5.034   9.252   9.121 -0.5997 -0.1327 -0.0761
35435SOL    HW1 8312   5.044   9.191   9.194 -1.4023 -0.6024 -0.3447
35435SOL    HW2 8313   5.049   9.339   9.159  0.0796 -0.4603  0.4085
35436SOL     OW 8314   7.979   4.183   8.760 -0.6287 -0.3055  0.2843
35436SOL    HW1 8315   7.886   4.185   8.780 -0.6106  2.2832  0.3659
35436SOL    HW2 8316   8.022   4.197   8.845 -0.1928 -0.3192  0.0686
35437SOL     OW 8317   9.790   0.264   5.079 -0.6108  0.6267  0.0700
35437SOL    HW1 8318   9.722   0.220   5.029 -0.1663  0.4848 -0.4195
35437SOL    HW2 8319   9.871   0.245   5.031  0.3709 -2.4059  2.6352
35438SOL     OW 8320   0.468   6.400   1.972  0.1384  0.0421 -0.8386
35438SOL    HW1 8321   0.395   6.456   1.949 -0.2073 -0.0785 -0.0551
35438SOL    HW2 8322   0.448   6.368   2.060  1.1850  0.1014 -0.5654
35439SOL     OW 8323   0.617   6.714  10.330  0.3676  0.0255  0.4612
35439SOL    HW1 8324   0.664   6.631  10.338 -0.3734 -0.6287 -1.3763
35439SOL    HW2 8325   0.566   6.720  10.410  0.7871 -1.0763  0.8321
35440SOL     OW 8326   3.601   4.648   6.402  0.1684  0.0852  0.7202
35440SOL    HW1 8327   3.630   4.739   6.389  2.2187 -0.5436  0.4006
35440SOL    HW2 8328   3.618   4.631   6.494 -1.8081  0.5076  1.1900
35441SOL     OW 8329   1.544   5.782   0.983  0.1775 -0.3810  0.5057
35441SOL    HW1 8330   1.600   5.842   1.032  0.8230 -0.0390 -0.6213
35441SOL    HW2 8331   1.471   5.835   0.954  1.0955  0.0730 -1.0863
35442SOL     OW 8332   5.362   2.056   4.743  0.1205 -0.0909 -0.1893
35442SOL    HW1 8333   5.426   1.990   4.717  0.8201  0.8899 -0.9785
35442SOL    HW2 8334   5.304   2.009   4.804  0.6483 -1.4075 -0.6621
35443SOL     OW 8335   2.724   4.275   3.172 -0.0755 -0.0467  0.5638
35443SOL    HW1 8336   2.739   4.357   3.125 -1.1635 -0.3281 -0.3188
35443SOL    HW2 8337   2.630   4.275   3.193  0.2970 -0.1102  2.4460
35444SOL     OW 8338   5.390   2.749   6.210 -0.0163 -1.0288  0.1622
35444SOL    HW1 8339   5.360   2.723   6.123 -2.3453 -0.6155  0.7616
35444SOL    HW2 8340   5.481   2.775   6.198  0.3389 -2.9061 -1.7368
35445SOL     OW 8341   5.688   9.250   2.220 -0.1373  0.1332  0.4516
35445SOL    HW1 8342   5.617   9.305   2.186  0.7783  0.5572 -0.8282
35445SOL    HW2 8343   5.749   9.241   2.147  2.3887  1.8340  2.1897
35446SOL     OW 8344   6.711   7.362   1.143 -0.4136 -0.1985 -0.2413
35446SOL    HW1 8345   6.626   7.356   1.100 -0.1992  0.0950 -0.7179
35446SOL    HW2 8346   6.754   7.279   1.125 -0.5096 -0.2580 -0.1940
35447SOL     OW 8347   4.327   2.009   2.547 -0.1589 -0.3801 -0.0255
35447SOL    HW1 8348   4.368   1.923   2.555 -0.4725 -0.5169  0.1458
35447SOL    HW2 8349   4.365   2.047   2.468  1.1378 -0.0403  0.7257
35448SOL     OW 8350   4.855   3.177   1.637  0.1593 -0.7821 -0.1571
35448SOL    HW1 8351   4.914   3.160   1.563  1.2995  0.5915  0.3998
35448SOL    HW2 8352   4.783   3.115   1.625  1.5442 -2.2764 -1.0401
35449SOL     OW 8353   1.917   3.772   4.956 -0.4375 -0.1011 -0.6683
35449SOL    HW1 8354   1.845   3.767   4.894 -1.1574  2.5819 -0.1792
35449SOL    HW2 8355   1.968   3.847   4.928 -1.6468  2.2213  2.6692
35450SOL     OW 8356  10.174   1.660  10.325  0.7081 -0.0959  0.0360
35450SOL    HW1 8357  10.179   1.751  10.355 -0.9519  1.5358 -3.9548
35450SOL    HW2 8358  10.155   1.610  10.405  1.4270  3.0330  2.3728
35451SOL     OW 8359   6.586   0.505   7.640  0.3629 -0.2577  0.1663
35451SOL    HW1 8360   6.590   0.596   7.611  1.5430 -0.7632 -1.3907
35451SOL    HW2 8361   6.497   0.477   7.617  1.4017 -0.8319 -3.9490
35452SOL     OW 8362   1.521   1.211   8.987  0.0449 -0.2546  0.0375
35452SOL    HW1 8363   1.492   1.197   8.897 -3.1593  0.3011  0.8650
35452SOL    HW2 8364   1.508   1.127   9.030  1.2121 -0.4161  0.1110
35453SOL     OW 8365  10.111   2.653   5.763  0.5970 -0.6749 -0.4126
35453SOL    HW1 8366  10.043   2.695   5.710  0.6561 -1.2905 -0.9820
35453SOL    HW2 8367  10.117   2.708   5.842 -1.9186 -1.6855  0.5814
35454SOL     OW 8368   7.749   5.164   7.189  0.7130  0.4517 -0.6034
35454SOL    HW1 8369   7.718   5.242   7.144  2.2347  0.8194 -1.0752
35454SOL    HW2 8370   7.792   5.197   7.268  0.4754  0.0090 -0.2841
35455SOL     OW 8371   6.253   0.878  10.587  0.3480  0.5906 -0.3987
35455SOL    HW1 8372   6.339   0.864  10.628  0.5314 -2.3113 -1.5787
35455SOL    HW2 8373   6.194   0.895  10.661  1.3975 -0.4368  0.7145
35456SOL     OW 8374   0.768   8.002   4.768 -0.5579 -0.2597 -0.6045
35456SOL    HW1 8375   0.725   7.932   4.719 -2.4749  0.8301 -0.5852
35456SOL    HW2 8376   0.710   8.018   4.843  2.1181 -1.6528  1.9587
35457SOL     OW 8377   2.898   5.610   2.649 -0.1284 -0.7309  0.1840
35457SOL    HW1 8378   2.921   5.549   2.720 -1.0982  0.2823  1.3925
35457SOL    HW2 8379   2.836   5.671   2.688 -0.8998 -0.2989 -1.6246
35458SOL     OW 8380   0.392   1.286   2.745  0.0283  0.7674 -0.2184
35458SOL    HW1 8381   0.424   1.357   2.691  0.3711 -0.6065 -1.9236
35458SOL    HW2 8382   0.346   1.329   2.817  0.9012  2.6903 -0.7477
35459SOL     OW 8383   2.857   7.832   1.460 -0.5809 -0.0945 -0.5375
35459SOL    HW1 8384   2.865   7.915   1.507 -1.4995 -1.5498  2.4514
35459SOL    HW2 8385   2.947   7.798   1.456 -0.3865  0.4122 -0.6319
35460SOL     OW 8386   4.853   6.417   9.788  0.8480  0.4680  0.0008
35460SOL    HW1 8387   4.780   6.368   9.828  2.3400 -1.3302  0.6498
35460SOL    HW2 8388   4.822   6.508   9.785 -2.0667 -0.4439 -1.2978
35461SOL     OW 8389   3.433   5.545   6.196 -0.3000  0.3865  0.1257
35461SOL    HW1 8390   3.375   5.617   6.221 -0.2553  1.3475 -2.2361
35461SOL    HW2 8391   3.510   5.557   6.252 -1.3056  0.6545  1.4967
35462SOL     OW 8392   3.024   9.121   8.602 -0.4682 -0.0344  0.2283
35462SOL    HW1 8393   3.076   9.110   8.681 -0.2673  0.6775  0.1950
35462SOL    HW2 8394   3.083   9.161   8.538 -1.4389  2.2857  0.6743
35463SOL     OW 8395   6.000   8.176   1.271  0.3749 -0.4860  0.1617
35463SOL    HW1 8396   5.934   8.118   1.233  0.4070 -0.2181 -0.3086
35463SOL    HW2 8397   6.020   8.239   1.201  0.1733  0.2327  0.7425
35464SOL     OW 8398   5.669   1.209   2.813  0.7933 -0.6401  0.0483
35464SOL    HW1 8399   5.629   1.160   2.884 -1.1464 -2.1955 -1.9729
35464SOL    HW2 8400   5.757   1.173   2.806  0.8316 -0.8239  1.3056
35465SOL     OW 8401   2.017   8.121  10.143 -0.4813 -0.2229 -0.0836
35465SOL    HW1 8402   1.962   8.065  10.197  2.0737 -0.3387  2.5911
35465SOL    HW2 8403   1.977   8.208  10.152 -0.3284 -0.3073  1.7479
35466SOL     OW 8404   6.879   2.225   2.988  0.0011  0.0890 -0.3768
35466SOL    HW1 8405   6.918   2.149   3.031 -0.5921  0.3964  0.7562
35466SOL    HW2 8406   6.954   2.278   2.960  0.4082 -0.5388 -0.4942
35467SOL     OW 8407   8.831   7.261   2.398 -0.1283  0.2763 -0.1886
35467SOL    HW1 8408   8.854   7.169   2.396 -0.3752  0.1559  1.3621
35467SOL    HW2 8409   8.888   7.299   2.465 -0.8472  1.0064  0.0266
35468SOL     OW 8410   7.119   5.082   1.555  0.7922 -0.2819 -0.5064
35468SOL    HW1 8411   7.041   5.128   1.525  1.4369  0.3003 -1.3533
35468SOL    HW2 8412   7.142   5.025   1.482  2.6759  1.5256 -1.4504
35469SOL     OW 8413  10.550   3.989   9.175 -0.5959 -0.0755  0.2418
35469SOL    HW1 8414  10.496   4.023   9.104 -1.1493  1.3915  1.3278
35469SOL    HW2 8415  10.609   4.061   9.199 -0.1455 -0.6703  1.0118
35470SOL     OW 8416   6.081   5.096   0.928  0.6113  0.4927  0.3864
35470SOL    HW1 8417   6.043   5.182   0.907  0.2207 -0.1981 -2.1089
35470SOL    HW2 8418   6.140   5.078   0.855  1.8091 -0.7477  1.6135
35471SOL     OW 8419   8.634   2.582   4.803 -0.5914 -0.0018 -0.2103
35471SOL    HW1 8420   8.573   2.655   4.789  1.0205  1.1346 -1.6982
35471SOL    HW2 8421   8.674   2.567   4.717  2.5083  0.5023  1.0263
35472SOL     OW 8422   0.595   5.198   6.267 -0.0310 -0.3870 -0.2720
35472SOL    HW1 8423   0.507   5.177   6.235 -1.7057  2.8868  1.6337
35472SOL    HW2 8424   0.623   5.273   6.214  0.2393  0.5177  1.0856
35473SOL     OW 8425  10.173   8.883   0.464  0.1573 -0.1257 -0.0497
35473SOL    HW1 8426  10.218   8.941   0.526 -0.5882 -0.7896  1.1403
35473SOL    HW2 8427  10.240   8.863   0.398  1.0009  0.5195  0.5723
35474SOL     OW 8428   8.931   3.628   5.565 -0.0419 -0.5850  0.0722
35474SOL    HW1 8429   8.920   3.570   5.490 -1.8693 -0.3288  0.1094
35474SOL    HW2 8430   8.868   3.596   5.629 -0.1291  0.6304  0.6080
35475SOL     OW 8431   2.563   0.419   2.769  0.3972 -0.0396  0.2062
35475SOL    HW1 8432   2.648   0.448   2.801  0.6440 -0.8511  0.3215
35475SOL    HW2 8433   2.512   0.499   2.757  0.9991  0.4131  0.6489
35476SOL     OW 8434   3.406   9.333   7.514 -0.1073  0.1669  0.1401
35476SOL    HW1 8435   3.377   9.413   7.558 -0.3412 -0.3756  1.0050
35476SOL    HW2 8436   3.324   9.291   7.487 -0.0355 -0.2780  0.6039
35477SOL     OW 8437   8.106   1.679   9.160  0.0729  0.1338 -1.0554
35477SOL    HW1 8438   8.172   1.629   9.111  0.1092 -0.7359 -0.1490
35477SOL    HW2 8439   8.138   1.769   9.158  1.6064 -0.3530 -0.1445
35478SOL     OW 8440   4.719   3.840   9.527 -0.3221  0.4124 -0.4329
35478SOL    HW1 8441   4.625   3.853   9.538 -0.2828  1.2772 -1.0165
35478SOL    HW2 8442   4.752   3.827   9.616 -0.6926  2.2947  0.0296
35479SOL     OW 8443   6.375   1.455   8.282  0.0299  0.5824  0.4756
35479SOL    HW1 8444   6.441   1.406   8.331  1.3288  1.4014 -0.4024
35479SOL    HW2 8445   6.388   1.546   8.309 -1.3427  0.6616  0.9376
35480SOL     OW 8446  10.933   2.912   8.131  0.0718 -0.1751 -0.3164
35480SOL    HW1 8447  10.982   2.842   8.174  1.3394  0.9741  0.1642
35480SOL    HW2 8448  10.995   2.950   8.069  0.1625  1.9410  0.9934
35481SOL     OW 8449  10.297   4.937   3.999 -0.5343  0.0974  0.1970
35481SOL    HW1 8450  10.226   4.872   4.004 -2.1645  1.8060  0.6770
35481SOL    HW2 8451  10.376   4.888   4.021 -1.4209 -2.0582 -1.0839
35482SOL     OW 8452   2.968   1.560   4.727 -0.0779 -0.3914 -0.0377
35482SOL    HW1 8453   2.919   1.484   4.760 -1.4466  0.9717  1.2297
35482SOL    HW2 8454   3.028   1.582   4.799 -1.4198  1.1656  0.6768
35483SOL     OW 8455   4.173   6.794   8.574 -0.3151 -0.1028  0.6104
35483SOL    HW1 8456   4.229   6.859   8.616  0.8656 -1.2068  0.8425
35483SOL    HW2 8457   4.085   6.811   8.607 -0.2858  2.1269 -0.2812
35484SOL     OW 8458  10.494  10.828  10.646 -0.0955 -0.0494 -0.2901
35484SOL    HW1 8459  10.557  10.769  10.687 -0.7852 -1.2613 -0.9365
35484SOL    HW2 8460  10.495  10.803  10.554 -1.3982  0.0362 -0.3392
35485SOL     OW 8461   5.113   6.536   6.586 -0.9192  0.6592 -0.1812
35485SOL    HW1 8462   5.104   6.475   6.658  0.8865  2.1604  1.4424
35485SOL    HW2 8463   5.159   6.487   6.518 -1.0885 -0.2784  0.3688
35486SOL     OW 8464  11.017   7.906   5.892  0.1939  0.3001  0.3185
35486SOL    HW1 8465  11.013   7.848   5.816  2.6519 -0.5751  0.7677
35486SOL    HW2 8466  11.039   7.848   5.965 -1.0944  1.2730  1.5348
35487SOL     OW 8467   1.607   3.329   3.258 -0.1921  0.0474  0.2622
35487SOL    HW1 8468   1.558   3.279   3.192 -1.8133  1.6396  0.1681
35487SOL    HW2 8469   1.662   3.388   3.207  0.8589 -0.8035  0.3754
35488SOL     OW 8470   6.813   0.030   2.832  0.2669 -0.0154  0.3834
35488SOL    HW1 8471   6.898   0.072   2.824 -0.2878  1.0909  0.1847
35488SOL    HW2 8472   6.750   0.101   2.829 -0.6166 -0.6767  1.8659
35489SOL     OW 8473   0.030   4.033   2.869  0.0382 -0.3597 -0.3378
35489SOL    HW1 8474   0.023   3.993   2.782  0.7905 -0.0976 -0.5263
35489SOL    HW2 8475  -0.058   4.068   2.886  0.5380  2.0597 -2.2034
35490SOL     OW 8476   1.678   9.057  10.747  0.4964  0.1962  0.4737
35490SOL    HW1 8477   1.756   9.106  10.770  2.6299 -1.0196 -3.2047
35490SOL    HW2 8478   1.616   9.123  10.715  2.3220  0.8979 -1.9469
35491SOL     OW 8479   1.203  10.899   1.878 -0.5064  0.0603 -0.0516
35491SOL    HW1 8480   1.220  10.981   1.830 -1.6429  1.7982  2.2967
35491SOL    HW2 8481   1.141  10.852   1.823  1.1314  0.0916 -2.0820
35492SOL     OW 8482   7.836   0.188   4.943  0.0936 -0.2403 -0.5323
35492SOL    HW1 8483   7.894   0.114   4.926  0.2584  0.0398 -1.2546
35492SOL    HW2 8484   7.748   0.153   4.929  0.2407  0.1663 -2.9511
35493SOL     OW 8485   1.046   9.718  10.459 -0.3859 -0.0745  0.2005
35493SOL    HW1 8486   1.076   9.808  10.446 -0.5929 -0.2755 -1.9625
35493SOL    HW2 8487   1.067   9.673  10.378 -2.1091 -1.4627  0.4560
35494SOL     OW 8488   6.371   4.919  10.456  0.2952 -0.1055  0.8689
35494SOL    HW1 8489   6.312   4.846  10.472  2.2552 -2.1372 -0.6980
35494SOL    HW2 8490   6.339   4.959  10.375  0.1351 -0.1978  0.8867
35495SOL     OW 8491   9.245   0.888   5.302 -0.0503  0.1781 -0.0920
35495SOL    HW1 8492   9.192   0.830   5.247  0.7979  1.7297 -2.7602
35495SOL    HW2 8493   9.218   0.868   5.391 -4.4152  0.1781 -1.1857
35496SOL     OW 8494   6.396   6.520  10.925  0.1786 -0.0651  1.0477
35496SOL    HW1 8495   6.410   6.442  10.872 -0.7401 -0.1352  0.8849
35496SOL    HW2 8496   6.430   6.498  11.011 -0.0009 -0.6073  0.9780
35497SOL     OW 8497   0.041   5.716   9.626  0.3394  0.2220 -0.1495
35497SOL    HW1 8498   0.006   5.662   9.556  1.1020 -0.0817 -0.3038
35497SOL    HW2 8499  -0.033   5.768   9.656  0.1326  0.7540 -1.5483
35498SOL     OW 8500   1.585  10.370   8.834 -0.3328 -0.1204 -0.2547
35498SOL    HW1 8501   1.602  10.420   8.914 -1.1423 -0.9591  0.4504
35498SOL    HW2 8502   1.497  10.334   8.846 -0.9161  0.6018 -1.9823
35499SOL     OW 8503   9.065   6.016   8.262  0.2480 -0.5074  0.5779
35499SOL    HW1 8504   9.080   6.047   8.173  1.6818 -1.2113  0.5431
35499SOL    HW2 8505   9.066   5.920   8.255 -0.7849 -0.5862  1.1880
35500SOL     OW 8506   3.875  10.727   0.594 -0.6025 -0.1612  0.5130
35500SOL    HW1 8507   3.926  10.741   0.513 -1.8831  0.6690 -0.1825
35500SOL    HW2 8508   3.882  10.633   0.610  0.0319 -0.2755 -0.3245
35501SOL     OW 8509   6.732   9.941   2.513  0.2172 -0.4422  0.3961
35501SOL    HW1 8510   6.682  10.019   2.487  2.2728  0.3764 -1.3368
35501SOL    HW2 8511   6.736   9.947   2.609  0.1526  1.4918  0.3295
35502SOL     OW 8512   5.211   8.290   7.747 -0.0424 -0.4147  0.2177
35502SOL    HW1 8513   5.209   8.357   7.815  0.3574 -0.3088  0.1249
35502SOL    HW2 8514   5.274   8.225   7.779  0.6685 -0.0263 -0.3666
35503SOL     OW 8515   9.894   1.090  10.461  0.3207  0.2458 -0.1313
35503SOL    HW1 8516   9.897   0.996  10.441  0.9231 -0.4897  2.8427
35503SOL    HW2 8517   9.931   1.133  10.384  0.3044 -1.9622 -1.4576
35504SOL     OW 8518   5.377   4.044   3.653 -0.2720 -0.1903  0.7608
35504SOL    HW1 8519   5.389   4.136   3.628  1.0582 -0.0007  1.9821
35504SOL    HW2 8520   5.442   3.997   3.600 -0.8918 -0.4374  0.2018
35505SOL     OW 8521   0.062   4.185   7.117 -0.0668 -0.4569 -0.1284
35505SOL    HW1 8522   0.102   4.244   7.180 -0.4191 -0.0580 -0.2713
35505SOL    HW2 8523   0.131   4.122   7.095  0.5678  0.3690 -0.5576
35506SOL     OW 8524   3.770   6.689   0.892  0.6905  0.3032  0.0353
35506SOL    HW1 8525   3.819   6.609   0.874 -1.3188 -0.6924 -1.5013
35506SOL    HW2 8526   3.821   6.735   0.958  1.5614 -2.6028  1.5464
35507SOL     OW 8527   2.208   6.182   1.930  0.6531 -0.3835  0.2143
35507SOL    HW1 8528   2.139   6.131   1.972 -1.2656  1.3880 -0.5872
35507SOL    HW2 8529   2.185   6.181   1.837  1.1250  1.0866  0.0542
35508SOL     OW 8530   0.941   9.372   7.820  0.1985  0.3750 -0.4898
35508SOL    HW1 8531   0.962   9.289   7.776 -2.3508 -0.4866 -0.2950
35508SOL    HW2 8532   0.926   9.434   7.749  0.2492  0.1392 -0.7086
35509SOL     OW 8533   4.855   2.544   6.513  0.2027  0.0576 -0.0470
35509SOL    HW1 8534   4.928   2.488   6.487 -0.2834 -0.1651 -1.0026
35509SOL    HW2 8535   4.896   2.626   6.541  0.8482 -0.3059  0.0862
35510SOL     OW 8536   4.616   1.094   3.825 -0.6218  0.0180  0.5863
35510SOL    HW1 8537   4.677   1.165   3.806  0.2647 -0.3147  2.0241
35510SOL    HW2 8538   4.629   1.032   3.754 -1.0867  1.0672 -0.4453
35511SOL     OW 8539   5.056   3.057   1.474 -0.1199  0.5301  0.1126
35511SOL    HW1 8540   5.093   3.088   1.392 -1.2605  1.7186  0.0166
35511SOL    HW2 8541   5.099   2.973   1.490  0.0899  0.2564 -1.7157
35512SOL     OW 8542   0.668   2.273   8.716 -0.6029 -0.8491  0.6577
35512SOL    HW1 8543   0.741   2.309   8.766 -1.4710  1.4542  0.3717
35512SOL    HW2 8544   0.685   2.299   8.625 -2.2959  0.7440  0.7443
35513SOL     OW 8545   8.878   8.604   8.176  0.1653 -0.3430 -0.3402
35513SOL    HW1 8546   8.956   8.658   8.188  0.6306 -1.0920  0.1465
35513SOL    HW2 8547   8.805   8.662   8.196  0.6666  0.0132  0.5229
35514SOL     OW 8548   3.571   3.156   6.994 -0.6675 -0.5676  0.2982
35514SOL    HW1 8549   3.488   3.202   7.006 -0.4795 -0.2867  0.5418
35514SOL    HW2 8550   3.546   3.066   6.976 -1.0217 -0.5250  0.5667
35515SOL     OW 8551   6.887  10.117   0.647  0.6347  0.2675 -0.0466
35515SOL    HW1 8552   6.957  10.172   0.613  0.1254  0.0248 -1.5562
35515SOL    HW2 8553   6.840  10.172   0.709  0.7742  1.2011 -0.7533
35516SOL     OW 8554   9.097   3.708   3.517  0.0922  0.5596 -0.2253
35516SOL    HW1 8555   9.159   3.747   3.456  0.7792  2.8856  1.8186
35516SOL    HW2 8556   9.014   3.704   3.469  0.9903  0.7097 -1.8313
35517SOL     OW 8557   4.059   9.173  10.070  0.2744  0.1277 -0.5890
35517SOL    HW1 8558   4.095   9.222   9.996 -1.1399  1.5730 -0.3734
35517SOL    HW2 8559   3.970   9.207  10.080 -1.0755 -2.9953 -0.8703
35518SOL     OW 8560  10.362  10.174   9.625  0.7375  0.3224  0.1127
35518SOL    HW1 8561  10.444  10.223   9.623  0.7546  0.2718 -1.1140
35518SOL    HW2 8562  10.350  10.152   9.717  2.2233  0.1213  0.2851
35519SOL     OW 8563   5.088   2.044   3.256  0.2319  0.1289  0.1175
35519SOL    HW1 8564   5.165   1.988   3.260  0.2375  0.1554  0.3579
35519SOL    HW2 8565   5.018   1.986   3.225 -0.1125 -0.3904  1.7876
35520SOL     OW 8566  10.365   6.240   5.705 -0.2014 -0.1875  0.0793
35520SOL    HW1 8567  10.347   6.293   5.782  1.5957 -1.9931  1.8615
35520SOL    HW2 8568  10.452   6.268   5.676 -0.4635 -0.1742 -0.7322
35521SOL     OW 8569   7.805   5.212  10.389  0.3614  0.0085  0.2013
35521SOL    HW1 8570   7.834   5.193  10.479  3.0414  1.6729 -0.2236
35521SOL    HW2 8571   7.725   5.264  10.400  2.1207  2.6003  1.8065
35522SOL     OW 8572   6.281   8.215   3.529  0.2648  0.1888 -0.4492
35522SOL    HW1 8573   6.365   8.261   3.525  0.0030  0.8775  1.2171
35522SOL    HW2 8574   6.290   8.156   3.604 -0.9516  0.7195  0.1278
35523SOL     OW 8575   2.387   5.576   1.074 -0.1777 -0.0737 -0.1359
35523SOL    HW1 8576   2.355   5.496   1.032 -0.6418  0.2461 -0.4047
35523SOL    HW2 8577   2.393   5.553   1.167  1.3596 -0.9493 -0.4135
35524SOL     OW 8578   6.807   9.540   3.928  0.1432  0.1309  0.2470
35524SOL    HW1 8579   6.815   9.550   4.023 -0.7426 -0.6922  0.4197
35524SOL    HW2 8580   6.897   9.537   3.897  0.5150  3.0167  0.7465
35525SOL     OW 8581   6.331   7.973   8.435  0.0223 -0.1988  0.6325
35525SOL    HW1 8582   6.266   7.922   8.386  0.9354 -0.9013  0.1142
35525SOL    HW2 8583   6.287   8.056   8.453 -0.7224 -0.3261 -0.4581
35526SOL     OW 8584   1.130   1.231   5.999 -0.2681 -0.7951  0.2405
35526SOL    HW1 8585   1.149   1.191   6.084 -2.1241 -1.7889  0.2374
35526SOL    HW2 8586   1.154   1.165   5.935 -0.2957 -0.6372  0.0656
35527SOL     OW 8587   8.654   5.706   9.567  0.2523  0.1013 -0.1085
35527SOL    HW1 8588   8.731   5.658   9.599 -0.3240 -0.9549 -0.2408
35527SOL    HW2 8589   8.581   5.670   9.619 -0.2944  0.3543 -0.6889
35528SOL     OW 8590   7.019   3.856   0.538  0.2614 -0.1416  0.0915
35528SOL    HW1 8591   7.103   3.866   0.583 -0.7937  0.1523  2.1349
35528SOL    HW2 8592   6.995   3.764   0.552 -0.2619  0.0510  0.4992
35529SOL     OW 8593   7.264   4.724   2.633  0.3274 -0.6456 -0.2570
35529SOL    HW1 8594   7.243   4.803   2.584  0.9648 -0.8968 -0.9565
35529SOL    HW2 8595   7.356   4.707   2.612  0.4592 -1.0596  0.6082
35530SOL     OW 8596   8.271   7.617   9.979 -0.6039  0.4792  0.2442
35530SOL    HW1 8597   8.334   7.569  10.033  0.0459  1.7179  0.6232
35530SOL    HW2 8598   8.261   7.565   9.900  1.2665  0.4853 -0.0300
35531SOL     OW 8599   3.391  10.289   5.475 -0.3485 -0.3927 -0.3975
35531SOL    HW1 8600   3.400  10.361   5.413 -0.5748 -0.9097 -1.0558
35531SOL    HW2 8601   3.482  10.266   5.497 -0.2864  1.3106  1.3167
35532SOL     OW 8602   0.670  10.978   6.039  0.4328  0.3309  0.2108
35532SOL    HW1 8603   0.735  11.045   6.060 -0.2271  1.3647 -0.9196
35532SOL    HW2 8604   0.606  11.023   5.984  0.2983 -1.3742 -1.1169
35533SOL     OW 8605   2.003   3.296   7.805  0.1029 -0.6231 -0.3345
35533SOL    HW1 8606   1.909   3.305   7.821 -0.0411 -0.8232 -1.0454
35533SOL    HW2 8607   2.010   3.226   7.740  0.8161 -1.4091  0.5641
35534SOL     OW 8608   3.477   7.073   8.845  0.7998  0.5051  0.3988
35534SOL    HW1 8609   3.459   6.979   8.843 -0.7651  0.7850 -0.7173
35534SOL    HW2 8610   3.438   7.107   8.764  0.0505  2.3295  1.4550
35535SOL     OW 8611   5.847   3.399  10.362 -0.6862 -0.2249  0.9536
35535SOL    HW1 8612   5.823   3.424  10.451 -0.0866 -1.1425  1.3839
35535SOL    HW2 8613   5.769   3.417  10.310 -0.2841  2.6130  1.1956
35536SOL     OW 8614   4.415   0.863   5.979  0.2677 -0.0968 -0.0512
35536SOL    HW1 8615   4.344   0.868   6.043 -0.6833  0.5767 -1.1242
35536SOL    HW2 8616   4.490   0.829   6.029 -1.0339 -1.7255  0.9067
35537SOL     OW 8617   2.851   6.003   6.353  0.0399  0.8623 -0.3401
35537SOL    HW1 8618   2.844   6.096   6.332  1.6927  1.0784 -0.0736
35537SOL    HW2 8619   2.914   6.000   6.425  1.3817 -0.6098 -1.5278
35538SOL     OW 8620   0.421   1.819   5.822 -0.1475 -0.3065 -0.3848
35538SOL    HW1 8621   0.403   1.909   5.850  1.7438  0.0308 -0.1410
35538SOL    HW2 8622   0.493   1.828   5.761 -0.6614 -1.5854 -1.2026
35539SOL     OW 8623   8.146   6.801   8.189  0.0617 -0.0930 -0.1560
35539SOL    HW1 8624   8.167   6.713   8.222 -0.0953 -0.0925 -0.0569
35539SOL    HW2 8625   8.190   6.860   8.251  0.8457 -0.1124 -0.6785
35540SOL     OW 8626   4.789  10.293   9.309 -0.3214 -0.0953  0.3415
35540SOL    HW1 8627   4.830  10.208   9.318 -0.2241 -0.3231 -1.7210
35540SOL    HW2 8628   4.846  10.341   9.250 -0.5760  1.2856  1.1666
35541SOL     OW 8629   0.510   5.271   2.024 -0.6619  0.0588  0.3351
35541SOL    HW1 8630   0.473   5.241   2.106 -2.7296  0.1449 -0.4957
35541SOL    HW2 8631   0.489   5.202   1.961 -1.1578  1.0089 -0.5765
35542SOL     OW 8632   6.807   0.785   0.221 -0.2488  0.1316 -0.0434
35542SOL    HW1 8633   6.793   0.784   0.316 -0.8251 -0.7237 -0.1249
35542SOL    HW2 8634   6.833   0.696   0.200 -1.1108  0.0491 -0.8284
35543SOL     OW 8635   8.157   5.544   9.982 -0.1772  0.1373  0.0204
35543SOL    HW1 8636   8.097   5.494  10.036  0.6252  1.7354  2.6010
35543SOL    HW2 8637   8.103   5.612   9.942 -0.8652 -1.3494 -1.6893
35544SOL     OW 8638   3.488   2.143   9.346  0.1743  0.5284 -0.1981
35544SOL    HW1 8639   3.533   2.128   9.263  0.3954  0.4014 -0.0566
35544SOL    HW2 8640   3.497   2.059   9.392 -0.4100  0.4236 -0.2656
35545SOL     OW 8641   0.300   6.616   5.085  0.0987  0.5490 -0.9780
35545SOL    HW1 8642   0.303   6.539   5.028 -0.1806 -1.2370  1.2805
35545SOL    HW2 8643   0.208   6.625   5.108  0.3516  0.4346  0.1627
35546SOL     OW 8644   9.570   4.811   0.143 -0.3506 -0.4674  0.4663
35546SOL    HW1 8645   9.653   4.766   0.159 -0.2977  0.0152  1.6335
35546SOL    HW2 8646   9.524   4.808   0.226  0.7798  3.9216  1.5332
35547SOL     OW 8647   8.368   0.226   0.308 -0.1862 -0.3448  0.3031
35547SOL    HW1 8648   8.432   0.290   0.340 -0.5058  0.4142 -0.5085
35547SOL    HW2 8649   8.317   0.275   0.242  0.5459 -1.8709 -1.4650
35548SOL     OW 8650   7.328   3.824   2.976 -0.2764  0.7703  0.5902
35548SOL    HW1 8651   7.357   3.751   2.921 -1.0234 -0.3205  1.5767
35548SOL    HW2 8652   7.269   3.874   2.920 -0.3453  0.1751  0.1169
35549SOL     OW 8653   8.902   2.240   0.876 -0.5102  0.1414 -0.6334
35549SOL    HW1 8654   8.819   2.287   0.871 -1.3727 -1.1213  0.8621
35549SOL    HW2 8655   8.960   2.287   0.816 -2.6986  0.1999 -2.8615
35550SOL     OW 8656   7.354   6.758   2.539 -0.1490 -0.3469 -0.9249
35550SOL    HW1 8657   7.423   6.703   2.575 -0.1569 -0.7452 -1.5063
35550SOL    HW2 8658   7.366   6.754   2.444  0.6965  1.7671 -0.9637
35551SOL     OW 8659   3.612   9.858   1.925 -0.3522 -0.0585  0.2458
35551SOL    HW1 8660   3.522   9.852   1.957 -0.0420  0.2890  1.1977
35551SOL    HW2 8661   3.645   9.941   1.959  0.8484 -0.9206  1.2783
35552SOL     OW 8662   9.183   0.597   2.735 -0.1095 -0.2408 -0.2941
35552SOL    HW1 8663   9.209   0.506   2.722 -1.0791 -0.3332 -1.8929
35552SOL    HW2 8664   9.265   0.645   2.746  0.6476 -0.9188 -2.3970
35553SOL     OW 8665   8.895   9.845   3.473 -0.4975  0.3216 -0.1851
35553SOL    HW1 8666   8.939   9.928   3.493 -0.3920 -0.0744  1.3362
35553SOL    HW2 8667   8.945   9.808   3.401 -0.0905  1.2338 -0.3793
35554SOL     OW 8668   3.077   7.759  10.180 -0.4068 -0.0404 -0.4165
35554SOL    HW1 8669   3.135   7.834  10.189 -0.8842  0.4606 -1.2780
35554SOL    HW2 8670   3.134   7.683  10.186  0.0694  0.3824  0.6015
35555SOL     OW 8671   4.739   8.502   9.403 -0.5501 -0.0122  0.5274
35555SOL    HW1 8672   4.804   8.446   9.445  1.0009 -0.3025 -2.0079
35555SOL    HW2 8673   4.694   8.445   9.341 -1.8795  0.6444  0.8516
35556SOL     OW 8674   3.741  10.036   7.022  0.1826 -0.5130 -0.3731
35556SOL    HW1 8675   3.767  10.124   7.050 -0.4288 -0.4630  0.0551
35556SOL    HW2 8676   3.800   9.978   7.069 -0.3336 -0.3887  0.4469
35557SOL     OW 8677   4.396   8.317   2.793  0.1562  0.3712 -0.4071
35557SOL    HW1 8678   4.461   8.359   2.850 -0.4903  0.2902  0.4089
35557SOL    HW2 8679   4.409   8.223   2.807 -0.8028  0.3690  0.5422
35558SOL     OW 8680   2.846   6.575   4.323  0.1075 -0.2502  0.2107
35558SOL    HW1 8681   2.918   6.522   4.288  0.2855 -1.4868  2.2902
35558SOL    HW2 8682   2.769   6.518   4.319 -0.1007 -0.0138  0.7526
35559SOL     OW 8683   5.410   0.695   7.485  0.7358 -0.0484 -0.2131
35559SOL    HW1 8684   5.462   0.741   7.419  2.6386  1.1812  1.9428
35559SOL    HW2 8685   5.329   0.745   7.491  1.8930  1.8972  0.5593
35560SOL     OW 8686   3.649   8.059   3.623  0.6222 -0.0777 -0.1953
35560SOL    HW1 8687   3.667   8.040   3.531  1.1515  1.4722 -0.4300
35560SOL    HW2 8688   3.730   8.033   3.668  0.5644 -0.3274 -0.2327
35561SOL     OW 8689   5.972   0.006   1.466 -0.7937  0.3311  0.1911
35561SOL    HW1 8690   6.060   0.031   1.493 -0.7894  0.3465  0.1637
35561SOL    HW2 8691   5.964  -0.086   1.490 -0.6137  0.2112 -0.1988
35562SOL     OW 8692   9.572   8.112   2.988  0.3726 -0.0638 -0.0068
35562SOL    HW1 8693   9.571   8.073   2.900  1.3843  0.2700 -0.1749
35562SOL    HW2 8694   9.485   8.152   2.997 -0.6683 -2.2016  0.1194
35563SOL     OW 8695   3.006   2.100   5.921  0.1409 -0.1212  0.3653
35563SOL    HW1 8696   3.032   2.016   5.885 -1.1974 -0.1322 -0.6296
35563SOL    HW2 8697   2.915   2.087   5.948  0.0856  0.8598  0.6786
35564SOL     OW 8698   9.986  10.709  11.036  0.0636  0.0171  0.2700
35564SOL    HW1 8699   9.996  10.727  10.942 -2.4749  1.5136  0.2071
35564SOL    HW2 8700   9.920  10.640  11.040  0.6765 -0.5352  0.9455
35565SOL     OW 8701   1.681   3.400   1.478 -0.3025  0.3716  0.4105
35565SOL    HW1 8702   1.645   3.334   1.418  0.4454 -1.3353  1.7428
35565SOL    HW2 8703   1.645   3.376   1.564  3.0511 -0.8684  1.6556
35566SOL     OW 8704   2.268  10.826   0.093 -0.5219  0.0771  0.0313
35566SOL    HW1 8705   2.288  10.917   0.071  0.7246 -0.4260 -1.0841
35566SOL    HW2 8706   2.185  10.830   0.140  0.2876  1.9461  1.4427
35567SOL     OW 8707   2.295  10.000   1.885  0.4055  0.2608 -0.2286
35567SOL    HW1 8708   2.349   9.967   1.812  1.3636  2.6760 -0.7064
35567SOL    HW2 8709   2.212   9.953   1.876  2.2185 -3.4992  0.4109
35568SOL     OW 8710   0.190   3.198  10.362  0.1011 -0.4029 -0.1393
35568SOL    HW1 8711   0.250   3.124  10.372  0.1062 -0.4061 -0.1904
35568SOL    HW2 8712   0.137   3.174  10.285  0.5328 -0.0551 -0.5516
35569SOL     OW 8713   1.475   5.891   8.334 -0.1738 -0.1746 -0.2541
35569SOL    HW1 8714   1.490   5.830   8.262 -1.1635  1.7504 -2.2260
35569SOL    HW2 8715   1.446   5.972   8.291 -2.5283  0.5509  2.3995
35570SOL     OW 8716   1.485   4.479   9.971 -1.1235 -0.4908 -0.5143
35570SOL    HW1 8717   1.396   4.459   9.999 -0.3639 -0.3773  2.3018
35570SOL    HW2 8718   1.506   4.410   9.909 -1.2106 -4.3309  3.2388
35571SOL     OW 8719   6.101   8.618   6.523  0.1770 -0.4745 -0.6157
35571SOL    HW1 8720   6.131   8.536   6.483 -0.8109 -0.9105 -0.4953
35571SOL    HW2 8721   6.078   8.673   6.448  0.2144 -0.5534 -0.6858
35572SOL     OW 8722   8.131   2.144   5.789 -0.6776  0.6541  0.2948
35572SOL    HW1 8723   8.176   2.166   5.707 -1.9879  0.1739 -0.5754
35572SOL    HW2 8724   8.201   2.143   5.855  0.5315  0.2624 -0.9529
35573SOL     OW 8725   2.678   4.943   2.464  0.0554  0.3681  0.1715
35573SOL    HW1 8726   2.732   4.991   2.527 -1.4607 -1.0679  2.7198
35573SOL    HW2 8727   2.603   5.000   2.448  0.9643  1.2197 -1.3206
35574SOL     OW 8728   6.474   1.521   2.948  0.3927  0.0431 -0.0923
35574SOL    HW1 8729   6.432   1.436   2.956 -2.2406  1.2691  0.2242
35574SOL    HW2 8730   6.456   1.548   2.858  1.4526  0.1867 -0.2788
35575SOL     OW 8731   0.977   8.341   5.988 -0.1593 -0.2477  0.5262
35575SOL    HW1 8732   1.026   8.386   5.919 -0.8106  0.7275  0.6773
35575SOL    HW2 8733   0.990   8.248   5.970  0.2587 -0.0093 -0.4884
35576SOL     OW 8734   1.580   7.122   8.736  0.3027 -0.1708  0.1237
35576SOL    HW1 8735   1.652   7.185   8.744 -0.6328  0.7824  1.4356
35576SOL    HW2 8736   1.504   7.176   8.712 -0.4043 -0.8673  0.7542
35577SOL     OW 8737   7.861   8.539   6.879 -0.2510 -0.2657  0.2802
35577SOL    HW1 8738   7.819   8.546   6.793 -0.2727  0.8416  0.3662
35577SOL    HW2 8739   7.847   8.448   6.905 -1.8442 -0.1601 -0.0755
35578SOL     OW 8740   3.967   5.471   9.301 -0.1363  0.1449 -0.5270
35578SOL    HW1 8741   3.887   5.502   9.343 -0.1372  1.1454 -1.2406
35578SOL    HW2 8742   3.938   5.406   9.237 -0.2691 -0.2484 -0.0784
35579SOL     OW 8743   8.566   5.903   7.444  0.2699  0.4067  0.3664
35579SOL    HW1 8744   8.597   5.838   7.507 -0.2656 -0.5713 -0.3374
35579SOL    HW2 8745   8.644   5.929   7.395  0.8031  1.6483  1.8147
35580SOL     OW 8746   4.483   9.285   5.024  0.4220  0.3322 -0.1582
35580SOL    HW1 8747   4.507   9.225   5.094 -0.4774  0.2318  0.0634
35580SOL    HW2 8748   4.389   9.300   5.035  0.3838  0.7651 -0.9921
35581SOL     OW 8749  10.331   9.019   7.194 -0.9815 -0.0891  0.4474
35581SOL    HW1 8750  10.291   9.061   7.119 -0.1452  0.0644  0.0694
35581SOL    HW2 8751  10.314   8.925   7.181  0.9109 -0.2967 -1.0691
35582SOL     OW 8752   9.803   5.345  10.048  0.3516 -0.3194 -0.3501
35582SOL    HW1 8753   9.842   5.296   9.976 -2.3052 -1.3299 -1.2335
35582SOL    HW2 8754   9.720   5.376  10.013 -0.5144  0.1183  1.9406
35583SOL     OW 8755   7.209   7.636   3.496  1.0727 -0.1017  0.5337
35583SOL    HW1 8756   7.223   7.682   3.413  1.8366 -1.4305 -0.1056
35583SOL    HW2 8757   7.144   7.689   3.542 -0.9780 -0.4241 -1.7810
35584SOL     OW 8758   2.223   7.845   5.420 -0.2285  0.6932 -0.8849
35584SOL    HW1 8759   2.251   7.937   5.421  2.3310  0.0382  1.5320
35584SOL    HW2 8760   2.204   7.825   5.512 -1.3951 -1.0620 -1.4514
35585SOL     OW 8761   8.753   1.334   9.917  0.2584 -0.5592  0.4009
35585SOL    HW1 8762   8.685   1.402   9.918  0.4851 -0.3366  1.4583
35585SOL    HW2 8763   8.768   1.317   9.824 -0.1802  0.4563  0.1331
35586SOL     OW 8764   7.912  10.290   1.971  0.7852 -0.1911  0.3185
35586SOL    HW1 8765   7.891  10.384   1.970 -2.8938 -0.7955 -3.4353
35586SOL    HW2 8766   8.007  10.287   1.958  0.9399  2.9878 -0.1401
35587SOL     OW 8767   9.420   8.281   8.720  0.9211 -0.4217 -0.5416
35587SOL    HW1 8768   9.483   8.215   8.749 -0.2758 -2.0770 -1.5114
35587SOL    HW2 8769   9.345   8.230   8.688 -0.6729  1.4516  0.0131
35588SOL     OW 8770   1.463   8.682  10.683 -0.1802  0.2813 -0.6018
35588SOL    HW1 8771   1.377   8.657  10.716  0.1475 -1.1079 -0.7565
35588SOL    HW2 8772   1.450   8.771  10.648 -1.4107  0.3003 -0.1452
35589SOL     OW 8773   6.936   7.128   6.487  0.5957 -0.1512 -0.3945
35589SOL    HW1 8774   6.882   7.178   6.549 -0.6056 -2.7011  0.7381
35589SOL    HW2 8775   6.875   7.067   6.446  1.7709  0.1229 -2.7158
35590SOL     OW 8776  10.080  10.641   4.070  0.0357  0.3172  0.3809
35590SOL    HW1 8777  10.126  10.682   4.143 -0.2246 -1.9198  1.9318
35590SOL    HW2 8778  10.148  10.593   4.023 -0.1849 -0.4312  0.8011
35591SOL     OW 8779   6.511   6.625   6.056 -0.2812  0.3343  0.3795
35591SOL    HW1 8780   6.538   6.543   6.099  0.0705  0.2188 -0.0517
35591SOL    HW2 8781   6.457   6.597   5.982 -0.7996  0.5289  0.6805
35592SOL     OW 8782   6.222  10.120   0.557 -0.2869  0.0901 -0.2321
35592SOL    HW1 8783   6.177  10.131   0.474  0.9313  0.7321 -0.8316
35592SOL    HW2 8784   6.293  10.185   0.556  0.6276 -0.8415  0.6815
35593SOL     OW 8785   1.907   2.423   0.380  0.2939 -0.0419 -0.4517
35593SOL    HW1 8786   1.926   2.354   0.443  1.9353  1.3314  0.6276
35593SOL    HW2 8787   1.878   2.376   0.302  0.2672 -1.8840  0.6010
35594SOL     OW 8788   0.913   1.094  10.388  0.3314 -0.1786 -0.4605
35594SOL    HW1 8789   0.972   1.149  10.335 -0.0269  1.1705  0.5053
35594SOL    HW2 8790   0.896   1.145  10.466 -0.2897 -1.5536  0.3355
35595SOL     OW 8791   4.774   0.892  10.855 -0.4313  0.5927 -0.4690
35595SOL    HW1 8792   4.782   0.938  10.771  2.5562  1.2403  0.0632
35595SOL    HW2 8793   4.751   0.961  10.918 -0.9817  0.4028 -0.4526
35596SOL     OW 8794   7.980  10.795   9.558  0.2039  0.1746  0.1754
35596SOL    HW1 8795   8.004  10.883   9.529  0.3498  0.5086  1.2769
35596SOL    HW2 8796   7.984  10.742   9.478  1.5227  0.8626 -0.2533
35597SOL     OW 8797   8.426   9.657   2.528 -0.1748  0.5419  0.9851
35597SOL    HW1 8798   8.354   9.660   2.591 -1.6610  2.0996 -0.6625
35597SOL    HW2 8799   8.399   9.590   2.465  1.6756 -1.5821  2.3096
35598SOL     OW 8800   4.782   8.843   3.809 -0.2097  0.1432 -0.0875
35598SOL    HW1 8801   4.696   8.883   3.816 -0.2882  0.1518 -1.0312
35598SOL    HW2 8802   4.767   8.760   3.764  0.2441  0.0416 -0.0604
35599SOL     OW 8803   2.594   8.547   2.847 -0.4744  0.2358 -0.8142
35599SOL    HW1 8804   2.579   8.608   2.920 -1.3417  0.7463 -1.4080
35599SOL    HW2 8805   2.521   8.486   2.851  1.3702 -2.0444  0.9743
35600SOL     OW 8806   0.926   7.846   0.364  0.1169 -0.3012 -0.0990
35600SOL    HW1 8807   0.897   7.922   0.315  0.6826 -1.5050 -2.4438
35600SOL    HW2 8808   0.846   7.810   0.403 -0.2586  1.0197  0.3891
35601SOL     OW 8809   1.662   1.833   2.103  0.4464 -0.3648 -0.2720
35601SOL    HW1 8810   1.571   1.860   2.117  0.7749  1.7911 -1.7624
35601SOL    HW2 8811   1.656   1.744   2.067 -1.0508 -0.3687 -0.0573
35602SOL     OW 8812   3.474  10.689   4.338 -0.4702  0.5670  0.0456
35602SOL    HW1 8813   3.566  10.676   4.318 -0.5497 -0.2948  0.2204
35602SOL    HW2 8814   3.471  10.771   4.388  0.2535  0.3228  0.4947
35603SOL     OW 8815   9.891   7.181   4.614 -0.2348  0.3414 -0.0427
35603SOL    HW1 8816   9.826   7.151   4.678 -0.3337 -0.2971 -0.4363
35603SOL    HW2 8817   9.883   7.119   4.541  2.6811 -1.4180  0.9890
35604SOL     OW 8818   1.082   8.147   6.292 -0.5469  0.2627 -0.2368
35604SOL    HW1 8819   1.049   8.235   6.274  1.0240  0.5249 -2.0550
35604SOL    HW2 8820   1.162   8.140   6.241 -0.2112 -1.9637  0.4953
35605SOL     OW 8821   3.382   2.566   7.339 -0.9030  0.2999  0.3348
35605SOL    HW1 8822   3.349   2.562   7.250 -0.5339 -2.9659  0.2269
35605SOL    HW2 8823   3.309   2.602   7.391 -0.9580  2.6873 -1.2377
35606SOL     OW 8824   7.830   7.856   8.716  0.0936 -0.7870 -0.5891
35606SOL    HW1 8825   7.896   7.919   8.687  1.2479 -2.1614 -1.0643
35606SOL    HW2 8826   7.826   7.867   8.811 -0.0579  0.2970 -0.7059
35607SOL     OW 8827   3.193   3.950   9.260  0.3383 -0.5486  0.2594
35607SOL    HW1 8828   3.200   3.858   9.234  1.9283  0.0789 -1.7868
35607SOL    HW2 8829   3.110   3.979   9.223 -0.8863 -1.4389  2.1215
35608SOL     OW 8830   2.910   7.448   2.597 -0.1594  0.3678  0.5274
35608SOL    HW1 8831   2.924   7.521   2.537  0.4007  0.0536  0.2632
35608SOL    HW2 8832   2.881   7.488   2.679 -0.5391  0.8289  0.1676
35609SOL     OW 8833   3.722   6.944   9.316  0.0279  0.0208 -0.1418
35609SOL    HW1 8834   3.796   6.925   9.259  0.9804 -1.2847  1.4467
35609SOL    HW2 8835   3.741   7.031   9.352  1.6278 -0.8899  1.3891
35610SOL     OW 8836   2.965   1.044   4.314  0.0249 -0.1802 -1.1043
35610SOL    HW1 8837   3.038   1.085   4.360 -1.0397 -1.1598  1.6614
35610SOL    HW2 8838   2.993   0.954   4.298 -0.2967 -0.3518 -0.7069
35611SOL     OW 8839   7.234   3.841   7.237 -0.1072 -0.6027 -0.4487
35611SOL    HW1 8840   7.180   3.895   7.180  0.1122 -1.3669 -1.4212
35611SOL    HW2 8841   7.283   3.903   7.291 -0.2497  0.1421 -1.1621
35612SOL     OW 8842  10.927   0.620   9.984 -0.6322 -0.3345 -0.1914
35612SOL    HW1 8843  10.914   0.530  10.014  0.6876 -0.8276 -1.0382
35612SOL    HW2 8844  10.919   0.615   9.888  1.4341  0.0627 -0.4185
35613SOL     OW 8845   8.781   8.813   5.977  0.1292  0.3438  0.1956
35613SOL    HW1 8846   8.773   8.743   5.912  0.2675 -0.0551  0.6059
35613SOL    HW2 8847   8.732   8.886   5.939 -0.7321 -0.2458  0.1308
35614SOL     OW 8848   3.168   6.289   1.556  0.1612 -0.6647  0.0803
35614SOL    HW1 8849   3.181   6.277   1.650 -0.9630  1.4305  0.5614
35614SOL    HW2 8850   3.079   6.259   1.540 -0.1005  0.1471 -0.0468
35615SOL     OW 8851   9.908   0.650   9.999 -0.6145 -0.1613 -0.2191
35615SOL    HW1 8852   9.941   0.560   9.999 -0.3019 -0.0720 -1.3837
35615SOL    HW2 8853   9.983   0.703   9.973 -1.4372  0.1205 -2.2147
35616SOL     OW 8854   1.659   3.158   5.152  0.5143 -0.3611  0.3496
35616SOL    HW1 8855   1.617   3.077   5.180  0.6526 -0.7199 -0.4479
35616SOL    HW2 8856   1.674   3.206   5.233  0.9100 -1.3610  0.8902
35617SOL     OW 8857   4.105   9.980   6.224 -0.0080 -0.0957 -0.2185
35617SOL    HW1 8858   4.054  10.061   6.217  0.7520  0.5263  0.9636
35617SOL    HW2 8859   4.054   9.915   6.176 -0.0486  1.3444 -2.2666
35618SOL     OW 8860   2.876   7.646   2.796  0.7425  0.5317 -0.0464
35618SOL    HW1 8861   2.826   7.669   2.875  1.4430 -0.3882  0.6956
35618SOL    HW2 8862   2.931   7.723   2.780  1.3111  0.3665  0.9723
35619SOL     OW 8863   9.695   0.029   7.172  0.4883  0.1587  0.0135
35619SOL    HW1 8864   9.640   0.100   7.204  1.3953  1.1186 -0.5144
35619SOL    HW2 8865   9.691   0.035   7.077 -0.2009 -1.1270 -0.0643
35620SOL     OW 8866   0.733   9.479   4.392 -0.2568  0.0902  0.5321
35620SOL    HW1 8867   0.688   9.554   4.353 -1.5936 -0.9732 -0.0669
35620SOL    HW2 8868   0.698   9.473   4.481  0.5849  0.7479  0.9165
35621SOL     OW 8869   1.522   4.719   4.069  0.0826 -0.0064 -0.6021
35621SOL    HW1 8870   1.580   4.676   4.006 -0.7826  1.3653 -2.4191
35621SOL    HW2 8871   1.545   4.812   4.064 -1.7331  0.4627 -0.7955
35622SOL     OW 8872   9.946   8.027   9.163 -0.4561  0.3574 -0.4514
35622SOL    HW1 8873   9.989   8.019   9.248 -0.2112 -0.4356 -0.6368
35622SOL    HW2 8874   9.989   8.102   9.121  1.8202 -1.2420 -1.2029
35623SOL     OW 8875   5.946   9.733   1.879  0.1883  0.3853 -0.4496
35623SOL    HW1 8876   5.926   9.824   1.859 -2.1235  0.3203  1.0978
35623SOL    HW2 8877   5.887   9.683   1.822  1.2389 -0.1470 -1.0866
35624SOL     OW 8878   0.351   8.808   1.479  0.2319 -0.0866 -0.1449
35624SOL    HW1 8879   0.262   8.843   1.470 -0.0503 -0.2647  1.6852
35624SOL    HW2 8880   0.406   8.886   1.491 -0.0269 -0.0882  1.1677
35625SOL     OW 8881   0.804   1.975   7.781 -0.1466 -0.4064  0.1944
35625SOL    HW1 8882   0.780   1.959   7.690 -0.4193  0.8095  0.0421
35625SOL    HW2 8883   0.762   2.058   7.804  0.1521 -0.5444  1.3422
35626SOL     OW 8884  10.775   1.604   8.163 -0.2043 -0.6224  0.5688
35626SOL    HW1 8885  10.866   1.617   8.136 -0.3496 -0.0364  0.3395
35626SOL    HW2 8886  10.733   1.567   8.085 -0.4388  0.2998  0.2375
35627SOL     OW 8887   7.563  10.957  10.087  0.2819  0.2196 -0.1594
35627SOL    HW1 8888   7.560  11.034  10.144  0.8126  0.2983 -0.2324
35627SOL    HW2 8889   7.656  10.934  10.083  0.3383  0.6272 -1.5585
35628SOL     OW 8890   5.680   1.496   5.550 -0.4426 -0.8032 -0.0128
35628SOL    HW1 8891   5.629   1.486   5.470  0.6377  0.7571 -0.9726
35628SOL    HW2 8892   5.764   1.456   5.530  0.3428  0.8553 -0.2487
35629SOL     OW 8893   2.755   1.119   5.490  0.2589  0.6385 -0.4427
35629SOL    HW1 8894   2.699   1.117   5.413 -1.2884  3.4696  0.4906
35629SOL    HW2 8895   2.708   1.068   5.556  1.0072 -0.7539 -0.9361
35630SOL     OW 8896   7.963   9.044   9.423 -0.2492 -0.1942  0.0588
35630SOL    HW1 8897   7.912   9.112   9.380 -0.7040  0.3305  1.3731
35630SOL    HW2 8898   7.995   8.988   9.351 -2.0153 -0.0932 -0.8433
35631SOL     OW 8899   9.914   4.471   9.579 -0.4358 -0.5418  0.3253
35631SOL    HW1 8900   9.886   4.383   9.556 -0.0156 -0.6416  0.1857
35631SOL    HW2 8901   9.957   4.504   9.500  1.6528 -1.1545  1.1329
35632SOL     OW 8902   3.284   3.676   9.186 -0.5264  0.1545  0.6399
35632SOL    HW1 8903   3.377   3.694   9.191 -0.4842 -0.2190  1.3030
35632SOL    HW2 8904   3.259   3.649   9.275 -1.3246  0.5422  0.5491
35633SOL     OW 8905   5.967  10.261   0.743 -0.4787 -0.1592 -0.3010
35633SOL    HW1 8906   5.932  10.265   0.654 -0.5194  0.0415 -0.2761
35633SOL    HW2 8907   6.020  10.181   0.744 -1.3644 -0.7650 -0.1855
35634SOL     OW 8908   3.282   1.117   5.151  0.1277  0.3020 -0.5050
35634SOL    HW1 8909   3.239   1.063   5.217 -0.2627  1.2847  0.0694
35634SOL    HW2 8910   3.314   1.055   5.086 -1.1543 -0.5381 -0.3607
35635SOL     OW 8911   6.634  10.167   2.806  0.1247 -0.2310  0.2223
35635SOL    HW1 8912   6.711  10.215   2.835  0.0164 -0.7098  1.3574
35635SOL    HW2 8913   6.661  10.075   2.809 -0.5971 -0.4332  1.0327
35636SOL     OW 8914   2.657   5.187   8.912  0.3544 -0.2218  0.2283
35636SOL    HW1 8915   2.618   5.226   8.833 -0.6049 -1.8931 -0.1738
35636SOL    HW2 8916   2.672   5.261   8.970 -2.3568  0.6864 -0.0799
35637SOL     OW 8917   3.931   8.446   5.393  0.2374 -0.5018  0.1619
35637SOL    HW1 8918   3.845   8.488   5.388  1.2535  1.5870 -1.2373
35637SOL    HW2 8919   3.917   8.369   5.447 -2.5096 -0.2228 -0.0201
35638SOL     OW 8920   5.823   0.363   4.632 -0.4200  0.2607 -0.2766
35638SOL    HW1 8921   5.805   0.455   4.614 -0.4657  0.3668  0.3127
35638SOL    HW2 8922   5.741   0.329   4.667 -0.0079  0.3222  0.7765
35639SOL     OW 8923   6.843   5.155   0.125  0.1236 -0.1064  0.6514
35639SOL    HW1 8924   6.750   5.158   0.102 -0.0793 -1.2284  1.2659
35639SOL    HW2 8925   6.889   5.165   0.042 -0.5643 -0.9160  0.1631
35640SOL     OW 8926   6.214   8.495   8.453  1.0002 -0.4531  0.1291
35640SOL    HW1 8927   6.270   8.457   8.386 -0.0593  1.3700 -1.9159
35640SOL    HW2 8928   6.209   8.428   8.522  0.6070 -3.2278 -2.4159
35641SOL     OW 8929   9.242   1.267  10.191  0.1530  0.3188 -0.4138
35641SOL    HW1 8930   9.189   1.243  10.115  0.5573  2.9097 -1.6429
35641SOL    HW2 8931   9.332   1.248  10.165  0.2912  1.1928 -0.5986
35642SOL     OW 8932   3.920   7.517   9.321 -0.3700  0.2313  0.3534
35642SOL    HW1 8933   3.953   7.604   9.344 -0.3816  0.0564  1.0780
35642SOL    HW2 8934   3.986   7.457   9.356 -0.1526 -0.0445 -0.5117
35643SOL     OW 8935  10.389   6.997   6.744 -0.1382  0.0218  0.1706
35643SOL    HW1 8936  10.328   7.038   6.683 -0.1156  1.0271  0.7800
35643SOL    HW2 8937  10.346   7.005   6.829  0.6177  0.3008  0.5376
35644SOL     OW 8938   4.639   4.669   3.285  0.0819  0.2627 -0.1722
35644SOL    HW1 8939   4.553   4.707   3.304  0.0675 -0.9294  2.6908
35644SOL    HW2 8940   4.690   4.687   3.364  1.5391 -1.5599 -0.6436
35645SOL     OW 8941   6.779   9.229   3.398 -0.2984 -0.0699 -0.4616
35645SOL    HW1 8942   6.768   9.304   3.339  0.1735  1.0033  0.7719
35645SOL    HW2 8943   6.764   9.266   3.485  1.7752 -1.0025  0.3361
35646SOL     OW 8944   6.195   1.423   3.358 -0.3790 -0.1073 -0.4025
35646SOL    HW1 8945   6.196   1.519   3.360 -0.3322 -0.1264  0.7115
35646SOL    HW2 8946   6.102   1.400   3.353 -0.4567 -0.0209  0.5939
35647SOL     OW 8947   8.809   0.188   7.006 -0.1140  0.1854 -0.1031
35647SOL    HW1 8948   8.872   0.261   7.012 -1.4172  1.2236  1.6254
35647SOL    HW2 8949   8.864   0.112   6.989  1.6129  1.1069  0.9704
35648SOL     OW 8950   9.934   9.754   9.650  0.0085 -0.2846 -0.0942
35648SOL    HW1 8951   9.844   9.726   9.666  0.5520 -1.4843  1.0631
35648SOL    HW2 8952   9.968   9.778   9.736  0.4958  1.1957 -0.6607
35649SOL     OW 8953   3.167   6.323   6.310  0.0392 -0.4128  0.1175
35649SOL    HW1 8954   3.084   6.275   6.301 -0.2770  0.1150  0.2221
35649SOL    HW2 8955   3.194   6.339   6.219 -0.1382 -0.2938  0.0859
35650SOL     OW 8956   5.486   1.299  10.650  0.2283  0.0095 -0.2385
35650SOL    HW1 8957   5.487   1.296  10.555 -0.4369 -1.8474 -0.2352
35650SOL    HW2 8958   5.420   1.233  10.675 -0.5964  1.4109  1.4736
35651SOL     OW 8959   3.423   9.284   0.452 -0.7326 -0.4379 -0.7925
35651SOL    HW1 8960   3.382   9.369   0.433 -0.3466 -0.0909 -0.1287
35651SOL    HW2 8961   3.363   9.243   0.514 -2.0408 -1.6097 -2.7088
35652SOL     OW 8962   2.412   6.589   5.190  0.0070 -0.8973  0.0150
35652SOL    HW1 8963   2.325   6.578   5.227 -0.1135 -2.6622 -0.6709
35652SOL    HW2 8964   2.415   6.680   5.162 -0.9783 -0.3480  1.5691
35653SOL     OW 8965   2.478   3.404   2.712 -0.4216 -1.0321  0.9753
35653SOL    HW1 8966   2.403   3.441   2.759  0.7737  1.3873  1.1319
35653SOL    HW2 8967   2.555   3.436   2.760  0.7638 -1.3978 -0.5946
35654SOL     OW 8968   1.738   9.192   0.139 -0.2572 -0.4328 -0.0373
35654SOL    HW1 8969   1.765   9.238   0.060  0.5879 -0.0314  0.4678
35654SOL    HW2 8970   1.794   9.115   0.142  0.8914  0.3965  1.0107
35655SOL     OW 8971  10.899   8.531   1.384 -0.0461  1.5058  0.2492
35655SOL    HW1 8972  10.822   8.583   1.361 -1.4882  0.4193  2.3747
35655SOL    HW2 8973  10.918   8.482   1.304 -1.8945  1.4095 -0.1922
35656SOL     OW 8974   8.348   5.934   0.562  0.0703 -0.0989 -0.2531
35656SOL    HW1 8975   8.268   5.889   0.588  1.9261 -3.0972  0.7355
35656SOL    HW2 8976   8.324   5.983   0.484 -3.1266  0.6659  1.0618
35657SOL     OW 8977   4.262   2.307   8.028  0.2926 -0.4306 -0.0363
35657SOL    HW1 8978   4.259   2.224   7.979 -1.3524  0.6585 -1.9178
35657SOL    HW2 8979   4.176   2.346   8.015  0.8099  1.3290  1.3469
35658SOL     OW 8980   3.682   7.283   2.287 -0.7575 -0.7566 -0.1278
35658SOL    HW1 8981   3.722   7.295   2.201 -1.5249  0.6349 -0.3361
35658SOL    HW2 8982   3.716   7.356   2.340 -1.5159 -0.6658  0.2515
35659SOL     OW 8983   6.399   2.516   1.880 -0.0560 -0.3573  0.3828
35659SOL    HW1 8984   6.350   2.583   1.833  0.0538 -1.7697 -1.9219
35659SOL    HW2 8985   6.336   2.445   1.892  0.8533 -1.4624 -0.9987
35660SOL     OW 8986   3.229   8.135   7.763  0.3362  0.3548  0.1591
35660SOL    HW1 8987   3.154   8.081   7.792 -1.9462  1.7158 -2.7130
35660SOL    HW2 8988   3.266   8.087   7.690 -1.1164  2.0200 -1.7987
35661SOL     OW 8989   3.784   1.398   6.649 -0.0811  0.5992  0.0865
35661SOL    HW1 8990   3.697   1.363   6.665  0.3347 -0.7057 -0.3937
35661SOL    HW2 8991   3.843   1.326   6.670  0.9273  1.5887  0.8142
35662SOL     OW 8992   5.345   2.074   5.806  0.0969  0.2159 -0.5141
35662SOL    HW1 8993   5.295   1.997   5.834 -1.6610  1.8876  1.2409
35662SOL    HW2 8994   5.435   2.042   5.800 -0.0509 -1.3745  3.0571
35663SOL     OW 8995   8.897   3.788   0.678  0.3086  0.4246  0.3522
35663SOL    HW1 8996   8.991   3.796   0.690  0.9255  0.2142 -3.2665
35663SOL    HW2 8997   8.860   3.862   0.725  2.1957  0.3435  2.1022
35664SOL     OW 8998   3.284  10.360   1.622  0.5285 -0.9338  0.3703
35664SOL    HW1 8999   3.277  10.445   1.665 -0.4585  0.2549 -2.0231
35664SOL    HW2 9000   3.378  10.341   1.622  1.0312  1.2605 -1.0071
35665SOL     OW 9001   9.578   5.371   3.669  0.5215 -0.7422 -0.2323
35665SOL    HW1 9002   9.626   5.336   3.744  1.1386 -1.2876 -0.8614
35665SOL    HW2 9003   9.630   5.344   3.593  0.5794  0.8645 -0.8010
35666SOL     OW 9004   8.417   6.002   6.279 -0.0058 -0.1486  0.2528
35666SOL    HW1 9005   8.366   6.081   6.261 -0.6120 -0.9339 -1.7743
35666SOL    HW2 9006   8.402   5.985   6.372  0.2338  2.1429  0.7758
35667SOL     OW 9007   2.740   2.209   7.227 -0.0436  0.6676 -0.5000
35667SOL    HW1 9008   2.830   2.210   7.195  0.7441 -1.9931  1.3193
35667SOL    HW2 9009   2.692   2.157   7.163  0.2477  0.1367 -0.2903
35668SOL     OW 9010   8.961   5.912   1.076 -0.3081 -0.4155 -0.0031
35668SOL    HW1 9011   8.877   5.896   1.119 -0.5243 -1.0152 -0.6353
35668SOL    HW2 9012   9.007   5.971   1.135 -1.6817  0.9785 -0.2404
35669SOL     OW 9013   3.845   3.324  10.238  0.2794  0.0653 -0.1411
35669SOL    HW1 9014   3.858   3.338  10.332 -1.0826  2.3373 -0.2147
35669SOL    HW2 9015   3.906   3.255  10.215  1.4824  0.2685  2.1971
35670SOL     OW 9016  10.041   5.618  10.614 -0.3685 -0.2195  0.3646
35670SOL    HW1 9017  10.073   5.528  10.621  0.2723  0.0765  1.4629
35670SOL    HW2 9018   9.947   5.611  10.631 -0.0470 -0.4843  2.2597
35671SOL     OW 9019   7.466   5.063   3.416  0.3119  0.5408 -0.1192
35671SOL    HW1 9020   7.441   5.142   3.464 -0.9936  0.7549 -1.1067
35671SOL    HW2 9021   7.466   4.994   3.482 -1.4257  0.8247  0.2123
35672SOL     OW 9022   6.811   8.920   6.117  0.1486  0.3279 -0.0761
35672SOL    HW1 9023   6.839   8.911   6.026 -0.7150 -1.5209 -0.1979
35672SOL    HW2 9024   6.722   8.955   6.112  0.3501  0.8826  0.1020
35673SOL     OW 9025   5.278   0.389   8.883 -0.2003 -0.9846 -0.2682
35673SOL    HW1 9026   5.374   0.391   8.872 -0.2550  1.0067 -0.6400
35673SOL    HW2 9027   5.250   0.315   8.829  1.0088 -0.7829 -1.2248
35674SOL     OW 9028   9.566   1.332   2.180  0.1357 -0.2482 -0.1750
35674SOL    HW1 9029   9.661   1.321   2.181  0.2518  0.4839 -1.1021
35674SOL    HW2 9030   9.551   1.406   2.121 -0.9533  0.3128  0.7593
35675SOL     OW 9031   3.683   7.382   7.863 -0.1110  0.1347  0.3628
35675SOL    HW1 9032   3.747   7.449   7.886 -0.0062 -0.2297  1.1592
35675SOL    HW2 9033   3.630   7.423   7.795  1.7683 -0.0076 -1.2937
35676SOL     OW 9034   3.381   5.505   3.859  0.1777 -0.1121 -0.1338
35676SOL    HW1 9035   3.366   5.410   3.860 -0.4030 -0.0512 -1.4282
35676SOL    HW2 9036   3.297   5.543   3.833  0.9560  0.6022 -1.7733
35677SOL     OW 9037   7.903   3.407   2.211 -0.8357 -0.1828  0.3766
35677SOL    HW1 9038   7.981   3.455   2.240  1.0543 -2.3655 -0.7110
35677SOL    HW2 9039   7.884   3.442   2.124  1.8870 -2.6442 -1.3780
35678SOL     OW 9040   8.788   9.499   4.901  0.0745  0.4197  0.1585
35678SOL    HW1 9041   8.822   9.411   4.916 -0.5317  0.3296  1.0654
35678SOL    HW2 9042   8.847   9.556   4.951 -0.8717  0.2908  1.4846
35679SOL     OW 9043   8.155   7.126   0.146 -0.3548  0.7529 -0.2839
35679SOL    HW1 9044   8.090   7.098   0.082  0.9826  1.6156 -2.0840
35679SOL    HW2 9045   8.104   7.143   0.226 -1.9779 -0.9323 -0.8931
35680SOL     OW 9046   8.035   8.219   9.326  1.0364  0.9360  0.2758
35680SOL    HW1 9047   8.098   8.291   9.316  1.0039  0.8578 -0.5730
35680SOL    HW2 9048   7.986   8.241   9.405 -0.5805  3.1229 -1.2096
35681SOL     OW 9049   5.704  10.470   2.262  0.0680  0.3884 -0.1133
35681SOL    HW1 9050   5.711  10.479   2.357 -2.4456 -0.6792  0.2462
35681SOL    HW2 9051   5.740  10.383   2.244  0.4966  0.5690 -0.1341
35682SOL     OW 9052   1.372   9.388   0.774 -0.3821  0.0356 -0.3705
35682SOL    HW1 9053   1.311   9.341   0.831 -2.9360  2.4188 -0.9211
35682SOL    HW2 9054   1.327   9.395   0.690  2.2627 -1.2189 -2.0373
35683SOL     OW 9055   7.575   2.580   0.998 -0.0509  0.0156 -0.2466
35683SOL    HW1 9056   7.603   2.639   0.928 -0.7574  0.5484 -0.0910
35683SOL    HW2 9057   7.557   2.497   0.954  0.5133  0.0488 -0.5391
35684SOL     OW 9058   3.915   4.096   3.783  0.6489 -0.5763 -0.1652
35684SOL    HW1 9059   3.995   4.053   3.813  1.7654  1.1692 -0.5519
35684SOL    HW2 9060   3.942   4.148   3.707 -0.5880  1.0151  0.4306
35685SOL     OW 9061   1.530   9.635   2.260  0.1284  0.2040  0.2840
35685SOL    HW1 9062   1.488   9.580   2.326  0.2595  0.2853  0.4335
35685SOL    HW2 9063   1.578   9.701   2.310 -1.9709  1.9652  0.1211
35686SOL     OW 9064   8.132   3.655   8.041  0.0345  0.1331 -0.5568
35686SOL    HW1 9065   8.093   3.575   8.008 -1.3765  0.5347  0.0842
35686SOL    HW2 9066   8.179   3.629   8.120 -2.0781  0.2078  0.7949
35687SOL     OW 9067   6.660   5.543   0.121  0.2754  0.4488  0.8452
35687SOL    HW1 9068   6.602   5.504   0.056 -0.2569  1.8841  0.4295
35687SOL    HW2 9069   6.633   5.502   0.204  0.9464 -1.3673  0.2084
35688SOL     OW 9070   3.603   6.840   0.252 -0.0801 -0.3926 -0.1793
35688SOL    HW1 9071   3.517   6.838   0.293  0.3116 -1.4469  0.6256
35688SOL    HW2 9072   3.647   6.760   0.282  1.0503 -0.0607 -0.8586
35689SOL     OW 9073   5.561   6.711   7.057 -0.0997  0.2570 -0.1647
35689SOL    HW1 9074   5.599   6.690   6.972 -0.9248 -1.0968 -0.2338
35689SOL    HW2 9075   5.619   6.668   7.120  0.1410  0.7058 -0.0743
35690SOL     OW 9076   8.546   3.246   5.513 -0.0489  0.4225  0.3645
35690SOL    HW1 9077   8.460   3.237   5.555 -0.0341  2.2788  0.8831
35690SOL    HW2 9078   8.554   3.340   5.496  0.8465 -0.0226 -1.9443
35691SOL     OW 9079   2.286   9.174   2.311 -0.1159  0.1757  0.3003
35691SOL    HW1 9080   2.264   9.104   2.249 -2.2469 -0.9961  2.2134
35691SOL    HW2 9081   2.230   9.247   2.285 -0.8380 -0.2365  0.6467
35692SOL     OW 9082  10.217   8.249   4.615 -0.6766 -0.2260  0.0370
35692SOL    HW1 9083  10.285   8.215   4.557 -0.5137 -2.6136  1.4896
35692SOL    HW2 9084  10.264   8.282   4.691 -0.9804  1.6167 -0.5173
35693SOL     OW 9085   3.675   6.533   2.968  0.0289  0.3038  0.0303
35693SOL    HW1 9086   3.670   6.441   2.994 -0.0181  0.4453  0.5285
35693SOL    HW2 9087   3.758   6.540   2.920  0.2916  0.1159  0.4544
35694SOL     OW 9088   8.961   1.586   6.345 -0.6630  1.1517 -0.8351
35694SOL    HW1 9089   9.030   1.526   6.372 -2.0266  0.4888  1.3741
35694SOL    HW2 9090   8.898   1.531   6.297  0.1901  1.7178 -2.6823
35695SOL     OW 9091   8.719  10.394   3.578  0.2666 -0.0559 -0.2725
35695SOL    HW1 9092   8.654  10.325   3.563  1.2101 -0.5447 -2.6010
35695SOL    HW2 9093   8.750  10.379   3.667 -3.2862  0.6919  1.2805
35696SOL     OW 9094   7.841   1.230   1.391 -0.0128 -0.8878  0.2823
35696SOL    HW1 9095   7.865   1.295   1.325 -1.6895 -2.8272 -2.4394
35696SOL    HW2 9096   7.752   1.254   1.417  0.1386 -0.9173  0.8388
35697SOL     OW 9097   2.742   2.450   8.695  0.0889  0.3347  0.5382
35697SOL    HW1 9098   2.811   2.516   8.685  0.1340  0.3488  0.9256
35697SOL    HW2 9099   2.716   2.429   8.605  1.6115 -0.7219  0.3024
35698SOL     OW 9100   0.920   4.709   8.020  0.9693 -0.2601 -0.2345
35698SOL    HW1 9101   0.966   4.733   8.101  0.7705  0.9149 -0.4569
35698SOL    HW2 9102   0.907   4.792   7.974 -0.3251 -0.7173 -0.7306
35699SOL     OW 9103   5.393   9.498   0.147 -0.2276  0.2204 -0.0790
35699SOL    HW1 9104   5.410   9.578   0.097  2.0496 -0.9090 -1.2109
35699SOL    HW2 9105   5.417   9.520   0.236  0.7998  0.6985 -0.4599
35700SOL     OW 9106   7.613   4.532   9.769 -0.5026  0.0376  0.0934
35700SOL    HW1 9107   7.557   4.544   9.846 -1.3965  0.1293 -0.5629
35700SOL    HW2 9108   7.697   4.569   9.795 -0.8749  0.3272  0.9308
35701SOL     OW 9109   5.346   3.257  10.426 -0.2249 -0.7781  0.3523
35701SOL    HW1 9110   5.375   3.336  10.379 -0.4556 -1.5515 -1.1767
35701SOL    HW2 9111   5.250   3.263  10.424 -0.2768  0.3143  2.8173
35702SOL     OW 9112   9.032   9.414  10.893 -0.2520  0.0669  0.1841
35702SOL    HW1 9113   8.990   9.455  10.969  1.1154  0.5259  0.7294
35702SOL    HW2 9114   8.960   9.380  10.841 -1.3124  1.1745  0.8736
35703SOL     OW 9115   9.279   7.884   3.005  0.1160  0.2720 -0.1151
35703SOL    HW1 9116   9.191   7.907   2.978 -0.5575 -1.7849  0.1421
35703SOL    HW2 9117   9.282   7.902   3.099 -0.2275 -0.1893 -0.0137
35704SOL     OW 9118   6.414   8.666   3.233  1.1547 -0.2059  0.0684
35704SOL    HW1 9119   6.467   8.738   3.266  0.5130  0.6642 -0.7672
35704SOL    HW2 9120   6.323   8.693   3.249  0.9042 -0.7229 -0.4290
35705SOL     OW 9121   3.061   0.538   0.458  0.1068 -0.1319  0.4556
35705SOL    HW1 9122   3.106   0.613   0.420  1.5231 -1.0351  0.2636
35705SOL    HW2 9123   3.078   0.467   0.396 -1.5593 -0.5351  0.4155
35706SOL     OW 9124   5.799   5.993   9.064 -0.5485 -0.2372  0.1781
35706SOL    HW1 9125   5.858   5.998   9.140 -0.6241  1.8757  0.1487
35706SOL    HW2 9126   5.744   6.071   9.071 -0.5139  0.0476 -2.0780
35707SOL     OW 9127   0.208   9.228   9.162  0.1385 -0.5111  0.2831
35707SOL    HW1 9128   0.192   9.229   9.068 -1.8504  2.5777  0.5232
35707SOL    HW2 9129   0.155   9.155   9.194 -1.4430  0.1701 -0.7014
35708SOL     OW 9130  10.342  10.538   8.967 -0.0728 -0.2470  0.3555
35708SOL    HW1 9131  10.433  10.569   8.961 -0.1877  0.1231  0.5048
35708SOL    HW2 9132  10.339  10.463   8.908 -0.3204  1.2764 -1.6796
35709SOL     OW 9133   3.380   1.416   9.588 -0.5615 -0.2098 -0.1692
35709SOL    HW1 9134   3.374   1.391   9.680  1.0225 -0.6546 -0.1622
35709SOL    HW2 9135   3.300   1.466   9.571 -0.8920 -0.1613  1.4265
35710SOL     OW 9136   1.197   6.666   4.360  0.1002  0.7612 -0.4880
35710SOL    HW1 9137   1.255   6.591   4.365 -0.7385 -0.2348 -3.3394
35710SOL    HW2 9138   1.249   6.735   4.318  0.0944  0.8671 -0.3223
35711SOL     OW 9139   5.729   5.573  10.953 -0.1729  0.0766  0.1379
35711SOL    HW1 9140   5.816   5.538  10.974  0.0434  1.2138  1.3402
35711SOL    HW2 9141   5.676   5.554  11.031 -0.8092 -0.0072 -0.3086
35712SOL     OW 9142   6.887   4.550  10.501 -0.0490 -0.3434 -0.5144
35712SOL    HW1 9143   6.812   4.563  10.559 -0.0210  1.9289 -0.9018
35712SOL    HW2 9144   6.933   4.634  10.502  1.5139 -1.1339 -1.6731
35713SOL     OW 9145   4.268   4.377   0.850  0.6919 -0.1521  0.5835
35713SOL    HW1 9146   4.312   4.411   0.772  1.9611 -2.0262  0.4098
35713SOL    HW2 9147   4.210   4.448   0.877  0.9681  0.9547 -1.4546
35714SOL     OW 9148   1.262   1.251   9.085 -0.2614 -0.2041  0.2615
35714SOL    HW1 9149   1.228   1.177   9.034 -1.1752  0.8317 -0.6923
35714SOL    HW2 9150   1.357   1.243   9.078 -0.3648 -0.6134 -0.8442
35715SOL     OW 9151   6.370   3.610   0.464 -0.2504  0.1055 -0.0993
35715SOL    HW1 9152   6.352   3.703   0.480  1.3434  0.4293  0.0418
35715SOL    HW2 9153   6.464   3.601   0.484  0.0348 -1.1426 -1.8190
35716SOL     OW 9154   3.321  10.989   0.827  0.3906  0.1713 -0.2509
35716SOL    HW1 9155   3.371  11.050   0.881  0.7421  0.7525 -1.2050
35716SOL    HW2 9156   3.378  10.972   0.751 -0.1856 -0.4378 -0.5591
35717SOL     OW 9157   3.256   0.670   7.554  0.4658 -0.2465  1.3479
35717SOL    HW1 9158   3.189   0.626   7.606  0.4744 -0.5241  1.1297
35717SOL    HW2 9159   3.317   0.705   7.619  0.1662 -0.0790  1.5437
35718SOL     OW 9160   5.578   2.856   4.746  0.7343 -0.3216  0.0250
35718SOL    HW1 9161   5.606   2.780   4.797  0.9304 -0.3033 -0.0556
35718SOL    HW2 9162   5.617   2.843   4.659  0.9391 -0.0289  0.0703
35719SOL     OW 9163  10.586   7.995   6.200  0.0700 -0.2794  0.1423
35719SOL    HW1 9164  10.589   8.075   6.148 -0.5937  0.6268  1.4410
35719SOL    HW2 9165  10.531   8.018   6.275  0.2142 -1.8340  0.7476
35720SOL     OW 9166  10.986  10.098   2.079 -0.0246  0.4528  0.5255
35720SOL    HW1 9167  10.930  10.134   2.148  0.1243  0.5348  0.6040
35720SOL    HW2 9168  11.019  10.175   2.032  1.6155  0.5291  1.7146
35721SOL     OW 9169  10.059   2.131   7.635 -0.7718  0.1602  0.0596
35721SOL    HW1 9170  10.025   2.214   7.602  0.5562  0.8965  0.5000
35721SOL    HW2 9171  10.128   2.155   7.697  0.6939 -1.2613 -0.9238
35722SOL     OW 9172   9.847   6.251   8.144 -0.2191 -0.2582 -0.6189
35722SOL    HW1 9173   9.937   6.277   8.123 -0.0594 -0.6134 -0.3649
35722SOL    HW2 9174   9.801   6.334   8.158  0.1574 -0.0911 -0.3715
35723SOL     OW 9175   4.708   4.991   3.441  0.3716 -0.0061 -0.4352
35723SOL    HW1 9176   4.726   5.046   3.517 -0.0390  0.8328 -0.9309
35723SOL    HW2 9177   4.767   4.916   3.451  0.7014  0.3540  0.4252
35724SOL     OW 9178   0.429  10.061   8.607  0.4232  0.0647 -0.2201
35724SOL    HW1 9179   0.346  10.017   8.624  0.7538 -1.4725 -2.1653
35724SOL    HW2 9180   0.423  10.143   8.655 -1.3214 -0.9418  1.4283
35725SOL     OW 9181   6.203   1.419   2.291  0.2661 -0.3813  0.2638
35725SOL    HW1 9182   6.284   1.450   2.250 -0.0540 -0.7071 -0.6315
35725SOL    HW2 9183   6.153   1.499   2.308  0.3154 -0.2485 -0.1876
35726SOL     OW 9184   3.878   5.355  10.667  0.4779 -0.2701 -0.2770
35726SOL    HW1 9185   3.823   5.310  10.603  0.2507 -0.9470  0.3881
35726SOL    HW2 9186   3.954   5.297  10.678  2.1417  1.3686 -2.3556
35727SOL     OW 9187   3.755   2.653   0.881  0.9778 -0.1041  0.1460
35727SOL    HW1 9188   3.754   2.748   0.891  0.6779 -0.2468  1.6427
35727SOL    HW2 9189   3.702   2.621   0.953 -0.0082 -1.3655 -1.0930
35728SOL     OW 9190   1.029   3.133   6.265 -0.3556  0.0678 -0.1490
35728SOL    HW1 9191   1.087   3.070   6.308 -1.2267  0.1086  1.1563
35728SOL    HW2 9192   1.031   3.210   6.322 -1.3293  0.2307 -0.3151
35729SOL     OW 9193  10.955   8.457   9.641  0.2099 -0.0253 -0.5157
35729SOL    HW1 9194  10.883   8.402   9.609 -0.6241 -0.0115  1.2111
35729SOL    HW2 9195  11.016   8.395   9.681 -0.6046  0.1946  1.1929
35730SOL     OW 9196   7.610   9.995   3.790  0.1459  0.0677  0.4972
35730SOL    HW1 9197   7.671  10.016   3.862 -0.6895  1.3774  0.8713
35730SOL    HW2 9198   7.652  10.032   3.713  2.0104 -3.0497 -0.1431
35731SOL     OW 9199   8.552   3.151   6.906 -0.5824  0.2434  0.3485
35731SOL    HW1 9200   8.502   3.184   6.831 -0.0611 -1.5940 -0.8759
35731SOL    HW2 9201   8.614   3.221   6.927 -0.7331  0.7940 -0.9704
35732SOL     OW 9202   6.902   6.961   2.375  0.3203  0.6347 -0.0330
35732SOL    HW1 9203   6.942   6.915   2.302  0.9236  0.1422  0.5946
35732SOL    HW2 9204   6.964   7.031   2.397  0.6521  0.1294  0.6715
35733SOL     OW 9205   4.202   1.579   9.996 -0.0585 -0.4259 -0.3842
35733SOL    HW1 9206   4.136   1.514   9.970 -0.9854  0.2999  0.0983
35733SOL    HW2 9207   4.151   1.652  10.031  1.0281 -0.2152  0.8348
35734SOL     OW 9208  10.269   4.824   2.199  0.1315 -0.0875 -0.0803
35734SOL    HW1 9209  10.342   4.834   2.260 -0.4986 -1.9870  1.0692
35734SOL    HW2 9210  10.300   4.864   2.118  1.9095  0.3855  0.7835
35735SOL     OW 9211   8.951   2.819   6.466 -0.5345 -0.3729 -0.0729
35735SOL    HW1 9212   8.915   2.773   6.390 -0.4945 -0.5498  0.0146
35735SOL    HW2 9213   8.903   2.782   6.541  0.3715 -1.1776  0.1271
35736SOL     OW 9214   8.453   3.934   0.701  0.0573 -0.2341  0.0204
35736SOL    HW1 9215   8.536   3.980   0.716 -0.1207  0.3803 -0.7916
35736SOL    HW2 9216   8.414   3.925   0.788  0.6421  0.1184  0.3241
35737SOL     OW 9217   6.638   1.259   7.029  0.3188 -0.0714 -0.5142
35737SOL    HW1 9218   6.723   1.301   7.014 -0.3921  2.1354  1.2237
35737SOL    HW2 9219   6.577   1.307   6.973 -0.1144 -0.4652 -0.3873
35738SOL     OW 9220   9.837   4.644   0.915  0.0162  0.0652 -0.0046
35738SOL    HW1 9221   9.846   4.549   0.908  2.0892  0.2289 -0.1895
35738SOL    HW2 9222   9.924   4.674   0.940 -0.5320  1.9483 -0.2428
35739SOL     OW 9223   8.543   5.450   5.200 -0.0192 -0.1780  0.3507
35739SOL    HW1 9224   8.522   5.433   5.108 -1.3899  1.0640  0.3870
35739SOL    HW2 9225   8.595   5.531   5.198  1.0932 -0.8688  0.5936
35740SOL     OW 9226   8.006   8.154   3.320 -0.1356  0.4835 -0.0875
35740SOL    HW1 9227   8.035   8.244   3.304  0.1069  0.8279  2.0412
35740SOL    HW2 9228   8.039   8.105   3.244 -0.0536  2.1182 -1.1592
35741SOL     OW 9229   4.703   5.579   1.831  0.4361 -0.2389 -0.5194
35741SOL    HW1 9230   4.720   5.602   1.922 -0.6889 -0.0266 -0.3585
35741SOL    HW2 9231   4.620   5.621   1.810 -0.2762 -1.8409 -1.0567
35742SOL     OW 9232   7.705   2.366   9.602  0.1032 -0.0755  0.3684
35742SOL    HW1 9233   7.768   2.300   9.629  0.0745 -0.8626 -1.3528
35742SOL    HW2 9234   7.627   2.317   9.576  0.5531  0.4233 -2.2816
35743SOL     OW 9235   6.778   0.345   7.761 -0.1107 -0.1951  0.2129
35743SOL    HW1 9236   6.736   0.374   7.680 -0.3924 -0.7416  0.1633
35743SOL    HW2 9237   6.857   0.299   7.733  1.1370  1.7526  0.3356
35744SOL     OW 9238   8.644   2.819   6.466 -0.0195  0.4029  0.2130
35744SOL    HW1 9239   8.676   2.876   6.536  1.5808 -0.1587 -0.0172
35744SOL    HW2 9240   8.646   2.874   6.388 -1.0404  0.7897  0.4365
35745SOL     OW 9241   8.530   5.872   0.217  0.0003 -0.6721  0.7019
35745SOL    HW1 9242   8.447   5.838   0.183 -0.2080  1.9006 -1.6753
35745SOL    HW2 9243   8.596   5.841   0.155  0.5220 -0.9191  1.3687
35746SOL     OW 9244   1.788   6.289   0.585  0.6776  0.4036  0.0844
35746SOL    HW1 9245   1.721   6.354   0.606 -0.4621 -1.3699  2.3296
35746SOL    HW2 9246   1.871   6.330   0.611 -0.0322  0.9236  1.6208
35747SOL     OW 9247   8.213   4.729   5.460 -0.1124 -0.0441  0.3341
35747SOL    HW1 9248   8.284   4.676   5.425  1.3251  2.0604 -0.1384
35747SOL    HW2 9249   8.133   4.683   5.434  1.0327 -1.4951 -0.7597
35748SOL     OW 9250   1.753   3.649   3.630  0.2062 -0.1208  0.2042
35748SOL    HW1 9251   1.799   3.598   3.564  0.9469 -0.2679  0.8159
35748SOL    HW2 9252   1.748   3.591   3.706  0.7166  0.5742  0.7843
35749SOL     OW 9253   8.450   6.688   7.946 -0.0171  0.6768  0.2044
35749SOL    HW1 9254   8.526   6.644   7.985  0.0274 -0.3587 -0.9843
35749SOL    HW2 9255   8.475   6.780   7.942 -0.3833  1.0331  3.4178
35750SOL     OW 9256   8.233   5.661  10.706 -0.4535 -0.1022  0.3295
35750SOL    HW1 9257   8.248   5.742  10.657 -2.9671  0.2314 -0.0170
35750SOL    HW2 9258   8.315   5.645  10.752  0.5444  1.9161 -0.6281
35751SOL     OW 9259  10.099   7.658   8.887  0.2495 -0.6301 -0.0500
35751SOL    HW1 9260  10.038   7.726   8.857  1.3278 -1.2893 -4.4850
35751SOL    HW2 9261  10.174   7.706   8.921  0.2709  0.4556 -1.5181
35752SOL     OW 9262   5.077   7.249   2.530  0.1415 -0.1901  0.8669
35752SOL    HW1 9263   5.006   7.185   2.535 -0.2507  0.2667  1.2486
35752SOL    HW2 9264   5.038   7.330   2.563  0.2738  0.5510 -0.7125
35753SOL     OW 9265   6.861  10.563   0.590  0.0347  0.2198 -0.9086
35753SOL    HW1 9266   6.873  10.511   0.669  1.2237  0.6560 -0.7917
35753SOL    HW2 9267   6.805  10.509   0.534 -1.8464  0.3996  0.6749
35754SOL     OW 9268   3.431   2.554   5.854 -0.0125  1.0336  0.1217
35754SOL    HW1 9269   3.413   2.592   5.768 -0.2363  0.4568 -0.0941
35754SOL    HW2 9270   3.346   2.556   5.898 -0.1360  0.3632 -0.0681
35755SOL     OW 9271   3.288   4.537   6.106  0.1846 -0.4479  0.0898
35755SOL    HW1 9272   3.211   4.483   6.089 -0.4696  0.9608 -1.7917
35755SOL    HW2 9273   3.268   4.582   6.188 -0.6041 -0.7913  0.0910
35756SOL     OW 9274   0.035   7.142   3.202 -0.2167  0.2093 -0.5347
35756SOL    HW1 9275  -0.003   7.069   3.155 -2.5038  1.3946 -0.6550
35756SOL    HW2 9276   0.085   7.190   3.136  0.2279 -0.5215 -0.7358
35757SOL     OW 9277   6.129   5.170   1.315 -0.6546  0.1868  0.2801
35757SOL    HW1 9278   6.090   5.171   1.228  0.4955  0.3881 -0.2602
35757SOL    HW2 9279   6.078   5.105   1.364 -0.7060 -0.6610 -0.8456
35758SOL     OW 9280   3.665   0.660   4.192  0.6145 -0.0750  0.0368
35758SOL    HW1 9281   3.751   0.685   4.225 -0.6887  1.9234  2.3248
35758SOL    HW2 9282   3.632   0.739   4.149 -0.5541 -0.3586  0.3687
35759SOL     OW 9283   7.032   9.012  10.416  0.6930 -0.3036  0.1229
35759SOL    HW1 9284   7.009   8.964  10.337  0.5621 -0.8652  0.4960
35759SOL    HW2 9285   7.119   8.979  10.440  1.5798  1.2184 -0.8216
35760SOL     OW 9286   0.871   3.505   8.759  0.2772 -0.1849 -0.5131
35760SOL    HW1 9287   0.947   3.555   8.789 -0.4357  0.3080  0.5586
35760SOL    HW2 9288   0.869   3.427   8.815  0.6567 -0.7924 -1.3291
35761SOL     OW 9289   2.306   1.821   2.754 -0.3843 -0.0183  0.1258
35761SOL    HW1 9290   2.361   1.810   2.676 -1.8648 -0.2688 -0.9232
35761SOL    HW2 9291   2.270   1.910   2.744 -3.2842 -1.2290 -1.3662
35762SOL     OW 9292   2.172   8.681   3.764 -0.3202 -0.4874 -0.0536
35762SOL    HW1 9293   2.229   8.621   3.811 -1.7994 -1.8999  0.0404
35762SOL    HW2 9294   2.229   8.752   3.736  1.5328 -2.0078 -0.3101
35763SOL     OW 9295  10.035   2.190  10.737 -0.0465 -0.2693  0.8592
35763SOL    HW1 9296  10.032   2.271  10.788 -0.6640 -0.3124  0.8909
35763SOL    HW2 9297   9.955   2.191  10.685  0.1332 -0.6752  0.5687
35764SOL     OW 9298   7.448   0.554   9.110  0.2655 -0.2506  0.0285
35764SOL    HW1 9299   7.416   0.629   9.160 -1.3746  0.2655 -1.6995
35764SOL    HW2 9300   7.404   0.478   9.148 -1.7625  0.2537 -1.1893
35765SOL     OW 9301   6.907   8.593   5.305  0.6798 -0.3180 -0.4778
35765SOL    HW1 9302   6.869   8.568   5.389  0.8343 -1.9655 -0.8646
35765SOL    HW2 9303   6.842   8.652   5.266 -0.0191 -0.6144  0.2002
35766SOL     OW 9304   0.279   0.909   4.462 -0.1609 -0.3588  0.4075
35766SOL    HW1 9305   0.234   0.929   4.545 -2.0639 -2.0033 -0.1394
35766SOL    HW2 9306   0.220   0.942   4.395 -0.6044 -2.4566 -0.3333
35767SOL     OW 9307   6.035   5.891  10.082  0.3987 -0.3471 -0.1214
35767SOL    HW1 9308   6.103   5.827  10.062 -0.3058 -1.3373  0.5685
35767SOL    HW2 9309   5.976   5.846  10.143 -0.5296  0.7011 -0.2069
35768SOL     OW 9310   9.958   3.198   6.992 -0.3610  0.5587 -0.3455
35768SOL    HW1 9311  10.002   3.280   6.970  1.1351 -0.5513 -1.7052
35768SOL    HW2 9312   9.994   3.174   7.078  1.5485 -0.1923 -1.3149
35769SOL     OW 9313  10.040   3.499   6.155  0.2970 -0.4131 -0.0773
35769SOL    HW1 9314   9.994   3.574   6.194 -0.9612 -1.9195  1.5176
35769SOL    HW2 9315  10.120   3.491   6.208  0.6133 -0.0044 -0.4832
35770SOL     OW 9316   5.120   8.520  10.207 -0.1393 -0.0051 -0.2226
35770SOL    HW1 9317   5.078   8.467  10.139 -2.3517  0.4589  0.7070
35770SOL    HW2 9318   5.056   8.524  10.278  0.8463  2.0562  0.6409
35771SOL     OW 9319   2.361   9.120  10.319 -0.0913 -0.3683  0.6828
35771SOL    HW1 9320   2.346   9.133  10.412  0.6337  0.4408  0.7002
35771SOL    HW2 9321   2.449   9.082  10.314 -0.0999 -0.3495  0.3373
35772SOL     OW 9322   4.095   6.837   5.974 -0.0942 -0.0288 -0.2218
35772SOL    HW1 9323   4.013   6.879   5.997 -0.2567 -1.2522  1.6611
35772SOL    HW2 9324   4.077   6.743   5.981  1.9272 -0.3424  2.2837
35773SOL     OW 9325   6.466   0.932   6.326  0.8681  0.1225  0.3496
35773SOL    HW1 9326   6.557   0.952   6.302  0.8075  0.8403  0.6889
35773SOL    HW2 9327   6.454   0.840   6.301  1.1640  0.4893 -1.2279
35774SOL     OW 9328   3.517   8.209   9.352 -0.4574 -0.3207  0.2339
35774SOL    HW1 9329   3.607   8.196   9.382 -0.1648 -0.2672 -0.5840
35774SOL    HW2 9330   3.486   8.121   9.331 -0.2799 -0.2523 -0.3363
35775SOL     OW 9331   9.620   1.755   6.212 -0.4407 -0.8602 -0.0509
35775SOL    HW1 9332   9.622   1.797   6.127  1.7812  0.9255  0.8040
35775SOL    HW2 9333   9.537   1.784   6.251  0.2349  1.3770 -0.1761
35776SOL     OW 9334   9.574   8.805  10.486 -0.6931 -0.2686  0.3692
35776SOL    HW1 9335   9.591   8.863  10.560  2.1137 -4.5947  3.5819
35776SOL    HW2 9336   9.490   8.763  10.507 -0.6798 -0.3578  0.2470
35777SOL     OW 9337   5.770   4.679   6.890  0.8710  0.2834  0.0789
35777SOL    HW1 9338   5.725   4.759   6.916 -0.7629 -0.3962 -0.5386
35777SOL    HW2 9339   5.700   4.614   6.878  1.8684 -0.5331 -1.9236
35778SOL     OW 9340   5.488   4.522   0.578  0.3546  0.1067 -0.5207
35778SOL    HW1 9341   5.463   4.614   0.585  0.8567  0.1694  0.9496
35778SOL    HW2 9342   5.439   4.478   0.648 -0.0912 -0.8067 -1.3807
35779SOL     OW 9343   7.457   8.728   6.633 -0.4188  0.9436 -0.1336
35779SOL    HW1 9344   7.451   8.778   6.551  1.2596  2.8682  0.8417
35779SOL    HW2 9345   7.366   8.705   6.654 -0.8553 -0.3279 -2.9061
35780SOL     OW 9346   9.440  10.565   6.889 -0.0284 -1.0011  0.2627
35780SOL    HW1 9347   9.480  10.652   6.881 -0.0679 -1.0894 -0.9667
35780SOL    HW2 9348   9.394  10.552   6.807 -1.3721 -1.5238  1.0740
35781SOL     OW 9349   4.481   2.728   9.503 -0.2365  0.1245 -0.3511
35781SOL    HW1 9350   4.410   2.787   9.527 -1.6508 -0.7684 -2.0830
35781SOL    HW2 9351   4.528   2.712   9.584 -1.0605  1.9709  0.5534
35782SOL     OW 9352   6.946   3.877   1.481 -0.3443 -0.2247  0.1602
35782SOL    HW1 9353   6.996   3.949   1.518  0.0929 -1.2566  1.6751
35782SOL    HW2 9354   6.998   3.847   1.407 -1.1138  1.7139 -1.2521
35783SOL     OW 9355   1.971   4.537   5.183  0.0463  0.5618  0.1142
35783SOL    HW1 9356   1.964   4.613   5.240  0.4130  0.4515  0.3078
35783SOL    HW2 9357   1.991   4.574   5.097  0.4918  0.6714  0.2632
35784SOL     OW 9358   8.077  10.592   6.798 -0.1020  0.2070  0.0958
35784SOL    HW1 9359   8.079  10.604   6.703  0.8109  0.0768  0.0898
35784SOL    HW2 9360   8.164  10.619   6.828 -0.5895  0.8712  0.9780
35785SOL     OW 9361   0.676   1.492  10.921 -0.6005  0.1887 -0.3020
35785SOL    HW1 9362   0.728   1.466  10.845  2.4386  0.8993  1.3694
35785SOL    HW2 9363   0.607   1.427  10.926 -0.3492 -0.4192 -3.0928
35786SOL     OW 9364   7.772   0.975   6.053 -0.5011 -0.2238  0.2290
35786SOL    HW1 9365   7.791   0.885   6.024 -0.6065 -0.7973  1.8477
35786SOL    HW2 9366   7.815   1.030   5.988  3.1430 -1.4429  1.3283
35787SOL     OW 9367  10.452   4.584   3.605  0.4258 -0.1145 -0.1552
35787SOL    HW1 9368  10.403   4.609   3.526  1.1627 -1.0114 -0.9223
35787SOL    HW2 9369  10.385   4.566   3.670 -0.2154  0.1977 -0.7138
35788SOL     OW 9370   9.260   3.982   9.403 -0.2136  0.1274  0.0431
35788SOL    HW1 9371   9.169   3.988   9.375 -0.0958  2.3423 -0.0409
35788SOL    HW2 9372   9.292   4.072   9.401  1.6368 -0.4395  1.2558
35789SOL     OW 9373  10.552   7.255   5.492 -0.3286  0.0729  0.4185
35789SOL    HW1 9374  10.516   7.261   5.403 -0.0440 -1.4512  0.1754
35789SOL    HW2 9375  10.575   7.345   5.514 -0.6632  0.5217 -0.9482
35790SOL     OW 9376   3.771   9.422   4.292 -0.3280  0.2533  0.7427
35790SOL    HW1 9377   3.757   9.436   4.385 -0.2036 -1.0279  0.9771
35790SOL    HW2 9378   3.684   9.416   4.254 -0.4224 -1.2137  1.1271
35791SOL     OW 9379   8.687   9.910   3.297 -0.2241  0.3504 -0.0241
35791SOL    HW1 9380   8.742   9.857   3.355  1.5784  0.4234 -1.5839
35791SOL    HW2 9381   8.598   9.876   3.312  0.6178 -1.8717  0.3865
35792SOL     OW 9382   7.060   4.215   8.502 -0.0210 -0.1235 -0.3950
35792SOL    HW1 9383   6.986   4.172   8.544  1.4130 -0.4211  2.0038
35792SOL    HW2 9384   7.040   4.309   8.507 -0.0382 -0.1685  0.7490
35793SOL     OW 9385   5.303   8.359   8.917 -0.1345  0.0777  0.2498
35793SOL    HW1 9386   5.256   8.439   8.940 -2.2205 -0.6042 -1.3685
35793SOL    HW2 9387   5.345   8.379   8.833 -0.1579 -0.3250  0.1420
35794SOL     OW 9388   5.681   5.619   9.068  0.1433  0.3970 -0.9200
35794SOL    HW1 9389   5.760   5.596   9.116 -0.6510 -1.7595 -0.5111
35794SOL    HW2 9390   5.645   5.694   9.114  0.3324 -0.5286  0.8325
35795SOL     OW 9391   4.914   6.962   7.889  0.2939  0.2599  0.1356
35795SOL    HW1 9392   4.874   7.030   7.835  0.4003  0.3845  0.2124
35795SOL    HW2 9393   5.008   6.971   7.872  0.2422 -0.5524 -0.6604
35796SOL     OW 9394   5.967   2.277   1.547  0.0189  0.2841 -0.3034
35796SOL    HW1 9395   5.910   2.200   1.554 -1.1156  1.1103 -0.1714
35796SOL    HW2 9396   5.938   2.321   1.467 -2.5000  2.9697  1.8668
35797SOL     OW 9397   1.473  10.072   4.882 -0.4049  0.3029  0.4669
35797SOL    HW1 9398   1.403  10.111   4.934  1.0418  0.9393  2.0466
35797SOL    HW2 9399   1.473   9.980   4.907 -1.0176  0.1759  0.0283
35798SOL     OW 9400   1.730   1.519   7.584 -0.1208 -0.2488  0.1602
35798SOL    HW1 9401   1.805   1.526   7.525 -0.5965  4.2146 -0.2342
35798SOL    HW2 9402   1.670   1.460   7.538  2.6770 -3.4457  0.1999
35799SOL     OW 9403  10.724   4.208   9.155  0.0689  0.3149  0.3382
35799SOL    HW1 9404  10.785   4.211   9.082 -0.7262  0.5049 -0.3271
35799SOL    HW2 9405  10.768   4.257   9.225  0.9520 -0.1090  0.0977
35800SOL     OW 9406   9.246   1.468   9.541  0.6551 -0.3818 -0.3778
35800SOL    HW1 9407   9.313   1.409   9.506  2.2922  0.2079  1.5557
35800SOL    HW2 9408   9.292   1.551   9.553  0.0249 -0.3224  2.2959
35801SOL     OW 9409   1.480   8.932  10.917 -0.0566 -0.3451 -0.1678
35801SOL    HW1 9410   1.504   8.842  10.943  2.0079  0.4017  0.7388
35801SOL    HW2 9411   1.543   8.955  10.850 -0.5561  0.4438 -0.3723
35802SOL     OW 9412   4.683   5.328   1.782  0.8205  0.1659  0.0169
35802SOL    HW1 9413   4.673   5.308   1.689  0.4628  1.0809 -0.1530
35802SOL    HW2 9414   4.718   5.417   1.784  0.7197  0.1955  0.7623
35803SOL     OW 9415  10.178   5.902   6.336  0.5589 -0.0836 -0.0168
35803SOL    HW1 9416  10.153   5.951   6.257  0.0959 -1.0765 -0.4997
35803SOL    HW2 9417  10.261   5.941   6.363  0.6389  0.3739 -0.8974
35804SOL     OW 9418   5.589   6.996   2.386  0.1319 -0.0914  0.0472
35804SOL    HW1 9419   5.572   6.913   2.342  1.2975 -0.5835  0.4830
35804SOL    HW2 9420   5.502   7.029   2.408 -0.4111 -0.4822 -1.4025
35805SOL     OW 9421   6.925   1.958   5.386  0.1627 -0.5298 -0.8322
35805SOL    HW1 9422   6.947   2.047   5.414  0.4975 -0.7740 -0.3148
35805SOL    HW2 9423   6.852   1.932   5.443 -0.7850 -0.1242 -1.8239
35806SOL     OW 9424   1.523   2.744   6.636  0.4764  0.0732  0.1177
35806SOL    HW1 9425   1.459   2.681   6.669  0.2102  0.4279  0.2818
35806SOL    HW2 9426   1.606   2.698   6.641  0.6936  0.5845  2.6684
35807SOL     OW 9427   7.836  10.740   3.445 -0.1637  0.0144 -0.5342
35807SOL    HW1 9428   7.756  10.787   3.470 -1.0083 -0.2607 -2.5028
35807SOL    HW2 9429   7.906  10.805   3.451 -0.9133  0.8673 -0.8297
35808SOL     OW 9430   1.624   2.077   6.218 -0.3821  0.5901  0.1058
35808SOL    HW1 9431   1.701   2.030   6.251 -2.2118 -2.5077  0.4125
35808SOL    HW2 9432   1.595   2.131   6.292  0.9452  1.0864  0.2874
35809SOL     OW 9433   6.305   2.814   5.025  0.6324  0.1343  0.1573
35809SOL    HW1 9434   6.212   2.807   5.047  0.3333  0.1192 -1.0116
35809SOL    HW2 9435   6.330   2.903   5.052 -0.2473  0.8530 -1.2618
35810SOL     OW 9436   1.068   9.284   8.885 -0.3008 -0.0373 -0.3776
35810SOL    HW1 9437   1.014   9.247   8.815  1.7381 -0.9160 -1.5647
35810SOL    HW2 9438   1.051   9.228   8.961 -2.0398  0.5250 -0.3142
35811SOL     OW 9439   6.256   0.684   0.341  0.0461  0.6398 -0.5709
35811SOL    HW1 9440   6.306   0.603   0.350  0.1411  0.7282 -0.3165
35811SOL    HW2 9441   6.229   0.706   0.430 -2.3205 -0.5930 -0.9010
35812SOL     OW 9442   2.957   7.507   0.800  0.5813  0.0054 -0.1004
35812SOL    HW1 9443   2.910   7.571   0.852  0.6600 -1.1977  1.5266
35812SOL    HW2 9444   3.000   7.558   0.731 -0.6511  1.4683  0.1769
35813SOL     OW 9445   4.656   9.478   7.306 -0.2313  0.5365 -0.5479
35813SOL    HW1 9446   4.579   9.448   7.257  0.4674 -2.1012 -0.2106
35813SOL    HW2 9447   4.730   9.443   7.256  0.6155  0.6451  0.6049
35814SOL     OW 9448   7.381   1.632   7.684  0.0476  0.7163 -0.1250
35814SOL    HW1 9449   7.326   1.634   7.605 -0.4055 -0.8398  0.1192
35814SOL    HW2 9450   7.331   1.681   7.749 -0.0892  1.0665 -0.4920
35815SOL     OW 9451   2.159   0.471   6.862 -0.3852 -0.1373  0.0473
35815SOL    HW1 9452   2.213   0.399   6.896  0.4126 -0.9746 -2.7033
35815SOL    HW2 9453   2.088   0.427   6.815 -0.3798  0.8744 -0.9385
35816SOL     OW 9454   4.871   4.958   1.422  0.6258  0.3487  0.0506
35816SOL    HW1 9455   4.878   4.937   1.329 -0.3505  2.9079 -0.7022
35816SOL    HW2 9456   4.782   4.991   1.433  1.3787  2.1839  1.3558
35817SOL     OW 9457   2.346   5.949   4.150 -0.0447  0.0660 -0.4004
35817SOL    HW1 9458   2.275   6.011   4.137 -1.5877 -1.4622  0.3657
35817SOL    HW2 9459   2.310   5.865   4.123  1.6691 -0.6709 -0.5067
35818SOL     OW 9460   4.860  10.909  10.287 -0.2935  0.6910 -0.1740
35818SOL    HW1 9461   4.836  11.001  10.298 -1.1038  0.2789  2.2633
35818SOL    HW2 9462   4.916  10.890  10.362 -2.6412 -1.5119  1.2037
35819SOL     OW 9463   5.375   4.580   1.457 -0.4642 -0.0573  0.1082
35819SOL    HW1 9464   5.384   4.639   1.531  0.4948 -0.3145  0.2060
35819SOL    HW2 9465   5.328   4.504   1.493  0.2397 -0.3043  0.5438
35820SOL     OW 9466   9.728   2.344   9.109  0.0506  0.1305 -0.1110
35820SOL    HW1 9467   9.766   2.407   9.170  0.6806 -0.2169 -0.1379
35820SOL    HW2 9468   9.661   2.298   9.161  2.0863 -1.7165  1.0390
35821SOL     OW 9469   2.370   3.658   1.565  0.0262  0.3025  0.3622
35821SOL    HW1 9470   2.325   3.588   1.516  0.2458  1.0097 -0.9103
35821SOL    HW2 9471   2.364   3.631   1.656  0.2821 -1.4775 -0.1036
35822SOL     OW 9472   6.784   7.732   2.186  0.5960 -0.2831 -0.2216
35822SOL    HW1 9473   6.765   7.750   2.094 -0.6557 -0.8182 -0.0912
35822SOL    HW2 9474   6.862   7.676   2.184  0.0785 -1.0086 -1.0170
35823SOL     OW 9475   5.037   2.639   8.881 -0.4232 -0.2353 -0.2382
35823SOL    HW1 9476   4.954   2.592   8.881  0.2573 -1.5668 -2.3671
35823SOL    HW2 9477   5.015   2.729   8.856 -1.4417 -0.0011  1.3890
35824SOL     OW 9478   5.742   1.673   7.232  0.4977  0.4028  0.1216
35824SOL    HW1 9479   5.707   1.646   7.148  0.6941  3.1728 -0.9605
35824SOL    HW2 9480   5.667   1.709   7.279 -0.0316 -2.8227  2.0455
35825SOL     OW 9481  11.036   4.621   0.476 -0.2461 -0.1194 -0.0814
35825SOL    HW1 9482  10.986   4.637   0.556 -3.5398  0.5858 -2.0673
35825SOL    HW2 9483  11.011   4.532   0.450 -0.9955  0.4243 -1.3673
35826SOL     OW 9484   9.020   3.604   1.265 -0.5589  0.0265 -0.8110
35826SOL    HW1 9485   9.102   3.626   1.309 -0.4700  2.0941 -1.8753
35826SOL    HW2 9486   9.031   3.513   1.237  1.4926  0.3302 -1.1441
35827SOL     OW 9487  10.128   2.268   2.864  0.0791  0.9139 -0.1413
35827SOL    HW1 9488  10.209   2.222   2.842 -0.6398  0.1801 -1.3891
35827SOL    HW2 9489  10.116   2.251   2.958  1.2773  0.9111  0.0241
35828SOL     OW 9490   7.446   0.089   3.859  0.1218  0.3246  0.3644
35828SOL    HW1 9491   7.376   0.051   3.911  0.1626  0.5332  0.5722
35828SOL    HW2 9492   7.502   0.134   3.922 -0.0088  0.8578  0.1049
35829SOL     OW 9493   6.709   2.268   3.365 -0.1406  0.1346 -0.5663
35829SOL    HW1 9494   6.641   2.317   3.412  0.0076 -0.2974  0.1021
35829SOL    HW2 9495   6.777   2.333   3.348 -0.1283  0.2634 -0.0493
35830SOL     OW 9496   6.894   6.185   6.189  0.2636  0.4247  0.1259
35830SOL    HW1 9497   6.951   6.157   6.117 -0.2144 -0.0020 -0.0918
35830SOL    HW2 9498   6.904   6.280   6.192  0.1930  0.4598 -0.5948
35831SOL     OW 9499   7.592   0.898   9.041 -0.5841  0.1403 -0.5107
35831SOL    HW1 9500   7.532   0.873   8.971 -1.2953  2.3465 -0.7523
35831SOL    HW2 9501   7.535   0.911   9.118  0.0654 -1.2618  0.2535
35832SOL     OW 9502   6.674   0.780   8.783 -0.4693  0.4536  0.6815
35832SOL    HW1 9503   6.625   0.733   8.715  0.5815  0.5047 -0.1460
35832SOL    HW2 9504   6.737   0.716   8.816  1.7480  1.4997 -1.2428
35833SOL     OW 9505   0.210   8.625   5.802  0.5571  0.2082 -0.3533
35833SOL    HW1 9506   0.287   8.679   5.787  1.2266 -0.3487  0.8337
35833SOL    HW2 9507   0.136   8.679   5.776  1.2560  1.3869  0.0539
35834SOL     OW 9508   3.402  10.814   8.225 -0.1010 -0.0282 -0.1959
35834SOL    HW1 9509   3.483  10.797   8.273  0.1099  0.4143 -0.3869
35834SOL    HW2 9510   3.422  10.792   8.134 -0.6128 -1.2116 -0.0296
35835SOL     OW 9511  10.935   6.114   0.815 -0.2189 -0.3982  0.1825
35835SOL    HW1 9512  10.862   6.155   0.862 -0.2304  0.1929 -0.3327
35835SOL    HW2 9513  10.946   6.168   0.737  0.8399 -0.4155  0.3069
35836SOL     OW 9514   1.154   1.505   9.800 -0.1560 -0.3005 -0.1521
35836SOL    HW1 9515   1.184   1.482   9.712 -1.7021 -2.8536 -0.1165
35836SOL    HW2 9516   1.206   1.582   9.824  1.5749 -0.6005 -2.5775
35837SOL     OW 9517   9.183   0.992   8.003  0.2905 -0.5220 -0.6414
35837SOL    HW1 9518   9.143   0.950   7.928 -1.7030  0.4247 -0.1851
35837SOL    HW2 9519   9.110   1.034   8.049  1.8534  1.6126  0.0730
35838SOL     OW 9520   2.796   9.874   0.847 -0.0204  0.0320 -0.1741
35838SOL    HW1 9521   2.745   9.798   0.875 -2.9553  1.8452 -0.1589
35838SOL    HW2 9522   2.822   9.917   0.929 -1.2363  0.7437 -0.1263
35839SOL     OW 9523   8.818   8.573   2.994  0.5876  0.5804 -0.0870
35839SOL    HW1 9524   8.854   8.587   2.906 -2.2112 -1.2415 -1.6737
35839SOL    HW2 9525   8.829   8.479   3.010 -0.5311  0.5565  0.7093
35840SOL     OW 9526   3.875   1.255   1.726  0.3376 -0.0939  0.2889
35840SOL    HW1 9527   3.944   1.210   1.677  0.4767  0.0550  0.3456
35840SOL    HW2 9528   3.899   1.347   1.721  0.2060 -0.0527  0.4106
35841SOL     OW 9529   7.134   4.829   0.592 -0.1619  0.0005  0.4277
35841SOL    HW1 9530   7.085   4.829   0.675  0.4966  1.6319  0.8567
35841SOL    HW2 9531   7.096   4.902   0.543  1.1833  0.6956  0.3859
35842SOL     OW 9532   2.794   0.900   3.793 -0.1838  0.3716 -0.7285
35842SOL    HW1 9533   2.787   0.990   3.826 -0.7124  0.0719 -0.0040
35842SOL    HW2 9534   2.706   0.879   3.762 -0.0319  0.1420 -1.0082
35843SOL     OW 9535   6.896  10.122   1.097  0.1688 -0.1616  0.1302
35843SOL    HW1 9536   6.893  10.051   1.162 -0.0845 -0.6428 -0.3964
35843SOL    HW2 9537   6.839  10.092   1.026 -1.0553  1.1789  0.4976
35844SOL     OW 9538   9.294   1.857   2.585 -0.1077 -0.1533  0.0127
35844SOL    HW1 9539   9.271   1.948   2.568  1.9644  0.8481  2.0536
35844SOL    HW2 9540   9.380   1.846   2.544 -0.7978 -1.5354 -1.1204
35845SOL     OW 9541  10.347   2.587   2.587 -0.6217  0.0731 -0.5999
35845SOL    HW1 9542  10.399   2.541   2.522  1.1431  0.9293  0.1375
35845SOL    HW2 9543  10.332   2.674   2.548 -1.0796  0.0037 -0.5875
35846SOL     OW 9544   2.775   9.443   1.288 -0.3818  0.0334 -0.1812
35846SOL    HW1 9545   2.766   9.397   1.372  2.7952  0.0037  0.2486
35846SOL    HW2 9546   2.778   9.535   1.311  0.6577  0.0165 -0.2288
35847SOL     OW 9547   3.305   8.502   8.351 -0.0731  0.2179  0.0131
35847SOL    HW1 9548   3.366   8.471   8.417  0.4068  0.9343 -0.0695
35847SOL    HW2 9549   3.357   8.562   8.297 -0.7515  0.5486 -0.2953
35848SOL     OW 9550   2.179   8.119   0.275 -0.4725 -0.4627  0.2355
35848SOL    HW1 9551   2.189   8.144   0.366 -4.5506  1.6426  0.3717
35848SOL    HW2 9552   2.087   8.090   0.268 -0.2704 -0.7690 -3.1301
35849SOL     OW 9553  10.047   7.892   3.048  0.0849 -0.3220  0.5828
35849SOL    HW1 9554   9.957   7.911   3.075  0.3479 -0.6946  1.7944
35849SOL    HW2 9555  10.095   7.972   3.070 -0.0229  0.0670 -0.5283
35850SOL     OW 9556  10.875   4.774   1.029 -0.1506 -0.0551 -0.4443
35850SOL    HW1 9557  10.951   4.722   1.003 -0.7889 -1.5117  0.4793
35850SOL    HW2 9558  10.883   4.783   1.124  0.3721  2.3057 -0.6322
35851SOL     OW 9559   4.217   7.510   2.041 -0.7676  0.1361 -0.4345
35851SOL    HW1 9560   4.173   7.590   2.013  1.2268  0.8861 -1.5621
35851SOL    HW2 9561   4.301   7.511   1.996  0.3937 -1.3080  1.5434
35852SOL     OW 9562   0.635   3.400   0.998 -0.3765 -0.4494  0.5800
35852SOL    HW1 9563   0.685   3.456   1.057 -0.9910  0.4168  0.2989
35852SOL    HW2 9564   0.634   3.315   1.041  1.3405 -0.4940  0.5826
35853SOL     OW 9565   5.653   2.979   5.231 -0.7681  0.2751 -0.1401
35853SOL    HW1 9566   5.599   2.984   5.152 -1.5946  1.0581  0.4541
35853SOL    HW2 9567   5.722   3.043   5.216  0.8442 -1.6403 -1.4698
35854SOL     OW 9568   5.573   7.928   0.134  0.1808 -0.0827  0.1105
35854SOL    HW1 9569   5.665   7.903   0.138  0.5480  0.7808 -1.8867
35854SOL    HW2 9570   5.569   8.014   0.177 -0.3896 -1.5910  3.3704
35855SOL     OW 9571  10.886   5.638   2.111  0.4784  0.4505  0.2512
35855SOL    HW1 9572  10.795   5.667   2.103  0.7341  1.5568  1.0598
35855SOL    HW2 9573  10.931   5.680   2.038  0.4395  0.3220  0.1530
35856SOL     OW 9574   4.019   4.407   3.212  0.3003  0.2987  0.0358
35856SOL    HW1 9575   4.017   4.313   3.231 -0.6922  0.2661 -0.1406
35856SOL    HW2 9576   4.075   4.415   3.135  0.5263 -0.1275  0.1541
35857SOL     OW 9577   3.532   9.081  10.935 -0.1288  0.2226  0.1504
35857SOL    HW1 9578   3.557   8.995  10.968 -1.3402 -0.1516  0.1278
35857SOL    HW2 9579   3.522   9.135  11.014 -2.5534 -0.5487  0.4623
35858SOL     OW 9580   7.597   7.616   0.379  0.0110 -0.7984  0.2166
35858SOL    HW1 9581   7.632   7.545   0.433  1.6883  0.1420  0.4588
35858SOL    HW2 9582   7.502   7.604   0.381  0.2589 -4.0174 -1.1592
35859SOL     OW 9583   7.278   0.385   3.196  0.3646  0.2801 -0.0312
35859SOL    HW1 9584   7.340   0.358   3.129  0.3071  0.0472  0.0073
35859SOL    HW2 9585   7.333   0.415   3.269  0.4313  0.1195 -0.0155
35860SOL     OW 9586   0.131   9.488   4.225 -0.2310 -0.3485 -0.1175
35860SOL    HW1 9587   0.201   9.530   4.275 -1.3354  0.3023  0.9038
35860SOL    HW2 9588   0.073   9.560   4.200 -0.7141 -0.9294 -0.6979
35861SOL     OW 9589   6.964   9.559   1.768  0.4239  0.3796  0.6057
35861SOL    HW1 9590   6.883   9.536   1.812 -0.7639  0.5873 -1.3253
35861SOL    HW2 9591   7.033   9.535   1.829 -1.0811  0.1715  2.2985
35862SOL     OW 9592   9.859  10.860   0.710  0.1708  0.0060  0.0855
35862SOL    HW1 9593   9.804  10.871   0.788  0.8193 -3.5955  1.2674
35862SOL    HW2 9594   9.948  10.872   0.741  0.3265  1.2430 -0.7758
35863SOL     OW 9595   7.616   0.197   9.691 -0.2495 -0.1714 -0.2165
35863SOL    HW1 9596   7.655   0.265   9.746  0.2600 -0.4830 -0.1780
35863SOL    HW2 9597   7.657   0.116   9.723 -1.8550 -0.6796  0.6770
35864SOL     OW 9598   6.791   9.446   2.274  0.0454  0.4071 -0.0345
35864SOL    HW1 9599   6.836   9.453   2.358  0.1394  0.0402 -0.0555
35864SOL    HW2 9600   6.850   9.395   2.219 -0.7832 -0.8549  0.2117
35865SOL     OW 9601   6.346   2.210   0.630 -0.1310 -0.1922  0.3668
35865SOL    HW1 9602   6.353   2.131   0.683 -2.2632 -0.3421  0.4927
35865SOL    HW2 9603   6.431   2.253   0.641  0.4878 -1.6310  1.6065
35866SOL     OW 9604   6.701  10.028   8.402 -0.1169 -0.1710  0.6095
35866SOL    HW1 9605   6.740   9.965   8.462  0.0900 -0.1865  0.4575
35866SOL    HW2 9606   6.607  10.025   8.422 -0.1541 -0.7761  0.3631
35867SOL     OW 9607   7.684   6.106   7.042 -0.4306 -0.4753  0.4774
35867SOL    HW1 9608   7.681   6.011   7.050 -2.5610 -0.5916 -0.8655
35867SOL    HW2 9609   7.633   6.138   7.116 -0.0692 -0.3996  0.6937
35868SOL     OW 9610   1.593   2.903   6.430  0.3729 -0.3056 -0.1973
35868SOL    HW1 9611   1.555   2.991   6.423  0.8428 -0.1512 -0.9397
35868SOL    HW2 9612   1.570   2.874   6.518  0.4198  0.6662  0.1524
35869SOL     OW 9613   1.496   2.845   1.473 -0.4851  0.6320 -0.3851
35869SOL    HW1 9614   1.514   2.899   1.550  0.5406 -0.5732  0.2634
35869SOL    HW2 9615   1.516   2.756   1.501 -1.7809 -0.0550 -1.5388
35870SOL     OW 9616   2.092   9.343   2.755 -0.0115 -0.4437 -0.3699
35870SOL    HW1 9617   2.067   9.315   2.843 -1.4359 -1.6134 -1.0820
35870SOL    HW2 9618   2.158   9.280   2.727 -1.0995 -1.3976 -0.8872
35871SOL     OW 9619   6.699   0.176   2.159 -0.3148 -0.3302 -0.1309
35871SOL    HW1 9620   6.732   0.251   2.208  0.8197 -1.3255  0.6742
35871SOL    HW2 9621   6.755   0.171   2.081 -0.2211 -0.4966 -0.0532
35872SOL     OW 9622   9.280  10.298   3.255 -0.0602  0.2950  0.2358
35872SOL    HW1 9623   9.372  10.292   3.281 -0.1916  0.3161  0.7185
35872SOL    HW2 9624   9.253  10.207   3.240 -0.2568  0.1920  1.1609
35873SOL     OW 9625   6.543   4.643  10.239  0.0682  0.5321 -0.5883
35873SOL    HW1 9626   6.535   4.605  10.151  0.1749 -0.6841 -0.0906
35873SOL    HW2 9627   6.532   4.569  10.298 -0.8387  1.4770  0.4581
35874SOL     OW 9628   3.002   4.071   4.238 -0.4488 -0.3433 -0.6268
35874SOL    HW1 9629   2.930   4.086   4.300 -0.6321 -0.4938 -0.8040
35874SOL    HW2 9630   2.962   4.023   4.166 -0.3959  0.4749 -1.2149
35875SOL     OW 9631   2.422  10.311   7.022 -0.0621 -0.3098  0.2082
35875SOL    HW1 9632   2.439  10.225   7.062  0.0401 -0.2417  0.3135
35875SOL    HW2 9633   2.328  10.323   7.032 -0.6677 -1.8367 -2.6985
35876SOL     OW 9634   4.413  11.007  10.570  0.2526 -0.5395 -0.0860
35876SOL    HW1 9635   4.452  11.016  10.483  1.0869  0.0884  0.3320
35876SOL    HW2 9636   4.402  10.913  10.582 -0.6861 -0.5860 -1.2072
35877SOL     OW 9637   7.236   4.854   9.516 -0.1322  0.1043  0.2877
35877SOL    HW1 9638   7.179   4.779   9.534 -1.0973  0.4159 -1.2297
35877SOL    HW2 9639   7.252   4.848   9.421 -0.3990  1.9040  0.1072
35878SOL     OW 9640   7.031   9.611   3.757  0.4715 -0.0964 -0.7945
35878SOL    HW1 9641   7.126   9.611   3.756  0.5114  0.1750  0.7792
35878SOL    HW2 9642   7.007   9.703   3.746  0.4767  0.1596  1.0407
35879SOL     OW 9643  10.407   5.173   7.023  0.0319 -0.4360 -0.2292
35879SOL    HW1 9644  10.341   5.211   7.081  0.1289  0.7156 -0.8234
35879SOL    HW2 9645  10.378   5.199   6.935  0.8257 -0.6290 -0.5539
35880SOL     OW 9646   6.338   0.503   6.849 -0.4693 -0.2509  0.3718
35880SOL    HW1 9647   6.432   0.487   6.842 -0.5055 -0.7257  0.9079
35880SOL    HW2 9648   6.312   0.458   6.930 -1.1395 -0.0511  0.2720
35881SOL     OW 9649   9.734   7.422   8.193  0.1529  0.0017 -0.2064
35881SOL    HW1 9650   9.665   7.489   8.195 -1.1933 -1.1555 -2.7503
35881SOL    HW2 9651   9.687   7.340   8.177  2.1097 -0.6663 -3.4081
35882SOL     OW 9652   6.876  10.340   3.448  0.6270  0.2639  0.4096
35882SOL    HW1 9653   6.782  10.334   3.468  0.7453 -0.4499  0.7590
35882SOL    HW2 9654   6.900  10.253   3.419  0.5516  1.1355 -2.5871
35883SOL     OW 9655   0.546   1.137   8.519 -0.2542  0.1047 -0.4349
35883SOL    HW1 9656   0.476   1.074   8.538 -0.1460  0.1143  0.0132
35883SOL    HW2 9657   0.504   1.222   8.530 -0.7913  0.1552 -2.4416
35884SOL     OW 9658  10.778   6.779   8.389  0.1053  0.2288  0.2104
35884SOL    HW1 9659  10.814   6.849   8.444  0.2158  1.7347 -1.6641
35884SOL    HW2 9660  10.853   6.720   8.374  1.1628  1.8525 -1.3672
35885SOL     OW 9661   6.096   7.810   7.479 -0.2268  0.1314 -0.3734
35885SOL    HW1 9662   6.041   7.736   7.504 -2.2991  1.2482 -1.3584
35885SOL    HW2 9663   6.044   7.859   7.415  2.2223  0.8976 -1.9459
35886SOL     OW 9664   7.034   9.359   3.314  0.0713 -0.3287 -0.4584
35886SOL    HW1 9665   7.004   9.377   3.403 -1.6757 -0.4066 -0.9835
35886SOL    HW2 9666   6.984   9.419   3.259  0.5937 -0.7744 -1.4458
35887SOL     OW 9667   7.876   4.640   6.879 -0.3525 -0.0022  0.0539
35887SOL    HW1 9668   7.817   4.646   6.955 -2.8443  0.3229 -1.7700
35887SOL    HW2 9669   7.914   4.728   6.872  0.6417 -0.2869  1.4080
35888SOL     OW 9670   3.820   1.419   0.861  0.5760  0.0855 -0.5332
35888SOL    HW1 9671   3.859   1.491   0.910 -0.4970  0.9567 -0.9044
35888SOL    HW2 9672   3.787   1.460   0.781  0.3506 -0.9072 -0.9639
35889SOL     OW 9673   4.055   1.538   4.252  0.0274 -0.3791 -0.2711
35889SOL    HW1 9674   4.044   1.444   4.234 -1.5569 -0.2331 -0.2212
35889SOL    HW2 9675   4.122   1.542   4.320 -0.0770 -1.4960 -0.0795
35890SOL     OW 9676  10.554   3.434   9.270 -0.0359 -0.0683  0.2158
35890SOL    HW1 9677  10.524   3.481   9.348 -0.2772  0.7246 -0.3461
35890SOL    HW2 9678  10.596   3.501   9.216  0.1503 -0.6135 -0.3298
35891SOL     OW 9679   3.939  10.353   3.960  0.2232  0.2070  1.0414
35891SOL    HW1 9680   4.006  10.331   3.895  0.4567 -1.5811  1.8459
35891SOL    HW2 9681   3.939  10.449   3.962  2.7267  0.2716  0.9845
35892SOL     OW 9682   8.888   3.767   6.250  0.4805  0.0336 -0.4490
35892SOL    HW1 9683   8.909   3.747   6.159  0.1361 -2.5339 -0.0268
35892SOL    HW2 9684   8.801   3.730   6.264  2.1997 -3.6811  2.0122
35893SOL     OW 9685   1.896   2.020   4.850  0.2253 -0.6477 -0.3041
35893SOL    HW1 9686   1.967   2.079   4.878 -0.6113  0.6614 -0.8582
35893SOL    HW2 9687   1.898   2.025   4.754 -0.1200 -1.2339 -0.3450
35894SOL     OW 9688   2.722  10.061   7.232 -0.0581  0.1286 -0.5004
35894SOL    HW1 9689   2.628  10.063   7.212 -0.2489 -1.4091  0.1287
35894SOL    HW2 9690   2.744   9.968   7.233  1.3782  0.4585 -0.1574
35895SOL     OW 9691   2.985   9.556   8.394  0.0121 -0.1729 -0.5275
35895SOL    HW1 9692   3.058   9.531   8.337  0.6020 -0.1249  0.1937
35895SOL    HW2 9693   2.958   9.474   8.435  1.1004  0.1246  0.8562
35896SOL     OW 9694   4.479   4.535   1.575  0.1351 -0.2065  0.1802
35896SOL    HW1 9695   4.530   4.597   1.627 -0.7624  0.6110  0.1018
35896SOL    HW2 9696   4.509   4.549   1.485 -0.6954  0.7786  0.0346
35897SOL     OW 9697   9.847   9.283  10.286  0.0848  0.5917 -0.1760
35897SOL    HW1 9698   9.790   9.265  10.211  0.2897  0.1695 -0.2316
35897SOL    HW2 9699   9.928   9.317  10.247 -0.0851  1.1029 -0.1015
35898SOL     OW 9700  10.552   2.715  10.053  0.8781 -0.1390 -0.3068
35898SOL    HW1 9701  10.584   2.781  10.115 -0.5722 -0.9435  1.3784
35898SOL    HW2 9702  10.625   2.654  10.043  2.1303  1.4834 -1.6480
35899SOL     OW 9703   6.718   2.259   6.329  0.6348  0.2661  0.3557
35899SOL    HW1 9704   6.790   2.208   6.367  1.7338  0.8350 -0.8900
35899SOL    HW2 9705   6.752   2.349   6.326  0.1028  0.4473 -0.7756
35900SOL     OW 9706   9.264   7.069   6.225  0.4384 -1.0225  0.0275
35900SOL    HW1 9707   9.225   7.039   6.307  0.6750 -0.6813  0.2666
35900SOL    HW2 9708   9.203   7.039   6.157 -0.6603  0.1890  0.4343
35901SOL     OW 9709   8.469   7.776   0.050  0.3167  0.7818 -0.0723
35901SOL    HW1 9710   8.479   7.848  -0.012 -1.5721 -0.7984 -2.4456
35901SOL    HW2 9711   8.508   7.701   0.005 -0.5905 -0.3088  0.8879
35902SOL     OW 9712  10.753   9.438  10.083 -0.2029  0.4226  0.4823
35902SOL    HW1 9713  10.763   9.506  10.149 -1.4586  1.4388 -0.3397
35902SOL    HW2 9714  10.696   9.476  10.017  0.0090 -1.0157 -0.5889
35903SOL     OW 9715   9.341   1.623   3.031  0.3159  0.0459  0.2211
35903SOL    HW1 9716   9.276   1.690   3.049 -2.9781 -2.7019 -0.3702
35903SOL    HW2 9717   9.342   1.615   2.935 -1.2829 -2.3050  0.3180
35904SOL     OW 9718   7.692   3.807   9.819 -0.0316  0.0277  0.5442
35904SOL    HW1 9719   7.668   3.737   9.758 -0.7520  1.9620 -1.5289
35904SOL    HW2 9720   7.786   3.800   9.830 -0.1382 -1.4385  0.6463
35905SOL     OW 9721   5.732   4.365   7.851 -0.4578 -0.6069  0.1926
35905SOL    HW1 9722   5.802   4.398   7.794 -0.6177  0.5233  0.6200
35905SOL    HW2 9723   5.734   4.270   7.839  3.1465 -1.0156  2.3767
35906SOL     OW 9724   4.837   5.833   6.837  0.5887 -0.5512 -0.2261
35906SOL    HW1 9725   4.844   5.774   6.761 -0.5246 -1.5517  0.4162
35906SOL    HW2 9726   4.745   5.827   6.863  1.0508 -0.6248  1.5131
35907SOL     OW 9727   8.280   8.744  10.864 -0.7027 -0.0017 -0.1876
35907SOL    HW1 9728   8.202   8.776  10.910 -2.4690 -0.9068 -2.3234
35907SOL    HW2 9729   8.267   8.773  10.773  1.3780 -0.3905 -0.6543
35908SOL     OW 9730   6.377   8.500   9.117 -0.0559 -0.1332 -0.1156
35908SOL    HW1 9731   6.419   8.530   9.198  1.3060  2.4882 -1.6364
35908SOL    HW2 9732   6.375   8.405   9.124  1.2876 -0.0530  2.3741
35909SOL     OW 9733   8.411   4.510   5.649 -0.6171  0.3609 -0.5012
35909SOL    HW1 9734   8.390   4.534   5.559  0.1243 -0.1421 -0.8167
35909SOL    HW2 9735   8.363   4.574   5.703  0.3862  1.8317 -1.2804
35910SOL     OW 9736   6.343   6.207   1.803 -0.8180  0.5568  0.0128
35910SOL    HW1 9737   6.308   6.290   1.837 -0.4942  0.4031  0.7292
35910SOL    HW2 9738   6.396   6.172   1.874 -2.1988 -1.0392  0.3086
35911SOL     OW 9739   1.139   2.492   0.403 -0.4831 -0.2579 -0.3313
35911SOL    HW1 9740   1.204   2.436   0.360 -0.4199 -0.3929 -0.0614
35911SOL    HW2 9741   1.189   2.542   0.467 -0.9028 -1.5622  1.0431
35912SOL     OW 9742   2.189   9.482  10.274  0.2558 -0.5736  0.2838
35912SOL    HW1 9743   2.176   9.465  10.368  1.2405  0.8551  0.7108
35912SOL    HW2 9744   2.101   9.494  10.240 -0.0325  1.1029  1.5011
35913SOL     OW 9745   6.606   0.010   8.437 -0.2812 -0.2676  0.2692
35913SOL    HW1 9746   6.522   0.036   8.400  0.0020  0.9134  0.4012
35913SOL    HW2 9747   6.605  -0.086   8.436 -1.5314 -0.2643  0.0765
35914SOL     OW 9748   3.279   5.920   6.486 -0.2688  0.8264 -0.2596
35914SOL    HW1 9749   3.335   5.998   6.489  1.0360 -0.1183  0.7359
35914SOL    HW2 9750   3.322   5.857   6.544 -2.0636 -0.1511  0.0635
35915SOL     OW 9751   7.614   0.657   1.441 -0.0330 -0.2470  0.0894
35915SOL    HW1 9752   7.556   0.711   1.495 -1.1408 -1.7429  0.4708
35915SOL    HW2 9753   7.568   0.650   1.357  0.7701  0.5265 -0.4193
35916SOL     OW 9754   8.884   6.155   8.430  0.0387 -0.5861 -0.3273
35916SOL    HW1 9755   8.793   6.144   8.400  0.4259 -1.7260 -1.1678
35916SOL    HW2 9756   8.932   6.086   8.384  1.0057 -1.2053  1.5236
35917SOL     OW 9757   8.816   0.627   3.965  0.1346 -0.5838 -0.4918
35917SOL    HW1 9758   8.901   0.589   3.989 -1.1171 -1.9356  2.2875
35917SOL    HW2 9759   8.755   0.554   3.968 -1.3847  0.5946 -1.1105
35918SOL     OW 9760   4.054   9.538   7.610 -0.4241  0.0734 -0.2904
35918SOL    HW1 9761   4.111   9.461   7.614 -0.2096  0.2093 -0.7510
35918SOL    HW2 9762   4.104   9.603   7.562 -0.6126  0.5013  0.0829
35919SOL     OW 9763   3.430   2.108   5.876 -0.3347 -0.2264 -0.1584
35919SOL    HW1 9764   3.357   2.068   5.830 -1.1237  1.1291 -0.1248
35919SOL    HW2 9765   3.395   2.131   5.962 -1.3302  4.3306 -1.4906
35920SOL     OW 9766   4.889   4.670   1.495  0.1103 -0.7205  0.1672
35920SOL    HW1 9767   4.818   4.728   1.524  0.3492 -0.7318  0.7812
35920SOL    HW2 9768   4.859   4.636   1.410 -0.4597 -0.4487  0.2560
35921SOL     OW 9769   5.469   8.610   1.800  0.2708 -0.3701 -0.9062
35921SOL    HW1 9770   5.446   8.658   1.880 -2.0087 -0.0071 -1.6990
35921SOL    HW2 9771   5.426   8.525   1.810  2.6621 -1.5738 -0.3762
35922SOL     OW 9772   0.496   0.799  10.205 -0.0170  0.6940  0.0510
35922SOL    HW1 9773   0.426   0.797  10.270 -0.8771  1.3191 -0.8304
35922SOL    HW2 9774   0.488   0.884  10.163  1.3129  0.7977 -0.0436
35923SOL     OW 9775   9.140   1.069   3.046 -0.4092 -0.4482 -0.4958
35923SOL    HW1 9776   9.117   1.159   3.023  1.0402 -0.4449 -2.1360
35923SOL    HW2 9777   9.086   1.016   2.988 -2.4740 -0.7688  1.5753
35924SOL     OW 9778   0.400   9.996   2.334  0.1375 -0.0223  1.2499
35924SOL    HW1 9779   0.437  10.083   2.325  1.2494 -0.5711  0.0837
35924SOL    HW2 9780   0.365   9.993   2.423  0.5383  1.4188  1.4787
35925SOL     OW 9781   8.839   9.771   4.330  0.1046  0.5066  0.2210
35925SOL    HW1 9782   8.923   9.773   4.284  0.4497 -5.8567 -0.4102
35925SOL    HW2 9783   8.852   9.706   4.400 -3.3317  2.2362  2.7570
35926SOL     OW 9784  10.010   6.481   0.247  0.0589 -0.1423 -0.4469
35926SOL    HW1 9785  10.075   6.413   0.267 -0.6047 -0.8301 -0.5565
35926SOL    HW2 9786  10.052   6.563   0.273  0.3348 -0.7224  1.0832
35927SOL     OW 9787  10.138   9.641   6.161  0.1905  0.1183 -0.2648
35927SOL    HW1 9788  10.078   9.689   6.104 -0.7199 -1.3452 -0.5978
35927SOL    HW2 9789  10.219   9.634   6.110 -0.6161 -1.1804 -1.4475
35928SOL     OW 9790  10.412   1.092   9.761 -0.1283  0.4703  0.0473
35928SOL    HW1 9791  10.465   1.041   9.699  1.3069  1.6607  0.2316
35928SOL    HW2 9792  10.343   1.130   9.707 -0.2554 -0.3481 -0.3881
35929SOL     OW 9793  10.604   4.412   3.423  1.0240 -0.8054 -0.0596
35929SOL    HW1 9794  10.579   4.484   3.481  2.8298  0.2056 -0.4799
35929SOL    HW2 9795  10.527   4.401   3.366  0.3560  0.1709  0.6097
35930SOL     OW 9796   8.853   8.418  10.775 -0.1327  0.2918  0.2067
35930SOL    HW1 9797   8.906   8.341  10.751 -0.3767  0.4944 -1.0381
35930SOL    HW2 9798   8.831   8.458  10.692 -1.9830  0.4026  0.7202
35931SOL     OW 9799   2.222   0.317  10.175 -0.5314  0.2811 -0.2839
35931SOL    HW1 9800   2.309   0.338  10.142  0.4076 -2.0222  0.5732
35931SOL    HW2 9801   2.194   0.241  10.124 -1.3529 -0.0117  0.5734
35932SOL     OW 9802   4.964   1.959   1.060  0.3927  0.0324 -0.2298
35932SOL    HW1 9803   4.879   1.935   1.096 -0.3644  1.3696 -1.0577
35932SOL    HW2 9804   4.982   2.046   1.096  0.5509  0.5284 -1.4589
35933SOL     OW 9805   8.972   6.842   6.015  0.3041  0.2733  0.2510
35933SOL    HW1 9806   8.973   6.839   6.110 -1.5776 -0.2163  0.2965
35933SOL    HW2 9807   9.013   6.760   5.988  0.8827  0.4338  0.6335
35934SOL     OW 9808   3.374   6.803   9.472  0.1313  0.0079 -0.3748
35934SOL    HW1 9809   3.468   6.783   9.462  0.0926  0.3073 -1.5151
35934SOL    HW2 9810   3.371   6.898   9.480 -0.1820  0.2335 -2.4528
35935SOL     OW 9811  10.098   5.505   4.528 -0.3142  0.0955  0.0055
35935SOL    HW1 9812  10.007   5.478   4.541 -0.6551  0.6565 -1.1123
35935SOL    HW2 9813  10.092   5.588   4.480  0.7381  1.6998  2.4874
35936SOL     OW 9814   4.900   7.678   4.100 -0.0006  0.3444  0.4156
35936SOL    HW1 9815   4.903   7.770   4.126 -1.4568  0.3061  0.7883
35936SOL    HW2 9816   4.971   7.636   4.149 -0.0933  1.0457  1.1516
35937SOL     OW 9817   3.325   7.788  10.369  0.4708  0.4707 -0.2505
35937SOL    HW1 9818   3.407   7.798  10.418  0.2041  0.3949  0.2115
35937SOL    HW2 9819   3.331   7.853  10.299  1.9090 -0.9842 -1.5754
35938SOL     OW 9820   9.843   1.628  10.422 -0.0727  0.0847  0.2732
35938SOL    HW1 9821   9.874   1.715  10.449  1.7235 -0.0406 -1.1491
35938SOL    HW2 9822   9.826   1.582  10.504 -1.2124  1.7966  1.0604
35939SOL     OW 9823   0.407   6.789   0.802 -0.0906  0.3549 -0.3107
35939SOL    HW1 9824   0.398   6.884   0.791 -0.1536  0.5441  1.1176
35939SOL    HW2 9825   0.358   6.770   0.882  0.9595 -0.6833  0.1090
35940SOL     OW 9826   6.553   9.859   0.756 -0.3743 -0.3618 -0.1121
35940SOL    HW1 9827   6.529   9.914   0.682 -1.0429 -2.4636 -1.5341
35940SOL    HW2 9828   6.635   9.817   0.730 -1.0826 -1.8261 -0.1283
35941SOL     OW 9829   8.475   5.815  10.332  0.3943 -0.3728 -0.0576
35941SOL    HW1 9830   8.507   5.872  10.262 -0.8912  1.4998  0.8074
35941SOL    HW2 9831   8.503   5.727  10.305  1.8772  0.5484 -1.7644
35942SOL     OW 9832   9.659   0.046   0.430  0.0836  0.2951  0.4623
35942SOL    HW1 9833   9.700   0.133   0.425 -0.1661  0.3418 -1.3000
35942SOL    HW2 9834   9.584   0.059   0.488 -0.0627  1.3234  0.0758
35943SOL     OW 9835   7.685   8.028   6.102  0.7298  0.1621  0.1314
35943SOL    HW1 9836   7.750   7.982   6.048  0.3117 -0.7137  0.3502
35943SOL    HW2 9837   7.735   8.059   6.177  1.1294  0.5489 -0.2896
35944SOL     OW 9838   4.311   3.717   8.331  0.1984  0.2851  0.0546
35944SOL    HW1 9839   4.274   3.640   8.287  1.1804 -0.6381  0.8041
35944SOL    HW2 9840   4.292   3.703   8.423  0.4778  0.9067  0.2142
35945SOL     OW 9841   7.041   8.794   2.523 -0.5697  0.2339  0.0013
35945SOL    HW1 9842   7.069   8.793   2.431 -0.1609 -1.7168  0.1010
35945SOL    HW2 9843   6.979   8.866   2.529 -0.0953  0.8220 -1.6450
35946SOL     OW 9844   0.313   1.232   8.259 -0.1458 -0.2961  0.4735
35946SOL    HW1 9845   0.339   1.310   8.211 -0.8835 -0.5121 -0.3178
35946SOL    HW2 9846   0.351   1.242   8.346  0.7026  0.4013  0.0278
35947SOL     OW 9847   4.090   6.875   9.916 -0.4185  0.0345 -0.4110
35947SOL    HW1 9848   4.066   6.787   9.942 -2.6891  0.9152  0.6946
35947SOL    HW2 9849   4.094   6.925   9.997 -1.3023  1.4098 -1.1653
35948SOL     OW 9850   0.840   3.744  10.186  0.2439 -0.3069 -0.7578
35948SOL    HW1 9851   0.753   3.706  10.177  0.0125  0.5391 -2.5535
35948SOL    HW2 9852   0.824   3.831  10.222  0.4381 -0.5131 -0.1694
35949SOL     OW 9853   7.896   7.718   0.850 -0.1410  0.4764  0.0441
35949SOL    HW1 9854   7.960   7.789   0.855 -0.9339  1.2405 -0.4460
35949SOL    HW2 9855   7.815   7.760   0.821 -0.3277 -0.7927 -1.4182
35950SOL     OW 9856   1.179   7.263  10.723  0.2686  0.3630 -0.4049
35950SOL    HW1 9857   1.216   7.314  10.795  0.1971  2.0422 -1.5020
35950SOL    HW2 9858   1.233   7.183  10.719  0.4296  0.3622  1.3113
35951SOL     OW 9859   9.556   0.251  10.956 -0.0966 -0.2854  0.2473
35951SOL    HW1 9860   9.556   0.266  11.051  0.1912 -0.7251  0.3175
35951SOL    HW2 9861   9.607   0.172  10.944  0.3528  0.0840 -0.3286
35952SOL     OW 9862  10.350  10.641   7.359 -0.1175  0.4339  0.3213
35952SOL    HW1 9863  10.335  10.546   7.353  0.4764  0.4245 -1.4998
35952SOL    HW2 9864  10.284  10.679   7.301  0.0859  1.0840  0.5137
35953SOL     OW 9865   1.157   7.561   0.211 -0.0256 -0.3643 -0.3970
35953SOL    HW1 9866   1.117   7.621   0.148 -0.2835 -0.2158 -0.0971
35953SOL    HW2 9867   1.218   7.616   0.261 -0.9571 -0.1268  0.5144
35954SOL     OW 9868  11.009   3.057   9.159  0.9961 -0.2033 -0.0576
35954SOL    HW1 9869  10.955   3.012   9.224  1.4747 -0.2383  0.3199
35954SOL    HW2 9870  11.072   2.991   9.131  0.1325 -0.5180 -1.3510
35955SOL     OW 9871   4.355   9.098  10.391  0.3570 -0.0637 -0.1862
35955SOL    HW1 9872   4.266   9.100  10.356  0.6784  1.6959 -1.0118
35955SOL    HW2 9873   4.408   9.065  10.318  0.3931 -1.2371  0.3476
35956SOL     OW 9874   3.271   0.136   6.851 -0.2062  0.7636  0.5320
35956SOL    HW1 9875   3.288   0.189   6.773 -1.7555  0.6965  0.1322
35956SOL    HW2 9876   3.358   0.107   6.879  0.5781  2.5990  0.1261
35957SOL     OW 9877   2.197   8.747   8.300  0.2813  0.1663  0.4852
35957SOL    HW1 9878   2.135   8.704   8.242  0.2576  0.1965  0.4883
35957SOL    HW2 9879   2.216   8.831   8.258 -1.1421  0.9932  1.4212
35958SOL     OW 9880   7.463   3.582   4.035  0.6936  0.7427  0.2722
35958SOL    HW1 9881   7.389   3.531   4.071  0.0307  0.9816 -0.7169
35958SOL    HW2 9882   7.541   3.539   4.070  0.3056 -2.5437 -2.4113
35959SOL     OW 9883   9.522   7.277   5.972  0.4069  0.1549  0.3528
35959SOL    HW1 9884   9.487   7.201   6.019  0.3699  0.4109  0.7416
35959SOL    HW2 9885   9.497   7.352   6.026  2.3074  0.2956  1.1063
35960SOL     OW 9886   3.839   8.868  10.362  0.0457  0.2744 -0.3964
35960SOL    HW1 9887   3.855   8.957  10.331  0.1876 -0.0500 -1.3005
35960SOL    HW2 9888   3.924   8.824  10.351  0.8350  0.7529  2.7706
35961SOL     OW 9889   7.943   2.216   9.579  0.2194  0.2509 -0.4466
35961SOL    HW1 9890   8.031   2.253   9.577  0.6232 -0.6387  0.3767
35961SOL    HW2 9891   7.938   2.168   9.661 -0.7316 -0.4592 -0.8920
35962SOL     OW 9892   8.382   2.244   1.640  0.0513  0.0317 -0.5770
35962SOL    HW1 9893   8.420   2.245   1.552 -0.5492  0.3043 -0.8376
35962SOL    HW2 9894   8.336   2.328   1.647 -0.4414 -0.2646 -0.2395
35963SOL     OW 9895   5.241   9.319   1.252 -0.4545 -0.5341  0.1161
35963SOL    HW1 9896   5.223   9.230   1.222 -0.6726 -0.1339 -0.9757
35963SOL    HW2 9897   5.269   9.367   1.174 -1.4558  0.6546  0.4466
35964SOL     OW 9898   1.905   6.290  10.046  0.0070  0.1279 -0.3697
35964SOL    HW1 9899   1.974   6.335  10.094 -1.8272  1.0270  1.5975
35964SOL    HW2 9900   1.924   6.309   9.954  1.3863  1.8131  0.2015
35965SOL     OW 9901   2.154   1.084   9.134 -0.7857 -0.5116  0.4272
35965SOL    HW1 9902   2.212   1.099   9.060  0.4185  0.1819  1.4788
35965SOL    HW2 9903   2.111   1.001   9.113  1.8979 -2.0178  0.3979
35966SOL     OW 9904  10.527   9.267   0.172 -0.1418  0.2856 -0.3247
35966SOL    HW1 9905  10.431   9.264   0.174 -0.2156  0.0834 -2.1099
35966SOL    HW2 9906  10.554   9.176   0.185 -0.2732  0.0878 -1.3450
35967SOL     OW 9907   3.695   2.758   6.090  0.0276  0.3881  0.2963
35967SOL    HW1 9908   3.692   2.760   6.186 -2.6626  1.0888  0.2600
35967SOL    HW2 9909   3.608   2.730   6.064 -0.0810  2.5995 -1.9958
35968SOL     OW 9910   2.403   5.665   7.358  0.0175 -0.4190 -0.1626
35968SOL    HW1 9911   2.453   5.698   7.283  0.6278 -0.4499  0.2211
35968SOL    HW2 9912   2.458   5.596   7.395  0.5609  0.7774  1.3669
35969SOL     OW 9913   9.041   0.929   8.642 -0.0737  0.0920 -0.0668
35969SOL    HW1 9914   9.119   0.969   8.605  0.5610 -1.8255 -0.9383
35969SOL    HW2 9915   9.063   0.836   8.648 -1.9219 -0.3329  0.6563
35970SOL     OW 9916   4.943  10.965   8.840 -0.2976  0.2806 -0.1896
35970SOL    HW1 9917   4.911  10.903   8.775 -0.2042  0.1012 -0.0649
35970SOL    HW2 9918   4.869  10.981   8.899 -0.0800 -0.3566  0.2684
35971SOL     OW 9919   1.078  10.191   6.622  0.0120  0.4028  0.3512
35971SOL    HW1 9920   1.171  10.214   6.617 -0.0488  0.4909 -0.7048
35971SOL    HW2 9921   1.033  10.275   6.631  0.0381  0.3408  1.1615
35972SOL     OW 9922   3.570   8.370   0.898  0.0021  0.7894  0.0938
35972SOL    HW1 9923   3.499   8.355   0.960 -0.0767 -0.5726 -0.2919
35972SOL    HW2 9924   3.526   8.383   0.814  0.1755  0.9555  0.0272
35973SOL     OW 9925  10.971   1.065   5.692 -0.2606  0.5980  0.5556
35973SOL    HW1 9926  10.906   1.099   5.631 -0.6196  0.3367  0.7903
35973SOL    HW2 9927  10.946   1.101   5.777 -1.4848 -1.3454  1.0715
35974SOL     OW 9928   4.136   4.570   8.226  0.1574  0.3746  0.1541
35974SOL    HW1 9929   4.206   4.600   8.168 -1.0546  0.8492 -1.1325
35974SOL    HW2 9930   4.067   4.635   8.216 -1.4547 -1.3574 -0.5607
35975SOL     OW 9931   5.189   8.891   0.976  0.3566 -0.8200  0.7028
35975SOL    HW1 9932   5.169   8.948   1.051  0.4970 -0.4296  0.4447
35975SOL    HW2 9933   5.229   8.814   1.015 -0.0517 -0.8478  1.0771
35976SOL     OW 9934  10.276   8.642   6.023  0.2234 -0.2494  0.3208
35976SOL    HW1 9935  10.343   8.573   6.022  1.9567  1.3792 -0.1220
35976SOL    HW2 9936  10.255   8.656   5.931  0.0173 -0.0431  0.3988
35977SOL     OW 9937   2.425   2.103   0.182  0.1582 -0.7926  0.3482
35977SOL    HW1 9938   2.416   2.197   0.200  1.2858 -0.8215  1.1937
35977SOL    HW2 9939   2.362   2.061   0.240 -0.2039 -0.5712  0.1170
35978SOL     OW 9940   9.731   0.965   2.655  0.2637  0.1224  0.3151
35978SOL    HW1 9941   9.707   1.005   2.739  1.1654  1.4680 -0.0240
35978SOL    HW2 9942   9.734   1.039   2.594  2.0686 -0.4378 -0.3405
35979SOL     OW 9943   7.198   1.903  10.112  0.5898 -0.2344 -0.2997
35979SOL    HW1 9944   7.163   1.817  10.089 -1.2683  0.9134 -2.1214
35979SOL    HW2 9945   7.123   1.962  10.105  1.4971  1.3791  2.2167
35980SOL     OW 9946   4.430  10.401   3.819  0.3269 -0.3310 -0.3505
35980SOL    HW1 9947   4.507  10.410   3.761 -0.4027  0.0480 -1.2876
35980SOL    HW2 9948   4.418  10.488   3.856 -0.5076 -0.0054 -1.3407
35981SOL     OW 9949   0.529   3.595   4.925  0.4116 -0.0506 -0.5689
35981SOL    HW1 9950   0.434   3.583   4.938  0.1677  0.3713 -1.8183
35981SOL    HW2 9951   0.557   3.644   5.002 -0.3487 -0.3279 -0.0966
35982SOL     OW 9952   0.040   5.337   4.365  0.0336 -0.1456 -0.3288
35982SOL    HW1 9953   0.073   5.321   4.453  0.5680 -0.6518 -0.6155
35982SOL    HW2 9954  -0.002   5.423   4.371  0.9402  0.2819  0.1831
35983SOL     OW 9955   5.901   2.951   1.899 -0.7612 -0.8917  0.0855
35983SOL    HW1 9956   5.916   2.979   1.989  1.3343 -0.3355 -0.3746
35983SOL    HW2 9957   5.938   2.863   1.894  0.1795 -0.4737 -0.4941
35984SOL     OW 9958  10.451  10.035   7.354 -0.2219  0.0931  0.2390
35984SOL    HW1 9959  10.500  10.095   7.298 -1.5254 -0.5156 -1.6537
35984SOL    HW2 9960  10.370  10.081   7.374  0.0331  0.1145  1.2787
35985SOL     OW 9961   9.069   2.903   9.688 -0.0768 -0.1489 -0.0033
35985SOL    HW1 9962   9.029   2.980   9.729 -0.9065 -0.0674 -0.9062
35985SOL    HW2 9963   9.130   2.939   9.624  0.2497 -0.2622  0.2389
35986SOL     OW 9964   3.555   9.269   0.085 -0.3599  0.4553 -0.1525
35986SOL    HW1 9965   3.525   9.346   0.037  1.3290  1.2270 -0.0455
35986SOL    HW2 9966   3.618   9.304   0.148  0.0829 -0.9712  0.2145
35987SOL     OW 9967   5.552   1.355   8.305  0.5683  0.1359  0.2493
35987SOL    HW1 9968   5.648   1.348   8.300  0.7606  0.8237  2.2653
35987SOL    HW2 9969   5.532   1.439   8.265  1.1656  1.4778  2.6012
35988SOL     OW 9970   5.228  10.340   3.166  0.0919 -0.1099  0.2420
35988SOL    HW1 9971   5.150  10.389   3.190  0.3816  0.4850 -0.0129
35988SOL    HW2 9972   5.267  10.314   3.249 -0.0527  0.1090  0.3793
35989SOL     OW 9973   3.718   3.133   1.517  0.2441  0.6154  0.5736
35989SOL    HW1 9974   3.636   3.117   1.564 -0.3836  3.2925  0.5586
35989SOL    HW2 9975   3.694   3.125   1.425 -0.1571  1.7973  0.5534
35990SOL     OW 9976   5.914   8.199   6.431  0.1178  0.1767  0.3719
35990SOL    HW1 9977   5.998   8.154   6.442 -0.3386 -0.4935  1.2837
35990SOL    HW2 9978   5.928   8.260   6.358  1.1190 -0.5702 -0.0768
35991SOL     OW 9979   6.610   9.974   8.814  0.0067 -0.3744  0.1916
35991SOL    HW1 9980   6.633   9.883   8.796 -1.2416 -0.8846  1.0866
35991SOL    HW2 9981   6.640   9.989   8.904 -3.1872 -1.1469  1.5083
35992SOL     OW 9982   0.681   0.283   9.377  0.3404 -0.0148 -1.0239
35992SOL    HW1 9983   0.652   0.193   9.363 -1.8643  0.2769  0.9968
35992SOL    HW2 9984   0.616   0.336   9.332  1.1569  0.6088 -1.4945
35993SOL     OW 9985   8.397   0.674   6.980  0.1864 -0.0243 -0.1295
35993SOL    HW1 9986   8.376   0.670   6.886  1.0269 -1.8252 -0.2847
35993SOL    HW2 9987   8.365   0.590   7.014 -0.4371  0.7674  1.2874
35994SOL     OW 9988   3.212   3.703   5.211  0.0709  0.4641 -0.6859
35994SOL    HW1 9989   3.214   3.611   5.237  0.6053  0.5198 -0.5094
35994SOL    HW2 9990   3.304   3.723   5.191 -0.1505  0.7574 -1.4328
35995SOL     OW 9991   2.808   0.407   0.512  0.4233 -0.1625 -0.3251
35995SOL    HW1 9992   2.763   0.379   0.433 -0.2109  1.2688 -0.5084
35995SOL    HW2 9993   2.883   0.458   0.480  0.0019  0.6670 -0.0147
35996SOL     OW 9994   7.866   9.686   8.615 -0.1233  0.1720  0.5598
35996SOL    HW1 9995   7.790   9.706   8.562 -0.4192  1.7997  1.5406
35996SOL    HW2 9996   7.830   9.655   8.698  0.3200 -1.1178  0.2977
35997SOL     OW 9997   4.835   8.043   9.821 -0.3464 -0.6784 -0.0380
35997SOL    HW1 9998   4.854   8.004   9.906 -0.1662 -1.3617 -0.3804
35997SOL    HW2 9999   4.816   7.968   9.764 -1.0601 -0.1986 -0.4521
35998SOL     OW10000   3.643   4.517   7.812  0.3327  0.6319 -0.3145
35998SOL    HW110001   3.714   4.574   7.841  0.4211 -0.1853  1.1898
35998SOL    HW210002   3.685   4.451   7.758  0.8770 -0.3156  1.2229
35999SOL     OW10003   2.521   0.556   9.130  0.7001  0.5618 -1.2832
35999SOL    HW110004   2.463   0.632   9.129 -1.5246 -0.8608  1.8318
35999SOL    HW210005   2.596   0.584   9.182  0.1376  0.8120 -0.5911
36000SOL     OW10006   4.314   6.274   3.647 -0.2183 -0.1330 -0.2522
36000SOL    HW110007   4.302   6.181   3.630 -0.9530  0.1483 -1.4619
36000SOL    HW210008   4.274   6.317   3.571 -2.2032  1.2476  1.4808
36001SOL     OW10009   8.240   2.386   0.591  0.3247 -0.8738  1.1219
36001SOL    HW110010   8.229   2.461   0.532  0.9099 -0.4460  1.5424
36001SOL    HW210011   8.175   2.322   0.561  1.2652 -1.0807 -0.6149
36002SOL     OW10012   4.393   0.699   6.266  0.6692 -0.3084 -0.4840
36002SOL    HW110013   4.488   0.705   6.262  0.5895  0.4445 -1.9894
36002SOL    HW210014   4.371   0.629   6.204  0.3254 -1.9552  1.4005
36003SOL     OW10015   4.894   4.586   8.431 -0.4018  0.2154  0.2781
36003SOL    HW110016   4.894   4.526   8.505 -3.3990 -0.4037 -0.0682
36003SOL    HW210017   4.863   4.533   8.357  1.4895  1.0746 -1.2013
36004SOL     OW10018   1.198   3.858   8.833  0.0859 -0.3275  0.5677
36004SOL    HW110019   1.293   3.848   8.834 -0.0400 -1.8902  2.4633
36004SOL    HW210020   1.180   3.926   8.899 -0.1459 -0.6493  0.8433
36005SOL     OW10021   1.242  10.118   4.407  0.3873 -0.4631  0.0339
36005SOL    HW110022   1.320  10.065   4.426  1.0950  0.1096 -1.2022
36005SOL    HW210023   1.215  10.091   4.320 -1.4268 -1.3706  0.8206
36006SOL     OW10024   3.574  10.753   8.635 -0.2360  0.2089  0.0014
36006SOL    HW110025   3.586  10.777   8.543  1.6884  2.0974  0.6655
36006SOL    HW210026   3.515  10.819   8.670  1.0063  1.0053  0.6609
36007SOL     OW10027   7.380   6.483  10.446  0.0265 -0.0463 -0.8020
36007SOL    HW110028   7.300   6.483  10.499  0.3699  0.4502 -0.2745
36007SOL    HW210029   7.351   6.508  10.358 -0.3255  0.5953 -0.5043
36008SOL     OW10030   1.124   8.751   3.053  0.5752  0.3383  0.2549
36008SOL    HW110031   1.198   8.783   3.001  1.0062 -1.1134 -0.0865
36008SOL    HW210032   1.140   8.657   3.061 -0.7862  0.1398  0.9334
36009SOL     OW10033   8.242   2.703   9.896 -0.6208  0.3771  0.0065
36009SOL    HW110034   8.302   2.739   9.831 -0.6201 -0.7207 -0.6302
36009SOL    HW210035   8.229   2.774   9.959  0.7272  0.8979 -0.2601
36010SOL     OW10036   1.226   2.063   8.693 -0.5297 -0.0365  0.8320
36010SOL    HW110037   1.171   2.003   8.744 -3.8318  2.1232  0.1236
36010SOL    HW210038   1.206   2.149   8.728  3.4866  0.8963  1.3100
36011SOL     OW10039   7.855   5.653   3.722 -0.0517  0.5440  0.0650
36011SOL    HW110040   7.802   5.640   3.801 -1.2359  0.5190 -0.7083
36011SOL    HW210041   7.880   5.746   3.725  0.9292  0.2764  1.0565
36012SOL     OW10042   3.123   8.163   6.527  0.2198  0.1566  0.4738
36012SOL    HW110043   3.130   8.125   6.439  1.0800  0.8857  0.2098
36012SOL    HW210044   3.031   8.185   6.537  0.2606  0.9296 -0.6379
36013SOL     OW10045   4.074   6.625  10.295 -0.0519 -0.2598 -0.3752
36013SOL    HW110046   4.034   6.712  10.292 -1.0266 -0.7153 -0.7455
36013SOL    HW210047   4.168   6.641  10.283 -0.4112  0.5945 -2.2621
36014SOL     OW10048   0.955   4.904   0.016  0.3715 -0.7671  0.4594
36014SOL    HW110049   0.956   4.816   0.053 -1.7975 -0.5310  1.2211
36014SOL    HW210050   0.865   4.934   0.027  1.0742  1.6212  0.3683
36015SOL     OW10051  10.194   7.948   9.298  0.2047  0.0603  0.5572
36015SOL    HW110052  10.269   7.990   9.340  0.5933 -1.3504  1.3370
36015SOL    HW210053  10.218   7.944   9.205  0.5986  0.6420  0.6310
36016SOL     OW10054   6.495   5.252   0.220 -0.2410  0.2006  0.4489
36016SOL    HW110055   6.401   5.266   0.229 -0.0589  2.5696 -0.6227
36016SOL    HW210056   6.530   5.263   0.309 -0.6775  2.4300  0.3970
36017SOL     OW10057   6.002   7.979   8.382  0.0981  0.0774 -0.3242
36017SOL    HW110058   6.008   8.057   8.438  0.1554  0.2573 -0.5806
36017SOL    HW210059   6.006   8.013   8.293 -0.3471 -0.1799 -0.4449
36018SOL     OW10060   7.102   6.662   7.770 -0.1489  0.4841 -0.1738
36018SOL    HW110061   7.183   6.687   7.725  0.1609 -0.3823 -0.1126
36018SOL    HW210062   7.070   6.586   7.722 -0.1642 -0.0563  0.6701
36019SOL     OW10063   3.608   5.129   7.307 -0.3179 -0.2326  0.3980
36019SOL    HW110064   3.617   5.039   7.338 -1.2617  0.1312  1.7694
36019SOL    HW210065   3.671   5.178   7.359  1.1931 -0.2680 -1.2905
36020SOL     OW10066   1.962   6.121   6.635 -0.0855 -0.9981 -0.1592
36020SOL    HW110067   2.051   6.135   6.668 -0.7399  0.5384  1.0929
36020SOL    HW210068   1.959   6.169   6.552  0.0564 -0.4509  0.1489
36021SOL     OW10069  10.824  10.793   9.498 -0.0153 -0.4552 -0.2655
36021SOL    HW110070  10.867  10.877   9.515 -1.6817  0.4861 -0.5802
36021SOL    HW210071  10.810  10.755   9.585  0.7333 -0.4371 -0.1247
36022SOL     OW10072   0.063  10.984  10.214 -0.4231 -0.3035  0.4798
36022SOL    HW110073   0.148  10.975  10.256 -0.4133  1.4675  0.9043
36022SOL    HW210074   0.083  11.011  10.124 -0.4585 -3.6662 -0.6922
36023SOL     OW10075  10.645   4.553   0.863  0.4494 -0.5710 -0.2467
36023SOL    HW110076  10.697   4.473   0.865  1.0741 -0.1941 -0.9742
36023SOL    HW210077  10.694   4.615   0.917  0.2971 -0.4799 -0.2105
36024SOL     OW10078   2.385   9.105   6.478 -0.0759 -0.0057  0.2139
36024SOL    HW110079   2.375   9.067   6.565  0.5214  0.5580  0.5321
36024SOL    HW210080   2.464   9.158   6.484 -0.6095  0.8772 -0.3770
36025SOL     OW10081   6.754   0.494   4.204  0.5124  0.2690  0.3853
36025SOL    HW110082   6.802   0.520   4.126 -1.2922 -0.5306 -1.0665
36025SOL    HW210083   6.747   0.399   4.197 -0.5274  0.2852  1.0240
36026SOL     OW10084   0.450   9.063   4.112 -0.6688  0.3408  0.3111
36026SOL    HW110085   0.373   9.092   4.064 -0.7028  1.1635  0.8537
36026SOL    HW210086   0.521   9.067   4.049 -1.2427 -1.5587 -0.5477
36027SOL     OW10087   1.716   5.317   8.991  0.3185 -0.0539  0.2008
36027SOL    HW110088   1.667   5.300   8.911  1.0413  1.8696 -0.7205
36027SOL    HW210089   1.706   5.411   9.006  2.5323  0.1651  0.7461
36028SOL     OW10090  10.937   5.039   1.634  0.3443  0.1995  0.4585
36028SOL    HW110091  10.865   4.977   1.631  0.9925 -0.5744  0.7217
36028SOL    HW210092  10.896   5.124   1.615 -0.4524 -0.3739 -0.4985
36029SOL     OW10093   0.185   9.731  10.057 -0.2719  0.2926 -0.6688
36029SOL    HW110094   0.247   9.660  10.075  2.5933  2.6151 -0.5439
36029SOL    HW210095   0.150   9.755  10.143  0.2656  0.2488 -0.4296
36030SOL     OW10096   2.372   3.857   1.867  0.0935  0.2133  0.1351
36030SOL    HW110097   2.292   3.829   1.913 -1.1373  0.6360 -1.6251
36030SOL    HW210098   2.414   3.775   1.841 -0.8655 -0.0292 -0.6947
36031SOL     OW10099   4.896   0.129   0.322  0.3375 -0.2063 -0.1874
36031SOL    HW110100   4.802   0.128   0.337  0.2841 -0.1470 -0.5170
36031SOL    HW210101   4.934   0.121   0.410  0.0244 -0.8991 -0.1086
36032SOL     OW10102   2.563   1.150   8.602  0.6902  0.0538  0.1868
36032SOL    HW110103   2.609   1.194   8.530 -0.5881  1.1238 -0.0091
36032SOL    HW210104   2.627   1.088   8.636  1.0133 -1.2683 -2.5568
36033SOL     OW10105   4.663   4.441   4.129 -0.4237 -0.5315 -0.1281
36033SOL    HW110106   4.573   4.460   4.157 -0.1766  0.6263 -0.0700
36033SOL    HW210107   4.667   4.346   4.125 -1.3783 -0.6319  0.7837
36034SOL     OW10108   0.214   6.049  10.373  0.0556 -0.0342  0.0855
36034SOL    HW110109   0.154   6.121  10.396 -0.8846 -0.7536 -0.0227
36034SOL    HW210110   0.157   5.972  10.370  1.2356 -1.0022  1.3862
36035SOL     OW10111   2.780   4.962   4.820  0.1298  0.5126 -0.1183
36035SOL    HW110112   2.843   4.911   4.769  0.2143 -1.7931  2.1050
36035SOL    HW210113   2.835   5.022   4.872  0.0700  2.4983 -2.2191
36036SOL     OW10114   8.572   0.947   6.038  0.0254  0.1174 -0.0990
36036SOL    HW110115   8.525   1.027   6.015  0.1124  0.6417  1.4071
36036SOL    HW210116   8.515   0.876   6.008 -0.7630  0.7438 -0.1141
36037SOL     OW10117   0.196   8.644   1.737 -0.1215 -0.0654 -0.5902
36037SOL    HW110118   0.172   8.654   1.645 -1.8678  0.4444 -0.1243
36037SOL    HW210119   0.113   8.656   1.785  1.1002  1.9444  1.1935
36038SOL     OW10120   3.184   1.686   2.938  0.1774  0.2247 -0.3821
36038SOL    HW110121   3.269   1.645   2.947 -0.3137 -0.3655  2.5900
36038SOL    HW210122   3.191   1.768   2.989 -0.9156  0.3088 -0.3393
36039SOL     OW10123   0.891   2.851   1.799  0.3654 -0.0907  0.2892
36039SOL    HW110124   0.924   2.767   1.830  0.9690 -0.2747 -0.7662
36039SOL    HW210125   0.946   2.917   1.842  2.2646 -0.3970 -1.5007
36040SOL     OW10126   9.633   5.033   2.465 -0.2534 -0.0895  0.1258
36040SOL    HW110127   9.543   5.000   2.459  0.5884 -2.5061 -0.2681
36040SOL    HW210128   9.669   5.019   2.378  0.8346 -0.1819  0.5792
36041SOL     OW10129   1.309   9.120   1.183 -0.2893 -0.0650  0.0164
36041SOL    HW110130   1.244   9.050   1.190 -2.4359  1.8903  0.7998
36041SOL    HW210131   1.313   9.157   1.271  0.3420  1.1725 -0.5229
36042SOL     OW10132   0.731   5.680   4.922 -0.6892  0.1849  0.2273
36042SOL    HW110133   0.813   5.677   4.972 -2.1356  0.0059  2.7958
36042SOL    HW210134   0.702   5.589   4.919  0.0329 -0.0324 -2.3014
36043SOL     OW10135   0.794   7.869   7.058 -0.0755  0.0767 -0.4069
36043SOL    HW110136   0.879   7.832   7.035 -0.1166 -0.7904  0.7394
36043SOL    HW210137   0.761   7.812   7.127 -0.5629  1.7243  0.7772
36044SOL     OW10138   6.548   8.340   6.168  0.6133 -0.7897  0.2169
36044SOL    HW110139   6.579   8.261   6.212  0.8771 -1.1324 -0.5645
36044SOL    HW210140   6.536   8.404   6.239 -0.6529 -1.8443  0.9803
36045SOL     OW10141   3.569   0.452   3.272 -0.2847  0.0913  0.3817
36045SOL    HW110142   3.648   0.398   3.274 -0.1839  0.2451  0.5518
36045SOL    HW210143   3.599   0.540   3.297 -0.6043  0.0362  0.9637
36046SOL     OW10144   2.619   6.649   0.704  0.3518 -0.0420 -0.2006
36046SOL    HW110145   2.568   6.728   0.718 -1.6692 -1.1645 -0.8136
36046SOL    HW210146   2.703   6.680   0.671 -0.3765  1.8362 -0.4103
36047SOL     OW10147   9.499   1.474   6.084  0.6576 -0.3051  0.0288
36047SOL    HW110148   9.518   1.561   6.049 -0.0644  0.0005  0.3687
36047SOL    HW210149   9.428   1.488   6.147 -2.1329 -1.6187 -2.5617
36048SOL     OW10150   1.123   4.913   7.623 -0.5833  0.0504  0.2242
36048SOL    HW110151   1.207   4.948   7.650 -0.6924  1.0751 -0.7000
36048SOL    HW210152   1.059   4.977   7.653 -0.9739 -0.4080  0.3753
36049SOL     OW10153   7.251  10.100   1.406  0.0476  0.9318 -1.0044
36049SOL    HW110154   7.311  10.068   1.339 -0.4319  0.0497 -1.0189
36049SOL    HW210155   7.194  10.161   1.359  0.6981  1.5177 -1.0606
36050SOL     OW10156   2.159   5.604   4.574  0.2455 -0.7113  0.7644
36050SOL    HW110157   2.220   5.642   4.511  0.3599 -0.6984  0.8800
36050SOL    HW210158   2.138   5.518   4.539  0.3675 -0.7343  0.7466
36051SOL     OW10159   6.328   9.195   1.133 -0.6568  0.4590 -0.3712
36051SOL    HW110160   6.363   9.254   1.066 -0.8708 -0.8700 -1.7150
36051SOL    HW210161   6.397   9.129   1.145 -1.2267 -0.1603 -0.4123
36052SOL     OW10162   4.224   7.467   8.395  0.0828  0.2206  0.1435
36052SOL    HW110163   4.298   7.499   8.446  1.0703 -1.9879  0.1743
36052SOL    HW210164   4.167   7.423   8.459  1.0140 -1.9995 -0.4677
36053SOL     OW10165   4.790   7.726   1.022  0.2554 -0.1072  0.0147
36053SOL    HW110166   4.752   7.729   1.110  0.1919 -0.0346 -0.0150
36053SOL    HW210167   4.877   7.687   1.035  0.1018 -0.4403  0.0571
36054SOL     OW10168   5.043   6.182   1.193 -0.0255 -0.2854  0.2874
36054SOL    HW110169   5.027   6.115   1.127 -2.5765 -1.8948  2.3409
36054SOL    HW210170   5.118   6.150   1.242  0.2366 -0.4371 -0.2118
36055SOL     OW10171   8.267   3.030  10.618 -0.1648  0.1137 -0.0980
36055SOL    HW110172   8.336   3.087  10.652  0.2848 -0.0348 -0.7515
36055SOL    HW210173   8.309   2.944  10.611 -1.0772 -0.5379  1.7313
36056SOL     OW10174  10.596   1.897   7.531 -0.0064  0.0077  0.1493
36056SOL    HW110175  10.616   1.985   7.501 -1.7636  0.7356  1.0079
36056SOL    HW210176  10.673   1.871   7.582  1.7338 -0.1097 -2.3751
36057SOL     OW10177   1.990   1.250   1.525 -0.1851 -0.0873  0.0219
36057SOL    HW110178   1.955   1.273   1.611  0.0722 -2.1736  0.7414
36057SOL    HW210179   1.913   1.228   1.473 -0.2246 -1.3655  0.5658
36058SOL     OW10180   2.572   6.310   3.330  0.4054  0.8985 -0.3023
36058SOL    HW110181   2.509   6.247   3.365  3.3345 -0.9058  2.2693
36058SOL    HW210182   2.617   6.263   3.260  0.2314  1.4579 -0.7976
36059SOL     OW10183   8.963   3.965   5.222 -0.5523 -0.2852 -0.0883
36059SOL    HW110184   8.873   3.941   5.199  0.1576 -2.1873 -1.1159
36059SOL    HW210185   9.017   3.903   5.173  1.3465  1.1414  0.1045
36060SOL     OW10186   4.242   5.072  10.614 -0.4596  0.3466 -0.3391
36060SOL    HW110187   4.238   4.997  10.555 -0.3617  1.1554 -1.4006
36060SOL    HW210188   4.260   5.147  10.557  1.0977  0.9517  0.8809
36061SOL     OW10189   2.210   4.356   7.451  0.7230  0.5309 -0.5540
36061SOL    HW110190   2.148   4.310   7.394  0.8297  0.1510 -0.3666
36061SOL    HW210191   2.174   4.344   7.539  0.8821  0.5964 -0.4803
36062SOL     OW10192   0.060   1.770   7.624 -0.5250 -0.2488 -0.2143
36062SOL    HW110193   0.011   1.759   7.542  0.8905 -0.0362 -1.1207
36062SOL    HW210194   0.091   1.860   7.622  0.0562 -0.4347  0.2517
36063SOL     OW10195   7.601   8.960   6.789  0.3704  0.0904  0.6801
36063SOL    HW110196   7.536   8.898   6.756 -0.2298  1.0474  0.0073
36063SOL    HW210197   7.597   8.949   6.884 -1.6644  0.9186  0.7583
36064SOL     OW10198   9.347   5.670   2.387 -0.5519 -0.2953 -0.4145
36064SOL    HW110199   9.338   5.724   2.309  0.0905 -0.7633 -0.8217
36064SOL    HW210200   9.427   5.619   2.372 -1.4847 -1.8391 -0.3235
36065SOL     OW10201   8.744  10.897   2.145 -0.0697 -0.5384  0.0830
36065SOL    HW110202   8.671  10.841   2.120 -0.0093 -1.0555  1.0348
36065SOL    HW210203   8.818  10.864   2.092 -0.0005 -1.4642  0.7272
36066SOL     OW10204  10.699   8.618   1.198 -0.3750  0.7859 -0.0065
36066SOL    HW110205  10.624   8.646   1.146 -2.8739 -2.1005  1.7773
36066SOL    HW210206  10.756   8.574   1.135 -0.9295  1.5597 -1.0963
36067SOL     OW10207   3.422   9.849   7.912 -0.1574 -0.6178  0.4274
36067SOL    HW110208   3.338   9.810   7.938 -0.0745  0.2471  2.1437
36067SOL    HW210209   3.478   9.775   7.891 -1.5122 -1.2053 -1.4185
36068SOL     OW10210   7.976   5.745   5.236 -0.0357 -0.0578 -0.0183
36068SOL    HW110211   8.056   5.794   5.256 -0.4162  0.8801 -0.7351
36068SOL    HW210212   8.005   5.677   5.174  0.1218  0.6135 -0.6895
36069SOL     OW10213   9.175   7.621   4.996  0.3365 -0.4235 -0.1242
36069SOL    HW110214   9.233   7.576   5.058  1.7018 -0.2151 -1.1966
36069SOL    HW210215   9.234   7.675   4.943 -0.8365 -0.2905 -1.3488
36070SOL     OW10216   8.019  10.254   4.986 -0.4297  0.6764  0.3531
36070SOL    HW110217   7.975  10.339   4.980  0.6861  1.2191 -0.7582
36070SOL    HW210218   7.952  10.190   4.966 -1.0315  1.3897  0.0440
36071SOL     OW10219   8.849  10.316   8.379  0.2969  0.0410  0.0125
36071SOL    HW110220   8.769  10.352   8.419 -0.9594 -2.2836 -0.2179
36071SOL    HW210221   8.895  10.273   8.451 -0.5446 -1.7164 -0.4306
36072SOL     OW10222   6.128   6.397   6.091  0.2687 -0.0535 -0.1421
36072SOL    HW110223   6.174   6.331   6.142  3.7134  2.3255  0.1912
36072SOL    HW210224   6.135   6.367   6.000 -0.7262 -1.4409  0.2066
36073SOL     OW10225   9.033   8.605   9.138  0.1640  0.6823  0.2467
36073SOL    HW110226   9.085   8.622   9.059 -0.1076 -0.6322 -0.2438
36073SOL    HW210227   8.942   8.613   9.108  0.0648  1.1030  0.6555
36074SOL     OW10228   2.072   1.033   5.652  0.0771  0.3666 -0.3960
36074SOL    HW110229   1.979   1.009   5.658  0.6837 -1.9738  0.7427
36074SOL    HW210230   2.119   0.950   5.660  2.3427  1.6972  1.1902
36075SOL     OW10231   8.968   1.047   4.389  0.4010  0.0889 -0.0758
36075SOL    HW110232   9.033   1.084   4.329  0.2207  0.0950 -0.2669
36075SOL    HW210233   8.918   0.985   4.336  1.5166 -1.4128  0.5203
36076SOL     OW10234   1.949   0.065  11.009 -0.1912 -0.7999  0.1073
36076SOL    HW110235   1.986   0.025  10.931  0.7682 -2.8028  1.4900
36076SOL    HW210236   1.860   0.090  10.984  0.2418 -0.9543 -1.7190
36077SOL     OW10237   0.149   8.025   3.717 -0.0721 -0.2967  0.3722
36077SOL    HW110238   0.062   7.986   3.715 -0.4051  0.1475  2.9785
36077SOL    HW210239   0.134   8.117   3.739  1.0282 -0.1606  0.6074
36078SOL     OW10240   5.672   1.742   8.335 -0.4888 -0.6165 -0.1131
36078SOL    HW110241   5.754   1.766   8.379 -0.0775 -0.5820 -0.8785
36078SOL    HW210242   5.604   1.784   8.388 -0.0345 -0.8262  0.6598
36079SOL     OW10243   7.191   7.114   4.342  0.2067 -0.1446  0.6834
36079SOL    HW110244   7.165   7.192   4.294 -0.2611  0.4293  1.8273
36079SOL    HW210245   7.112   7.062   4.349  0.6264 -0.9833 -0.5049
36080SOL     OW10246   4.532   0.535   1.364 -0.5441  0.5606  0.0341
36080SOL    HW110247   4.598   0.471   1.338  0.5882  1.0963  1.4264
36080SOL    HW210248   4.563   0.618   1.327 -0.5042  0.7794  0.5401
36081SOL     OW10249   3.374   5.099   0.563 -0.1741 -0.1505  0.5214
36081SOL    HW110250   3.391   5.091   0.469  2.1250 -0.4585  0.8921
36081SOL    HW210251   3.291   5.055   0.576  0.5560 -2.1763 -1.0651
36082SOL     OW10252   2.218  10.432   7.987  0.0706 -0.2424 -0.1531
36082SOL    HW110253   2.299  10.452   8.036  1.5975  1.0051 -2.9658
36082SOL    HW210254   2.209  10.504   7.925 -0.7754 -2.5316 -2.8763
36083SOL     OW10255   2.687   5.693   8.893 -0.2721 -0.7384 -0.1417
36083SOL    HW110256   2.732   5.759   8.945 -1.2028 -0.6734  0.6113
36083SOL    HW210257   2.627   5.650   8.955 -0.4680 -1.5401 -0.8668
36084SOL     OW10258  10.160  10.748   7.175 -0.0226  0.2006 -0.1744
36084SOL    HW110259  10.183  10.714   7.088 -1.3184  1.3257 -0.9807
36084SOL    HW210260  10.097  10.684   7.209  0.7357 -0.4174  0.0950
36085SOL     OW10261  10.629   9.702   9.687 -0.2150 -0.2571 -0.1651
36085SOL    HW110262  10.720   9.676   9.673  0.7183  1.2588  2.3512
36085SOL    HW210263  10.609   9.761   9.615  1.4482  0.7918  0.1781
36086SOL     OW10264   3.743   7.474  10.768  0.3151 -0.5786 -0.0426
36086SOL    HW110265   3.778   7.410  10.830 -1.1099 -1.3084  0.0479
36086SOL    HW210266   3.786   7.452  10.685  0.8192 -0.8138  0.2785
36087SOL     OW10267   8.398   5.284   7.559 -0.0936  0.2147  0.1552
36087SOL    HW110268   8.369   5.195   7.580  0.0209  0.1669  0.1107
36087SOL    HW210269   8.437   5.316   7.640  0.1206  0.1203  0.0919
36088SOL     OW10270   2.852   6.741   7.336 -0.3218 -0.2929  0.3270
36088SOL    HW110271   2.796   6.813   7.308  0.1996  0.4155  1.0722
36088SOL    HW210272   2.838   6.735   7.431  0.7006 -0.2319  0.4974
36089SOL     OW10273   9.074   7.412   8.367 -0.1897 -0.5472 -0.5248
36089SOL    HW110274   8.990   7.438   8.404  0.7840  1.8260  0.2656
36089SOL    HW210275   9.081   7.464   8.286  0.3319 -1.0600 -0.8190
36090SOL     OW10276   3.818  10.253   7.130  0.3358 -0.2631  0.7519
36090SOL    HW110277   3.875  10.195   7.181 -0.4690 -0.7497  1.1195
36090SOL    HW210278   3.798  10.325   7.189 -0.8515 -0.9849  1.2590
36091SOL     OW10279   8.961   2.963   1.520  0.4121 -0.2661 -0.0512
36091SOL    HW110280   8.966   2.977   1.615  1.0756  0.3435 -0.1634
36091SOL    HW210281   8.879   3.004   1.494  0.1579 -0.5589  0.2748
36092SOL     OW10282   9.158   4.607   6.030 -0.3520  0.1545  0.0252
36092SOL    HW110283   9.187   4.516   6.029  0.1858  0.3083  0.6963
36092SOL    HW210284   9.227   4.655   5.984 -0.2783  0.3219  0.3100
36093SOL     OW10285   3.556   8.331   4.266 -0.1924  0.1118 -0.2045
36093SOL    HW110286   3.502   8.400   4.228 -0.8741 -1.3782 -2.0687
36093SOL    HW210287   3.495   8.261   4.287  0.6354 -0.3846  0.6467
36094SOL     OW10288   8.161   1.164   1.540  0.0016 -0.4910 -0.0951
36094SOL    HW110289   8.184   1.155   1.448 -0.4737  2.5020 -0.5896
36094SOL    HW210290   8.066   1.151   1.543 -0.3372  1.6533 -0.4463
36095SOL     OW10291   8.971   1.089   1.426 -0.0733 -0.2928 -0.2665
36095SOL    HW110292   8.966   1.029   1.501 -0.9241  0.1487  0.0445
36095SOL    HW210293   8.930   1.170   1.457 -0.0678  0.0335 -1.0831
36096SOL     OW10294   6.035   4.196   7.597  0.0227  0.1716  0.0467
36096SOL    HW110295   6.037   4.102   7.611  1.6278  0.4418  2.1985
36096SOL    HW210296   6.085   4.210   7.517  1.2418 -0.7297  0.6222
36097SOL     OW10297   6.950  10.363   7.804  1.0938 -0.4111  0.1088
36097SOL    HW110298   6.964  10.457   7.799  0.4461 -0.3028  0.1885
36097SOL    HW210299   6.858  10.351   7.781  0.7640 -0.8777  1.5154
36098SOL     OW10300   4.102  10.826   7.284  0.2910 -0.1426  0.1255
36098SOL    HW110301   4.140  10.829   7.196 -0.3373  2.5431 -0.1439
36098SOL    HW210302   4.008  10.819   7.269  0.2077 -0.1044  0.6063
36099SOL     OW10303   6.805   2.244   1.167  0.1005 -0.2362  0.4162
36099SOL    HW110304   6.716   2.223   1.138  0.1689 -1.1886  0.8490
36099SOL    HW210305   6.846   2.158   1.181  0.4697  0.1808  2.0968
36100SOL     OW10306   7.844  10.762   1.244  0.4299  0.5188  0.1351
36100SOL    HW110307   7.909  10.694   1.265  1.1699  1.0812 -0.3185
36100SOL    HW210308   7.761  10.723   1.271  1.1652  0.7068  3.0233
36101SOL     OW10309   5.788   2.379   6.153 -0.4065 -0.7436  0.2035
36101SOL    HW110310   5.767   2.295   6.195  1.6085 -0.6957  1.4115
36101SOL    HW210311   5.814   2.436   6.225 -3.1669  1.4947 -0.4047
36102SOL     OW10312   2.974   2.630   1.086  0.0829  0.1989  0.5292
36102SOL    HW110313   3.021   2.684   1.149  1.4699 -1.0726  0.6360
36102SOL    HW210314   2.955   2.689   1.013  0.3609  1.1502  1.2182
36103SOL     OW10315   0.678   8.238   2.226  0.5535 -0.4680 -0.3856
36103SOL    HW110316   0.582   8.239   2.231  0.5227  0.7524 -0.7976
36103SOL    HW210317   0.707   8.217   2.314 -0.0929  0.0242 -0.0468
36104SOL     OW10318   6.056   0.932   9.759 -0.6865 -0.3430  0.0992
36104SOL    HW110319   6.030   0.996   9.826  0.4433  0.7795 -0.4953
36104SOL    HW210320   6.060   0.982   9.678  2.7830 -0.4671  0.0371
36105SOL     OW10321   5.775   1.749   4.574 -0.5720 -0.7518 -0.1726
36105SOL    HW110322   5.728   1.698   4.508  0.5981 -1.8343 -0.2143
36105SOL    HW210323   5.840   1.688   4.610  1.0851  0.7789 -0.4249
36106SOL     OW10324   7.694   8.000   1.855  0.1721 -0.5149  0.3076
36106SOL    HW110325   7.746   7.964   1.783 -2.5562  1.9453 -3.2998
36106SOL    HW210326   7.650   7.924   1.894  1.2830 -1.8970 -1.0052
36107SOL     OW10327   5.688  10.295   8.523 -0.4354  0.4454 -0.1773
36107SOL    HW110328   5.744  10.222   8.550 -1.7606 -0.3674  0.4935
36107SOL    HW210329   5.685  10.289   8.428 -1.1014 -0.8557 -0.0981
36108SOL     OW10330   2.162  10.515   4.619 -0.4346 -0.5396 -0.3293
36108SOL    HW110331   2.178  10.559   4.536 -1.2011 -0.7744 -0.6112
36108SOL    HW210332   2.083  10.557   4.653  0.0748 -0.1928  0.4621
36109SOL     OW10333   0.796   3.850   2.330 -0.5742 -0.0820 -0.0300
36109SOL    HW110334   0.820   3.766   2.369 -0.1582  0.2769  0.4873
36109SOL    HW210335   0.837   3.848   2.243  1.0883  0.3861  0.7088
36110SOL     OW10336   4.790   5.781   9.897 -0.1379 -0.3285 -0.3387
36110SOL    HW110337   4.710   5.738   9.867 -0.8095  0.1613  0.6543
36110SOL    HW210338   4.799   5.754   9.988 -0.7395  1.7604  0.4097
36111SOL     OW10339   1.539   1.658   8.569  0.3157  0.1787 -0.3531
36111SOL    HW110340   1.532   1.672   8.664 -1.7822  0.2369 -0.4602
36111SOL    HW210341   1.529   1.745   8.531  0.3703  0.0584 -0.6442
36112SOL     OW10342   2.875   9.241   8.956  0.3537 -0.3125 -0.2574
36112SOL    HW110343   2.803   9.208   8.902  0.7646  0.1608 -1.1112
36112SOL    HW210344   2.928   9.293   8.896 -0.1055  1.6863  0.9666
36113SOL     OW10345   2.878   7.328   6.414 -0.0997 -0.4921 -0.1347
36113SOL    HW110346   2.931   7.298   6.339 -2.3806 -0.5527 -1.8358
36113SOL    HW210347   2.900   7.421   6.423  2.7674 -1.2095  1.4706
36114SOL     OW10348  10.921   6.694   5.305  0.2624 -0.2741 -0.3109
36114SOL    HW110349  10.973   6.771   5.281  0.7810 -0.7391 -0.7031
36114SOL    HW210350  10.907   6.704   5.400  1.4068 -0.3304 -0.1216
36115SOL     OW10351   6.115   7.329   9.617 -0.1039 -0.3824 -0.1954
36115SOL    HW110352   6.022   7.342   9.635 -0.0553 -0.1750 -0.0993
36115SOL    HW210353   6.118   7.243   9.574 -0.1688 -1.0734  1.1352
36116SOL     OW10354   6.886   0.755  10.895 -0.0154 -0.3991 -0.1761
36116SOL    HW110355   6.903   0.800  10.813 -0.1034 -0.9782 -0.5243
36116SOL    HW210356   6.935   0.804  10.961 -0.0680  0.1612 -0.5480
36117SOL     OW10357   7.691   7.977   7.162 -0.2219 -0.0760  0.4712
36117SOL    HW110358   7.615   7.933   7.124 -1.2759  0.5074  1.8115
36117SOL    HW210359   7.682   7.964   7.256  2.7645 -2.2417  0.5971
36118SOL     OW10360   5.724   1.007   1.078 -0.1349 -0.3897 -0.3320
36118SOL    HW110361   5.735   1.095   1.113 -0.3969 -0.1902 -0.7411
36118SOL    HW210362   5.800   0.995   1.020  0.2807 -0.7064  0.2704
36119SOL     OW10363   3.740   6.349   6.075 -0.2244  0.6062  0.3971
36119SOL    HW110364   3.769   6.386   6.158  0.3824  0.4963  0.2398
36119SOL    HW210365   3.806   6.283   6.054 -1.4592 -0.8420  0.8587
36120SOL     OW10366   0.075  11.036   1.847  0.2132  0.3634 -0.2080
36120SOL    HW110367   0.051  10.979   1.774 -0.1689 -1.0103  0.9444
36120SOL    HW210368   0.036  10.994   1.924  0.1208  2.0755  0.7229
36121SOL     OW10369   1.205   9.135   0.316 -0.1477  0.3113  0.4127
36121SOL    HW110370   1.244   9.150   0.230  0.9107  1.9196  1.1171
36121SOL    HW210371   1.114   9.164   0.306 -0.9768 -2.4445 -0.9493
36122SOL     OW10372   8.959   9.466   8.589  0.0009  0.8685 -0.0303
36122SOL    HW110373   8.961   9.560   8.609 -1.3382  1.6878 -3.1392
36122SOL    HW210374   9.030   9.453   8.526 -1.9532  0.6621 -2.3519
36123SOL     OW10375   4.364   3.157   5.156  0.8482  0.1012 -0.1475
36123SOL    HW110376   4.293   3.181   5.096  0.4880 -0.6170 -0.0114
36123SOL    HW210377   4.350   3.064   5.174  0.1081  0.5856  2.1532
36124SOL     OW10378  10.982  10.386  10.942  0.2694  0.3078 -0.0315
36124SOL    HW110379  10.921  10.325  10.982 -0.1068  1.5696  1.4150
36124SOL    HW210380  11.043  10.408  11.012 -0.6228  2.8619  0.0391
36125SOL     OW10381   9.449   5.445   5.079  0.7313 -0.0849  0.0412
36125SOL    HW110382   9.360   5.430   5.111  1.1970 -1.6025  0.7082
36125SOL    HW210383   9.443   5.526   5.029 -0.6779  0.7498  1.4585
36126SOL     OW10384   7.076   3.819   9.674  0.4054  0.7647 -0.3927
36126SOL    HW110385   7.058   3.849   9.763  1.2809  1.6863 -0.5124
36126SOL    HW210386   7.152   3.762   9.682  0.1266  0.3788 -0.4737
36127SOL     OW10387   4.412   6.292   6.461 -0.0224 -0.3371  0.1577
36127SOL    HW110388   4.320   6.270   6.475  0.3477 -1.0992  1.6146
36127SOL    HW210389   4.435   6.347   6.536  0.7057 -0.1352 -0.2032
36128SOL     OW10390   7.376   4.362   0.088  0.1494 -0.7288 -0.2353
36128SOL    HW110391   7.355   4.380   0.180 -1.0599 -1.7653 -0.2735
36128SOL    HW210392   7.290   4.351   0.047  0.5851  1.5879 -1.9117
36129SOL     OW10393   8.596   6.530   0.772 -0.2476 -0.1352  0.2993
36129SOL    HW110394   8.688   6.555   0.777 -0.1089 -0.8571  2.1905
36129SOL    HW210395   8.548   6.612   0.787  0.0929  0.0719  0.2644
36130SOL     OW10396   0.217   3.022   6.068  0.4048 -0.0416  0.1440
36130SOL    HW110397   0.289   3.043   6.009 -1.0349 -0.3951 -1.8663
36130SOL    HW210398   0.204   2.928   6.057 -2.9517  0.5624 -2.8745
36131SOL     OW10399   8.953   7.645   6.843  0.7321 -0.7133  0.1419
36131SOL    HW110400   8.981   7.736   6.838  0.4277 -0.6441 -0.3512
36131SOL    HW210401   8.996   7.602   6.769 -0.7260 -0.5257 -0.8540
36132SOL     OW10402   8.967   1.226   7.821 -0.6061  0.1884 -0.1286
36132SOL    HW110403   8.952   1.152   7.879  0.1767  0.8523  0.9715
36132SOL    HW210404   8.948   1.193   7.734 -0.6216 -1.1916  0.3751
36133SOL     OW10405   1.561   0.531   5.567 -0.3486 -0.1309  0.7761
36133SOL    HW110406   1.515   0.517   5.649  0.0111  1.7647  1.3526
36133SOL    HW210407   1.547   0.623   5.547  2.3621  0.3036  0.5018
36134SOL     OW10408   5.416   0.454   4.176  0.3167  0.2808  0.1881
36134SOL    HW110409   5.510   0.441   4.188  0.8335  2.7418 -0.5875
36134SOL    HW210410   5.409   0.540   4.133 -2.1027 -1.3594 -3.1042
36135SOL     OW10411   0.028   1.332   4.749  0.1392  0.2220  0.3128
36135SOL    HW110412  -0.044   1.340   4.687  1.0019 -1.6029 -1.0245
36135SOL    HW210413   0.084   1.408   4.733  0.1480 -0.0328 -0.9036
36136SOL     OW10414   5.091  10.457   1.741 -0.1155 -0.1608 -0.0219
36136SOL    HW110415   5.034  10.448   1.665  0.4708  1.4818 -0.6915
36136SOL    HW210416   5.035  10.489   1.811 -0.0304  1.5367 -0.7032
36137SOL     OW10417   5.093   9.516   4.050 -0.5969 -0.3887 -0.7111
36137SOL    HW110418   5.185   9.522   4.025 -0.0913  0.2718  1.1223
36137SOL    HW210419   5.085   9.430   4.092 -0.4905  0.0684  0.2670
36138SOL     OW10420   8.557   1.672   5.997  0.7347 -0.3231 -0.1127
36138SOL    HW110421   8.572   1.735   5.926 -0.9986  0.2041 -0.0578
36138SOL    HW210422   8.582   1.719   6.076  1.0399 -0.3099 -0.2144
36139SOL     OW10423   3.281   0.950   8.608  0.0318 -0.1399 -0.6633
36139SOL    HW110424   3.364   0.987   8.578 -0.7997  2.5452  0.0920
36139SOL    HW210425   3.302   0.907   8.691  0.6087  0.9232 -0.2423
36140SOL     OW10426   3.038   0.284   3.666 -0.1997 -0.1779 -0.0227
36140SOL    HW110427   3.068   0.311   3.580 -1.1285  1.4641  0.1362
36140SOL    HW210428   3.106   0.314   3.726 -0.5113  0.4793  0.0051
36141SOL     OW10429   6.369   8.228   1.554 -0.0627  0.9181  0.4600
36141SOL    HW110430   6.433   8.299   1.561  0.1605  0.8213 -0.4554
36141SOL    HW210431   6.422   8.148   1.556  0.0825  0.8647 -2.1247
36142SOL     OW10432   5.628   1.157   7.281  0.4963  0.2269 -0.4865
36142SOL    HW110433   5.563   1.223   7.258  0.6596  0.2712 -0.8222
36142SOL    HW210434   5.695   1.204   7.331  1.0778  0.5064 -1.5062
36143SOL     OW10435   8.700   6.208  10.750  0.1951  0.0769 -0.5218
36143SOL    HW110436   8.776   6.151  10.766 -0.5457 -0.8224 -0.0880
36143SOL    HW210437   8.724   6.292  10.789  1.1133 -0.0820 -0.7160
36144SOL     OW10438   4.772   9.694   5.378 -0.0798 -0.0375 -0.2955
36144SOL    HW110439   4.707   9.635   5.340  1.2313 -1.2674 -0.7139
36144SOL    HW210440   4.747   9.702   5.469  0.0604 -1.8074 -0.0635
36145SOL     OW10441   7.817   4.475   2.535  0.1731  0.6482  0.0202
36145SOL    HW110442   7.765   4.533   2.590 -1.8760  0.7128 -1.8384
36145SOL    HW210443   7.870   4.534   2.481  1.2294  0.6172  0.9847
36146SOL     OW10444   1.823   8.193   3.273 -0.4465  0.5316 -0.6501
36146SOL    HW110445   1.859   8.123   3.218 -1.5027  2.0848 -3.5432
36146SOL    HW210446   1.858   8.175   3.361  1.1814 -2.2428 -1.7270
36147SOL     OW10447  10.609   8.856   8.229  0.7144  0.1311  0.6822
36147SOL    HW110448  10.545   8.787   8.208  1.4321 -0.8815  1.7213
36147SOL    HW210449  10.555   8.929   8.260 -0.0184 -0.1829  0.1944
36148SOL     OW10450   0.131   5.767   5.709 -0.1719 -0.7195  0.3050
36148SOL    HW110451   0.086   5.850   5.693 -1.1894 -1.7413 -3.0316
36148SOL    HW210452   0.061   5.706   5.732  0.0114 -1.4326 -0.9500
36149SOL     OW10453   7.991   9.947   2.216 -0.2607  0.4252  0.2996
36149SOL    HW110454   8.044   9.897   2.278  0.2648 -0.9087 -1.1513
36149SOL    HW210455   8.050  10.016   2.186  0.2499 -0.2801 -0.3547
36150SOL     OW10456   1.217   4.633   1.740  0.4795 -0.0508  0.2793
36150SOL    HW110457   1.191   4.635   1.648 -2.0479 -1.9368  0.8330
36150SOL    HW210458   1.288   4.568   1.743  2.8110  2.2441 -0.6660
36151SOL     OW10459   4.015   3.120  10.249 -0.4731  0.2017  0.7232
36151SOL    HW110460   4.015   3.024  10.256 -0.9870  0.1122 -0.4121
36151SOL    HW210461   4.086   3.147  10.307 -1.4547 -0.7490  2.4601
36152SOL     OW10462   0.450  10.508   6.450  0.1981 -0.1856 -0.0358
36152SOL    HW110463   0.448  10.424   6.406 -1.7225  0.3878 -1.1532
36152SOL    HW210464   0.464  10.487   6.543 -0.4873 -1.7506 -0.2662
36153SOL     OW10465   6.170   0.051   4.845 -0.0798  0.4999  0.0996
36153SOL    HW110466   6.087   0.097   4.832  0.3510  1.2754  0.0060
36153SOL    HW210467   6.210   0.047   4.758 -0.4137 -0.6588 -0.0085
36154SOL     OW10468   8.042   3.072   2.894 -0.0982 -0.6318 -0.1126
36154SOL    HW110469   8.001   3.011   2.833 -0.0627 -1.7981  0.9792
36154SOL    HW210470   8.129   3.088   2.857 -0.9046  0.5360 -1.5656
36155SOL     OW10471   1.997   6.819   1.531 -0.0903  0.4135  0.0441
36155SOL    HW110472   1.942   6.896   1.543  0.1627  0.8266 -1.2949
36155SOL    HW210473   1.999   6.805   1.437  3.9853  1.8289 -0.2738
36156SOL     OW10474   6.741   5.120   0.993 -0.4998 -0.0430  0.0925
36156SOL    HW110475   6.807   5.178   0.955  1.4420 -1.9547  0.3411
36156SOL    HW210476   6.782   5.084   1.071 -1.7613 -1.4611  0.1488
36157SOL     OW10477   9.757   7.005   6.067 -0.2214 -0.1526 -0.6918
36157SOL    HW110478   9.735   7.044   5.982  1.3364  0.0722 -1.0176
36157SOL    HW210479   9.704   7.054   6.130  0.4553  1.3833 -1.2688
36158SOL     OW10480   0.537   4.137  10.232 -0.7334 -0.1580 -0.0165
36158SOL    HW110481   0.480   4.139  10.309  0.2985  2.6356  0.7906
36158SOL    HW210482   0.503   4.204  10.174 -0.1263 -0.6392 -0.9598
36159SOL     OW10483   6.965   7.157   1.586  0.1459 -0.0066 -0.0305
36159SOL    HW110484   6.936   7.241   1.623 -0.0017 -0.7248  1.5508
36159SOL    HW210485   6.885   7.117   1.552 -0.2019 -0.4697  1.2507
36160SOL     OW10486  10.651   6.908   9.962 -0.2711 -0.1063 -0.4563
36160SOL    HW110487  10.737   6.948   9.973 -0.1627 -0.1898 -0.9604
36160SOL    HW210488  10.603   6.968   9.904 -1.7702  1.7249  2.4705
36161SOL     OW10489   8.020   7.687   5.587 -0.1594 -0.3568  0.3018
36161SOL    HW110490   7.935   7.681   5.543  0.4060  1.4044 -1.1618
36161SOL    HW210491   8.076   7.625   5.541  0.1213  0.6616 -0.7805
36162SOL     OW10492   1.253   5.834   0.986 -0.1798 -0.0830  0.1644
36162SOL    HW110493   1.275   5.803   1.074  2.7413 -4.4082 -1.7234
36162SOL    HW210494   1.203   5.763   0.947 -1.4056  1.7175 -1.7556
36163SOL     OW10495   6.748   8.804   5.124 -0.0914 -0.0150  0.0233
36163SOL    HW110496   6.732   8.770   5.036 -0.5804  2.0161 -0.7286
36163SOL    HW210497   6.671   8.857   5.144  0.7455  0.8888  0.9892
36164SOL     OW10498   7.630   9.463   5.097 -0.1546 -0.1142 -0.2943
36164SOL    HW110499   7.647   9.517   5.019 -1.1178  0.3357 -0.2175
36164SOL    HW210500   7.651   9.374   5.070  0.7799  0.1998 -0.6528
36165SOL     OW10501   5.533   5.794   7.140 -0.4600  0.0565 -0.4810
36165SOL    HW110502   5.469   5.816   7.072 -1.2829 -1.4359 -0.2304
36165SOL    HW210503   5.586   5.724   7.101 -0.7006 -0.5554  0.2709
36166SOL     OW10504   7.234   4.821   3.153  0.1915 -0.0234  0.3335
36166SOL    HW110505   7.192   4.869   3.223  0.2706 -1.4328  1.3931
36166SOL    HW210506   7.295   4.762   3.197 -0.3305 -1.5238 -0.8438
36167SOL     OW10507   0.863   5.718   7.892  0.3937 -0.1795  0.2523
36167SOL    HW110508   0.918   5.773   7.947  2.1587 -1.2221 -0.3884
36167SOL    HW210509   0.924   5.659   7.848 -0.9101  0.5479 -2.7821
36168SOL     OW10510   3.490   6.820  10.071 -0.0759  0.1085 -0.3028
36168SOL    HW110511   3.485   6.895  10.011 -1.1333  0.3975  0.1197
36168SOL    HW210512   3.400   6.788  10.075  0.1559 -0.4583  0.4438
36169SOL     OW10513   3.397   2.099   6.879 -0.0580  0.3542 -0.5483
36169SOL    HW110514   3.423   2.190   6.866 -2.8481  1.2147 -0.9123
36169SOL    HW210515   3.301   2.103   6.888 -0.0718 -2.2399  2.1375
36170SOL     OW10516   7.578   5.284   6.289  0.6221  0.1542 -0.6696
36170SOL    HW110517   7.532   5.207   6.255  2.4784 -1.3702  0.0104
36170SOL    HW210518   7.540   5.298   6.375  0.8072 -0.5619 -0.4573
36171SOL     OW10519   5.991   4.438   3.394 -0.0499 -0.0166  0.2152
36171SOL    HW110520   6.066   4.477   3.438  0.5445  0.7969 -1.4328
36171SOL    HW210521   6.005   4.344   3.401  0.9441  0.1243  0.2485
36172SOL     OW10522   9.995   5.372   1.457  0.0747 -0.0565  0.2341
36172SOL    HW110523  10.018   5.305   1.521 -0.6135  0.3109  0.8756
36172SOL    HW210524   9.933   5.429   1.502 -0.0675  0.4775 -0.6067
36173SOL     OW10525   9.035   6.165   9.937  0.4851 -0.1320  0.1688
36173SOL    HW110526   8.989   6.118   9.867  0.8544 -0.2776  0.0223
36173SOL    HW210527   8.980   6.241   9.954 -0.1782 -0.6624  0.4809
36174SOL     OW10528   8.882   5.015   7.074 -0.1640 -0.0587 -0.2930
36174SOL    HW110529   8.795   5.053   7.087 -0.1824  0.0273 -0.6555
36174SOL    HW210530   8.907   4.982   7.160 -0.5448 -0.0572 -0.1802
36175SOL     OW10531   6.053   2.551   2.922 -0.7416 -0.1944  0.0894
36175SOL    HW110532   6.102   2.513   2.849 -1.3597  0.1687 -0.5269
36175SOL    HW210533   6.039   2.642   2.896 -1.9714 -0.3580  0.1261
36176SOL     OW10534   7.139   0.695   7.957 -0.2845 -0.1090 -0.1124
36176SOL    HW110535   7.171   0.775   7.999 -1.2662  0.0251  0.4116
36176SOL    HW210536   7.218   0.643   7.941  0.4076  1.1073 -0.7892
36177SOL     OW10537   7.002   0.405   8.757 -0.0974 -0.2777  0.3035
36177SOL    HW110538   6.925   0.362   8.720  0.6724 -1.3973 -0.0273
36177SOL    HW210539   7.056   0.428   8.682  0.6995 -1.0783  0.6134
36178SOL     OW10540   6.294   4.024   7.786 -0.3740 -0.0399 -0.5244
36178SOL    HW110541   6.381   3.985   7.800 -0.5660 -0.0865  0.6654
36178SOL    HW210542   6.234   3.964   7.831 -0.9200  0.4606 -0.5758
36179SOL     OW10543  10.763   3.206   9.659 -0.0841 -0.0735 -0.2662
36179SOL    HW110544  10.729   3.290   9.689 -1.8055 -0.6251 -0.5346
36179SOL    HW210545  10.793   3.222   9.570 -0.1182  0.3248 -0.2046
36180SOL     OW10546   9.717   8.288   0.438  0.2554  0.7066  0.5052
36180SOL    HW110547   9.642   8.267   0.494 -1.3583  3.1013 -0.5871
36180SOL    HW210548   9.774   8.342   0.493  0.3303  0.3366  0.7990
36181SOL     OW10549  10.333   9.622   8.958  0.0809 -0.8313  0.4277
36181SOL    HW110550  10.340   9.681   9.033  0.3970 -1.6572  1.0666
36181SOL    HW210551  10.341   9.534   8.995  0.0036 -1.2708 -0.5465
36182SOL     OW10552   2.925   2.353   0.015  0.2112  0.3689  0.0598
36182SOL    HW110553   2.852   2.401  -0.025 -0.9387 -0.2934  1.2809
36182SOL    HW210554   2.999   2.413   0.007 -0.7299  1.5543 -0.2011
36183SOL     OW10555   1.977   6.619   1.819 -0.2458 -0.6894  0.2548
36183SOL    HW110556   1.982   6.529   1.850  0.1304 -0.4185  1.0087
36183SOL    HW210557   1.888   6.647   1.841 -0.0118 -0.5298  1.0214
36184SOL     OW10558   6.763   9.345  10.371  0.2545  0.2324 -0.1505
36184SOL    HW110559   6.680   9.327  10.327 -0.3926 -0.3810  1.2599
36184SOL    HW210560   6.775   9.439  10.364 -0.5152  0.3082 -0.4430
36185SOL     OW10561  10.169   1.247   0.708 -0.2381 -0.1349 -0.3073
36185SOL    HW110562  10.183   1.284   0.795 -0.0904 -0.1009 -0.3441
36185SOL    HW210563  10.238   1.180   0.700 -0.3182 -0.2114 -0.3552
36186SOL     OW10564   6.055   7.535   5.325  0.0257  0.3255 -0.2760
36186SOL    HW110565   5.996   7.540   5.249 -0.3612  0.2699  0.0190
36186SOL    HW210566   6.007   7.577   5.396  0.9611  1.6607 -0.4047
36187SOL     OW10567   9.835   1.212   0.474  0.5228  0.4329 -0.2814
36187SOL    HW110568   9.884   1.229   0.554 -0.8093 -0.1513  0.7058
36187SOL    HW210569   9.891   1.154   0.423  0.4385 -1.1409  1.3215
36188SOL     OW10570   8.144   8.474   6.673  0.4830  0.1523  0.5724
36188SOL    HW110571   8.228   8.517   6.655 -0.1194  0.4875 -1.7465
36188SOL    HW210572   8.084   8.546   6.690  0.4527 -0.0421  1.3148
36189SOL     OW10573   8.753   7.660   2.678  0.1506 -0.0610 -0.3912
36189SOL    HW110574   8.814   7.728   2.648  1.4417 -1.5670 -1.3480
36189SOL    HW210575   8.704   7.636   2.599 -1.6726  1.0506  0.3466
36190SOL     OW10576  10.965   8.727   0.824  0.1790 -0.4807  0.3102
36190SOL    HW110577  11.053   8.762   0.839 -0.5501  1.6269 -0.1135
36190SOL    HW210578  10.958   8.719   0.729  0.0184 -1.0191  0.3596
36191SOL     OW10579   3.149   2.336   6.551 -0.3853  0.3175  0.8342
36191SOL    HW110580   3.197   2.419   6.560  0.8451 -0.4408  1.5934
36191SOL    HW210581   3.204   2.284   6.492 -0.3268 -0.5178  1.6043
36192SOL     OW10582   0.603   7.233   5.595  0.1204  0.3293 -0.1022
36192SOL    HW110583   0.646   7.296   5.652  2.0251  0.0467 -1.1397
36192SOL    HW210584   0.630   7.258   5.506 -1.1684 -0.4167 -0.7436
36193SOL     OW10585   1.677  10.998   6.706  0.0554  0.2359  0.7098
36193SOL    HW110586   1.757  10.949   6.722 -0.3945 -0.9192 -0.3943
36193SOL    HW210587   1.687  11.032   6.617 -0.8778 -0.3549  0.3635
36194SOL     OW10588   2.580   8.860   9.190 -0.1213  0.4090  0.1702
36194SOL    HW110589   2.656   8.801   9.183  0.7657  1.3701  1.2907
36194SOL    HW210590   2.581   8.910   9.108  0.3955  0.3324  0.1243
36195SOL     OW10591   9.793   4.667   8.161 -0.0440  0.0197 -0.3408
36195SOL    HW110592   9.740   4.714   8.097  2.0738  1.2661 -1.2590
36195SOL    HW210593   9.880   4.663   8.122  1.1762  0.2518  2.1763
36196SOL     OW10594   7.297   0.533   9.720 -0.9140 -0.0869  0.2737
36196SOL    HW110595   7.297   0.480   9.799 -1.7003 -5.1329 -2.6438
36196SOL    HW210596   7.213   0.580   9.722 -1.0810 -0.3935  2.1832
36197SOL     OW10597   6.682   6.413   7.614 -0.1679 -1.2709 -0.0103
36197SOL    HW110598   6.688   6.498   7.570  2.8120 -0.5445  1.5423
36197SOL    HW210599   6.595   6.413   7.654 -0.6433  0.5884 -0.9292
36198SOL     OW10600   4.107   9.879   0.997  0.3796  0.4371 -0.4762
36198SOL    HW110601   4.113   9.894   1.092  1.0423  0.8316 -0.5730
36198SOL    HW210602   4.060   9.796   0.989 -0.4218  0.8140  0.1723
36199SOL     OW10603   8.605   8.064   6.592 -0.0704 -0.0965 -0.3269
36199SOL    HW110604   8.572   8.126   6.527 -0.8526  1.6069  1.6006
36199SOL    HW210605   8.574   7.979   6.561 -0.4868  0.6507 -2.1201
36200SOL     OW10606   9.856   3.386   9.984 -0.1955  0.5641  0.1573
36200SOL    HW110607   9.858   3.308  10.039  0.3722  1.5728  1.5988
36200SOL    HW210608   9.926   3.372   9.920 -0.9600 -0.6772 -0.4539
36201SOL     OW10609  10.910   3.868   0.443 -0.1646 -0.5002 -0.4373
36201SOL    HW110610  10.881   3.908   0.361  2.6513  0.2345 -1.1534
36201SOL    HW210611  10.997   3.905   0.459  1.5112 -4.2827  0.2509
36202SOL     OW10612   5.244  10.810   4.480  0.3763  0.2114  0.3474
36202SOL    HW110613   5.169  10.752   4.472 -0.3963  1.1248  0.8487
36202SOL    HW210614   5.320  10.753   4.467 -0.4138 -0.5843 -0.9103
36203SOL     OW10615   6.556   4.634   5.865 -0.0019 -0.0299  0.2587
36203SOL    HW110616   6.550   4.652   5.959 -0.1287 -0.9103  0.4237
36203SOL    HW210617   6.528   4.716   5.823 -0.4049  0.2067  0.9831
36204SOL     OW10618  10.418   9.711   6.967 -0.3241 -0.2090 -0.0200
36204SOL    HW110619  10.434   9.753   7.051  0.2218 -1.5679  0.5956
36204SOL    HW210620  10.327   9.732   6.946 -0.1204  1.0840  0.3487
36205SOL     OW10621   5.855   2.196   0.497  0.2218  0.1829 -0.0810
36205SOL    HW110622   5.936   2.187   0.546 -0.4100 -3.8000  0.6321
36205SOL    HW210623   5.876   2.164   0.409 -0.2223  0.6831 -0.3783
36206SOL     OW10624   7.978   4.727   7.177 -0.2038  0.2033 -0.0912
36206SOL    HW110625   7.995   4.769   7.092 -0.5858  0.7809  0.1090
36206SOL    HW210626   7.928   4.648   7.155 -1.6920  1.1636 -0.3123
36207SOL     OW10627   4.073   9.538   5.242 -0.3747 -0.2404  0.4381
36207SOL    HW110628   4.155   9.586   5.250 -0.5846  0.3306 -0.6751
36207SOL    HW210629   4.072   9.479   5.318  0.6110  0.4086  0.9684
36208SOL     OW10630   4.825   8.229   2.983  0.1990  0.0350 -0.1252
36208SOL    HW110631   4.735   8.243   3.014  1.1652  4.7838  1.4342
36208SOL    HW210632   4.876   8.219   3.063  1.3889  0.6259 -0.7854
36209SOL     OW10633   9.404   7.442  10.680 -0.5890  0.4784  0.1180
36209SOL    HW110634   9.354   7.372  10.638 -0.7172  0.6492 -0.0155
36209SOL    HW210635   9.356   7.460  10.761  0.2911 -0.6405  0.9117
36210SOL     OW10636   8.341   1.619   4.789  0.6087  0.3814  0.3433
36210SOL    HW110637   8.298   1.643   4.871  0.0942 -1.3339  0.6177
36210SOL    HW210638   8.291   1.545   4.756  0.9575  0.8912 -1.4224
36211SOL     OW10639   9.590   2.867   6.327  0.4810 -0.1112 -0.3154
36211SOL    HW110640   9.634   2.951   6.343  1.3425 -0.4092 -1.0604
36211SOL    HW210641   9.591   2.858   6.232  2.4652 -2.0451 -0.1742
36212SOL     OW10642   2.648   3.029   3.288  0.1899 -0.5010  0.8223
36212SOL    HW110643   2.679   2.946   3.322 -0.6996 -0.2737  2.2880
36212SOL    HW210644   2.566   3.046   3.336 -0.2918  0.6247 -0.3192
36213SOL     OW10645   4.511   7.423   6.430  0.5379  0.2199 -0.1117
36213SOL    HW110646   4.584   7.381   6.474 -0.2664 -0.6953  0.3916
36213SOL    HW210647   4.517   7.515   6.455  1.5874  0.1766 -0.1882
36214SOL     OW10648   2.298   7.418   1.047 -0.6671  0.7450  0.8372
36214SOL    HW110649   2.236   7.423   0.974 -0.1734  0.4021  0.3875
36214SOL    HW210650   2.353   7.496   1.037  0.3747 -0.0661 -0.0708
36215SOL     OW10651   3.881  10.967   7.844 -0.9875  0.6057 -0.2896
36215SOL    HW110652   3.968  10.937   7.870 -1.1957 -0.1310 -0.3994
36215SOL    HW210653   3.897  11.049   7.798 -0.5367  1.4900  1.3675
36216SOL     OW10654   7.008   9.854   4.227  0.3395  0.3300  0.1222
36216SOL    HW110655   6.973   9.898   4.305  0.4825  0.9493 -0.1618
36216SOL    HW210656   6.973   9.765   4.233 -1.3155  0.9233 -0.1541
36217SOL     OW10657   8.489   8.077   7.330  0.1181  0.1629  0.0506
36217SOL    HW110658   8.474   8.017   7.257  0.4654  0.0429  0.0781
36217SOL    HW210659   8.541   8.148   7.292  0.8270 -0.2045  0.3221
36218SOL     OW10660   4.146   4.560   6.000  0.1121  0.1667 -0.2202
36218SOL    HW110661   4.059   4.587   5.970 -0.1422  1.1116  1.2412
36218SOL    HW210662   4.157   4.605   6.084  1.8258 -0.3090 -0.1513
36219SOL     OW10663  10.873   6.009   3.675  0.0674  0.1436  0.6734
36219SOL    HW110664  10.793   6.036   3.630  0.4242  0.3660  0.1626
36219SOL    HW210665  10.900   5.929   3.631  0.0022 -0.0630  1.0011
36220SOL     OW10666   8.724   0.356   6.315 -0.7372 -0.1632  0.0191
36220SOL    HW110667   8.736   0.329   6.224 -0.2947  1.4257 -0.4254
36220SOL    HW210668   8.689   0.278   6.359 -0.0712 -1.2444 -1.2934
36221SOL     OW10669   1.220   2.171   2.029 -0.4507 -0.0042  0.0459
36221SOL    HW110670   1.174   2.237   2.081  1.3140  0.6525  0.8748
36221SOL    HW210671   1.303   2.159   2.074 -0.6204 -2.6990 -0.1891
36222SOL     OW10672   3.145   2.376   3.582  0.6151 -0.0497  0.0139
36222SOL    HW110673   3.085   2.448   3.563  2.0877  1.2909  0.2012
36222SOL    HW210674   3.095   2.297   3.563 -1.0677  1.0158 -0.1823
36223SOL     OW10675   7.366   9.094   2.097  0.2627 -0.0364 -0.8214
36223SOL    HW110676   7.369   9.025   2.164 -2.2717 -1.2260 -1.7950
36223SOL    HW210677   7.352   9.174   2.147 -0.1238 -0.7098  0.1940
36224SOL     OW10678   0.441   1.456   6.109  0.4122 -0.3546  0.0605
36224SOL    HW110679   0.347   1.472   6.111  0.4547 -0.1455  0.7057
36224SOL    HW210680   0.451   1.383   6.048 -0.1319 -0.1661 -0.2631
36225SOL     OW10681   5.890   6.078   4.468  0.1468  0.1032 -0.2833
36225SOL    HW110682   5.802   6.054   4.436 -1.7142  3.2055  1.9286
36225SOL    HW210683   5.881   6.081   4.563  2.4138  1.3642 -0.0324
36226SOL     OW10684   6.550   9.426   2.156  0.0896  0.1384 -0.6045
36226SOL    HW110685   6.493   9.488   2.203  0.2865 -1.0070  1.2432
36226SOL    HW210686   6.632   9.430   2.204  0.5378 -0.5756 -1.3069
36227SOL     OW10687   9.322   8.957   6.017  0.1296  0.6467 -0.5486
36227SOL    HW110688   9.310   8.973   5.923  0.7159  1.8013 -0.4345
36227SOL    HW210689   9.234   8.965   6.054 -0.0242  0.6934 -0.9174
36228SOL     OW10690   8.095   0.559   4.097  0.1013 -0.4461  0.0690
36228SOL    HW110691   8.125   0.481   4.143 -0.1630 -0.5598  0.0519
36228SOL    HW210692   7.999   0.552   4.099  0.0646  0.2019  0.6155
36229SOL     OW10693   3.358   5.908   9.606  0.1215  0.4131 -0.1330
36229SOL    HW110694   3.397   5.980   9.556 -1.1177  2.1187  1.2357
36229SOL    HW210695   3.267   5.905   9.575 -0.3770  0.8005  1.2260
36230SOL     OW10696   5.100   0.203   9.583  0.7317  0.6856  0.0101
36230SOL    HW110697   5.104   0.295   9.558  1.4140  0.4758 -0.7043
36230SOL    HW210698   5.172   0.192   9.646  0.3829  0.7285  0.4230
36231SOL     OW10699   6.584  10.477   8.536 -0.1475 -0.2351  0.3814
36231SOL    HW110700   6.651  10.507   8.475 -0.6238  0.1610  0.0530
36231SOL    HW210701   6.629  10.412   8.590  0.1915 -0.8508 -0.6070
36232SOL     OW10702   8.171   4.381   8.045 -0.2946 -0.2884 -0.1850
36232SOL    HW110703   8.166   4.297   8.090 -0.7161 -1.2806 -1.9733
36232SOL    HW210704   8.178   4.358   7.952  1.1142  1.6375 -0.6145
36233SOL     OW10705  10.717   7.234   0.670  0.6997 -0.0328 -0.1181
36233SOL    HW110706  10.761   7.256   0.587 -0.0238 -0.5532 -0.6491
36233SOL    HW210707  10.772   7.166   0.709  1.1521  0.3554 -0.0682
36234SOL     OW10708   5.837   5.298   7.625  0.6797 -0.8143  0.1635
36234SOL    HW110709   5.847   5.393   7.627 -1.2565 -0.4892 -1.9668
36234SOL    HW210710   5.825   5.273   7.716 -0.3216  1.1939  0.6321
36235SOL     OW10711   4.756   4.145   6.593 -0.0450 -0.7347  0.3204
36235SOL    HW110712   4.720   4.216   6.645 -1.9512 -0.2359 -1.5198
36235SOL    HW210713   4.847   4.137   6.622  0.2017  2.3524  0.7239
36236SOL     OW10714   1.493   5.760   6.757 -0.5190 -0.4175  0.0998
36236SOL    HW110715   1.542   5.713   6.690  1.1902 -0.3966  1.2855
36236SOL    HW210716   1.480   5.847   6.720  1.4402 -0.0401  0.2370
36237SOL     OW10717   4.379   9.381   0.806 -0.3717 -0.0909 -0.2848
36237SOL    HW110718   4.334   9.444   0.749  1.2244  0.9837 -0.4402
36237SOL    HW210719   4.365   9.296   0.764 -1.1469  0.3744 -1.0101
36238SOL     OW10720   2.963   4.564   9.850  0.3219  0.4192 -0.2676
36238SOL    HW110721   3.012   4.484   9.830 -0.2251  0.0116 -0.0021
36238SOL    HW210722   3.028   4.623   9.887  0.6439 -0.0627 -0.0509
36239SOL     OW10723   2.216   9.025   0.041  0.3784  0.2060 -0.1587
36239SOL    HW110724   2.251   8.958  -0.017  1.4197 -0.1982  0.8903
36239SOL    HW210725   2.206   9.102  -0.014  2.4746  0.1921 -0.6541
36240SOL     OW10726   9.832   8.240   4.551  0.1142 -0.4380 -0.0074
36240SOL    HW110727   9.787   8.221   4.468 -1.1828  2.2874 -0.0073
36240SOL    HW210728   9.909   8.290   4.525 -1.1541  1.8532  0.4684
36241SOL     OW10729   6.852   0.587   8.901  0.0987  0.1200  0.0388
36241SOL    HW110730   6.841   0.537   8.982  1.0189 -2.0042 -1.0589
36241SOL    HW210731   6.928   0.547   8.858  0.5923  2.2118 -1.1471
36242SOL     OW10732   0.789   0.380   7.357 -0.1645 -0.2551  0.4163
36242SOL    HW110733   0.826   0.292   7.357 -1.8314 -1.0133 -1.1898
36242SOL    HW210734   0.784   0.405   7.265  1.6426  2.1835  0.8706
36243SOL     OW10735   7.230  10.521   4.602 -0.0603  0.5979 -0.3909
36243SOL    HW110736   7.245  10.439   4.554 -0.3955 -0.0503  0.5865
36243SOL    HW210737   7.315  10.565   4.601 -0.1558  0.8037 -1.9200
36244SOL     OW10738   8.153   8.125   8.379  0.7771  0.1348  0.3705
36244SOL    HW110739   8.228   8.066   8.369  0.3589 -0.3498  0.0647
36244SOL    HW210740   8.077   8.072   8.357  0.3152  0.5590  0.8977
36245SOL     OW10741   9.491   7.296   1.568  0.2996  0.4329 -0.0158
36245SOL    HW110742   9.512   7.241   1.643  1.1658  0.4531 -0.2363
36245SOL    HW210743   9.397   7.282   1.553  0.3161 -0.2646  0.5014
36246SOL     OW10744   4.388  10.145   3.246 -0.2116 -0.2311 -0.1718
36246SOL    HW110745   4.343  10.229   3.256 -1.4215 -1.1100  2.6249
36246SOL    HW210746   4.329  10.091   3.193 -0.3330  0.0423 -0.3153
36247SOL     OW10747   4.738   7.337   1.807 -0.3944  0.0098 -0.0040
36247SOL    HW110748   4.711   7.347   1.716  2.4850  0.0379 -0.9621
36247SOL    HW210749   4.741   7.427   1.841 -1.4192  0.0040  0.1335
36248SOL     OW10750   1.481   0.238   3.380 -0.0038  0.5694  0.3107
36248SOL    HW110751   1.533   0.206   3.307 -0.8412  0.5388 -0.2864
36248SOL    HW210752   1.541   0.239   3.454  1.2200  1.8486 -0.6508
36249SOL     OW10753   4.487   1.870   0.815  0.4392 -0.2753  0.0394
36249SOL    HW110754   4.581   1.884   0.805  0.1422  0.3616 -2.2669
36249SOL    HW210755   4.478   1.775   0.819  1.2238 -0.3294  1.3072
36250SOL     OW10756  10.052   5.821  10.818 -0.1946 -0.4944  0.0118
36250SOL    HW110757  10.001   5.765  10.876 -2.9541 -0.2489 -1.9743
36250SOL    HW210758  10.067   5.767  10.740  0.3167  0.3255 -0.4765
36251SOL     OW10759   4.406   5.391   1.390  0.2176  0.1251 -0.4462
36251SOL    HW110760   4.392   5.333   1.315 -1.3557 -0.3599  0.1807
36251SOL    HW210761   4.318   5.411   1.422  0.8398  0.6351  1.0405
36252SOL     OW10762   8.138   4.436   3.880 -0.3173  0.5860  0.0369
36252SOL    HW110763   8.159   4.516   3.929  0.9261 -0.1249  0.7117
36252SOL    HW210764   8.221   4.389   3.874 -0.9051 -0.3750 -0.8954
36253SOL     OW10765   5.421   1.124   8.322 -0.1903  0.1752 -0.0017
36253SOL    HW110766   5.347   1.170   8.360  0.6530  0.2967  1.5868
36253SOL    HW210767   5.494   1.185   8.331  0.2345 -0.1640 -1.0139
36254SOL     OW10768   0.669   5.543   7.916 -0.4371 -0.4444  0.2333
36254SOL    HW110769   0.731   5.615   7.919  0.0754 -0.8583 -0.1484
36254SOL    HW210770   0.697   5.490   7.841 -0.6134 -1.1948  0.6763
36255SOL     OW10771   5.106   5.755   2.120  0.4265  0.7553 -0.3523
36255SOL    HW110772   5.136   5.711   2.200 -0.6152 -0.2855 -0.5106
36255SOL    HW210773   5.021   5.792   2.143  0.7128  1.6073 -0.6106
36256SOL     OW10774   0.279  10.243   9.267 -0.1824 -0.1540  0.3476
36256SOL    HW110775   0.337  10.186   9.217 -0.2438 -0.6353  0.8142
36256SOL    HW210776   0.205  10.260   9.209  0.6036  0.8042 -0.4130
36257SOL     OW10777   2.763   2.061   7.622 -0.0980 -0.1125  0.1814
36257SOL    HW110778   2.717   2.020   7.548  0.1485 -0.8873  0.4409
36257SOL    HW210779   2.775   1.989   7.684  0.6525  0.2936  0.5106
36258SOL     OW10780   3.386   3.015   9.898 -0.0050  0.3276  0.3575
36258SOL    HW110781   3.300   3.009   9.857 -0.1858 -0.5431  0.8239
36258SOL    HW210782   3.421   2.926   9.893  1.8975  1.1213 -1.9560
36259SOL     OW10783   7.457   0.130   0.971 -0.2523  0.3805  0.7552
36259SOL    HW110784   7.407   0.211   0.959  1.0520  1.0428 -0.6247
36259SOL    HW210785   7.546   0.160   0.990 -0.0199 -0.7483  1.4787
36260SOL     OW10786   2.291   5.248   2.656  0.2808  0.3646 -0.0141
36260SOL    HW110787   2.221   5.311   2.643  0.0471  0.3826  1.2726
36260SOL    HW210788   2.371   5.300   2.656  0.0954  0.6686  0.9551
36261SOL     OW10789   3.751   5.408   0.994  0.1912  0.1388 -0.8272
36261SOL    HW110790   3.786   5.441   1.077 -2.9960 -0.4653  0.9469
36261SOL    HW210791   3.767   5.478   0.931  2.8513  0.5702  0.1788
36262SOL     OW10792  10.268   5.185   5.222 -0.3403  0.0833  0.3464
36262SOL    HW110793  10.327   5.119   5.185  0.7426  0.9321  0.5282
36262SOL    HW210794  10.250   5.244   5.149  0.6108  0.9226  0.7738
36263SOL     OW10795  10.390   1.612   4.003 -0.6005  0.2780 -0.0200
36263SOL    HW110796  10.362   1.521   4.014 -0.2122  0.2088  0.4008
36263SOL    HW210797  10.309   1.663   4.009 -0.8361 -0.0483 -0.3827
36264SOL     OW10798   2.513   2.612   4.469  0.5433  0.1158  0.1963
36264SOL    HW110799   2.527   2.517   4.467 -0.4023 -0.0275 -1.3040
36264SOL    HW210800   2.584   2.647   4.414 -0.5713  0.0208 -1.3680
36265SOL     OW10801   8.784   9.219   9.400  0.2871  0.2763  0.0407
36265SOL    HW110802   8.848   9.209   9.329 -0.9170  1.0960 -1.2042
36265SOL    HW210803   8.787   9.311   9.423  0.2322  0.1320  0.6287
36266SOL     OW10804   9.109   8.632   2.086  0.0887  0.2598 -0.0237
36266SOL    HW110805   9.117   8.607   2.178  0.7850 -1.0243 -0.4105
36266SOL    HW210806   9.132   8.724   2.084  1.3651 -0.0164  0.8996
36267SOL     OW10807   6.550   0.412   1.619 -0.6875  0.9964  0.0317
36267SOL    HW110808   6.480   0.398   1.555 -0.3331  1.2938 -0.4275
36267SOL    HW210809   6.629   0.419   1.567 -0.2110 -0.0461  0.6015
36268SOL     OW10810   1.164   7.684   2.628 -0.6569 -0.0851  0.1696
36268SOL    HW110811   1.210   7.636   2.697 -0.7462 -1.1501 -0.4776
36268SOL    HW210812   1.135   7.765   2.669 -0.2110 -0.4428  1.2185
36269SOL     OW10813   4.980   8.446   5.454  0.5250 -0.1961 -0.0271
36269SOL    HW110814   4.918   8.495   5.400  0.7319 -0.6582 -0.6976
36269SOL    HW210815   5.014   8.511   5.515  0.1426  0.2960 -0.3256
36270SOL     OW10816   0.756   2.048   2.161 -0.1261 -0.1940  0.0305
36270SOL    HW110817   0.763   2.102   2.083 -2.1577  1.0339  0.6331
36270SOL    HW210818   0.662   2.040   2.177 -0.0026 -4.2844 -0.2425
36271SOL     OW10819   0.058  10.865   9.265  0.0844  0.3344  0.0778
36271SOL    HW110820  -0.016  10.805   9.273 -0.0182  0.3504 -0.7013
36271SOL    HW210821   0.120  10.834   9.331  0.3284 -1.0761 -0.7695
36272SOL     OW10822   0.477   9.809   2.173 -0.4044 -0.0722 -0.0846
36272SOL    HW110823   0.450   9.883   2.228  0.5368  0.8814 -0.8585
36272SOL    HW210824   0.552   9.772   2.218  1.9273  2.2073 -1.8049
36273SOL     OW10825   7.218   8.688  10.096  0.0135  0.5407  0.5593
36273SOL    HW110826   7.183   8.668  10.182 -1.7316 -0.2913 -0.2827
36273SOL    HW210827   7.213   8.605  10.048 -1.3873  1.5051 -1.0881
36274SOL     OW10828   5.289   7.689   5.002  0.2195  0.1667  0.1734
36274SOL    HW110829   5.293   7.683   4.907  0.1881 -0.1689  0.1942
36274SOL    HW210830   5.208   7.644   5.026  0.7990 -0.7625  0.4413
36275SOL     OW10831   8.807  10.747   8.200  0.1625 -0.5029 -0.4277
36275SOL    HW110832   8.865  10.693   8.147  2.7888  0.7823  0.9730
36275SOL    HW210833   8.830  10.837   8.177 -1.3883  0.0633  0.0959
36276SOL     OW10834   1.053   7.786   8.577 -0.1997 -0.6786  0.2789
36276SOL    HW110835   0.980   7.760   8.634 -1.4501  0.2831 -0.8074
36276SOL    HW210836   1.010   7.828   8.502  1.4224 -1.3253 -1.0608
36277SOL     OW10837   3.528   5.974   4.262 -0.6307 -0.5169  0.1884
36277SOL    HW110838   3.502   5.972   4.170 -1.1192  0.6786  0.2792
36277SOL    HW210839   3.446   5.980   4.310 -0.3360 -0.1659  0.6541
36278SOL     OW10840   0.982   5.445   4.423 -0.2815 -0.2072 -0.0014
36278SOL    HW110841   0.992   5.367   4.476 -2.4272  0.4610  1.4989
36278SOL    HW210842   0.991   5.518   4.484 -1.1494  0.6357 -0.8332
36279SOL     OW10843   0.081   5.292   2.646  0.1646  0.2001  0.1412
36279SOL    HW110844   0.017   5.237   2.600  1.1541  1.0304 -2.4098
36279SOL    HW210845   0.164   5.274   2.600  1.3050  0.8528  1.8730
36280SOL     OW10846   2.914   0.162   2.145 -0.3902 -0.2539  0.7944
36280SOL    HW110847   2.850   0.092   2.160 -1.0344  0.0565 -0.3727
36280SOL    HW210848   2.862   0.236   2.114  0.4013  0.4291  1.0459
36281SOL     OW10849  11.013   0.898   9.963 -0.1080  0.2598  0.0915
36281SOL    HW110850  10.992   0.817  10.009  2.9605 -1.0106 -0.5368
36281SOL    HW210851  10.959   0.896   9.884 -0.6446 -0.7391  0.4674
36282SOL     OW10852   1.298   6.579   0.340 -0.8717 -0.2676  0.2215
36282SOL    HW110853   1.203   6.565   0.343 -0.9359  0.1917  0.3582
36282SOL    HW210854   1.321   6.571   0.248 -1.0774 -0.1373  0.1591
36283SOL     OW10855  10.851   5.456   2.533  0.2058  0.0794 -0.1000
36283SOL    HW110856  10.913   5.407   2.478  1.7827  1.5848  0.2390
36283SOL    HW210857  10.906   5.498   2.599 -1.4104  0.0590  1.3318
36284SOL     OW10858   6.620  10.831  10.214 -0.4309 -0.2048 -0.1582
36284SOL    HW110859   6.685  10.799  10.152 -0.1080  1.0282 -0.4741
36284SOL    HW210860   6.557  10.880  10.161 -0.8134 -0.1450  0.3352
36285SOL     OW10861   7.521   4.510   5.919 -0.1636 -0.0305  0.0531
36285SOL    HW110862   7.562   4.474   5.840  1.8994  0.9036  0.6407
36285SOL    HW210863   7.573   4.587   5.940 -1.2574  0.2742  1.8026
36286SOL     OW10864   4.210   5.620   6.152 -0.0511  0.1376  0.3431
36286SOL    HW110865   4.130   5.626   6.203  0.2867  2.0048  0.7276
36286SOL    HW210866   4.213   5.702   6.102  0.0291 -1.2857 -2.1005
36287SOL     OW10867   9.174   2.966   7.806 -0.0993  0.1476 -0.1690
36287SOL    HW110868   9.163   2.922   7.722 -0.2494  0.9302 -0.5640
36287SOL    HW210869   9.091   3.011   7.821 -0.4975 -0.8942  0.9548
36288SOL     OW10870   5.650   0.808   5.556  0.6148 -0.1563 -0.1057
36288SOL    HW110871   5.649   0.865   5.479 -1.0400  0.0473  0.0336
36288SOL    HW210872   5.603   0.857   5.623 -0.8819 -1.6493  0.0065
36289SOL     OW10873   6.464   6.816  10.257  0.4998  0.2178  0.1174
36289SOL    HW110874   6.522   6.858  10.193  1.3113 -0.1313  0.6019
36289SOL    HW210875   6.412   6.887  10.293  1.8214  0.8302  0.8879
36290SOL     OW10876   0.861   8.838   0.006 -0.0612 -0.3108  0.6090
36290SOL    HW110877   0.844   8.894   0.082 -2.5893 -0.8577  0.5327
36290SOL    HW210878   0.895   8.897  -0.061  0.9913  0.3986  1.7222
36291SOL     OW10879   1.207   8.153   5.800 -0.3536  0.0219 -0.1472
36291SOL    HW110880   1.263   8.075   5.803 -0.7810 -0.2512  0.8821
36291SOL    HW210881   1.269   8.226   5.806 -0.0236 -0.2526 -0.1318
36292SOL     OW10882   0.421  10.896   7.747  0.0831 -0.3841 -0.4755
36292SOL    HW110883   0.514  10.920   7.751 -0.2200  0.6558  1.0302
36292SOL    HW210884   0.378  10.972   7.709 -0.3485 -0.2273  0.3143
36293SOL     OW10885  10.779   5.998   1.510  0.4671 -0.2864 -0.1249
36293SOL    HW110886  10.714   6.043   1.563  0.4861 -1.0642  0.5826
36293SOL    HW210887  10.857   6.053   1.514  0.6875 -0.6769  1.2396
36294SOL     OW10888   3.206   1.545   3.921 -0.7675 -0.1158 -0.4575
36294SOL    HW110889   3.152   1.531   3.999 -0.9448 -0.9255 -0.7150
36294SOL    HW210890   3.293   1.513   3.945 -0.6025  0.4329 -0.3122
36295SOL     OW10891   0.555   0.334  10.251  0.2117 -0.1507  0.0763
36295SOL    HW110892   0.631   0.307  10.199  0.3539  0.5259 -0.0745
36295SOL    HW210893   0.572   0.296  10.338 -0.0028 -1.2362 -0.3431
36296SOL     OW10894   5.747   5.820   7.382  0.4870 -0.2589 -0.2310
36296SOL    HW110895   5.717   5.846   7.295 -1.2483  0.2527  0.4753
36296SOL    HW210896   5.755   5.725   7.377 -0.8389 -0.3683 -0.6095
36297SOL     OW10897   2.954   1.090  10.716  0.4594  0.0697 -0.1050
36297SOL    HW110898   2.971   1.167  10.662  1.0566  0.5200  0.7035
36297SOL    HW210899   2.971   1.016  10.658  0.1635  0.5329 -0.8050
36298SOL     OW10900   3.515   8.084   0.020 -0.5885 -0.0240  0.3372
36298SOL    HW110901   3.587   8.022   0.008  1.1691  1.8931  0.3066
36298SOL    HW210902   3.541   8.160  -0.032 -4.1289 -0.3190 -2.1452
36299SOL     OW10903   7.039   9.770   7.724  0.0618 -0.4175 -0.8224
36299SOL    HW110904   6.991   9.717   7.661 -0.7807  0.8188 -1.2589
36299SOL    HW210905   7.007   9.859   7.710  2.2175  0.4204 -0.8866
36300SOL     OW10906   5.991   7.677   4.754  0.4791 -0.4197  0.0532
36300SOL    HW110907   6.024   7.722   4.677  0.4887 -0.8839 -0.2185
36300SOL    HW210908   6.068   7.662   4.809  0.7020 -1.3180 -0.4846
36301SOL     OW10909   0.914   8.829   8.322  0.3414  0.2166  0.2006
36301SOL    HW110910   0.859   8.906   8.336 -0.2886 -0.1820 -0.0731
36301SOL    HW210911   0.872   8.759   8.372 -0.4984 -0.5677 -1.5146
36302SOL     OW10912   2.256   3.887   1.475 -0.1110  0.7854  0.3567
36302SOL    HW110913   2.284   3.947   1.544  2.3575 -0.9079  0.9497
36302SOL    HW210914   2.294   3.803   1.500 -2.0605 -0.6672 -1.3094
36303SOL     OW10915   2.979   3.235   0.432 -0.1011  0.5612 -0.3849
36303SOL    HW110916   3.061   3.195   0.402  0.5926  1.3576  0.3816
36303SOL    HW210917   2.944   3.279   0.355  0.0886  0.0457 -0.7715
36304SOL     OW10918   4.150   4.795   4.206 -0.0721 -0.3794  0.2154
36304SOL    HW110919   4.157   4.718   4.151 -0.8360 -0.7752  0.6539
36304SOL    HW210920   4.070   4.781   4.257  0.0183  0.4919  0.6179
36305SOL     OW10921   0.211   7.020   7.610  0.6365  0.2704  0.4209
36305SOL    HW110922   0.229   7.114   7.604  0.2011  0.3356  0.0344
36305SOL    HW210923   0.297   6.979   7.620  0.8522  0.6885  0.2998
36306SOL     OW10924   9.410  10.038   4.077 -0.2245 -0.2535 -0.1527
36306SOL    HW110925   9.404  10.133   4.087 -1.0414  0.0059 -2.3802
36306SOL    HW210926   9.426  10.005   4.165 -0.6758  1.8853  0.7991
36307SOL     OW10927   2.319   4.231   1.780  0.2185 -0.6092  0.1316
36307SOL    HW110928   2.377   4.295   1.821  0.8644 -1.3781  0.4229
36307SOL    HW210929   2.246   4.284   1.748  1.0157  0.3569 -0.1522
36308SOL     OW10930   9.171   6.813   2.919 -0.0815 -0.0824  0.9746
36308SOL    HW110931   9.147   6.905   2.923 -0.3565 -0.0795 -0.2654
36308SOL    HW210932   9.119   6.772   2.989 -1.2163  0.4547  0.4824
36309SOL     OW10933   7.215   3.577  11.011  0.0200 -0.0307  0.1877
36309SOL    HW110934   7.168   3.659  11.028  1.1792  0.4046  1.4678
36309SOL    HW210935   7.286   3.601  10.952  1.0966  0.1700  1.5161
36310SOL     OW10936   3.453   4.587   4.660 -0.3646 -0.3733  0.5389
36310SOL    HW110937   3.450   4.538   4.578 -0.3439 -0.7490  0.7607
36310SOL    HW210938   3.520   4.542   4.712 -0.3970 -0.1538  0.7725
36311SOL     OW10939   3.388   5.242   4.531  0.4219  0.4754 -0.4054
36311SOL    HW110940   3.484   5.244   4.536  0.4730 -0.3810 -0.7905
36311SOL    HW210941   3.359   5.234   4.622  0.6863  1.2167 -0.2436
36312SOL     OW10942   8.913   2.487   7.688 -0.1156  0.2859 -0.0488
36312SOL    HW110943   8.835   2.488   7.744 -0.4688  0.2546 -0.5395
36312SOL    HW210944   8.895   2.552   7.620 -1.3016 -2.2067 -2.3036
36313SOL     OW10945   7.954   9.541   4.166  0.6763 -0.5834  0.8693
36313SOL    HW110946   8.027   9.483   4.146  0.5937 -0.8072  1.2155
36313SOL    HW210947   7.878   9.499   4.125  1.0030  0.5167 -0.9971
36314SOL     OW10948   9.136  10.944   9.704  0.4228 -0.8326  0.5322
36314SOL    HW110949   9.116  10.851   9.715  1.2651 -1.1030 -0.0944
36314SOL    HW210950   9.201  10.962   9.772  0.2186 -0.6834  0.6893
36315SOL     OW10951   1.505   3.018   6.948  0.5694 -0.1403  0.0268
36315SOL    HW110952   1.579   3.070   6.980  0.8275 -0.9372  0.7557
36315SOL    HW210953   1.515   2.933   6.991 -0.4401 -0.4529 -0.3352
36316SOL     OW10954   0.510   9.595   7.325  0.0592  0.1266  0.1507
36316SOL    HW110955   0.554   9.591   7.410 -1.2726 -0.4325  0.8332
36316SOL    HW210956   0.420   9.620   7.345 -0.0057  1.0865 -1.2066
36317SOL     OW10957   6.589   5.485   7.738 -0.0804 -0.1538  0.1013
36317SOL    HW110958   6.592   5.520   7.648 -1.3913  0.8401  0.4086
36317SOL    HW210959   6.653   5.538   7.786 -0.1056  0.0036 -0.0360
36318SOL     OW10960   1.481   7.463   8.264  0.1170 -0.0200  0.5557
36318SOL    HW110961   1.428   7.385   8.253 -0.5755  0.6673 -1.3456
36318SOL    HW210962   1.571   7.433   8.251 -0.2560 -0.2771 -1.8119
36319SOL     OW10963   3.151   5.637   2.636  0.0519  0.2040  0.6952
36319SOL    HW110964   3.172   5.726   2.608 -0.6481  0.2310  0.2307
36319SOL    HW210965   3.056   5.631   2.627  0.2563 -1.1601 -1.0122
36320SOL     OW10966  10.300   4.844   5.114 -0.1412  0.1831 -0.6353
36320SOL    HW110967  10.323   4.805   5.198 -0.2902  1.5663  0.0607
36320SOL    HW210968  10.219   4.800   5.088 -0.9750  0.8605  0.7219
36321SOL     OW10969   9.231   8.786   1.873  0.4738  0.1643  0.6238
36321SOL    HW110970   9.135   8.787   1.865  0.3006 -1.2876  1.9842
36321SOL    HW210971   9.249   8.839   1.950  0.6241 -0.7110  1.2088
36322SOL     OW10972   1.514   4.725   5.993 -0.2853 -0.1043 -0.3428
36322SOL    HW110973   1.590   4.765   6.035 -0.9423  1.5146 -0.6340
36322SOL    HW210974   1.446   4.792   5.996 -1.3426 -1.0908 -1.1556
36323SOL     OW10975   8.640   1.438   9.597 -0.5622  0.2510  0.0426
36323SOL    HW110976   8.685   1.493   9.533  1.5241 -1.0485  0.3010
36323SOL    HW210977   8.552   1.427   9.561 -0.2488  1.6654 -1.2712
36324SOL     OW10978   5.727   5.543   1.663 -0.0658  0.2657 -0.3912
36324SOL    HW110979   5.747   5.456   1.699  1.8168  0.9352  0.2973
36324SOL    HW210980   5.756   5.604   1.731 -1.7412  1.4488 -0.6936
36325SOL     OW10981   3.286   3.515   2.792  0.3801  0.3254  0.2818
36325SOL    HW110982   3.262   3.584   2.855 -1.9115  0.2746 -0.4372
36325SOL    HW210983   3.267   3.433   2.838  3.2330  0.0615  1.1862
36326SOL     OW10984   8.984   3.129   8.973 -0.3324 -0.1604  0.0266
36326SOL    HW110985   9.041   3.092   9.040  1.6246 -0.1435 -1.5439
36326SOL    HW210986   8.903   3.078   8.980 -0.0866 -0.3698  2.1356
36327SOL     OW10987   1.034   3.494   4.994  0.2204 -0.1663 -0.1958
36327SOL    HW110988   0.955   3.526   4.952 -0.1312 -0.3246  0.3312
36327SOL    HW210989   1.068   3.569   5.043 -0.2421 -0.4004  0.5059
36328SOL     OW10990   7.183   2.322   1.319 -0.0635 -0.3692  0.0943
36328SOL    HW110991   7.201   2.328   1.413  0.0847  2.0497 -0.0443
36328SOL    HW210992   7.088   2.323   1.312 -0.0691  0.0121  0.2032
36329SOL     OW10993  10.778   7.839   6.363 -0.0486  0.6150  0.5666
36329SOL    HW110994  10.763   7.895   6.287  0.3828 -0.8287 -0.6487
36329SOL    HW210995  10.785   7.899   6.437  1.3225  2.2438 -0.7933
36330SOL     OW10996   8.483   5.280   9.785 -0.1397 -0.2901  0.5227
36330SOL    HW110997   8.556   5.341   9.777 -0.8650  0.5816  0.3766
36330SOL    HW210998   8.500   5.234   9.868  1.4148 -1.2789 -0.3037
36331SOL     OW10999   6.116   9.295   5.732  0.0036  0.3792 -0.3650
36331SOL    HW111000   6.207   9.281   5.758 -0.6785 -2.2481  0.9583
36331SOL    HW211001   6.070   9.312   5.814 -0.9355  0.1839 -0.8414
36332SOL     OW11002   7.508   1.473   1.911 -0.0502  0.0917 -0.6657
36332SOL    HW111003   7.594   1.477   1.869 -0.1703 -1.5279 -1.1527
36332SOL    HW211004   7.524   1.496   2.002  0.5735  1.5787 -1.1190
36333SOL     OW11005   8.049   6.675   6.963 -0.3619 -0.4801 -0.1291
36333SOL    HW111006   8.105   6.611   7.007  2.4324  1.9547  0.1462
36333SOL    HW211007   8.040   6.746   7.027 -3.9912 -0.7366 -0.1186
36334SOL     OW11008   6.468   7.376   5.835  0.6924 -0.1222  0.0620
36334SOL    HW111009   6.468   7.387   5.931  1.6163 -1.0803  0.1923
36334SOL    HW211010   6.382   7.338   5.816  0.0452  1.1452  0.3621
36335SOL     OW11011   6.481  10.479   4.641 -0.0046  0.0687 -0.6599
36335SOL    HW111012   6.462  10.541   4.712  1.9390  0.6484 -0.5981
36335SOL    HW211013   6.510  10.400   4.686  2.5779  0.8921 -0.7525
36336SOL     OW11014  10.310   6.819   2.403 -0.3774  0.0805  0.1388
36336SOL    HW111015  10.230   6.859   2.369 -0.5453  0.6302  1.1486
36336SOL    HW211016  10.363   6.892   2.432  0.3560 -0.3035 -0.2014
36337SOL     OW11017   0.913   4.361   2.909  0.3732 -0.2322 -0.3954
36337SOL    HW111018   0.838   4.400   2.952  0.1115 -1.3428  0.1838
36337SOL    HW211019   0.987   4.378   2.968  0.1902 -0.9304  0.0383
36338SOL     OW11020   1.359   0.421   8.023 -0.2120  0.8191 -0.1376
36338SOL    HW111021   1.269   0.414   8.054 -0.6609 -0.9783 -1.6944
36338SOL    HW211022   1.354   0.481   7.948 -0.2315  0.3403 -0.5296
36339SOL     OW11023   1.795   4.634   6.188  0.3230  0.2819  0.0716
36339SOL    HW111024   1.742   4.556   6.204  1.4818 -0.2954  1.3896
36339SOL    HW211025   1.810   4.671   6.276 -1.0134  2.5853 -0.5901
36340SOL     OW11026   2.771  10.965   9.665  0.9004 -0.4107 -0.1504
36340SOL    HW111027   2.788  10.920   9.748 -0.1571 -0.8402 -0.1570
36340SOL    HW211028   2.676  10.966   9.657  0.9241  1.0112 -0.6055
36341SOL     OW11029   0.212   3.825   7.533 -0.7150 -0.1455  0.5307
36341SOL    HW111030   0.244   3.870   7.612 -0.1474  0.7460 -0.1805
36341SOL    HW211031   0.224   3.732   7.552 -0.4614  0.0599  1.4425
36342SOL     OW11032  10.559   3.307  10.512  0.4416 -0.5500 -0.3952
36342SOL    HW111033  10.508   3.350  10.580  0.1030  0.5476 -1.3002
36342SOL    HW211034  10.635   3.365  10.499  1.4535 -1.6798  0.2837
36343SOL     OW11035   4.491   2.232  10.786 -0.0676  0.4550  0.3882
36343SOL    HW111036   4.440   2.294  10.838  2.4888  2.3230  0.9238
36343SOL    HW211037   4.487   2.150  10.835 -1.9852  0.6961  0.6978
36344SOL     OW11038   9.231  10.045   3.165  0.2391 -0.2953  0.2350
36344SOL    HW111039   9.228   9.988   3.242 -0.4170 -0.3430  0.1772
36344SOL    HW211040   9.250   9.985   3.092  1.7554 -0.1329  0.4614
36345SOL     OW11041   1.201   6.042   3.199 -0.2135  0.0494  0.1333
36345SOL    HW111042   1.233   6.088   3.122 -1.9640  0.1836 -0.5611
36345SOL    HW211043   1.143   5.975   3.164 -0.3585 -0.4572  1.3074
36346SOL     OW11044   6.839  10.720   6.414 -0.0486 -0.0241 -0.0282
36346SOL    HW111045   6.842  10.793   6.352  0.8097  0.8615  1.0125
36346SOL    HW211046   6.838  10.762   6.500  4.2766 -1.1139  0.8118
36347SOL     OW11047   3.226  10.828   4.987  0.4416 -0.0770 -0.2594
36347SOL    HW111048   3.312  10.801   4.954  0.5063 -1.1003  0.6735
36347SOL    HW211049   3.244  10.907   5.039  0.5295  0.7572 -1.5077
36348SOL     OW11050   6.475   8.409   4.750  0.0523 -0.4818  0.6459
36348SOL    HW111051   6.450   8.325   4.713  0.0082 -0.4935  0.7018
36348SOL    HW211052   6.522   8.387   4.831  1.4600 -0.5172 -0.1381
36349SOL     OW11053   8.930   6.270   1.465 -0.0671  0.4236  0.1572
36349SOL    HW111054   8.895   6.182   1.477  2.9422 -0.9199 -0.0421
36349SOL    HW211055   8.928   6.309   1.553 -1.3939  0.1859  0.2468
36350SOL     OW11056   9.797   8.661   9.857 -0.5072 -0.1089 -0.4997
36350SOL    HW111057   9.783   8.753   9.837 -1.4646 -0.2370 -0.4595
36350SOL    HW211058   9.889   8.645   9.833 -1.0133  0.2292 -2.8763
36351SOL     OW11059   6.389   2.812   8.082 -0.0623 -0.0328 -0.9487
36351SOL    HW111060   6.455   2.880   8.083 -0.5356  0.4466  0.7476
36351SOL    HW211061   6.438   2.731   8.096  0.1379  0.4070  1.2799
36352SOL     OW11062   2.604   6.503   1.815 -0.0830 -0.2754 -0.1638
36352SOL    HW111063   2.628   6.476   1.904 -0.3065 -1.7462 -0.5157
36352SOL    HW211064   2.683   6.485   1.764 -0.1503  0.0226 -0.3730
36353SOL     OW11065   9.448   7.934   7.981 -0.4274 -0.5878  0.1803
36353SOL    HW111066   9.425   7.843   7.965  0.7880 -0.8599 -0.0880
36353SOL    HW211067   9.521   7.930   8.043 -0.4757  0.2135  0.3019
36354SOL     OW11068   0.652   0.689   9.005 -0.4085 -0.1989  0.3475
36354SOL    HW111069   0.741   0.684   8.971 -0.6292  0.0907 -0.2869
36354SOL    HW211070   0.638   0.782   9.023 -0.9770 -0.0763 -0.6594
36355SOL     OW11071   2.837   9.295   4.665  0.5039 -0.6039  0.0756
36355SOL    HW111072   2.794   9.221   4.621  0.8449 -0.6662 -0.1547
36355SOL    HW211073   2.785   9.309   4.744 -0.5201 -0.0534 -0.6843
36356SOL     OW11074   8.331   5.111   1.851 -0.3986  0.3205  0.1988
36356SOL    HW111075   8.266   5.160   1.801 -1.0033 -0.6463  0.0020
36356SOL    HW211076   8.280   5.042   1.895  0.4267 -0.1757  0.4036
36357SOL     OW11077   6.630   1.005   7.690  0.1005  0.1782  0.4718
36357SOL    HW111078   6.606   0.972   7.777 -0.4717  0.8403  0.5773
36357SOL    HW211079   6.547   1.033   7.651  0.3893  0.1478 -0.1808
36358SOL     OW11080   0.446  10.584   6.745 -0.2854 -0.1768  0.0629
36358SOL    HW111081   0.450  10.671   6.785 -0.4643  0.3713 -1.0381
36358SOL    HW211082   0.358  10.552   6.766  0.0239 -0.4033  1.0595
36359SOL     OW11083   7.097   6.880   1.428  0.1668 -0.1468 -0.2641
36359SOL    HW111084   7.089   6.933   1.507 -1.2766 -0.5573 -0.1101
36359SOL    HW211085   7.037   6.921   1.365 -2.5520 -2.6318  0.4843
36360SOL     OW11086   2.850   7.811   3.974  0.8069  0.2562 -0.5489
36360SOL    HW111087   2.758   7.784   3.983  0.9081 -0.1486 -0.7063
36360SOL    HW211088   2.872   7.850   4.059 -0.1831  2.4662 -1.2410
36361SOL     OW11089   7.722   9.645   9.654  0.0009 -0.3900  0.3312
36361SOL    HW111090   7.758   9.556   9.659  1.6534  0.2789  1.2634
36361SOL    HW211091   7.655   9.647   9.722  2.1183 -0.0864  2.5658
36362SOL     OW11092   5.179   2.375   4.217  0.2992  0.5421  0.0601
36362SOL    HW111093   5.257   2.370   4.162 -0.4231 -1.8785 -0.8692
36362SOL    HW211094   5.108   2.392   4.156 -0.3775 -1.1264  0.3373
36363SOL     OW11095   3.657   6.722   9.469  0.2395 -0.0491  0.0541
36363SOL    HW111096   3.718   6.730   9.543  0.9617  0.4139 -0.5703
36363SOL    HW211097   3.692   6.783   9.403  1.1748 -2.3314 -1.7121
36364SOL     OW11098  10.471   9.685   3.641  0.2934 -0.1161 -0.5282
36364SOL    HW111099  10.537   9.697   3.709 -1.0269  1.0411  0.6305
36364SOL    HW211100  10.473   9.767   3.591 -1.1894  0.5723  0.4379
36365SOL     OW11101   3.609   5.343   5.065 -0.3116 -0.4835  0.2781
36365SOL    HW111102   3.699   5.373   5.053 -0.7264  0.4031 -0.8511
36365SOL    HW211103   3.613   5.281   5.138  1.4385 -1.5421 -0.6657
36366SOL     OW11104   5.575   8.878  10.884  0.3044  0.6477 -0.1134
36366SOL    HW111105   5.635   8.890  10.957  0.6244  0.3106 -0.3155
36366SOL    HW211106   5.609   8.802  10.837 -0.2642  0.4707 -0.2491
36367SOL     OW11107   7.164   4.280   8.034 -0.2805  0.0431 -0.7602
36367SOL    HW111108   7.122   4.351   8.083  0.0659 -0.2022 -0.0940
36367SOL    HW211109   7.224   4.324   7.974  1.5980  0.2921  1.1855
36368SOL     OW11110   8.889   9.813   6.179  0.7513 -0.1394  0.0123
36368SOL    HW111111   8.982   9.833   6.183  0.6758  0.2000  0.1086
36368SOL    HW211112   8.846   9.891   6.214  0.5534 -1.6543  3.5824
36369SOL     OW11113   7.754   5.342   7.798 -0.1491 -0.7098 -0.2736
36369SOL    HW111114   7.670   5.354   7.755 -0.5028  2.3092  1.0006
36369SOL    HW211115   7.813   5.401   7.752  1.0959 -2.1421 -0.5941
36370SOL     OW11116   2.958   4.359   8.549 -0.5917  0.1601 -0.4699
36370SOL    HW111117   2.942   4.283   8.604 -0.5472 -0.2376 -0.9925
36370SOL    HW211118   2.986   4.322   8.465 -0.0308  0.7626 -0.5602
36371SOL     OW11119   6.497   1.867  10.247 -0.5378  0.2023 -0.1814
36371SOL    HW111120   6.445   1.912  10.181 -2.2641 -0.7558  0.4326
36371SOL    HW211121   6.435   1.850  10.318  0.5639 -1.1963  0.5095
36372SOL     OW11122   0.460   1.029   6.487  0.0787  0.0644  0.4066
36372SOL    HW111123   0.379   0.979   6.498 -0.0464  0.6197  2.2022
36372SOL    HW211124   0.467   1.041   6.392 -2.2264  0.4707  0.2280
36373SOL     OW11125   0.271   8.545   1.018 -0.9419 -0.0948  0.8243
36373SOL    HW111126   0.232   8.550   1.106  1.5919  1.9270  1.9454
36373SOL    HW211127   0.322   8.464   1.019 -0.9658 -0.1073  1.2039
36374SOL     OW11128   1.261   7.181   1.245 -0.3170 -0.3496  0.5145
36374SOL    HW111129   1.169   7.172   1.271 -0.8608 -1.8163 -1.6122
36374SOL    HW211130   1.280   7.101   1.195  2.2596 -0.2773  1.2224
36375SOL     OW11131   3.570   1.889   9.451 -0.3595 -0.4891 -0.2442
36375SOL    HW111132   3.590   1.886   9.545 -0.1432 -1.6512 -0.3127
36375SOL    HW211133   3.579   1.799   9.422 -0.9567 -0.2265 -1.2853
36376SOL     OW11134   8.553   3.128   6.542  0.1215 -0.0164  0.5205
36376SOL    HW111135   8.509   3.083   6.470  0.2307  0.0339  0.4213
36376SOL    HW211136   8.487   3.187   6.578 -0.5836 -1.5033  1.7818
36377SOL     OW11137   8.278   2.574  10.931  0.2173 -0.3056  0.2087
36377SOL    HW111138   8.244   2.500  10.982  0.8353  0.3370  1.6123
36377SOL    HW211139   8.317   2.534  10.854 -0.3925 -1.3492  0.4201
36378SOL     OW11140   1.965   5.017   6.899  0.2067 -0.4603  0.8615
36378SOL    HW111141   1.928   4.973   6.823  0.0054 -2.1621  1.8962
36378SOL    HW211142   2.017   5.089   6.862 -3.4267  1.6620 -0.6984
36379SOL     OW11143   5.035   4.332   6.411 -0.2288 -0.1264  0.1072
36379SOL    HW111144   5.106   4.298   6.465  0.3448 -0.0776 -0.5919
36379SOL    HW211145   5.022   4.422   6.443  0.6230  0.1608 -0.3201
36380SOL     OW11146   1.598   5.137   9.281 -0.2166 -0.8393  0.0276
36380SOL    HW111147   1.662   5.190   9.329 -1.7485  0.3300  0.8610
36380SOL    HW211148   1.561   5.080   9.348 -1.7351  0.1757  0.0837
36381SOL     OW11149   3.611   3.558   8.727 -0.0105  0.6986  0.2799
36381SOL    HW111150   3.682   3.498   8.705 -0.0649 -0.1436  2.1646
36381SOL    HW211151   3.617   3.627   8.662  1.4601 -0.2225 -0.6285
36382SOL     OW11152   3.730   7.181   0.920 -0.4090 -0.2236 -0.4626
36382SOL    HW111153   3.746   7.198   1.012  2.3591 -0.3902 -0.8240
36382SOL    HW211154   3.675   7.102   0.919 -0.8953  0.0795  1.0232
36383SOL     OW11155   7.851   7.498   9.576  0.5171  0.6093  0.6517
36383SOL    HW111156   7.925   7.558   9.587  1.8127 -1.2313  2.5345
36383SOL    HW211157   7.881   7.435   9.511  0.3701  0.2147  0.9653
36384SOL     OW11158   1.773   5.178   7.640 -0.8232  0.0845 -0.3172
36384SOL    HW111159   1.793   5.220   7.556  0.2990 -0.1031 -0.1567
36384SOL    HW211160   1.790   5.085   7.626  2.2038  0.3604  0.8724
36385SOL     OW11161   0.375   7.072   1.887 -0.1381  0.0403  0.0602
36385SOL    HW111162   0.332   7.042   1.807  0.3707  0.9756 -0.5791
36385SOL    HW211163   0.440   7.135   1.857  0.3747  0.0678  1.1780
36386SOL     OW11164   2.045   7.461   9.384  0.5979  0.0429  0.1735
36386SOL    HW111165   2.067   7.368   9.373 -1.5982 -0.4842 -0.2193
36386SOL    HW211166   2.026   7.491   9.295 -0.9149  0.2307  0.5317
36387SOL     OW11167   5.964  10.987   8.404  0.3046  0.5863  0.1679
36387SOL    HW111168   5.965  10.916   8.468  0.6173 -0.4109 -0.9044
36387SOL    HW211169   6.047  11.032   8.418  1.4748 -1.0576 -1.0319
36388SOL     OW11170  10.269   8.427   5.058 -0.4882 -0.4585 -0.5177
36388SOL    HW111171  10.251   8.501   5.116 -2.0299 -1.0378 -0.2004
36388SOL    HW211172  10.260   8.350   5.114 -0.2055 -0.9438 -1.1305
36389SOL     OW11173  10.765   4.804  10.152  0.0882  0.1134  0.3002
36389SOL    HW111174  10.736   4.894  10.165 -0.0645  0.1480 -0.2438
36389SOL    HW211175  10.821   4.809  10.074  1.5750  0.0568  1.3138
36390SOL     OW11176   7.000   4.306   8.845  0.0390 -0.0069  0.0440
36390SOL    HW111177   6.976   4.238   8.908  0.5008 -0.5289 -0.3296
36390SOL    HW211178   7.033   4.378   8.898  1.9906 -1.0728  0.3656
36391SOL     OW11179  10.528   9.973   5.818 -0.1312 -0.0061  0.4708
36391SOL    HW111180  10.505  10.024   5.896 -0.9015 -1.2036  1.0647
36391SOL    HW211181  10.576   9.898   5.852 -0.3197 -0.4516 -0.2257
36392SOL     OW11182   1.871   5.277   5.272  0.3654 -0.3148  0.5361
36392SOL    HW111183   1.856   5.306   5.182  2.2299 -1.2152 -0.1068
36392SOL    HW211184   1.884   5.182   5.265  0.7729 -0.3598  1.7148
36393SOL     OW11185   0.688   6.369   8.072  0.7737 -0.3057 -0.5720
36393SOL    HW111186   0.662   6.294   8.126 -0.0756  0.4086  0.0558
36393SOL    HW211187   0.626   6.438   8.096  2.5047  1.1162  0.0810
36394SOL     OW11188   3.146   9.700   1.849  0.1625  0.1489  0.1867
36394SOL    HW111189   3.125   9.608   1.865  0.9165 -0.0667 -0.0418
36394SOL    HW211190   3.151   9.707   1.753  1.0801  0.2017  0.2340
36395SOL     OW11191   5.725   0.584   2.266 -0.0609 -0.0617  0.0002
36395SOL    HW111192   5.774   0.576   2.184  2.2581 -1.5004  1.4108
36395SOL    HW211193   5.673   0.503   2.269 -0.1297 -0.0191 -0.0364
36396SOL     OW11194   1.481  10.124   0.188 -0.3364  0.1205  0.0723
36396SOL    HW111195   1.550  10.074   0.233 -0.5047 -0.1216  0.0651
36396SOL    HW211196   1.452  10.188   0.253 -0.6711 -0.3142  0.3603
36397SOL     OW11197   4.450   3.448   8.453  0.2411  0.2599  0.5412
36397SOL    HW111198   4.385   3.483   8.391 -0.1760  1.3141  1.5359
36397SOL    HW211199   4.429   3.355   8.460 -0.7491  0.4570  0.3575
36398SOL     OW11200   2.284   3.168   4.510  0.0976  0.6352  0.0568
36398SOL    HW111201   2.307   3.244   4.456  1.2723  1.2175  1.3249
36398SOL    HW211202   2.339   3.097   4.479 -1.0704  0.2298 -1.1966
36399SOL     OW11203   6.829   4.699   3.888  0.3025 -0.6475  0.1310
36399SOL    HW111204   6.748   4.648   3.895  1.6321 -2.7450  1.9817
36399SOL    HW211205   6.843   4.709   3.794 -1.2695 -1.6348 -0.2627
36400SOL     OW11206   1.716   4.392   6.394 -0.0889 -0.1943  0.2162
36400SOL    HW111207   1.636   4.382   6.445 -0.9857  2.9211 -0.3803
36400SOL    HW211208   1.781   4.423   6.458 -0.1508 -0.0368  0.2049
36401SOL     OW11209   6.012  10.633   1.115 -0.0958  0.0581  0.2182
36401SOL    HW111210   6.023  10.598   1.027 -0.5948 -0.9562  0.5492
36401SOL    HW211211   6.098  10.623   1.156  0.1969  0.7324 -0.2095
36402SOL     OW11212   4.907   8.576   9.844  0.2883 -0.7462  0.2437
36402SOL    HW111213   4.828   8.629   9.858  1.4512  1.1446 -0.0900
36402SOL    HW211214   4.884   8.490   9.879 -2.1145 -0.4158 -0.3670
36403SOL     OW11215   5.422  10.645   2.656 -0.6174  0.7576 -0.0563
36403SOL    HW111216   5.496  10.706   2.663 -1.7396  2.1126  0.3804
36403SOL    HW211217   5.382  10.645   2.743 -0.7573 -0.4793 -0.1003
36404SOL     OW11218   4.053   5.119   0.527 -0.3048 -0.6132  1.0394
36404SOL    HW111219   3.994   5.089   0.458 -1.0385  0.5417  1.1427
36404SOL    HW211220   4.050   5.214   0.522  1.9124 -0.4951  0.7552
36405SOL     OW11221   4.974   4.244   2.486 -0.3131 -0.2310 -0.3700
36405SOL    HW111222   5.017   4.202   2.561 -0.8859  2.8374  1.8597
36405SOL    HW211223   5.046   4.262   2.425  0.6561 -0.1641  0.7612
36406SOL     OW11224   1.480   6.385   2.323  0.2703 -0.1985  0.4314
36406SOL    HW111225   1.460   6.421   2.409  0.8145 -0.4379  0.6660
36406SOL    HW211226   1.429   6.438   2.262 -0.9814 -0.7225  0.9841
36407SOL     OW11227   0.272   9.352  10.998  0.1519  0.1342  0.0733
36407SOL    HW111228   0.295   9.290  11.067 -0.9682  1.2181  1.4936
36407SOL    HW211229   0.241   9.429  11.046  2.6396  2.3042 -1.5641
36408SOL     OW11230   6.855   7.911   1.674  0.3572 -0.5600 -0.4031
36408SOL    HW111231   6.795   7.951   1.610 -0.3168  0.1462  0.6423
36408SOL    HW211232   6.882   7.984   1.730  0.4833 -1.2765  0.4780
36409SOL     OW11233   1.725   8.860   9.589  0.5730  0.3171 -0.4945
36409SOL    HW111234   1.807   8.812   9.600  0.8069  0.9027  0.3819
36409SOL    HW211235   1.750   8.943   9.549  0.5944  1.0631  1.0358
36410SOL     OW11236   7.348  10.319   9.542  0.0471 -0.1979  0.2051
36410SOL    HW111237   7.339  10.273   9.625  0.5384 -1.6487 -0.5085
36410SOL    HW211238   7.275  10.382   9.541 -2.3124 -2.7410  0.1125
36411SOL     OW11239   2.030   4.471   2.904  0.3971 -0.2495  0.5407
36411SOL    HW111240   2.048   4.509   2.990 -0.0392  1.0619  0.0783
36411SOL    HW211241   2.107   4.418   2.885  0.6847 -0.2148  1.5530
36412SOL     OW11242   9.531   6.103   1.383  0.1788  0.4605  0.0094
36412SOL    HW111243   9.590   6.054   1.440 -0.6134 -0.8517 -0.2465
36412SOL    HW211244   9.454   6.046   1.375  0.2326  0.6423 -2.2933
36413SOL     OW11245   6.325   1.645   5.716 -0.5107 -0.3399 -0.8575
36413SOL    HW111246   6.388   1.583   5.752  0.1288  0.1112 -1.1821
36413SOL    HW211247   6.266   1.664   5.789 -1.2692 -1.9881 -0.9782
36414SOL     OW11248   1.199   6.187   9.134 -0.1120 -0.1988  0.2696
36414SOL    HW111249   1.239   6.190   9.047  1.0488  0.4903  0.8019
36414SOL    HW211250   1.143   6.265   9.137 -1.4410 -1.0913 -0.4272
36415SOL     OW11251   3.068   8.574   6.297 -0.0088  0.0412 -0.4449
36415SOL    HW111252   3.134   8.580   6.228  0.4992  0.0402  0.0311
36415SOL    HW211253   2.985   8.564   6.251  0.2815  0.4492 -1.0550
36416SOL     OW11254   3.762   3.352   8.214  0.0571 -0.4155 -0.0966
36416SOL    HW111255   3.762   3.353   8.118  2.0124 -1.4652 -0.1649
36416SOL    HW211256   3.670   3.365   8.238 -0.5616 -0.6675 -2.1107
36417SOL     OW11257   4.552   7.601   6.787  0.1881 -0.0802  0.8299
36417SOL    HW111258   4.555   7.681   6.839  2.6993  0.6778 -0.3094
36417SOL    HW211259   4.528   7.630   6.699  1.7372 -0.4231  0.2572
36418SOL     OW11260   2.584   2.455   7.201 -0.5115 -0.0445  0.6538
36418SOL    HW111261   2.508   2.399   7.217  0.5113 -1.6915  0.0444
36418SOL    HW211262   2.659   2.395   7.200  0.5133  1.1467 -1.2011
36419SOL     OW11263   3.012   9.076   3.752 -0.2275  0.1968 -0.3893
36419SOL    HW111264   2.957   9.050   3.679 -2.2607  1.2071  0.7024
36419SOL    HW211265   3.022   8.996   3.805 -1.1698  0.1258 -0.3001
36420SOL     OW11266   9.286  10.615   4.010  0.6802  0.4672  0.1913
36420SOL    HW111267   9.229  10.677   3.963  1.1485  1.3671  0.7911
36420SOL    HW211268   9.370  10.620   3.964  1.2999  1.7445  1.4048
36421SOL     OW11269   6.756   2.426   4.337  0.3363  0.0109  0.3622
36421SOL    HW111270   6.725   2.370   4.266 -2.2603 -1.0250  2.1485
36421SOL    HW211271   6.809   2.368   4.391  4.0032  1.2735 -1.5768
36422SOL     OW11272   8.461   2.690   4.302 -0.4138 -0.1518 -0.1875
36422SOL    HW111273   8.472   2.594   4.304 -0.4351 -0.1551 -0.2200
36422SOL    HW211274   8.418   2.707   4.219 -1.4565 -0.2270  0.3132
36423SOL     OW11275   5.041  10.774   3.984  0.0589  0.3233  0.1975
36423SOL    HW111276   5.088  10.850   4.017  1.1023 -0.0810 -0.3116
36423SOL    HW211277   5.012  10.727   4.062  2.1271 -0.4038  0.5804
36424SOL     OW11278   9.339   2.054   8.786 -0.1884 -0.3399  0.2853
36424SOL    HW111279   9.340   1.998   8.709  0.6914  0.9123 -0.6513
36424SOL    HW211280   9.266   2.114   8.771  0.7940  0.7618 -0.2484
36425SOL     OW11281   0.619   3.723   9.466  0.3857 -0.0657  0.2218
36425SOL    HW111282   0.579   3.636   9.471 -1.7683  0.5089 -3.3753
36425SOL    HW211283   0.568   3.776   9.527  0.1790 -0.8359  0.7317
36426SOL     OW11284   0.956  10.730   9.550 -0.3334  0.1748  0.1727
36426SOL    HW111285   1.047  10.703   9.560 -0.2552  0.2510 -0.3040
36426SOL    HW211286   0.909  10.683   9.618  0.0122 -0.1103  0.2156
36427SOL     OW11287   5.024   1.619   5.839 -0.3003  0.5932  0.1349
36427SOL    HW111288   4.983   1.616   5.926 -1.0466 -1.2373 -0.2384
36427SOL    HW211289   5.007   1.533   5.801 -1.0080  1.7172 -2.3173
36428SOL     OW11290  10.770   5.408   7.278  0.1997 -0.0582 -0.4407
36428SOL    HW111291  10.734   5.382   7.193 -0.8551  1.6793 -0.5651
36428SOL    HW211292  10.780   5.326   7.326 -0.0917 -0.9779 -1.8893
36429SOL     OW11293   4.218   6.699   3.215 -0.1627 -0.1194 -0.3590
36429SOL    HW111294   4.266   6.687   3.297  1.0260  2.2537 -0.6267
36429SOL    HW211295   4.282   6.679   3.147 -0.9992 -1.5780 -0.7648
36430SOL     OW11296   7.533   8.691   0.212 -0.3055  0.4414  0.3115
36430SOL    HW111297   7.594   8.765   0.217 -2.5382  2.4048  0.1484
36430SOL    HW211298   7.564   8.639   0.137  1.5996  0.9056  0.7293
36431SOL     OW11299   2.907   9.000   2.632  0.1121  0.0896  0.2165
36431SOL    HW111300   2.896   8.971   2.722  0.5032 -0.4219  0.1019
36431SOL    HW211301   2.824   8.977   2.589  0.1838 -0.2824  0.2780
36432SOL     OW11302   0.984  10.000   9.644  0.2906  0.4124 -0.3613
36432SOL    HW111303   0.915   9.937   9.665 -0.4216  0.7908 -1.4990
36432SOL    HW211304   1.020  10.024   9.730  1.9503 -2.9715  0.0228
36433SOL     OW11305   5.030   4.987   9.670 -0.5721  0.8722 -0.1046
36433SOL    HW111306   5.121   4.958   9.676 -0.6052  0.6335 -0.7142
36433SOL    HW211307   5.001   4.956   9.585 -1.3250  0.6651  0.2232
36434SOL     OW11308   5.822   6.931   8.245  0.5128  0.0535  0.2604
36434SOL    HW111309   5.781   6.848   8.224 -1.3752  1.0097 -0.1108
36434SOL    HW211310   5.765   6.997   8.204  2.6902  1.4870 -0.6689
36435SOL     OW11311   7.479   9.979   4.906 -0.1449  0.1312 -0.6195
36435SOL    HW111312   7.556  10.034   4.920 -0.3138  0.2713 -0.2206
36435SOL    HW211313   7.505   9.918   4.837  1.0012 -1.1467  0.8876
36436SOL     OW11314   0.645   3.929   5.524  0.2286  0.3568 -0.2607
36436SOL    HW111315   0.688   3.973   5.597  2.1018  0.2325 -1.2426
36436SOL    HW211316   0.670   3.980   5.447 -0.3273 -0.4931 -1.0190
36437SOL     OW11317   0.512   8.142   0.223 -0.8090  0.4749 -0.3573
36437SOL    HW111318   0.421   8.136   0.194 -0.5267 -1.7611 -0.9896
36437SOL    HW211319   0.564   8.141   0.143 -0.1896  0.3646  0.0322
36438SOL     OW11320   3.749   6.943   4.506  0.1236 -0.8446  0.1852
36438SOL    HW111321   3.666   6.936   4.553  0.0990  1.6372  0.6479
36438SOL    HW211322   3.812   6.971   4.572  1.0108 -1.2811 -0.4541
36439SOL     OW11323   7.808   0.771   5.790  0.1456  0.7065  0.3841
36439SOL    HW111324   7.885   0.762   5.735 -1.1705 -2.1217 -1.2054
36439SOL    HW211325   7.839   0.753   5.879  1.3151 -0.6180 -0.2558
36440SOL     OW11326   2.508   4.350   7.961 -0.1828 -0.1426  0.1094
36440SOL    HW111327   2.467   4.432   7.932 -1.3030 -0.1843  1.4303
36440SOL    HW211328   2.600   4.371   7.972  0.1469  0.0930 -2.5115
36441SOL     OW11329   8.166   1.612   5.050  0.1934 -0.1272 -0.1627
36441SOL    HW111330   8.135   1.658   5.127  0.5638 -0.1044 -0.0237
36441SOL    HW211331   8.185   1.523   5.081  1.0157  0.0746 -0.0597
36442SOL     OW11332   4.914   7.585   3.334  0.4650 -0.1876 -0.1694
36442SOL    HW111333   4.877   7.673   3.335  0.7563 -0.0523 -0.9127
36442SOL    HW211334   4.884   7.546   3.417  1.3466  1.0146  0.7482
36443SOL     OW11335  10.695   8.633   6.968  0.2904  0.0515 -0.0959
36443SOL    HW111336  10.673   8.725   6.952 -1.5826 -0.4247 -0.5758
36443SOL    HW211337  10.613   8.586   6.952  1.0076 -1.6274  0.8683
36444SOL     OW11338  10.810   9.509   6.837 -0.0537  0.0993  0.1564
36444SOL    HW111339  10.736   9.565   6.813 -0.1836  0.0652  0.4770
36444SOL    HW211340  10.799   9.492   6.930 -1.7217 -2.9152 -0.4455
36445SOL     OW11341   3.887   2.109   0.538 -0.2401  1.0902 -0.5193
36445SOL    HW111342   3.962   2.099   0.597 -2.2964  0.8680  2.2555
36445SOL    HW211343   3.904   2.047   0.468  1.1812 -0.5579  1.1673
36446SOL     OW11344   6.628   7.096   0.268  0.1943 -0.1180 -0.4055
36446SOL    HW111345   6.711   7.050   0.282  0.9102 -0.2111 -3.9812
36446SOL    HW211346   6.562   7.027   0.265  0.6697 -0.5317 -1.8197
36447SOL     OW11347   0.736  10.493  10.732  0.2252  0.3888  0.0775
36447SOL    HW111348   0.679  10.563  10.699  1.1634  1.0596 -0.1443
36447SOL    HW211349   0.687  10.413  10.712  0.2406  0.8180 -2.0031
36448SOL     OW11350   8.488   2.320   4.641 -0.7864 -0.5640 -0.0738
36448SOL    HW111351   8.420   2.329   4.575  0.1362 -0.4634 -1.0302
36448SOL    HW211352   8.570   2.314   4.592 -0.0345 -0.1120  1.0645
36449SOL     OW11353   3.049   0.580   4.484  0.0859  0.1674 -0.1489
36449SOL    HW111354   3.033   0.529   4.405  0.5672  0.9267 -0.7534
36449SOL    HW211355   3.095   0.520   4.542  1.3203  0.1176 -1.1396
36450SOL     OW11356   0.265   8.778   2.255  0.3511 -0.4408 -0.7572
36450SOL    HW111357   0.274   8.838   2.181 -0.0386  0.7813  0.1551
36450SOL    HW211358   0.171   8.768   2.267  0.3568 -2.5983 -1.9173
36451SOL     OW11359   4.970   4.933  10.567 -0.1785  0.3072  0.3659
36451SOL    HW111360   4.965   4.841  10.543 -1.2071  0.8725 -1.8429
36451SOL    HW211361   5.064   4.951  10.571  0.0309 -0.5503 -0.4104
36452SOL     OW11362   7.693   1.296   2.158 -0.1283 -0.2427  0.2449
36452SOL    HW111363   7.630   1.367   2.170 -0.0805 -0.3861  1.4939
36452SOL    HW211364   7.653   1.220   2.201  0.3009 -0.6823 -0.1194
36453SOL     OW11365   9.230   9.075   2.735  0.1555 -0.1041 -0.1575
36453SOL    HW111366   9.292   9.128   2.787  3.1626 -2.1967 -1.3472
36453SOL    HW211367   9.280   9.050   2.657 -2.7397 -0.8050 -1.9131
36454SOL     OW11368   1.989   4.783   7.798  0.2643 -0.5167 -0.7491
36454SOL    HW111369   2.016   4.863   7.753 -1.9679  0.0661 -1.1694
36454SOL    HW211370   2.023   4.793   7.887  2.2664 -0.3604 -1.4691
36455SOL     OW11371   2.223   4.786   1.609  0.7118 -0.3178  0.1320
36455SOL    HW111372   2.173   4.834   1.675  0.6129  0.8390 -0.7571
36455SOL    HW211373   2.178   4.702   1.601  1.0783 -0.7328  1.9572
36456SOL     OW11374  10.585   8.886   6.931 -0.2623 -0.3814 -0.7635
36456SOL    HW111375  10.589   8.950   6.860  0.7497 -0.8635 -1.1679
36456SOL    HW211376  10.525   8.818   6.899 -1.2083  0.2600 -0.4005
36457SOL     OW11377   0.607   9.044  10.876  0.4665  0.0449 -0.1264
36457SOL    HW111378   0.651   9.011  10.797 -1.5421  0.0893 -1.3477
36457SOL    HW211379   0.545   8.975  10.898 -0.2315  0.8078  0.3407
36458SOL     OW11380   1.611   1.470   9.786 -0.3870  0.3587  0.0697
36458SOL    HW111381   1.531   1.452   9.836 -0.2498 -0.5728 -0.0313
36458SOL    HW211382   1.658   1.386   9.785  0.2554  0.7185 -0.4676
36459SOL     OW11383   6.976   6.029   8.613 -0.3175 -0.2885  0.0133
36459SOL    HW111384   6.919   6.006   8.540  1.4547 -1.2483 -1.1240
36459SOL    HW211385   7.033   5.953   8.624  2.5944  1.6153 -0.7721
36460SOL     OW11386   5.493   2.141   1.686 -0.1264  0.1524  0.6426
36460SOL    HW111387   5.521   2.069   1.743 -0.9452 -0.1572  0.6791
36460SOL    HW211388   5.397   2.141   1.694 -0.1971  0.6130 -0.1212
36461SOL     OW11389   1.401   6.775   7.391  0.1075  0.1799  0.4284
36461SOL    HW111390   1.360   6.735   7.468 -0.6229  2.2529  1.1937
36461SOL    HW211391   1.351   6.855   7.376  1.9513  1.2322 -0.5202
36462SOL     OW11392   2.994   4.043   6.799 -0.0905  0.4933 -0.1722
36462SOL    HW111393   2.974   3.975   6.863  2.0537  0.3211  0.3888
36462SOL    HW211394   2.999   3.997   6.715 -0.0479  0.2264 -0.0230
36463SOL     OW11395   9.325   7.949   1.950 -0.0782 -0.2898  0.5911
36463SOL    HW111396   9.235   7.980   1.956  0.3098  0.7058  1.5838
36463SOL    HW211397   9.372   8.000   2.016  1.6435  0.7982 -1.3450
36464SOL     OW11398   3.352   1.806   9.820  0.4608 -0.2684  0.8581
36464SOL    HW111399   3.285   1.858   9.776  1.8085 -0.3965 -1.5508
36464SOL    HW211400   3.331   1.813   9.913 -0.9527  2.3885  0.4394
36465SOL     OW11401   5.585   2.293   4.868  0.1207  0.2777  0.2276
36465SOL    HW111402   5.660   2.328   4.917  0.5071 -0.1292 -0.0617
36465SOL    HW211403   5.574   2.204   4.902 -0.5379  0.5023  0.6050
36466SOL     OW11404   2.696   0.595   9.326  0.2157 -0.0564 -0.0239
36466SOL    HW111405   2.643   0.565   9.400 -1.0744 -0.2062 -0.9759
36466SOL    HW211406   2.763   0.528   9.316  1.4144  0.7718  1.9969
36467SOL     OW11407   1.972   1.583   9.774  0.2321 -0.5399 -0.0725
36467SOL    HW111408   1.901   1.547   9.827  0.4168 -0.1413  0.4463
36467SOL    HW211409   2.051   1.539   9.807  0.5667  0.8290  1.0613
36468SOL     OW11410   1.499   1.161   9.345 -0.1289  0.2354 -0.1519
36468SOL    HW111411   1.416   1.114   9.351 -1.1325  1.7887 -1.2808
36468SOL    HW211412   1.522   1.180   9.436 -0.3117 -1.3113  0.2575
36469SOL     OW11413   3.985   0.973   3.727 -0.6939 -0.1256 -0.5255
36469SOL    HW111414   4.066   0.947   3.771  0.5521 -0.4993 -2.8835
36469SOL    HW211415   3.935   0.891   3.718 -1.7328  0.2202  1.5671
36470SOL     OW11416   9.221   5.908   0.534  0.1126 -0.2309  0.1887
36470SOL    HW111417   9.169   5.952   0.467  1.0671 -1.1410 -1.1997
36470SOL    HW211418   9.158   5.883   0.601 -0.9750  0.1223 -0.6719
36471SOL     OW11419   0.301   7.798   0.066 -0.5917 -0.0663  0.0228
36471SOL    HW111420   0.262   7.872   0.020 -1.4058  0.2047  1.1014
36471SOL    HW211421   0.277   7.811   0.158  0.9502 -0.6054  0.5376
36472SOL     OW11422   3.454   2.066   7.138  0.5089  0.0549  0.6137
36472SOL    HW111423   3.442   2.085   7.045  1.5840  0.4655  0.5499
36472SOL    HW211424   3.425   2.145   7.183  2.1305  0.7534  0.4963
36473SOL     OW11425   5.018   3.985   1.577 -0.0991  0.6294  0.2940
36473SOL    HW111426   4.944   4.030   1.618 -0.3900 -1.5526  2.4754
36473SOL    HW211427   5.058   3.935   1.649  1.3600 -0.9932 -1.5074
36474SOL     OW11428  10.344   1.469   4.465  0.3631  0.2840 -0.5350
36474SOL    HW111429  10.280   1.457   4.394  1.8659 -1.6660 -1.6714
36474SOL    HW211430  10.291   1.466   4.545 -1.2129  1.1049 -1.4874
36475SOL     OW11431   4.107   2.666   8.778 -0.2488  0.3129 -0.1119
36475SOL    HW111432   4.031   2.658   8.719  0.9834 -1.1454 -1.5823
36475SOL    HW211433   4.138   2.755   8.764 -0.9941  0.5469 -0.3643
36476SOL     OW11434   9.483   0.417   3.873  0.8483 -0.0058 -0.0831
36476SOL    HW111435   9.523   0.375   3.797  0.6028 -1.5373  0.6152
36476SOL    HW211436   9.528   0.380   3.949 -1.9866 -2.0515  0.7721
36477SOL     OW11437   5.122   1.667   6.449  0.1360 -0.0821 -0.1836
36477SOL    HW111438   5.081   1.681   6.534  1.5719 -0.4345  0.6045
36477SOL    HW211439   5.152   1.576   6.451  0.3126 -0.0489 -1.0093
36478SOL     OW11440   9.410   4.947   1.424 -0.8143 -0.0662  0.0734
36478SOL    HW111441   9.425   5.036   1.390 -1.0962  0.5251  1.4263
36478SOL    HW211442   9.353   4.960   1.500 -0.7999 -1.4123  0.3362
36479SOL     OW11443   9.661   3.286   8.071 -0.0600  0.5802 -0.0707
36479SOL    HW111444   9.689   3.209   8.022 -0.6884 -0.9965  1.9063
36479SOL    HW211445   9.575   3.308   8.034 -0.3105 -0.2683 -0.0063
36480SOL     OW11446   5.771   7.167   1.924  0.1924  0.2764 -0.3024
36480SOL    HW111447   5.714   7.135   1.994  0.6580 -2.1672 -0.9626
36480SOL    HW211448   5.713   7.220   1.869 -0.9971 -0.5455  0.1082
36481SOL     OW11449   5.801   8.637   7.519  0.1091  0.6709 -0.0304
36481SOL    HW111450   5.760   8.693   7.453  0.3557  0.5258 -0.3107
36481SOL    HW211451   5.774   8.549   7.496  0.3104  0.6067 -0.0255
36482SOL     OW11452   9.891   5.081   9.114  0.8796 -0.1058  0.1622
36482SOL    HW111453   9.968   5.075   9.057  0.1151 -0.7408 -0.8239
36482SOL    HW211454   9.817   5.064   9.057 -0.0235  0.6191  1.0758
36483SOL     OW11455   9.977   5.491   5.742  0.3448  0.2040 -0.0354
36483SOL    HW111456   9.984   5.402   5.776 -2.6756  0.2806  1.0886
36483SOL    HW211457   9.987   5.547   5.819 -1.7044  0.6026 -0.0166
36484SOL     OW11458   8.749   7.298   6.860 -0.3105  0.4020  0.6385
36484SOL    HW111459   8.689   7.229   6.830 -1.3601  0.4723  2.4613
36484SOL    HW211460   8.830   7.280   6.812 -0.7916 -1.6338  0.4664
36485SOL     OW11461   4.993   6.741   8.048 -0.1415 -0.2460  0.5871
36485SOL    HW111462   5.087   6.757   8.042 -0.1501  0.4303  1.8402
36485SOL    HW211463   4.953   6.819   8.009 -0.1823 -0.7348 -0.3479
36486SOL     OW11464   6.388   4.511  10.634  0.3838  0.5963 -0.0076
36486SOL    HW111465   6.335   4.580  10.594 -0.8320 -0.6786 -0.6901
36486SOL    HW211466   6.339   4.484  10.712  2.4508  2.6652  2.1833
36487SOL     OW11467   5.298   3.641   5.712 -0.0506 -0.2112  0.5548
36487SOL    HW111468   5.314   3.578   5.782 -0.3794 -0.7058  0.1945
36487SOL    HW211469   5.382   3.685   5.699  0.0637 -0.2529  1.1168
36488SOL     OW11470   4.584   8.132   0.914 -0.3245  0.1726 -0.2325
36488SOL    HW111471   4.495   8.119   0.879 -0.6258  1.2155  0.1081
36488SOL    HW211472   4.581   8.094   1.001  0.1202 -1.4723 -0.9005
36489SOL     OW11473   1.461   1.904   9.960  0.1415  0.3144 -0.0441
36489SOL    HW111474   1.456   1.992   9.923  1.4605  1.0835  1.4794
36489SOL    HW211475   1.551   1.876   9.944 -0.0244 -0.4166  0.2398
36490SOL     OW11476   4.299   1.675   7.584 -0.0458 -0.4406  0.5017
36490SOL    HW111477   4.334   1.596   7.543 -1.4386 -1.1086  0.5342
36490SOL    HW211478   4.280   1.734   7.511  0.8933 -0.1623  0.4705
36491SOL     OW11479   3.770   8.903   5.149 -0.1855  0.3063  0.2414
36491SOL    HW111480   3.719   8.834   5.107 -0.3065  0.3854  0.2610
36491SOL    HW211481   3.706   8.969   5.174 -0.8644 -1.5908  4.4273
36492SOL     OW11482   9.405   7.981   6.169  0.7483  0.1137  0.1521
36492SOL    HW111483   9.391   7.896   6.210 -0.9776 -1.5161 -3.3705
36492SOL    HW211484   9.499   7.984   6.151  0.7074 -1.5586 -0.5268
36493SOL     OW11485   5.420   2.087   0.649 -0.1172  0.5663 -0.6927
36493SOL    HW111486   5.513   2.111   0.654 -0.8391  3.6697  0.0322
36493SOL    HW211487   5.405   2.031   0.725  1.5292 -1.7344 -1.9622
36494SOL     OW11488   8.866   0.982   4.653 -0.1942  0.2655 -0.3843
36494SOL    HW111489   8.859   1.076   4.670  0.7653  0.7806 -2.4719
36494SOL    HW211490   8.901   0.977   4.564 -3.2752 -2.0962 -1.6352
36495SOL     OW11491   6.399   3.385   6.382  0.5962  0.6842 -0.3608
36495SOL    HW111492   6.443   3.452   6.434  0.3208 -0.5828  1.6251
36495SOL    HW211493   6.342   3.340   6.444  1.2069 -1.7616 -1.4483
36496SOL     OW11494   6.647   6.298   0.963  0.1080 -0.1766 -0.3573
36496SOL    HW111495   6.624   6.384   0.999  1.7692  0.2574 -0.2673
36496SOL    HW211496   6.685   6.250   1.036  1.3956 -0.1079 -0.9516
36497SOL     OW11497   4.774   1.289   3.742  0.2058 -0.5424 -0.2925
36497SOL    HW111498   4.787   1.277   3.648  0.3062 -1.1483 -0.2044
36497SOL    HW211499   4.752   1.382   3.751 -1.3592 -0.7980 -1.0971
36498SOL     OW11500   3.307   3.038   2.049  0.2780 -0.4680  0.1729
36498SOL    HW111501   3.237   2.973   2.053 -1.8365  1.7269  2.7199
36498SOL    HW211502   3.351   3.031   2.134 -1.7422  2.9808  1.7221
36499SOL     OW11503  10.518   6.707   9.118 -0.0855 -0.4871  0.0790
36499SOL    HW111504  10.568   6.627   9.101  0.3872 -0.4788  1.3151
36499SOL    HW211505  10.543   6.733   9.207  0.6002  1.6462 -0.6768
36500SOL     OW11506   5.731   4.840   0.893 -0.1462  0.0864  0.0129
36500SOL    HW111507   5.783   4.839   0.812 -2.1200 -1.1908 -1.3508
36500SOL    HW211508   5.700   4.750   0.902 -0.7664  0.4352  1.6866
36501SOL     OW11509   0.934   8.057  10.111  0.0617  0.4930  0.3882
36501SOL    HW111510   0.971   7.998  10.045 -0.6087  1.1004 -0.5602
36501SOL    HW211511   1.010   8.088  10.160  0.5377 -0.2587  0.1479
36502SOL     OW11512   0.488   2.909   9.779  0.0979 -0.0855 -0.1223
36502SOL    HW111513   0.417   2.847   9.794  1.9294 -2.5492 -0.9980
36502SOL    HW211514   0.448   2.995   9.795 -2.7396 -1.3890  0.4980
36503SOL     OW11515   1.867   3.244  10.714  0.2002  0.2239  0.0232
36503SOL    HW111516   1.786   3.291  10.696  0.2411  0.2571 -0.0712
36503SOL    HW211517   1.853   3.157  10.677  0.0682  0.1125  0.3270
36504SOL     OW11518   0.840   5.930   3.366  0.0159 -0.0421  0.1392
36504SOL    HW111519   0.796   6.015   3.376  0.1182  0.1685 -0.9901
36504SOL    HW211520   0.926   5.942   3.406  0.6673  0.9443 -1.4666
36505SOL     OW11521   1.362   4.347   9.141 -0.0323 -0.1966  0.1471
36505SOL    HW111522   1.377   4.324   9.049 -0.1362 -0.2295  0.1369
36505SOL    HW211523   1.369   4.263   9.188 -1.0456 -0.3632  0.0278
36506SOL     OW11524  10.595  10.236   7.249  0.1608  0.2516 -0.2193
36506SOL    HW111525  10.614  10.205   7.161  0.5577  0.7982 -0.3355
36506SOL    HW211526  10.677  10.277   7.278 -0.3640  1.2825 -0.1283
36507SOL     OW11527  10.061   0.909   4.105 -0.2314 -0.4112  0.3401
36507SOL    HW111528  10.011   0.955   4.173  1.5128 -0.3947  1.7045
36507SOL    HW211529  10.040   0.817   4.118 -2.0336 -0.2230 -0.9579
36508SOL     OW11530   5.567   7.301   0.871 -0.3871  0.4649  0.1423
36508SOL    HW111531   5.555   7.340   0.784  0.3069  0.6362  0.1183
36508SOL    HW211532   5.585   7.208   0.853  3.6652  1.1385 -0.2110
36509SOL     OW11533   6.781  10.294   9.811  0.5789  0.5469 -0.1079
36509SOL    HW111534   6.732  10.216   9.840 -1.3185  1.2210 -1.2823
36509SOL    HW211535   6.793  10.345   9.890  0.1180 -0.0488  0.3605
36510SOL     OW11536   1.892   5.770   9.378  0.4540 -0.5529 -0.2539
36510SOL    HW111537   1.908   5.802   9.467  3.0859 -0.1372 -0.7870
36510SOL    HW211538   1.832   5.833   9.340  0.0235 -0.2170  0.9342
36511SOL     OW11539   8.286   7.600   7.523  0.4131  0.1653  0.1348
36511SOL    HW111540   8.213   7.633   7.575  0.1546 -0.8006  0.4086
36511SOL    HW211541   8.257   7.610   7.432  0.8911  1.9169  0.1351
36512SOL     OW11542   5.843   6.830   8.634  0.1892  0.4407  0.6122
36512SOL    HW111543   5.752   6.817   8.607  0.6538 -1.0766 -0.3789
36512SOL    HW211544   5.870   6.910   8.590 -0.0707 -0.2359 -0.8522
36513SOL     OW11545   8.697   1.978   6.692  0.1855 -0.1293  0.1698
36513SOL    HW111546   8.712   1.884   6.693  0.0749 -0.2027 -1.7141
36513SOL    HW211547   8.638   1.993   6.766 -0.5409 -1.6780 -0.0463
36514SOL     OW11548   8.966   5.697   7.726 -0.3093 -0.4755  0.1017
36514SOL    HW111549   8.961   5.725   7.634 -0.6503 -2.3867 -0.5220
36514SOL    HW211550   9.021   5.762   7.768 -1.0869  1.0975 -1.1933
36515SOL     OW11551   1.385   0.787   2.753 -0.1623 -0.4447  0.1443
36515SOL    HW111552   1.456   0.831   2.799 -1.0979  0.0113  1.1925
36515SOL    HW211553   1.403   0.694   2.767 -0.6756 -0.3254  1.9016
36516SOL     OW11554   1.033   9.200   5.133 -0.6608 -0.0182  0.3360
36516SOL    HW111555   1.054   9.132   5.197  1.7024  0.9410  0.6860
36516SOL    HW211556   1.030   9.154   5.049 -1.8583 -0.9660  0.8779
36517SOL     OW11557   8.120   5.326  10.491  0.4076 -0.0106  0.6070
36517SOL    HW111558   8.053   5.284  10.546 -0.6340  0.1656 -0.4864
36517SOL    HW211559   8.119   5.275  10.410  0.0488  1.3023 -0.2385
36518SOL     OW11560   9.647   5.516   1.402  0.1028  0.0378  0.4381
36518SOL    HW111561   9.591   5.451   1.359 -1.4590  0.8287  1.1840
36518SOL    HW211562   9.640   5.496   1.495  0.4053  0.6533  0.6007
36519SOL     OW11563  10.541   6.681   8.487 -0.3314  0.5360  0.3765
36519SOL    HW111564  10.614   6.733   8.454  1.2925 -1.1416  1.1428
36519SOL    HW211565  10.562   6.666   8.579  0.7028 -3.5287 -0.3061
36520SOL     OW11566   7.638   4.025   0.322 -0.8402 -0.3616 -0.0468
36520SOL    HW111567   7.671   3.936   0.322 -2.4460 -1.0107 -1.5118
36520SOL    HW211568   7.606   4.039   0.412  1.9719 -0.1771  1.0181
36521SOL     OW11569   4.034   5.660   6.658 -0.2909 -0.0655 -0.3468
36521SOL    HW111570   4.066   5.617   6.737 -1.4633 -0.7545 -0.2260
36521SOL    HW211571   3.964   5.717   6.689 -1.1108 -0.7291 -0.9385
36522SOL     OW11572   3.782   9.415   7.170  0.6552  0.0005 -1.0129
36522SOL    HW111573   3.856   9.384   7.118 -0.0331 -1.5618 -1.1357
36522SOL    HW211574   3.735   9.335   7.195 -1.0046  0.9272 -0.9637
36523SOL     OW11575  10.458   7.986   6.572 -0.3165  0.3048  0.2693
36523SOL    HW111576  10.465   8.061   6.630  2.5297  0.0565  0.4176
36523SOL    HW211577  10.524   7.924   6.605 -0.2891 -0.8429 -1.7650
36524SOL     OW11578   9.357   6.045   3.771  0.0966  0.4010  0.2705
36524SOL    HW111579   9.331   6.060   3.862  0.1118  0.8032  0.2123
36524SOL    HW211580   9.436   6.098   3.760  0.6069 -0.3372  0.2721
36525SOL     OW11581   4.706   9.865   7.928  0.0372 -0.2035  0.5034
36525SOL    HW111582   4.729   9.843   8.018  1.1050  1.9943  0.8454
36525SOL    HW211583   4.788   9.860   7.880 -0.2784 -0.0723 -0.0579
36526SOL     OW11584   6.646   4.430   5.688  0.5258 -0.3545  0.4540
36526SOL    HW111585   6.620   4.340   5.704  1.2154 -0.2467  2.5257
36526SOL    HW211586   6.606   4.479   5.759  0.7413  0.8728 -0.2392
36527SOL     OW11587   7.611   5.381  10.554 -0.5083 -0.1692 -0.1749
36527SOL    HW111588   7.682   5.376  10.618  1.0530 -1.3400 -1.9182
36527SOL    HW211589   7.548   5.316  10.584  0.6945 -1.4638 -0.3475
36528SOL     OW11590   7.272   0.606   6.560 -0.3564 -0.1774  0.3724
36528SOL    HW111591   7.249   0.645   6.644 -1.3032 -0.3537  0.2145
36528SOL    HW211592   7.302   0.679   6.506 -0.7669  0.1089  0.5281
36529SOL     OW11593   7.352   1.532   5.780 -0.4018  0.1803 -0.3932
36529SOL    HW111594   7.308   1.613   5.805  0.7134  0.4934  0.6642
36529SOL    HW211595   7.444   1.558   5.766 -0.1783 -0.7662 -0.7798
36530SOL     OW11596   8.181   4.914   1.941  0.0438 -0.3566  0.1153
36530SOL    HW111597   8.096   4.913   1.897 -0.3257 -0.2491  0.8136
36530SOL    HW211598   8.220   4.829   1.920 -1.2892 -1.4477  1.7822
36531SOL     OW11599   5.501  10.146   0.431  0.1530 -0.3441 -0.0375
36531SOL    HW111600   5.428  10.154   0.369  1.7889  0.2207 -1.9926
36531SOL    HW211601   5.470  10.189   0.511 -1.7883 -0.4948 -0.6636
36532SOL     OW11602   3.071   4.610  10.590 -0.5279 -0.9330  0.1929
36532SOL    HW111603   3.049   4.572  10.505  0.5816 -2.4689  0.5504
36532SOL    HW211604   3.082   4.704  10.573  0.4787 -1.3276 -1.5383
36533SOL     OW11605   7.396  10.207   4.161 -0.4953  0.3186 -0.5306
36533SOL    HW111606   7.362  10.221   4.072 -0.8487  0.3242 -0.3990
36533SOL    HW211607   7.363  10.120   4.185  1.0260 -0.4330 -1.0462
36534SOL     OW11608   8.104   9.319   5.371 -0.0975 -0.1227  0.2754
36534SOL    HW111609   8.081   9.312   5.278 -2.1682 -0.1481  0.7530
36534SOL    HW211610   8.076   9.407   5.396  0.6738 -0.0276  0.8337
36535SOL     OW11611   3.277   9.948   2.918 -0.0815 -0.2473 -0.0254
36535SOL    HW111612   3.368   9.971   2.902  0.2078 -1.5481 -0.4412
36535SOL    HW211613   3.266   9.954   3.013  0.1597  0.8332 -0.0568
36536SOL     OW11614   1.260   0.435  10.679  0.6844 -0.0768  0.1833
36536SOL    HW111615   1.293   0.523  10.694 -0.6232  0.9818 -2.6096
36536SOL    HW211616   1.165   0.442  10.687  0.5729 -1.2938  0.1708
36537SOL     OW11617   1.361   6.934   8.650 -0.5528  0.2707 -0.3617
36537SOL    HW111618   1.289   6.977   8.697  0.8793  2.1778  0.2235
36537SOL    HW211619   1.440   6.970   8.690  0.7370 -0.9089 -1.7500
36538SOL     OW11620   3.431   1.857   4.300 -0.1644 -0.2249 -0.0584
36538SOL    HW111621   3.374   1.811   4.362  0.3768 -0.6043  0.1608
36538SOL    HW211622   3.517   1.856   4.341  0.2826 -0.8240 -0.9792
36539SOL     OW11623   6.740   2.713   6.747  0.5990  0.8750 -0.6908
36539SOL    HW111624   6.765   2.805   6.742  0.8260  0.8382 -0.2423
36539SOL    HW211625   6.823   2.665   6.743  0.6978  0.7765  1.4353
36540SOL     OW11626   5.800   8.086   3.381 -0.4699  0.3380 -0.4931
36540SOL    HW111627   5.808   8.169   3.428  0.4153 -0.2296  0.4106
36540SOL    HW211628   5.786   8.020   3.449  3.1199 -0.8336 -0.6370
36541SOL     OW11629   8.646  10.832   9.477  0.4796 -0.2127  0.2642
36541SOL    HW111630   8.598  10.884   9.541  0.3778  0.9905 -0.7551
36541SOL    HW211631   8.604  10.853   9.393  0.8811 -1.4261 -0.2655
36542SOL     OW11632   4.291   5.756   9.946 -0.1006  0.1974  0.4522
36542SOL    HW111633   4.325   5.699  10.014 -0.7658  1.4750  1.9234
36542SOL    HW211634   4.197   5.738   9.943  0.2128 -1.4731 -1.7854
36543SOL     OW11635  10.670   8.150  10.687  0.4064 -0.0091  0.0304
36543SOL    HW111636  10.672   8.075  10.747  0.9657 -0.3323 -0.3811
36543SOL    HW211637  10.628   8.220  10.737  1.7043  0.0241  1.1520
36544SOL     OW11638   6.557   1.865   5.865 -0.1037  0.0915 -0.2227
36544SOL    HW111639   6.605   1.843   5.785  1.0820  1.0173  0.2092
36544SOL    HW211640   6.469   1.888   5.835 -0.0433 -0.7923 -1.1217
36545SOL     OW11641  10.501  10.895   3.406 -0.3199 -0.2865  0.2670
36545SOL    HW111642  10.438  10.902   3.477 -0.2779  1.0432  0.2075
36545SOL    HW211643  10.453  10.922   3.328  0.5894  2.0600  0.4225
36546SOL     OW11644  10.781   7.229   8.865  0.1075  0.1654  0.5712
36546SOL    HW111645  10.811   7.296   8.927  2.0919  0.9846 -1.1422
36546SOL    HW211646  10.788   7.272   8.780  1.2928 -2.1335 -0.5776
36547SOL     OW11647   9.993   5.268   7.017 -0.1581 -0.7532 -0.4254
36547SOL    HW111648  10.074   5.268   7.068 -1.8187 -1.0037  2.4215
36547SOL    HW211649   9.990   5.354   6.976  0.0866  0.4974  2.0169
36548SOL     OW11650  10.044   8.591   9.316  0.0514  0.0263  0.2589
36548SOL    HW111651   9.996   8.557   9.392  1.4535  2.0372  2.1899
36548SOL    HW211652  10.028   8.685   9.318  1.6725  0.3709 -0.8124
36549SOL     OW11653  10.254   6.374   7.366 -0.0368  0.3598  0.2209
36549SOL    HW111654  10.347   6.376   7.391 -0.0195  1.9143  0.1533
36549SOL    HW211655  10.255   6.369   7.271 -0.0142  0.3636  0.2210
36550SOL     OW11656   5.344  10.121   2.855  0.4075 -0.3827  0.0213
36550SOL    HW111657   5.307  10.105   2.768 -0.6973  0.4106  0.3281
36550SOL    HW211658   5.303  10.203   2.884  0.6966 -0.6750  1.3265
36551SOL     OW11659   2.166   7.452   4.408  0.4589 -0.1793 -0.1164
36551SOL    HW111660   2.210   7.473   4.326 -1.2250  0.0578 -0.9872
36551SOL    HW211661   2.073   7.447   4.386 -0.0175 -0.3424  1.7328
36552SOL     OW11662   9.965  10.037   8.939 -0.0918 -0.1308 -0.8409
36552SOL    HW111663   9.956  10.125   8.977 -0.7218  0.5522 -2.4741
36552SOL    HW211664   9.883  10.023   8.892 -0.5276 -2.1552  0.4071
36553SOL     OW11665   3.609   7.988   4.406  0.1327 -0.6108  0.2196
36553SOL    HW111666   3.591   7.982   4.313 -0.4145 -0.6241  0.3243
36553SOL    HW211667   3.523   7.992   4.448  0.3728  0.6758  0.6394
36554SOL     OW11668   6.841   2.577   2.655 -0.3993 -0.4873 -0.0591
36554SOL    HW111669   6.821   2.616   2.740 -0.6678  0.2696 -0.4610
36554SOL    HW211670   6.864   2.651   2.599 -1.6908 -0.8066 -1.0553
36555SOL     OW11671   1.902   2.370   8.326  0.1578  0.3519 -0.5371
36555SOL    HW111672   1.893   2.298   8.388  0.3016  1.0124  0.2680
36555SOL    HW211673   1.854   2.442   8.366 -1.2083  0.3005 -2.0118
36556SOL     OW11674   7.809   1.784  10.090  0.2067  0.2101 -0.9884
36556SOL    HW111675   7.751   1.774  10.014 -1.4384  2.1710 -0.0801
36556SOL    HW211676   7.850   1.869  10.079  1.5105 -0.3444 -0.6449
36557SOL     OW11677   7.225   9.963   4.998  0.1131 -0.4414  0.2540
36557SOL    HW111678   7.316   9.950   4.971 -0.2341 -1.5297 -0.4615
36557SOL    HW211679   7.223   9.939   5.091  0.4638 -0.8745  0.1523
36558SOL     OW11680   2.277   2.616  10.765 -0.3232  0.0547  0.1609
36558SOL    HW111681   2.247   2.689  10.819 -1.2627  0.5009 -0.9275
36558SOL    HW211682   2.255   2.642  10.676  1.4292 -0.5411 -0.4964
36559SOL     OW11683   5.763   8.265   6.862 -0.4556  0.1878 -0.0746
36559SOL    HW111684   5.688   8.209   6.843  0.4154 -1.7854  1.9303
36559SOL    HW211685   5.834   8.231   6.807 -0.0318 -0.4597  0.8511
36560SOL     OW11686   3.698   9.073   3.427 -0.0740  0.0668  0.4355
36560SOL    HW111687   3.669   9.160   3.399 -1.5772 -1.0621 -1.7350
36560SOL    HW211688   3.749   9.040   3.354 -0.6647 -1.3910  0.6572
36561SOL     OW11689   0.695   7.631   2.840 -0.0537  0.7711  0.8492
36561SOL    HW111690   0.606   7.624   2.804 -0.1309  3.8576  0.0938
36561SOL    HW211691   0.752   7.615   2.765 -0.0064  0.2974  0.9843
36562SOL     OW11692   7.957   6.123   8.514  0.0583  0.1546  0.2096
36562SOL    HW111693   7.874   6.080   8.535  0.2718 -0.5564 -0.3702
36562SOL    HW211694   8.008   6.117   8.594 -0.0592 -0.3389  0.2504
36563SOL     OW11695   4.620   3.943  10.177 -0.1655 -0.1174  0.0260
36563SOL    HW111696   4.562   3.890  10.122 -0.4946  1.3772 -1.1351
36563SOL    HW211697   4.698   3.955  10.124 -1.3751  3.2911 -1.2582
36564SOL     OW11698   6.458   9.444   3.461 -0.1574 -0.4211 -0.4800
36564SOL    HW111699   6.489   9.502   3.391 -0.0576  0.5231  0.3346
36564SOL    HW211700   6.410   9.375   3.415 -0.9992  0.7447 -1.4196
36565SOL     OW11701   1.856   9.370   9.740  0.3354 -0.0380  0.0004
36565SOL    HW111702   1.910   9.337   9.669  0.2072  0.1396 -0.1796
36565SOL    HW211703   1.919   9.400   9.806  0.4662 -1.6499  0.6512
36566SOL     OW11704   8.396   8.141   1.380 -0.3453  0.2251  0.0676
36566SOL    HW111705   8.422   8.049   1.375 -0.4380 -0.1060  3.4049
36566SOL    HW211706   8.478   8.189   1.389 -0.3224  0.4499 -1.2233
36567SOL     OW11707   4.265   9.866   2.751 -0.0830 -0.6249 -0.0784
36567SOL    HW111708   4.239   9.948   2.710  0.4355 -1.3147 -1.8530
36567SOL    HW211709   4.196   9.850   2.816 -0.6031  0.8101 -0.2297
36568SOL     OW11710   0.398  10.459   1.973  0.0974  0.3829  0.5409
36568SOL    HW111711   0.334  10.472   1.903 -0.0604 -1.1025  0.3923
36568SOL    HW211712   0.420  10.548   2.001 -0.0069  1.0130 -1.2295
36569SOL     OW11713   8.710   5.479   3.399  0.0318 -0.4359 -0.9117
36569SOL    HW111714   8.689   5.486   3.306 -0.4695  1.2401 -0.7055
36569SOL    HW211715   8.628   5.497   3.445  0.6852  0.8149 -0.1501
36570SOL     OW11716   7.196   4.093   5.987 -0.2263  0.1466 -0.1043
36570SOL    HW111717   7.245   4.015   5.959  0.6047 -0.2835  2.3262
36570SOL    HW211718   7.104   4.070   5.975 -0.0010 -1.3194  0.7757
36571SOL     OW11719   8.322  10.860   4.382 -0.0151 -0.2394 -0.3049
36571SOL    HW111720   8.303  10.926   4.316 -1.3387 -1.5703 -1.3334
36571SOL    HW211721   8.400  10.815   4.350 -0.4698 -0.6752 -0.8166
36572SOL     OW11722   1.509   3.189   8.905  0.1258 -0.1515 -0.3469
36572SOL    HW111723   1.443   3.237   8.854 -0.2263 -1.2837 -0.9836
36572SOL    HW211724   1.458   3.141   8.971  0.5257  0.7830  0.6750
36573SOL     OW11725  10.287   5.065   0.704  0.2478  0.1476  0.1809
36573SOL    HW111726  10.346   4.993   0.725  0.2895  0.4497  1.1495
36573SOL    HW211727  10.264   5.051   0.612  0.7343 -0.7500  0.1838
36574SOL     OW11728   0.851   0.112   8.825 -0.2607  0.2336  0.0260
36574SOL    HW111729   0.860   0.153   8.739 -1.5782 -0.1340 -0.3075
36574SOL    HW211730   0.875   0.020   8.811  0.0091  0.2805  0.1677
36575SOL     OW11731   7.806   4.916   9.915 -0.0990 -0.0098  0.4531
36575SOL    HW111732   7.728   4.945   9.963 -1.7765 -1.9543 -0.9283
36575SOL    HW211733   7.810   4.973   9.838  0.6098  0.8816  1.1215
36576SOL     OW11734   3.540   8.345   5.716 -0.1225  0.3090 -0.5304
36576SOL    HW111735   3.537   8.407   5.789 -0.0395  2.7101 -2.4261
36576SOL    HW211736   3.459   8.295   5.724  0.3598 -0.2255  1.7386
36577SOL     OW11737   8.210   9.073  10.003 -0.1191  0.2125  0.5344
36577SOL    HW111738   8.192   9.097  10.094  1.0008 -1.3412  1.2092
36577SOL    HW211739   8.126   9.045   9.968 -0.2941 -0.6467  1.5873
36578SOL     OW11740   1.732   5.301   3.792  0.5235 -0.0469 -0.0804
36578SOL    HW111741   1.753   5.393   3.774  1.7056 -0.1121  0.8606
36578SOL    HW211742   1.809   5.267   3.837  1.3325 -2.2774 -2.8127
36579SOL     OW11743  10.054   1.993   1.952  0.5208  0.1418 -0.0620
36579SOL    HW111744  10.016   2.039   1.877 -1.1944 -0.5436  0.3223
36579SOL    HW211745  10.046   2.054   2.025 -0.6504 -0.2927  0.1926
36580SOL     OW11746  11.010   0.985   6.362  0.3311  0.5816 -0.0697
36580SOL    HW111747  10.941   0.927   6.330 -0.9586  2.1753 -0.2692
36580SOL    HW211748  10.967   1.041   6.426  1.0108  2.7417 -1.4047
36581SOL     OW11749  10.566   7.617   2.506 -0.1292 -0.1721  0.3811
36581SOL    HW111750  10.486   7.654   2.543 -0.1536  0.1571  0.0140
36581SOL    HW211751  10.540   7.587   2.419  0.3109  0.6216 -0.0369
36582SOL     OW11752   8.325   9.484   6.671  0.8162 -0.0769  0.0776
36582SOL    HW111753   8.332   9.571   6.712  0.0048  0.1021 -0.1543
36582SOL    HW211754   8.266   9.497   6.597 -0.4389 -1.1071  0.8487
36583SOL     OW11755  10.579   2.438  11.019  0.8140 -0.6357  0.3550
36583SOL    HW111756  10.610   2.447  11.109  0.2675  0.7443  0.4220
36583SOL    HW211757  10.509   2.503  11.010  0.2098 -1.4076 -0.7878
36584SOL     OW11758   9.556   9.500   0.391 -0.4351 -0.5328 -0.6416
36584SOL    HW111759   9.487   9.434   0.391 -0.7030 -0.2592 -1.1799
36584SOL    HW211760   9.636   9.452   0.373 -0.4443 -0.8862  0.2023
36585SOL     OW11761   3.755   0.793   7.195 -0.2649  0.3934  0.2261
36585SOL    HW111762   3.770   0.822   7.105 -0.1260  1.2934  0.5196
36585SOL    HW211763   3.816   0.721   7.208  1.2260  1.5887  0.2222
36586SOL     OW11764   8.634   9.479   5.435 -0.0345 -0.0773  0.0053
36586SOL    HW111765   8.563   9.421   5.464 -0.8511  0.6862 -0.4314
36586SOL    HW211766   8.670   9.515   5.516 -0.1399 -0.4802  0.2308
36587SOL     OW11767   4.538   0.339   7.858  0.1754  0.2396 -0.5783
36587SOL    HW111768   4.449   0.351   7.889  0.8659  0.3906  1.4448
36587SOL    HW211769   4.581   0.288   7.926  1.6212  0.0460 -1.5788
36588SOL     OW11770  10.470   5.942   6.351  0.2820  0.5342 -0.2668
36588SOL    HW111771  10.477   5.878   6.280  0.9735 -0.7346  0.8880
36588SOL    HW211772  10.486   6.026   6.309  1.4093 -0.2518 -1.5086
36589SOL     OW11773   3.024   2.150   3.851  0.1512  0.6538 -0.1370
36589SOL    HW111774   3.018   2.130   3.757  0.1730  2.2984 -0.5098
36589SOL    HW211775   3.117   2.161   3.867  0.1440  0.4000  0.0865
36590SOL     OW11776   2.363   1.750   8.853  0.4829  0.3145  0.1184
36590SOL    HW111777   2.404   1.664   8.844 -0.7007 -0.1483 -1.3560
36590SOL    HW211778   2.435   1.809   8.872  1.7874 -0.5583 -1.7444
36591SOL     OW11779  10.205   4.861   7.887 -0.4025  0.2173  0.4355
36591SOL    HW111780  10.269   4.916   7.842 -0.4311 -0.8201 -0.9187
36591SOL    HW211781  10.130   4.918   7.902 -0.1595  0.7330 -0.2905
36592SOL     OW11782   1.138   8.217  10.654  0.4464  0.2254  0.3911
36592SOL    HW111783   1.230   8.230  10.628  0.4453 -1.5146 -0.6472
36592SOL    HW211784   1.134   8.247  10.745  2.1262  0.0345  0.5609
36593SOL     OW11785   7.649   4.357  10.147  0.1365 -0.3930  0.3494
36593SOL    HW111786   7.716   4.412  10.187 -3.0240  3.2183  1.2678
36593SOL    HW211787   7.697   4.284  10.108  4.3412  1.1202  2.1815
36594SOL     OW11788   8.889  10.528   2.328  0.9033  0.0287  0.1015
36594SOL    HW111789   8.882  10.624   2.322 -0.0249  0.0284  1.0050
36594SOL    HW211790   8.900  10.500   2.237  0.7730  0.9613 -0.2190
36595SOL     OW11791   5.418   8.448   8.687 -0.2985  0.0724 -0.2444
36595SOL    HW111792   5.363   8.505   8.633  1.3100  2.2669  0.3021
36595SOL    HW211793   5.508   8.478   8.670  0.4090 -0.4473  2.1699
36596SOL     OW11794   0.975   2.622   6.953 -0.3832  0.1876 -0.9731
36596SOL    HW111795   0.957   2.602   6.861  0.0594 -1.6446 -0.6977
36596SOL    HW211796   1.068   2.646   6.954  0.1431 -1.7194 -0.7625
36597SOL     OW11797   8.249   3.682   9.120  0.0800  0.3546 -0.4125
36597SOL    HW111798   8.333   3.720   9.147  0.5789 -1.2803  0.4530
36597SOL    HW211799   8.273   3.604   9.069 -0.9162 -0.0766 -0.2432
36598SOL     OW11800   3.459  10.580   3.841  0.8534 -0.4475 -0.2564
36598SOL    HW111801   3.380  10.527   3.829 -0.2089  1.1418 -0.7183
36598SOL    HW211802   3.434  10.666   3.807  2.1151  0.6693  1.5225
36599SOL     OW11803   2.235  10.613   5.779  0.7576  0.2241 -0.1927
36599SOL    HW111804   2.164  10.549   5.777  0.5309  0.5044 -1.3076
36599SOL    HW211805   2.315  10.560   5.769  0.6829 -0.0293  0.4820
36600SOL     OW11806   4.509   6.685   6.289 -0.7539  0.2352  0.8523
36600SOL    HW111807   4.439   6.650   6.234 -0.6436 -0.5160  1.1759
36600SOL    HW211808   4.542   6.609   6.336 -0.1199  0.6897  1.1480
36601SOL     OW11809   8.772   0.314   6.757  0.3474  0.4119  0.1673
36601SOL    HW111810   8.785   0.402   6.792 -1.0033  0.1167  1.5332
36601SOL    HW211811   8.742   0.263   6.832  2.4428 -1.5884 -0.2656
36602SOL     OW11812   8.106   8.392   2.257 -0.0929  0.2137  0.6123
36602SOL    HW111813   8.091   8.297   2.256  0.0044  0.1862 -1.2415
36602SOL    HW211814   8.202   8.401   2.260  0.1441  0.1235 -2.7941
36603SOL     OW11815   8.791   7.092   6.492 -0.2214  0.3143 -0.1425
36603SOL    HW111816   8.848   7.169   6.484  1.6964 -1.0003  0.0003
36603SOL    HW211817   8.749   7.103   6.577 -0.3248  1.4184 -0.3170
36604SOL     OW11818   0.327   8.069   7.763 -0.0580 -0.0237 -0.1091
36604SOL    HW111819   0.365   8.022   7.838  2.6340 -2.1281 -2.5346
36604SOL    HW211820   0.343   8.162   7.782 -1.2736 -0.2949  2.7147
36605SOL     OW11821   3.878   3.962  11.039 -0.2277  0.3201  0.3311
36605SOL    HW111822   3.919   4.014  10.969 -2.1073  0.1169 -1.0131
36605SOL    HW211823   3.945   3.956  11.107  0.3740  3.8446  0.2610
36606SOL     OW11824   7.010   8.462   7.479 -0.7757  0.3328 -0.1614
36606SOL    HW111825   6.997   8.416   7.396 -0.3554  0.1138 -0.1112
36606SOL    HW211826   6.976   8.402   7.546  2.9023 -1.5604  0.2675
36607SOL     OW11827   4.090   1.507   5.001  0.4425 -0.4656  0.2051
36607SOL    HW111828   3.996   1.520   4.986  0.7731  0.7380 -1.0556
36607SOL    HW211829   4.122   1.593   5.027  1.2763 -0.7721  0.2159
36608SOL     OW11830   3.849   9.224   2.426  0.0648  0.2327  0.1007
36608SOL    HW111831   3.781   9.173   2.469  0.6372  0.0251  0.7771
36608SOL    HW211832   3.821   9.228   2.334  0.8450 -2.8264 -0.4018
36609SOL     OW11833   7.873   3.292   0.515 -0.4379 -0.8470  0.4931
36609SOL    HW111834   7.812   3.218   0.509 -0.6817 -0.7002  1.1397
36609SOL    HW211835   7.955   3.254   0.543 -0.6808 -0.8159  1.2593
36610SOL     OW11836   0.925   0.131  10.474  0.7959 -0.1823  0.6830
36610SOL    HW111837   0.922   0.086  10.390 -0.6082  0.7791  0.1758
36610SOL    HW211838   1.018   0.137  10.495  1.2548  0.5468 -1.3420
36611SOL     OW11839   9.757   9.842   5.619  0.0597  0.2218 -0.6675
36611SOL    HW111840   9.766   9.936   5.638  1.4300 -0.2983  1.6773
36611SOL    HW211841   9.671   9.819   5.656  1.1677 -0.0403  1.9875
36612SOL     OW11842   4.738   5.511   4.428  0.1417  0.2322 -0.0152
36612SOL    HW111843   4.703   5.491   4.515  1.3641  1.2271  0.7315
36612SOL    HW211844   4.741   5.426   4.383 -0.6276 -0.2686  0.8617
36613SOL     OW11845   0.414   0.175   1.148 -0.3685 -0.1272 -0.0681
36613SOL    HW111846   0.341   0.231   1.119 -0.6774 -0.7139 -0.4410
36613SOL    HW211847   0.490   0.210   1.102 -0.5964 -0.1330 -0.4567
36614SOL     OW11848   5.698   7.842   2.154 -0.5895 -0.2346 -0.2307
36614SOL    HW111849   5.776   7.802   2.193 -1.3246 -1.0541  0.4187
36614SOL    HW211850   5.704   7.820   2.061 -0.8842 -1.7328  0.0828
36615SOL     OW11851   1.596   0.609   9.262  0.1574  0.3071 -0.3278
36615SOL    HW111852   1.608   0.525   9.307 -1.2857 -0.0908 -0.6392
36615SOL    HW211853   1.566   0.668   9.331  1.0045  0.5266 -0.1437
36616SOL     OW11854   0.066   0.532   5.934 -0.6477  0.2052 -0.3766
36616SOL    HW111855   0.137   0.528   5.998 -0.3389  1.6122 -0.5946
36616SOL    HW211856   0.097   0.479   5.861 -0.4952 -0.4547  0.1608
36617SOL     OW11857   7.369   3.128   5.869 -0.1757  0.2752 -0.5820
36617SOL    HW111858   7.329   3.214   5.864 -0.1604  0.2836 -0.5607
36617SOL    HW211859   7.391   3.116   5.962 -1.2854 -0.2614 -0.3749
36618SOL     OW11860   8.913   2.288   0.063  0.3459  0.4984  0.0211
36618SOL    HW111861   8.905   2.330   0.149  1.3737  0.1248  0.3135
36618SOL    HW211862   8.991   2.327   0.024  1.3749 -1.1623  0.3394
36619SOL     OW11863   2.776  10.443   6.176 -0.2073  0.3761  0.4636
36619SOL    HW111864   2.687  10.435   6.212 -0.2001  0.5725  0.5286
36619SOL    HW211865   2.830  10.387   6.232 -0.4003 -0.2480  0.0303
36620SOL     OW11866   1.592  10.712   9.358 -0.2431 -0.2134 -0.2482
36620SOL    HW111867   1.652  10.708   9.433  1.7118 -0.3936 -1.7262
36620SOL    HW211868   1.593  10.804   9.332 -0.6285 -0.2161 -0.2670
36621SOL     OW11869   1.964   2.214  10.572 -0.3050  0.5973  0.8372
36621SOL    HW111870   2.043   2.183  10.616  1.0091  1.6503 -0.6967
36621SOL    HW211871   1.964   2.168  10.488  1.4455  4.1458 -1.3185
36622SOL     OW11872   0.474   4.262   7.936  0.0412  0.1498  0.1898
36622SOL    HW111873   0.394   4.217   7.965 -0.8166  0.1155 -2.0803
36622SOL    HW211874   0.481   4.337   7.996 -0.0467 -1.4097  2.2515
36623SOL     OW11875   7.789   8.185   8.566  0.2735 -0.0081 -0.2268
36623SOL    HW111876   7.748   8.190   8.653 -0.8395 -3.2627 -0.4072
36623SOL    HW211877   7.715   8.178   8.506  1.0586  0.0242 -1.2099
36624SOL     OW11878   8.260   0.257  10.357  0.0258 -0.6671 -0.2127
36624SOL    HW111879   8.211   0.211  10.425  0.5800 -3.6296 -1.6654
36624SOL    HW211880   8.340   0.286  10.400  0.7720 -3.2640  0.3292
36625SOL     OW11881   2.508   9.690   5.787  0.0668 -0.0658 -0.7567
36625SOL    HW111882   2.517   9.637   5.707 -0.5953 -0.7704 -0.3781
36625SOL    HW211883   2.436   9.649   5.835 -1.3687  1.9478 -1.0597
36626SOL     OW11884   9.967   3.065   9.686  0.1814  0.2542 -0.1523
36626SOL    HW111885   9.924   3.081   9.601 -1.6316 -1.8966  0.2614
36626SOL    HW211886  10.057   3.042   9.663  0.1908  1.3567 -1.3464
36627SOL     OW11887   9.940   2.513   8.181  0.0960 -0.5065 -0.2199
36627SOL    HW111888  10.005   2.517   8.251  1.0958 -0.5738 -1.1240
36627SOL    HW211889   9.951   2.426   8.144 -0.8136 -0.6765 -0.1143
36628SOL     OW11890  10.206  10.134   7.279 -0.3441 -0.3087 -0.1880
36628SOL    HW111891  10.155  10.140   7.360  1.3893  0.5433  0.8967
36628SOL    HW211892  10.158  10.071   7.225 -2.4262  0.3227  0.8251
36629SOL     OW11893   4.869   8.552   8.218  0.0676  0.4313 -0.4403
36629SOL    HW111894   4.926   8.479   8.193 -0.8043 -0.6884  0.6884
36629SOL    HW211895   4.790   8.541   8.164 -1.0060 -0.8478  1.2893
36630SOL     OW11896  10.333   7.417   6.815  0.0525  0.3112  0.2815
36630SOL    HW111897  10.380   7.393   6.895  0.8832  1.9472  0.3181
36630SOL    HW211898  10.401   7.421   6.747 -0.5971 -0.7741 -0.4624
36631SOL     OW11899  10.313   7.686   2.578  0.1471 -0.3481 -0.1906
36631SOL    HW111900  10.291   7.739   2.655 -1.0174  0.5574 -1.1139
36631SOL    HW211901  10.268   7.603   2.593  0.4385 -0.4096  0.3866
36632SOL     OW11902   2.780   5.922   9.016 -0.0986 -0.3066  0.1678
36632SOL    HW111903   2.767   5.930   9.110  1.2728  0.7882  0.2910
36632SOL    HW211904   2.837   5.995   8.993  0.0165 -0.8549 -1.4384
36633SOL     OW11905  10.595  10.978   0.859 -0.7868  0.0383 -0.3888
36633SOL    HW111906  10.668  11.028   0.824 -0.9387 -0.4040 -1.3656
36633SOL    HW211907  10.517  11.025   0.831 -0.9214 -0.5579 -1.0383
36634SOL     OW11908   7.749   6.604   9.947  0.1566  0.2344  0.3522
36634SOL    HW111909   7.818   6.658   9.986 -0.4527  2.5451 -1.5208
36634SOL    HW211910   7.676   6.612  10.009 -0.4759  3.0768 -0.5760
36635SOL     OW11911   6.220   7.296   3.552  0.3558  0.1238  0.1497
36635SOL    HW111912   6.262   7.342   3.625 -0.4124 -0.4609  0.9773
36635SOL    HW211913   6.277   7.221   3.535  0.8911  0.6241 -0.3058
36636SOL     OW11914   8.284   0.016   3.384 -0.0748 -0.7353 -0.1089
36636SOL    HW111915   8.342   0.062   3.445 -0.3339  0.3640 -0.6768
36636SOL    HW211916   8.263   0.081   3.316 -0.3946 -1.7085 -0.9695
36637SOL     OW11917   5.300   0.016   4.863 -0.2901 -0.3559 -0.6847
36637SOL    HW111918   5.206   0.000   4.867 -0.1798 -1.1688 -1.1074
36637SOL    HW211919   5.309   0.111   4.873 -1.0665 -0.3977  0.6115
36638SOL     OW11920   3.576  10.079   7.493  0.1645 -0.4262  0.0568
36638SOL    HW111921   3.602  10.167   7.465  2.1728 -1.0960 -0.3477
36638SOL    HW211922   3.566  10.030   7.411 -0.0097 -0.8110  0.3085
36639SOL     OW11923   6.805   6.478   3.087 -0.2607  0.4386 -0.1897
36639SOL    HW111924   6.821   6.496   2.994 -0.8638 -1.8380 -0.8187
36639SOL    HW211925   6.717   6.439   3.089 -0.3935  0.7505  1.3993
36640SOL     OW11926   3.568   1.480   7.392  0.0831  0.5789  0.0755
36640SOL    HW111927   3.481   1.480   7.351 -0.1444  1.1312  0.5411
36640SOL    HW211928   3.575   1.566   7.433  1.5631  1.2165 -1.4384
36641SOL     OW11929   4.870   9.658   2.136 -0.0803 -0.3291  0.2439
36641SOL    HW111930   4.798   9.600   2.161  0.4969 -0.9832  0.4128
36641SOL    HW211931   4.942   9.634   2.194  0.7357 -0.6991 -0.8911
36642SOL     OW11932  10.678   9.052   9.448  0.0758 -0.5796  0.1397
36642SOL    HW111933  10.682   9.017   9.359 -0.7401  2.4368 -1.2244
36642SOL    HW211934  10.764   9.091   9.463 -0.3492  0.4771 -0.0798
36643SOL     OW11935   3.883   3.452   8.710 -1.0541 -0.0625 -0.4818
36643SOL    HW111936   3.873   3.358   8.721  0.2126 -0.1530  0.1831
36643SOL    HW211937   3.886   3.465   8.615  0.4531 -0.9413 -0.6020
36644SOL     OW11938   7.352   3.813   9.757 -0.6635  0.2603 -0.2055
36644SOL    HW111939   7.406   3.798   9.834  1.1083 -0.1885 -1.4757
36644SOL    HW211940   7.313   3.899   9.771  0.9822  0.9326  0.4393
36645SOL     OW11941   7.758   6.971  10.574 -0.5297 -0.2035 -0.2866
36645SOL    HW111942   7.757   6.896  10.515  0.1065  1.6472 -2.8251
36645SOL    HW211943   7.850   7.000  10.575 -0.8871  0.9901 -0.0051
36646SOL     OW11944   0.171   7.589   6.283 -0.0933 -0.0810  0.0450
36646SOL    HW111945   0.228   7.522   6.246 -0.6173 -0.0564 -0.8172
36646SOL    HW211946   0.136   7.549   6.362  0.5237 -0.3724  0.1814
36647SOL     OW11947   8.778   7.522   4.206 -0.0039  0.3979 -0.7806
36647SOL    HW111948   8.725   7.547   4.130  1.4918  0.8149 -1.7308
36647SOL    HW211949   8.757   7.588   4.272 -2.1077 -0.5617 -0.3979
36648SOL     OW11950   0.762   0.134   8.158 -0.1570 -0.5625  0.2125
36648SOL    HW111951   0.695   0.091   8.107 -0.5108  1.5278 -1.2302
36648SOL    HW211952   0.717   0.206   8.202  0.8215 -0.1254  0.5438
36649SOL     OW11953   1.523   6.212   7.801 -0.1307 -0.1682  0.1360
36649SOL    HW111954   1.460   6.284   7.806 -1.5436 -1.2950 -0.7292
36649SOL    HW211955   1.480   6.147   7.745  3.1250  0.3528 -3.3904
36650SOL     OW11956   7.866   0.367   7.337  0.3764  0.1934  0.3602
36650SOL    HW111957   7.867   0.447   7.390 -0.5313 -0.6190  1.6704
36650SOL    HW211958   7.773   0.343   7.332  0.4062  0.3809 -1.8745
36651SOL     OW11959   9.740   9.682   5.974  0.0642  0.8274 -0.5662
36651SOL    HW111960   9.749   9.688   6.069 -1.0179  0.5037 -0.4346
36651SOL    HW211961   9.819   9.724   5.940  1.1605 -0.3098  0.4812
36652SOL     OW11962   9.914   3.715   6.243  0.1084 -0.2611 -0.8367
36652SOL    HW111963   9.829   3.697   6.282  0.3795  0.7514  0.3166
36652SOL    HW211964   9.901   3.795   6.192  0.1199 -0.7306 -1.5954
36653SOL     OW11965   0.384   8.825   9.650 -0.3519 -0.0584 -0.4069
36653SOL    HW111966   0.364   8.822   9.556  0.7776 -1.7482 -0.6303
36653SOL    HW211967   0.369   8.736   9.681 -4.2056  1.1223  1.8779
36654SOL     OW11968  10.849   3.715   7.319 -0.4929 -0.0126 -0.3859
36654SOL    HW111969  10.808   3.676   7.396  0.2939 -0.0792  0.0095
36654SOL    HW211970  10.776   3.741   7.264 -1.1510 -4.0736 -1.7714
36655SOL     OW11971   8.937   8.788  10.209 -0.1724  0.2628 -0.0498
36655SOL    HW111972   8.974   8.797  10.121 -2.3031  2.9769 -0.7809
36655SOL    HW211973   8.870   8.720  10.199  0.8075 -0.7449 -0.0190
36656SOL     OW11974  10.942   0.101   0.323 -0.6290 -0.0656 -0.6040
36656SOL    HW111975  10.879   0.165   0.356 -0.8807 -0.6225  0.0102
36656SOL    HW211976  10.929   0.102   0.228  0.0541  1.4977 -0.7261
36657SOL     OW11977   0.137  10.398   6.568 -0.4253  0.4908  0.3582
36657SOL    HW111978   0.068  10.394   6.634 -0.9712  0.0739 -0.2256
36657SOL    HW211979   0.118  10.325   6.509 -1.0461  1.9270 -1.3135
36658SOL     OW11980   4.216   6.052   3.525  0.5103  0.1249  0.0530
36658SOL    HW111981   4.170   5.969   3.537 -0.7873  1.1227  2.9055
36658SOL    HW211982   4.305   6.026   3.498  0.2289 -2.2245  1.1414
36659SOL     OW11983   7.698   1.588   7.115 -0.0622 -0.2486  0.4197
36659SOL    HW111984   7.733   1.502   7.140 -0.9256 -0.2043  1.8406
36659SOL    HW211985   7.616   1.568   7.070  0.1527 -0.1875 -0.0124
36660SOL     OW11986   6.897  11.001  10.982  0.7331 -0.5701  0.6755
36660SOL    HW111987   6.844  10.974  11.057 -1.6254 -0.9739 -1.0141
36660SOL    HW211988   6.876  10.937  10.914  2.9023 -0.3043 -0.3393
36661SOL     OW11989   2.500   1.168   2.221 -0.0861  0.5761 -0.1437
36661SOL    HW111990   2.564   1.216   2.168 -0.3865  2.4683  1.1327
36661SOL    HW211991   2.550   1.097   2.262  0.4616  0.0286 -1.6873
36662SOL     OW11992   7.472   9.538  10.990  0.1268 -0.1647 -0.2027
36662SOL    HW111993   7.544   9.576  10.940 -0.5181 -1.7845 -2.5138
36662SOL    HW211994   7.479   9.578  11.077  1.4315  2.6397 -1.4876
36663SOL     OW11995   3.235   2.656   0.293  0.1542 -0.1308  0.0761
36663SOL    HW111996   3.259   2.568   0.263  1.1064  0.1243  0.0464
36663SOL    HW211997   3.308   2.711   0.265 -1.4615  1.1148 -1.9220
36664SOL     OW11998   5.326   4.649   8.029 -0.2473  0.1981  0.0057
36664SOL    HW111999   5.270   4.689   7.962 -0.1673  0.9578  0.3732
36664SOL    HW212000   5.375   4.581   7.983 -0.8781  0.0754 -0.4973
36665SOL     OW12001   8.913   8.294   3.003 -0.4527 -0.0381 -0.4190
36665SOL    HW112002   8.931   8.240   3.080 -3.0234  1.2192  1.2195
36665SOL    HW212003   8.904   8.232   2.931 -0.1387 -1.4617  0.7270
36666SOL     OW12004   1.111  10.021   1.349 -0.5769 -0.1687 -0.0951
36666SOL    HW112005   1.168  10.072   1.406 -0.0184 -0.5574 -0.2914
36666SOL    HW212006   1.067  10.086   1.294  0.4907  0.0860 -0.6766
36667SOL     OW12007   5.963   6.670   4.992  0.3635 -0.0026 -0.3814
36667SOL    HW112008   5.949   6.621   5.073 -1.3821  0.5589 -0.3029
36667SOL    HW212009   6.003   6.753   5.021  1.4216 -0.5261 -0.3053
36668SOL     OW12010   7.063   9.912   0.788  0.0880  0.1843  0.8311
36668SOL    HW112011   7.032   9.822   0.798 -0.0244  0.0422 -0.6314
36668SOL    HW212012   6.994   9.955   0.737  0.6034  0.8424  0.6830
36669SOL     OW12013   4.260   5.915   2.992 -0.0027 -0.4397  0.0636
36669SOL    HW112014   4.317   5.862   2.936 -2.1241 -1.0334 -1.6564
36669SOL    HW212015   4.299   6.002   2.990  1.7633 -1.1718  0.3616
36670SOL     OW12016   4.651   1.823  10.826 -0.1993 -0.1921 -0.2229
36670SOL    HW112017   4.657   1.838  10.731 -2.7145 -1.8366 -0.7342
36670SOL    HW212018   4.560   1.840  10.847 -0.1104 -1.6283  1.5592
36671SOL     OW12019   2.631   7.987   6.959 -0.6801 -0.1131 -0.0252
36671SOL    HW112020   2.668   8.052   7.019 -0.6338 -0.3289  0.1853
36671SOL    HW212021   2.630   8.030   6.874 -1.6724  0.5607  0.3075
36672SOL     OW12022   5.613   7.736   1.131 -0.3615 -0.3537 -0.6486
36672SOL    HW112023   5.579   7.717   1.218 -0.6610 -1.3165 -0.9608
36672SOL    HW212024   5.625   7.650   1.091 -0.0203  0.0711 -1.4822
36673SOL     OW12025  10.093   7.720   4.778 -0.2671 -0.0914 -0.3677
36673SOL    HW112026  10.149   7.671   4.717  0.0348  0.7096 -0.7465
36673SOL    HW212027  10.150   7.789   4.813 -0.4752 -0.4443  0.7263
36674SOL     OW12028   5.493   8.338   7.307  0.2664  0.1511  0.1386
36674SOL    HW112029   5.405   8.310   7.330  0.3063 -1.1588 -1.1232
36674SOL    HW212030   5.483   8.388   7.226  0.7893 -1.4145 -0.9544
36675SOL     OW12031   4.486   2.471   8.722 -0.9486  0.0730  0.7872
36675SOL    HW112032   4.419   2.500   8.660  0.4195  0.4525 -0.5579
36675SOL    HW212033   4.538   2.407   8.673 -0.6032 -0.6038  1.9748
36676SOL     OW12034   9.962   8.409   9.520 -0.5314 -0.2359 -0.6062
36676SOL    HW112035  10.029   8.391   9.586  1.5789 -0.9727 -2.8023
36676SOL    HW212036   9.944   8.323   9.482 -1.2200  0.2632 -1.4233
36677SOL     OW12037   8.008   5.620   7.948  0.1410 -0.5515 -0.0319
36677SOL    HW112038   7.923   5.660   7.933  0.2448 -0.5368 -0.5798
36677SOL    HW212039   8.034   5.584   7.864 -0.3922 -2.6762  0.6470
36678SOL     OW12040   3.097   6.180   5.730 -0.5416 -1.0406 -0.6742
36678SOL    HW112041   3.036   6.253   5.742 -0.9861 -1.7012  1.8147
36678SOL    HW212042   3.056   6.124   5.665 -1.4371 -0.3029 -0.7579
36679SOL     OW12043   6.280   4.757   9.435  0.6431 -0.4574 -0.6165
36679SOL    HW112044   6.326   4.716   9.509  0.2577  0.2836  0.0395
36679SOL    HW212045   6.252   4.683   9.381  0.0596 -1.0626  0.4854
36680SOL     OW12046   5.613  10.135   2.645 -0.5437 -1.2412 -0.0690
36680SOL    HW112047   5.558  10.209   2.622  0.9953 -0.4427 -1.3565
36680SOL    HW212048   5.599  10.123   2.739 -1.3452  0.2266  0.0194
36681SOL     OW12049   8.376  10.413   3.457  0.3635 -0.0257  0.0070
36681SOL    HW112050   8.431  10.352   3.506  1.3689  0.9126  0.0587
36681SOL    HW212051   8.335  10.468   3.524 -1.7176 -1.5161  0.0864
36682SOL     OW12052   3.958   5.990   2.882  0.0839  0.6771  0.5951
36682SOL    HW112053   3.993   5.908   2.915  0.7864  0.9363  0.5140
36682SOL    HW212054   3.948   5.976   2.788 -4.3634 -0.9778  1.0497
36683SOL     OW12055   0.415   2.258   3.705  0.0610 -0.7069  0.5888
36683SOL    HW112056   0.447   2.301   3.626 -0.5371 -0.3197  0.5576
36683SOL    HW212057   0.445   2.167   3.697  1.0577 -0.3849  0.5073
36684SOL     OW12058   4.292   4.070   9.664  0.0131  0.2343  0.4048
36684SOL    HW112059   4.278   4.118   9.745 -0.6118  1.1938 -0.2553
36684SOL    HW212060   4.331   4.133   9.604 -2.1076  0.3907 -0.9292
36685SOL     OW12061   1.896   8.896   0.445 -0.4532  0.0696  0.3332
36685SOL    HW112062   1.801   8.891   0.436 -0.3945 -2.2673  0.3300
36685SOL    HW212063   1.928   8.910   0.356 -0.6928 -4.0374 -0.6172
36686SOL     OW12064   7.994   9.177   5.720  0.2544  0.5363  0.4781
36686SOL    HW112065   8.039   9.132   5.648  0.8439  0.2154  1.0392
36686SOL    HW212066   7.995   9.113   5.792  0.2944  1.1173  0.9959
36687SOL     OW12067   5.748   4.455   4.923 -0.5558 -0.3472  0.8488
36687SOL    HW112068   5.746   4.377   4.979  0.1034 -0.2813  0.9776
36687SOL    HW212069   5.837   4.456   4.887 -0.6723  0.1492  0.5698
36688SOL     OW12070  10.299  10.379   3.090  0.2046 -0.2310 -0.0943
36688SOL    HW112071  10.377  10.433   3.092  0.3376 -0.4435  0.9549
36688SOL    HW212072  10.331  10.290   3.074  0.1821 -0.3097  0.2799
36689SOL     OW12073   1.799   7.483   5.715  0.8102  0.1684 -0.2686
36689SOL    HW112074   1.724   7.441   5.672 -0.9057  0.3472  2.3831
36689SOL    HW212075   1.764   7.562   5.755  2.3558  0.1530  1.2339
36690SOL     OW12076   6.951   6.401   4.816  0.1920 -0.4076 -0.0883
36690SOL    HW112077   7.026   6.344   4.802  1.6689  1.4753 -0.3708
36690SOL    HW212078   6.897   6.390   4.738  1.2689 -0.2790 -0.8856
36691SOL     OW12079   6.593   7.959   3.243  0.0171  0.3870 -0.7284
36691SOL    HW112080   6.498   7.949   3.247  0.2601 -2.5953  0.0265
36691SOL    HW212081   6.621   7.959   3.334  0.8491 -0.6664 -0.9646
36692SOL     OW12082   4.001   0.866   8.332 -0.6545 -0.2331 -0.4680
36692SOL    HW112083   4.026   0.959   8.331  0.1799 -0.4441 -0.4310
36692SOL    HW212084   4.043   0.829   8.254  0.0060 -0.8103  0.1404
36693SOL     OW12085   7.114   9.881   2.778  0.2452  0.1171 -0.1655
36693SOL    HW112086   7.128   9.856   2.687  0.3182 -0.6431  0.0488
36693SOL    HW212087   7.018   9.884   2.787  0.2319  0.9298 -0.4528
36694SOL     OW12088   6.249   6.076   6.714  0.1416  0.2488  0.0750
36694SOL    HW112089   6.182   6.124   6.763  0.4287  1.0269 -0.2898
36694SOL    HW212090   6.200   6.015   6.659 -0.3300  1.4917 -0.9201
36695SOL     OW12091  10.693   8.111   4.499  0.2137 -0.0546  0.2036
36695SOL    HW112092  10.694   8.082   4.407 -0.7253  0.0813  0.1400
36695SOL    HW212093  10.743   8.193   4.499  0.6442 -0.3098 -0.0887
36696SOL     OW12094   1.613   8.899   2.300  0.0198  0.1313  0.4946
36696SOL    HW112095   1.701   8.935   2.293 -0.0315 -0.0230 -1.7643
36696SOL    HW212096   1.556   8.964   2.259 -0.8320 -0.1063  1.2539
36697SOL     OW12097   4.018   4.638   1.386 -0.7012 -0.1705 -0.3274
36697SOL    HW112098   4.010   4.698   1.461  1.5639 -0.2092  0.0237
36697SOL    HW212099   4.066   4.689   1.321 -0.1640 -1.0696 -0.6423
36698SOL     OW12100   5.615   9.328   6.973  0.6925  0.1033  0.2044
36698SOL    HW112101   5.581   9.397   6.916  0.0311  0.5946  1.1537
36698SOL    HW212102   5.536   9.284   7.006  1.1040 -1.5068 -0.8252
36699SOL     OW12103   6.914   9.605   8.293  0.0669  0.0403  0.1934
36699SOL    HW112104   6.849   9.577   8.357  1.5937 -1.2191  1.2864
36699SOL    HW212105   6.998   9.599   8.339  1.0259  1.3004 -1.2444
36700SOL     OW12106   2.503   4.209   9.863 -0.2506 -0.2164 -0.1842
36700SOL    HW112107   2.540   4.286   9.819 -0.7627 -0.1433 -0.4947
36700SOL    HW212108   2.442   4.246   9.928 -0.6201 -0.3578 -0.4449
36701SOL     OW12109   9.782   5.886   4.003 -0.2576  0.7792  0.2026
36701SOL    HW112110   9.718   5.867   3.934  0.5949  0.3100 -0.4875
36701SOL    HW212111   9.753   5.834   4.078 -0.2689 -0.0224 -0.3491
36702SOL     OW12112   2.183   8.257   3.667 -0.5000  0.3856  0.2381
36702SOL    HW112113   2.165   8.339   3.622 -1.6073 -0.3103 -0.6606
36702SOL    HW212114   2.256   8.219   3.618  0.8241  1.3457  1.3889
36703SOL     OW12115   9.105   8.335   5.687 -0.4325 -0.1919 -0.4873
36703SOL    HW112116   9.078   8.245   5.704 -0.6470 -0.2296 -1.0044
36703SOL    HW212117   9.166   8.356   5.759 -1.0826 -0.4333  0.1463
36704SOL     OW12118   4.668   0.625   6.213 -0.4255  0.6462  0.1686
36704SOL    HW112119   4.668   0.530   6.228  0.3725  0.5168 -0.5768
36704SOL    HW212120   4.739   0.639   6.151 -2.1581  1.4366 -1.7209
36705SOL     OW12121   2.256   7.992   4.423  0.0710  0.5308  0.3553
36705SOL    HW112122   2.318   8.046   4.472  1.2162  0.1283 -0.6245
36705SOL    HW212123   2.309   7.945   4.360 -1.0801 -0.7599  0.3039
36706SOL     OW12124   1.434   5.948  10.150 -0.2720  0.2145 -0.2703
36706SOL    HW112125   1.515   5.954  10.201  0.7869 -0.1351 -1.8526
36706SOL    HW212126   1.391   6.033  10.164  0.1574  0.2601  0.8981
36707SOL     OW12127   4.445   0.460   8.475  0.2197 -0.1785  0.0497
36707SOL    HW112128   4.532   0.460   8.516  0.0834  2.8513  0.5473
36707SOL    HW212129   4.394   0.399   8.529  1.6209 -0.8750  0.6631
36708SOL     OW12130   9.738   1.571   8.544 -0.3083  0.2020 -0.0743
36708SOL    HW112131   9.669   1.617   8.593 -0.0526  0.3038  0.1988
36708SOL    HW212132   9.808   1.559   8.609  0.1551  0.5998 -0.4930
36709SOL     OW12133   2.092   5.010   5.223  0.3909  0.3922 -0.7626
36709SOL    HW112134   2.142   5.009   5.305 -0.8609  0.8958  0.0261
36709SOL    HW212135   2.159   5.002   5.155  1.2691 -3.6873  0.3191
36710SOL     OW12136   2.354   8.261   7.701  0.1210  0.3115 -0.5342
36710SOL    HW112137   2.387   8.339   7.746 -1.5037  0.4796  0.4380
36710SOL    HW212138   2.263   8.253   7.729  0.2424 -1.9672 -0.5882
36711SOL     OW12139   2.257   0.291   9.804  0.5861 -0.1138 -0.4765
36711SOL    HW112140   2.194   0.360   9.819  0.6254 -0.0131 -0.7703
36711SOL    HW212141   2.204   0.213   9.788  0.5096 -0.7247  2.2709
36712SOL     OW12142   2.725   8.215   3.347  0.1974 -0.0718  0.0116
36712SOL    HW112143   2.631   8.225   3.334  0.2563 -0.3467 -0.6443
36712SOL    HW212144   2.752   8.295   3.391 -0.4244 -0.2003  0.6509
36713SOL     OW12145   2.951   7.299   9.708 -0.3839 -0.1356 -0.0158
36713SOL    HW112146   2.987   7.387   9.697 -3.0103  0.9318 -0.6532
36713SOL    HW212147   2.932   7.270   9.619 -0.8150 -0.7814  0.2848
36714SOL     OW12148   8.298   6.882   4.697  0.4382  0.7130  0.4728
36714SOL    HW112149   8.253   6.966   4.707 -0.4650  0.3716 -0.5972
36714SOL    HW212150   8.384   6.897   4.737 -0.3127  1.6133  1.8216
36715SOL     OW12151   0.884   1.395   7.940 -0.0749  0.3795  0.0944
36715SOL    HW112152   0.888   1.301   7.960  1.2232  0.6879  1.5110
36715SOL    HW212153   0.822   1.402   7.868 -0.1573 -1.5753 -0.0747
36716SOL     OW12154   7.893   5.543   2.203 -0.5209 -1.0780  0.4774
36716SOL    HW112155   7.951   5.589   2.143 -2.0434  0.8360  0.3642
36716SOL    HW212156   7.948   5.525   2.280  0.5834 -0.6111 -0.1737
36717SOL     OW12157   0.736   3.461   4.121 -0.0854 -0.1314  0.1989
36717SOL    HW112158   0.804   3.524   4.143 -0.0025 -0.6861  1.6191
36717SOL    HW212159   0.679   3.508   4.060  0.7353  0.8466  0.1621
36718SOL     OW12160   9.059  10.041   3.543  0.5681 -0.1376  0.2186
36718SOL    HW112161   9.136   9.984   3.546  0.9538  0.4040  1.8041
36718SOL    HW212162   9.083  10.116   3.597 -1.0009  0.1534  0.5645
36719SOL     OW12163  10.420   8.899   1.127 -0.0584 -0.4054  0.1829
36719SOL    HW112164  10.332   8.870   1.101 -0.3265 -0.4844  1.1568
36719SOL    HW212165  10.455   8.828   1.180  1.1621 -0.9842 -1.3387
36720SOL     OW12166   0.175   3.137   8.228  0.4263 -0.3009 -0.3551
36720SOL    HW112167   0.167   3.101   8.139 -0.8722  1.4453 -0.9988
36720SOL    HW212168   0.249   3.090   8.266 -0.0652 -2.3622 -1.7303
36721SOL     OW12169   9.431   6.537   0.751  0.0855  0.1936 -0.3750
36721SOL    HW112170   9.349   6.497   0.783 -0.4977  1.7506  0.1981
36721SOL    HW212171   9.461   6.591   0.824  2.1702 -1.0686 -0.2307
36722SOL     OW12172   3.990   0.113   7.700 -0.1487  0.0459  0.5337
36722SOL    HW112173   4.011   0.070   7.617 -0.5436  1.1795 -0.1780
36722SOL    HW212174   4.074   0.119   7.746 -0.0720 -1.3997  0.6321
36723SOL     OW12175   0.674   2.657   7.048 -0.5649 -0.0585  0.0753
36723SOL    HW112176   0.663   2.692   6.960  0.1119  1.9157  0.7210
36723SOL    HW212177   0.769   2.649   7.060 -0.6704 -1.2197  0.3209
36724SOL     OW12178   3.529   4.560   9.218 -0.1626  0.2149 -0.0131
36724SOL    HW112179   3.621   4.554   9.194  0.2636 -1.2513  1.7654
36724SOL    HW212180   3.527   4.621   9.292 -0.6914  0.6561 -0.3864
36725SOL     OW12181   7.743   8.457  10.601  0.4633 -0.2356  0.0702
36725SOL    HW112182   7.686   8.394  10.557 -0.2267  0.4946 -0.1063
36725SOL    HW212183   7.689   8.494  10.670  0.3775  1.1891 -0.7259
36726SOL     OW12184   3.634  10.059   3.465  0.4619  0.1842  0.2157
36726SOL    HW112185   3.632  10.011   3.382 -0.9506  0.6072 -0.0035
36726SOL    HW212186   3.582  10.006   3.525 -0.1615  0.8624  0.2855
36727SOL     OW12187   8.499   7.746   3.482 -0.4656  0.2463 -0.1387
36727SOL    HW112188   8.571   7.810   3.479 -0.6534  0.6042  1.6037
36727SOL    HW212189   8.474   7.733   3.391  0.1206  2.0614 -0.6064
36728SOL     OW12190  10.206  10.356   2.618  0.6600  0.0895  0.6665
36728SOL    HW112191  10.234  10.447   2.627  1.8591 -0.1520 -0.3511
36728SOL    HW212192  10.265  10.319   2.552 -1.0028 -0.9169 -0.3223
36729SOL     OW12193  10.694   3.087   7.336  0.9338 -0.0002  0.1986
36729SOL    HW112194  10.764   3.150   7.355 -0.4095  1.3812  0.8217
36729SOL    HW212195  10.661   3.062   7.423  0.0683  0.0922 -0.0901
36730SOL     OW12196   1.322   2.197  10.910  0.7080  0.1600  0.7200
36730SOL    HW112197   1.282   2.123  10.956  0.3544  0.2690  0.5951
36730SOL    HW212198   1.297   2.184  10.819  2.2596 -0.6155  0.3665
36731SOL     OW12199   2.644   6.254   4.575  0.1880 -0.6018  0.4006
36731SOL    HW112200   2.669   6.169   4.612  1.7955 -0.4120 -0.1889
36731SOL    HW212201   2.657   6.244   4.481  0.5100  0.3427  0.3362
36732SOL     OW12202   1.642   4.984   8.452  0.1911  0.0879  0.2245
36732SOL    HW112203   1.605   5.058   8.501  0.0402  0.0468  0.1717
36732SOL    HW212204   1.731   4.975   8.487  0.9195  1.5651 -1.1495
36733SOL     OW12205   9.927   1.773   6.824  0.1697 -0.4004 -0.4126
36733SOL    HW112206   9.899   1.731   6.905 -0.0290 -1.0630 -0.8141
36733SOL    HW212207  10.022   1.768   6.826  0.1305 -2.1494 -1.0888
36734SOL     OW12208   8.218   4.130   3.594 -0.2529 -0.6028 -0.3406
36734SOL    HW112209   8.257   4.104   3.678 -2.7134 -1.8820  0.5223
36734SOL    HW212210   8.200   4.047   3.550 -0.5666  0.0023 -1.3871
36735SOL     OW12211   5.499   1.889   6.943 -0.1363 -0.2606  0.6626
36735SOL    HW112212   5.481   1.948   6.870 -0.0285 -0.9704  0.0525
36735SOL    HW212213   5.438   1.916   7.011 -1.4147 -0.6733 -0.2803
36736SOL     OW12214   4.841   5.074   7.244  0.2776  0.7783  0.4120
36736SOL    HW112215   4.891   5.111   7.317  0.4150  0.6840  0.3672
36736SOL    HW212216   4.750   5.075   7.274  0.3294  0.7686  0.5721
36737SOL     OW12217   5.471   6.171   3.127  0.2977  0.1768  0.0468
36737SOL    HW112218   5.500   6.205   3.043 -1.1590 -0.7410 -0.8532
36737SOL    HW212219   5.474   6.075   3.117 -1.8561  0.0401  0.2945
36738SOL     OW12220   4.448   0.657   4.187  0.4003  0.2250 -0.2716
36738SOL    HW112221   4.403   0.720   4.243 -2.3933  0.2334 -2.3453
36738SOL    HW212222   4.388   0.583   4.180  2.5486 -1.6713  0.1331
36739SOL     OW12223  10.583   8.615   7.838 -0.4976 -0.2825  0.3327
36739SOL    HW112224  10.651   8.682   7.845 -1.3191  0.6715 -0.5143
36739SOL    HW212225  10.627   8.533   7.864  0.8838  0.3510  0.0788
36740SOL     OW12226   0.989   7.673  10.910 -0.5840  0.4810 -0.0546
36740SOL    HW112227   0.943   7.621  10.976  0.5136 -0.2228  0.1746
36740SOL    HW212228   0.991   7.618  10.832  3.3900 -1.3449  1.0822
36741SOL     OW12229   6.988   5.307   4.655  0.3859  0.0325 -0.1259
36741SOL    HW112230   7.001   5.307   4.560  0.8641  2.8762 -0.1617
36741SOL    HW212231   6.893   5.309   4.666  0.3236 -0.5996 -0.5308
36742SOL     OW12232   6.527   7.232   6.879 -0.6527 -0.3799  0.7096
36742SOL    HW112233   6.485   7.188   6.954  0.9469 -0.2398  1.7395
36742SOL    HW212234   6.515   7.325   6.897 -2.1970 -0.3301 -0.3904
36743SOL     OW12235   9.635   0.364   3.643  0.7378  0.0061  0.2132
36743SOL    HW112236   9.620   0.437   3.582 -1.1599 -0.3863  0.1313
36743SOL    HW212237   9.683   0.300   3.591  0.6712  0.3906 -0.3416
36744SOL     OW12238   7.515   6.887   7.493  0.1845 -0.2051 -0.0555
36744SOL    HW112239   7.517   6.816   7.429 -0.0782  0.2729 -0.5937
36744SOL    HW212240   7.605   6.892   7.526  0.5672  0.2425 -1.1486
36745SOL     OW12241   3.322   5.913   4.033 -0.1622 -0.1398 -0.7105
36745SOL    HW112242   3.402   5.885   3.990 -1.4216 -1.1507 -2.5529
36745SOL    HW212243   3.292   5.835   4.080 -0.4850 -0.0389 -0.7446
36746SOL     OW12244  10.292   2.385   7.125  0.1614 -0.4045  0.0307
36746SOL    HW112245  10.276   2.385   7.031 -1.2104 -0.2624  0.2332
36746SOL    HW212246  10.209   2.356   7.163  0.2396  0.8314  1.2452
36747SOL     OW12247   5.887   7.326   0.136 -0.0607 -0.0534 -0.6358
36747SOL    HW112248   5.930   7.393   0.083  0.2612 -0.1818 -0.5426
36747SOL    HW212249   5.893   7.359   0.226  1.9536 -1.1321 -0.3041
36748SOL     OW12250   7.636   0.421   8.025 -0.2280  0.0445 -0.6597
36748SOL    HW112251   7.640   0.355   8.094  0.1430  0.3134 -0.4122
36748SOL    HW212252   7.648   0.504   8.072 -3.3192  0.5646 -0.5979
36749SOL     OW12253   7.681   0.038   0.500 -0.4403  0.4075  0.1113
36749SOL    HW112254   7.733  -0.022   0.447  0.1076  0.1836  0.8783
36749SOL    HW212255   7.720   0.124   0.484 -0.1126  0.3038  0.3492
36750SOL     OW12256   8.648   4.203   3.679  0.1208  0.3405  0.1207
36750SOL    HW112257   8.565   4.227   3.719 -0.5233  0.8908 -1.4676
36750SOL    HW212258   8.624   4.164   3.595  1.4366 -0.3149  0.0240
36751SOL     OW12259   7.691   3.581  10.975  0.1896  0.6142 -0.0231
36751SOL    HW112260   7.612   3.560  11.025  0.2167 -0.5230 -0.4285
36751SOL    HW212261   7.762   3.577  11.039  0.4612 -2.5464 -0.3920
36752SOL     OW12262   6.680   3.845  10.509  0.0413  0.2720  0.1905
36752SOL    HW112263   6.688   3.940  10.518 -0.3663  0.5170 -1.7297
36752SOL    HW212264   6.587   3.828  10.525  0.6596 -0.3327  4.1910
36753SOL     OW12265   7.771   4.467   8.840  0.0991 -0.4737  0.0374
36753SOL    HW112266   7.701   4.443   8.779  1.1503 -2.3693 -0.5028
36753SOL    HW212267   7.846   4.486   8.785  0.4895 -0.1214  0.6785
36754SOL     OW12268   8.095   6.234   0.622 -0.4186 -0.6324  0.5855
36754SOL    HW112269   8.072   6.268   0.536  2.3721  0.3320  0.1282
36754SOL    HW212270   8.032   6.274   0.682 -0.5467  1.0497 -0.6260
36755SOL     OW12271   4.984   5.607   3.282 -0.1293  0.0806  0.1024
36755SOL    HW112272   5.069   5.611   3.327 -0.0588  0.3329 -0.0481
36755SOL    HW212273   4.953   5.698   3.282  1.3428  0.7447 -3.1265
36756SOL     OW12274   6.011   8.898  10.489 -0.1854 -0.4764  0.2920
36756SOL    HW112275   6.075   8.842  10.534 -1.0948 -0.2873  1.8709
36756SOL    HW212276   5.929   8.849  10.494  0.0721 -1.6585 -3.4290
36757SOL     OW12277   6.583   5.381   5.399  0.2225  0.6658 -0.1599
36757SOL    HW112278   6.534   5.301   5.381 -1.8092  1.8609 -0.2040
36757SOL    HW212279   6.654   5.381   5.335 -1.4940  0.3254 -2.1639
36758SOL     OW12280   7.691  10.034   5.158  0.2631 -0.4320  0.1560
36758SOL    HW112281   7.782  10.004   5.160  0.3284 -0.2279  0.1992
36758SOL    HW212282   7.695  10.126   5.181 -0.1146 -0.8404  2.0503
36759SOL     OW12283   0.399   9.684   4.611  0.5363 -0.4185  0.0621
36759SOL    HW112284   0.392   9.779   4.594  1.7030 -0.2544  0.4073
36759SOL    HW212285   0.475   9.676   4.668  0.6830 -1.6086 -0.2803
36760SOL     OW12286   7.355   0.989   6.128  0.3965  0.2785  0.1599
36760SOL    HW112287   7.271   0.966   6.087  0.7479 -1.0679  0.1499
36760SOL    HW212288   7.333   1.059   6.189 -0.8964 -0.5486  0.6974
36761SOL     OW12289  10.049   4.483   4.002  0.0125 -0.1633  0.7512
36761SOL    HW112290  10.057   4.426   4.079  0.4258 -1.1744 -0.0076
36761SOL    HW212291  10.050   4.423   3.928 -1.6293  0.6988 -0.0157
36762SOL     OW12292   7.758   4.309   6.272  0.3635 -0.4177  0.1891
36762SOL    HW112293   7.848   4.329   6.245  0.8250 -2.0652  0.3912
36762SOL    HW212294   7.763   4.303   6.368 -0.4549  1.6077  0.4051
36763SOL     OW12295   9.993   3.943   8.921 -0.2322 -0.5967 -0.6303
36763SOL    HW112296   9.925   3.912   8.861 -0.2147  0.3697 -1.1717
36763SOL    HW212297  10.073   3.900   8.890  0.1967  1.5034 -2.7073
36764SOL     OW12298   8.392   7.321   0.263  0.2383 -0.6572  0.2713
36764SOL    HW112299   8.407   7.412   0.288  1.4642 -0.7375 -0.0999
36764SOL    HW212300   8.301   7.304   0.287  0.5035  0.1264  1.9453
36765SOL     OW12301   7.988   0.043   5.187 -0.6014 -0.2869 -0.0375
36765SOL    HW112302   7.941  -0.015   5.127 -0.9198 -0.6377  0.5474
36765SOL    HW212303   8.048  -0.014   5.234 -0.5501 -0.0573  0.1759
36766SOL     OW12304   2.924   8.849   8.569  0.0846 -0.4817  0.1089
36766SOL    HW112305   2.925   8.942   8.545 -0.9207 -0.8295 -1.4568
36766SOL    HW212306   2.995   8.839   8.633  1.6533  0.9397 -1.3286
36767SOL     OW12307   3.468   9.157   6.803 -0.1490  0.2718 -0.1266
36767SOL    HW112308   3.536   9.207   6.848 -0.7200  0.3918  0.6141
36767SOL    HW212309   3.495   9.066   6.812 -0.5904  0.2422  1.0493
36768SOL     OW12310   7.979   1.230   3.995 -0.5217  0.6044 -0.1744
36768SOL    HW112311   7.973   1.154   4.053  0.4434  0.6893  0.0393
36768SOL    HW212312   8.001   1.194   3.910  1.5573  0.7318  0.2525
36769SOL     OW12313   2.902   2.987   4.660  0.2466  0.3162 -0.1940
36769SOL    HW112314   2.885   3.079   4.643  2.7079  1.0800  1.0407
36769SOL    HW212315   2.859   2.969   4.744 -1.9226 -0.2905 -1.3429
36770SOL     OW12316   8.727   9.198   2.881  0.1425  0.0852 -0.0596
36770SOL    HW112317   8.810   9.231   2.846 -0.1949  1.8114  0.6645
36770SOL    HW212318   8.749   9.165   2.968  0.1299  0.2001 -0.0134
36771SOL     OW12319   0.543   2.505   3.524 -0.2744 -0.0176 -0.1450
36771SOL    HW112320   0.459   2.512   3.479 -0.2048  0.2438 -0.2351
36771SOL    HW212321   0.598   2.572   3.484 -0.2683  0.3417  0.4390
36772SOL     OW12322   4.654   5.033   3.837 -0.0042 -0.0745  0.4135
36772SOL    HW112323   4.653   5.095   3.910 -0.7883 -1.3473  1.5310
36772SOL    HW212324   4.570   5.048   3.792 -0.8205 -1.1989  1.4945
36773SOL     OW12325   6.938   0.469   5.195 -0.5714 -0.5467 -0.2985
36773SOL    HW112326   6.854   0.471   5.240 -1.2598 -1.2129 -1.4888
36773SOL    HW212327   6.951   0.376   5.173  0.8233 -0.5622  0.4882
36774SOL     OW12328   3.634   9.671   9.053  0.9729 -0.2240 -0.0949
36774SOL    HW112329   3.682   9.752   9.034  2.5747 -1.3339 -1.1376
36774SOL    HW212330   3.695   9.602   9.028 -0.5193 -1.7556  0.3385
36775SOL     OW12331   2.058   5.780   7.177 -0.0327 -0.0367  0.3071
36775SOL    HW112332   2.084   5.699   7.221  0.1240 -1.2510 -1.8569
36775SOL    HW212333   2.116   5.847   7.214  0.3596 -1.0432  1.6051
36776SOL     OW12334   8.670   4.480   3.745 -0.3756 -0.4494  0.1272
36776SOL    HW112335   8.754   4.510   3.781  0.1091 -0.0399 -1.2905
36776SOL    HW212336   8.692   4.399   3.699 -0.6496 -0.0720 -0.6815
36777SOL     OW12337  10.535   4.651   4.902 -0.5391  0.6518 -0.0968
36777SOL    HW112338  10.515   4.611   4.987  0.4879 -1.7941 -0.8999
36777SOL    HW212339  10.624   4.620   4.882 -1.2749 -0.0490 -2.6644
36778SOL     OW12340   2.439   5.960   5.690 -0.2018  0.0416 -0.4844
36778SOL    HW112341   2.500   5.889   5.710  0.7249 -0.1926 -3.5509
36778SOL    HW212342   2.353   5.925   5.714  0.4424 -1.2873 -0.0032
36779SOL     OW12343   8.017   5.841   2.832  0.1524  0.0946 -0.1897
36779SOL    HW112344   7.926   5.868   2.822 -0.0230 -0.5755 -0.4371
36779SOL    HW212345   8.018   5.749   2.807  1.0447  0.2989 -0.9651
36780SOL     OW12346   0.131   6.755   9.770 -0.5944 -0.0831 -0.4262
36780SOL    HW112347   0.215   6.734   9.810 -0.0264  0.8517 -1.0945
36780SOL    HW212348   0.073   6.772   9.843  0.0165  0.0809  0.0297
36781SOL     OW12349   6.591   7.313   1.689  0.0126  0.1142  0.0391
36781SOL    HW112350   6.582   7.346   1.778  2.1712 -0.3227  0.4545
36781SOL    HW212351   6.675   7.346   1.659  0.7184 -2.2147 -0.7410
36782SOL     OW12352   1.938   9.027   6.565 -0.0402 -0.9244  0.3225
36782SOL    HW112353   1.852   9.066   6.579  0.8129  0.8982  0.7594
36782SOL    HW212354   1.954   8.975   6.644 -0.2664 -0.3308  0.7610
36783SOL     OW12355   0.723   5.580   7.159  0.1092 -0.3729 -0.4730
36783SOL    HW112356   0.705   5.672   7.143  1.8054  0.0401 -0.1215
36783SOL    HW212357   0.638   5.544   7.187 -0.4559  1.1818 -0.1020
36784SOL     OW12358   4.875   2.558   9.725 -0.2080 -0.2277  0.5242
36784SOL    HW112359   4.876   2.519   9.812 -0.8538 -3.0188 -0.6344
36784SOL    HW212360   4.879   2.484   9.665 -0.3701  1.5788 -1.8536
36785SOL     OW12361   1.305   8.884   5.805  0.1026 -0.3156 -0.4583
36785SOL    HW112362   1.247   8.923   5.739  0.5159  0.2973 -0.4685
36785SOL    HW212363   1.274   8.919   5.888  0.1099 -0.4168 -0.4137
36786SOL     OW12364   0.662   2.866  10.810  0.2366 -0.0317  0.0600
36786SOL    HW112365   0.678   2.833  10.898 -2.3732 -0.8467  0.3148
36786SOL    HW212366   0.597   2.935  10.821 -0.0281 -0.0499 -1.2026
36787SOL     OW12367   6.580   8.878   6.482 -0.1213  0.3020 -0.0659
36787SOL    HW112368   6.521   8.862   6.408 -0.4291 -0.0963  0.2630
36787SOL    HW212369   6.662   8.908   6.441 -0.7672  1.5670 -0.4873
36788SOL     OW12370   1.053   6.591   3.504 -0.3002 -0.0629 -1.0552
36788SOL    HW112371   1.018   6.638   3.580 -0.1307  2.1516 -2.2518
36788SOL    HW212372   1.082   6.507   3.539 -1.6122  0.2652  1.0288
36789SOL     OW12373   9.337   8.544   3.568 -0.2907 -0.3131  0.6457
36789SOL    HW112374   9.254   8.527   3.613 -1.1218  0.8634 -0.3792
36789SOL    HW212375   9.385   8.602   3.626 -0.7405  0.0354  0.6741
36790SOL     OW12376   6.986   1.446   5.894  0.0181 -0.4221  0.3091
36790SOL    HW112377   6.999   1.475   5.984 -1.0173 -0.3680  0.4494
36790SOL    HW212378   6.903   1.398   5.895 -0.1043 -0.2681 -0.6496
36791SOL     OW12379   1.153   3.800   3.650  0.3669 -0.0326  0.2011
36791SOL    HW112380   1.201   3.787   3.732 -0.9943 -1.0661  0.8688
36791SOL    HW212381   1.151   3.713   3.610 -0.7255  0.0313  0.0824
36792SOL     OW12382   5.626   7.228   2.191 -0.0896 -0.4204 -0.7034
36792SOL    HW112383   5.703   7.171   2.198 -1.3779 -2.0580  2.1081
36792SOL    HW212384   5.648   7.305   2.243 -0.2471 -0.7925 -0.0765
36793SOL     OW12385   4.057   8.226   0.663 -0.0777 -0.5026 -0.0261
36793SOL    HW112386   4.078   8.143   0.621  1.3137 -0.1548 -0.0525
36793SOL    HW212387   4.059   8.207   0.757 -0.0166 -0.5481 -0.0367
36794SOL     OW12388   1.458   5.757   5.204 -0.0793 -0.1324  0.0287
36794SOL    HW112389   1.400   5.696   5.249 -1.5610  1.1420 -0.0780
36794SOL    HW212390   1.545   5.716   5.209 -0.8587 -1.7680  0.7737
36795SOL     OW12391   1.818   4.551   2.558 -0.3851 -0.6075 -0.1634
36795SOL    HW112392   1.880   4.606   2.606  0.1185 -0.6736 -0.7233
36795SOL    HW212393   1.747   4.611   2.534  0.4543 -0.0447 -1.3018
36796SOL     OW12394   3.716   4.191   1.255 -0.0667  0.0750  0.2083
36796SOL    HW112395   3.727   4.272   1.305  0.4125  0.1327  0.0106
36796SOL    HW212396   3.628   4.198   1.217 -1.2787 -0.8511  2.6415
36797SOL     OW12397   5.995   9.905  10.103 -0.0921  0.1641  1.0762
36797SOL    HW112398   6.035   9.973  10.156  1.5073 -1.1147  1.5958
36797SOL    HW212399   5.990   9.942  10.015  0.0312  1.2217  1.5060
36798SOL     OW12400  10.953   4.304  10.550 -0.3519  0.8783  0.0490
36798SOL    HW112401  10.937   4.295  10.456 -1.0878  1.1480  0.1415
36798SOL    HW212402  10.946   4.215  10.584 -1.5224  0.9626  0.0561
36799SOL     OW12403   4.956   2.877   4.239 -0.1369  0.0188 -0.4070
36799SOL    HW112404   4.943   2.955   4.293 -0.9016  0.0552 -0.6327
36799SOL    HW212405   4.875   2.868   4.190 -0.2430 -1.1781 -0.0553
36800SOL     OW12406   3.644   1.465   1.584 -0.3850 -0.6871 -0.3455
36800SOL    HW112407   3.682   1.442   1.668  0.7844  0.7875 -0.4197
36800SOL    HW212408   3.694   1.542   1.555 -2.5251  0.5250 -1.1043
36801SOL     OW12409  10.858   6.729   3.075 -0.1626  0.2989 -0.9540
36801SOL    HW112410  10.903   6.664   3.130  3.2835  2.2508 -1.1531
36801SOL    HW212411  10.778   6.750   3.123 -1.0342 -3.3808 -0.4982
36802SOL     OW12412   4.280   5.336   0.215  0.0863 -0.1893 -0.2608
36802SOL    HW112413   4.210   5.334   0.149  0.9027  0.8024 -1.1771
36802SOL    HW212414   4.326   5.418   0.200  0.6376 -0.1873  1.2173
36803SOL     OW12415   2.130   5.253   0.493 -0.4697  0.0223  0.4751
36803SOL    HW112416   2.048   5.208   0.472 -0.3931  0.3465 -0.6000
36803SOL    HW212417   2.112   5.300   0.574 -0.6776 -1.6044  1.4235
36804SOL     OW12418   2.483   7.772   7.056 -0.6460 -0.7356 -0.1257
36804SOL    HW112419   2.429   7.736   6.986 -2.0661  1.1913 -0.1290
36804SOL    HW212420   2.553   7.819   7.011 -0.5207 -1.0041 -0.2082
36805SOL     OW12421   7.654   5.147   5.340  0.3850  0.0112 -0.2386
36805SOL    HW112422   7.682   5.232   5.373  1.8475 -1.8489  3.9633
36805SOL    HW212423   7.732   5.092   5.346 -1.0642 -2.2169 -0.5903
36806SOL     OW12424   5.459   0.549   1.322 -0.7733  0.1812 -0.1887
36806SOL    HW112425   5.392   0.591   1.377  0.5555  0.2529  1.4547
36806SOL    HW212426   5.410   0.513   1.248 -2.4242  1.4954  0.2034
36807SOL     OW12427   2.538   3.124   1.978 -0.5488  0.0727  0.1383
36807SOL    HW112428   2.619   3.126   1.927 -0.3482 -3.3264  0.1334
36807SOL    HW212429   2.469   3.103   1.914 -1.1241  0.8372  0.4855
36808SOL     OW12430   6.886   9.776   5.181  0.2576 -0.1382  0.1060
36808SOL    HW112431   6.902   9.748   5.091  0.7499  0.7294 -0.0841
36808SOL    HW212432   6.896   9.871   5.179 -0.2074 -0.0578  0.9806
36809SOL     OW12433   5.278   3.818   6.954  0.0247  0.4993  0.3394
36809SOL    HW112434   5.291   3.800   7.047  2.3051  0.8352  0.1437
36809SOL    HW212435   5.355   3.869   6.929 -0.7012  0.6845 -1.6770
36810SOL     OW12436   3.941  10.090   5.109 -0.6576  0.0991  0.1237
36810SOL    HW112437   4.003  10.037   5.158  1.1929  1.1245 -0.9832
36810SOL    HW212438   3.990  10.169   5.086 -1.4219 -0.2462 -3.2290
36811SOL     OW12439  10.194  10.695  10.123 -0.1947  0.3682  0.2705
36811SOL    HW112440  10.122  10.754  10.146 -2.9687 -1.1907 -3.4255
36811SOL    HW212441  10.193  10.627  10.191 -2.1662  0.4775  0.3906
36812SOL     OW12442   6.457   7.417   2.301 -0.7780  0.0906  0.0522
36812SOL    HW112443   6.514   7.407   2.225  0.6474  0.8005  0.9808
36812SOL    HW212444   6.387   7.475   2.272  1.3767  2.9120  0.0326
36813SOL     OW12445   0.962   9.441   1.584 -0.1708 -0.1299 -0.3852
36813SOL    HW112446   1.011   9.372   1.629  0.5940  0.5016 -0.2121
36813SOL    HW212447   0.921   9.491   1.654  0.7240  0.6351 -0.3754
36814SOL     OW12448   1.484   7.524   3.677 -0.0774 -0.0450 -0.3494
36814SOL    HW112449   1.401   7.477   3.664 -1.0198  1.1690  0.9662
36814SOL    HW212450   1.480   7.555   3.767  2.4086 -1.0171  0.1642
36815SOL     OW12451   0.450   8.031   3.292  0.2195 -0.0115 -0.3578
36815SOL    HW112452   0.501   7.971   3.347 -0.1437  0.3043  0.3451
36815SOL    HW212453   0.492   8.027   3.207  1.8146  0.6829  0.3470
36816SOL     OW12454   8.653   3.086   5.681  0.5098  0.0739 -0.2789
36816SOL    HW112455   8.644   3.171   5.638 -0.6101  0.5757  0.8823
36816SOL    HW212456   8.658   3.023   5.609  0.0556  1.0045 -1.1465
36817SOL     OW12457   8.612   9.028   9.351  0.1081  0.1906  0.3977
36817SOL    HW112458   8.662   8.949   9.373 -0.4898 -0.3059  0.0148
36817SOL    HW212459   8.663   9.100   9.388  0.3458 -0.4248  1.3032
36818SOL     OW12460   0.125  10.813   3.306  0.6292  0.2078 -0.1487
36818SOL    HW112461   0.050  10.804   3.365  0.6424 -0.7880 -0.2568
36818SOL    HW212462   0.137  10.907   3.296  0.7630  0.4142  1.6064
36819SOL     OW12463   4.859   5.746  10.815 -0.2198  0.2303  0.0044
36819SOL    HW112464   4.945   5.767  10.850 -0.2414  0.5231 -0.1137
36819SOL    HW212465   4.829   5.828  10.775 -1.4359  0.7566  1.8504
36820SOL     OW12466   5.845   5.611   3.025  0.3161  0.4945 -0.3338
36820SOL    HW112467   5.868   5.533   3.075 -2.1562 -0.4185 -0.4978
36820SOL    HW212468   5.860   5.684   3.085  0.8257 -0.2756  0.4870
36821SOL     OW12469   3.605   7.908   2.429  0.1436 -0.0353 -0.1513
36821SOL    HW112470   3.634   7.991   2.390 -1.1526  1.2300  1.4273
36821SOL    HW212471   3.563   7.862   2.356  1.7025  0.2343 -1.2859
36822SOL     OW12472   7.718   3.095   7.996  0.2583 -0.2089  0.1918
36822SOL    HW112473   7.681   3.039   8.064  1.0745 -1.9003 -0.7032
36822SOL    HW212474   7.803   3.122   8.031  0.7834 -1.2741 -0.2182
36823SOL     OW12475   1.585   9.697   7.381  0.5839  0.2960 -0.1178
36823SOL    HW112476   1.508   9.641   7.392  0.1507  1.1571  1.5604
36823SOL    HW212477   1.559   9.760   7.314  1.2822 -1.7580 -2.4647
36824SOL     OW12478   1.715   2.876  10.003  0.2808 -0.2737  0.2230
36824SOL    HW112479   1.734   2.868  10.097 -0.7481  0.0726  0.4667
36824SOL    HW212480   1.620   2.875   9.997  0.3325 -1.7188 -0.9579
36825SOL     OW12481   3.132   9.733  10.053 -0.2372  0.2444  0.2442
36825SOL    HW112482   3.129   9.649  10.098 -0.6320 -0.1793 -0.5500
36825SOL    HW212483   3.138   9.798  10.123  0.6502 -0.4653  0.8370
36826SOL     OW12484   6.865   1.414   6.703 -0.2653 -0.0304  0.4561
36826SOL    HW112485   6.772   1.425   6.723 -0.6515 -0.8310 -0.8001
36826SOL    HW212486   6.883   1.323   6.722  0.1994  0.0559  0.4340
36827SOL     OW12487  10.798   3.531   5.171  0.5585 -0.3930  0.2374
36827SOL    HW112488  10.861   3.550   5.102  0.7553 -0.5104  0.3824
36827SOL    HW212489  10.750   3.454   5.139  1.2908 -1.0368  0.6423
36828SOL     OW12490   1.187   7.138   1.697 -0.1659 -0.4716  0.1428
36828SOL    HW112491   1.131   7.121   1.621  0.5511 -1.6049 -0.1612
36828SOL    HW212492   1.223   7.225   1.681  0.0646 -0.7404 -0.8941
36829SOL     OW12493   6.605   2.743   7.265 -0.4049  0.0134  0.2074
36829SOL    HW112494   6.565   2.662   7.234  0.6389  0.2686 -1.9721
36829SOL    HW212495   6.684   2.715   7.310  0.6080 -0.1990 -1.6001
36830SOL     OW12496   1.644  10.479  10.939 -0.4485 -0.2244 -0.1716
36830SOL    HW112497   1.605  10.558  10.975 -0.9901 -1.0754  1.1522
36830SOL    HW212498   1.713  10.456  11.001 -1.0215 -1.3936  0.0543
36831SOL     OW12499   4.879   6.099   6.762 -0.1037 -0.8272  0.3627
36831SOL    HW112500   4.844   6.090   6.673  1.8976 -2.1833 -0.3727
36831SOL    HW212501   4.872   6.011   6.799  0.2144 -0.5528  1.0842
36832SOL     OW12502  11.006   2.458   6.605 -0.1698  0.4143  0.2497
36832SOL    HW112503  11.050   2.511   6.538  0.3775 -1.4391 -0.9197
36832SOL    HW212504  10.932   2.418   6.559 -0.7187  0.3400  1.1795
36833SOL     OW12505   1.967   6.001   7.387  0.3203  0.2258 -0.2066
36833SOL    HW112506   1.983   6.000   7.481  1.8885 -1.9710 -0.4222
36833SOL    HW212507   2.054   6.009   7.348 -0.4001  2.5787 -1.5250
36834SOL     OW12508  10.249   1.263   1.423 -0.2215 -0.1522 -0.1115
36834SOL    HW112509  10.157   1.268   1.449  0.2385  1.0592  1.4690
36834SOL    HW212510  10.297   1.273   1.505  1.3345  0.1799 -1.0281
36835SOL     OW12511   6.307   1.197   2.689 -0.0359 -0.4010 -0.0973
36835SOL    HW112512   6.214   1.180   2.701 -0.2407 -0.4188 -1.6151
36835SOL    HW212513   6.349   1.112   2.707 -0.0098  0.1274  3.0152
36836SOL     OW12514   7.557   0.995   9.443  0.5578 -0.3595  0.6447
36836SOL    HW112515   7.529   1.084   9.461  0.1871 -0.7639  2.3061
36836SOL    HW212516   7.495   0.962   9.379 -1.4239 -0.4685  2.5090
36837SOL     OW12517   6.585   3.899   7.353  0.5090 -0.0007 -0.1908
36837SOL    HW112518   6.532   3.843   7.409  0.6346  0.9579  0.9410
36837SOL    HW212519   6.547   3.889   7.266 -0.0150 -1.1476  0.1426
36838SOL     OW12520   5.224   2.145   1.330  0.2305  0.1566  0.0461
36838SOL    HW112521   5.145   2.199   1.322  0.4349  0.3655 -0.6184
36838SOL    HW212522   5.263   2.146   1.243 -1.0688 -3.1371 -0.7148
36839SOL     OW12523  11.032   5.703   5.072  0.8332  0.2588  0.2464
36839SOL    HW112524  11.107   5.758   5.050  1.4646 -0.8865 -0.5627
36839SOL    HW212525  10.957   5.747   5.033  1.3660  0.4201 -0.6124
36840SOL     OW12526   0.286   7.406   6.080  0.1565  0.2478 -0.4711
36840SOL    HW112527   0.301   7.312   6.068  0.6940  0.5062 -2.0070
36840SOL    HW212528   0.214   7.426   6.020 -1.2650  0.4992  1.2178
36841SOL     OW12529   7.358   1.698   3.974 -0.0703  0.1938 -0.3879
36841SOL    HW112530   7.408   1.776   3.949 -0.0194  0.7446  1.3199
36841SOL    HW212531   7.266   1.723   3.959  0.0339 -0.1789 -1.7976
36842SOL     OW12532   5.314   8.734   6.148  0.4689  0.5192  0.1802
36842SOL    HW112533   5.219   8.723   6.137  0.3004  0.7335  1.2240
36842SOL    HW212534   5.330   8.706   6.239  1.4770  0.0748 -0.1228
36843SOL     OW12535  10.505   8.432   8.895  0.0653  0.4148  0.2678
36843SOL    HW112536  10.436   8.486   8.856  0.1141  1.1243  1.1278
36843SOL    HW212537  10.572   8.428   8.828 -0.4064  0.5248 -0.2206
36844SOL     OW12538   7.638  10.057   8.604  0.6889  0.4576 -0.1299
36844SOL    HW112539   7.608  10.080   8.516 -0.1248 -0.4525 -0.1131
36844SOL    HW212540   7.571   9.996   8.636  1.5418 -0.0557  0.7066
36845SOL     OW12541   5.487  11.018   1.430 -0.1993  0.4031  0.2478
36845SOL    HW112542   5.504  11.092   1.489  0.2753  0.4494  0.0632
36845SOL    HW212543   5.470  10.944   1.488  3.0449 -0.2512  0.5847
36846SOL     OW12544  10.886   8.425   8.502  0.0319  0.2475  0.4517
36846SOL    HW112545  10.908   8.386   8.587  0.2112  0.8509  0.6890
36846SOL    HW212546  10.971   8.454   8.467  0.3046 -2.1531 -1.0459
36847SOL     OW12547   1.269   1.767   7.322 -0.0960 -0.0306 -0.0868
36847SOL    HW112548   1.188   1.815   7.305 -0.0014 -0.5879 -2.5920
36847SOL    HW212549   1.241   1.685   7.362 -0.5596  0.5889  0.8979
36848SOL     OW12550   4.917   9.832   8.448 -0.2701 -0.2246  0.2654
36848SOL    HW112551   4.857   9.764   8.479  1.1578 -2.3560 -1.3735
36848SOL    HW212552   4.989   9.784   8.408  0.2867  2.2973 -2.0256
36849SOL     OW12553   0.390  10.006   7.664 -0.2714 -0.3448 -0.3888
36849SOL    HW112554   0.316  10.066   7.660 -0.6080 -0.7924 -0.9972
36849SOL    HW212555   0.461  10.051   7.618 -0.6778 -0.6203 -1.3026
36850SOL     OW12556   0.566   5.514   6.412  0.2710  0.0992 -0.4169
36850SOL    HW112557   0.602   5.509   6.323 -0.9196  1.8145 -1.0586
36850SOL    HW212558   0.642   5.532   6.467  0.9105 -0.0854 -1.2047
36851SOL     OW12559  10.392  10.094   6.826  0.4222  0.1675 -0.5044
36851SOL    HW112560  10.338  10.158   6.778 -1.3140 -0.5502  0.3922
36851SOL    HW212561  10.360  10.009   6.797  0.4275 -0.2750  0.7299
36852SOL     OW12562   0.845   2.951   0.197  0.4969 -0.4434  0.5119
36852SOL    HW112563   0.903   2.904   0.257  0.0627  0.2756  1.5282
36852SOL    HW212564   0.845   3.041   0.230 -0.3005 -0.1826 -0.1711
36853SOL     OW12565  10.125   1.312   2.365 -0.3586 -0.7058 -0.9904
36853SOL    HW112566  10.094   1.222   2.362 -1.8134 -0.2029 -2.9042
36853SOL    HW212567  10.116   1.344   2.275 -1.6380  1.9029 -0.0435
36854SOL     OW12568   6.338   0.107   9.588  0.3424  0.4929  0.7436
36854SOL    HW112569   6.286   0.188   9.580 -1.8276 -0.8927 -0.0111
36854SOL    HW212570   6.363   0.086   9.498  1.0099  0.3495  0.9548
36855SOL     OW12571   9.126   6.948   4.291 -0.5874  0.4861  0.1880
36855SOL    HW112572   9.052   7.000   4.323 -0.7826 -0.1157  0.7393
36855SOL    HW212573   9.201   7.007   4.295 -1.2104  1.4450 -1.3736
36856SOL     OW12574   0.304  10.126   1.879 -0.1128  0.3146 -0.6370
36856SOL    HW112575   0.377  10.096   1.933  0.0088  0.2203 -0.8518
36856SOL    HW212576   0.243  10.052   1.880 -0.6998  0.7909  0.4160
36857SOL     OW12577   1.488   4.243   8.070 -0.3707  0.2627  0.3087
36857SOL    HW112578   1.513   4.331   8.100 -1.3065  0.6044  0.1158
36857SOL    HW212579   1.444   4.259   7.986  0.4662 -0.4979 -0.2928
36858SOL     OW12580   2.441   3.913   0.650  0.4455  0.1618  0.3216
36858SOL    HW112581   2.430   3.998   0.607  0.9604  0.1985  0.2593
36858SOL    HW212582   2.366   3.907   0.710 -0.3564  0.0395 -0.6817
36859SOL     OW12583   6.174   7.771   2.310  0.1597  0.3131 -0.0985
36859SOL    HW112584   6.242   7.834   2.331  1.4715 -1.0948  0.0720
36859SOL    HW212585   6.213   7.715   2.243 -0.8485 -0.5020 -0.0332
36860SOL     OW12586   3.191   4.764   1.807  0.3625 -0.7260  0.0814
36860SOL    HW112587   3.284   4.785   1.793  0.4180 -0.6270  0.5856
36860SOL    HW212588   3.157   4.839   1.856 -0.0628 -0.6132 -0.3889
36861SOL     OW12589   7.240   5.006   6.472  0.1156  0.3098  0.0119
36861SOL    HW112590   7.201   4.927   6.434 -2.2474  0.0486  2.6290
36861SOL    HW212591   7.206   5.078   6.417 -0.7647 -0.2340 -0.1691
36862SOL     OW12592   3.105   9.656   9.303  0.3672  0.7091  0.0898
36862SOL    HW112593   3.060   9.659   9.218  1.3110  0.0722 -0.4468
36862SOL    HW212594   3.167   9.728   9.300 -0.4910  1.4969  0.7729
36863SOL     OW12595   0.882   2.367   3.984 -0.4329 -0.0567  0.0431
36863SOL    HW112596   0.889   2.295   4.047 -0.4877  0.9675  1.2485
36863SOL    HW212597   0.791   2.366   3.956  0.2708 -2.6441 -2.6842
36864SOL     OW12598   7.307   2.822   8.007  0.8267  0.4542  0.4491
36864SOL    HW112599   7.279   2.749   7.952 -0.8350 -0.1682  2.0084
36864SOL    HW212600   7.376   2.865   7.956  0.6680 -1.1621 -1.2661
36865SOL     OW12601   9.716   5.081   8.312  0.0386 -0.1783 -0.5472
36865SOL    HW112602   9.632   5.086   8.358  1.1391 -0.2751  1.6143
36865SOL    HW212603   9.696   5.108   8.222 -2.2510 -0.0390 -0.0542
36866SOL     OW12604   0.753   8.134   0.565 -0.1039  0.4371  0.1303
36866SOL    HW112605   0.743   8.188   0.486  1.1980 -0.6730 -0.8514
36866SOL    HW212606   0.796   8.192   0.628 -1.5554  1.4777  0.2369
36867SOL     OW12607   6.631   6.128   2.919 -0.3234 -0.6345 -0.4920
36867SOL    HW112608   6.714   6.085   2.898  0.6966  1.2489 -0.4747
36867SOL    HW212609   6.621   6.117   3.013  1.4318  1.5894  0.0347
36868SOL     OW12610   1.757   7.907   4.965  0.9080  0.5257 -0.3327
36868SOL    HW112611   1.841   7.938   4.932  0.3965  0.4624 -1.7874
36868SOL    HW212612   1.692   7.959   4.918  0.0816 -1.2902 -1.3145
36869SOL     OW12613   4.692   6.416   0.095 -0.1278 -0.6250  0.0318
36869SOL    HW112614   4.756   6.397   0.163  1.6779  1.2720 -1.0128
36869SOL    HW212615   4.704   6.509   0.076 -2.1448 -0.5694 -1.3032
36870SOL     OW12616   4.046   8.365   6.293  0.1089 -0.3472  0.4186
36870SOL    HW112617   4.057   8.439   6.352  0.7681 -1.0976  1.2710
36870SOL    HW212618   4.009   8.295   6.347 -1.5018 -0.3473 -0.6098
36871SOL     OW12619  10.054   5.863   4.123  0.0065 -0.0557 -0.2704
36871SOL    HW112620   9.963   5.871   4.097 -0.2860  0.6767  0.9176
36871SOL    HW212621  10.103   5.909   4.054 -0.5254 -0.2884 -0.8107
36872SOL     OW12622   2.955   1.146   8.895 -0.0711  0.0651  0.0249
36872SOL    HW112623   3.045   1.139   8.864 -0.7531 -0.0214 -2.1115
36872SOL    HW212624   2.902   1.112   8.822 -1.7406 -1.8201  1.9748
36873SOL     OW12625   4.028   3.591   1.944  0.2357 -0.0902  0.5516
36873SOL    HW112626   3.963   3.657   1.967 -0.3635 -0.0904 -1.0179
36873SOL    HW212627   4.061   3.618   1.859 -0.2519 -1.9473 -0.2857
36874SOL     OW12628   0.333   8.959  10.928  0.0446  0.8379 -0.2212
36874SOL    HW112629   0.285   8.983  10.849 -0.7782 -0.4582 -0.1425
36874SOL    HW212630   0.284   8.885  10.965 -0.1023  1.9521  1.9869
36875SOL     OW12631   4.336   5.820   8.432 -0.2577  0.1906  0.4983
36875SOL    HW112632   4.389   5.742   8.422 -0.0640  0.1971  1.3910
36875SOL    HW212633   4.310   5.844   8.343  1.2053  0.1738  0.0540
36876SOL     OW12634   8.981  10.367   4.985 -0.8130 -0.6601  0.6362
36876SOL    HW112635   8.929  10.436   4.943 -0.3787 -0.6600  0.0860
36876SOL    HW212636   8.944  10.286   4.952  0.0744 -0.6484 -0.4437
36877SOL     OW12637   4.214   9.996   5.822 -0.2243 -0.0654  0.0338
36877SOL    HW112638   4.160  10.073   5.803 -1.7732 -1.2704 -0.6459
36877SOL    HW212639   4.245  10.011   5.912 -2.2504  0.3830  0.7125
36878SOL     OW12640   2.196   4.405   4.710 -0.3651  0.0534 -0.3715
36878SOL    HW112641   2.191   4.319   4.751 -0.4966  0.1504 -0.1787
36878SOL    HW212642   2.113   4.447   4.734  0.4398  0.9036  1.0472
36879SOL     OW12643   7.843   3.032   7.695  0.4824  0.5140  0.0277
36879SOL    HW112644   7.800   3.110   7.730 -0.6487 -0.2035  0.3137
36879SOL    HW212645   7.934   3.058   7.681 -0.0936  2.1800 -0.8631
36880SOL     OW12646   5.960   5.798   5.231  0.2868  0.2230 -0.0594
36880SOL    HW112647   5.953   5.721   5.175 -0.1486  1.9622 -2.5788
36880SOL    HW212648   5.869   5.821   5.251  0.3218  0.9213 -0.6344
36881SOL     OW12649   6.915   1.588   4.414 -0.1180  0.0400  0.0397
36881SOL    HW112650   6.914   1.675   4.455 -2.5739  0.6708 -1.1900
36881SOL    HW212651   6.960   1.601   4.331 -0.9466  0.2942 -0.3820
36882SOL     OW12652   4.326   1.513  10.445  0.0104  0.2805 -0.4336
36882SOL    HW112653   4.346   1.528  10.352  1.6504  0.7520 -0.0361
36882SOL    HW212654   4.412   1.498  10.486 -0.5846  1.0958  1.1813
36883SOL     OW12655   6.416   2.469  10.288  0.0083  0.0155 -0.1992
36883SOL    HW112656   6.485   2.518  10.244 -1.2831  0.5660 -1.7168
36883SOL    HW212657   6.462   2.403  10.340  1.6729  0.5990 -0.8842
36884SOL     OW12658   9.135  10.599   5.308 -0.4807 -0.0800 -0.0678
36884SOL    HW112659   9.148  10.509   5.278 -0.4294 -0.1467  0.1583
36884SOL    HW212660   9.040  10.611   5.310 -0.5800 -0.8085  1.9246
36885SOL     OW12661   0.968   9.427   1.004  0.4071  0.3450 -0.2251
36885SOL    HW112662   0.945   9.515   0.974 -0.7089 -0.1298 -0.8100
36885SOL    HW212663   0.930   9.369   0.938  0.2152 -0.6176  0.7190
36886SOL     OW12664   6.296   2.003   8.947 -0.4928 -0.0682 -0.2066
36886SOL    HW112665   6.387   2.023   8.965 -1.1783  1.6439  1.6938
36886SOL    HW212666   6.254   1.999   9.033 -2.2150 -0.8450 -1.0218
36887SOL     OW12667   4.012   4.799   1.645  0.5917 -0.5753  0.2178
36887SOL    HW112668   4.090   4.848   1.618  1.4592 -1.9121  0.2126
36887SOL    HW212669   4.003   4.818   1.738  0.3030  0.4077 -0.0039
36888SOL     OW12670   6.128  10.053  10.945  0.4432 -0.0883  0.1809
36888SOL    HW112671   6.116  10.139  10.904 -0.1843 -0.0310  0.4811
36888SOL    HW212672   6.099  10.065  11.035  1.6970 -0.2481  0.6307
36889SOL     OW12673   6.893   5.979   5.431 -0.6357 -0.4378  0.2958
36889SOL    HW112674   6.934   6.044   5.487  0.9572 -1.0643 -0.1080
36889SOL    HW212675   6.852   5.917   5.492 -1.0846  0.2308  0.6935
36890SOL     OW12676   4.804  10.930   2.595 -0.2022  0.2151 -0.1798
36890SOL    HW112677   4.858  10.889   2.528 -1.5587 -0.0584 -1.1437
36890SOL    HW212678   4.845  11.016   2.610  0.5474 -0.0225 -0.7970
36891SOL     OW12679   8.005   1.471   0.007  0.3372 -0.3930  0.3606
36891SOL    HW112680   8.033   1.436   0.092 -0.8574 -0.4790  0.7381
36891SOL    HW212681   8.012   1.566   0.016  1.5359 -0.4355  0.0645
36892SOL     OW12682   7.843   2.741   1.308 -0.1384 -0.2036  0.4702
36892SOL    HW112683   7.872   2.823   1.267 -1.0421 -1.5088 -3.2277
36892SOL    HW212684   7.753   2.758   1.334 -0.2804  0.0501 -0.1561
36893SOL     OW12685   2.275   3.739   5.532 -0.3859  0.5458 -0.0118
36893SOL    HW112686   2.238   3.655   5.507  0.8160 -0.1920  0.6143
36893SOL    HW212687   2.285   3.787   5.450  0.9886 -0.7918 -0.6735
36894SOL     OW12688   5.802   9.613   3.529 -0.0092 -0.5521 -0.5535
36894SOL    HW112689   5.812   9.652   3.442 -0.2747 -0.6284 -0.6212
36894SOL    HW212690   5.830   9.522   3.518 -3.2407 -1.5635 -1.4208
36895SOL     OW12691   2.996   0.563   1.393 -0.1630  0.1481  0.3418
36895SOL    HW112692   3.066   0.628   1.395 -1.4906  1.6639 -0.0330
36895SOL    HW212693   3.036   0.485   1.353  1.9209  0.1060  2.3362
36896SOL     OW12694   6.756   3.441   3.902 -0.1775 -0.4261  0.9782
36896SOL    HW112695   6.678   3.438   3.848  0.3446 -0.1620  0.1978
36896SOL    HW212696   6.777   3.535   3.910 -0.7355 -0.3905  2.3671
36897SOL     OW12697   6.259   3.153   1.233  0.4483 -0.0575 -0.4076
36897SOL    HW112698   6.327   3.094   1.199  0.8710 -0.6298  1.3393
36897SOL    HW212699   6.303   3.205   1.299 -0.4588  0.6804 -0.3682
36898SOL     OW12700   0.238   6.348   4.965  0.1177  0.4357 -0.0898
36898SOL    HW112701   0.183   6.344   4.887 -0.4567  1.2289  0.2618
36898SOL    HW212702   0.194   6.291   5.028  1.0773 -0.9438 -0.6272
36899SOL     OW12703  10.799  11.020   0.653 -0.1034  0.3905 -0.2436
36899SOL    HW112704  10.894  11.005   0.645 -0.1710  0.9559 -3.5688
36899SOL    HW212705  10.780  11.089   0.589 -3.0149 -0.8996 -0.9365
36900SOL     OW12706   5.537   4.536   8.350  0.2990  0.4273 -0.1822
36900SOL    HW112707   5.565   4.529   8.259 -1.7426  0.2203 -0.8333
36900SOL    HW212708   5.619   4.543   8.399  1.4236  2.3644 -2.1396
36901SOL     OW12709  10.480   7.168   1.931  0.6705  0.1454 -0.2065
36901SOL    HW112710  10.386   7.173   1.911  0.9078 -0.9367 -1.7617
36901SOL    HW212711  10.483   7.128   2.018 -0.3161  0.7802  0.1407
36902SOL     OW12712   1.815   9.551   5.604  0.0017  0.7266  0.5901
36902SOL    HW112713   1.763   9.477   5.571 -0.0554  0.6695  0.8063
36902SOL    HW212714   1.776   9.628   5.563 -0.7676  0.7673  1.3672
36903SOL     OW12715   3.308   2.193   9.717 -0.3872  0.2055  0.3985
36903SOL    HW112716   3.252   2.261   9.754  0.8006  1.1618  0.5032
36903SOL    HW212717   3.347   2.234   9.640  0.2579 -0.3961  0.3951
36904SOL     OW12718   7.651   6.824   0.125  0.1400  0.1511 -0.2416
36904SOL    HW112719   7.679   6.752   0.068  0.5368 -1.8779  2.3211
36904SOL    HW212720   7.595   6.878   0.069 -0.5903 -2.4042 -2.2097
36905SOL     OW12721   7.196  10.814   4.366 -0.1561 -0.2761  0.0100
36905SOL    HW112722   7.276  10.840   4.412 -0.6129  0.1679  0.5699
36905SOL    HW212723   7.211  10.722   4.343  0.0998 -0.5140  1.0446
36906SOL     OW12724   1.938   4.751   5.372  0.1164  0.1118 -0.3164
36906SOL    HW112725   1.846   4.736   5.391 -0.0124 -0.8369 -1.5683
36906SOL    HW212726   1.946   4.846   5.362 -0.4336  0.3337  1.1364
36907SOL     OW12727   5.207   4.835   7.725  0.3566 -0.5292 -0.5430
36907SOL    HW112728   5.150   4.799   7.793 -1.5476 -0.0960 -1.8251
36907SOL    HW212729   5.189   4.782   7.647 -1.4929  2.1671 -2.1056
36908SOL     OW12730   5.662   2.053   0.361  0.2576 -0.4802  0.3843
36908SOL    HW112731   5.587   2.102   0.328  0.3862 -1.7996 -2.1257
36908SOL    HW212732   5.700   2.110   0.428 -2.0382  0.8936  0.6291
36909SOL     OW12733   0.028   0.742   7.028  0.0242 -0.3441 -0.6119
36909SOL    HW112734   0.039   0.714   6.937  0.6515 -1.5216 -0.1893
36909SOL    HW212735   0.040   0.663   7.079 -0.1843  0.3361  0.5154
36910SOL     OW12736   2.427   1.989   4.186 -0.5141  0.1634 -0.0476
36910SOL    HW112737   2.427   2.063   4.247 -2.0039  0.5652 -0.4778
36910SOL    HW212738   2.472   1.919   4.233 -1.1157  0.6346  1.3090
36911SOL     OW12739   8.364   7.933   3.867  0.2236  0.3126 -0.0582
36911SOL    HW112740   8.406   7.901   3.787 -0.4992 -1.0047  0.0546
36911SOL    HW212741   8.273   7.948   3.841  0.4494  1.9168  0.0126
36912SOL     OW12742   7.198   4.033   8.143 -0.1243 -0.7154 -0.1189
36912SOL    HW112743   7.142   4.024   8.220  1.3250 -1.1037  0.9259
36912SOL    HW212744   7.174   4.119   8.106 -0.5803 -0.3593  0.9711
36913SOL     OW12745  10.895   2.940   0.671  0.4006  0.4454  0.1128
36913SOL    HW112746  10.948   2.867   0.704 -0.0650  0.7871  1.7316
36913SOL    HW212747  10.851   2.905   0.594  1.6041 -0.3901 -0.2204
36914SOL     OW12748   1.518   1.213   1.325 -0.0769 -0.2176  0.6613
36914SOL    HW112749   1.474   1.297   1.337  1.5567  0.7002  0.5378
36914SOL    HW212750   1.515   1.197   1.231 -1.0270 -0.6938  0.7549
36915SOL     OW12751   9.687   0.762   1.595  0.3228  0.5220  0.2625
36915SOL    HW112752   9.614   0.700   1.601 -0.2053  0.9863 -1.0083
36915SOL    HW212753   9.717   0.755   1.505 -0.6958  3.1309 -0.3593
36916SOL     OW12754   6.652   6.920   2.816 -0.3333 -0.3944  0.0181
36916SOL    HW112755   6.693   6.906   2.730  0.3986 -1.7092  0.5564
36916SOL    HW212756   6.630   6.833   2.847  0.2625 -0.0195  1.5754
36917SOL     OW12757   4.080   7.709   1.225  0.2949  0.2006  0.2430
36917SOL    HW112758   4.036   7.763   1.159  0.7874  0.8801  0.4682
36917SOL    HW212759   4.013   7.647   1.253 -0.5171  1.1986  0.5578
36918SOL     OW12760   0.214   7.667   5.574  0.0910 -0.1084 -0.4466
36918SOL    HW112761   0.271   7.666   5.651 -1.2850  0.7151  0.6237
36918SOL    HW212762   0.212   7.758   5.547 -0.3679 -0.2028 -0.7416
36919SOL     OW12763   2.761  10.691   2.836  0.4389  0.0413 -0.1128
36919SOL    HW112764   2.708  10.764   2.806  1.6281  0.0479 -2.4044
36919SOL    HW212765   2.764  10.701   2.931 -1.3751  1.5701 -0.1691
36920SOL     OW12766   0.699   3.890   8.605  0.1443  0.2090 -0.6121
36920SOL    HW112767   0.742   3.957   8.658  0.2737 -0.3778  0.0499
36920SOL    HW212768   0.720   3.913   8.515  0.6484  0.7419 -0.3673
36921SOL     OW12769   5.483   5.356   4.391  0.3027  0.0252  0.3567
36921SOL    HW112770   5.411   5.412   4.420  0.9189  1.4411 -0.7299
36921SOL    HW212771   5.443   5.271   4.375 -1.1332  0.7825 -0.2193
36922SOL     OW12772   8.554   2.603  10.526  0.2033  0.3184  0.6343
36922SOL    HW112773   8.613   2.529  10.518  0.0914  0.3486 -0.7038
36922SOL    HW212774   8.605   2.670  10.571  0.7787 -0.0781  0.5807
36923SOL     OW12775   8.265   1.512   7.193  0.6225 -0.8854  0.1611
36923SOL    HW112776   8.273   1.530   7.099  0.4549 -2.2293 -0.1333
36923SOL    HW212777   8.271   1.598   7.235 -0.7405 -0.1008 -1.1715
36924SOL     OW12778   1.740   1.644   1.512  0.2184 -0.3158 -0.2896
36924SOL    HW112779   1.763   1.652   1.420  1.4429  0.5186  0.0774
36924SOL    HW212780   1.646   1.662   1.514  0.2619  0.0952 -1.3094
36925SOL     OW12781   0.798   7.523   8.450 -0.1560  0.0443 -0.1952
36925SOL    HW112782   0.703   7.529   8.437 -0.8856 -1.7253  3.1862
36925SOL    HW212783   0.812   7.550   8.540  3.0015  2.5525 -1.2224
36926SOL     OW12784   6.943   0.693   3.615  0.0506  0.0642  0.1058
36926SOL    HW112785   6.978   0.750   3.684  0.1060 -0.4896  0.5394
36926SOL    HW212786   6.893   0.626   3.661 -1.5061  0.7683 -0.5064
36927SOL     OW12787   7.403   4.618   3.263 -0.5485  0.5341  0.6684
36927SOL    HW112788   7.490   4.648   3.289 -1.0257  1.4258  1.2499
36927SOL    HW212789   7.412   4.522   3.257  1.5549  0.7598 -3.1770
36928SOL     OW12790   2.268   2.645   1.034  0.4518  0.3394  0.0132
36928SOL    HW112791   2.343   2.703   1.053 -0.6309  2.4542 -1.7102
36928SOL    HW212792   2.191   2.700   1.050 -0.7936 -1.6823  1.4228
36929SOL     OW12793   7.213   3.920  10.063 -0.2256 -0.8300  0.0550
36929SOL    HW112794   7.302   3.888  10.069 -0.7473 -2.9092 -2.0854
36929SOL    HW212795   7.216   3.988   9.995  0.0732  0.7183  1.5486
36930SOL     OW12796   5.521   1.378   7.157 -0.3770  0.4962  0.2333
36930SOL    HW112797   5.563   1.456   7.119  0.5096 -0.1312 -0.1174
36930SOL    HW212798   5.446   1.362   7.101  0.1119  0.4135 -0.4155
36931SOL     OW12799   2.064   6.891   7.981  0.1174 -0.1356 -0.0411
36931SOL    HW112800   1.988   6.871   7.925 -1.5985  0.9081  1.7779
36931SOL    HW212801   2.091   6.806   8.016 -1.3050 -0.3616  0.5701
36932SOL     OW12802   7.922  11.023   2.086 -0.6101  0.5940  0.1235
36932SOL    HW112803   7.923  11.114   2.115 -0.5234  0.1405  1.6640
36932SOL    HW212804   8.014  10.999   2.075 -0.5590  0.3287  1.0248
36933SOL     OW12805   9.381   6.898   9.116 -0.5239  0.2418  0.0703
36933SOL    HW112806   9.402   6.855   9.032  0.2991 -1.2331  0.9824
36933SOL    HW212807   9.285   6.897   9.120 -0.5491 -0.4646 -0.4745
36934SOL     OW12808   8.023   0.737   7.862  0.4563  0.0451 -0.7004
36934SOL    HW112809   7.936   0.729   7.823 -0.3481  0.4604  0.9201
36934SOL    HW212810   8.007   0.736   7.956  2.1078  1.2816 -0.3676
36935SOL     OW12811   3.559   7.852   8.481  0.6930 -0.2732  0.1119
36935SOL    HW112812   3.555   7.883   8.571 -0.3000 -1.0612  0.3673
36935SOL    HW212813   3.486   7.896   8.437  0.9871 -0.1190 -0.2257
36936SOL     OW12814   4.075  11.032   7.474  0.2870 -0.4467 -0.6871
36936SOL    HW112815   4.096  10.959   7.415  1.0066  0.4152 -1.5251
36936SOL    HW212816   4.090  11.110   7.421  2.0323  0.3953  0.9374
36937SOL     OW12817   5.743   2.171   3.216  0.0380 -0.0912 -0.1006
36937SOL    HW112818   5.828   2.129   3.206  0.4715  0.4010  1.2055
36937SOL    HW212819   5.680   2.102   3.201  0.7326 -1.3375  2.1781
36938SOL     OW12820   3.447   1.456   3.999 -0.2988  0.0439 -0.4264
36938SOL    HW112821   3.496   1.421   3.925 -1.8467  0.0675 -1.5191
36938SOL    HW212822   3.434   1.380   4.057 -0.2142 -0.2856 -0.8346
36939SOL     OW12823   1.487   2.583   8.207 -0.1087  0.1442 -0.4866
36939SOL    HW112824   1.531   2.536   8.135 -0.0989  1.7795 -1.6023
36939SOL    HW212825   1.417   2.524   8.234  0.0573 -0.6409 -1.6739
36940SOL     OW12826   4.800   8.366   5.688  0.3103 -0.3152  0.4148
36940SOL    HW112827   4.821   8.359   5.595  0.8600  2.3665  0.2504
36940SOL    HW212828   4.882   8.392   5.729 -0.6645  2.0752  1.0425
36941SOL     OW12829   9.187   4.567   7.668  0.0877 -0.0049  0.2885
36941SOL    HW112830   9.143   4.552   7.584  1.4544 -0.9281 -0.3004
36941SOL    HW212831   9.259   4.625   7.647  0.4476 -0.2512  0.8233
36942SOL     OW12832   7.410   9.338   9.550  0.0766  0.1679 -0.4135
36942SOL    HW112833   7.325   9.353   9.591 -0.8651 -0.0941 -2.1952
36942SOL    HW212834   7.422   9.243   9.555  0.5588  0.2628  0.3669
36943SOL     OW12835   9.511   7.233   3.531  0.3754  0.0851  0.6169
36943SOL    HW112836   9.538   7.144   3.510 -0.6793  0.2560 -1.6892
36943SOL    HW212837   9.479   7.227   3.621 -0.7241 -2.1161  0.1386
36944SOL     OW12838  10.891   2.086   9.203 -0.1535  0.1441  0.1088
36944SOL    HW112839  10.898   1.993   9.180 -1.2970  0.3618 -1.2474
36944SOL    HW212840  10.844   2.125   9.130 -1.2396  1.4794  1.4572
36945SOL     OW12841   8.494   7.056   8.295 -0.5819 -0.7071  0.1587
36945SOL    HW112842   8.479   6.969   8.259  0.5108 -0.6229 -0.5376
36945SOL    HW212843   8.534   7.105   8.224  1.1352 -0.3804  1.3035
36946SOL     OW12844   6.136  10.864   6.552 -0.1937 -0.3983  0.1408
36946SOL    HW112845   6.193  10.937   6.575 -1.3206  0.1951  1.1223
36946SOL    HW212846   6.112  10.824   6.635 -0.3044 -1.3525 -0.3290
36947SOL     OW12847   9.727   2.677   8.135  0.1255 -1.1671 -0.6019
36947SOL    HW112848   9.804   2.624   8.151 -0.9645 -1.9108  2.9346
36947SOL    HW212849   9.751   2.765   8.165 -0.5133 -1.5429  1.1226
36948SOL     OW12850   0.084   9.048   3.542  0.3384  0.1461  0.0961
36948SOL    HW112851   0.022   9.081   3.607  0.3833  0.8616 -0.2043
36948SOL    HW212852   0.030   9.021   3.468  0.4310  3.2467 -1.2672
36949SOL     OW12853   6.880   3.179   0.609  0.0971 -0.3577 -0.4324
36949SOL    HW112854   6.951   3.175   0.545  1.3025 -1.3242  0.8888
36949SOL    HW212855   6.919   3.144   0.690 -1.5579  0.1796  0.6452
36950SOL     OW12856   7.863   8.937   2.462 -0.0878  0.3101  0.3228
36950SOL    HW112857   7.846   8.892   2.545  1.6603 -0.1286  0.4855
36950SOL    HW212858   7.891   8.867   2.403  2.1170  1.0510  0.4108
36951SOL     OW12859   9.197   8.840   0.423  0.0239  0.6843  0.1057
36951SOL    HW112860   9.234   8.852   0.336  0.0521  0.8939  0.1466
36951SOL    HW212861   9.137   8.765   0.414  0.5439  0.2676  0.0716
36952SOL     OW12862   5.698   7.814   9.165  0.2886  0.3836  0.4956
36952SOL    HW112863   5.793   7.808   9.152  0.5623  1.1948  1.9535
36952SOL    HW212864   5.677   7.904   9.140  0.2186  0.7845  1.9438
36953SOL     OW12865   7.218   5.928   2.370  0.2886 -0.2253 -0.2330
36953SOL    HW112866   7.311   5.910   2.355  0.0009 -0.0158 -2.6016
36953SOL    HW212867   7.208   6.022   2.354  0.0338  0.2571  2.3496
36954SOL     OW12868   0.608  11.011   0.108  0.2142 -0.0101  0.2515
36954SOL    HW112869   0.515  10.999   0.091  0.3092  1.6230 -1.7449
36954SOL    HW212870   0.618  11.104   0.128  1.2896 -0.3899  1.6969
36955SOL     OW12871   2.001   6.385   9.273  0.7068  0.1668 -0.4234
36955SOL    HW112872   1.980   6.384   9.179  0.3159 -0.5876 -0.3399
36955SOL    HW212873   2.089   6.349   9.278 -0.5801 -3.4534 -0.2666
36956SOL     OW12874   7.063   3.006   7.679 -0.2052 -0.6104  0.2370
36956SOL    HW112875   7.046   2.998   7.585  2.0080 -0.4159 -0.2345
36956SOL    HW212876   7.019   3.088   7.705 -0.0260 -0.1593 -0.8420
36957SOL     OW12877   3.426  11.039   9.196 -0.1587 -0.0073 -0.0664
36957SOL    HW112878   3.470  11.125   9.196  1.3815 -0.7613 -0.3911
36957SOL    HW212879   3.453  10.998   9.114 -0.5737 -0.9545  0.2573
36958SOL     OW12880   3.497   7.376   8.251 -0.5003 -0.4336  0.5188
36958SOL    HW112881   3.582   7.340   8.226 -2.0104 -2.0989 -2.7513
36958SOL    HW212882   3.450   7.302   8.289 -1.3712 -0.2337 -0.1439
36959SOL     OW12883   5.236   7.158   3.353  0.0288  0.2114 -0.2776
36959SOL    HW112884   5.212   7.066   3.359  0.2134  0.1760 -0.0886
36959SOL    HW212885   5.194   7.188   3.272  3.3499 -1.0751 -2.7023
36960SOL     OW12886   0.698   8.095  10.406 -0.1600 -0.2881  0.5164
36960SOL    HW112887   0.690   8.159  10.476  1.9806 -0.1592  0.7112
36960SOL    HW212888   0.615   8.047  10.407 -0.7391  0.6861  2.1402
36961SOL     OW12889   7.073   7.320   2.621  0.3675  0.2355 -0.6938
36961SOL    HW112890   6.988   7.364   2.631  1.3245  1.7702  1.3728
36961SOL    HW212891   7.132   7.388   2.589  1.5968  0.1742  1.3160
36962SOL     OW12892   1.920   8.611   0.507 -0.0559  0.4949  0.2170
36962SOL    HW112893   1.910   8.705   0.521  1.0840  0.5236  0.9884
36962SOL    HW212894   2.000   8.588   0.554  1.0546 -0.4088 -1.9652
36963SOL     OW12895   8.691   7.604   2.236  0.3403 -0.5262 -0.2252
36963SOL    HW112896   8.778   7.644   2.232  0.3229 -0.4851 -0.1946
36963SOL    HW212897   8.640   7.663   2.292 -0.1170  0.2152 -1.3745
36964SOL     OW12898   5.321   9.678   1.797 -0.1442 -0.0982  0.2450
36964SOL    HW112899   5.296   9.590   1.768  3.0480 -0.9764 -0.3365
36964SOL    HW212900   5.287   9.685   1.886 -2.4992 -0.9292 -0.5253
36965SOL     OW12901   8.655   1.178  10.684  0.1123 -0.0438  0.2901
36965SOL    HW112902   8.705   1.122  10.625  0.5657 -0.5406  1.1373
36965SOL    HW212903   8.571   1.133  10.695  0.9310 -1.2982  1.9960
36966SOL     OW12904   8.087   5.339   2.361  0.4504 -0.2522  0.6729
36966SOL    HW112905   8.170   5.360   2.317  0.4000  1.2814  1.2308
36966SOL    HW212906   8.102   5.253   2.399  1.0764 -0.8906 -0.8971
36967SOL     OW12907   0.863   0.821   3.931 -0.5110 -0.0654  0.0433
36967SOL    HW112908   0.852   0.756   3.862 -0.6896  0.6597 -0.6215
36967SOL    HW212909   0.950   0.803   3.967  0.0441  0.2219 -1.0975
36968SOL     OW12910   5.933   6.660   3.238 -0.5829  0.1608  0.0150
36968SOL    HW112911   5.956   6.753   3.234  1.2771 -0.2892 -1.3306
36968SOL    HW212912   5.842   6.659   3.268 -1.0862  2.4769 -1.1725
36969SOL     OW12913  10.705   8.998  10.833 -0.4078 -0.2631  0.5341
36969SOL    HW112914  10.771   9.057  10.869 -1.0894 -0.7955  2.8554
36969SOL    HW212915  10.754   8.918  10.811  0.0349  0.0887  0.2191
36970SOL     OW12916   4.220   2.319   0.625  0.1948 -0.4344 -0.0491
36970SOL    HW112917   4.315   2.312   0.625  0.5613  2.9782 -0.0356
36970SOL    HW212918   4.193   2.279   0.707  1.9869  1.3443  1.5025
36971SOL     OW12919  10.083   0.070   4.189  0.3542  0.2718 -0.3217
36971SOL    HW112920  10.054  -0.012   4.148  3.7036 -1.1593 -0.1166
36971SOL    HW212921  10.120   0.121   4.117 -1.8079  1.7774 -0.4700
36972SOL     OW12922   1.430   8.403   9.045 -0.0136  0.3251 -0.0782
36972SOL    HW112923   1.522   8.377   9.039  0.5190  1.1050  3.0116
36972SOL    HW212924   1.402   8.374   9.132 -2.7307  0.1319 -0.9058
36973SOL     OW12925   4.724   3.113   4.242  0.4978 -0.1025  0.4056
36973SOL    HW112926   4.672   3.171   4.297 -1.3714  1.3976 -2.6767
36973SOL    HW212927   4.814   3.125   4.273 -0.4074  0.6970  2.9781
36974SOL     OW12928   1.424   6.719   7.849 -0.0957  0.2762  0.6774
36974SOL    HW112929   1.344   6.684   7.889  0.3319 -0.0517  1.2799
36974SOL    HW212930   1.484   6.644   7.848 -0.0923  0.2804 -0.6049
36975SOL     OW12931   3.812  10.217  10.480  0.3061 -0.6001  0.3326
36975SOL    HW112932   3.728  10.249  10.512 -0.0401 -0.5866 -0.5529
36975SOL    HW212933   3.818  10.251  10.391  0.0663 -2.6954 -0.5361
36976SOL     OW12934   0.685   0.023   0.447  0.7734 -0.9373  0.0366
36976SOL    HW112935   0.746   0.032   0.375 -0.9113 -1.6803 -1.5763
36976SOL    HW212936   0.599   0.021   0.405 -0.5576  1.8411  2.2909
36977SOL     OW12937  10.281   6.717   6.494  0.3131  0.2367 -0.7192
36977SOL    HW112938  10.248   6.659   6.562  1.1687 -0.1272 -0.5949
36977SOL    HW212939  10.317   6.792   6.542  0.8454  0.0165 -0.7605
36978SOL     OW12940   4.821   5.483   4.095 -0.0084  0.0851 -0.1304
36978SOL    HW112941   4.759   5.442   4.155  0.9692 -0.5908  0.4568
36978SOL    HW212942   4.835   5.571   4.131 -0.3003  0.0834 -0.0135
36979SOL     OW12943   5.407   8.785   3.387  0.3994  0.7877  0.0391
36979SOL    HW112944   5.377   8.724   3.320 -0.1431  1.6366 -0.5008
36979SOL    HW212945   5.327   8.810   3.434  0.9272 -0.9390  2.0164
36980SOL     OW12946   6.583   5.530   1.544 -0.0702 -0.0125  0.1747
36980SOL    HW112947   6.620   5.599   1.489 -1.8553  2.3475  1.7132
36980SOL    HW212948   6.490   5.530   1.523 -0.4065 -0.6339  1.5417
36981SOL     OW12949   6.691  10.713  10.461 -0.2217 -0.4417  0.4506
36981SOL    HW112950   6.675  10.780  10.527  3.0462  0.7579  0.2216
36981SOL    HW212951   6.680  10.758  10.377  0.2931 -0.6230  0.2775
36982SOL     OW12952  10.151   3.345   7.196  0.2043 -0.1785  0.0534
36982SOL    HW112953  10.166   3.438   7.178 -0.3977 -0.1189 -0.1595
36982SOL    HW212954  10.232   3.302   7.170  0.2587  0.2127 -0.4216
36983SOL     OW12955   4.527   8.028   9.684  0.0328 -0.5477 -0.4057
36983SOL    HW112956   4.525   7.979   9.766  0.9044 -0.2531 -0.1902
36983SOL    HW212957   4.573   8.109   9.706 -0.4822 -0.0933 -0.9905
36984SOL     OW12958   3.571   4.002   2.067  0.2975  0.2186 -0.2647
36984SOL    HW112959   3.603   3.971   2.152 -0.9827 -0.8977 -0.1437
36984SOL    HW212960   3.639   3.977   2.005  0.6398 -0.1563  0.2543
36985SOL     OW12961   5.795   1.442  10.456  0.3483 -0.1117 -0.0832
36985SOL    HW112962   5.710   1.487  10.454 -0.4501 -1.5206  0.6779
36985SOL    HW212963   5.780   1.360  10.409  0.9048 -0.9768  1.1855
36986SOL     OW12964   1.646   1.733   9.821 -0.0485  0.5764  0.1377
36986SOL    HW112965   1.615   1.771   9.739 -0.6781 -0.9206 -0.3492
36986SOL    HW212966   1.633   1.638   9.811 -0.9610  0.4040  2.2767
36987SOL     OW12967   0.463   4.773   4.220  0.0208 -0.9731  0.1809
36987SOL    HW112968   0.377   4.772   4.178  0.7291  1.1555 -1.5319
36987SOL    HW212969   0.524   4.781   4.147  1.4375  1.3388  1.5121
36988SOL     OW12970   3.854   2.969   1.158 -0.7566  0.3215  0.0803
36988SOL    HW112971   3.899   3.051   1.177 -1.7714  0.9527 -0.1313
36988SOL    HW212972   3.893   2.937   1.077  0.2877  0.1026  0.6602
36989SOL     OW12973   9.341   2.279   0.145 -0.2242  0.2240 -0.1394
36989SOL    HW112974   9.289   2.307   0.070  1.8399  1.6894 -1.1254
36989SOL    HW212975   9.418   2.237   0.106  0.4561  0.2163  1.1676
36990SOL     OW12976   4.934   1.128  10.019  0.4642  0.4800  0.1239
36990SOL    HW112977   4.851   1.175  10.008 -0.4489 -1.3520 -1.2103
36990SOL    HW212978   4.987   1.156   9.944  1.1129  1.6827  0.9996
36991SOL     OW12979   8.312   8.543   1.459 -0.1964  0.1651  0.2563
36991SOL    HW112980   8.295   8.637   1.469 -0.8710 -0.1357  2.5471
36991SOL    HW212981   8.291   8.506   1.545  2.1401 -1.7928  0.0802
36992SOL     OW12982  10.339   6.723   8.197  0.4152 -0.5660  0.5159
36992SOL    HW112983  10.305   6.693   8.112 -0.4290  0.5398  0.4370
36992SOL    HW212984  10.363   6.643   8.243  0.1699 -1.2273 -0.4740
36993SOL     OW12985  10.368   1.955  10.026  0.0117 -0.0237 -0.2770
36993SOL    HW112986  10.332   1.931   9.941 -2.8627  2.8252 -0.0345
36993SOL    HW212987  10.463   1.955  10.012  0.0272 -4.3559 -1.9734
36994SOL     OW12988  10.367   8.550   9.967 -0.7036  0.9605  1.1395
36994SOL    HW112989  10.425   8.485   9.926 -1.8363  0.8649 -0.4010
36994SOL    HW212990  10.353   8.516  10.056  2.1399  1.3793  1.8549
36995SOL     OW12991  10.448  10.729   3.697 -0.2858 -0.7028 -0.2797
36995SOL    HW112992  10.391  10.747   3.623  1.1183 -2.0215 -1.7570
36995SOL    HW212993  10.444  10.634   3.708  0.8252 -0.7082  0.2440
36996SOL     OW12994   5.427   4.023   3.914 -0.1303 -0.4367 -0.1620
36996SOL    HW112995   5.488   3.951   3.932 -1.8790 -2.4872 -1.9098
36996SOL    HW212996   5.423   4.027   3.819  0.0294  2.1630 -0.1141
36997SOL     OW12997   5.185   5.157   9.155  0.0850 -0.1624 -0.4140
36997SOL    HW112998   5.175   5.252   9.149 -0.0036 -0.2408 -1.6392
36997SOL    HW212999   5.277   5.141   9.134 -0.2533 -0.4576 -1.7288
36998SOL     OW13000   8.097   3.591   1.211  0.2265 -0.1520  0.0795
36998SOL    HW113001   8.138   3.666   1.169  1.7932 -0.9249  0.1597
36998SOL    HW213002   8.169   3.530   1.227 -1.0270 -1.7590 -0.1432
36999SOL     OW13003   1.623   3.502   6.196  0.1520 -0.4224 -0.0042
36999SOL    HW113004   1.585   3.465   6.116 -0.3623  3.0640 -1.5637
36999SOL    HW213005   1.547   3.528   6.248  0.4752 -3.2221  2.0305
37000SOL     OW13006   1.841   9.883   5.363  0.4946 -1.0284 -0.1154
37000SOL    HW113007   1.754   9.923   5.361  1.4947  1.4813  1.3344
37000SOL    HW213008   1.825   9.789   5.357 -2.2717 -0.6249 -0.2761
37001SOL     OW13009   7.276   6.710   8.799 -0.1493  0.2483  0.0065
37001SOL    HW113010   7.204   6.704   8.862 -0.0213  0.1993  0.1467
37001SOL    HW213011   7.235   6.691   8.714 -0.7980  2.4656 -0.2452
37002SOL     OW13012   3.040   5.162  10.843  0.2887 -0.3110  0.7552
37002SOL    HW113013   3.134   5.178  10.848  0.3501  0.1572 -0.9996
37002SOL    HW213014   3.000   5.238  10.886  0.7108  0.8410 -0.7756
37003SOL     OW13015   7.311   9.541   6.312 -0.1877 -0.1553 -0.5395
37003SOL    HW113016   7.298   9.522   6.404 -0.9998  1.0382 -0.3841
37003SOL    HW213017   7.320   9.636   6.308  3.4297 -0.3870 -1.2786
37004SOL     OW13018   4.400   7.892   4.202 -0.5998  0.1869  0.0552
37004SOL    HW113019   4.378   7.822   4.263 -0.3506 -0.6812 -0.8192
37004SOL    HW213020   4.474   7.937   4.244 -0.1308 -0.6803  0.1998
37005SOL     OW13021   5.742   9.910   5.105  0.1312 -0.1161 -0.3636
37005SOL    HW113022   5.718   9.842   5.168  0.2998 -0.2651 -0.4567
37005SOL    HW213023   5.794   9.973   5.155  0.7258 -0.5143 -0.4733
37006SOL     OW13024   3.846   2.904  10.027 -0.0951  0.1515  0.3821
37006SOL    HW113025   3.775   2.925  10.088 -0.4052 -2.5770  1.0776
37006SOL    HW213026   3.918   2.876  10.083  0.4846 -0.0056 -0.4241
37007SOL     OW13027   3.527   2.696   0.071  0.2405  0.6395  0.0932
37007SOL    HW113028   3.563   2.680   0.159  0.5010 -0.8770 -0.2652
37007SOL    HW213029   3.594   2.749   0.028  1.4170 -0.9178 -0.0742
37008SOL     OW13030   4.556  10.644   6.314  0.1603 -0.0874 -0.4721
37008SOL    HW113031   4.634  10.674   6.360  0.3960 -0.8097 -0.3952
37008SOL    HW213032   4.585  10.569   6.263 -0.7324 -1.0595  0.4258
37009SOL     OW13033   3.094   6.656   2.788 -0.1623 -0.7777 -0.3166
37009SOL    HW113034   3.081   6.653   2.693 -1.1479 -2.9572 -0.1653
37009SOL    HW213035   3.189   6.657   2.799 -0.0291 -0.0290 -1.3052
37010SOL     OW13036   3.833   8.878   3.260 -0.9465  0.0443  0.1465
37010SOL    HW113037   3.790   8.801   3.298  0.6332 -0.3499  1.2015
37010SOL    HW213038   3.827   8.863   3.166 -0.4926 -1.4954  0.3250
37011SOL     OW13039   2.807   8.910   2.874 -0.2404 -0.2676 -0.3643
37011SOL    HW113040   2.824   8.916   2.968 -3.2518 -1.9484  0.4328
37011SOL    HW213041   2.804   8.816   2.857 -0.4115  0.0114 -2.0364
37012SOL     OW13042   4.021   5.772  10.028  0.3272  0.0520 -0.0082
37012SOL    HW113043   3.956   5.840  10.009 -2.6691 -2.2577  1.0898
37012SOL    HW213044   4.016   5.759  10.123  1.8301 -0.7833 -0.0094
37013SOL     OW13045   4.193   7.565   9.683 -0.0584  0.0696  0.0204
37013SOL    HW113046   4.254   7.515   9.628  0.0834 -0.7153  0.8654
37013SOL    HW213047   4.108   7.548   9.644 -0.0208 -0.9117  0.3190
37014SOL     OW13048   6.733   0.305   2.804  0.3097 -0.2697 -0.2249
37014SOL    HW113049   6.757   0.298   2.712 -1.1401 -0.5756 -0.6130
37014SOL    HW213050   6.678   0.383   2.809  2.1009  1.0109  0.8145
37015SOL     OW13051   4.769   8.404   1.519  0.1971  0.8287  0.3710
37015SOL    HW113052   4.685   8.366   1.544  0.5563  0.5690  1.1958
37015SOL    HW213053   4.833   8.356   1.570  0.9087  0.6568 -0.6514
37016SOL     OW13054  10.499  10.284  10.829 -0.4316  0.5165  0.1403
37016SOL    HW113055  10.469  10.331  10.907 -0.2784 -0.6161  0.9020
37016SOL    HW213056  10.586  10.321  10.811  0.0718 -0.0756  1.2688
37017SOL     OW13057   5.844   1.139   5.360 -0.3191  0.0072  0.6408
37017SOL    HW113058   5.790   1.183   5.426 -1.0918  0.4333 -0.2673
37017SOL    HW213059   5.885   1.210   5.310  0.0028 -0.3149  0.4400
37018SOL     OW13060   7.433   2.293   7.726  0.4262 -0.4913  0.0822
37018SOL    HW113061   7.522   2.306   7.691  0.9132 -0.6285  1.2458
37018SOL    HW213062   7.440   2.216   7.782 -0.3130 -0.2173  0.5629
37019SOL     OW13063   2.170   5.186   9.909 -0.2905 -0.2011  0.1033
37019SOL    HW113064   2.173   5.096   9.942  0.1935 -0.4626 -0.6080
37019SOL    HW213065   2.247   5.228   9.946 -0.0227 -0.3481 -0.2788
37020SOL     OW13066   7.736   4.076  10.761 -0.3806 -0.1371  0.0321
37020SOL    HW113067   7.686   4.059  10.681 -0.8345  0.8156  0.1093
37020SOL    HW213068   7.810   4.015  10.755 -0.4474 -0.1345 -1.0796
37021SOL     OW13069   9.187   5.369  10.620  0.2696  0.4332 -0.4096
37021SOL    HW113070   9.183   5.464  10.609 -0.9748  0.4972  0.3969
37021SOL    HW213071   9.272   5.352  10.661  0.3829  1.2206 -0.3138
37022SOL     OW13072  10.041   5.362   8.809  0.3464 -0.2344  0.1541
37022SOL    HW113073   9.980   5.288   8.813  0.1365 -0.1481 -1.2372
37022SOL    HW213074  10.049   5.390   8.901 -0.2840 -1.3877  0.5916
37023SOL     OW13075  10.143   4.858  10.353 -0.3596 -0.3333  0.0782
37023SOL    HW113076  10.150   4.763  10.347  2.4794 -0.2953  1.1329
37023SOL    HW213077  10.059   4.874  10.396  0.9882 -2.6742  4.0896
37024SOL     OW13078   1.725   0.220   7.914 -0.2148  0.3781  0.2947
37024SOL    HW113079   1.819   0.207   7.906  0.1296  0.8300  3.0122
37024SOL    HW213080   1.714   0.314   7.924 -1.1154  0.4774 -1.2669
37025SOL     OW13081   7.124   7.601   8.814  0.1919 -0.6687  0.3852
37025SOL    HW113082   7.111   7.518   8.769 -1.5284  0.3737 -1.1602
37025SOL    HW213083   7.051   7.608   8.874 -0.1092  0.0699 -0.0578
37026SOL     OW13084   5.533   7.529   6.524 -0.2106 -0.2777 -0.2393
37026SOL    HW113085   5.512   7.502   6.613  0.7746  0.3527  0.2107
37026SOL    HW213086   5.487   7.612   6.513  0.2286 -0.0058 -0.0559
37027SOL     OW13087  10.141   7.354   7.322 -0.0487 -0.1567  0.2763
37027SOL    HW113088  10.183   7.313   7.247  1.0853 -0.6155  1.1206
37027SOL    HW213089  10.048   7.331   7.314  0.1361 -0.6017 -0.7122
37028SOL     OW13090   3.191   0.831   7.357 -0.4976 -0.1334 -0.4705
37028SOL    HW113091   3.237   0.782   7.425 -0.0651 -0.8825 -1.2785
37028SOL    HW213092   3.261   0.869   7.305 -0.8288  1.3423  0.1228
37029SOL     OW13093   9.951   0.053   4.886 -0.2175 -0.4060 -0.3735
37029SOL    HW113094   9.952   0.116   4.814  0.5317 -1.1675 -1.0482
37029SOL    HW213095   9.922  -0.029   4.846  0.2749 -0.8523  0.1690
37030SOL     OW13096   6.978   4.699   7.387  0.0499 -0.2342 -0.3402
37030SOL    HW113097   7.014   4.611   7.385  0.9847  0.1572 -2.0695
37030SOL    HW213098   6.907   4.694   7.452  2.4275 -1.3052  2.4019
37031SOL     OW13099   5.693  10.920  10.582  0.2433  0.0142 -0.0844
37031SOL    HW113100   5.678  10.871  10.502  0.9232 -1.8733  0.8834
37031SOL    HW213101   5.648  11.004  10.568 -0.1241 -0.4801 -2.1781
37032SOL     OW13102   8.781   9.467   3.306 -0.3762 -0.2925  0.1483
37032SOL    HW113103   8.788   9.373   3.323 -0.0354 -0.0395  1.5487
37032SOL    HW213104   8.690   9.487   3.328 -0.3992 -0.2666  0.0248
37033SOL     OW13105   9.422   1.652   4.843 -0.1824  0.7576 -0.6595
37033SOL    HW113106   9.351   1.592   4.869  0.5257  0.2766  0.2267
37033SOL    HW213107   9.477   1.659   4.921  1.9834 -0.6464 -1.9441
37034SOL     OW13108   6.237   4.329   8.398  0.0345 -0.4617 -0.5073
37034SOL    HW113109   6.208   4.403   8.344 -1.4003 -1.1505 -0.7154
37034SOL    HW213110   6.157   4.291   8.433  0.6555 -2.3916 -1.0317
37035SOL     OW13111   4.643   5.538   2.526 -0.3193  0.4109  0.1013
37035SOL    HW113112   4.671   5.449   2.547 -0.4157  0.2199 -0.5740
37035SOL    HW213113   4.719   5.592   2.549 -0.1195  0.1148  0.1483
37036SOL     OW13114   8.871  10.832   2.650 -0.2546 -0.4093  0.2083
37036SOL    HW113115   8.789  10.784   2.657 -2.8797  3.5629 -0.4309
37036SOL    HW213116   8.875  10.862   2.560  1.2921  0.5210  0.5406
37037SOL     OW13117   7.841   9.370   8.281 -0.5624  0.8493 -0.0288
37037SOL    HW113118   7.850   9.444   8.222  0.8386  1.2762  0.6597
37037SOL    HW213119   7.928   9.361   8.322 -0.4438 -1.6583 -0.6566
37038SOL     OW13120   1.563   7.989  10.332  0.0135 -0.7151  0.0775
37038SOL    HW113121   1.518   7.959  10.411 -0.5154 -1.3774 -0.4663
37038SOL    HW213122   1.633   8.046  10.365 -0.0876 -1.1237  1.0336
37039SOL     OW13123   8.800  10.305   0.339  0.0105  0.2515 -0.1618
37039SOL    HW113124   8.718  10.283   0.294 -1.2394 -0.0823  2.1236
37039SOL    HW213125   8.831  10.385   0.296 -1.4223  0.2775 -1.2032
37040SOL     OW13126   9.993   9.927   2.087 -0.6056 -0.1787  0.2452
37040SOL    HW113127   9.898   9.920   2.087 -0.6736  0.3418  1.9650
37040SOL    HW213128  10.015   9.957   2.175  1.2534 -1.8070  0.4146
37041SOL     OW13129   8.313   2.836   9.577 -0.1936 -0.5275  0.1410
37041SOL    HW113130   8.257   2.765   9.547 -1.4218  0.0248  1.0485
37041SOL    HW213131   8.254   2.897   9.621  0.5325  1.8816 -1.9663
37042SOL     OW13132   9.716  10.015  10.288  0.0455  0.1483  0.1153
37042SOL    HW113133   9.741  10.048  10.202  1.3051 -0.6636  0.1480
37042SOL    HW213134   9.621  10.028  10.292 -0.2185 -0.8328 -1.8422
37043SOL     OW13135   3.171   0.251  10.335 -0.0034  1.1021  0.2933
37043SOL    HW113136   3.183   0.266  10.241 -0.6022 -1.3460 -0.2480
37043SOL    HW213137   3.249   0.201  10.361 -0.4959  0.5730  0.7753
37044SOL     OW13138   4.419  10.686   9.241  0.3172 -0.0929 -0.3350
37044SOL    HW113139   4.359  10.613   9.256  0.8022 -0.3087  0.6415
37044SOL    HW213140   4.503  10.645   9.220  0.8560  0.1438  1.2375
37045SOL     OW13141   3.799   0.767   2.666  0.8023 -0.2594  0.1603
37045SOL    HW113142   3.712   0.806   2.675  0.7743 -0.3774  0.4035
37045SOL    HW213143   3.782   0.680   2.629  0.8842  0.0530 -0.6535
37046SOL     OW13144   2.761   4.479   5.329  0.3848 -0.3363 -0.4392
37046SOL    HW113145   2.757   4.385   5.342  0.3960 -0.2308  0.3980
37046SOL    HW213146   2.772   4.490   5.235  1.6104 -1.2070 -0.4185
37047SOL     OW13147   8.298   4.632  10.208 -0.3725 -0.0935  0.7843
37047SOL    HW113148   8.252   4.552  10.231  0.3982 -0.6377  0.4680
37047SOL    HW213149   8.253   4.701  10.258  0.2693 -0.9997  2.7008
37048SOL     OW13150   5.350  11.003   9.621  0.3357 -0.3601  0.6049
37048SOL    HW113151   5.276  10.962   9.667 -2.1298  1.9425 -1.0477
37048SOL    HW213152   5.367  11.083   9.670 -0.1161  0.4631 -0.5513
37049SOL     OW13153   3.611   9.167   7.632  0.1441  0.7142  0.4346
37049SOL    HW113154   3.546   9.209   7.575  2.4076  2.0634 -1.2948
37049SOL    HW213155   3.670   9.238   7.657  2.4106 -0.8979 -0.1023
37050SOL     OW13156   2.035   9.476   8.421  0.4097 -0.2359 -0.2085
37050SOL    HW113157   2.036   9.389   8.460  0.3564 -0.4272 -0.6234
37050SOL    HW213158   1.947   9.484   8.384  0.1993  0.2479  0.3811
37051SOL     OW13159   2.182   7.113   1.439  0.2393  0.0991 -0.4879
37051SOL    HW113160   2.155   7.182   1.378 -1.5718  0.1709  0.3406
37051SOL    HW213161   2.268   7.086   1.407  0.9026  2.5503 -0.9995
37052SOL     OW13162   4.190  10.510   4.195  0.3238 -0.3674 -0.2096
37052SOL    HW113163   4.189  10.455   4.117 -2.0131 -0.9046  0.1231
37052SOL    HW213164   4.251  10.581   4.174  0.9455 -1.3461 -1.8934
37053SOL     OW13165   1.097   8.672   4.120 -0.1092  0.1821  0.1995
37053SOL    HW113166   1.009   8.633   4.118 -1.0757  2.2611  0.2620
37053SOL    HW213167   1.089   8.753   4.070  2.2265 -0.3533 -1.2305
37054SOL     OW13168   0.089   4.962   3.886  0.1432 -0.1527  0.0714
37054SOL    HW113169   0.140   4.892   3.847 -0.3168  0.9012 -2.6499
37054SOL    HW213170   0.118   5.042   3.841 -2.3805  0.7628 -0.1113
37055SOL     OW13171   7.530   8.808   8.786  0.1244 -0.8982  0.3324
37055SOL    HW113172   7.604   8.788   8.729  0.7174  0.3291  0.6503
37055SOL    HW213173   7.453   8.799   8.729  0.7338  0.7868 -0.8486
37056SOL     OW13174   2.772   3.199   8.273  0.0257 -0.4472 -0.3545
37056SOL    HW113175   2.751   3.194   8.180 -1.7278 -0.3805 -0.0010
37056SOL    HW213176   2.767   3.108   8.303 -0.1902 -0.3742 -0.1704
37057SOL     OW13177   6.638  10.866  10.701  0.1966 -0.2415 -0.3205
37057SOL    HW113178   6.728  10.841  10.724 -0.1762 -0.0564  1.5170
37057SOL    HW213179   6.587  10.846  10.780 -1.5401 -1.0891 -1.5997
37058SOL     OW13180   6.219   1.844  10.715  0.1150  0.1305  0.1548
37058SOL    HW113181   6.198   1.750  10.713 -0.6922  0.3119 -0.7004
37058SOL    HW213182   6.168   1.878  10.789  0.1414 -0.0396  0.2527
37059SOL     OW13183   5.237   8.539  10.520  0.3995 -0.0798 -0.2353
37059SOL    HW113184   5.312   8.511  10.469  0.7984  1.1079 -0.3333
37059SOL    HW213185   5.261   8.626  10.553 -1.0306  0.4468 -0.4952
37060SOL     OW13186   3.010   6.106   3.051 -0.7149  0.0550  0.3863
37060SOL    HW113187   2.987   6.165   2.979 -1.2511 -1.4050 -0.6993
37060SOL    HW213188   2.927   6.092   3.097 -0.9080 -0.9362 -0.2294
37061SOL     OW13189   1.129   5.733   9.732  0.3722 -0.3110 -0.4709
37061SOL    HW113190   1.157   5.816   9.693 -0.2787 -0.9297 -2.3477
37061SOL    HW213191   1.125   5.751   9.826  1.5443  1.3872 -0.6935
37062SOL     OW13192   7.907   0.175   0.190  0.0658  0.2264 -0.8331
37062SOL    HW113193   7.877   0.194   0.101  0.7495 -0.2367 -1.1737
37062SOL    HW213194   7.905   0.079   0.196 -3.3346  0.2407  0.8606
37063SOL     OW13195  10.101   1.457   4.165 -0.1619 -0.4867 -0.4622
37063SOL    HW113196  10.176   1.427   4.114  0.7235 -0.2862  0.6735
37063SOL    HW213197  10.025   1.422   4.119  0.6764 -1.6041 -1.0482
37064SOL     OW13198   2.011   1.095   9.398 -0.0493 -0.2134  0.2756
37064SOL    HW113199   2.057   1.142   9.467  0.5094  0.9714 -0.8639
37064SOL    HW213200   2.078   1.078   9.332 -0.7178 -0.7249 -0.2882
37065SOL     OW13201   6.917  10.679   9.385  0.5296  0.1223  0.3259
37065SOL    HW113202   6.888  10.734   9.457  1.2856  0.0955  0.6540
37065SOL    HW213203   6.950  10.740   9.319 -0.1829  0.1486 -0.0231
37066SOL     OW13204  10.458   8.687   4.562 -0.3246  0.1873  0.1523
37066SOL    HW113205  10.375   8.690   4.514 -0.4494 -1.1100  0.2349
37066SOL    HW213206  10.517   8.638   4.505  0.4707  1.2680  0.0113
37067SOL     OW13207   2.265  10.066   4.270 -0.2035 -0.0426  0.4623
37067SOL    HW113208   2.254   9.998   4.337  1.1852  1.3901  2.2258
37067SOL    HW213209   2.241  10.148   4.315  0.2051  0.8997 -0.9794
37068SOL     OW13210   4.355   8.931   1.702  0.1678  0.1229 -0.0960
37068SOL    HW113211   4.390   8.952   1.616  1.6592 -0.2669  0.3873
37068SOL    HW213212   4.356   9.014   1.750  0.1387  0.1756 -0.1869
37069SOL     OW13213   5.535   7.150   1.213 -0.1601  0.6350  0.1890
37069SOL    HW113214   5.467   7.176   1.276  0.7338 -0.9674  1.9149
37069SOL    HW213215   5.525   7.055   1.205  0.4502  0.6754 -1.2865
37070SOL     OW13216   8.438   6.293   4.147  0.0069 -0.1838  0.4340
37070SOL    HW113217   8.369   6.256   4.092  1.4516  1.6488 -2.9302
37070SOL    HW213218   8.392   6.350   4.209 -1.5701 -0.2471 -0.6290
37071SOL     OW13219   9.762   4.218   8.448 -0.2899 -0.8152  0.1669
37071SOL    HW113220   9.700   4.288   8.467 -0.6441 -0.8805 -0.6970
37071SOL    HW213221   9.766   4.215   8.352  1.7854 -0.1550  0.1699
37072SOL     OW13222   6.601   2.090   8.672 -0.4592  0.3360  0.2109
37072SOL    HW113223   6.615   2.096   8.767  1.9065  1.3120 -0.1315
37072SOL    HW213224   6.680   2.048   8.639 -1.0862  0.3390 -1.3751
37073SOL     OW13225  10.302   3.406   7.921 -0.5842 -0.0114 -0.3714
37073SOL    HW113226  10.323   3.423   7.829 -2.0345  0.0806 -0.7134
37073SOL    HW213227  10.333   3.316   7.936  2.9353  1.1152  0.1339
37074SOL     OW13228   8.809   5.092   1.032  0.5581 -0.6236  0.4433
37074SOL    HW113229   8.868   5.133   1.095  1.6462 -1.2800 -0.1268
37074SOL    HW213230   8.764   5.023   1.081  2.1064 -1.7716  0.2966
37075SOL     OW13231   4.702   5.887   5.449  0.7129 -0.3003  0.3283
37075SOL    HW113232   4.709   5.816   5.513  0.9770 -1.9142 -1.4106
37075SOL    HW213233   4.648   5.851   5.379 -0.5508  1.8317  0.1257
37076SOL     OW13234   5.769   5.574   8.137  0.1104 -0.1513  0.1928
37076SOL    HW113235   5.855   5.605   8.108  0.6661 -1.4609  0.3961
37076SOL    HW213236   5.759   5.612   8.225  0.5263 -0.0844  0.2136
37077SOL     OW13237   9.169   8.613   8.466  0.1137 -0.5396  0.4453
37077SOL    HW113238   9.189   8.654   8.382  0.3740  0.0176  0.7768
37077SOL    HW213239   9.227   8.656   8.529 -0.7382 -0.2871  1.0774
37078SOL     OW13240   9.270   1.042  10.579  0.1467  0.7558  0.1920
37078SOL    HW113241   9.345   1.099  10.563  1.0251 -0.1302  1.0028
37078SOL    HW213242   9.202   1.101  10.612 -0.0831  1.8255 -1.9891
37079SOL     OW13243   2.501   7.991   1.335 -0.4310 -0.0259  0.0601
37079SOL    HW113244   2.455   7.915   1.369  0.5246 -1.1762 -1.1138
37079SOL    HW213245   2.438   8.063   1.344 -0.6683 -0.4726  2.9878
37080SOL     OW13246   0.095   9.938   1.896 -0.6936  0.0614  0.4769
37080SOL    HW113247   0.079   9.979   1.981  0.4282 -0.3268  0.9023
37080SOL    HW213248   0.114   9.846   1.917  1.1340  0.2771 -0.0055
37081SOL     OW13249   5.568   0.810   1.347 -0.1679  0.2661  0.2745
37081SOL    HW113250   5.523   0.733   1.310 -0.0129  0.4169 -0.2447
37081SOL    HW213251   5.660   0.782   1.355 -0.1607  0.3079  0.3330
37082SOL     OW13252   6.596   3.572   8.151 -0.0099 -0.2890  0.2639
37082SOL    HW113253   6.567   3.505   8.089  1.2551 -0.6823  0.0650
37082SOL    HW213254   6.515   3.613   8.182 -0.8826 -2.3764  0.9364
37083SOL     OW13255   9.290   0.121   9.020 -0.6289 -0.0809 -0.6331
37083SOL    HW113256   9.339   0.043   9.044 -2.5371 -2.0357 -2.5557
37083SOL    HW213257   9.220   0.126   9.086 -1.0731 -0.6159 -1.0490
37084SOL     OW13258   2.419   1.205   7.530 -0.4386 -0.0918  0.3041
37084SOL    HW113259   2.473   1.283   7.549 -2.5369  1.2620  1.0578
37084SOL    HW213260   2.408   1.164   7.616 -0.1895 -0.6688  0.0632
37085SOL     OW13261   7.615   2.766   5.543  0.3906 -0.1605  0.3133
37085SOL    HW113262   7.670   2.821   5.598 -0.3571  0.6027  0.3049
37085SOL    HW213263   7.669   2.748   5.466  0.3929  1.1545 -0.0117
37086SOL     OW13264   6.578   4.549   3.909 -0.0664  0.3155  0.3061
37086SOL    HW113265   6.589   4.454   3.920 -3.3018 -0.1145  0.7989
37086SOL    HW213266   6.512   4.573   3.974 -1.5598  2.3486 -1.8325
37087SOL     OW13267   6.284  10.445  10.790 -0.4918  0.3397 -0.2604
37087SOL    HW113268   6.298  10.509  10.721  1.6403 -0.2939 -0.4876
37087SOL    HW213269   6.320  10.486  10.869 -0.0856 -0.1465 -0.1866
37088SOL     OW13270  10.028   1.521   6.960 -0.8349  0.3899 -0.2724
37088SOL    HW113271   9.952   1.489   6.912 -0.4049 -0.1846 -0.5947
37088SOL    HW213272  10.082   1.443   6.972 -0.1144  0.8647 -0.3950
37089SOL     OW13273   7.589   7.076   0.524 -0.0229  0.4120 -0.1223
37089SOL    HW113274   7.563   6.987   0.545  0.2361  0.2194 -0.5989
37089SOL    HW213275   7.567   7.086   0.431  0.9600  0.4751 -0.3518
37090SOL     OW13276   5.176  10.839   2.694 -0.0999  0.2882  0.0785
37090SOL    HW113277   5.211  10.928   2.705  0.5354  0.2184 -1.1680
37090SOL    HW213278   5.192  10.819   2.602  1.0106 -1.6495  0.6511
37091SOL     OW13279  10.364   4.829   9.055  0.0211  0.2682 -0.2735
37091SOL    HW113280  10.415   4.757   9.019  2.3457  1.8844 -0.4025
37091SOL    HW213281  10.308   4.857   8.982  0.6260 -0.0572 -0.8716
37092SOL     OW13282   4.353   5.275   0.785  0.1728 -0.2182  0.4074
37092SOL    HW113283   4.381   5.254   0.695 -3.6560 -1.3518 -0.7171
37092SOL    HW213284   4.373   5.368   0.795  2.7577 -0.5608 -0.6747
37093SOL     OW13285   4.280   0.509   3.132 -0.0342  0.3392  0.0745
37093SOL    HW113286   4.340   0.439   3.104 -2.1385 -1.4517 -0.3066
37093SOL    HW213287   4.290   0.577   3.066  1.9732  0.3657  0.3557
37094SOL     OW13288   5.414   6.498  10.286 -0.1985  0.5247 -0.8570
37094SOL    HW113289   5.365   6.538  10.358 -0.4964  0.9306 -1.2798
37094SOL    HW213290   5.405   6.560  10.213  0.3760  0.2782 -1.1460
37095SOL     OW13291   7.759   9.664   2.648 -0.4520  0.1216 -0.1973
37095SOL    HW113292   7.681   9.707   2.614  0.0988  0.3095 -1.2812
37095SOL    HW213293   7.770   9.586   2.593 -0.4279 -0.4419  0.5866
37096SOL     OW13294   2.634   8.402   8.331 -0.2890  0.7769  0.9485
37096SOL    HW113295   2.698   8.470   8.353 -1.2323  1.9050  0.3784
37096SOL    HW213296   2.653   8.379   8.240 -1.1008  1.6546  0.5271
37097SOL     OW13297   3.239   3.131   5.070 -0.1595  0.1520 -0.1872
37097SOL    HW113298   3.169   3.179   5.114 -0.2438  0.2027 -0.3779
37097SOL    HW213299   3.235   3.043   5.109  0.3433  0.4493  0.5439
37098SOL     OW13300   6.377   2.666   9.397  0.4085 -0.4991  0.4842
37098SOL    HW113301   6.384   2.571   9.409  0.0566 -0.6608 -0.4843
37098SOL    HW213302   6.336   2.697   9.477 -0.2127 -1.2791  0.4814
37099SOL     OW13303   9.799   6.317   8.456 -0.3224 -0.0649 -0.1831
37099SOL    HW113304   9.798   6.412   8.447  0.0542 -0.0897 -0.5363
37099SOL    HW213305   9.718   6.296   8.502  0.7499  0.6662  2.2040
37100SOL     OW13306   5.967   3.864   0.075 -0.4451 -0.0255  0.0190
37100SOL    HW113307   5.988   3.820   0.157  0.3662 -1.2578 -0.8193
37100SOL    HW213308   5.912   3.802   0.027 -0.5516  0.4999 -0.5574
37101SOL     OW13309   1.394   9.989   2.507  0.3345 -0.2830  0.4475
37101SOL    HW113310   1.311   9.949   2.481  0.6194  0.1257 -1.1672
37101SOL    HW213311   1.370  10.069   2.553 -0.1724 -0.8212  1.1466
37102SOL     OW13312   5.855   0.847   1.274 -0.0913 -0.6548  0.5616
37102SOL    HW113313   5.818   0.920   1.225 -1.1229 -1.4443  0.1084
37102SOL    HW213314   5.851   0.773   1.213 -1.6116 -1.7210  1.8570
37103SOL     OW13315   1.872  10.350   8.747  0.2267  0.1802  0.4486
37103SOL    HW113316   1.782  10.343   8.779  0.2899  0.0566  0.6011
37103SOL    HW213317   1.874  10.432   8.698  0.0308  0.1845  0.4469
37104SOL     OW13318   2.997   5.461   3.516  0.8717 -0.1620 -0.4803
37104SOL    HW113319   3.039   5.539   3.550  0.0583 -0.0896  0.4035
37104SOL    HW213320   3.049   5.388   3.550  0.5775 -0.0575  0.2163
37105SOL     OW13321   1.749   0.043  10.634 -0.2516 -0.1317 -0.5196
37105SOL    HW113322   1.725   0.116  10.691 -0.6388 -1.5692  1.2586
37105SOL    HW213323   1.668  -0.007  10.623  0.8477 -2.7447  2.0984
37106SOL     OW13324   5.204   6.083   0.680 -0.3164 -0.5825 -0.2700
37106SOL    HW113325   5.142   6.045   0.618  1.3576 -1.7876 -1.2838
37106SOL    HW213326   5.187   6.037   0.763 -1.6883  0.1203 -0.1285
37107SOL     OW13327   9.675   0.487  10.130  0.8396  0.1324  0.0211
37107SOL    HW113328   9.766   0.518  10.136  0.7093  0.7449 -1.0603
37107SOL    HW213329   9.626   0.562  10.097  0.7119 -1.5008 -3.9523
37108SOL     OW13330   7.601   4.880   9.571  0.4230 -0.2019  0.0330
37108SOL    HW113331   7.619   4.811   9.506 -0.3334 -0.1782 -0.2112
37108SOL    HW213332   7.687   4.911   9.597  0.7751 -1.0819 -0.0294
37109SOL     OW13333   1.727   3.631   5.937 -0.4286  0.1552  0.6238
37109SOL    HW113334   1.769   3.547   5.955  0.3977  0.2436 -0.7412
37109SOL    HW213335   1.798   3.687   5.905 -1.5257  0.3606 -1.5882
37110SOL     OW13336   5.410   6.143   0.281 -0.0109 -0.0785  0.2292
37110SOL    HW113337   5.352   6.067   0.289 -1.7712  1.3144  1.5672
37110SOL    HW213338   5.497   6.109   0.303 -0.7349 -1.7147  0.7178
37111SOL     OW13339   7.089   1.032   2.230 -0.1225 -0.3847 -0.3390
37111SOL    HW113340   7.054   1.006   2.315  0.9402 -0.9593 -0.0587
37111SOL    HW213341   7.015   1.028   2.171 -0.3461 -2.5304  0.0250
37112SOL     OW13342   6.633   2.036   6.099 -0.6019  0.1710  0.1602
37112SOL    HW113343   6.723   2.003   6.094 -0.3292  0.9982 -0.6977
37112SOL    HW213344   6.583   1.978   6.041 -0.3281  0.6025 -0.5166
37113SOL     OW13345  10.196   5.083   0.456 -0.2405 -0.2921 -0.1027
37113SOL    HW113346  10.209   5.080   0.361 -0.4658  0.2687 -0.1572
37113SOL    HW213347  10.101   5.074   0.467 -0.2266 -0.2358  0.0640
37114SOL     OW13348   2.019  10.030   3.229 -0.5479 -0.2339 -0.0268
37114SOL    HW113349   2.048   9.964   3.166 -0.4627  0.5776 -0.8468
37114SOL    HW213350   1.927  10.045   3.208 -0.3547  0.4954 -0.3751
37115SOL     OW13351   8.371   0.284   3.898  0.4242  0.1862 -0.0860
37115SOL    HW113352   8.355   0.217   3.832  2.3269 -0.4062 -0.0179
37115SOL    HW213353   8.404   0.359   3.847  2.9644 -0.6458  0.1860
37116SOL     OW13354   5.029   8.174   3.490 -0.1595 -0.0545 -0.1445
37116SOL    HW113355   5.021   8.269   3.480 -0.1313 -0.1505 -1.2692
37116SOL    HW213356   4.963   8.151   3.555 -0.4620  0.6876 -0.1772
37117SOL     OW13357   2.427   4.312   3.144 -0.1880 -0.3238 -0.6362
37117SOL    HW113358   2.347   4.313   3.195  1.0030 -0.4017  1.3544
37117SOL    HW213359   2.415   4.241   3.081 -1.8669  0.0273 -0.7452
37118SOL     OW13360   8.392   9.769   9.567  0.2407  0.2777  0.1586
37118SOL    HW113361   8.436   9.817   9.498  0.1381  1.4507  0.8733
37118SOL    HW213362   8.432   9.802   9.648  1.2329 -1.9411  0.6399
37119SOL     OW13363   3.329   5.661   8.493  0.2233  0.8196  0.0581
37119SOL    HW113364   3.304   5.728   8.430  0.0333  1.1691  0.5001
37119SOL    HW213365   3.353   5.709   8.572  0.0019  0.3711  0.4098
37120SOL     OW13366  10.123   8.162   2.591 -0.0136 -0.4830  0.3640
37120SOL    HW113367  10.182   8.152   2.666  0.8707 -1.7500 -0.4669
37120SOL    HW213368  10.158   8.103   2.524 -0.1158  1.4054 -1.4663
37121SOL     OW13369   4.793   8.010   7.149  0.5970  0.0187 -0.6767
37121SOL    HW113370   4.734   7.940   7.179  0.5392 -0.2166 -1.3336
37121SOL    HW213371   4.877   7.990   7.189  0.0329  0.8682  1.0411
37122SOL     OW13372   2.524   6.538   4.814  0.0712  0.1987 -0.1542
37122SOL    HW113373   2.597   6.576   4.864 -0.0628  0.2518  0.0027
37122SOL    HW213374   2.557   6.454   4.783  0.3404  0.4009 -0.4268
37123SOL     OW13375   2.483   9.730   8.222 -0.4671  0.3545  0.3228
37123SOL    HW113376   2.577   9.731   8.203 -0.5113 -0.0179  0.0726
37123SOL    HW213377   2.471   9.651   8.276 -0.4591  1.0097  1.2995
37124SOL     OW13378   3.476  10.190   0.751 -1.1340 -0.1478 -0.2437
37124SOL    HW113379   3.515  10.183   0.838 -1.4774  1.0610  0.0255
37124SOL    HW213380   3.382  10.187   0.766 -1.2257 -3.1180 -0.8961
37125SOL     OW13381   5.618  10.203   6.689  0.1315 -0.5109 -0.0409
37125SOL    HW113382   5.700  10.191   6.738 -1.0386 -1.7065  1.7595
37125SOL    HW213383   5.589  10.291   6.713  1.2874  0.2823 -1.4004
37126SOL     OW13384   8.138   4.841   9.339 -0.3144  0.1300  0.6477
37126SOL    HW113385   8.062   4.804   9.383 -0.3198 -0.9956 -0.2374
37126SOL    HW213386   8.212   4.820   9.397 -0.3961 -0.8052  0.4425
37127SOL     OW13387   8.063   0.363   2.743 -0.4676 -0.1529  0.2420
37127SOL    HW113388   8.041   0.454   2.727 -0.5172 -0.5087 -2.1986
37127SOL    HW213389   7.980   0.321   2.763 -0.1783  0.6380  3.6491
37128SOL     OW13390   0.907   5.800   1.998 -0.2837 -0.1046 -0.4744
37128SOL    HW113391   0.886   5.802   1.905 -0.5743  0.4337 -0.4005
37128SOL    HW213392   0.994   5.841   2.004  0.6776 -1.9835 -0.7339
37129SOL     OW13393   5.490   2.653   9.029 -0.4888  0.0805  0.2841
37129SOL    HW113394   5.455   2.738   9.056  1.2335  1.1288 -0.6194
37129SOL    HW213395   5.554   2.631   9.097 -1.8481 -1.1833  1.2201
37130SOL     OW13396   5.435   4.491   6.689 -0.6027  0.1101  0.8377
37130SOL    HW113397   5.409   4.583   6.687 -0.4495  0.1483 -0.6392
37130SOL    HW213398   5.480   4.480   6.772 -1.1361  1.2298  1.2889
37131SOL     OW13399   7.074   7.310   1.910 -0.4657  0.1440  0.4319
37131SOL    HW113400   7.112   7.397   1.917 -0.5553  0.1704  0.5905
37131SOL    HW213401   7.109   7.275   1.828 -2.0052  1.1262 -0.7141
37132SOL     OW13402   9.679  10.250   7.242  0.2197 -0.3309 -0.0675
37132SOL    HW113403   9.650  10.170   7.285  1.0293 -1.9000 -2.2543
37132SOL    HW213404   9.604  10.277   7.188  1.5124 -2.6499 -3.3252
37133SOL     OW13405   4.928   2.686   0.396  0.1572 -0.2053  0.0996
37133SOL    HW113406   5.007   2.738   0.383  0.6366 -1.1575 -1.0293
37133SOL    HW213407   4.952   2.623   0.464 -0.3858  0.9324  1.3820
37134SOL     OW13408   7.022  10.716   5.939 -0.3184  0.7832 -0.4332
37134SOL    HW113409   7.031  10.712   5.844 -0.4502  0.7594 -0.4460
37134SOL    HW213410   6.939  10.762   5.953  0.0478  1.4134 -0.3203
37135SOL     OW13411   2.663   2.740   0.292 -0.1018 -0.1263  0.1134
37135SOL    HW113412   2.718   2.749   0.214 -1.0015  0.7739 -0.4410
37135SOL    HW213413   2.677   2.650   0.321  1.4726  0.0177 -0.1424
37136SOL     OW13414   4.667   6.928  10.701  0.4552 -0.0496  0.1525
37136SOL    HW113415   4.744   6.962  10.655  1.0005 -0.2767  0.8969
37136SOL    HW213416   4.610   6.895  10.630  2.0866 -2.1021 -0.3041
37137SOL     OW13417   3.750   0.309  10.451 -0.3437  0.2565 -0.0160
37137SOL    HW113418   3.779   0.383  10.504 -0.4876  0.7670 -0.6391
37137SOL    HW213419   3.724   0.348  10.367 -0.1320 -0.5388 -0.4586
37138SOL     OW13420   5.452   7.245   0.022 -0.2357 -1.0409  0.4154
37138SOL    HW113421   5.424   7.197  -0.057  1.4987 -2.2753  0.5035
37138SOL    HW213422   5.526   7.298  -0.007 -0.5765 -0.3010  0.8862
37139SOL     OW13423   0.404   6.927   3.297 -0.2289 -0.3592 -0.1527
37139SOL    HW113424   0.346   6.886   3.233 -0.8026 -1.3423  0.9322
37139SOL    HW213425   0.379   6.886   3.380  2.1716 -0.9878  0.3342
37140SOL     OW13426  10.498  10.323   5.701 -0.0996 -0.1527  0.1196
37140SOL    HW113427  10.587  10.295   5.721  0.1426  0.8193  0.4251
37140SOL    HW213428  10.476  10.385   5.770 -0.7135  0.2401 -0.4193
37141SOL     OW13429   5.450   3.964   5.304 -0.5325 -0.3533  0.6389
37141SOL    HW113430   5.540   3.989   5.324 -0.4491  0.4613 -0.6472
37141SOL    HW213431   5.405   3.964   5.388  0.2311  1.0369  1.0652
37142SOL     OW13432  10.495  10.910   4.514 -0.0120 -0.0103  0.0989
37142SOL    HW113433  10.455  10.844   4.570 -0.8532  0.7995  0.4784
37142SOL    HW213434  10.513  10.984   4.572  0.1249  0.4220 -0.4765
37143SOL     OW13435   3.352   9.786   2.054  0.3479 -0.3108 -0.0781
37143SOL    HW113436   3.365   9.723   2.125 -0.2216 -0.1012  0.2114
37143SOL    HW213437   3.274   9.755   2.008  0.4729 -0.2091 -0.3663
37144SOL     OW13438   7.980   6.214   2.292  0.1169  0.2436 -0.3585
37144SOL    HW113439   7.989   6.169   2.208  0.0945  0.0808 -0.2737
37144SOL    HW213440   8.047   6.283   2.289 -0.2259  0.5649 -0.7194
37145SOL     OW13441   6.260   6.560   1.555  0.2584  0.7855  0.0473
37145SOL    HW113442   6.184   6.616   1.537  0.1243  0.0761 -1.8701
37145SOL    HW213443   6.276   6.514   1.472  1.5416 -0.5933  1.0011
37146SOL     OW13444   1.750  10.716   6.917 -0.1870  0.2678 -0.3808
37146SOL    HW113445   1.761  10.743   6.826 -3.0417  1.9581 -0.3392
37146SOL    HW213446   1.732  10.797   6.964 -0.2960 -0.7495  1.4277
37147SOL     OW13447   3.936   6.935   8.645  0.2362 -0.0610 -0.2792
37147SOL    HW113448   3.985   7.008   8.683 -0.8998  1.2733 -1.2468
37147SOL    HW213449   3.844   6.957   8.661 -0.1471 -1.0607 -0.9947
37148SOL     OW13450   2.650  10.003   7.526  0.1055 -0.3183  0.0262
37148SOL    HW113451   2.618   9.995   7.616  1.6925  0.1571  0.6647
37148SOL    HW213452   2.624  10.091   7.500  1.6364  0.4263  0.8822
37149SOL     OW13453   7.963  10.172   7.045 -0.3539  0.7795  0.0647
37149SOL    HW113454   7.895  10.219   7.094 -1.2161  0.0013 -0.3645
37149SOL    HW213455   7.945  10.080   7.061  0.6611  0.5610 -0.0008
37150SOL     OW13456   5.861   3.258   0.921  0.2157 -0.3118 -0.8085
37150SOL    HW113457   5.921   3.238   0.993 -0.0899 -2.5914 -1.1229
37150SOL    HW213458   5.813   3.335   0.950  2.1096  0.5762  0.1543
37151SOL     OW13459   9.993   7.968   2.031  0.5944  0.0831  0.1977
37151SOL    HW113460   9.913   8.014   2.004  0.2835  0.2382  1.3172
37151SOL    HW213461  10.008   7.902   1.963  0.3652  1.0403 -0.8053
37152SOL     OW13462   9.342   2.546   1.062 -0.2093 -0.1121 -0.4490
37152SOL    HW113463   9.273   2.609   1.042 -0.9868 -1.2138 -1.3221
37152SOL    HW213464   9.371   2.514   0.977  0.3296 -0.7768 -0.0286
37153SOL     OW13465   7.071   3.681   8.243  0.6927 -0.5124  0.4040
37153SOL    HW113466   7.010   3.754   8.238  0.1221 -1.0667 -1.5518
37153SOL    HW213467   7.116   3.693   8.327 -0.3850  1.2583  0.7782
37154SOL     OW13468   7.646   2.647   9.018  0.0970  0.2197  0.1036
37154SOL    HW113469   7.633   2.660   9.112 -0.3947  0.3100  0.0259
37154SOL    HW213470   7.564   2.675   8.978  0.4112  0.4652 -0.3809
37155SOL     OW13471   5.246   0.629   0.675 -0.0561 -0.5848  0.3338
37155SOL    HW113472   5.265   0.600   0.764 -1.3698  0.0846  0.8637
37155SOL    HW213473   5.266   0.553   0.620  2.0964 -0.5771  1.0068
37156SOL     OW13474   4.137   7.574   3.846 -0.6373  0.0221  0.6872
37156SOL    HW113475   4.192   7.552   3.770 -0.9743  1.0608  0.1238
37156SOL    HW213476   4.196   7.617   3.907 -0.9122  1.7802 -0.2121
37157SOL     OW13477   4.243   0.076   4.554  0.1029 -0.4882 -0.4107
37157SOL    HW113478   4.197   0.049   4.634 -1.9961  2.9412 -0.2632
37157SOL    HW213479   4.203   0.023   4.485 -0.8888 -0.7168  0.3148
37158SOL     OW13480   9.983   1.007   7.899  0.0556 -0.0244 -0.3727
37158SOL    HW113481  10.049   0.956   7.851 -0.3096 -0.5458 -0.3307
37158SOL    HW213482   9.910   1.015   7.838 -0.5658 -1.0172  0.2138
37159SOL     OW13483   0.704  10.740   8.311  0.2315  0.2700 -0.1378
37159SOL    HW113484   0.633  10.711   8.253 -1.4678  0.6704  1.6459
37159SOL    HW213485   0.783  10.708   8.268 -1.1307 -1.9281 -1.2428
37160SOL     OW13486   9.247   1.637   4.296 -0.4693 -0.1640  0.1602
37160SOL    HW113487   9.271   1.593   4.378 -1.6804 -0.8398  0.1754
37160SOL    HW213488   9.328   1.642   4.246  0.0489 -0.7865  0.9246
37161SOL     OW13489   7.528   9.731   1.227  0.1827  0.5526 -0.5912
37161SOL    HW113490   7.512   9.759   1.137 -0.4694  0.2447 -0.5828
37161SOL    HW213491   7.483   9.646   1.234 -0.1277  0.7633  0.1295
37162SOL     OW13492  10.965   5.414   0.303  0.1656 -0.4282  0.2460
37162SOL    HW113493  10.923   5.432   0.219  1.3788 -1.1017 -0.5329
37162SOL    HW213494  10.922   5.335   0.335 -1.5060  0.7795  1.1369
37163SOL     OW13495   3.822  10.265   5.968  0.3864  0.1434  0.2504
37163SOL    HW113496   3.784  10.352   5.962  0.0297 -0.0915 -1.2533
37163SOL    HW213497   3.892  10.264   5.903 -0.2303 -0.9790 -0.4418
37164SOL     OW13498   9.474   7.483   6.135 -0.8570  0.1355 -0.3398
37164SOL    HW113499   9.394   7.497   6.185 -0.4044 -0.5900  0.6245
37164SOL    HW213500   9.502   7.570   6.108 -0.9833  0.5747  0.8933
37165SOL     OW13501   4.760   0.777   8.546  0.4772 -0.1394 -0.3765
37165SOL    HW113502   4.802   0.857   8.515 -0.8854  0.5155 -0.6249
37165SOL    HW213503   4.815   0.747   8.618  0.9656  1.0865 -0.2172
37166SOL     OW13504   3.567   9.177   6.538  0.0614  0.0540 -0.1724
37166SOL    HW113505   3.498   9.165   6.603  0.2019  1.5727  0.2966
37166SOL    HW213506   3.528   9.234   6.472  0.7618  0.6659 -0.0638
37167SOL     OW13507   6.112   5.577   6.773  0.2752 -0.4006 -0.1186
37167SOL    HW113508   6.030   5.626   6.774  0.6297  0.2158  1.2355
37167SOL    HW213509   6.086   5.486   6.760 -0.8687 -0.5556  2.5347
37168SOL     OW13510   3.930   3.339   3.632  0.1222  0.3294 -0.3739
37168SOL    HW113511   3.904   3.332   3.723 -0.0859 -0.6268 -0.4951
37168SOL    HW213512   4.002   3.402   3.632  0.9438 -0.5778  0.6262
37169SOL     OW13513   8.661   3.928   3.757 -0.4276  0.2490 -0.7068
37169SOL    HW113514   8.589   3.984   3.784 -0.2044  0.9675 -1.5444
37169SOL    HW213515   8.726   3.989   3.721  0.9669 -0.2827  0.7754
37170SOL     OW13516   1.926   8.625   8.776  0.1826 -0.0981 -0.0788
37170SOL    HW113517   2.014   8.635   8.810  0.2791  1.4543 -0.7341
37170SOL    HW213518   1.933   8.645   8.683 -1.0848  1.4488  0.1241
37171SOL     OW13519  10.820   8.849   5.020  0.9595 -0.2993  0.4638
37171SOL    HW113520  10.756   8.799   4.970 -1.3465  1.8325  1.0917
37171SOL    HW213521  10.903   8.835   4.974 -0.5409 -0.5881 -2.3504
37172SOL     OW13522   3.871  10.723   9.117  0.2619 -0.0655 -0.4154
37172SOL    HW113523   3.792  10.727   9.063  1.6097  0.5535 -2.4279
37172SOL    HW213524   3.862  10.642   9.166 -1.6938  0.0792 -0.4428
37173SOL     OW13525   5.177   3.040   7.965 -0.0445 -0.1902 -0.1903
37173SOL    HW113526   5.147   2.954   7.937 -0.0817  0.0159 -0.8088
37173SOL    HW213527   5.098   3.085   7.995  0.1808 -0.8543  1.4806
37174SOL     OW13528  10.660   1.081   6.283  0.0842 -0.4001 -0.4340
37174SOL    HW113529  10.649   1.037   6.367  1.4199  0.3055  0.1416
37174SOL    HW213530  10.639   1.172   6.300 -0.5560 -0.4127 -1.1030
37175SOL     OW13531   4.227   4.277   0.512 -0.9803 -0.1546  0.2482
37175SOL    HW113532   4.135   4.266   0.537 -1.4183  1.8629 -0.2762
37175SOL    HW213533   4.245   4.370   0.526  0.6143 -0.2568 -0.8401
37176SOL     OW13534   5.271   9.313   7.682 -0.0034 -0.1804 -0.6223
37176SOL    HW113535   5.255   9.407   7.680 -1.0495 -0.3503 -2.2435
37176SOL    HW213536   5.339   9.301   7.748  1.5042  1.9214 -1.6908
37177SOL     OW13537   3.276   1.150   3.750  0.1410 -0.6599 -0.1450
37177SOL    HW113538   3.292   1.209   3.676 -0.7939  0.4884  0.5347
37177SOL    HW213539   3.185   1.168   3.776  0.7548 -0.3033  1.9230
37178SOL     OW13540   8.462   0.020  10.823 -0.0153  0.5647  0.6605
37178SOL    HW113541   8.394   0.081  10.796  0.0382 -0.1626 -1.2299
37178SOL    HW213542   8.495  -0.018  10.742  1.0460 -0.8207  1.6787
37179SOL     OW13543   2.838   5.944   8.523  0.5628 -0.4297  0.1346
37179SOL    HW113544   2.887   5.863   8.539  0.0289 -0.9059 -0.6157
37179SOL    HW213545   2.746   5.918   8.524  0.2998  0.4310  1.3670
37180SOL     OW13546   2.048   9.632   1.827  0.1789  0.4313 -0.3328
37180SOL    HW113547   2.025   9.725   1.818 -0.8896  0.1427 -0.7911
37180SOL    HW213548   2.042   9.615   1.921  0.3160  0.8146 -0.2542
37181SOL     OW13549   8.536   4.916   7.270 -0.1643 -0.2173  0.0573
37181SOL    HW113550   8.576   4.829   7.278 -0.7382 -0.6524 -1.4464
37181SOL    HW213551   8.442   4.898   7.266 -0.2983  0.5003 -0.1122
37182SOL     OW13552   9.328   1.919   5.547 -0.5504  0.6338  0.5894
37182SOL    HW113553   9.292   2.007   5.552 -0.7453  0.5955 -0.0091
37182SOL    HW213554   9.339   1.903   5.453  1.2421  0.7306  0.7421
37183SOL     OW13555   1.252   2.888   3.848 -0.1858 -0.3694 -0.3245
37183SOL    HW113556   1.211   2.804   3.826 -2.7543  0.2092  1.7210
37183SOL    HW213557   1.224   2.947   3.779 -1.0318 -0.5143 -0.1235
37184SOL     OW13558   1.423   2.435   0.272  0.6170  0.1304  0.1249
37184SOL    HW113559   1.486   2.505   0.258  0.0802  0.3735 -1.1922
37184SOL    HW213560   1.375   2.428   0.190 -1.6804  0.5511  1.3341
37185SOL     OW13561   2.177   2.690   3.067 -0.2743 -0.3533 -0.1325
37185SOL    HW113562   2.265   2.688   3.030 -0.8762 -0.1704 -1.6590
37185SOL    HW213563   2.144   2.778   3.045 -0.7321 -0.3137  0.6769
37186SOL     OW13564  10.090   5.393   0.093 -0.2791 -0.1147 -0.0363
37186SOL    HW113565  10.039   5.351   0.024 -1.0331  1.6078 -0.5914
37186SOL    HW213566  10.034   5.465   0.123  1.1723  0.8636  0.4372
37187SOL     OW13567   5.207   7.699   8.876  0.2732  0.8908  0.5009
37187SOL    HW113568   5.182   7.713   8.968  0.5207  0.3310  0.6566
37187SOL    HW213569   5.241   7.784   8.848 -1.2511  1.5266  0.4486
37188SOL     OW13570   4.821   0.214   7.813  0.6320 -0.3366 -0.4565
37188SOL    HW113571   4.884   0.185   7.878  0.8296  1.1206  0.0429
37188SOL    HW213572   4.859   0.293   7.776 -0.7829  0.4526 -0.3128
37189SOL     OW13573  11.028   1.895   0.895  0.6775  0.3845  0.4061
37189SOL    HW113574  11.017   1.936   0.981  0.1594  0.7781  0.1580
37189SOL    HW213575  11.118   1.862   0.896  0.4709 -0.1883  1.3395
37190SOL     OW13576   3.880   6.454   7.184  0.4146 -0.4442 -0.1213
37190SOL    HW113577   3.896   6.545   7.160 -1.7705 -0.3890 -1.6516
37190SOL    HW213578   3.954   6.430   7.239  1.6108  1.9046 -0.6034
37191SOL     OW13579   7.403   0.280   4.865  0.0187  0.0017 -0.0142
37191SOL    HW113580   7.452   0.245   4.938  0.1981 -0.6102 -0.4237
37191SOL    HW213581   7.312   0.281   4.895 -0.0163 -1.0032 -0.0680
37192SOL     OW13582   7.131   5.794   5.076  0.0497 -0.0971 -0.2683
37192SOL    HW113583   7.107   5.822   4.988 -0.2908 -1.2330 -0.5599
37192SOL    HW213584   7.095   5.860   5.134 -0.0147  0.4855 -0.9668
37193SOL     OW13585   0.771   1.870   8.719  0.2873  0.1563  0.3473
37193SOL    HW113586   0.772   1.840   8.628  0.1445  1.6615 -0.1779
37193SOL    HW213587   0.749   1.792   8.770  1.5935 -0.9964 -0.7894
37194SOL     OW13588   7.339  10.327   0.149 -0.0023  0.2459 -0.8789
37194SOL    HW113589   7.269  10.266   0.127  1.3075 -2.0466  0.7539
37194SOL    HW213590   7.295  10.403   0.187 -1.6757 -0.0230 -2.1756
37195SOL     OW13591   4.748   5.983   4.681  0.0377  0.0474 -0.5127
37195SOL    HW113592   4.669   5.979   4.628  0.4400 -0.2954 -1.0975
37195SOL    HW213593   4.717   5.977   4.771 -0.5818 -0.3537 -0.7480
37196SOL     OW13594   3.981   5.373   7.327  0.3745 -0.5364 -0.3310
37196SOL    HW113595   4.059   5.320   7.340  0.7666 -0.7341 -2.9636
37196SOL    HW213596   3.962   5.366   7.234 -0.2107  3.0260 -0.6311
37197SOL     OW13597   9.507   4.857  10.386 -0.2478  0.3105 -0.4464
37197SOL    HW113598   9.434   4.814  10.340 -0.1200  0.1700 -0.5201
37197SOL    HW213599   9.490   4.839  10.479  0.2275 -0.5820 -0.5212
37198SOL     OW13600   0.885   1.043   6.206  0.3962 -0.4305  0.4836
37198SOL    HW113601   0.844   0.988   6.272  0.6660  0.7172  1.6658
37198SOL    HW213602   0.904   0.984   6.133 -0.1707 -1.6764  1.3082
37199SOL     OW13603   2.353   8.996   2.515 -0.1505  0.8275  0.1564
37199SOL    HW113604   2.351   8.924   2.452  0.5689  1.4175 -0.5804
37199SOL    HW213605   2.354   9.075   2.460  0.7354  1.3512  0.8882
37200SOL     OW13606  10.614   2.746  10.685  0.6954  0.0588 -0.3110
37200SOL    HW113607  10.707   2.762  10.671  0.3776  0.6499 -2.0514
37200SOL    HW213608  10.591   2.680  10.619 -0.4221  1.1282 -1.0460
37201SOL     OW13609  10.660   3.270   4.427 -0.2574 -0.5894 -0.6727
37201SOL    HW113610  10.647   3.175   4.418  1.2355 -0.8716 -0.0657
37201SOL    HW213611  10.700   3.297   4.345 -0.3802 -0.5368 -0.7159
37202SOL     OW13612   1.848   9.577   7.326 -0.3754  0.0934  0.2110
37202SOL    HW113613   1.849   9.487   7.358  0.0875 -0.7306 -1.9428
37202SOL    HW213614   1.762   9.611   7.351 -0.9345 -1.2714  0.1960
37203SOL     OW13615   7.171   8.636   6.802  0.5846  0.3933  0.0530
37203SOL    HW113616   7.122   8.718   6.814 -0.5528 -0.2303 -0.1801
37203SOL    HW213617   7.129   8.574   6.861  1.7449  0.0795  0.5794
37204SOL     OW13618   4.494   7.773   2.533  0.3790 -0.7704  0.1754
37204SOL    HW113619   4.508   7.867   2.534  1.3167 -0.8978 -0.1666
37204SOL    HW213620   4.516   7.744   2.622  1.6588 -0.8754 -0.1667
37205SOL     OW13621   0.045   7.661   6.886  0.1500 -0.6140 -0.4020
37205SOL    HW113622  -0.041   7.639   6.850 -0.0375  0.6746 -0.8232
37205SOL    HW213623   0.103   7.661   6.810  0.1831  0.0636 -0.3870
37206SOL     OW13624   7.941   6.945   4.767  0.5387  0.1284  0.0795
37206SOL    HW113625   7.964   6.856   4.739  1.3673  0.2247  0.4172
37206SOL    HW213626   8.015   6.999   4.737 -0.4041  0.8773 -0.9882
37207SOL     OW13627   1.794   8.706   5.641  0.1589  0.2214 -0.4818
37207SOL    HW113628   1.701   8.702   5.618  0.1676 -1.5822 -0.3329
37207SOL    HW213629   1.826   8.617   5.628  1.0457 -0.0804  2.8597
37208SOL     OW13630   7.201   5.585   7.128 -0.1154 -0.3317  0.1469
37208SOL    HW113631   7.135   5.638   7.174  0.2770 -0.7251  1.1956
37208SOL    HW213632   7.252   5.545   7.198  1.3015  0.0250 -0.6446
37209SOL     OW13633   3.560  10.018   5.811  0.5898  0.1516  0.0869
37209SOL    HW113634   3.646  10.042   5.776  0.8667 -0.4624  0.3378
37209SOL    HW213635   3.521   9.963   5.743  0.1940  0.8278 -0.2364
37210SOL     OW13636   0.721   6.431   6.234 -0.0383 -0.1868  0.0097
37210SOL    HW113637   0.756   6.379   6.307  0.3167 -0.8785 -0.6442
37210SOL    HW213638   0.798   6.465   6.189 -0.2145 -0.8092 -0.7846
37211SOL     OW13639   0.547   0.960   3.229  0.1368  0.1396  0.5622
37211SOL    HW113640   0.538   1.053   3.206  0.1233 -0.0926 -0.4134
37211SOL    HW213641   0.498   0.950   3.310 -0.1709  0.9068  0.4766
37212SOL     OW13642  11.024   7.268   7.806 -0.6259  0.0338  0.0775
37212SOL    HW113643  11.059   7.325   7.874  2.6814 -2.5844  0.8198
37212SOL    HW213644  11.085   7.278   7.733 -1.4732 -0.6567 -0.7448
37213SOL     OW13645   4.551   0.298   1.967  0.3249 -1.1413 -0.1807
37213SOL    HW113646   4.507   0.296   1.882  1.8067 -0.2594 -1.0060
37213SOL    HW213647   4.644   0.288   1.946  0.6960 -1.2068  1.3744
37214SOL     OW13648   9.326   1.240   2.041  0.2092  0.8642 -0.1327
37214SOL    HW113649   9.404   1.288   2.070  0.2678  0.4776  0.3586
37214SOL    HW213650   9.254   1.301   2.057 -0.0478 -0.0679  2.9041
37215SOL     OW13651   0.001   9.466   8.987 -0.1537  0.2169 -0.2630
37215SOL    HW113652   0.065   9.534   8.966  1.5936 -1.7183 -1.7207
37215SOL    HW213653   0.007   9.456   9.082  3.0165 -0.9332 -0.4554
37216SOL     OW13654   0.839   9.530   0.567 -0.3687 -0.1357 -0.1263
37216SOL    HW113655   0.904   9.460   0.560 -1.0839 -1.1362  2.3636
37216SOL    HW213656   0.884   9.600   0.614  0.1025  0.8756 -1.9572
37217SOL     OW13657   3.978   0.057  10.205 -0.2141  0.2881 -0.0507
37217SOL    HW113658   3.927   0.122  10.156  0.6182  1.2377  0.3026
37217SOL    HW213659   3.935   0.051  10.290 -0.9886 -0.5226 -0.4781
37218SOL     OW13660  10.940   8.638   6.812 -0.3823  0.0113  0.1934
37218SOL    HW113661  10.919   8.602   6.726 -0.1420  1.0250 -0.3070
37218SOL    HW213662  10.864   8.616   6.866 -1.2432  0.7028 -0.6902
37219SOL     OW13663   5.377   2.550   1.840  0.2036  0.6163  0.1970
37219SOL    HW113664   5.425   2.477   1.880 -2.6562  0.3155  3.6454
37219SOL    HW213665   5.330   2.510   1.766  1.8304 -0.0324 -0.5239
37220SOL     OW13666   9.394   1.637   7.035 -0.4868  0.2253  0.1487
37220SOL    HW113667   9.324   1.572   7.040  0.5069 -0.9009 -0.1341
37220SOL    HW213668   9.349   1.718   7.009 -1.8644 -0.1225  1.3072
37221SOL     OW13669   0.516   9.235   0.490 -0.1633 -0.0615 -0.1351
37221SOL    HW113670   0.458   9.192   0.554 -1.7538  1.5038 -0.4332
37221SOL    HW213671   0.531   9.322   0.527 -0.0024  0.3939 -1.2547
37222SOL     OW13672   3.853   7.373   2.081 -0.0012  0.0587  0.3462
37222SOL    HW113673   3.868   7.462   2.049 -0.6989  0.0085 -0.1557
37222SOL    HW213674   3.830   7.323   2.002 -3.3934  0.2771  1.0350
37223SOL     OW13675  10.625   5.349   8.187  0.1827  0.3707  0.4479
37223SOL    HW113676  10.572   5.319   8.260 -1.1219  1.3576 -0.0396
37223SOL    HW213677  10.709   5.374   8.226 -0.4182  0.6871  1.5763
37224SOL     OW13678  10.199   0.077   8.922 -0.3404 -0.3866  0.1074
37224SOL    HW113679  10.276   0.123   8.954 -0.8425 -0.3708  1.3575
37224SOL    HW213680  10.136   0.147   8.903 -0.5762 -0.4724  0.5620
37225SOL     OW13681   7.715   7.800   8.461 -0.1196  0.6546  0.7241
37225SOL    HW113682   7.741   7.836   8.546  0.0315  2.3760 -0.0128
37225SOL    HW213683   7.792   7.752   8.431 -0.2659 -0.2127  1.6581
37226SOL     OW13684   6.735   7.708   4.719  0.2815  0.5104 -0.8144
37226SOL    HW113685   6.641   7.691   4.728  0.6986 -1.4560  0.5021
37226SOL    HW213686   6.740   7.789   4.668 -2.0869 -0.0430 -2.0847
37227SOL     OW13687   0.687   7.039   4.544 -0.1307  0.3651 -0.0101
37227SOL    HW113688   0.767   6.993   4.571  0.5020  1.5746  0.2376
37227SOL    HW213689   0.710   7.082   4.462 -0.7640  0.1344 -0.3199
37228SOL     OW13690  10.399   1.214   4.185  0.7893 -0.3316  0.5537
37228SOL    HW113691  10.472   1.271   4.208  0.0559  1.3192 -0.9570
37228SOL    HW213692  10.343   1.214   4.263  1.8270 -0.7406  1.3295
37229SOL     OW13693   8.832   5.534   7.147  0.8382  0.1535  0.4385
37229SOL    HW113694   8.849   5.520   7.053 -2.4131  0.7735 -0.3429
37229SOL    HW213695   8.868   5.621   7.164  2.9638 -0.6195  0.2828
37230SOL     OW13696   1.290   7.917   5.673 -0.6327  0.0335 -0.1355
37230SOL    HW113697   1.364   7.929   5.613  0.1721 -2.0512  0.3547
37230SOL    HW213698   1.247   7.837   5.643  0.4711 -1.7600  2.6387
37231SOL     OW13699   2.133   4.479   8.982 -0.1497  0.2261  0.4563
37231SOL    HW113700   2.182   4.458   8.902 -0.1477 -0.2679  0.5876
37231SOL    HW213701   2.064   4.539   8.952 -0.1343  0.0634  0.0860
37232SOL     OW13702   0.041   3.564   1.470  0.3124  0.0327 -0.1329
37232SOL    HW113703   0.135   3.573   1.489  0.5094 -1.4025 -0.3306
37232SOL    HW213704  -0.000   3.563   1.556  0.6784 -1.1405  0.0499
37233SOL     OW13705   6.745   4.606   7.519 -0.1875 -0.2442  0.5324
37233SOL    HW113706   6.723   4.694   7.489  0.2769 -1.2356 -3.3068
37233SOL    HW213707   6.662   4.558   7.517 -0.0208 -0.5244 -0.1016
37234SOL     OW13708  10.069   3.714   6.496 -0.4392  0.2907  0.0542
37234SOL    HW113709  10.010   3.717   6.421 -0.2937 -0.0884 -0.0830
37234SOL    HW213710  10.065   3.801   6.534 -1.8152 -0.0120  0.6217
37235SOL     OW13711   3.754   3.963   6.324  0.0824  0.1236  0.0809
37235SOL    HW113712   3.725   4.038   6.377 -0.4628  0.0324 -0.0817
37235SOL    HW213713   3.847   3.955   6.344  0.0175  0.4740  0.5586
37236SOL     OW13714   7.150   7.768   0.865 -0.0609 -0.0239  0.1712
37236SOL    HW113715   7.059   7.786   0.891  0.2830  0.2201  1.2804
37236SOL    HW213716   7.191   7.733   0.945  0.8516 -0.0056 -0.2798
37237SOL     OW13717   9.419   5.415   1.873 -0.1402 -0.0767 -0.3467
37237SOL    HW113718   9.358   5.472   1.920  0.7573  0.6694 -0.0439
37237SOL    HW213719   9.460   5.362   1.942 -2.1184 -2.3086 -0.7665
37238SOL     OW13720   8.992   1.290   0.871 -0.3559  0.1118  0.1474
37238SOL    HW113721   9.077   1.294   0.827 -1.3454 -1.4714 -2.1471
37238SOL    HW213722   8.952   1.375   0.853 -0.0956  0.0704 -0.7084
37239SOL     OW13723   6.768   6.207   9.194  0.5454  0.3162 -0.3808
37239SOL    HW113724   6.821   6.132   9.222 -0.0132  0.3193  0.7611
37239SOL    HW213725   6.828   6.282   9.197  0.7911  0.1182 -0.3201
37240SOL     OW13726   7.936   7.478  10.957  0.4220 -0.6239  0.3584
37240SOL    HW113727   7.907   7.424  11.031 -0.7436 -0.1554  0.2584
37240SOL    HW213728   8.009   7.530  10.992  0.9503 -1.5749  0.7102
37241SOL     OW13729  10.111   9.998   1.816  0.4486 -0.5859 -0.0507
37241SOL    HW113730  10.118   9.906   1.790 -0.7527 -0.9442  0.8296
37241SOL    HW213731  10.073   9.996   1.903 -0.5464  0.7851 -0.4176
37242SOL     OW13732   2.106   9.049   6.993 -0.2610 -0.1773  0.1111
37242SOL    HW113733   2.109   9.144   7.006 -1.2859 -0.1268  0.0694
37242SOL    HW213734   2.157   9.013   7.065 -0.7434  0.3691  0.7365
37243SOL     OW13735   5.536   7.929   4.715  0.0796  0.2905 -0.2454
37243SOL    HW113736   5.535   7.845   4.668 -0.3923  0.7297 -1.0547
37243SOL    HW213737   5.611   7.976   4.680  0.0765  0.3862 -0.1251
37244SOL     OW13738   3.516   3.843   9.575  0.3803  0.0752 -0.7520
37244SOL    HW113739   3.576   3.892   9.631  0.0471 -0.8270  0.4489
37244SOL    HW213740   3.429   3.873   9.602  0.2241 -0.1700 -0.9830
37245SOL     OW13741   7.208   2.624   9.499  0.1429 -0.6672 -0.3598
37245SOL    HW113742   7.145   2.652   9.432  1.2045 -0.8796 -1.4991
37245SOL    HW213743   7.155   2.605   9.576 -1.0389  0.4172 -0.8692
37246SOL     OW13744   0.895   0.516   0.170 -0.0487  0.3722  0.1088
37246SOL    HW113745   0.934   0.483   0.089  1.3084  1.1859  0.3933
37246SOL    HW213746   0.825   0.575   0.141 -1.8455 -1.8762 -0.4040
37247SOL     OW13747   0.183  10.447   0.080  0.0340 -0.1157 -0.2243
37247SOL    HW113748   0.182  10.356   0.109 -1.1441 -0.0941 -0.1613
37247SOL    HW213749   0.270  10.459   0.042  1.1007 -0.5662  1.9609
37248SOL     OW13750   7.882   4.607  10.633 -0.2464 -0.0788 -0.1790
37248SOL    HW113751   7.913   4.627  10.722  1.2585 -1.3314 -0.3852
37248SOL    HW213752   7.961   4.584  10.585 -1.2993 -1.5409 -1.2677
37249SOL     OW13753   1.522   5.696   9.130  0.3209 -0.3373  0.1281
37249SOL    HW113754   1.596   5.657   9.177  0.1804  0.2488  0.8514
37249SOL    HW213755   1.457   5.713   9.198  0.2197  0.7643 -0.2186
37250SOL     OW13756   6.701   3.381   2.490 -0.1821  0.1488 -0.0796
37250SOL    HW113757   6.616   3.387   2.445 -1.3558 -1.9896  1.6488
37250SOL    HW213758   6.718   3.287   2.497  2.2865  0.5144 -0.1919
37251SOL     OW13759   3.165   8.971   9.389  0.9461 -0.0176  0.0875
37251SOL    HW113760   3.144   9.020   9.309  0.9988 -0.2343 -0.0601
37251SOL    HW213761   3.156   9.035   9.459 -3.1575 -0.6722  0.4232
37252SOL     OW13762   8.603  10.053   6.015  0.2649  1.0612 -0.2355
37252SOL    HW113763   8.580  10.127   5.959 -0.2201  1.2304  0.1811
37252SOL    HW213764   8.541  10.058   6.088  0.1118  0.1404 -0.2905
37253SOL     OW13765   0.868   2.298   6.885 -0.1544  0.5643 -0.5124
37253SOL    HW113766   0.783   2.256   6.873 -0.7334  1.4000  0.5189
37253SOL    HW213767   0.891   2.331   6.798 -0.9916  0.5395 -0.7475
37254SOL     OW13768   2.735   5.706   7.343 -0.1235 -0.2204  0.0648
37254SOL    HW113769   2.682   5.785   7.359  0.9824  0.8304 -1.2277
37254SOL    HW213770   2.808   5.714   7.405 -0.5388 -0.7781  0.6406
37255SOL     OW13771   7.723   0.131   1.840  0.1641  0.3568 -0.0250
37255SOL    HW113772   7.697   0.187   1.767  1.7652 -0.7632 -1.5338
37255SOL    HW213773   7.788   0.182   1.889  0.0727  0.6015 -0.1599
37256SOL     OW13774  10.736   5.026   1.266  0.6391 -0.0752 -0.3720
37256SOL    HW113775  10.677   5.052   1.337 -1.0531  1.1400 -2.1025
37256SOL    HW213776  10.821   5.015   1.308 -0.4790 -0.4007  1.9918
37257SOL     OW13777   4.115   0.318  10.525 -0.5604  0.3145  0.2039
37257SOL    HW113778   4.051   0.381  10.493 -1.0313 -0.0298  0.4529
37257SOL    HW213779   4.184   0.317  10.459 -1.6833 -0.6600 -0.9955
37258SOL     OW13780   6.709   7.624   7.840  0.3854  0.7038  0.2425
37258SOL    HW113781   6.630   7.636   7.787  1.5014  0.2758 -1.5826
37258SOL    HW213782   6.758   7.555   7.796  1.9102  1.1445  1.1742
37259SOL     OW13783   4.826   1.515   6.767  0.2772  0.0655  0.8521
37259SOL    HW113784   4.894   1.449   6.752 -1.7522 -1.7213 -1.3728
37259SOL    HW213785   4.869   1.599   6.750  2.0313 -0.9732 -0.0759
37260SOL     OW13786   8.606   0.180   0.673  0.1575  0.3340  0.6295
37260SOL    HW113787   8.602   0.138   0.588  0.8031  0.2848  0.6187
37260SOL    HW213788   8.530   0.146   0.721 -0.0535  0.1621  0.1694
37261SOL     OW13789   8.857   8.923   2.015  0.3931 -0.1129  0.8391
37261SOL    HW113790   8.879   8.898   2.105 -0.3277  0.9933  1.3498
37261SOL    HW213791   8.764   8.900   2.006  0.4155 -0.0572  0.4408
37262SOL     OW13792   2.455   0.488   5.543 -0.0338 -0.0454  0.0870
37262SOL    HW113793   2.460   0.423   5.473  1.0002  0.2052 -0.0868
37262SOL    HW213794   2.372   0.533   5.528  0.3191  0.2147 -1.1679
37263SOL     OW13795   8.404   8.394   1.078 -0.1311 -0.2081  0.4277
37263SOL    HW113796   8.458   8.434   1.146  0.3627  0.5574 -0.4019
37263SOL    HW213797   8.450   8.412   0.996 -2.4398  1.9584 -0.5241
37264SOL     OW13798   1.212   9.356   4.634  0.1390  0.1880  0.3977
37264SOL    HW113799   1.166   9.425   4.586 -0.6156 -0.3493  0.3302
37264SOL    HW213800   1.223   9.391   4.722  0.7151  0.8161  0.0801
37265SOL     OW13801   3.524   7.918   0.673  0.0465 -0.7720  0.1240
37265SOL    HW113802   3.559   7.841   0.628  1.5616 -0.3828  0.5988
37265SOL    HW213803   3.483   7.970   0.603  0.6940 -1.0865 -0.4984
37266SOL     OW13804   0.150   8.733  10.578 -0.7470 -0.5352  0.2548
37266SOL    HW113805   0.093   8.680  10.523 -2.1263  0.8682  0.2744
37266SOL    HW213806   0.232   8.684  10.581 -1.2182 -1.5268 -1.5591
37267SOL     OW13807   6.244   4.580   8.689 -0.5512 -0.0509  0.2313
37267SOL    HW113808   6.253   4.602   8.782  0.1331  0.0398  0.1525
37267SOL    HW213809   6.294   4.649   8.643  1.8334 -1.8058 -0.0123
37268SOL     OW13810   2.363   4.844   3.800 -0.0992 -0.0133 -0.2262
37268SOL    HW113811   2.296   4.778   3.782  0.4789 -0.5846 -0.3624
37268SOL    HW213812   2.369   4.846   3.895 -0.1116 -0.1792 -0.2204
37269SOL     OW13813   7.463  10.033   2.676 -0.3327  0.2012 -0.5264
37269SOL    HW113814   7.508  10.017   2.759 -0.1881  0.2443 -0.5953
37269SOL    HW213815   7.486  10.123   2.653  0.4378 -0.1244 -1.1020
37270SOL     OW13816  10.311   9.130   1.472  0.4590  0.0662  0.2363
37270SOL    HW113817  10.252   9.205   1.468  1.2819  0.7234  0.0681
37270SOL    HW213818  10.351   9.137   1.559  2.6441  1.5112 -0.7854
37271SOL     OW13819   7.402   5.130   9.938  0.2788 -0.0595 -0.3447
37271SOL    HW113820   7.391   5.084  10.021  2.7191  1.0020  0.6784
37271SOL    HW213821   7.356   5.076   9.874 -1.6874 -0.9266  1.6488
37272SOL     OW13822   5.559  11.003   4.183 -0.2274  0.9406 -0.6465
37272SOL    HW113823   5.510  11.002   4.100  0.2658 -1.0933 -0.9507
37272SOL    HW213824   5.625  11.071   4.171 -2.0777  2.8430 -0.7114
37273SOL     OW13825  10.591   0.106   3.897  0.1054  0.0341  0.5094
37273SOL    HW113826  10.637   0.165   3.837 -0.8197  0.4980  0.2304
37273SOL    HW213827  10.503   0.099   3.861  0.1395 -1.3996  0.6351
37274SOL     OW13828   2.318   3.157   7.592 -0.0551 -0.0497 -0.0004
37274SOL    HW113829   2.238   3.107   7.580  0.2881 -0.6168  0.0174
37274SOL    HW213830   2.378   3.122   7.526  0.8085 -0.9929  1.2343
37275SOL     OW13831   9.152   8.165   7.177  0.3917  0.3423  0.7320
37275SOL    HW113832   9.096   8.242   7.163 -0.1315 -0.0971  0.3479
37275SOL    HW213833   9.093   8.090   7.167  1.4162 -0.2412 -1.7984
37276SOL     OW13834  10.560   8.636  10.209 -0.0182 -0.4322 -0.5679
37276SOL    HW113835  10.581   8.658  10.300  1.4351 -3.4411 -0.0425
37276SOL    HW213836  10.488   8.574  10.216 -0.5385  0.0467 -1.5513
37277SOL     OW13837   3.509   3.463   6.346 -0.0847 -0.3143  0.0023
37277SOL    HW113838   3.465   3.449   6.262 -0.5438  1.3405 -0.0722
37277SOL    HW213839   3.442   3.501   6.403 -0.1006 -2.4545  1.5277
37278SOL     OW13840   5.623   0.149  10.031 -0.1814  0.3947  0.1862
37278SOL    HW113841   5.687   0.177   9.966  1.7495 -0.6422  1.5497
37278SOL    HW213842   5.565   0.225  10.042  1.5072  1.7985 -0.2568
37279SOL     OW13843   0.346   5.004   5.517  0.4683 -0.8465 -0.3357
37279SOL    HW113844   0.314   4.923   5.478  0.0898 -0.6155 -0.5099
37279SOL    HW213845   0.271   5.063   5.515 -0.6853 -1.8339  3.8736
37280SOL     OW13846   5.649   0.931   4.739  0.2358 -0.4503  0.3574
37280SOL    HW113847   5.701   0.893   4.809 -0.9758 -2.0146  0.4594
37280SOL    HW213848   5.623   0.857   4.685 -2.0804  0.2085  0.4610
37281SOL     OW13849   9.002   2.517   6.692 -0.1239  0.1958 -0.4650
37281SOL    HW113850   8.996   2.585   6.760  0.9779  0.4675 -0.6221
37281SOL    HW213851   8.913   2.512   6.655 -0.0046  2.2632 -1.1339
37282SOL     OW13852   4.089   7.138   8.348 -0.2816 -0.1360  0.4189
37282SOL    HW113853   4.178   7.114   8.374 -0.4982 -0.0155  1.2962
37282SOL    HW213854   4.100   7.181   8.263  0.5399  0.2059  0.6855
37283SOL     OW13855   5.913   7.816   2.800 -0.9229  0.6006 -0.0378
37283SOL    HW113856   5.998   7.817   2.844 -0.8561 -1.6758 -0.0245
37283SOL    HW213857   5.933   7.840   2.710  0.0597 -1.6027 -0.4605
37284SOL     OW13858   2.954   9.563  10.613  0.0331 -0.0459  0.7161
37284SOL    HW113859   3.041   9.535  10.638  0.0109  0.6318  1.5889
37284SOL    HW213860   2.900   9.484  10.621  0.9014 -1.0267 -1.8378
37285SOL     OW13861  10.363   1.931   2.886 -0.2857 -0.0143 -0.1339
37285SOL    HW113862  10.316   1.967   2.811 -0.7185 -0.3216 -0.0176
37285SOL    HW213863  10.391   2.007   2.937 -0.0699  0.1904 -0.5595
37286SOL     OW13864   6.954   4.351   3.153 -0.5458 -0.4536 -0.0530
37286SOL    HW113865   6.884   4.407   3.188  0.2694  0.5624  0.0162
37286SOL    HW213866   7.012   4.336   3.228 -0.1346 -0.3861 -0.3491
37287SOL     OW13867   5.342   4.471   9.531  0.0954  0.2662 -0.1287
37287SOL    HW113868   5.388   4.397   9.571  0.8413  0.2246 -1.0212
37287SOL    HW213869   5.316   4.526   9.604 -0.0774 -0.6571  0.5192
37288SOL     OW13870   8.689   3.753   6.998 -1.1189  0.1783 -0.3747
37288SOL    HW113871   8.776   3.714   7.001 -0.2323  2.1156  0.2053
37288SOL    HW213872   8.664   3.750   6.905  0.4194  1.3584 -0.8564
37289SOL     OW13873   7.607   4.614   6.314  0.4600 -0.3556 -0.6003
37289SOL    HW113874   7.703   4.610   6.308  0.5825 -0.7925  1.1519
37289SOL    HW213875   7.580   4.525   6.332 -0.1329  0.0253  0.4765
37290SOL     OW13876   6.472   2.945   6.999 -0.5189  0.0553 -0.2008
37290SOL    HW113877   6.460   2.875   6.934 -0.1559  0.7877 -1.0854
37290SOL    HW213878   6.396   2.937   7.056 -1.7892  0.4349 -1.7432
37291SOL     OW13879   6.536   3.330   5.455  0.1383  0.1074 -0.5514
37291SOL    HW113880   6.542   3.398   5.388  1.5411 -0.9171 -1.5291
37291SOL    HW213881   6.550   3.248   5.407  1.7483 -0.6219  1.0667
37292SOL     OW13882   7.571   7.359   3.420 -0.0959  0.2924 -0.5586
37292SOL    HW113883   7.536   7.402   3.342 -0.9736  1.2390  0.3268
37292SOL    HW213884   7.621   7.285   3.386 -1.6116 -0.1464 -1.9593
37293SOL     OW13885  10.006   0.120   7.771  0.7078  0.1789  0.0060
37293SOL    HW113886   9.962   0.205   7.766  1.5894  0.6301 -0.3025
37293SOL    HW213887  10.096   0.141   7.794  0.9101 -0.6882  0.0421
37294SOL     OW13888   9.885   4.849   5.809 -0.2964 -0.4981 -0.5550
37294SOL    HW113889   9.879   4.763   5.851  0.0014 -0.5124 -0.5392
37294SOL    HW213890   9.846   4.836   5.723  1.4762 -1.1539 -1.3112
37295SOL     OW13891   6.022   0.068   3.003 -0.2367  0.3515  0.1744
37295SOL    HW113892   6.098   0.017   2.975 -0.2754  0.7586 -0.6833
37295SOL    HW213893   6.059   0.143   3.050 -0.1651 -0.1822  0.9980
37296SOL     OW13894   4.943   9.588   2.986 -0.1147 -0.3171 -0.0113
37296SOL    HW113895   4.852   9.616   2.993 -0.4541 -0.5124 -2.4798
37296SOL    HW213896   4.946   9.536   2.906  2.1869 -0.2120 -0.0705
37297SOL     OW13897  10.387  10.286   2.436  0.4700 -0.0483 -0.2207
37297SOL    HW113898  10.452  10.215   2.436  1.0600  0.4495  1.2334
37297SOL    HW213899  10.439  10.366   2.431 -0.0107  0.3483  0.7628
37298SOL     OW13900   9.359   7.103   7.824  0.1035 -0.2871  0.6459
37298SOL    HW113901   9.282   7.123   7.878 -1.1248 -1.5814 -0.5493
37298SOL    HW213902   9.326   7.045   7.756  2.0666 -0.4824 -0.1976
37299SOL     OW13903   7.541   9.394   1.593  0.7544  0.0576 -0.6737
37299SOL    HW113904   7.493   9.477   1.581  0.4553 -0.2524 -1.7726
37299SOL    HW213905   7.526   9.347   1.511 -0.2469 -1.6916  0.4544
37300SOL     OW13906   9.381   8.154  10.615 -0.1907  0.2326  0.5653
37300SOL    HW113907   9.455   8.115  10.662  2.3440  4.6313  0.7276
37300SOL    HW213908   9.331   8.199  10.683 -0.0961  1.4165 -0.1156
37301SOL     OW13909   1.581   4.795   1.490  0.3626  0.3345  0.3775
37301SOL    HW113910   1.529   4.730   1.444  3.1290  0.0972 -2.7802
37301SOL    HW213911   1.618   4.748   1.565  0.3086 -1.0510 -0.4280
37302SOL     OW13912   7.495   5.312   7.670 -0.3051  0.4232 -0.1439
37302SOL    HW113913   7.453   5.238   7.626  2.3985 -2.1722  1.2387
37302SOL    HW213914   7.433   5.338   7.737 -0.6858 -1.8558  0.4981
37303SOL     OW13915   3.543   3.953   6.744  0.1276  0.1623  0.0529
37303SOL    HW113916   3.455   3.951   6.781  0.1736  3.0801  0.5660
37303SOL    HW213917   3.589   4.019   6.796  2.4849 -0.9128 -0.5381
37304SOL     OW13918   5.724   8.090   9.416  0.4151 -0.3839  0.4063
37304SOL    HW113919   5.742   8.148   9.490  0.1256 -0.4437  0.5275
37304SOL    HW213920   5.806   8.043   9.401  0.0188 -1.6346  1.8102
37305SOL     OW13921   3.670   2.318   6.989 -0.3389  0.0775  0.1159
37305SOL    HW113922   3.604   2.334   6.921 -2.2814 -0.4356  1.7578
37305SOL    HW213923   3.728   2.394   6.986 -0.0910 -0.1479 -2.3690
37306SOL     OW13924   6.698   3.810  10.859 -0.0717  0.0268  0.5628
37306SOL    HW113925   6.605   3.791  10.874 -0.4081 -0.1417 -1.4456
37306SOL    HW213926   6.721   3.759  10.781  1.6972  0.1328  0.9732
37307SOL     OW13927   3.642   1.753  10.999  0.3417 -0.2809 -0.0184
37307SOL    HW113928   3.623   1.842  10.970 -1.0650  0.1380  2.0032
37307SOL    HW213929   3.689   1.713  10.925 -1.3831  1.2386 -2.0621
37308SOL     OW13930   8.417   2.461   2.999  0.5164 -0.3462 -0.3898
37308SOL    HW113931   8.338   2.419   3.032 -0.1197  0.6093 -0.6493
37308SOL    HW213932   8.458   2.499   3.077 -0.0491  0.3873 -0.4406
37309SOL     OW13933   3.692   7.653   6.886 -0.5972  0.2140  0.2049
37309SOL    HW113934   3.726   7.595   6.953 -0.4832  1.5645  1.3567
37309SOL    HW213935   3.769   7.696   6.849 -0.7843  0.6390  0.3064
37310SOL     OW13936   1.233   5.626   0.105 -0.0823 -0.0003 -0.2319
37310SOL    HW113937   1.307   5.573   0.076 -0.2547 -0.6858  0.5306
37310SOL    HW213938   1.185   5.647   0.025  0.7637  0.2088 -0.6988
37311SOL     OW13939   6.434   1.485   7.015 -0.4573 -0.0916  0.3123
37311SOL    HW113940   6.402   1.573   6.992  1.2580 -0.0213 -2.1091
37311SOL    HW213941   6.395   1.428   6.950  1.2757 -0.5563 -0.3561
37312SOL     OW13942   3.702   7.151   1.907 -0.2712  0.2083  0.3811
37312SOL    HW113943   3.730   7.148   1.816 -1.0868  1.4615  0.0554
37312SOL    HW213944   3.647   7.073   1.918 -1.8262  1.0765 -0.8105
37313SOL     OW13945   2.684   4.261   2.079  0.5045  0.6206  0.0157
37313SOL    HW113946   2.680   4.314   2.159  0.2225  0.7779 -0.1052
37313SOL    HW213947   2.604   4.208   2.081  0.3751  0.8055 -0.2923
37314SOL     OW13948   6.135   3.588   5.855  0.2420  0.1535  0.5381
37314SOL    HW113949   6.069   3.605   5.788  1.2578  0.1126 -0.5129
37314SOL    HW213950   6.208   3.549   5.807  0.9348 -0.0356  1.7049
37315SOL     OW13951   5.484   7.378   2.010 -0.0093 -0.0008 -0.3603
37315SOL    HW113952   5.523   7.318   2.073 -0.3945 -1.4554 -1.4419
37315SOL    HW213953   5.438   7.321   1.948  0.3657  1.3476 -1.9640
37316SOL     OW13954   1.238   2.965   6.344 -0.0168 -0.3849 -0.0082
37316SOL    HW113955   1.269   2.898   6.283 -0.5988 -0.4888 -0.1973
37316SOL    HW213956   1.318   3.002   6.381  0.3643 -0.1207 -1.0540
37317SOL     OW13957   7.657   3.603   9.653  0.0832 -0.0335  0.0535
37317SOL    HW113958   7.562   3.588   9.645  0.4650 -1.6709 -2.8564
37317SOL    HW213959   7.697   3.527   9.610  2.7418  0.7322  1.0028
37318SOL     OW13960   2.712   6.180   3.877 -0.0897  0.4856  0.7351
37318SOL    HW113961   2.699   6.271   3.853 -3.0967 -0.0956 -0.3426
37318SOL    HW213962   2.724   6.134   3.794 -2.7944 -0.5340  0.7834
37319SOL     OW13963   8.116  10.838   2.349 -0.0895 -0.2138 -0.4590
37319SOL    HW113964   8.139  10.931   2.341 -1.8435  0.2148 -0.9466
37319SOL    HW213965   8.084  10.829   2.438 -0.4498 -0.2315 -0.5915
37320SOL     OW13966   1.992   4.581   4.401 -0.5081  0.1633 -0.3510
37320SOL    HW113967   1.931   4.591   4.474 -0.2212 -0.0153 -0.0847
37320SOL    HW213968   2.032   4.495   4.415 -0.2364  0.2564 -0.5560
37321SOL     OW13969   8.714   5.197   9.425 -0.6866 -0.0082  0.8853
37321SOL    HW113970   8.690   5.283   9.462  1.7533  0.8533  0.5978
37321SOL    HW213971   8.743   5.217   9.337  2.7501 -0.6146  1.7573
37322SOL     OW13972   3.812   1.579   6.435 -0.1413  0.3749  0.3092
37322SOL    HW113973   3.758   1.654   6.456 -0.5735 -0.1147  0.9943
37322SOL    HW213974   3.783   1.511   6.495  1.7914  0.3399  1.2737
37323SOL     OW13975   6.557   4.103   0.550  0.3451 -0.5043 -0.1398
37323SOL    HW113976   6.618   4.171   0.521 -1.2612  1.1255  0.1017
37323SOL    HW213977   6.582   4.025   0.500  1.8355  0.4229 -0.9125
37324SOL     OW13978   1.751   8.421   7.740  0.0164 -0.0113 -0.3920
37324SOL    HW113979   1.816   8.472   7.788 -0.8922  1.0583 -0.2353
37324SOL    HW213980   1.667   8.445   7.781 -0.4767 -1.5106 -0.4420
37325SOL     OW13981   9.612   0.461   5.907  0.0246  0.2043 -0.2975
37325SOL    HW113982   9.673   0.480   5.978 -1.2574  3.1125  0.1680
37325SOL    HW213983   9.667   0.454   5.829  1.0338  2.9582  0.0596
37326SOL     OW13984   0.934   8.812   5.246  0.5272 -0.5558 -0.1732
37326SOL    HW113985   0.891   8.728   5.231  1.7645 -1.1622 -0.5184
37326SOL    HW213986   0.899   8.869   5.178  0.7558 -1.2275 -0.8732
37327SOL     OW13987   9.418   8.542   5.070  0.2157 -0.0703 -0.1119
37327SOL    HW113988   9.329   8.523   5.100  0.4469 -0.3394  0.4147
37327SOL    HW213989   9.458   8.591   5.142 -0.0317  1.5376 -1.0219
37328SOL     OW13990   8.451   6.349   1.057  0.7142 -0.5330  0.4656
37328SOL    HW113991   8.386   6.419   1.052  0.2153 -1.0328 -0.4699
37328SOL    HW213992   8.468   6.337   1.150 -0.3600 -0.2200  0.7114
37329SOL     OW13993   6.860   4.092   3.059  0.0094 -0.3250  0.0133
37329SOL    HW113994   6.776   4.089   3.106  0.7579  0.8830  1.5307
37329SOL    HW213995   6.890   4.182   3.071  1.8137 -0.8995  0.0564
37330SOL     OW13996   0.686   8.191   6.572 -0.2391 -0.0988  0.0406
37330SOL    HW113997   0.592   8.180   6.586 -0.2907 -3.4382 -1.8975
37330SOL    HW213998   0.726   8.157   6.652 -0.6571 -0.3246  0.1557
37331SOL     OW13999  10.751   3.284   4.995 -0.0181  0.0750  0.3443
37331SOL    HW114000  10.773   3.311   4.906 -0.9678  1.3763  0.4682
37331SOL    HW214001  10.810   3.211   5.013  3.3815  2.5286  0.2492
37332SOL     OW14002   8.746   1.047   4.977 -0.1541  0.4578  0.0273
37332SOL    HW114003   8.833   1.021   4.947 -0.0596 -1.1373  1.5653
37332SOL    HW214004   8.686   0.985   4.935 -0.3483  0.3171  0.5058
37333SOL     OW14005   1.784   5.082   7.917 -0.8615 -0.5821 -0.7232
37333SOL    HW114006   1.844   5.023   7.872 -0.5173  0.1468 -1.2391
37333SOL    HW214007   1.770   5.154   7.855 -1.9842 -0.5593 -0.4734
37334SOL     OW14008   0.814   8.381   7.242  0.3199 -0.0110 -0.2564
37334SOL    HW114009   0.741   8.329   7.209  0.0946  0.4098 -0.4163
37334SOL    HW214010   0.891   8.346   7.196  0.2901 -0.7526  0.2386
37335SOL     OW14011   2.304   9.207   3.506  0.0533 -0.3626  0.3604
37335SOL    HW114012   2.349   9.288   3.534  0.2743 -1.2133  2.6814
37335SOL    HW214013   2.270   9.228   3.419 -1.4181  2.8625  1.5265
37336SOL     OW14014   5.509   7.245   8.985  0.5350  0.0123  0.2513
37336SOL    HW114015   5.545   7.188   9.053  0.6687 -0.2758 -0.0613
37336SOL    HW214016   5.552   7.329   8.999  2.1821 -0.6179 -0.8113
37337SOL     OW14017   5.536   0.337   7.461  0.2356 -0.5226 -0.0072
37337SOL    HW114018   5.558   0.412   7.515  0.8395 -0.2818 -0.5764
37337SOL    HW214019   5.447   0.355   7.429 -1.3295 -1.9826  3.1258
37338SOL     OW14020   3.793   5.683   5.605 -0.1723  0.2800  0.2445
37338SOL    HW114021   3.861   5.749   5.590 -0.1464  0.0476 -0.7662
37338SOL    HW214022   3.718   5.714   5.552 -0.2907 -0.2908  0.0743
37339SOL     OW14023   9.536   6.396   3.000 -0.1387 -0.2452 -0.4194
37339SOL    HW114024   9.618   6.349   2.984  0.7497  0.1032  2.5131
37339SOL    HW214025   9.548   6.480   2.957  0.8748 -0.3836 -0.4379
37340SOL     OW14026   9.095   2.663   8.894 -0.0197 -0.0360 -0.2245
37340SOL    HW114027   9.137   2.650   8.978 -0.3740  3.3640  0.6240
37340SOL    HW214028   9.005   2.687   8.915 -0.3077  0.2264 -1.6174
37341SOL     OW14029   3.892   4.871   2.906  0.0509  0.1159 -0.2638
37341SOL    HW114030   3.909   4.881   3.000  2.4253 -0.6725 -0.5459
37341SOL    HW214031   3.874   4.959   2.875  1.4283  0.7185  0.5694
37342SOL     OW14032   9.209   8.056   5.793 -0.0445 -0.1097 -0.1056
37342SOL    HW114033   9.127   8.072   5.746 -0.2373 -1.8369 -0.4280
37342SOL    HW214034   9.183   8.005   5.870  0.7014 -0.4619 -0.0760
37343SOL     OW14035   1.645   6.879   1.542  0.0710  0.5224 -0.2223
37343SOL    HW114036   1.667   6.948   1.604 -0.6356 -0.4893  1.2234
37343SOL    HW214037   1.628   6.924   1.460 -0.6834  2.1012  0.7664
37344SOL     OW14038   2.036   3.997   4.806 -0.6169  0.4913  0.3663
37344SOL    HW114039   2.090   4.075   4.818 -3.1022  2.5554 -0.9001
37344SOL    HW214040   2.063   3.962   4.721  0.4933 -0.0837  0.9316
37345SOL     OW14041   8.507   5.089  10.836 -0.0690  0.8303  0.3913
37345SOL    HW114042   8.413   5.072  10.833 -0.1346  1.2628 -0.1365
37345SOL    HW214043   8.516   5.183  10.817  0.4519  0.8510  0.6932
37346SOL     OW14044   3.443   3.208   2.262  0.2557 -0.0768  0.3948
37346SOL    HW114045   3.507   3.278   2.244  1.2538 -1.1274 -0.3323
37346SOL    HW214046   3.359   3.245   2.236  0.8058  0.7641 -0.2623
37347SOL     OW14047  10.606   0.730   8.177  0.2466  0.2765  0.3726
37347SOL    HW114048  10.564   0.739   8.092  0.1303  0.6326  0.4669
37347SOL    HW214049  10.555   0.664   8.222  0.0725  0.3688  0.3112
37348SOL     OW14050   4.083   4.941   0.178 -0.0359 -0.1178 -0.2899
37348SOL    HW114051   4.128   5.014   0.221  2.2834  0.3620 -3.1497
37348SOL    HW214052   4.122   4.862   0.216 -0.5624  0.1692  0.8771
37349SOL     OW14053   5.393   5.506   8.710  0.3296  0.3136  0.3498
37349SOL    HW114054   5.373   5.414   8.691  1.5313 -0.4539  2.4084
37349SOL    HW214055   5.425   5.541   8.627 -0.2304 -1.1130 -0.4994
37350SOL     OW14056   8.757   0.117   4.091 -0.2333  0.2427 -0.3934
37350SOL    HW114057   8.839   0.165   4.083  0.2040 -0.4450 -0.1864
37350SOL    HW214058   8.729   0.104   4.001 -0.8941  1.7496 -0.4316
37351SOL     OW14059   4.839  10.541   5.275  0.6311  0.7356 -0.6302
37351SOL    HW114060   4.851  10.523   5.182 -1.3391  0.2020 -0.8308
37351SOL    HW214061   4.746  10.523   5.291  0.7073  1.7615  1.2331
37352SOL     OW14062   8.499   9.122  10.507  0.1479  0.2734 -0.0944
37352SOL    HW114063   8.525   9.184  10.438  0.7893 -0.6533 -0.7086
37352SOL    HW214064   8.481   9.041  10.459  2.7118 -1.0421  1.0126
37353SOL     OW14065  10.097   1.671   2.328 -0.4733 -0.4442 -0.0422
37353SOL    HW114066  10.067   1.590   2.285 -0.1439 -1.0652  0.8595
37353SOL    HW214067  10.140   1.721   2.259 -1.3671 -0.6791 -0.7924
37354SOL     OW14068   9.544   1.060   0.300 -0.0377 -0.4441  0.5216
37354SOL    HW114069   9.604   1.022   0.365 -0.6365 -1.1844  0.6427
37354SOL    HW214070   9.470   1.092   0.352 -1.4723 -2.8149  0.0749
37355SOL     OW14071   4.609   8.703   5.958  0.4401  0.0382 -0.0130
37355SOL    HW114072   4.521   8.688   5.994  0.7008  1.4600  1.3220
37355SOL    HW214073   4.612   8.649   5.879 -1.4775 -0.3808  0.1503
37356SOL     OW14074   3.640   8.659   9.521  0.0460  0.6305 -0.0059
37356SOL    HW114075   3.620   8.747   9.551  0.3018  0.2331  1.3885
37356SOL    HW214076   3.556   8.625   9.489 -0.5576  0.5948  1.5590
37357SOL     OW14077   3.371   9.657   6.997  0.0934  0.5036  0.3184
37357SOL    HW114078   3.381   9.747   6.967  0.6099 -0.3808 -2.4888
37357SOL    HW214079   3.461   9.622   6.997 -0.2163 -0.3121  0.3388
37358SOL     OW14080   9.875   7.123   8.952 -0.2855  0.1073 -0.3249
37358SOL    HW114081   9.922   7.084   9.026  0.5179  0.3946 -0.6722
37358SOL    HW214082   9.915   7.210   8.942 -0.2668  0.0027 -1.2043
37359SOL     OW14083   3.713   4.566   5.114  0.2084  0.0950 -0.1793
37359SOL    HW114084   3.732   4.657   5.091 -0.6555  0.0510 -1.1422
37359SOL    HW214085   3.776   4.546   5.184  1.2972  1.0053 -0.8532
37360SOL     OW14086   0.512   4.371   9.649  0.0613 -0.7317  0.6962
37360SOL    HW114087   0.488   4.450   9.698 -1.8380 -0.0055 -1.2338
37360SOL    HW214088   0.604   4.384   9.625  0.1214  0.3236  1.4471
37361SOL     OW14089  10.150   1.753   4.730  0.0125  0.2120  0.1532
37361SOL    HW114090  10.139   1.834   4.780  1.2556 -0.0793  0.9578
37361SOL    HW214091  10.238   1.759   4.694 -0.7429  0.2606 -1.7837
37362SOL     OW14092   8.727   8.292   0.940 -0.0684 -0.2275 -0.1341
37362SOL    HW114093   8.632   8.288   0.933 -0.1875 -0.6122  1.2856
37362SOL    HW214094   8.752   8.369   0.890 -1.4234  1.5366  1.7333
37363SOL     OW14095   6.044   4.361   1.106 -0.0947 -0.1108 -0.3478
37363SOL    HW114096   6.087   4.301   1.045  0.5558  0.5235 -0.5260
37363SOL    HW214097   6.097   4.441   1.102 -1.2326  0.6512 -0.4910
37364SOL     OW14098   6.726   7.481   1.929  0.5306  0.3759  0.0534
37364SOL    HW114099   6.819   7.478   1.904  0.2770  0.4019 -0.9092
37364SOL    HW214100   6.707   7.575   1.940  0.4665  0.4062 -0.3210
37365SOL     OW14101   9.182   4.749   5.294 -0.1814 -0.0717  0.4645
37365SOL    HW114102   9.216   4.829   5.334 -0.9630  0.4115  0.1812
37365SOL    HW214103   9.241   4.732   5.220  0.0269  0.2068  0.5665
37366SOL     OW14104   9.611   2.618   6.444 -0.2067 -0.1223 -1.0221
37366SOL    HW114105   9.597   2.704   6.404  1.4065  0.6888  0.0712
37366SOL    HW214106   9.675   2.633   6.513 -1.0872 -1.9179  0.2881
37367SOL     OW14107   6.281   4.974   3.410  0.2652  0.3858 -0.0115
37367SOL    HW114108   6.307   4.974   3.503  0.0947  2.3494  0.0877
37367SOL    HW214109   6.203   4.919   3.407  0.0913  0.5400  1.0795
37368SOL     OW14110  10.254   9.845   3.121 -0.2947 -0.2867  0.3927
37368SOL    HW114111  10.178   9.890   3.158 -1.4738 -1.5108 -0.4456
37368SOL    HW214112  10.269   9.772   3.181 -2.2494 -2.3155 -1.3600
37369SOL     OW14113   9.712  10.729   2.225  0.4339  0.2536  0.6771
37369SOL    HW114114   9.739  10.816   2.254  1.9303 -0.1395  0.5408
37369SOL    HW214115   9.790  10.693   2.182 -0.2774 -1.0099  0.4024
37370SOL     OW14116   7.516   3.398   6.386  0.4766  0.2524 -0.6740
37370SOL    HW114117   7.490   3.428   6.473  0.5735  0.7272 -0.8074
37370SOL    HW214118   7.502   3.303   6.388  0.1398  0.3106 -0.2597
37371SOL     OW14119   5.559   3.086  10.510  0.3398  0.0091 -0.4848
37371SOL    HW114120   5.481   3.112  10.460  0.8686  0.0928 -1.2863
37371SOL    HW214121   5.581   3.165  10.560  0.0441  0.0632 -0.4373
37372SOL     OW14122   5.726  10.533   2.512 -0.2731  0.7253 -0.1932
37372SOL    HW114123   5.805  10.554   2.563  0.3843 -1.2295 -0.3398
37372SOL    HW214124   5.675  10.475   2.569  0.6585 -1.8171 -1.7842
37373SOL     OW14125   4.188   8.341   6.849 -0.0062 -0.3284 -0.0840
37373SOL    HW114126   4.153   8.407   6.910  0.2993  1.9707 -2.2007
37373SOL    HW214127   4.128   8.344   6.775  0.9482 -1.2698 -0.9179
37374SOL     OW14128   7.489   0.501   2.619 -0.1744  0.2222 -0.1323
37374SOL    HW114129   7.446   0.563   2.559 -0.3799  3.4557  3.0005
37374SOL    HW214130   7.582   0.509   2.599 -0.2918  0.6947 -0.5117
37375SOL     OW14131   2.384   5.328   7.549  0.0168 -0.3382  0.6045
37375SOL    HW114132   2.412   5.255   7.605 -0.9316 -1.4981 -0.3605
37375SOL    HW214133   2.288   5.324   7.552 -0.0808 -0.7197 -1.3882
37376SOL     OW14134   1.083   1.322   8.708  0.0151  0.1211  0.0146
37376SOL    HW114135   1.079   1.233   8.673  0.2054 -0.3741  1.2026
37376SOL    HW214136   1.168   1.356   8.678  0.8676 -0.8554  1.2453
37377SOL     OW14137   0.671   2.128   9.372  0.7410  0.4210  0.2056
37377SOL    HW114138   0.597   2.076   9.342  1.1679  0.3149 -0.6918
37377SOL    HW214139   0.637   2.177   9.446 -0.4102  0.8597 -0.5883
37378SOL     OW14140   5.079   5.837   6.940  0.0019  0.4540 -0.0307
37378SOL    HW114141   5.022   5.842   6.864  1.2686 -0.9759 -1.1455
37378SOL    HW214142   5.044   5.765   6.992  1.0692 -0.8535 -1.0370
37379SOL     OW14143   7.066   7.112   4.641 -0.4228  0.4639 -0.3251
37379SOL    HW114144   7.039   7.141   4.554 -2.0045  1.2064  0.3841
37379SOL    HW214145   7.072   7.192   4.693 -0.9893 -0.0946  0.6317
37380SOL     OW14146   0.194   9.203  10.155  0.2701  0.5033  0.1547
37380SOL    HW114147   0.109   9.158  10.151  1.2449 -1.3160 -1.6155
37380SOL    HW214148   0.259   9.135  10.140  1.9269  2.2341 -1.0929
37381SOL     OW14149  10.353   4.519   6.086  0.2030 -0.7509  0.1998
37381SOL    HW114150  10.397   4.570   6.154 -2.6455  0.9364  0.9199
37381SOL    HW214151  10.383   4.559   6.004  1.9262 -1.3313  0.5104
37382SOL     OW14152   6.248   7.936   2.058  0.6217 -0.2019  0.4607
37382SOL    HW114153   6.159   7.949   2.093  0.2995  0.3001 -0.5051
37382SOL    HW214154   6.303   7.991   2.114  0.0347  1.0160 -0.1002
37383SOL     OW14155   2.020   0.465  10.334  0.2577 -0.0527 -0.3794
37383SOL    HW114156   1.986   0.423  10.413 -0.0022  0.5320 -0.1730
37383SOL    HW214157   2.081   0.402  10.298  0.1772 -0.4395  0.1448
37384SOL     OW14158  10.196   6.364   1.525 -0.5525  0.1024  0.3175
37384SOL    HW114159  10.212   6.375   1.618 -1.2450  2.0532  0.2540
37384SOL    HW214160  10.126   6.426   1.505  1.0802  1.3521 -1.9014
37385SOL     OW14161   9.933   5.816   6.062  0.1435  0.6195 -0.1745
37385SOL    HW114162   9.869   5.867   6.013  0.1624  1.0370  0.2242
37385SOL    HW214163   9.963   5.875   6.131  1.1977  0.5421 -0.5460
37386SOL     OW14164   6.224   8.010   7.155 -0.2834 -0.3294  0.0218
37386SOL    HW114165   6.251   8.032   7.245  1.0151 -4.0802  0.7171
37386SOL    HW214166   6.151   7.950   7.166  1.3324 -2.6731 -1.2344
37387SOL     OW14167   7.475   7.611   7.874 -0.4916  0.4295  0.4052
37387SOL    HW114168   7.382   7.590   7.863 -0.4477  0.8831 -1.0516
37387SOL    HW214169   7.520   7.529   7.854 -0.5005  0.8032 -1.3451
37388SOL     OW14170   3.169   5.561   0.471  0.0172 -0.0735 -0.2894
37388SOL    HW114171   3.153   5.477   0.513  0.5525  0.0988  0.2616
37388SOL    HW214172   3.082   5.601   0.464 -0.1975 -0.5305 -0.2616
37389SOL     OW14173   0.268   5.170   0.020 -0.2114 -0.1475  0.2556
37389SOL    HW114174   0.188   5.218  -0.000 -1.4714 -1.4080  1.8905
37389SOL    HW214175   0.298   5.135  -0.064 -0.3593  1.7917 -0.6461
37390SOL     OW14176   7.471   7.106   2.462  0.1829  0.3189  0.1075
37390SOL    HW114177   7.469   7.035   2.398  0.3341 -0.4844  0.9630
37390SOL    HW214178   7.547   7.088   2.516 -0.2583  0.6537  0.8664
37391SOL     OW14179   3.208  10.754   2.662 -0.2888 -0.7913  0.4118
37391SOL    HW114180   3.281  10.803   2.700  0.2857 -1.0579 -0.3286
37391SOL    HW214181   3.229  10.662   2.679  0.6721 -1.0048 -1.6964
37392SOL     OW14182  10.873   7.682   4.577  0.4172 -0.5756  0.3802
37392SOL    HW114183  10.954   7.673   4.627  0.2383  0.6614  0.9222
37392SOL    HW214184  10.844   7.772   4.593 -1.9176 -1.4511  1.5302
37393SOL     OW14185  10.655  10.077   6.724 -0.1224 -0.1347 -0.6032
37393SOL    HW114186  10.572  10.052   6.764 -0.2229  0.1213 -0.6473
37393SOL    HW214187  10.655  10.173   6.727  1.1458 -0.1347  1.4406
37394SOL     OW14188   5.231   8.854  10.289 -0.5234 -0.3769  0.3742
37394SOL    HW114189   5.294   8.925  10.275 -2.3804  1.3364  0.2627
37394SOL    HW214190   5.246   8.827  10.380  1.0762 -0.7807  0.0257
37395SOL     OW14191   0.551  10.212   3.867 -0.0414 -0.3658 -0.4115
37395SOL    HW114192   0.606  10.178   3.797 -1.6014 -0.8218 -1.4754
37395SOL    HW214193   0.496  10.138   3.892 -0.4805  0.1919  0.3036
37396SOL     OW14194   8.207   0.122   7.944 -0.2542  0.1528 -0.1730
37396SOL    HW114195   8.128   0.138   7.894  0.5508 -0.5237 -1.7374
37396SOL    HW214196   8.181   0.133   8.035 -2.2913 -0.7034 -0.6077
37397SOL     OW14197   2.644   2.101   4.001 -0.1911 -0.1385 -0.0448
37397SOL    HW114198   2.583   2.039   4.042 -0.0225 -0.9566 -1.0186
37397SOL    HW214199   2.623   2.098   3.908 -0.0970  1.1932 -0.1307
37398SOL     OW14200   1.415   0.623  10.980  0.1636 -0.1271 -0.2251
37398SOL    HW114201   1.343   0.654  10.925 -0.6527  0.0728  0.9090
37398SOL    HW214202   1.484   0.688  10.969 -0.8606  1.1808  0.7492
37399SOL     OW14203   2.414   8.005   6.709 -0.3993 -0.2429  0.1672
37399SOL    HW114204   2.463   7.951   6.647  0.1171  1.1307 -0.6527
37399SOL    HW214205   2.343   8.042   6.657 -1.1327 -0.6233  0.8788
37400SOL     OW14206   0.393   9.724   1.620 -0.2492 -0.2519  0.0777
37400SOL    HW114207   0.456   9.760   1.557  0.1221 -0.1459  0.5058
37400SOL    HW214208   0.320   9.786   1.617 -0.4114 -0.4612 -0.5383
37401SOL     OW14209   4.527   0.678  10.185 -0.6181 -0.1014  0.5099
37401SOL    HW114210   4.553   0.742  10.251  1.5970 -1.2934  0.9054
37401SOL    HW214211   4.530   0.727  10.102  1.0923  0.3669  0.7921
37402SOL     OW14212   8.006   1.460   6.963 -0.1566 -0.0248  0.2370
37402SOL    HW114213   8.033   1.395   6.899 -0.4579  1.6167 -1.6744
37402SOL    HW214214   8.081   1.519   6.970 -0.5789  0.4901  0.4592
37403SOL     OW14215   6.045   8.566   3.450  0.0270 -0.3293 -0.1291
37403SOL    HW114216   6.023   8.612   3.369 -0.8755 -1.8436 -0.7887
37403SOL    HW214217   5.961   8.535   3.483  0.0145  2.4061  2.8218
37404SOL     OW14218   3.019   6.806   4.453  0.4233 -0.3760 -0.0470
37404SOL    HW114219   3.007   6.724   4.405  1.1376 -0.9229  0.6852
37404SOL    HW214220   2.953   6.802   4.522 -0.0995  0.0630 -0.5124
37405SOL     OW14221   4.912   0.379   8.628  0.5726  0.3852 -0.0481
37405SOL    HW114222   4.960   0.301   8.656  0.0228  0.4318  1.0756
37405SOL    HW214223   4.947   0.399   8.542 -1.3069 -2.8134 -1.7230
37406SOL     OW14224   7.947   1.505   3.845 -0.2221  0.7577  0.1370
37406SOL    HW114225   7.910   1.430   3.892  0.5926 -0.4310 -1.0476
37406SOL    HW214226   8.028   1.525   3.893  1.3160 -1.3194 -1.4469
37407SOL     OW14227   9.794   2.413   6.882 -0.2012  0.3307  0.0225
37407SOL    HW114228   9.731   2.485   6.882 -0.4003  0.1574  0.5905
37407SOL    HW214229   9.778   2.367   6.964 -0.8561 -1.0343 -0.8188
37408SOL     OW14230  10.152   8.696   4.857  0.1017  0.6188 -0.0888
37408SOL    HW114231  10.208   8.670   4.784 -0.3649  1.4276 -0.7492
37408SOL    HW214232  10.074   8.641   4.849  0.7992 -0.5669  0.8793
37409SOL     OW14233   7.907   6.684   5.669 -0.1917 -0.9144  0.2709
37409SOL    HW114234   7.819   6.688   5.631 -1.3705  2.5662  2.9020
37409SOL    HW214235   7.963   6.723   5.602 -1.5038  1.2328  0.3311
37410SOL     OW14236  10.728   6.404   4.410  0.1619 -0.0773 -0.2819
37410SOL    HW114237  10.738   6.436   4.320  1.6308 -1.4959 -0.6486
37410SOL    HW214238  10.731   6.309   4.403 -0.7204 -0.2464  1.1786
37411SOL     OW14239   2.649   3.821   7.944  0.3364  0.5650 -0.3795
37411SOL    HW114240   2.736   3.846   7.975  0.1838  0.4550  0.1443
37411SOL    HW214241   2.663   3.795   7.853  1.3112 -1.9328  0.4008
37412SOL     OW14242   0.861  10.373   3.457 -0.5598 -0.2114 -0.3159
37412SOL    HW114243   0.822  10.286   3.459  1.1957 -1.0329  1.1980
37412SOL    HW214244   0.787  10.433   3.466 -1.8265 -1.5028 -1.7076
37413SOL     OW14245   8.215   5.970   3.038 -0.1169  0.4848  0.0484
37413SOL    HW114246   8.246   6.047   2.989  1.5845 -0.9664 -1.2935
37413SOL    HW214247   8.156   5.926   2.977  0.2538 -0.1437  0.1362
37414SOL     OW14248   6.759   0.431   9.966  0.0564 -0.2951 -0.0641
37414SOL    HW114249   6.712   0.365  10.017  1.7733 -0.5022  1.3759
37414SOL    HW214250   6.823   0.467  10.028  0.4741  1.3282 -1.3821
37415SOL     OW14251   3.703   3.391   7.052  0.0117 -0.5274  0.3600
37415SOL    HW114252   3.630   3.432   7.097  0.7040 -0.7186  1.7096
37415SOL    HW214253   3.672   3.303   7.029 -0.7402 -0.0212 -0.6076
37416SOL     OW14254   6.353   0.146   2.895 -0.4316  0.5678  0.3575
37416SOL    HW114255   6.407   0.078   2.856 -1.7705 -0.4245  0.1799
37416SOL    HW214256   6.289   0.169   2.827 -3.4112 -1.8453  2.0695
37417SOL     OW14257   9.911   3.059   1.818  0.0449  0.3127 -0.2903
37417SOL    HW114258   9.863   2.982   1.787  0.4730  0.1726 -0.6169
37417SOL    HW214259   9.862   3.088   1.895  1.4987 -2.0119  1.6465
37418SOL     OW14260   7.145  10.445   9.184 -0.0169 -0.2507  0.1335
37418SOL    HW114261   7.175  10.531   9.154  1.1096 -1.0938 -1.2952
37418SOL    HW214262   7.052  10.456   9.199 -0.0529  1.0255 -0.8243
37419SOL     OW14263   8.000   7.977   6.447 -0.3850  0.9261 -0.2023
37419SOL    HW114264   7.944   7.909   6.410  0.7348  0.2588 -0.7553
37419SOL    HW214265   7.941   8.050   6.466 -1.2209  0.8078 -2.1114
37420SOL     OW14266   1.943  10.337   7.181  0.2728 -1.2759  0.4854
37420SOL    HW114267   1.921  10.411   7.125  0.1346  0.0530  2.2346
37420SOL    HW214268   1.861  10.290   7.193 -0.2387 -0.1235  1.6011
37421SOL     OW14269   6.313   9.473   8.115  0.4289  0.0537 -0.4858
37421SOL    HW114270   6.360   9.533   8.174  1.1344  0.7762 -1.7268
37421SOL    HW214271   6.222   9.503   8.119  0.0249 -1.2330  1.7969
37422SOL     OW14272   0.730  10.016   3.135 -0.2127 -0.1542 -0.7219
37422SOL    HW114273   0.767   9.953   3.072 -1.5306 -0.8205 -0.8685
37422SOL    HW214274   0.704   9.962   3.210 -1.4755  0.1739 -0.9019
37423SOL     OW14275   2.591   8.060   9.204 -0.0421 -0.0553  0.6545
37423SOL    HW114276   2.509   8.012   9.214 -0.1615  0.1272  0.5567
37423SOL    HW214277   2.587   8.096   9.115  0.1012  0.0330  0.6840
37424SOL     OW14278   3.181  10.094   1.334 -0.2479  0.5006 -0.5716
37424SOL    HW114279   3.261  10.045   1.313  0.0523  0.3929  0.7241
37424SOL    HW214280   3.202  10.185   1.313 -0.5681  0.2074 -2.3314
37425SOL     OW14281   4.337   4.653   9.646 -0.3019 -0.0181  0.3103
37425SOL    HW114282   4.265   4.710   9.622  0.3098  0.5432 -0.2307
37425SOL    HW214283   4.373   4.623   9.562 -0.8837 -1.5583  0.5788
37426SOL     OW14284   0.277   8.482   3.785  0.2111 -0.1178 -0.4572
37426SOL    HW114285   0.288   8.577   3.789  0.6788 -0.1969  0.3679
37426SOL    HW214286   0.289   8.453   3.876  1.6664 -1.1225 -0.9348
37427SOL     OW14287   3.836   5.289   8.566 -0.3749 -0.0817 -0.0299
37427SOL    HW114288   3.832   5.216   8.627 -2.2568  0.9261  1.1454
37427SOL    HW214289   3.747   5.299   8.533 -0.0398  1.3010 -0.6191
37428SOL     OW14290   1.309   5.508   4.544  0.6402 -0.1244 -0.1512
37428SOL    HW114291   1.299   5.467   4.459 -0.3929 -2.5328  1.0291
37428SOL    HW214292   1.221   5.537   4.568  1.1259  1.6215 -0.3676
37429SOL     OW14293   0.048   6.138   3.552  0.2133  0.0238 -0.5839
37429SOL    HW114294   0.066   6.092   3.470 -0.3734 -0.9991 -0.1541
37429SOL    HW214295   0.004   6.074   3.607 -0.4545  1.0483  0.1175
37430SOL     OW14296   3.402   5.310   8.309 -0.4113  0.0387  0.3618
37430SOL    HW114297   3.480   5.258   8.331 -0.7442 -0.3952  0.5260
37430SOL    HW214298   3.375   5.347   8.392  0.3471  1.2188  0.1048
37431SOL     OW14299   4.751   5.366   1.259  0.0547 -0.2987  0.1587
37431SOL    HW114300   4.718   5.308   1.190  2.0619 -0.7753 -0.4500
37431SOL    HW214301   4.837   5.393   1.229 -0.2350  1.8859  1.1264
37432SOL     OW14302   0.594   4.790   0.360 -0.2492  0.5123 -0.5171
37432SOL    HW114303   0.504   4.759   0.354 -0.0624  0.2404 -2.3566
37432SOL    HW214304   0.614   4.788   0.454 -2.2371  0.8509 -0.0480
37433SOL     OW14305   1.463   9.771   3.529 -0.4896  0.1162 -0.9217
37433SOL    HW114306   1.490   9.828   3.457  0.9493  0.2248 -0.3377
37433SOL    HW214307   1.502   9.687   3.508 -0.5378  0.0014 -0.5487
37434SOL     OW14308   2.529   7.557   6.210 -0.5666 -0.0170 -0.0401
37434SOL    HW114309   2.569   7.521   6.131 -2.4999 -1.1819 -0.5457
37434SOL    HW214310   2.567   7.645   6.218  0.5454 -0.3166 -1.5867
37435SOL     OW14311   3.733   5.842   6.207 -0.2352  0.1098  0.2090
37435SOL    HW114312   3.743   5.757   6.164  1.3882  0.7638 -0.7952
37435SOL    HW214313   3.719   5.821   6.299 -0.7155 -1.2557 -0.1567
37436SOL     OW14314   1.842   8.571   9.840 -0.1293  0.1750 -0.2159
37436SOL    HW114315   1.830   8.660   9.807 -1.1879  0.6254  1.2887
37436SOL    HW214316   1.932   8.569   9.873 -0.2313  0.8006  0.0939
37437SOL     OW14317   1.394   9.864  10.618  0.2489 -0.4390 -0.2668
37437SOL    HW114318   1.320   9.897  10.567  1.8996  0.8342 -1.9985
37437SOL    HW214319   1.387   9.769  10.611 -1.9501 -0.4061  0.7909
37438SOL     OW14320   4.636   5.031   4.564  0.1032  0.0685  0.1116
37438SOL    HW114321   4.695   4.968   4.523  1.3219  1.1038  0.2151
37438SOL    HW214322   4.573   5.053   4.496 -1.2692 -2.3293  0.5034
37439SOL     OW14323   5.830   1.634   9.905  0.0228 -0.5248 -0.4467
37439SOL    HW114324   5.794   1.623   9.993  1.1457 -0.9420 -0.0200
37439SOL    HW214325   5.921   1.660   9.920  0.6036 -1.8835 -1.4832
37440SOL     OW14326   7.957   3.128   2.208  0.6006 -0.3266 -0.1107
37440SOL    HW114327   7.942   3.221   2.227  1.0901 -0.2134 -0.2561
37440SOL    HW214328   8.051   3.117   2.217  0.7451 -0.4675 -1.5675
37441SOL     OW14329   9.414   6.323   8.340  0.1559 -0.8992  0.2132
37441SOL    HW114330   9.475   6.253   8.319 -0.1106 -0.9841 -0.2803
37441SOL    HW214331   9.385   6.356   8.255 -0.1372 -0.5567  0.4446
37442SOL     OW14332   4.489   8.217   7.850  0.1783 -0.4653  0.0375
37442SOL    HW114333   4.496   8.243   7.942  1.5361 -1.4789  0.2591
37442SOL    HW214334   4.532   8.288   7.802 -0.2038 -0.1119  0.2176
37443SOL     OW14335   6.086   5.653   1.008  0.1674  0.7430  0.1381
37443SOL    HW114336   6.107   5.665   1.100  1.6937  0.6638 -0.1767
37443SOL    HW214337   6.083   5.742   0.972 -1.1691  0.8244  0.3881
37444SOL     OW14338   2.870   3.625   3.861  0.4180 -0.1871  0.0377
37444SOL    HW114339   2.951   3.589   3.897  0.9884  0.9350 -0.0652
37444SOL    HW214340   2.899   3.692   3.799 -0.5859  0.5172  0.3043
37445SOL     OW14341   9.970   0.440   7.861 -0.2712 -0.1292  0.1009
37445SOL    HW114342   9.946   0.473   7.774  2.6378  1.1274 -0.3725
37445SOL    HW214343   9.921   0.496   7.922  1.4208  2.4978 -0.7632
37446SOL     OW14344   8.324  10.518   8.840  0.1604 -0.7382  0.3495
37446SOL    HW114345   8.340  10.543   8.930  1.5869 -0.1561 -0.0384
37446SOL    HW214346   8.411  10.519   8.799 -0.3159 -2.0200 -0.7693
37447SOL     OW14347   2.196   7.199   9.280  0.1079  0.0726  0.3198
37447SOL    HW114348   2.251   7.253   9.223 -0.8327  1.0222  0.2847
37447SOL    HW214349   2.133   7.158   9.221  1.4974 -2.0064  0.1864
37448SOL     OW14350   4.015   0.666   7.436  0.1325 -0.0618 -0.0183
37448SOL    HW114351   4.109   0.649   7.424 -0.1754 -1.1132 -1.0309
37448SOL    HW214352   3.976   0.650   7.350 -0.8024  1.7118  0.0420
37449SOL     OW14353  10.660  10.139   6.333  0.1158  0.2536 -0.7104
37449SOL    HW114354  10.590  10.102   6.279 -1.9929  1.0168  1.3306
37449SOL    HW214355  10.724  10.068   6.341 -1.8175 -1.5609 -0.3206
37450SOL     OW14356   3.755   4.658  11.009  0.0566 -0.0302 -0.5278
37450SOL    HW114357   3.826   4.639  10.947  0.9891 -0.5137  0.6403
37450SOL    HW214358   3.774   4.745  11.042 -0.7302  0.4393 -1.2839
37451SOL     OW14359   0.751   2.152   5.752  0.4411 -0.3463  0.2624
37451SOL    HW114360   0.747   2.238   5.710 -0.1502  0.6619  2.2604
37451SOL    HW214361   0.705   2.094   5.691 -0.4877  1.0607 -0.4536
37452SOL     OW14362   7.289   0.940   8.037 -0.3309 -0.0543  0.1242
37452SOL    HW114363   7.337   0.956   8.118  1.2335 -0.6140 -0.6554
37452SOL    HW214364   7.330   0.998   7.973 -0.1877 -1.1010 -0.7474
37453SOL     OW14365   9.578   0.361  10.656 -0.2878 -0.4977 -0.1544
37453SOL    HW114366   9.531   0.317  10.727  0.8530 -1.1641  0.2217
37453SOL    HW214367   9.510   0.383  10.592 -1.0778 -1.6388  0.2567
37454SOL     OW14368  10.454   2.653   5.834 -0.4032 -0.1262  0.4369
37454SOL    HW114369  10.415   2.729   5.791 -2.1723 -2.3284 -2.2829
37454SOL    HW214370  10.500   2.607   5.763  1.5033 -1.0936  2.2082
37455SOL     OW14371   2.499   5.231   7.996  0.1091  0.2630 -0.3533
37455SOL    HW114372   2.443   5.211   8.071 -0.0398  0.7486 -0.3345
37455SOL    HW214373   2.502   5.326   7.992  0.3302  0.2422 -0.8068
37456SOL     OW14374   3.096   5.083   5.222 -0.0942 -0.1773  0.0006
37456SOL    HW114375   3.117   4.990   5.215 -2.5832 -0.9931  1.8110
37456SOL    HW214376   3.030   5.098   5.154 -0.1687  0.1108  0.1322
37457SOL     OW14377   0.298   6.083   3.715  0.2474  0.0115  0.8467
37457SOL    HW114378   0.223   6.025   3.732 -0.4275 -0.2307 -2.3906
37457SOL    HW214379   0.273   6.166   3.756 -1.1080 -0.4989  1.1349
37458SOL     OW14380   2.713   2.679   8.028 -0.2549  0.5566  0.0536
37458SOL    HW114381   2.788   2.636   8.069 -1.6148  0.7995  3.0532
37458SOL    HW214382   2.684   2.743   8.093 -2.7257  0.8714 -1.2450
37459SOL     OW14383   9.171   9.049   6.384 -0.0174 -0.2900  0.1022
37459SOL    HW114384   9.239   8.985   6.406  0.3434 -0.4665 -1.4318
37459SOL    HW214385   9.097   9.025   6.439  1.2128  0.0479  1.9908
37460SOL     OW14386   3.500   6.458   3.244  0.3950  0.3706 -0.1109
37460SOL    HW114387   3.478   6.368   3.217  1.5076  0.1588 -0.3533
37460SOL    HW214388   3.554   6.447   3.322  0.6035  0.8269 -0.1895
37461SOL     OW14389  10.626   4.194   6.835 -0.6425 -0.0685  0.1034
37461SOL    HW114390  10.621   4.098   6.826 -1.8078 -0.0370  0.2920
37461SOL    HW214391  10.683   4.207   6.911  0.5527 -0.5673 -0.6710
37462SOL     OW14392   0.002   2.876   4.707 -0.9515  0.0027 -0.1451
37462SOL    HW114393  -0.089   2.906   4.715 -0.5119  1.4410 -0.2466
37462SOL    HW214394   0.042   2.938   4.646  0.3793  0.0454  0.7435
37463SOL     OW14395   8.704   2.826   1.021  0.5424  0.1694  0.3463
37463SOL    HW114396   8.764   2.898   1.041  0.0945  0.1951  1.6878
37463SOL    HW214397   8.618   2.861   1.041 -0.1532  0.6050 -2.8443
37464SOL     OW14398   5.342   6.339   9.349  0.1195  0.1519 -0.7358
37464SOL    HW114399   5.279   6.408   9.369 -0.7201 -0.6927 -0.3469
37464SOL    HW214400   5.387   6.323   9.432  0.9879  0.8637 -1.0498
37465SOL     OW14401   9.039   4.349  10.739  0.2542  0.6488 -0.1119
37465SOL    HW114402   8.953   4.359  10.696  0.1727 -0.1829 -0.1620
37465SOL    HW214403   9.021   4.294  10.815  0.9643 -0.7292 -0.9027
37466SOL     OW14404   1.156   2.233   7.890 -0.3925 -0.0063  0.2590
37466SOL    HW114405   1.077   2.287   7.891 -1.5770 -1.6255 -0.5446
37466SOL    HW214406   1.137   2.161   7.950  0.0984 -0.8857 -0.5955
37467SOL     OW14407   4.235   3.769   6.389  0.4038  0.3382  0.4898
37467SOL    HW114408   4.188   3.852   6.392  0.4142  0.3131  1.7923
37467SOL    HW214409   4.174   3.708   6.348  1.2621  1.4766 -2.8219
37468SOL     OW14410   2.648   4.423   0.001  0.8261  0.3676 -0.5214
37468SOL    HW114411   2.736   4.428  -0.035  1.3556  1.2236  0.8163
37468SOL    HW214412   2.640   4.502   0.055  0.9205 -1.8627  3.0715
37469SOL     OW14413   3.656   7.789   0.066  0.1752  0.1304 -0.3566
37469SOL    HW114414   3.569   7.759   0.038  0.8043 -0.8412 -1.3902
37469SOL    HW214415   3.684   7.724   0.130 -0.0195  0.6789  0.2954
37470SOL     OW14416   5.262   2.394  10.390  0.4257 -0.0643 -0.2974
37470SOL    HW114417   5.240   2.301  10.392  1.1931 -0.2815 -1.0911
37470SOL    HW214418   5.357   2.397  10.403  0.6810  0.4665 -1.9978
37471SOL     OW14419   4.568   6.108   7.037 -0.2141 -0.9642  0.1135
37471SOL    HW114420   4.474   6.098   7.055  0.1366 -1.7464  1.6898
37471SOL    HW214421   4.578   6.082   6.945 -1.5908 -0.4758 -0.1952
37472SOL     OW14422   3.622   6.883   8.247  0.4803  0.2145  0.2873
37472SOL    HW114423   3.666   6.934   8.315  0.8908 -0.8151  0.8227
37472SOL    HW214424   3.531   6.912   8.250  0.5062  0.2145  1.2530
37473SOL     OW14425   8.486   0.918   2.518 -0.2204 -0.1438 -0.7033
37473SOL    HW114426   8.493   1.005   2.557 -0.6006 -0.9644  1.2993
37473SOL    HW214427   8.547   0.865   2.569  0.1508 -1.0256 -2.0298
37474SOL     OW14428   5.330   7.505   2.371 -0.3532 -0.5912  0.8143
37474SOL    HW114429   5.314   7.423   2.326  1.3407  0.6686 -2.4203
37474SOL    HW214430   5.399   7.485   2.434  0.2555 -1.6285 -0.1538
37475SOL     OW14431   2.795   2.893   2.552  0.1894  0.2542 -0.2938
37475SOL    HW114432   2.791   2.988   2.540  0.2997  0.5406  1.6444
37475SOL    HW214433   2.880   2.877   2.593 -0.6454 -0.4204  1.2641
37476SOL     OW14434   4.308  10.236   9.248  0.2445  0.4768 -0.4086
37476SOL    HW114435   4.297  10.297   9.321 -0.8409 -0.8439  0.5859
37476SOL    HW214436   4.233  10.254   9.191 -0.1771 -0.0116 -0.0239
37477SOL     OW14437   8.199   7.197   7.219  0.0309  0.0393  0.3435
37477SOL    HW114438   8.141   7.128   7.249  1.8771 -0.9846  1.7291
37477SOL    HW214439   8.268   7.201   7.284  0.6429  2.3922 -0.3392
37478SOL     OW14440   6.703  10.259   6.852 -0.0911 -0.9176  0.3240
37478SOL    HW114441   6.706  10.237   6.945 -1.4132 -0.5785  0.4706
37478SOL    HW214442   6.665  10.181   6.811  0.8189 -1.2067 -0.0041
37479SOL     OW14443   6.273   1.302   5.170 -0.1418  0.3304  0.0262
37479SOL    HW114444   6.344   1.278   5.111  0.1327  0.0576  0.4606
37479SOL    HW214445   6.234   1.380   5.130 -1.8719 -1.4689 -2.0863
37480SOL     OW14446   5.674   6.518   4.633 -0.0312 -0.4315 -0.3269
37480SOL    HW114447   5.724   6.468   4.569 -0.0295  1.0911 -1.5722
37480SOL    HW214448   5.721   6.504   4.716  0.4639 -1.7452 -0.7999
37481SOL     OW14449   8.791   9.688  10.171 -0.2733 -0.3675  1.0025
37481SOL    HW114450   8.878   9.668  10.206 -0.2040 -0.6910  0.6439
37481SOL    HW214451   8.800   9.678  10.077 -0.7104 -0.4366  0.9668
37482SOL     OW14452   7.591   4.046   0.574  0.3118  0.2630  0.4682
37482SOL    HW114453   7.644   4.111   0.620  0.7666  0.6693 -0.5936
37482SOL    HW214454   7.549   3.995   0.644  0.1429  1.5292  1.3144
37483SOL     OW14455   1.469   0.504   3.487 -0.5277  0.3636 -0.0115
37483SOL    HW114456   1.376   0.523   3.477 -0.6432 -0.0152  0.2901
37483SOL    HW214457   1.480   0.416   3.452 -0.2176  0.5380 -0.3556
37484SOL     OW14458   8.544   9.651   2.938  0.3206  0.2965  0.4477
37484SOL    HW114459   8.633   9.636   2.969  0.0931  1.0229  1.4658
37484SOL    HW214460   8.488   9.615   3.007 -0.1832  0.2991  0.0475
37485SOL     OW14461   2.171  11.037  10.360  0.2232 -0.2683  0.0520
37485SOL    HW114462   2.207  11.123  10.385  1.1009 -1.2285  2.3434
37485SOL    HW214463   2.239  10.975  10.385 -1.8926 -1.9489  2.0101
37486SOL     OW14464   0.405   3.866   8.588 -0.3777 -0.4631  0.3065
37486SOL    HW114465   0.489   3.860   8.632 -0.5820 -0.1254  0.7518
37486SOL    HW214466   0.421   3.832   8.500 -0.0427 -1.4515  0.7315
37487SOL     OW14467   2.557  10.334   7.864  0.1115 -0.3314 -0.2465
37487SOL    HW114468   2.474  10.350   7.820  0.1964  1.3924  0.1450
37487SOL    HW214469   2.562  10.401   7.932  2.6893  0.8799 -1.4887
37488SOL     OW14470   2.465   5.406   4.223  0.7025 -0.2400 -0.0419
37488SOL    HW114471   2.415   5.478   4.185 -0.2924 -0.0180  1.6175
37488SOL    HW214472   2.550   5.445   4.243 -0.2006  0.8541  1.9197
37489SOL     OW14473   0.458   1.925   8.902 -0.3305 -0.0967  0.0893
37489SOL    HW114474   0.434   1.869   8.976 -1.0623 -0.2106 -0.2189
37489SOL    HW214475   0.542   1.963   8.926  0.1632 -1.3132  0.3028
37490SOL     OW14476   3.545   4.676  10.419  0.0455 -0.6380  0.0034
37490SOL    HW114477   3.563   4.664  10.512 -3.6606 -1.9398  0.7264
37490SOL    HW214478   3.491   4.601  10.395 -1.1943  0.9389 -2.5298
37491SOL     OW14479   8.520  10.915   7.092  0.4300  0.3066 -0.3170
37491SOL    HW114480   8.524  10.933   6.998  0.4644  0.2716 -0.3222
37491SOL    HW214481   8.611  10.924   7.122  0.2120  1.8013 -0.0104
37492SOL     OW14482   2.786   2.978   1.666 -0.0561  0.1842 -0.0430
37492SOL    HW114483   2.704   2.994   1.621  0.0753  1.6613  0.1839
37492SOL    HW214484   2.819   2.897   1.628 -1.2816 -0.0670 -0.6149
37493SOL     OW14485   5.824   9.518   5.483  0.6821 -0.4013  0.2902
37493SOL    HW114486   5.819   9.538   5.576  1.4954  0.6510  0.1230
37493SOL    HW214487   5.861   9.596   5.443 -2.7136  0.5683 -1.4219
37494SOL     OW14488   9.020   1.997  10.696 -0.4948 -0.2631 -0.2254
37494SOL    HW114489   9.029   2.036  10.609 -3.3042  0.4303 -0.3012
37494SOL    HW214490   8.998   1.906  10.679  0.4719 -0.5145 -0.1782
37495SOL     OW14491   7.974   6.138   6.025 -0.4918  0.0048  0.0021
37495SOL    HW114492   7.969   6.097   5.938  0.8754 -0.5546  0.1566
37495SOL    HW214493   7.884   6.165   6.044 -1.7635 -3.8540  0.3480
37496SOL     OW14494   4.451   8.144   8.713 -0.1094  0.0236  0.1887
37496SOL    HW114495   4.392   8.183   8.649 -1.3930 -1.4718  0.3828
37496SOL    HW214496   4.412   8.165   8.798 -0.7917 -1.5184  0.2964
37497SOL     OW14497   6.497  10.120   5.741  0.8504  0.4045 -0.1451
37497SOL    HW114498   6.404  10.099   5.738  0.7754  0.5885  0.6277
37497SOL    HW214499   6.500  10.215   5.751  1.1750  0.7695 -2.8144
37498SOL     OW14500   5.268  10.792   5.503 -0.4028 -0.5721 -0.7835
37498SOL    HW114501   5.185  10.744   5.510 -0.9821  0.6415  2.0780
37498SOL    HW214502   5.244  10.883   5.520  1.6152 -0.3297  1.0883
37499SOL     OW14503   7.814   6.550   0.310 -0.4440 -0.4550 -0.1442
37499SOL    HW114504   7.763   6.559   0.391 -0.7279 -1.0966 -0.2437
37499SOL    HW214505   7.821   6.640   0.276  0.9748  0.0565  1.3526
37500SOL     OW14506   4.647   6.596   3.959  0.1485 -0.5720 -0.1958
37500SOL    HW114507   4.740   6.593   3.981  0.2987 -1.5680 -0.9167
37500SOL    HW214508   4.608   6.523   4.006 -0.1465 -0.5879 -0.4548
37501SOL     OW14509   1.622   4.050   1.439 -0.1650  0.5257 -0.2470
37501SOL    HW114510   1.670   4.129   1.465  0.2721  0.3568 -0.5319
37501SOL    HW214511   1.665   4.021   1.359 -0.7240  0.3495 -0.4926
37502SOL     OW14512   1.431   1.308   5.322  0.2469  0.9218  0.1895
37502SOL    HW114513   1.515   1.346   5.294  1.2639 -1.2633  0.0553
37502SOL    HW214514   1.438   1.302   5.417 -0.1748  1.6102  0.2703
37503SOL     OW14515   1.155   5.822   9.985 -0.3639 -0.3276 -0.8270
37503SOL    HW114516   1.243   5.861   9.979 -0.2314 -0.2682  1.0482
37503SOL    HW214517   1.163   5.754  10.051 -1.8381 -0.0149 -0.2893
37504SOL     OW14518   2.115   9.319   3.665  0.1952 -0.1030 -0.3891
37504SOL    HW114519   2.188   9.279   3.617 -1.0650 -1.0493 -1.5922
37504SOL    HW214520   2.157   9.382   3.723  1.9549 -0.4037 -1.2516
37505SOL     OW14521   0.423   8.307   2.748  0.2371 -0.2665 -0.0160
37505SOL    HW114522   0.407   8.241   2.680 -0.0500  0.7882 -1.0138
37505SOL    HW214523   0.335   8.334   2.775  0.3539 -0.1837  0.2777
37506SOL     OW14524   2.592  10.433   4.563 -0.8462  0.3134 -0.2656
37506SOL    HW114525   2.584  10.340   4.541  1.6286  0.1515 -0.8014
37506SOL    HW214526   2.640  10.433   4.647 -3.7185  1.1012  1.4968
37507SOL     OW14527   9.568   1.172   4.829 -0.5793 -0.5416 -0.1666
37507SOL    HW114528   9.619   1.252   4.843  0.2199 -0.9067 -0.8842
37507SOL    HW214529   9.493   1.180   4.888  0.5467 -0.2064  1.2474
37508SOL     OW14530   4.534   8.691   2.110  0.5206 -0.8624 -0.2771
37508SOL    HW114531   4.617   8.645   2.098  0.7792 -0.2602 -0.8093
37508SOL    HW214532   4.522   8.742   2.030  0.0726 -0.2521  0.1657
37509SOL     OW14533   5.068   2.370   9.053  0.1964 -0.3831  0.1376
37509SOL    HW114534   5.122   2.439   9.091 -2.5001  0.3356  3.1168
37509SOL    HW214535   5.096   2.291   9.098  0.0028 -0.3343  0.3456
37510SOL     OW14536   7.265   2.787   7.312  0.5854 -0.1063  0.4836
37510SOL    HW114537   7.276   2.728   7.237  1.8818  1.2279 -0.4251
37510SOL    HW214538   7.320   2.748   7.380 -2.0409 -2.3806  1.5165
37511SOL     OW14539   8.552   7.569  10.969  0.1048  0.3500  0.3972
37511SOL    HW114540   8.573   7.537  11.056 -0.8554  0.4134  0.6649
37511SOL    HW214541   8.550   7.491  10.914  1.5325  0.3959  0.2338
37512SOL     OW14542  10.310   7.484   5.402 -0.7573 -0.1865  0.1958
37512SOL    HW114543  10.327   7.561   5.346 -1.9561 -0.5406 -0.6893
37512SOL    HW214544  10.225   7.451   5.373 -0.2116 -1.9431  0.4760
37513SOL     OW14545   0.805   0.424   3.374  0.2523 -0.0046 -0.3830
37513SOL    HW114546   0.829   0.443   3.465 -1.2282  1.0287 -0.1740
37513SOL    HW214547   0.876   0.369   3.342  0.6182 -0.7159  1.5105
37514SOL     OW14548   7.129   6.670   5.434  0.2219 -0.1705  0.5099
37514SOL    HW114549   7.145   6.682   5.340 -0.6142 -1.3797  0.1886
37514SOL    HW214550   7.087   6.752   5.461 -0.8216 -0.3307 -0.5113
37515SOL     OW14551  10.001   7.563   3.271  0.0840  0.5197  0.3440
37515SOL    HW114552   9.976   7.555   3.179 -0.9839  1.3517  0.5459
37515SOL    HW214553  10.097   7.569   3.269  0.0177  1.5399 -0.8044
37516SOL     OW14554   0.482   5.853   3.378 -0.0313 -0.2026 -0.5078
37516SOL    HW114555   0.453   5.842   3.469  0.8308  0.2819 -0.1672
37516SOL    HW214556   0.549   5.786   3.366  1.4734  1.1853 -0.0657
37517SOL     OW14557   1.003   6.892   2.218 -0.2605  0.2083 -0.1156
37517SOL    HW114558   0.987   6.855   2.131 -1.5909 -0.8080  0.5199
37517SOL    HW214559   1.069   6.835   2.257 -0.0026  0.3874 -0.2918
37518SOL     OW14560   7.488   1.866   5.146 -0.4932 -0.1503 -1.1330
37518SOL    HW114561   7.577   1.889   5.120 -0.1866  0.6014  0.4286
37518SOL    HW214562   7.472   1.918   5.225 -2.0979 -0.7360 -1.0272
37519SOL     OW14563   0.014   7.275   1.444  0.1088 -1.0043  0.1037
37519SOL    HW114564  -0.006   7.299   1.354  1.1073  2.0251  0.5747
37519SOL    HW214565  -0.069   7.284   1.491  0.3223  1.3671  0.1515
37520SOL     OW14566   3.168   8.994   9.935  0.1949 -0.4844 -0.5491
37520SOL    HW114567   3.164   9.043  10.016  0.6201 -2.6078  0.8336
37520SOL    HW214568   3.078   8.965   9.920  0.3203 -1.1001 -0.1533
37521SOL     OW14569   3.532   7.444   3.249 -0.3894  0.2926 -0.7245
37521SOL    HW114570   3.463   7.395   3.205 -0.4874  1.7771 -2.3227
37521SOL    HW214571   3.611   7.391   3.236 -0.7875 -0.2593 -0.9438
37522SOL     OW14572   2.071   2.133   7.649  0.3420  0.3915  0.4163
37522SOL    HW114573   2.114   2.060   7.603  1.3216  2.1599 -1.6690
37522SOL    HW214574   1.979   2.127   7.622 -0.0630 -1.2190  1.9368
37523SOL     OW14575   8.783   4.582   7.658  0.2366  0.1642  0.4539
37523SOL    HW114576   8.847   4.651   7.638  2.1335 -1.5247  0.3269
37523SOL    HW214577   8.810   4.509   7.602 -2.0116 -0.5464  0.2305
37524SOL     OW14578  10.510   3.103   9.967  0.2686 -0.1272 -0.5570
37524SOL    HW114579  10.460   3.024   9.986  0.8862 -0.8738 -1.8713
37524SOL    HW214580  10.466   3.143   9.893  1.4567 -0.6876 -1.6038
37525SOL     OW14581   5.937   0.722   5.676  0.1963 -0.4758 -0.3736
37525SOL    HW114582   5.864   0.723   5.614 -0.2392  1.9611  0.0782
37525SOL    HW214583   6.015   0.705   5.622 -0.3003  0.4811 -1.4237
37526SOL     OW14584   8.329  10.460   4.486 -0.1463 -0.2960 -0.1522
37526SOL    HW114585   8.360  10.370   4.481 -0.8970 -0.5305 -0.8142
37526SOL    HW214586   8.336  10.483   4.579  0.3674 -0.9151 -0.0312
37527SOL     OW14587   4.122   5.984   4.707 -0.8927  0.2865  0.2881
37527SOL    HW114588   4.164   6.068   4.726  1.8091 -0.6809 -0.8868
37527SOL    HW214589   4.129   5.934   4.789  0.2952  0.1609  0.1284
37528SOL     OW14590   3.154   8.693   0.334  0.2521  0.1436  0.3169
37528SOL    HW114591   3.168   8.702   0.240 -0.7301  1.3422  0.2564
37528SOL    HW214592   3.064   8.662   0.342  0.7425 -1.2224  0.8484
37529SOL     OW14593   4.136  10.510   1.138 -0.4380  0.2957  0.3914
37529SOL    HW114594   4.094  10.595   1.131 -0.2793  0.2961 -0.7878
37529SOL    HW214595   4.227  10.526   1.115 -0.4210 -0.1861  0.0932
37530SOL     OW14596   2.407   2.174   4.436 -0.0920  0.3257 -0.3115
37530SOL    HW114597   2.313   2.181   4.452 -0.3503  0.7083 -1.8255
37530SOL    HW214598   2.447   2.229   4.503 -0.9066 -0.2336  0.6576
37531SOL     OW14599   5.613   3.886   0.548  0.1416 -0.2400 -0.1107
37531SOL    HW114600   5.692   3.929   0.581 -0.3939  0.0100  0.9043
37531SOL    HW214601   5.644   3.805   0.507  0.8764 -0.5021  0.9200
37532SOL     OW14602   1.037   7.723   0.882  0.2568  0.3524  0.4039
37532SOL    HW114603   0.976   7.702   0.811  0.5462 -1.0681  0.5456
37532SOL    HW214604   1.086   7.799   0.850 -0.3691  0.4053 -0.4528
37533SOL     OW14605   0.486   5.861   2.646 -0.4765 -0.4228 -0.1663
37533SOL    HW114606   0.506   5.829   2.734  0.6483 -0.8071 -0.5409
37533SOL    HW214607   0.473   5.781   2.594 -0.2201 -0.2192 -0.5492
37534SOL     OW14608  10.171   8.215   7.429  0.0462 -0.5320  0.1106
37534SOL    HW114609  10.202   8.135   7.386  1.3536  0.4156 -0.8093
37534SOL    HW214610  10.076   8.215   7.415  0.4190  0.0133 -3.4796
37535SOL     OW14611   8.561   6.426   3.946 -0.0041  0.2037 -0.1455
37535SOL    HW114612   8.513   6.390   4.020  0.1056  1.0130  0.3386
37535SOL    HW214613   8.633   6.475   3.987  0.9408 -0.5849 -0.8351
37536SOL     OW14614   2.126   7.506   5.683 -0.3190  0.6316 -0.4281
37536SOL    HW114615   2.174   7.588   5.698  1.0343 -0.5228  2.0202
37536SOL    HW214616   2.033   7.531   5.689  0.0560  2.0866 -0.3929
37537SOL     OW14617   0.589   0.108   5.440 -0.4404 -0.2108 -0.8540
37537SOL    HW114618   0.609   0.167   5.513 -0.5636  0.2024 -1.1518
37537SOL    HW214619   0.526   0.045   5.477  1.5664 -1.7175  0.1739
37538SOL     OW14620   6.600   7.717   5.840 -0.1390  0.1890  0.5089
37538SOL    HW114621   6.695   7.721   5.828  0.1686 -1.2154  2.1261
37538SOL    HW214622   6.587   7.654   5.911 -2.3899 -1.2436 -1.0317
37539SOL     OW14623   4.771   2.792   7.726 -0.0755 -0.5769 -0.2198
37539SOL    HW114624   4.831   2.865   7.712 -2.0963  1.2978  0.1511
37539SOL    HW214625   4.726   2.781   7.642 -0.0656 -1.1103 -0.1554
37540SOL     OW14626   0.192   0.749   5.690 -0.0631  0.1382 -0.0435
37540SOL    HW114627   0.207   0.789   5.776  0.7845 -0.7264  0.2326
37540SOL    HW214628   0.168   0.822   5.633  0.4065  0.8762  0.6826
37541SOL     OW14629   2.383   8.786   2.314  0.5716  0.4485 -0.4683
37541SOL    HW114630   2.336   8.817   2.237 -0.8918  0.1541  0.2838
37541SOL    HW214631   2.402   8.694   2.295 -1.3439 -0.1190  0.2203
37542SOL     OW14632   1.306  10.403   4.424  0.3816  0.6908  0.5363
37542SOL    HW114633   1.269  10.319   4.396 -0.2478  0.0677  2.9780
37542SOL    HW214634   1.389  10.409   4.378  0.1003 -0.9326 -0.2550
37543SOL     OW14635   0.552   2.767  10.166 -0.2037 -0.1984  0.1314
37543SOL    HW114636   0.624   2.709  10.140 -0.4201  0.2160 -1.5119
37543SOL    HW214637   0.595   2.836  10.216  0.5822  0.0692 -0.8604
37544SOL     OW14638   6.884   2.377   2.272  0.6949  0.1176  0.1494
37544SOL    HW114639   6.919   2.440   2.334 -0.9391  1.8475 -0.5888
37544SOL    HW214640   6.795   2.359   2.303 -0.6138  1.9592 -2.2197
37545SOL     OW14641   5.455   1.573   9.372 -0.5771  0.3417 -0.0710
37545SOL    HW114642   5.448   1.534   9.459 -2.0384  2.3997  0.8179
37545SOL    HW214643   5.417   1.660   9.382  1.8174  1.7525 -2.0918
37546SOL     OW14644   2.483   8.248   3.243  0.4967 -0.3760 -0.7236
37546SOL    HW114645   2.451   8.180   3.183 -2.1694 -0.8030  1.0185
37546SOL    HW214646   2.426   8.323   3.226  2.3650  0.9594 -1.4802
37547SOL     OW14647   1.168  10.194  10.081 -0.1653 -0.8934  0.3534
37547SOL    HW114648   1.122  10.149  10.152 -1.7309  1.0315  0.6447
37547SOL    HW214649   1.221  10.260  10.124 -0.9186  0.1125 -0.2249
37548SOL     OW14650   0.099   9.313   1.794  0.4213 -0.0543 -0.0543
37548SOL    HW114651   0.181   9.363   1.788  0.8438 -0.8865 -1.9078
37548SOL    HW214652   0.103   9.251   1.721 -2.3147  0.5732 -0.8635
37549SOL     OW14653   1.943   1.594   7.969  0.1663 -0.7790  0.3210
37549SOL    HW114654   1.864   1.633   8.006 -0.8245 -2.2861 -0.0904
37549SOL    HW214655   1.970   1.655   7.901 -0.5755 -0.1683  0.5640
37550SOL     OW14656   5.812   0.455   6.448  0.1712  0.0551  0.1450
37550SOL    HW114657   5.735   0.408   6.481 -0.8603  2.4275  1.3915
37550SOL    HW214658   5.882   0.432   6.509 -0.5927  0.8906  1.3872
37551SOL     OW14659   8.996   2.731   6.901 -0.4879  0.5392  0.2378
37551SOL    HW114660   8.910   2.751   6.938 -0.3598  0.4352  0.5937
37551SOL    HW214661   9.039   2.816   6.895 -0.8909  0.6912 -0.6483
37552SOL     OW14662   4.238   6.497   5.460  0.2524 -0.3810  0.0807
37552SOL    HW114663   4.224   6.489   5.554 -0.7856  0.3291  0.0010
37552SOL    HW214664   4.204   6.415   5.424 -0.1848 -0.2755  0.2465
37553SOL     OW14665   0.854   2.498   1.197  0.3737  0.6635 -0.1256
37553SOL    HW114666   0.823   2.489   1.287 -0.2160 -0.8486 -0.4591
37553SOL    HW214667   0.777   2.527   1.147  0.0262 -0.9174 -0.5578
37554SOL     OW14668   3.981   2.397   1.648 -0.7701  0.1154 -0.4518
37554SOL    HW114669   3.962   2.463   1.715  1.4144 -0.4101  0.8000
37554SOL    HW214670   4.042   2.441   1.589 -0.1453 -0.4096 -0.2136
37555SOL     OW14671   3.546   3.181   0.271 -0.4280  0.0930  0.2518
37555SOL    HW114672   3.622   3.213   0.321  0.1492  0.8376 -1.0642
37555SOL    HW214673   3.489   3.142   0.338 -0.7819  3.0967  1.8770
37556SOL     OW14674   4.377   7.986   5.490 -0.2232  0.1465  0.0218
37556SOL    HW114675   4.459   8.035   5.499 -2.3794  4.1955  0.2050
37556SOL    HW214676   4.365   7.944   5.576  0.6424  1.2956  0.7321
37557SOL     OW14677   9.690   1.295   6.055 -0.1447 -0.2982  0.4552
37557SOL    HW114678   9.635   1.373   6.056 -0.3583 -0.4510  0.5335
37557SOL    HW214679   9.693   1.266   6.146 -0.5920 -0.7540  0.3299
37558SOL     OW14680   5.513   8.315   3.305 -0.1716  0.3940 -0.1775
37558SOL    HW114681   5.487   8.259   3.232  2.0277 -0.6705 -0.2177
37558SOL    HW214682   5.497   8.262   3.383  1.8319 -0.3575 -0.2114
37559SOL     OW14683   8.520   3.129   3.804 -0.2863 -0.1067  0.4438
37559SOL    HW114684   8.497   3.199   3.742 -0.2150  0.4074  0.9893
37559SOL    HW214685   8.586   3.077   3.758  0.3852  0.7578  0.4027
37560SOL     OW14686   7.885   5.481   7.595 -0.2257  0.3707  0.6112
37560SOL    HW114687   7.825   5.555   7.595 -0.2551  0.3554  1.4341
37560SOL    HW214688   7.970   5.519   7.614 -0.4299  0.0682  2.2611
37561SOL     OW14689   6.911   6.234   0.826  0.6913  0.4632  0.0997
37561SOL    HW114690   6.889   6.320   0.790 -0.1920  0.3230  0.2795
37561SOL    HW214691   6.847   6.220   0.895  0.4184 -0.6222 -0.3664
37562SOL     OW14692   5.249   5.001   2.001 -0.1611 -0.0597 -0.0781
37562SOL    HW114693   5.283   5.016   1.913 -1.4080  0.0779 -0.5528
37562SOL    HW214694   5.177   5.063   2.010 -0.4075 -0.4600  0.8359
37563SOL     OW14695  10.447   2.186   5.254  0.5382  0.1767  0.2367
37563SOL    HW114696  10.378   2.229   5.304  0.6456  1.7162 -0.8680
37563SOL    HW214697  10.456   2.100   5.294 -2.6087 -0.4336 -0.0838
37564SOL     OW14698   7.281   2.483  10.766 -0.1600 -0.1402  0.1327
37564SOL    HW114699   7.238   2.510  10.847 -0.6835 -0.4182 -0.0451
37564SOL    HW214700   7.270   2.388  10.765 -0.7078 -0.0728 -0.5709
37565SOL     OW14701   5.072   3.666   8.581 -0.1627 -0.4670 -0.1003
37565SOL    HW114702   4.997   3.702   8.629  0.2190  1.9852 -1.2005
37565SOL    HW214703   5.149   3.700   8.628  0.2116  0.5329 -1.3890
37566SOL     OW14704   0.652   7.344   8.778  0.3514 -0.0685 -0.3896
37566SOL    HW114705   0.569   7.378   8.745  1.1216  1.8174 -0.4602
37566SOL    HW214706   0.691   7.299   8.704 -0.8348 -1.4984 -0.2010
37567SOL     OW14707   5.299   8.388   3.099  0.1610  0.4166  0.2333
37567SOL    HW114708   5.324   8.296   3.090 -0.2985  0.2776  0.2999
37567SOL    HW214709   5.379   8.437   3.082  0.1656  0.0398 -0.8963
37568SOL     OW14710  11.023   0.597   4.059 -0.4461  0.0760  0.1383
37568SOL    HW114711  10.952   0.572   4.118 -1.2881  0.8729 -0.5197
37568SOL    HW214712  11.029   0.693   4.069 -1.0735  0.3189 -1.5660
37569SOL     OW14713   2.238   2.326   3.964  0.8548  0.7059  0.4701
37569SOL    HW114714   2.237   2.231   3.949  2.3299  0.8172 -0.4832
37569SOL    HW214715   2.331   2.349   3.966  0.5417  2.0073  1.6672
37570SOL     OW14716  10.693   1.450   9.335  0.0083 -0.1523 -0.4454
37570SOL    HW114717  10.611   1.447   9.287 -0.0763  1.1096 -0.4126
37570SOL    HW214718  10.723   1.540   9.327 -1.2844  0.9185  3.8760
37571SOL     OW14719   9.286  10.219   1.535 -0.4525 -0.0426  0.3791
37571SOL    HW114720   9.292  10.168   1.454 -2.0199  1.2284 -0.5866
37571SOL    HW214721   9.345  10.174   1.596  0.5757 -1.1717 -1.3753
37572SOL     OW14722   8.403   1.685   8.809  0.1096  0.3865 -0.5526
37572SOL    HW114723   8.495   1.707   8.825  0.0148  0.0422  0.5222
37572SOL    HW214724   8.406   1.616   8.742  0.7383 -0.8926  0.7492
37573SOL     OW14725   2.870   7.069   5.567 -0.3562  0.0323  0.2700
37573SOL    HW114726   2.912   7.017   5.636  0.6928  0.3888 -0.0794
37573SOL    HW214727   2.817   7.006   5.518  1.4836 -0.8951 -0.6144
37574SOL     OW14728   2.636   5.425   4.924 -0.0860 -0.2072 -0.9552
37574SOL    HW114729   2.568   5.477   4.882 -0.0657  0.1276 -0.5763
37574SOL    HW214730   2.715   5.441   4.872  0.2065  1.0854 -0.1486
37575SOL     OW14731   1.851   2.864   4.595  0.0802  0.3817 -0.7722
37575SOL    HW114732   1.843   2.822   4.510 -0.0892 -1.0668 -0.0564
37575SOL    HW214733   1.791   2.816   4.652 -0.8120  2.1721 -0.1232
37576SOL     OW14734   5.399   3.376   0.199 -0.3287 -0.3801 -0.7728
37576SOL    HW114735   5.492   3.369   0.179  0.1091  0.2657  0.8694
37576SOL    HW214736   5.371   3.457   0.156 -0.1855 -0.7009 -1.4682
37577SOL     OW14737   9.718   6.538   4.785 -1.1049 -0.2333 -0.2076
37577SOL    HW114738   9.716   6.448   4.754  0.3347 -0.8575  1.3470
37577SOL    HW214739   9.791   6.578   4.739 -0.5726 -0.4266  0.4470
37578SOL     OW14740   5.996   6.619   5.927 -0.4625  0.7160 -0.1657
37578SOL    HW114741   6.040   6.536   5.907 -2.8174 -0.9181  0.9862
37578SOL    HW214742   6.012   6.633   6.020  0.0702  1.6897 -0.3901
37579SOL     OW14743   5.193   4.305   7.965  0.1049  0.3773 -0.5654
37579SOL    HW114744   5.259   4.347   8.020 -0.3956  1.8686 -1.0532
37579SOL    HW214745   5.109   4.330   8.005 -0.2185  0.0045 -0.9938
37580SOL     OW14746   9.086   0.817   9.263 -0.4839 -0.3567  0.1460
37580SOL    HW114747   9.130   0.780   9.339 -2.0166  0.1514  1.3206
37580SOL    HW214748   9.158   0.849   9.208  0.7438 -2.3493  0.4742
37581SOL     OW14749   2.485   4.144   3.456 -0.4895 -0.5995  0.6243
37581SOL    HW114750   2.471   4.065   3.508 -1.9167 -2.3152 -2.0768
37581SOL    HW214751   2.398   4.181   3.444 -0.4718 -1.0694 -1.5288
37582SOL     OW14752   1.425  10.476   9.371  0.2275  0.3245  0.3585
37582SOL    HW114753   1.484  10.552   9.368 -0.6291  1.0151  0.6222
37582SOL    HW214754   1.404  10.466   9.464  0.8753 -0.6833  0.4128
37583SOL     OW14755   1.801   0.322   2.853  0.7517 -0.4698  0.5332
37583SOL    HW114756   1.891   0.345   2.880 -0.1194 -0.2670  3.6203
37583SOL    HW214757   1.746   0.355   2.924 -1.4471 -3.9764  0.6764
37584SOL     OW14758   7.339   6.931   4.184 -0.4948 -0.0344  0.4482
37584SOL    HW114759   7.429   6.962   4.194 -0.6515  0.2591  0.9562
37584SOL    HW214760   7.286   6.999   4.225 -0.9364 -0.3048  0.3217
37585SOL     OW14761   8.517   4.620   5.079  0.4540 -0.0698  0.0815
37585SOL    HW114762   8.462   4.569   5.020 -0.0049 -0.3119  0.7084
37585SOL    HW214763   8.605   4.612   5.042  0.2824 -0.7773 -0.1926
37586SOL     OW14764  10.832   9.786   5.157 -0.0018  0.1341  0.4633
37586SOL    HW114765  10.876   9.723   5.100 -0.3366  2.2195 -2.3230
37586SOL    HW214766  10.890   9.796   5.232  1.1544 -1.7520 -0.1136
37587SOL     OW14767   8.911   0.335   5.515 -0.2005  0.1522 -0.0032
37587SOL    HW114768   8.967   0.303   5.586  0.5807 -0.4775 -0.8812
37587SOL    HW214769   8.852   0.397   5.558 -0.7123 -1.2587  1.4788
37588SOL     OW14770   5.450   8.663   2.550 -0.2102  0.0181 -0.2649
37588SOL    HW114771   5.436   8.569   2.541  1.7577 -0.2559 -0.8800
37588SOL    HW214772   5.510   8.670   2.625  1.6707  0.5434 -1.7564
37589SOL     OW14773   8.485   2.064   7.530 -0.3614  0.0924  0.6110
37589SOL    HW114774   8.417   2.130   7.517 -0.9804 -0.5340  0.5932
37589SOL    HW214775   8.549   2.106   7.588  0.3657  1.4775 -1.0943
37590SOL     OW14776   2.998   1.843   6.058 -0.5958 -0.4287 -0.1486
37590SOL    HW114777   2.920   1.841   6.113 -1.6935  2.5428 -1.3932
37590SOL    HW214778   3.071   1.841   6.120 -1.6693 -0.9846  1.1546
37591SOL     OW14779   2.801   5.468   3.842 -0.5530  0.0347  0.3130
37591SOL    HW114780   2.820   5.436   3.931  0.8276  0.1407  0.0752
37591SOL    HW214781   2.798   5.563   3.851 -0.5896  0.0366  0.2781
37592SOL     OW14782   6.809   2.494   1.587  0.1283  0.1785 -0.3813
37592SOL    HW114783   6.785   2.481   1.495 -1.2220  0.7073 -0.1294
37592SOL    HW214784   6.895   2.452   1.596 -0.2859 -0.9957 -1.5833
37593SOL     OW14785   1.278   4.484   5.057 -0.5341 -0.1950  0.1007
37593SOL    HW114786   1.227   4.550   5.010 -0.6112  0.4124  1.0214
37593SOL    HW214787   1.365   4.488   5.016 -1.4919 -2.1723 -2.4005
37594SOL     OW14788   5.228   9.215   5.749  0.0916  0.3859 -0.2934
37594SOL    HW114789   5.241   9.258   5.833  1.2277  1.5202 -1.0210
37594SOL    HW214790   5.136   9.189   5.749 -0.7015  2.9984  0.1163
37595SOL     OW14791   2.524   1.180   5.005  0.0261  0.1829  0.5797
37595SOL    HW114792   2.617   1.172   5.025  0.1191  1.0967  0.5641
37595SOL    HW214793   2.513   1.271   4.977 -1.1418  0.5222  2.0011
37596SOL     OW14794   5.878   2.759   6.561 -0.2623 -0.1148  0.3706
37596SOL    HW114795   5.869   2.808   6.478 -2.0496 -2.5019 -0.9872
37596SOL    HW214796   5.791   2.764   6.600 -0.3273 -1.6373  0.4794
37597SOL     OW14797   2.331   1.392   2.206 -0.4054 -0.3935 -0.3087
37597SOL    HW114798   2.387   1.465   2.179  0.0344 -0.6797 -0.1635
37597SOL    HW214799   2.390   1.318   2.218 -0.7977 -0.6726 -0.0551
37598SOL     OW14800  10.925   8.230  10.347  0.3124  0.5725  0.0786
37598SOL    HW114801  10.927   8.136  10.331  1.3392  0.7466 -0.8809
37598SOL    HW214802  11.017   8.255  10.354  0.0813  1.6464 -0.5525
37599SOL     OW14803   0.150   7.283   9.605 -0.4652  0.4319 -0.1792
37599SOL    HW114804   0.079   7.346   9.592 -0.3109  0.5169 -0.6301
37599SOL    HW214805   0.141   7.221   9.532  1.1320  1.5826 -1.4153
37600SOL     OW14806   4.231   6.757   7.337  0.7566  0.1846  0.2906
37600SOL    HW114807   4.156   6.811   7.311  1.4198  1.0112  0.0478
37600SOL    HW214808   4.194   6.670   7.353 -0.3608  0.7359  0.8024
37601SOL     OW14809   4.545  10.002  10.388 -0.1028  0.7214 -0.0745
37601SOL    HW114810   4.481   9.965  10.449  0.8898  2.2316  2.0277
37601SOL    HW214811   4.499  10.074  10.345 -0.5654  0.1743 -0.5046
37602SOL     OW14812   6.338   9.658   7.797 -0.6822  0.0793  0.8767
37602SOL    HW114813   6.432   9.649   7.783 -0.8401  0.8422 -0.9987
37602SOL    HW214814   6.330   9.686   7.888  0.8394 -0.7171  1.2926
37603SOL     OW14815   3.559   5.531   3.670 -0.1625 -0.6478  0.5695
37603SOL    HW114816   3.503   5.522   3.747  0.4431  1.2315  1.2980
37603SOL    HW214817   3.500   5.566   3.603 -0.0368  0.8568  1.1911
37604SOL     OW14818  10.989   6.397   3.666 -0.8297 -0.2943  0.1834
37604SOL    HW114819  10.897   6.369   3.665 -0.3895 -1.8875 -1.2775
37604SOL    HW214820  11.035   6.327   3.619  1.3478 -0.2326  2.0782
37605SOL     OW14821   9.611   8.984   3.791 -0.0953 -0.2103  0.1008
37605SOL    HW114822   9.525   9.027   3.783  0.8752  2.1369  1.1970
37605SOL    HW214823   9.612   8.952   3.881  0.3811  0.3317  0.2961
37606SOL     OW14824   6.180   4.401  10.063  0.1638 -0.4248 -1.1958
37606SOL    HW114825   6.122   4.477  10.061  1.0570  0.2573 -2.1246
37606SOL    HW214826   6.185   4.378  10.156  0.6387  1.2633 -0.7531
37607SOL     OW14827   9.521   1.558   2.035  0.1413 -0.6246  0.4877
37607SOL    HW114828   9.522   1.594   1.947 -0.0513 -0.2529  0.6329
37607SOL    HW214829   9.552   1.630   2.090 -1.4195 -0.2576  0.9340
37608SOL     OW14830   8.035   5.935   8.774  0.0336  0.2064  0.4739
37608SOL    HW114831   8.061   6.026   8.782 -0.7502  0.5677 -0.8847
37608SOL    HW214832   7.962   5.925   8.836  0.7429  0.2318  1.3266
37609SOL     OW14833   1.099   2.509   7.599  0.6328 -0.0293 -0.4868
37609SOL    HW114834   1.064   2.489   7.512  2.0588  1.6265 -1.5094
37609SOL    HW214835   1.181   2.460   7.604 -0.1663 -1.3176  0.5786
37610SOL     OW14836   9.327   5.980   1.884  0.1379 -0.7371 -0.0801
37610SOL    HW114837   9.408   5.998   1.835  0.5139 -1.7633  0.1208
37610SOL    HW214838   9.263   5.958   1.816 -0.1585  0.6804 -0.2816
37611SOL     OW14839   2.743   6.958   1.384  0.0718 -0.1061 -0.1818
37611SOL    HW114840   2.823   6.969   1.436 -0.1793  1.0546 -0.0136
37611SOL    HW214841   2.760   7.007   1.304 -1.4829  2.5772  1.0119
37612SOL     OW14842   4.335   5.747   7.132  0.1501  0.2815 -0.3644
37612SOL    HW114843   4.317   5.732   7.225 -0.3795 -3.0229 -0.8598
37612SOL    HW214844   4.361   5.661   7.099  2.0793  1.7115 -2.9409
37613SOL     OW14845   4.301   0.032   4.090 -0.4998  0.2680  0.0506
37613SOL    HW114846   4.358   0.008   4.017  0.4380  1.3076  0.4183
37613SOL    HW214847   4.276  -0.051   4.130  1.6334 -0.1803  0.5392
37614SOL     OW14848   5.913   4.921   2.723 -0.5075  0.4548  0.2868
37614SOL    HW114849   5.898   4.964   2.638 -0.8430  0.5809  0.4092
37614SOL    HW214850   5.986   4.861   2.706  0.2401  1.3672  0.2183
37615SOL     OW14851   7.615   6.903   3.899  0.0231 -0.2413 -0.7465
37615SOL    HW114852   7.589   6.852   3.975  0.0552 -1.7863 -1.7328
37615SOL    HW214853   7.691   6.953   3.927  0.5960 -1.4948 -0.0267
37616SOL     OW14854   4.445   7.961   9.090 -0.3436  0.3871  0.3480
37616SOL    HW114855   4.485   7.877   9.111 -0.4271  0.4875  0.9074
37616SOL    HW214856   4.519   8.018   9.067 -0.2656  0.2357  0.2255
37617SOL     OW14857   9.400   6.738   3.115 -0.3375  0.3724  0.7965
37617SOL    HW114858   9.385   6.827   3.149 -1.9031  0.2625  0.5018
37617SOL    HW214859   9.313   6.698   3.117  0.1596 -0.7936 -0.0875
37618SOL     OW14860   7.216   0.222  10.449  0.0518  0.2893  0.1708
37618SOL    HW114861   7.305   0.230  10.485  0.1918 -1.5249  0.3345
37618SOL    HW214862   7.184   0.138  10.483 -0.9724 -0.0306 -1.4801
37619SOL     OW14863   5.245   8.168   5.774  0.2958 -0.0364  0.0595
37619SOL    HW114864   5.290   8.251   5.788  0.5252 -0.4953  2.4644
37619SOL    HW214865   5.261   8.147   5.682  0.2965  2.5081 -0.5914
37620SOL     OW14866   8.768   3.567   1.439  0.1833 -0.3347 -0.0820
37620SOL    HW114867   8.727   3.489   1.477 -1.2324 -0.2709 -1.3829
37620SOL    HW214868   8.824   3.533   1.369  2.5582 -0.4264  1.7055
37621SOL     OW14869   3.028   6.053   1.232  0.1177  0.0188 -0.3355
37621SOL    HW114870   2.980   6.132   1.257 -0.4355 -0.4042 -0.0167
37621SOL    HW214871   2.963   5.999   1.187  0.4115 -0.3766 -0.2933
37622SOL     OW14872   8.117   4.367   3.097 -0.8115 -0.1052 -0.5004
37622SOL    HW114873   8.142   4.450   3.057 -1.4526  0.8331  0.9653
37622SOL    HW214874   8.161   4.300   3.044  0.5429  1.2087 -1.0930
37623SOL     OW14875   4.676   5.873   3.077 -0.0814  0.0065  0.0050
37623SOL    HW114876   4.768   5.864   3.101  0.3020  0.2850 -1.2502
37623SOL    HW214877   4.631   5.805   3.127  0.8126 -0.1461  0.6201
37624SOL     OW14878  10.564   5.513   3.187  0.0695 -0.3661  0.0531
37624SOL    HW114879  10.518   5.440   3.229  1.6970 -1.1873  0.5105
37624SOL    HW214880  10.649   5.476   3.161  0.3939  1.0172 -0.9610
37625SOL     OW14881   6.535   3.622   4.787 -0.3052 -0.2176  0.2501
37625SOL    HW114882   6.465   3.654   4.729 -0.2406 -0.1507  0.2095
37625SOL    HW214883   6.566   3.542   4.746  0.3666  0.3115 -0.2995
37626SOL     OW14884   4.032   4.896   0.689  0.5931 -0.2006  0.1766
37626SOL    HW114885   4.050   4.966   0.626 -0.0401 -0.7061 -0.5845
37626SOL    HW214886   4.029   4.940   0.774 -0.0817  0.7548 -0.3186
37627SOL     OW14887   3.256   6.977   8.657  0.1698  0.0533  0.3655
37627SOL    HW114888   3.245   6.955   8.565  0.4533  2.7731 -0.3842
37627SOL    HW214889   3.322   6.914   8.689  1.2929  0.0929 -1.7046
37628SOL     OW14890   0.302   9.119   3.700 -0.2416 -0.6483  0.1998
37628SOL    HW114891   0.272   9.087   3.784 -0.9871 -0.8597 -0.1387
37628SOL    HW214892   0.231   9.099   3.639  1.5773 -3.5844 -1.1879
37629SOL     OW14893   9.636   7.425   1.966  0.0078 -0.0580 -0.0269
37629SOL    HW114894   9.697   7.486   2.008  0.4136  0.4818 -1.3687
37629SOL    HW214895   9.558   7.428   2.022  0.2171  1.2758  0.2413
37630SOL     OW14896   3.100   9.417   9.100 -0.1554 -0.1627  0.3610
37630SOL    HW114897   3.040   9.430   9.026 -0.1737  1.1447  0.5756
37630SOL    HW214898   3.177   9.468   9.076  0.0634 -0.1949  0.9883
37631SOL     OW14899   0.823  10.377   7.505  0.1308  0.4869  0.1930
37631SOL    HW114900   0.813  10.407   7.596  0.9371  0.1477  0.4002
37631SOL    HW214901   0.913  10.346   7.500  0.0859  0.4861 -0.7265
37632SOL     OW14902   5.473  10.577  10.545 -0.6057 -0.0228 -0.0422
37632SOL    HW114903   5.522  10.529  10.478 -0.2555 -0.5560  0.5848
37632SOL    HW214904   5.537  10.594  10.614 -0.9961  0.4133  0.2196
37633SOL     OW14905   1.288   5.101  10.935  0.5565  0.5918  0.2297
37633SOL    HW114906   1.375   5.123  10.902  1.3329  0.0329  1.7811
37633SOL    HW214907   1.304   5.030  10.997 -1.3141 -1.3133 -1.2972
37634SOL     OW14908   2.746   0.590   2.428  0.2351 -0.1608  0.6679
37634SOL    HW114909   2.793   0.596   2.345  1.8900 -0.5221  1.5396
37634SOL    HW214910   2.761   0.500   2.458  1.0429  0.4292  2.1232
37635SOL     OW14911   5.184   5.352   9.939 -0.5012  0.0025  0.1192
37635SOL    HW114912   5.278   5.344   9.952 -0.3615  0.7432 -0.3833
37635SOL    HW214913   5.159   5.271   9.894  0.1960  0.5249 -1.2717
37636SOL     OW14914   1.828   4.233   4.878 -0.3198  0.2908 -0.2290
37636SOL    HW114915   1.880   4.190   4.945 -0.2011  1.0056  0.1479
37636SOL    HW214916   1.738   4.207   4.896 -0.1724 -0.4065 -0.4722
37637SOL     OW14917   5.195   0.449   9.845 -0.7279 -0.0035  0.5631
37637SOL    HW114918   5.203   0.497   9.763  1.5259  1.5929  1.6266
37637SOL    HW214919   5.111   0.478   9.881 -0.7375  0.9330 -0.1648
37638SOL     OW14920   3.503   6.047   4.646  0.3905  0.1464 -0.0563
37638SOL    HW114921   3.503   6.084   4.734  0.5003 -1.4132  0.6453
37638SOL    HW214922   3.596   6.031   4.626  0.3908  0.7765 -0.5879
37639SOL     OW14923   7.509   5.880   0.700 -0.4762  0.2283  0.2728
37639SOL    HW114924   7.512   5.801   0.645 -0.7777  0.3362  0.0976
37639SOL    HW214925   7.420   5.914   0.688 -0.7084 -0.0200  1.2097
37640SOL     OW14926   5.605   0.250   6.506 -0.0045  0.2582  0.0921
37640SOL    HW114927   5.566   0.278   6.589 -0.3327  0.1085 -0.0116
37640SOL    HW214928   5.532   0.242   6.446 -0.0184 -1.4149  0.2780
37641SOL     OW14929  10.647   9.300   6.626 -0.2275  0.1070 -0.1173
37641SOL    HW114930  10.618   9.349   6.703  2.0087  1.2876  0.0715
37641SOL    HW214931  10.658   9.366   6.558 -2.0980 -0.9117 -1.4858
37642SOL     OW14932   4.943   7.481   6.548  0.0008 -0.0377 -0.1115
37642SOL    HW114933   4.932   7.566   6.590  0.7387 -0.0862  0.1947
37642SOL    HW214934   4.876   7.426   6.588  1.2552 -0.3333  1.7256
37643SOL     OW14935   6.677   5.027   5.894 -0.2196  0.2132  0.3984
37643SOL    HW114936   6.707   4.998   5.808  0.5112 -1.1047  1.0647
37643SOL    HW214937   6.587   4.994   5.900 -0.3090  0.4012  0.1079
37644SOL     OW14938   1.101   7.310   8.535 -0.0250  0.2162 -0.7689
37644SOL    HW114939   1.068   7.356   8.458 -0.8888 -1.6096 -1.5440
37644SOL    HW214940   1.035   7.244   8.554  0.9523 -0.4334  0.5645
37645SOL     OW14941   1.616   8.858   9.091 -0.0798  0.2845  0.5620
37645SOL    HW114942   1.669   8.938   9.088 -0.5108  0.7208  2.7193
37645SOL    HW214943   1.647   8.813   9.170 -0.9129 -0.9036  0.2196
37646SOL     OW14944   9.940   9.647   1.174 -0.0174 -0.1287  0.1697
37646SOL    HW114945   9.969   9.569   1.221  0.3361  0.4453  0.9300
37646SOL    HW214946   9.961   9.629   1.083  0.7186 -0.6380  0.4270
37647SOL     OW14947  10.924   3.636   1.208 -0.3692  0.6279 -0.0407
37647SOL    HW114948  10.948   3.728   1.210 -0.2582  0.6037 -0.2379
37647SOL    HW214949  10.932   3.607   1.298 -1.6689  1.1298  0.2594
37648SOL     OW14950   5.147  10.375   1.228 -0.3011  0.3419 -0.3417
37648SOL    HW114951   5.142  10.289   1.270  0.4972  0.4160 -0.0805
37648SOL    HW214952   5.152  10.437   1.301  0.7754  0.4939 -0.5275
37649SOL     OW14953  10.574   2.991   8.938  0.2629  0.0131  0.4606
37649SOL    HW114954  10.634   3.027   8.872 -0.7453 -0.6101 -0.8488
37649SOL    HW214955  10.523   3.067   8.967  1.7274  0.5771  1.6972
37650SOL     OW14956   9.638   9.274  10.103 -0.3718  0.2455 -0.2222
37650SOL    HW114957   9.595   9.227  10.175  0.9754  0.7349  0.9482
37650SOL    HW214958   9.618   9.221  10.025 -0.2852 -1.3703  0.7975
37651SOL     OW14959   9.946  10.756   9.315  0.0893 -0.2073 -0.4766
37651SOL    HW114960   9.895  10.838   9.319  0.8151  0.2006  0.9410
37651SOL    HW214961  10.023  10.778   9.263  0.8282  0.3572  0.8058
37652SOL     OW14962   4.138   8.804   5.966  0.0305  0.3725 -0.0410
37652SOL    HW114963   4.119   8.875   6.027  0.0376  0.9344 -0.6773
37652SOL    HW214964   4.056   8.791   5.918 -0.0257 -0.1807  0.1990
37653SOL     OW14965   8.549   0.751   9.942  0.0868 -0.4567  0.2947
37653SOL    HW114966   8.571   0.761   9.850  0.4235  1.6949  0.5451
37653SOL    HW214967   8.493   0.827   9.962 -3.3107 -2.9195  0.9566
37654SOL     OW14968   5.188   3.538   6.335  0.0259 -0.2361 -0.3415
37654SOL    HW114969   5.228   3.541   6.248  0.0367  0.6876 -0.3164
37654SOL    HW214970   5.169   3.445   6.350  0.8861 -0.5195 -0.9319
37655SOL     OW14971   7.405   2.890  10.129 -0.7876  0.1322 -0.1285
37655SOL    HW114972   7.479   2.849  10.174 -0.5192  0.6355 -0.1147
37655SOL    HW214973   7.408   2.853  10.041  0.1862  1.0343 -0.4829
37656SOL     OW14974   0.309   2.886   3.633  0.2535 -0.2439  0.2158
37656SOL    HW114975   0.280   2.888   3.725  2.2531  0.0645  0.8763
37656SOL    HW214976   0.283   2.971   3.598 -0.6415 -0.4133  0.4432
37657SOL     OW14977   0.114  11.008   5.516 -0.0024  0.3578  0.5234
37657SOL    HW114978   0.072  11.014   5.430  0.6249 -0.0945  0.1714
37657SOL    HW214979   0.051  10.960   5.570  0.4311 -1.1697 -0.2655
37658SOL     OW14980   9.532   6.865   5.475 -0.2507 -0.0327 -0.3577
37658SOL    HW114981   9.523   6.916   5.395  0.3372  0.6791  0.0142
37658SOL    HW214982   9.598   6.799   5.455 -1.3564 -0.9961 -0.9923
37659SOL     OW14983   8.105   5.757   5.894 -0.0791 -0.0577 -0.3227
37659SOL    HW114984   8.082   5.692   5.829  0.9485 -0.3871 -0.3618
37659SOL    HW214985   8.048   5.737   5.969 -0.2644 -0.5464 -0.5905
37660SOL     OW14986   2.093   4.881   3.528  0.0759  0.0085  0.7061
37660SOL    HW114987   2.140   4.958   3.561  1.3532 -0.5782  0.3156
37660SOL    HW214988   2.007   4.914   3.503  0.6824  1.3567  0.3306
37661SOL     OW14989   2.434   0.876   3.234 -0.0585 -0.3141 -0.0651
37661SOL    HW114990   2.516   0.828   3.226  0.6398  0.9261 -0.5862
37661SOL    HW214991   2.393   0.842   3.314  0.7732 -1.1981 -0.0019
37662SOL     OW14992   1.934   6.713   8.275  0.9186  0.7040  0.0304
37662SOL    HW114993   2.023   6.712   8.239  1.1997  3.2276  0.4733
37662SOL    HW214994   1.910   6.806   8.277 -0.9193  0.2594  1.8646
37663SOL     OW14995   4.014   2.191   9.214  0.5503  0.0377  0.2255
37663SOL    HW114996   4.071   2.267   9.225  2.0411 -1.0234  0.1826
37663SOL    HW214997   3.934   2.214   9.262  0.7968  1.7702 -0.1240
37664SOL     OW14998   4.190   0.836   0.992 -0.7309 -0.0100 -0.5563
37664SOL    HW114999   4.212   0.769   1.056  0.3261  1.7145  0.9884
37664SOL    HW215000   4.110   0.877   1.027 -1.6007 -0.6741 -1.6961
37665SOL     OW15001   4.692   3.729   6.560  0.4158  0.2701 -0.8750
37665SOL    HW115002   4.698   3.779   6.478  0.3889  0.0227 -1.0284
37665SOL    HW215003   4.600   3.737   6.586  0.9703  2.8789  0.7338
37666SOL     OW15004   3.515   9.527   5.653  0.0175 -0.1808  0.7213
37666SOL    HW115005   3.572   9.603   5.642 -0.2088 -0.2432 -1.1548
37666SOL    HW215006   3.568   9.453   5.623 -1.5330 -0.0269 -2.8596
37667SOL     OW15007   8.012   0.067   9.674  0.5636  0.9727 -0.3403
37667SOL    HW115008   8.041   0.146   9.720 -1.2529  0.1952  2.4076
37667SOL    HW215009   8.050   0.075   9.586  3.7634  2.9173  1.0222
37668SOL     OW15010   6.858   5.012   8.826  0.1996 -0.1971 -0.5367
37668SOL    HW115011   6.795   5.084   8.833 -0.6335 -0.9182 -0.4220
37668SOL    HW215012   6.943   5.055   8.820 -0.3188  0.8092 -0.9488
37669SOL     OW15013   4.148   6.306   3.222 -0.4148  0.6017  0.5890
37669SOL    HW115014   4.167   6.339   3.134 -0.5702  1.7338  0.9578
37669SOL    HW215015   4.062   6.266   3.215 -0.2631  0.3515  0.1433
37670SOL     OW15016  10.043  10.047  10.690 -0.0962  0.5196 -0.2258
37670SOL    HW115017  10.098  10.095  10.753 -0.0009  1.0141 -0.6817
37670SOL    HW215018  10.014  10.114  10.628 -0.7184  0.1453 -0.3385
37671SOL     OW15019   7.926   7.499   5.234  0.2245 -0.0386 -0.0926
37671SOL    HW115020   8.016   7.473   5.219 -0.1551 -2.1004  0.7984
37671SOL    HW215021   7.879   7.416   5.246 -1.7675  0.9806 -0.4516
37672SOL     OW15022   8.528   3.505   9.019  0.3304  0.2846  0.0066
37672SOL    HW115023   8.509   3.459   9.101 -0.4471 -1.6032 -1.1558
37672SOL    HW215024   8.623   3.512   9.016  0.6124 -2.5196 -0.3252
37673SOL     OW15025   1.273   3.120   7.544  0.8103 -0.1498  0.1048
37673SOL    HW115026   1.276   3.212   7.515  0.8551 -0.2852 -0.3206
37673SOL    HW215027   1.322   3.073   7.477  0.7809 -0.4866  0.3231
37674SOL     OW15028   3.864   0.141   3.143 -0.4230  0.1233 -0.2506
37674SOL    HW115029   3.782   0.092   3.143  0.6872 -1.8595  1.0355
37674SOL    HW215030   3.919   0.097   3.207  0.9063  2.7469  0.5588
37675SOL     OW15031   1.209   3.269   9.537  0.4438  0.4217 -0.0592
37675SOL    HW115032   1.150   3.271   9.462  0.8076 -1.4296 -0.4510
37675SOL    HW215033   1.297   3.266   9.497  0.7033  0.7712  0.4754
37676SOL     OW15034  10.266   3.893   7.473 -0.0891  0.0582  0.7356
37676SOL    HW115035  10.184   3.845   7.463  0.5342 -1.0516  0.8273
37676SOL    HW215036  10.296   3.871   7.561  0.0032  0.9689  0.9500
37677SOL     OW15037   2.599   3.481   4.575  0.2058  0.3067 -0.1937
37677SOL    HW115038   2.554   3.454   4.655  0.3754  1.9401  0.4866
37677SOL    HW215039   2.692   3.486   4.600  0.5724 -1.2318 -1.0922
37678SOL     OW15040   0.045   3.908   0.069  0.6339 -0.2371  0.3407
37678SOL    HW115041  -0.033   3.922   0.122  0.1721  0.6978 -0.5398
37678SOL    HW215042   0.072   3.995   0.042  0.8485 -0.6732 -0.9479
37679SOL     OW15043   5.945   9.684   5.045  0.0900 -0.2483  0.1238
37679SOL    HW115044   5.856   9.657   5.067  0.9643 -2.2754  1.4677
37679SOL    HW215045   5.989   9.693   5.130  1.2422  0.5001 -0.5236
37680SOL     OW15046   4.572   5.089   2.140 -0.4378  0.3342  0.1625
37680SOL    HW115047   4.633   5.160   2.122 -1.4104  1.0038 -0.5658
37680SOL    HW215048   4.592   5.062   2.230  1.7652 -0.3270 -0.4539
37681SOL     OW15049   7.140   5.971   6.699 -0.1170  0.6210 -0.1879
37681SOL    HW115050   7.209   6.035   6.714  0.2526  0.1577  0.0964
37681SOL    HW215051   7.070   5.998   6.758  0.3495  0.2985  0.5268
37682SOL     OW15052  11.013  10.106   5.973 -0.4212 -1.0519 -0.5300
37682SOL    HW115053  11.078  10.086   5.906  0.5305  0.3282 -0.0497
37682SOL    HW215054  11.057  10.165   6.034 -1.4250 -1.8550  1.0545
37683SOL     OW15055   4.854   4.513   9.674 -0.0280  0.9273 -0.5304
37683SOL    HW115056   4.819   4.602   9.683  0.5629  1.1244 -0.1523
37683SOL    HW215057   4.784   4.457   9.707 -0.4178  1.2515 -0.8000
37684SOL     OW15058   2.916   3.113   3.788 -0.5153 -0.5124 -0.0024
37684SOL    HW115059   2.828   3.099   3.755 -0.6507 -0.6894  0.4298
37684SOL    HW215060   2.906   3.180   3.856 -0.1095  0.5321 -0.9341
37685SOL     OW15061   9.453  10.890  10.080 -0.0050  0.7367  0.3841
37685SOL    HW115062   9.462  10.802  10.117 -3.3178  0.4855  0.8732
37685SOL    HW215063   9.483  10.949  10.149 -0.6474  0.0756  1.2478
37686SOL     OW15064   8.218   8.635   3.815 -0.3004 -0.3989  0.0519
37686SOL    HW115065   8.147   8.577   3.844 -0.2589 -0.3665  0.2208
37686SOL    HW215066   8.282   8.576   3.774 -0.0844 -0.5192  0.5587
37687SOL     OW15067   1.831   4.022   3.325  0.0304 -0.2325 -0.4043
37687SOL    HW115068   1.758   4.083   3.317  0.1788 -0.0131 -0.1037
37687SOL    HW215069   1.839   3.982   3.239  0.4425  0.7503 -0.8348
37688SOL     OW15070   9.773   8.694   8.778 -0.3988 -0.6732 -0.2517
37688SOL    HW115071   9.857   8.738   8.789  0.9124 -2.1862 -2.9858
37688SOL    HW215072   9.784   8.610   8.823 -1.0133 -0.2656  0.6637
37689SOL     OW15073   5.813   7.017   5.755 -0.6074 -0.3887  0.1438
37689SOL    HW115074   5.817   7.072   5.676 -0.5471  0.8609  1.0016
37689SOL    HW215075   5.720   7.006   5.772 -0.6233  0.4415  0.6369
37690SOL     OW15076   2.930   4.870   5.374 -0.1376  0.1472 -0.1903
37690SOL    HW115077   2.917   4.812   5.449 -1.7283 -1.1752 -1.4231
37690SOL    HW215078   3.005   4.834   5.328 -1.2449 -1.1411 -1.0659
37691SOL     OW15079   2.600   4.652   9.017 -0.4838 -0.2203 -0.5187
37691SOL    HW115080   2.644   4.687   8.940 -0.8334 -0.2931 -0.7510
37691SOL    HW215081   2.631   4.561   9.022 -1.2546 -0.5332 -1.1769
37692SOL     OW15082   9.051   1.671   4.629  0.1938  0.4063 -0.2955
37692SOL    HW115083   9.062   1.723   4.709 -0.5340  0.1936 -0.0502
37692SOL    HW215084   9.140   1.646   4.604  0.3108 -1.4406  1.7162
37693SOL     OW15085   3.860   9.373   6.359  0.9610  0.3060 -0.0727
37693SOL    HW115086   3.910   9.292   6.366 -0.2197 -0.4239  0.1732
37693SOL    HW215087   3.896   9.417   6.282 -0.5074 -1.9992 -2.2372
37694SOL     OW15088   5.600  10.911   3.294 -0.0930 -0.3946 -0.2798
37694SOL    HW115089   5.645  10.840   3.339 -0.0218  0.1643  0.5606
37694SOL    HW215090   5.666  10.980   3.285  0.2442 -0.9303 -2.3559
37695SOL     OW15091   0.644   0.305   0.748 -0.7293  0.3232 -0.6394
37695SOL    HW115092   0.713   0.244   0.722 -0.3073  0.4497  0.1596
37695SOL    HW215093   0.668   0.388   0.707 -1.2396  0.0078 -1.6271
37696SOL     OW15094   2.017   8.104   9.560  0.1214  0.0488 -0.0977
37696SOL    HW115095   2.060   8.144   9.635 -0.8351  1.5795 -0.3007
37696SOL    HW215096   2.078   8.117   9.488  1.1242 -1.5970  0.4253
37697SOL     OW15097  10.839   1.491   8.719  0.2572  0.5901 -0.0980
37697SOL    HW115098  10.836   1.580   8.757 -2.0976  0.5521 -0.1073
37697SOL    HW215099  10.814   1.503   8.628  0.6278 -0.0222 -0.2848
37698SOL     OW15100   5.725   9.476   9.566  0.0680 -0.6189 -0.2069
37698SOL    HW115101   5.741   9.563   9.601 -0.3001 -0.7999  0.4261
37698SOL    HW215102   5.751   9.417   9.636 -1.0909 -0.9794 -0.0695
37699SOL     OW15103   6.965   1.728   1.432  0.4083  0.2934 -1.1560
37699SOL    HW115104   6.944   1.817   1.460  0.3369 -0.7717  2.8356
37699SOL    HW215105   7.059   1.720   1.447  0.1733 -0.6593  0.0172
37700SOL     OW15106   1.733   5.338   5.045 -0.8969  0.2424 -0.0195
37700SOL    HW115107   1.693   5.385   4.971 -1.3571  0.4667  0.3658
37700SOL    HW215108   1.673   5.266   5.063 -2.0213  1.5134  1.5999
37701SOL     OW15109   9.288   2.357   8.914  0.0795 -0.0653  0.1474
37701SOL    HW115110   9.236   2.332   8.990 -1.0099 -0.7777 -0.7910
37701SOL    HW215111   9.224   2.373   8.845  1.0956 -0.7381 -0.9922
37702SOL     OW15112   2.831   3.131   1.901 -0.1570  0.3118  0.1960
37702SOL    HW115113   2.924   3.141   1.920 -0.3056 -1.4792  2.4439
37702SOL    HW215114   2.827   3.098   1.812  1.2713  1.4775 -0.3261
37703SOL     OW15115   2.897   5.515   2.891  0.3725  0.0962 -0.4827
37703SOL    HW115116   2.935   5.449   2.949 -0.3219  0.6445  0.6220
37703SOL    HW215117   2.805   5.518   2.915  0.4872  1.8481 -0.0971
37704SOL     OW15118   9.867   6.620   3.644 -0.0944 -0.0043  0.5197
37704SOL    HW115119   9.777   6.654   3.652  0.5223  1.8971 -0.0494
37704SOL    HW215120   9.877   6.602   3.551  0.7684  1.9010  0.1900
37705SOL     OW15121   0.993   9.111   3.731  0.1209 -0.7866  0.5283
37705SOL    HW115122   0.952   9.029   3.761  0.5227 -1.1957 -0.0119
37705SOL    HW215123   0.920   9.162   3.695 -0.2391 -0.6136  1.4840
37706SOL     OW15124   3.251   1.147   8.058  0.1154 -0.4542 -0.2500
37706SOL    HW115125   3.194   1.156   8.135  0.7290  0.1527  0.1398
37706SOL    HW215126   3.198   1.179   7.985 -1.0420 -2.4543 -0.3714
37707SOL     OW15127   2.650   6.119   5.353  0.0290  0.2226  0.5459
37707SOL    HW115128   2.618   6.061   5.284 -2.3066  1.3693  0.5491
37707SOL    HW215129   2.683   6.196   5.307 -1.8058  1.1183  0.6352
37708SOL     OW15130   0.449   4.514   0.554  0.0333 -0.1202  0.1476
37708SOL    HW115131   0.425   4.457   0.481  0.6259 -1.0629  0.6646
37708SOL    HW215132   0.379   4.579   0.558 -0.1501 -0.2213 -1.0742
37709SOL     OW15133  10.971   6.290  10.454 -0.1615  0.1123  0.5558
37709SOL    HW115134  10.947   6.370  10.501  0.6186 -0.6131  2.2774
37709SOL    HW215135  10.917   6.222  10.492  0.5697 -0.5228  0.4849
37710SOL     OW15136   7.207   1.721   3.686  0.0801 -1.2198  0.0147
37710SOL    HW115137   7.162   1.729   3.771  0.8276 -0.7051  0.3773
37710SOL    HW215138   7.171   1.793   3.634  1.5434  0.1849  0.8282
37711SOL     OW15139   9.030   8.592   0.697 -0.0865 -0.2002 -0.1694
37711SOL    HW115140   9.045   8.514   0.750 -1.0824 -0.9229 -0.9193
37711SOL    HW215141   9.115   8.636   0.695  0.4248 -1.1167  0.4874
37712SOL     OW15142   1.963   0.013   6.239 -0.2402  0.1335 -0.9353
37712SOL    HW115143   2.032   0.023   6.174 -1.5255 -0.8246 -2.5299
37712SOL    HW215144   1.924  -0.072   6.219 -1.1904  0.1582  0.6247
37713SOL     OW15145   2.722   9.989   6.500 -0.1973  0.2411 -0.2071
37713SOL    HW115146   2.760   9.914   6.544  1.0601 -0.1592 -1.8580
37713SOL    HW215147   2.631   9.965   6.484 -0.8355  0.6004  2.4776
37714SOL     OW15148   5.345  10.307   0.945  0.1971 -0.4555  0.3080
37714SOL    HW115149   5.390  10.363   1.008 -1.0066 -0.4024  1.1478
37714SOL    HW215150   5.274  10.361   0.911 -0.6459 -1.2595  0.7227
37715SOL     OW15151   0.041   1.443  10.494 -0.4625  0.3122 -0.0438
37715SOL    HW115152   0.123   1.451  10.543 -0.3513  0.0338 -0.1782
37715SOL    HW215153   0.048   1.358  10.450 -1.1286 -0.0351  0.4998
37716SOL     OW15154   2.590   8.156   8.419 -0.1258  0.0188  0.2166
37716SOL    HW115155   2.632   8.238   8.392 -0.3761  0.1100  0.0949
37716SOL    HW215156   2.530   8.181   8.489  0.5695 -0.2301  0.9105
37717SOL     OW15157  10.356   4.019   3.662 -1.0144  0.2227  0.6348
37717SOL    HW115158  10.429   3.969   3.698 -0.0868  0.6230 -0.6306
37717SOL    HW215159  10.291   4.019   3.732  0.1714 -0.1708  1.7870
37718SOL     OW15160   9.565   1.909  10.719  0.6151 -0.4835  0.4083
37718SOL    HW115161   9.548   1.835  10.661  0.0684 -1.2315  1.4749
37718SOL    HW215162   9.501   1.975  10.694  0.4351 -0.7674  0.1152
37719SOL     OW15163   7.617   6.616   3.874 -0.4050 -0.2467  0.0841
37719SOL    HW115164   7.658   6.530   3.860 -0.7783 -0.4602  0.2722
37719SOL    HW215165   7.633   6.635   3.966 -0.0400  0.0387 -0.0378
37720SOL     OW15166   9.792   6.580   1.826 -0.1622  0.5940 -0.0352
37720SOL    HW115167   9.803   6.583   1.731 -0.0913  1.0004 -0.0168
37720SOL    HW215168   9.709   6.534   1.839 -0.2249  0.6308 -0.2983
37721SOL     OW15169   9.172   9.743  10.939 -0.2560 -0.2529  0.2057
37721SOL    HW115170   9.229   9.774  11.009 -0.7477  0.1492  0.4316
37721SOL    HW215171   9.084   9.753  10.974 -0.5539  0.7361 -0.7713
37722SOL     OW15172   7.465   5.685   5.240  0.1297 -0.0761 -0.3186
37722SOL    HW115173   7.545   5.647   5.204 -0.2051  0.1270 -1.3124
37722SOL    HW215174   7.399   5.618   5.228  0.2856 -0.5266  1.1654
37723SOL     OW15175   0.589   2.142   6.094 -0.5293 -1.0895 -0.3768
37723SOL    HW115176   0.599   2.108   6.183 -0.8154 -1.8067 -0.6104
37723SOL    HW215177   0.655   2.094   6.044 -0.9124 -1.2744 -0.7060
37724SOL     OW15178   2.540   9.753   7.519 -0.6289 -1.2807 -0.4001
37724SOL    HW115179   2.531   9.748   7.614  1.2129 -2.7977 -0.2257
37724SOL    HW215180   2.614   9.813   7.505 -1.4476 -0.3701 -0.9433
37725SOL     OW15181   8.568   1.949   5.374 -0.3284 -0.7321  0.2731
37725SOL    HW115182   8.501   1.955   5.305 -1.3637 -0.7262  1.2470
37725SOL    HW215183   8.529   1.994   5.449  2.2164  2.5405 -0.1542
37726SOL     OW15184  10.669   6.883   0.767 -0.9463 -0.2463 -0.1991
37726SOL    HW115185  10.688   6.801   0.723  0.6401 -1.4508  2.4467
37726SOL    HW215186  10.753   6.930   0.767 -0.9326 -0.2209  1.3050
37727SOL     OW15187   9.900   7.265   0.708 -0.4933  0.8330 -0.1268
37727SOL    HW115188   9.979   7.317   0.724  0.2691  0.0100 -1.0753
37727SOL    HW215189   9.873   7.290   0.620 -1.4581  1.3084  0.2995
37728SOL     OW15190  10.670   8.602   4.970  0.1562  0.8709  0.0330
37728SOL    HW115191  10.633   8.579   4.885 -0.9425  2.5288  0.0308
37728SOL    HW215192  10.623   8.547   5.033  0.6162  0.0157 -0.3415
37729SOL     OW15193   0.972   0.358   8.986 -0.4856  0.3055 -0.1280
37729SOL    HW115194   1.014   0.389   8.906  1.2827 -2.6015 -0.4546
37729SOL    HW215195   0.891   0.317   8.956 -0.7250  0.8232 -0.1969
37730SOL     OW15196   6.922   4.901   9.833 -0.3122 -0.4197 -0.2116
37730SOL    HW115197   6.977   4.948   9.770  0.2263  0.1370  0.6399
37730SOL    HW215198   6.876   4.835   9.781  0.5874 -0.3926 -1.0743
37731SOL     OW15199   0.402   3.536   4.387  0.3522  0.0669  0.6207
37731SOL    HW115200   0.489   3.498   4.379 -0.2289 -1.5324  1.3842
37731SOL    HW215201   0.342   3.461   4.381 -0.8923  0.9532  1.3957
37732SOL     OW15202   7.242   1.697  10.952 -0.6505 -0.0986 -0.3150
37732SOL    HW115203   7.177   1.744  11.005 -1.2641 -2.1423  0.8489
37732SOL    HW215204   7.282   1.635  11.013  1.7744  0.4601 -1.2420
37733SOL     OW15205   4.077   4.469   9.670  0.6428  0.0954 -0.3394
37733SOL    HW115206   4.122   4.553   9.660  0.7194 -0.0649 -1.4660
37733SOL    HW215207   4.134   4.418   9.728  0.3517  0.9763  0.7598
37734SOL     OW15208   0.115   6.885   4.644 -0.4837  0.0794 -0.2842
37734SOL    HW115209   0.141   6.900   4.735 -1.4013  2.3233 -0.3210
37734SOL    HW215210   0.190   6.840   4.605 -0.2414 -1.3309  1.6501
37735SOL     OW15211   0.034  10.052   5.694  0.2689  0.2602  0.2290
37735SOL    HW115212   0.077  10.037   5.609  2.3192  0.3316  1.1851
37735SOL    HW215213  -0.031   9.982   5.701  1.6616 -1.1715 -0.4248
37736SOL     OW15214   3.482   1.278   2.902 -0.2592  0.0480 -1.1071
37736SOL    HW115215   3.423   1.351   2.884 -1.0773  0.5240  2.7059
37736SOL    HW215216   3.568   1.318   2.913 -0.7326  0.5828  1.1307
37737SOL     OW15217   5.782   2.630   1.172  0.4973  0.5988 -0.4294
37737SOL    HW115218   5.739   2.621   1.257  1.2458 -1.0079 -0.1783
37737SOL    HW215219   5.800   2.723   1.164  0.8491  0.7311  1.4120
37738SOL     OW15220   4.256   2.302   2.083  0.1702  0.1495  0.1097
37738SOL    HW115221   4.205   2.383   2.069 -1.4954 -1.0914 -1.4329
37738SOL    HW215222   4.344   2.324   2.055 -0.0135  1.7083  0.6362
37739SOL     OW15223   5.156   8.707   8.590  0.3125  0.0780  0.0596
37739SOL    HW115224   5.228   8.736   8.647  0.9658 -1.2010 -0.0944
37739SOL    HW215225   5.139   8.782   8.533  1.6800  0.3102 -0.0587
37740SOL     OW15226   2.949   6.662   1.412  0.0940  0.3698 -0.7542
37740SOL    HW115227   3.037   6.653   1.451  0.7588  0.8098 -2.0917
37740SOL    HW215228   2.894   6.603   1.464  1.1800  0.0673  0.1008
37741SOL     OW15229   6.969   0.143   7.353  0.0452  0.2627  0.2046
37741SOL    HW115230   6.993   0.233   7.377 -0.0135  0.5009 -0.5764
37741SOL    HW215231   7.036   0.089   7.395  1.5721  0.8603 -1.2870
37742SOL     OW15232  10.506   6.233  10.566  0.1431  0.1188 -0.1389
37742SOL    HW115233  10.595   6.254  10.539  0.5825  0.0781  1.1841
37742SOL    HW215234  10.514   6.207  10.658 -1.2366  0.1586  0.0235
37743SOL     OW15235  10.057   2.922   6.615 -0.0344  0.5268 -1.2227
37743SOL    HW115236  10.132   2.915   6.675 -1.7714 -0.3352  1.0017
37743SOL    HW215237   9.996   2.980   6.661 -2.8681 -2.7827 -0.3944
37744SOL     OW15238   2.593   1.428   2.590 -0.0301 -0.0511 -0.1943
37744SOL    HW115239   2.685   1.455   2.587  0.0683 -0.4163 -0.9200
37744SOL    HW215240   2.557   1.471   2.667  0.4239  1.1533 -0.6252
37745SOL     OW15241   1.501   0.835   1.750  0.1010 -0.1600  0.3198
37745SOL    HW115242   1.531   0.915   1.794  0.2258 -0.9358  1.6980
37745SOL    HW215243   1.449   0.789   1.816  0.2976 -1.3882 -0.3446
37746SOL     OW15244   6.865   2.012   2.155 -0.0884 -0.3836  0.5366
37746SOL    HW115245   6.811   2.090   2.142  0.6379  0.1068  0.4142
37746SOL    HW215246   6.865   1.999   2.250 -1.3238 -1.0451  0.4609
37747SOL     OW15247   0.249   3.068   5.388 -0.0369  0.0750  0.3289
37747SOL    HW115248   0.235   3.142   5.447 -1.1457  0.1558 -0.0048
37747SOL    HW215249   0.192   3.086   5.313  1.6399  0.1859 -0.9778
37748SOL     OW15250   0.020   5.002   7.697  0.4038 -0.3732 -0.3022
37748SOL    HW115251  -0.075   5.010   7.698  0.4800  1.4012 -1.9610
37748SOL    HW215252   0.050   5.046   7.776 -0.0955  0.5467 -0.6187
37749SOL     OW15253   7.438   7.353   5.105 -0.4603 -0.0040 -0.3043
37749SOL    HW115254   7.513   7.303   5.072 -0.8464  0.9882 -2.9204
37749SOL    HW215255   7.476   7.418   5.164  0.4746 -0.8453  0.0425
37750SOL     OW15256   0.172   6.188  10.750 -0.1255 -0.3052 -0.1669
37750SOL    HW115257   0.089   6.142  10.739 -0.0033 -0.1696 -1.8445
37750SOL    HW215258   0.180   6.200  10.845 -0.4194 -3.2044  0.3127
37751SOL     OW15259   4.462   6.007   3.413 -0.5037 -0.0860  0.0862
37751SOL    HW115260   4.543   5.957   3.408 -1.1889 -1.2411  0.1971
37751SOL    HW215261   4.397   5.952   3.370 -0.7531  1.9197 -2.3605
37752SOL     OW15262   5.085   5.333   1.657 -0.6152  0.1165  0.6634
37752SOL    HW115263   5.047   5.420   1.644  2.7779  1.3722 -2.2702
37752SOL    HW215264   5.055   5.282   1.581  0.8041  0.1101  0.0838
37753SOL     OW15265   3.551   3.654   2.195 -0.5917  0.0105 -0.2945
37753SOL    HW115266   3.641   3.654   2.226 -0.8250  1.6405  0.4357
37753SOL    HW215267   3.558   3.638   2.101  0.4493  0.0201 -0.2201
37754SOL     OW15268   2.462  10.410   9.649  0.1046  0.3745 -0.5464
37754SOL    HW115269   2.438  10.350   9.719  1.5120  0.5273  0.1044
37754SOL    HW215270   2.387  10.409   9.589 -0.9150 -0.1239  0.7042
37755SOL     OW15271   1.339   8.804   7.610  0.6036 -0.1081 -0.4713
37755SOL    HW115272   1.404   8.770   7.548  0.8495 -1.0841  0.2893
37755SOL    HW215273   1.334   8.736   7.678  0.1778  0.8283  0.4536
37756SOL     OW15274   5.448   8.597   4.916  0.2549  0.2140 -0.4539
37756SOL    HW115275   5.521   8.644   4.876  0.3829  0.2528 -0.1806
37756SOL    HW215276   5.462   8.608   5.010 -0.1450  0.2875 -0.4003
37757SOL     OW15277  10.551   8.336  10.853  0.2648 -0.2328 -0.3754
37757SOL    HW115278  10.478   8.396  10.836 -0.9210 -1.9464 -1.6146
37757SOL    HW215279  10.540   8.312  10.945 -0.0993  0.3208 -0.2613
37758SOL     OW15280   5.202   7.266   2.994  0.0845 -0.1468  0.2731
37758SOL    HW115281   5.199   7.340   2.933 -0.0400  0.9322  1.5413
37758SOL    HW215282   5.296   7.254   3.012  0.1196 -0.4495 -0.1026
37759SOL     OW15283   7.764   5.988   1.408 -0.1060 -0.0130  0.0093
37759SOL    HW115284   7.824   5.934   1.461  0.3264 -0.3559 -0.8159
37759SOL    HW215285   7.797   6.077   1.419  0.7588 -0.2355 -0.6904
37760SOL     OW15286   6.727   3.776   8.315 -0.6575 -0.0637 -0.4437
37760SOL    HW115287   6.649   3.830   8.311  0.0250  0.9461 -0.4913
37760SOL    HW215288   6.749   3.756   8.224  0.6722  1.9601 -0.6222
37761SOL     OW15289   0.417   2.542   9.538  0.2603 -0.1349  0.4649
37761SOL    HW115290   0.355   2.529   9.611  0.1100 -1.4397  0.1340
37761SOL    HW215291   0.390   2.624   9.498 -0.2207  0.1478  1.3281
37762SOL     OW15292   1.869   7.517   0.133 -0.1331 -0.1343 -0.5691
37762SOL    HW115293   1.906   7.435   0.165  1.3180  0.5326 -0.4589
37762SOL    HW215294   1.856   7.502   0.039 -0.0752 -0.5548 -0.5126
37763SOL     OW15295   8.281   9.541   9.659 -0.0195 -0.1219 -0.1908
37763SOL    HW115296   8.350   9.485   9.695 -0.4993 -1.4616 -1.2517
37763SOL    HW215297   8.325   9.621   9.633  1.0349 -0.7221 -0.2955
37764SOL     OW15298   6.581   7.886   8.414 -0.3712  0.4184  0.0194
37764SOL    HW115299   6.579   7.808   8.359  0.7512  0.6469 -0.3870
37764SOL    HW215300   6.489   7.910   8.426 -0.6576  0.5401 -2.0525
37765SOL     OW15301   3.636  10.486   1.400  0.9137 -0.5885  0.5228
37765SOL    HW115302   3.585  10.555   1.443  3.0172 -0.1031  2.4428
37765SOL    HW215303   3.717  10.529   1.374  0.8723 -1.5896 -1.4580
37766SOL     OW15304   4.057   1.789   2.274 -0.6001 -0.4948 -0.1395
37766SOL    HW115305   4.141   1.746   2.286  0.4766  0.9449 -1.9639
37766SOL    HW215306   4.077   1.882   2.277 -2.4337 -0.0868  1.0419
37767SOL     OW15307   8.872   3.069   8.088  0.1120  0.3960  0.0070
37767SOL    HW115308   8.914   3.087   8.172 -0.2628 -0.3036  0.3549
37767SOL    HW215309   8.841   2.979   8.096  0.3699  0.2039 -1.0094
37768SOL     OW15310   5.899   3.718   1.106 -0.7885  0.5597 -0.9680
37768SOL    HW115311   5.851   3.800   1.121 -0.1991  0.6848  0.3197
37768SOL    HW215312   5.876   3.663   1.181  0.4960  0.3516 -0.7153
37769SOL     OW15313   4.520   3.910   5.894  0.0120  0.1309  0.3354
37769SOL    HW115314   4.610   3.911   5.925 -0.5661  0.9473  2.1336
37769SOL    HW215315   4.473   3.856   5.958 -0.8132 -0.1344 -0.4721
37770SOL     OW15316   4.111   6.411   6.453  0.5469 -0.3567  0.0935
37770SOL    HW115317   4.140   6.501   6.466 -0.8102  0.5543 -2.5492
37770SOL    HW215318   4.044   6.398   6.520  0.9803  0.4663  0.7094
37771SOL     OW15319   9.215   0.395   3.863  0.6124  0.1179 -0.3435
37771SOL    HW115320   9.219   0.397   3.767  0.4119 -0.9271 -0.3839
37771SOL    HW215321   9.307   0.403   3.890  0.9214 -1.8165 -0.6976
37772SOL     OW15322   9.890   9.676   4.633  0.1299 -0.1086 -0.3519
37772SOL    HW115323   9.939   9.754   4.607 -0.6459  0.8488  0.8808
37772SOL    HW215324   9.932   9.647   4.714  0.4113 -0.9875 -0.8009
37773SOL     OW15325   8.965  11.013   6.997 -0.4422 -0.0560  0.3151
37773SOL    HW115326   8.943  10.927   7.032  1.0449 -0.1018  1.2174
37773SOL    HW215327   8.995  10.996   6.908  3.2496 -1.0407  1.5703
37774SOL     OW15328   2.230   6.075   2.976  0.0987  0.0294  0.1105
37774SOL    HW115329   2.207   6.046   2.888 -1.3229  2.3174 -0.3600
37774SOL    HW215330   2.149   6.112   3.011  1.0967  0.8411  1.6590
37775SOL     OW15331   6.147   3.094   5.560  0.2767 -0.2435 -0.1497
37775SOL    HW115332   6.070   3.037   5.563  0.2028 -0.1192  0.5601
37775SOL    HW215333   6.195   3.066   5.483 -0.0760 -0.8542 -0.1527
37776SOL     OW15334   7.376   8.516   3.451 -0.2753  0.0096  0.1742
37776SOL    HW115335   7.349   8.604   3.426  0.6550  0.4908  0.8140
37776SOL    HW215336   7.295   8.470   3.471 -0.7663  0.7191 -0.1594
37777SOL     OW15337   6.412   9.335   5.002 -0.1929  0.6690  0.1181
37777SOL    HW115338   6.359   9.307   4.928 -1.0495 -0.9974  1.3017
37777SOL    HW215339   6.351   9.381   5.059  0.1569  0.7562  0.4236
37778SOL     OW15340   7.697   5.364   3.651  0.2780  0.2984  0.0708
37778SOL    HW115341   7.749   5.326   3.723 -1.3048 -0.4236  0.8939
37778SOL    HW215342   7.606   5.354   3.680 -0.3653  0.8144 -1.6586
37779SOL     OW15343   6.167   8.678   8.869  0.3042 -0.2264 -0.4052
37779SOL    HW115344   6.234   8.641   8.927  1.0511  1.4728 -0.1178
37779SOL    HW215345   6.212   8.691   8.785 -0.4553 -1.6089 -1.0518
37780SOL     OW15346   5.282   4.595   7.475  0.0974 -0.0208 -0.3084
37780SOL    HW115347   5.269   4.526   7.411  0.4808  0.8656 -1.3700
37780SOL    HW215348   5.377   4.609   7.477  0.0706  0.1140  0.2920
37781SOL     OW15349   4.281   5.565   3.857 -0.8285  0.3575  0.1540
37781SOL    HW115350   4.261   5.658   3.845 -0.8720  0.3211 -0.0637
37781SOL    HW215351   4.224   5.537   3.929 -1.0234  0.4319  0.0305
37782SOL     OW15352   4.123   4.635   7.370 -0.3518 -0.2621 -0.2560
37782SOL    HW115353   4.104   4.611   7.460 -1.6069 -0.9264 -0.6759
37782SOL    HW215354   4.194   4.699   7.376 -0.0675 -0.6830  1.1577
37783SOL     OW15355   9.238   6.647  10.162 -1.0786 -0.1300 -0.3116
37783SOL    HW115356   9.225   6.688  10.076 -0.3731  0.1160 -0.3052
37783SOL    HW215357   9.294   6.571  10.143 -0.9781 -0.1138 -0.0778
37784SOL     OW15358  10.456   3.553  10.314  0.0432  0.3413 -0.1375
37784SOL    HW115359  10.376   3.535  10.363 -0.9561  3.0168 -0.6043
37784SOL    HW215360  10.474   3.473  10.266 -0.9592 -1.1447  1.8170
37785SOL     OW15361   5.185   1.879   1.425 -0.5927  0.0465 -0.4857
37785SOL    HW115362   5.164   1.967   1.394 -0.2399 -0.1564 -1.3371
37785SOL    HW215363   5.277   1.884   1.452 -0.2496 -0.3050 -1.5281
37786SOL     OW15364   8.973   9.551   6.650 -0.6505 -0.2251  0.9807
37786SOL    HW115365   8.973   9.477   6.711  0.7873 -1.3992 -0.3753
37786SOL    HW215366   9.019   9.519   6.572 -0.1366  2.0449  0.2681
37787SOL     OW15367   3.034   0.092   1.779  0.3609  0.0315 -0.3291
37787SOL    HW115368   3.037   0.052   1.692 -1.6977  0.7296 -0.7726
37787SOL    HW215369   3.050   0.019   1.840  0.0305 -0.8003 -1.2190
37788SOL     OW15370   4.796   7.308   9.089 -0.4314 -0.1133 -0.2324
37788SOL    HW115371   4.858   7.318   9.162 -2.4934 -0.0376  1.6335
37788SOL    HW215372   4.770   7.398   9.068 -0.9719 -0.2120 -0.0003
37789SOL     OW15373   0.432  10.783   8.979  0.7025 -0.0235  0.5721
37789SOL    HW115374   0.393  10.869   8.998  0.0978 -0.2143  0.2307
37789SOL    HW215375   0.514  10.783   9.028  1.4335  1.3415 -0.5699
37790SOL     OW15376   1.904   1.088   8.172  0.1965  0.4864 -0.0869
37790SOL    HW115377   1.895   1.176   8.208  0.6271  0.8032 -0.7342
37790SOL    HW215378   1.814   1.060   8.155 -0.1223 -0.1474  2.3080
37791SOL     OW15379   0.585   7.082   3.200  0.4467  0.6143  0.1099
37791SOL    HW115380   0.515   7.036   3.247 -1.2960  0.7637 -2.1898
37791SOL    HW215381   0.618   7.018   3.137  1.0132  1.1734 -0.1674
37792SOL     OW15382   3.274   9.740   7.250 -0.2063 -0.2131  0.1335
37792SOL    HW115383   3.352   9.685   7.243  0.5810  0.9062 -0.0702
37792SOL    HW215384   3.244   9.751   7.159 -2.6798 -3.4518  0.3708
37793SOL     OW15385   1.402   6.099   0.740  0.3320  0.3689  0.5561
37793SOL    HW115386   1.310   6.108   0.765  0.7167  3.4542  1.2809
37793SOL    HW215387   1.418   6.005   0.740 -3.3292 -0.4185 -1.6647
37794SOL     OW15388   8.750   1.477  10.378 -0.4570  0.7209  0.0368
37794SOL    HW115389   8.827   1.477  10.434 -0.0677 -2.4147 -0.3299
37794SOL    HW215390   8.782   1.506  10.293 -0.4484  2.6594  0.6622
37795SOL     OW15391   7.062   0.738   4.128  0.0720  0.2927 -0.6122
37795SOL    HW115392   7.071   0.705   4.039 -1.3666  1.8815 -1.3990
37795SOL    HW215393   7.127   0.808   4.135  1.3299 -0.9159  0.1786
37796SOL     OW15394   7.274   1.910   7.662  0.3075 -0.3679 -0.5131
37796SOL    HW115395   7.362   1.933   7.692 -0.1336  0.2894  0.3082
37796SOL    HW215396   7.288   1.875   7.573  1.3134  0.5046 -0.7239
37797SOL     OW15397   2.653   0.457   1.231  0.1289 -0.4540 -0.2173
37797SOL    HW115398   2.673   0.435   1.322  0.0584  1.1742  0.2223
37797SOL    HW215399   2.557   0.464   1.229  0.2201  1.3521  0.0748
37798SOL     OW15400  10.344   2.878   6.780 -0.5559 -0.0027  0.7052
37798SOL    HW115401  10.421   2.824   6.796 -1.5344 -2.0408 -0.8852
37798SOL    HW215402  10.378   2.956   6.736  0.6659 -0.5197  0.6825
37799SOL     OW15403   9.063   1.456   9.973  0.1745 -0.0875  0.6565
37799SOL    HW115404   9.078   1.362   9.965  0.8538  0.0495  0.2313
37799SOL    HW215405   9.150   1.495   9.961 -0.0694  0.5849  1.0146
37800SOL     OW15406   1.368   5.790   6.412 -0.1013 -0.1719  0.7875
37800SOL    HW115407   1.380   5.848   6.488 -1.7189 -1.2750  1.9637
37800SOL    HW215408   1.279   5.811   6.381  0.2144 -0.3549 -0.2782
37801SOL     OW15409   8.365   7.057   9.785 -0.0447  0.4295 -0.5971
37801SOL    HW115410   8.435   7.078   9.724  0.1298 -0.1072 -0.5890
37801SOL    HW215411   8.286   7.093   9.745  0.1660  0.6388 -0.8269
37802SOL     OW15412   4.193   1.187   1.327  0.4449 -0.0407  0.1335
37802SOL    HW115413   4.250   1.255   1.290  1.4501 -0.4112  0.9234
37802SOL    HW215414   4.132   1.165   1.257  0.6360  1.0849 -0.4103
37803SOL     OW15415   6.844   0.518   2.441 -0.4059 -0.3411 -0.1142
37803SOL    HW115416   6.898   0.504   2.519  0.4757 -0.1344 -0.6715
37803SOL    HW215417   6.763   0.557   2.475  0.0415 -0.0630  0.6762
37804SOL     OW15418   2.043   3.801   6.335  0.1664 -0.5415 -0.5985
37804SOL    HW115419   2.037   3.756   6.251  1.0303 -0.4833 -0.6991
37804SOL    HW215420   2.090   3.739   6.392  0.1021 -0.3448 -0.3305
37805SOL     OW15421   8.589   7.420   7.838  0.1283 -0.2099 -0.8115
37805SOL    HW115422   8.642   7.392   7.763  0.0124 -2.0882 -0.2467
37805SOL    HW215423   8.500   7.428   7.803  0.1628 -0.5588 -0.9818
37806SOL     OW15424   8.907   8.993   0.535 -0.1597 -0.7934 -0.1998
37806SOL    HW115425   8.962   8.955   0.467  1.6613 -0.2938  0.9399
37806SOL    HW215426   8.954   8.977   0.617  0.6431  3.5631  0.4365
37807SOL     OW15427   3.532   7.677   9.082 -0.6697  0.0013  0.2290
37807SOL    HW115428   3.538   7.585   9.108  0.1568 -0.1975 -0.6106
37807SOL    HW215429   3.439   7.693   9.068 -0.9492 -0.3639  1.5424
37808SOL     OW15430   0.542   2.821  10.441  0.2987 -0.0518 -0.4619
37808SOL    HW115431   0.635   2.839  10.427  0.6895 -0.9985  0.7115
37808SOL    HW215432   0.522   2.861  10.525 -0.2878 -0.0838 -0.5849
37809SOL     OW15433   0.128   1.900   6.543  0.1812 -0.7698 -0.7798
37809SOL    HW115434   0.217   1.935   6.533  0.6542 -2.1978 -2.0193
37809SOL    HW215435   0.139   1.823   6.599 -0.4013 -0.5155 -0.3127
37810SOL     OW15436   1.206  10.398   2.766 -0.6064  0.0825  0.1021
37810SOL    HW115437   1.128  10.421   2.816  0.2499  0.3758  1.3545
37810SOL    HW215438   1.278  10.411   2.827  0.4031 -0.4885 -0.9290
37811SOL     OW15439   1.830   6.195   0.855  0.0667  0.3990 -0.5033
37811SOL    HW115440   1.801   6.104   0.853  0.4914  0.2431  0.1655
37811SOL    HW215441   1.808   6.229   0.768 -0.8924 -0.0861 -0.4684
37812SOL     OW15442   4.539   0.109   7.470 -0.4909 -0.4471  0.1623
37812SOL    HW115443   4.593   0.110   7.391 -0.9674  1.3857 -0.1951
37812SOL    HW215444   4.591   0.157   7.535 -0.8901 -0.3099  0.3822
37813SOL     OW15445  10.122   8.606   0.641  0.5371 -0.1197  0.6625
37813SOL    HW115446  10.028   8.608   0.660  0.7172 -0.4530  1.6451
37813SOL    HW215447  10.131   8.654   0.559 -0.3270  1.1732  1.2921
37814SOL     OW15448   2.278   9.851   7.475 -0.0252 -0.3063  0.7927
37814SOL    HW115449   2.357   9.799   7.464  0.2671  0.3308 -0.3153
37814SOL    HW215450   2.287   9.892   7.561  0.8572 -0.2285  0.6676
37815SOL     OW15451   3.495   7.400   1.010 -0.1713  0.0603  0.7771
37815SOL    HW115452   3.494   7.494   0.994  0.8732 -0.1211 -0.5028
37815SOL    HW215453   3.450   7.363   0.935  0.5808 -0.5341  0.6063
37816SOL     OW15454   9.693  10.914   4.352 -0.0712 -0.7378 -0.1666
37816SOL    HW115455   9.783  10.932   4.379 -0.5295 -0.2567  1.1216
37816SOL    HW215456   9.664  10.843   4.408  0.1328 -2.3252 -1.9639
37817SOL     OW15457  10.596   4.614   7.106 -0.6570  0.2092  0.7584
37817SOL    HW115458  10.597   4.706   7.081  3.6324  1.4448  4.2801
37817SOL    HW215459  10.536   4.610   7.181 -1.8724 -0.2855 -0.1916
37818SOL     OW15460   1.472   0.893   4.640  0.5451  0.4427 -0.2011
37818SOL    HW115461   1.482   0.867   4.732 -0.6240 -0.0888 -0.2190
37818SOL    HW215462   1.562   0.902   4.609  0.9590  0.4414  0.9438
37819SOL     OW15463   7.033   1.563   2.848  0.3127 -0.6152  0.2507
37819SOL    HW115464   7.126   1.568   2.871 -0.1435  2.2612  1.9741
37819SOL    HW215465   6.999   1.650   2.869 -2.7901 -1.5774 -0.3354
37820SOL     OW15466   3.274   2.739   6.877 -1.1278 -0.1089 -0.0603
37820SOL    HW115467   3.292   2.833   6.879 -1.9297  0.0451  0.9579
37820SOL    HW215468   3.351   2.699   6.918 -0.8041  0.1005 -0.4536
37821SOL     OW15469   8.063   1.235   9.327  0.2493 -0.6234 -0.0738
37821SOL    HW115470   8.106   1.272   9.405  0.7011  0.4432 -0.8034
37821SOL    HW215471   7.977   1.207   9.358 -0.4449  1.7847  0.4018
37822SOL     OW15472   4.375   7.193   3.278  0.6163 -0.2260  0.3286
37822SOL    HW115473   4.302   7.150   3.322  0.4167 -2.4793 -1.9773
37822SOL    HW215474   4.335   7.264   3.227  0.2740 -0.3539  0.4186
37823SOL     OW15475   2.624   7.762   5.573 -0.2803 -0.5444  0.7861
37823SOL    HW115476   2.703   7.746   5.521 -0.5208 -0.4933  0.3977
37823SOL    HW215477   2.553   7.763   5.508 -0.4117  0.9978  0.9195
37824SOL     OW15478   0.996   3.451   5.485  0.3223  0.2223  0.0972
37824SOL    HW115479   0.931   3.382   5.490 -0.0357  0.3242 -2.1496
37824SOL    HW215480   0.946   3.532   5.492  0.6152  0.3090  1.5679
37825SOL     OW15481  10.292   4.976  10.549 -0.7988  0.2513 -0.1907
37825SOL    HW115482  10.230   4.976  10.476 -1.2435  0.5079  0.1802
37825SOL    HW215483  10.377   4.957  10.509 -0.9298  1.0681 -0.8637
37826SOL     OW15484   4.154   2.396   3.752 -0.1502 -0.0884  0.0263
37826SOL    HW115485   4.164   2.484   3.789  0.6220  0.1876 -0.8199
37826SOL    HW215486   4.219   2.343   3.798 -0.7856 -0.2879  0.7157
37827SOL     OW15487   3.856   4.578   2.921 -0.4393  0.7735  0.3777
37827SOL    HW115488   3.911   4.656   2.913  0.4396  0.1156 -0.2696
37827SOL    HW215489   3.801   4.595   2.998 -0.1870  1.9695  0.3137
37828SOL     OW15490   8.910   1.667   4.901 -0.4049 -0.1799 -0.2463
37828SOL    HW115491   8.819   1.692   4.915 -0.5577  0.2806 -1.7829
37828SOL    HW215492   8.907   1.574   4.881 -0.5514 -0.1495 -0.3689
37829SOL     OW15493   8.438   8.548   6.290  0.3443 -0.0737 -0.3115
37829SOL    HW115494   8.483   8.599   6.224 -2.1689 -0.2695 -2.3036
37829SOL    HW215495   8.441   8.458   6.257 -0.2311 -0.3025  0.2346
37830SOL     OW15496   0.216   7.117   2.487  0.3156  0.2167  0.3960
37830SOL    HW115497   0.183   7.114   2.576  1.5100  0.4149  0.8721
37830SOL    HW215498   0.180   7.039   2.445 -1.1119  0.6825  0.7250
37831SOL     OW15499   9.822   2.564   8.930 -0.6754  0.1355 -0.0881
37831SOL    HW115500   9.851   2.595   9.015 -0.5471  0.0530 -0.1000
37831SOL    HW215501   9.768   2.487   8.949  1.6409 -1.6410 -0.1897
37832SOL     OW15502   1.774   7.616   2.330  0.4672  0.3405 -0.2061
37832SOL    HW115503   1.835   7.645   2.262 -0.2208  0.0644 -0.9618
37832SOL    HW215504   1.770   7.689   2.392  2.0448  0.1094  0.2029
37833SOL     OW15505  10.081   6.062   8.722  0.4145 -0.4333  0.3343
37833SOL    HW115506  10.025   5.988   8.699  0.0719 -0.5100  1.3778
37833SOL    HW215507  10.124   6.036   8.803 -0.1966  0.7556  1.0751
37834SOL     OW15508   3.459   3.693   5.892  0.0665  0.3644  0.0284
37834SOL    HW115509   3.528   3.656   5.836 -0.6742 -0.7564 -0.1764
37834SOL    HW215510   3.505   3.756   5.947  1.6506 -1.7378  1.2742
37835SOL     OW15511   3.245   8.437   6.482  0.3126  0.2043  0.2861
37835SOL    HW115512   3.188   8.470   6.412  0.7256  0.5455  0.1087
37835SOL    HW215513   3.241   8.342   6.472 -1.3333  0.1408  1.1639
37836SOL     OW15514   0.516   2.428   7.510 -0.5762  0.0529  0.0867
37836SOL    HW115515   0.464   2.380   7.446  1.1571 -1.1354 -0.4752
37836SOL    HW215516   0.562   2.361   7.559  0.5387  1.0740  0.4730
37837SOL     OW15517   2.152   1.635   6.713  0.2168 -0.5738 -0.6828
37837SOL    HW115518   2.111   1.558   6.753  1.9921 -1.9004 -1.2646
37837SOL    HW215519   2.242   1.634   6.747 -0.0525  2.0777  0.3647
37838SOL     OW15520   0.135   2.719   8.587 -0.2762  0.2158  0.3048
37838SOL    HW115521   0.071   2.715   8.516 -1.8489  0.9102  1.6072
37838SOL    HW215522   0.101   2.787   8.645  0.8159 -0.5099  1.8564
37839SOL     OW15523  10.377   1.176   7.789  0.3795 -0.1798 -0.1318
37839SOL    HW115524  10.464   1.149   7.817  0.5537  0.5503  0.0612
37839SOL    HW215525  10.383   1.271   7.782 -0.0530 -0.2238 -1.3095
37840SOL     OW15526   0.298   9.548   8.371  0.1411 -0.3696  0.1991
37840SOL    HW115527   0.368   9.566   8.308 -0.5755 -2.6955 -1.3790
37840SOL    HW215528   0.340   9.498   8.440  0.3072 -0.6006 -0.0677
37841SOL     OW15529   2.451  10.360   3.762  0.0428 -0.4968 -0.4953
37841SOL    HW115530   2.444  10.452   3.739 -0.4717 -0.8106 -1.6366
37841SOL    HW215531   2.526  10.356   3.822 -0.5637  0.7968  0.3923
37842SOL     OW15532   7.718   1.028   2.049  0.5990  0.0952  0.1236
37842SOL    HW115533   7.812   1.036   2.066  0.1623  1.0093  2.5340
37842SOL    HW215534   7.684   1.117   2.056 -0.5418 -0.3003 -0.0880
37843SOL     OW15535   3.912   6.050   1.536 -0.3118  0.2959 -0.3780
37843SOL    HW115536   3.890   6.077   1.447 -2.9369  1.1852  0.4700
37843SOL    HW215537   3.942   5.960   1.527 -0.3659  0.4253 -2.1752
37844SOL     OW15538   1.945   3.968   1.759 -0.3772  0.0142 -0.0285
37844SOL    HW115539   1.968   4.017   1.839 -1.2876  0.1094  0.1837
37844SOL    HW215540   1.855   3.939   1.774 -1.2793  1.6771 -1.8173
37845SOL     OW15541  10.537   2.109   5.580  0.3595  0.2049  0.2311
37845SOL    HW115542  10.471   2.147   5.639  2.0357  0.8929  1.7348
37845SOL    HW215543  10.561   2.026   5.623 -0.2773 -0.5898 -0.8874
37846SOL     OW15544   2.169   0.909   6.932  0.3255  0.4777 -0.3774
37846SOL    HW115545   2.125   0.833   6.969  0.5061  0.1406 -0.8457
37846SOL    HW215546   2.250   0.874   6.896  2.0500  1.3872  2.3193
37847SOL     OW15547   4.133   3.092   0.702  0.1400  0.2065  0.4518
37847SOL    HW115548   4.210   3.108   0.756  1.0437  1.0024 -0.9929
37847SOL    HW215549   4.136   3.161   0.635 -0.0496 -1.6206 -1.5268
37848SOL     OW15550   1.173   0.253   2.753 -0.9081  0.1487 -0.1152
37848SOL    HW115551   1.217   0.289   2.830 -2.7357  1.7474  0.2390
37848SOL    HW215552   1.091   0.217   2.786 -1.4962  0.4142 -1.2225
37849SOL     OW15553   0.941   9.373   4.717  0.2683  0.4779  0.2197
37849SOL    HW115554   1.033   9.356   4.693  1.3009  2.2852  2.4700
37849SOL    HW215555   0.944   9.386   4.812 -2.2883  0.8732  0.2968
37850SOL     OW15556   9.200   8.542   4.589  0.0080 -0.3456 -0.4656
37850SOL    HW115557   9.198   8.572   4.498  1.8403 -0.0536 -0.4507
37850SOL    HW215558   9.149   8.461   4.590 -1.3167  0.4569 -1.4206
37851SOL     OW15559   4.905   5.644   2.598 -0.3362  0.3835  0.0956
37851SOL    HW115560   4.910   5.586   2.674  0.0514  0.6641  0.2864
37851SOL    HW215561   4.973   5.709   2.613 -0.4616  0.6191 -0.3451
37852SOL     OW15562   7.903   9.317   9.340  0.8072 -0.2160  0.3810
37852SOL    HW115563   7.952   9.356   9.412  0.6275  0.3038  0.2235
37852SOL    HW215564   7.969   9.301   9.272  0.7600  0.4915  0.1653
37853SOL     OW15565  10.906   9.371   0.116 -0.3976  0.2877  0.1235
37853SOL    HW115566  10.870   9.392   0.202  0.6025 -1.1019  0.9091
37853SOL    HW215567  11.000   9.386   0.124 -0.1911 -0.6189 -0.4833
37854SOL     OW15568   3.628   1.037   9.619  0.3048 -0.0711 -0.1699
37854SOL    HW115569   3.658   1.110   9.672 -1.6874  0.5567  0.1714
37854SOL    HW215570   3.624   1.072   9.530 -2.8077  1.0408  0.3026
37855SOL     OW15571  10.558   6.508   0.220  0.4972  0.7396 -0.1768
37855SOL    HW115572  10.647   6.487   0.250  0.4478  0.2550 -0.3683
37855SOL    HW215573  10.501   6.476   0.291  0.3994 -0.1190 -0.6281
37856SOL     OW15574   7.421   3.901  10.665  0.6451 -0.1759  0.0779
37856SOL    HW115575   7.493   3.958  10.637 -0.8888  0.6662 -2.4613
37856SOL    HW215576   7.409   3.840  10.592 -0.3816 -1.1614  1.0332
37857SOL     OW15577   5.225   5.225   6.169  0.3395 -0.0586 -0.5633
37857SOL    HW115578   5.140   5.183   6.158 -0.8440  1.9823  0.4372
37857SOL    HW215579   5.287   5.152   6.169 -1.5668 -1.7911  0.5876
37858SOL     OW15580  10.315   7.721   9.819 -0.1508  0.0719 -0.0475
37858SOL    HW115581  10.286   7.696   9.906  0.8034 -1.8430 -0.2351
37858SOL    HW215582  10.279   7.809   9.806  1.1950  1.2155  2.9897
37859SOL     OW15583   6.891   8.931   9.776 -0.0092 -0.3741 -0.2945
37859SOL    HW115584   6.957   8.892   9.834 -0.2929  0.0926  0.3612
37859SOL    HW215585   6.869   9.014   9.819 -2.3283 -1.3032  0.4752
37860SOL     OW15586   8.826   3.344   9.353 -0.0369  0.7366 -0.0766
37860SOL    HW115587   8.748   3.350   9.408  0.9588 -2.7205  2.0519
37860SOL    HW215588   8.891   3.398   9.398  0.2859 -0.7586  1.3570
37861SOL     OW15589   5.417   2.359   7.883  0.2876  0.4664 -0.3897
37861SOL    HW115590   5.486   2.317   7.934  0.2474  1.0060  0.1219
37861SOL    HW215591   5.446   2.353   7.792 -1.4008 -3.9932 -0.8741
37862SOL     OW15592   4.720   5.681  10.310  0.0844  0.0979 -0.5271
37862SOL    HW115593   4.741   5.718  10.396 -0.4002  1.3924 -0.9402
37862SOL    HW215594   4.627   5.660  10.314 -0.5012  2.2342 -1.4073
37863SOL     OW15595   3.126   8.763   6.977  0.2466 -0.7133  0.1529
37863SOL    HW115596   3.097   8.767   6.886 -1.2900  0.4281  0.6626
37863SOL    HW215597   3.202   8.821   6.980  0.3518 -0.8161 -0.4110
37864SOL     OW15598   0.289   7.967   1.161 -0.2244  0.6065  0.0193
37864SOL    HW115599   0.237   7.995   1.086 -1.4407 -0.9021  0.2314
37864SOL    HW215600   0.365   8.025   1.162 -0.1731  0.6547 -2.3771
37865SOL     OW15601   2.485   8.574   6.159  0.0267  0.0536  0.5304
37865SOL    HW115602   2.396   8.572   6.193  0.4810  0.2629  1.7640
37865SOL    HW215603   2.531   8.505   6.206 -0.4419 -2.9810 -3.0240
37866SOL     OW15604   1.684   8.847   4.520 -0.3535  0.8461 -0.2525
37866SOL    HW115605   1.620   8.911   4.489 -1.6784  0.0943  0.8079
37866SOL    HW215606   1.634   8.788   4.575  1.3364  0.4414  0.9463
37867SOL     OW15607   8.283   0.379  10.854 -0.6248 -0.4961 -0.3910
37867SOL    HW115608   8.257   0.469  10.875 -0.7343 -0.2957 -1.3458
37867SOL    HW215609   8.200   0.330  10.852 -0.5107 -0.7684  0.7510
37868SOL     OW15610   3.089   7.132   4.794 -0.4068  0.0993 -0.3536
37868SOL    HW115611   3.161   7.195   4.800 -1.0690  0.9337 -0.9163
37868SOL    HW215612   3.105   7.070   4.865  1.8281 -0.7548 -1.5096
37869SOL     OW15613  10.024   6.292   9.276 -0.2659 -0.5459  0.1063
37869SOL    HW115614   9.981   6.302   9.361 -0.1776 -0.2898  0.1208
37869SOL    HW215615  10.105   6.342   9.284  0.2638 -1.3962  0.2390
37870SOL     OW15616   1.960   1.187   7.728 -0.2404  0.0185 -0.2558
37870SOL    HW115617   2.031   1.129   7.754  0.9143  1.2036 -0.6928
37870SOL    HW215618   1.943   1.166   7.636  0.0891  0.2900 -0.3775
37871SOL     OW15619   2.641   3.221   6.755  0.4303  0.2547 -0.1586
37871SOL    HW115620   2.713   3.228   6.818  0.1617 -2.2873  0.5529
37871SOL    HW215621   2.684   3.213   6.670  0.8792  1.3904 -0.0518
37872SOL     OW15622   7.956   8.567   1.587 -0.5332  0.2274 -0.5567
37872SOL    HW115623   7.947   8.623   1.665 -1.6080 -0.1472 -0.3996
37872SOL    HW215624   7.886   8.502   1.596  2.6790 -3.3322  0.9995
37873SOL     OW15625   4.463   1.302   6.920 -0.2034  0.2955  0.1995
37873SOL    HW115626   4.412   1.244   6.864 -1.4086  1.0890  0.4397
37873SOL    HW215627   4.511   1.359   6.859  1.1719 -1.0653 -0.0382
37874SOL     OW15628  10.782   3.073   3.613 -0.2204 -0.0944  0.0779
37874SOL    HW115629  10.851   3.056   3.676 -1.7094  0.0573  1.8350
37874SOL    HW215630  10.750   3.161   3.635 -1.7446 -0.6249  0.1150
37875SOL     OW15631   1.265   5.195   8.688  0.3004  0.2895 -0.2089
37875SOL    HW115632   1.236   5.258   8.754  1.7453  1.2383 -0.4336
37875SOL    HW215633   1.261   5.111   8.733  0.5777  0.8343  0.8774
37876SOL     OW15634   7.409   9.338   6.989  0.7687  0.6960  0.1919
37876SOL    HW115635   7.478   9.273   7.002  0.5748  0.0259 -1.7713
37876SOL    HW215636   7.329   9.295   7.019  0.3462 -0.7692 -2.6477
37877SOL     OW15637   2.846   9.496   7.206  0.5128 -0.0859 -0.2361
37877SOL    HW115638   2.941   9.500   7.203  0.7398 -0.7697  2.8459
37877SOL    HW215639   2.817   9.558   7.139  3.1123  1.0297 -0.4493
37878SOL     OW15640   0.581   4.660   3.324 -0.1634  0.3284 -0.3640
37878SOL    HW115641   0.634   4.738   3.307 -0.5688  0.6227 -0.2978
37878SOL    HW215642   0.638   4.603   3.376  0.5744  0.0481 -1.4493
37879SOL     OW15643   5.220  10.760   3.778 -0.0850 -0.3194 -0.6872
37879SOL    HW115644   5.233  10.667   3.760 -0.1834 -1.0359  2.4027
37879SOL    HW215645   5.155  10.763   3.848 -1.1546  2.1975 -1.6319
37880SOL     OW15646   5.948   3.929   8.165 -0.3450 -0.3342 -0.1043
37880SOL    HW115647   6.020   3.967   8.216 -0.6126 -1.6704  1.3526
37880SOL    HW215648   5.915   3.859   8.220 -1.7610 -0.7611 -1.4424
37881SOL     OW15649   7.965   9.630   0.933 -0.0960  0.3862  0.1777
37881SOL    HW115650   7.939   9.557   0.989  0.2161 -0.0495 -0.2370
37881SOL    HW215651   7.896   9.695   0.945  0.6608  0.8888  2.1257
37882SOL     OW15652   8.164  10.445  10.622 -0.5523 -0.1464  0.2791
37882SOL    HW115653   8.185  10.466  10.532 -1.2165  0.6909  0.3048
37882SOL    HW215654   8.090  10.502  10.644 -0.2422 -0.1509  1.4311
37883SOL     OW15655   7.946   3.960   9.827  0.0868  0.2076 -0.4370
37883SOL    HW115656   8.024   3.934   9.778 -0.2565  0.7455 -1.3049
37883SOL    HW215657   7.967   3.942   9.918  1.0879  0.0092 -0.6964
37884SOL     OW15658   9.323   6.368   5.033 -0.2147 -0.1612  0.4074
37884SOL    HW115659   9.405   6.418   5.025  1.0938 -2.2086  0.3363
37884SOL    HW215660   9.259   6.432   5.066  0.9591  1.9203 -1.0835
37885SOL     OW15661   4.703   8.360   2.315 -0.1541 -0.0960 -0.7053
37885SOL    HW115662   4.633   8.308   2.276  0.8681  0.1628 -3.0293
37885SOL    HW215663   4.765   8.296   2.349 -1.1029 -0.3195  0.7411
37886SOL     OW15664   2.974   3.822  10.157  0.2362  0.1285 -0.0071
37886SOL    HW115665   2.901   3.761  10.157  0.3938 -0.0732 -0.8917
37886SOL    HW215666   3.029   3.794  10.084  1.3318  0.1179  0.7875
37887SOL     OW15667   2.658   3.752   1.583  0.3592  0.2651 -0.3944
37887SOL    HW115668   2.665   3.836   1.628 -1.7560  1.2690 -1.8088
37887SOL    HW215669   2.566   3.728   1.590  0.9428 -2.0797  0.1361
37888SOL     OW15670   7.366   5.214   1.211  0.1280  0.4219  0.3145
37888SOL    HW115671   7.303   5.155   1.170  1.2979 -0.7146  0.0433
37888SOL    HW215672   7.410   5.257   1.137 -1.3204  2.3742  0.5173
37889SOL     OW15673  10.979  10.195   0.811 -0.0884 -0.3792  0.4117
37889SOL    HW115674  10.951  10.234   0.895 -1.7475  0.1735 -0.3513
37889SOL    HW215675  11.022  10.267   0.765 -0.8293 -0.1429  0.0642
37890SOL     OW15676   9.049   6.458   9.820  0.1629  0.6343  0.3430
37890SOL    HW115677   8.996   6.509   9.759 -0.9102 -0.6532  0.1473
37890SOL    HW215678   8.987   6.428   9.887  0.4375 -1.4560 -0.2522
37891SOL     OW15679   1.630   0.619   7.299 -0.1576 -0.8750 -0.0699
37891SOL    HW115680   1.670   0.598   7.214 -0.8887 -0.3687 -0.5472
37891SOL    HW215681   1.702   0.610   7.362  1.1128  1.3522 -1.0786
37892SOL     OW15682   8.927   1.699  10.620  0.4615  0.0333 -0.0720
37892SOL    HW115683   8.913   1.604  10.615  0.6061 -0.0035  0.1903
37892SOL    HW215684   8.872   1.727  10.693 -0.0779  0.2522 -0.5600
37893SOL     OW15685   3.263   5.332  10.708  0.2340  0.0327  0.5894
37893SOL    HW115686   3.335   5.391  10.731  0.8298  0.0206 -1.0801
37893SOL    HW215687   3.295   5.245  10.733 -0.4138  0.3134  2.5210
37894SOL     OW15688   2.234   2.782   9.182 -0.5488 -0.1918 -0.5387
37894SOL    HW115689   2.260   2.689   9.188  0.9083  0.1702 -0.7687
37894SOL    HW215690   2.239   2.814   9.272 -1.3574 -0.3994 -0.4121
37895SOL     OW15691   2.103   0.077   5.472 -0.2088  0.1527  0.1314
37895SOL    HW115692   2.103  -0.012   5.437 -2.5061  0.2093 -0.1705
37895SOL    HW215693   2.041   0.124   5.417  0.9549  1.9701  0.2884
37896SOL     OW15694   6.653   9.357   2.999 -0.1909  0.2049  0.4172
37896SOL    HW115695   6.562   9.345   3.026 -1.3159 -0.0321 -3.0092
37896SOL    HW215696   6.670   9.282   2.942  2.2895  0.1238  1.1532
37897SOL     OW15697   7.920   5.563  10.601 -0.2500  0.1917  0.8681
37897SOL    HW115698   8.014   5.569  10.618  0.1441  0.6154 -1.1952
37897SOL    HW215699   7.902   5.469  10.599  0.4051  0.0722  0.0284
37898SOL     OW15700  10.122   7.198   1.219 -0.0833 -0.3168  0.0925
37898SOL    HW115701  10.109   7.112   1.178 -2.5081 -0.5631  1.1407
37898SOL    HW215702  10.118   7.180   1.313  2.9892  0.5302  0.4815
37899SOL     OW15703   1.415   5.011   1.444 -0.2592 -0.7218  0.7221
37899SOL    HW115704   1.482   4.945   1.463  2.5990  1.7455  0.0528
37899SOL    HW215705   1.391   5.046   1.529  0.4167 -0.6231  0.8744
37900SOL     OW15706   5.059   6.975   8.917 -0.2548  0.0499 -0.2656
37900SOL    HW115707   5.125   7.034   8.882 -2.1990  1.4974 -1.7302
37900SOL    HW215708   5.036   6.918   8.844  1.1029 -2.1948  0.9336
37901SOL     OW15709   9.411   9.679   2.016 -0.2737  0.3906 -0.0253
37901SOL    HW115710   9.381   9.767   1.992 -0.4428  0.4233  0.3039
37901SOL    HW215711   9.332   9.634   2.046 -0.0598  0.3573  0.4936
37902SOL     OW15712   4.271   2.837   3.704 -0.5534 -0.3761 -0.3714
37902SOL    HW115713   4.354   2.797   3.730  1.8566  4.2407  0.0837
37902SOL    HW215714   4.278   2.849   3.610 -0.5786  0.1993 -0.3052
37903SOL     OW15715   5.883   9.351   3.716 -0.4225  0.2765 -0.4625
37903SOL    HW115716   5.788   9.357   3.726 -0.6643 -0.6833 -1.9053
37903SOL    HW215717   5.899   9.261   3.688  1.0740 -0.0243  1.1353
37904SOL     OW15718   0.422   8.853   8.656 -0.2965  0.1285 -0.1366
37904SOL    HW115719   0.442   8.762   8.677  0.1587  0.5190  1.1907
37904SOL    HW215720   0.348   8.876   8.712 -0.3489  0.6091 -0.3916
37905SOL     OW15721   8.849   2.153   1.884  0.0029 -0.1391  0.2191
37905SOL    HW115722   8.892   2.087   1.940  0.7797 -0.2655 -0.5050
37905SOL    HW215723   8.860   2.119   1.795  0.3154  0.9127 -0.1540
37906SOL     OW15724   7.756   3.186   1.753  0.4053  0.9175 -0.1854
37906SOL    HW115725   7.752   3.109   1.696 -1.9176  0.1984  0.8297
37906SOL    HW215726   7.734   3.259   1.695 -0.9587  0.3237 -0.4622
37907SOL     OW15727   6.902   7.664   6.855 -0.2553 -0.2136  0.3461
37907SOL    HW115728   6.850   7.733   6.897 -1.4313 -0.1506 -1.1533
37907SOL    HW215729   6.887   7.587   6.910 -0.7733  0.1664  0.7511
37908SOL     OW15730   2.379   6.426   5.878 -0.0124  0.4748  0.0519
37908SOL    HW115731   2.345   6.374   5.950  2.1924 -0.8276  0.2416
37908SOL    HW215732   2.370   6.516   5.907 -0.4829  0.0409  1.3212
37909SOL     OW15733   4.351   9.330   5.377  0.9535 -0.7777  0.6205
37909SOL    HW115734   4.299   9.254   5.353 -0.6350  0.6669 -0.8172
37909SOL    HW215735   4.306   9.368   5.452 -0.3221  0.6028 -0.7643
37910SOL     OW15736   7.613   0.801   5.205 -0.0241  0.4986 -0.2928
37910SOL    HW115737   7.645   0.852   5.280  1.2071  1.6426 -1.5108
37910SOL    HW215738   7.532   0.845   5.179 -0.9129 -0.4158  0.8381
37911SOL     OW15739   8.948   6.490   3.244  0.1576 -0.3630  0.4877
37911SOL    HW115740   8.959   6.404   3.204  0.3761 -0.5947  1.0326
37911SOL    HW215741   9.034   6.532   3.234 -0.8039  1.1437 -2.7965
37912SOL     OW15742   3.168   3.427   0.845  0.0818  0.4669 -0.7420
37912SOL    HW115743   3.083   3.384   0.855  0.2791  0.6333  2.8253
37912SOL    HW215744   3.221   3.363   0.799 -0.7851 -1.5126  0.8483
37913SOL     OW15745   3.343   0.865   9.092  0.3752 -0.0395  0.6261
37913SOL    HW115746   3.269   0.869   9.154 -0.3339 -0.4513 -0.1692
37913SOL    HW215747   3.388   0.784   9.115  0.6441  0.2670  1.1864
37914SOL     OW15748   0.070  10.285  10.718  0.3238  0.8113 -0.0864
37914SOL    HW115749   0.020  10.317  10.793  1.8988  0.1054  1.3191
37914SOL    HW215750   0.154  10.258  10.754  1.4214  1.1250 -2.2309
37915SOL     OW15751   3.885   2.485   4.561 -0.6748  0.1251 -0.5429
37915SOL    HW115752   3.841   2.563   4.528 -0.9366  0.0342 -0.4128
37915SOL    HW215753   3.921   2.443   4.483 -0.7952  0.2168 -0.6483
37916SOL     OW15754   2.128   0.671   5.994  0.2288 -0.6514  0.1729
37916SOL    HW115755   2.092   0.633   5.914  0.3413  0.3252 -0.3554
37916SOL    HW215756   2.179   0.600   6.034  0.3784 -1.0762 -0.7548
37917SOL     OW15757  10.450   6.497   7.807  0.6028 -0.2033 -0.4025
37917SOL    HW115758  10.476   6.570   7.751 -0.2374  1.8036  1.6440
37917SOL    HW215759  10.517   6.493   7.875 -0.0341 -0.4472  0.2331
37918SOL     OW15760   2.039   2.307   2.761  0.1540 -0.6014  0.1847
37918SOL    HW115761   2.034   2.324   2.855 -1.7413  0.1588 -0.0211
37918SOL    HW215762   1.949   2.309   2.731  0.5669 -2.6329 -1.3724
37919SOL     OW15763   6.212   3.974   1.230 -0.7243 -0.4665 -0.2210
37919SOL    HW115764   6.210   3.988   1.136 -0.7354 -0.3764 -0.2074
37919SOL    HW215765   6.279   3.906   1.243  1.3672  1.5283 -0.0381
37920SOL     OW15766   8.268   8.863  10.610  0.1519  0.2873  0.4411
37920SOL    HW115767   8.347   8.856  10.555 -0.9963  0.7313 -1.3371
37920SOL    HW215768   8.203   8.904  10.553 -1.5328 -0.5288  1.7064
37921SOL     OW15769   0.235   0.130   5.118 -0.1879 -0.1269 -0.3894
37921SOL    HW115770   0.145   0.110   5.144 -0.2348  0.9570  0.3434
37921SOL    HW215771   0.265   0.194   5.182  0.5662  0.7300 -1.5564
37922SOL     OW15772   3.626   3.257   5.877  0.1588  0.8199  0.1812
37922SOL    HW115773   3.639   3.346   5.845  0.7399  0.1977 -1.4535
37922SOL    HW215774   3.671   3.202   5.813 -1.0557 -0.7162  0.5756
37923SOL     OW15775   6.846   5.434  10.341  0.3443 -0.0831  0.5018
37923SOL    HW115776   6.838   5.501  10.273  1.3217 -0.2177  0.2421
37923SOL    HW215777   6.923   5.461  10.391 -0.4294  0.0822  1.6402
37924SOL     OW15778   0.557   1.789   2.008 -0.6618 -0.4385  0.1148
37924SOL    HW115779   0.531   1.700   2.034 -2.8869 -0.1079 -0.7645
37924SOL    HW215780   0.551   1.841   2.088 -2.2975 -0.5009  0.0648
37925SOL     OW15781   2.512   4.981   7.129  0.5747 -0.1054  0.2958
37925SOL    HW115782   2.602   5.002   7.153  0.0835 -0.1147  2.2897
37925SOL    HW215783   2.458   5.021   7.197 -0.9468 -0.1425 -0.8255
37926SOL     OW15784   5.521   4.417   0.153  0.2758 -0.0834 -0.3447
37926SOL    HW115785   5.475   4.477   0.094  0.2119 -0.2733 -0.4896
37926SOL    HW215786   5.560   4.352   0.095  0.4706 -0.0964 -0.1981
37927SOL     OW15787   0.859   7.365   9.445 -0.0498 -0.2051 -0.0318
37927SOL    HW115788   0.938   7.326   9.482 -0.8448 -1.1617  0.7101
37927SOL    HW215789   0.805   7.387   9.521  0.0611  1.7395 -0.4514
37928SOL     OW15790   8.531   0.843   4.881 -0.1468  0.0251  0.1483
37928SOL    HW115791   8.544   0.754   4.914  1.3829  0.4571  0.8091
37928SOL    HW215792   8.551   0.837   4.787 -0.1085 -0.3444  0.1797
37929SOL     OW15793   9.810   8.838   2.934  0.4961  0.2161  0.0246
37929SOL    HW115794   9.739   8.806   2.990 -0.0674  1.3263 -0.0236
37929SOL    HW215795   9.797   8.792   2.851 -0.3634  0.6138 -0.0818
37930SOL     OW15796   5.631   2.257   0.655  0.3379 -0.0164  0.1996
37930SOL    HW115797   5.710   2.221   0.615 -0.4553 -0.8472 -0.6843
37930SOL    HW215798   5.622   2.344   0.614  0.3715 -0.2411 -0.3000
37931SOL     OW15799   9.791   4.677   2.767  0.2979 -0.0889 -0.5716
37931SOL    HW115800   9.718   4.721   2.722 -0.7156  0.9417  1.9156
37931SOL    HW215801   9.846   4.645   2.696 -0.8402  1.9996 -2.5448
37932SOL     OW15802   2.151   9.643   5.807  0.7494 -0.0802  0.1701
37932SOL    HW115803   2.205   9.592   5.868  0.9159 -0.1484 -0.0334
37932SOL    HW215804   2.213   9.692   5.754  0.5626  1.4112  1.2702
37933SOL     OW15805  10.402   6.712   5.426  0.1312 -0.3598  0.0687
37933SOL    HW115806  10.476   6.653   5.416 -0.2351 -0.5873 -1.5531
37933SOL    HW215807  10.436   6.783   5.481  1.1080 -1.1651  0.5442
37934SOL     OW15808   8.395   2.193   5.344 -0.0560  0.6248 -0.0779
37934SOL    HW115809   8.336   2.162   5.275 -0.1143 -0.6476  0.5200
37934SOL    HW215810   8.477   2.214   5.298 -0.1282 -0.1145 -0.5612
37935SOL     OW15811   9.612   1.906   2.658 -0.0589 -0.3878 -0.0707
37935SOL    HW115812   9.633   1.938   2.746 -0.8515 -2.5706  0.9961
37935SOL    HW215813   9.662   1.824   2.650 -1.7647 -1.4156 -0.7077
37936SOL     OW15814   2.834   3.571   0.819  0.1622 -0.4416 -0.0750
37936SOL    HW115815   2.908   3.613   0.862  1.7465 -2.4720 -0.6791
37936SOL    HW215816   2.860   3.562   0.728 -2.0161  1.2605 -0.9842
37937SOL     OW15817   3.100   9.191  10.763 -0.1178  0.1793 -0.1267
37937SOL    HW115818   3.186   9.232  10.765  0.2027 -0.5090  0.5924
37937SOL    HW215819   3.063   9.206  10.850 -0.0746 -0.8625  0.0856
37938SOL     OW15820   7.782   5.299   5.017 -0.1323 -0.1500 -0.2129
37938SOL    HW115821   7.703   5.279   5.067  0.6176  0.3057  1.2098
37938SOL    HW215822   7.812   5.214   4.984 -0.3524 -0.5473  0.5851
37939SOL     OW15823   3.923   2.716  10.808 -0.6883 -0.2072 -0.3540
37939SOL    HW115824   4.001   2.681  10.851 -0.6527  0.4472  0.1236
37939SOL    HW215825   3.942   2.809  10.795 -0.6098 -0.4223 -1.9979
37940SOL     OW15826   2.980   2.267   8.728  0.1998  0.7701  0.2761
37940SOL    HW115827   3.073   2.283   8.710  0.2851  0.7157  0.6658
37940SOL    HW215828   2.935   2.341   8.687  0.4038  0.7417 -0.0066
37941SOL     OW15829   2.609   1.314  10.583  0.4271 -0.0332  0.0892
37941SOL    HW115830   2.661   1.335  10.505  0.7827 -0.8456  0.0963
37941SOL    HW215831   2.519   1.338  10.558  0.7933  1.4511  0.1069
37942SOL     OW15832   9.119   2.637   2.988 -0.0969 -0.1865 -0.2392
37942SOL    HW115833   9.162   2.671   3.068 -0.3542 -0.1372 -0.1215
37942SOL    HW215834   9.140   2.544   2.987  0.2682 -0.1059 -0.3429
37943SOL     OW15835   4.029   5.169  10.760 -0.3367  0.1913 -0.5951
37943SOL    HW115836   4.000   5.078  10.763  0.3783 -0.0309 -0.0199
37943SOL    HW215837   4.120   5.165  10.730  0.2803  0.5357  1.0715
37944SOL     OW15838   8.582   7.739   7.280 -1.1349  0.5511 -0.3379
37944SOL    HW115839   8.651   7.720   7.216 -0.2596  0.5069  0.5910
37944SOL    HW215840   8.512   7.778   7.228  0.0908  1.8006 -1.1270
37945SOL     OW15841   0.656   6.199   3.618 -0.0693 -0.2118  0.0761
37945SOL    HW115842   0.566   6.225   3.599  0.5814  2.2565  0.0940
37945SOL    HW215843   0.700   6.200   3.532  0.0066 -1.2440  0.0875
37946SOL     OW15844  10.519   8.973   0.886  0.2528  0.1995 -0.6880
37946SOL    HW115845  10.468   9.041   0.841 -0.2221 -0.3745 -1.0334
37946SOL    HW215846  10.482   8.970   0.974  1.4050  1.5585 -0.1237
37947SOL     OW15847   9.657   4.046   2.306 -0.5544  0.0719 -0.5881
37947SOL    HW115848   9.674   4.093   2.225 -0.2245  1.2447  0.1433
37947SOL    HW215849   9.743   4.023   2.339 -0.6457  0.4296 -0.0942
37948SOL     OW15850   8.827   0.535   1.635 -0.5395 -0.0634 -0.8570
37948SOL    HW115851   8.834   0.570   1.546 -1.6625 -0.9095 -1.3003
37948SOL    HW215852   8.868   0.449   1.630 -1.4054 -0.4957 -0.8068
37949SOL     OW15853   9.072   8.842   9.958  0.1245  0.1693 -0.3355
37949SOL    HW115854   9.138   8.894   9.912  1.3419  1.6868  2.9034
37949SOL    HW215855   9.014   8.811   9.888  2.7915  0.8334 -3.0540
37950SOL     OW15856   5.738   2.999   3.826  0.2665 -0.2337  0.2163
37950SOL    HW115857   5.647   3.011   3.852 -0.0036 -1.9105  0.1425
37950SOL    HW215858   5.781   3.081   3.849 -1.1263  0.3448  0.8316
37951SOL     OW15859   4.643   5.360   1.514  0.2495 -0.1143  0.2820
37951SOL    HW115860   4.571   5.393   1.460 -0.5897  0.7138  1.8361
37951SOL    HW215861   4.720   5.362   1.456 -0.9332 -0.9940 -1.4144
37952SOL     OW15862   1.936   3.141   2.367  0.1843  0.1792  0.5295
37952SOL    HW115863   1.948   3.141   2.462  0.7436  2.1555  0.5135
37952SOL    HW215864   1.895   3.057   2.348  1.0965 -0.7475  2.3755
37953SOL     OW15865   3.023   7.005   0.124  0.1501 -0.1134  0.2131
37953SOL    HW115866   3.035   7.035   0.214  0.7700 -0.7902  0.3637
37953SOL    HW215867   3.020   7.085   0.072  1.2975  0.2395  0.6639
37954SOL     OW15868   5.534   7.548   5.030 -1.0835 -0.1330  0.2290
37954SOL    HW115869   5.538   7.549   5.126 -0.6376  0.1907  0.2098
37954SOL    HW215870   5.465   7.610   5.008 -0.6550  0.3819  0.3197
37955SOL     OW15871   3.835  10.930   8.196 -0.3456  0.0760  0.1049
37955SOL    HW115872   3.775  10.970   8.133 -2.0561 -0.2601  1.4285
37955SOL    HW215873   3.814  10.972   8.279 -0.9224 -2.1703  1.1881
37956SOL     OW15874   8.206   7.211   8.863  0.1532 -0.0871  0.8464
37956SOL    HW115875   8.268   7.240   8.796 -0.3392 -0.7794  0.0727
37956SOL    HW215876   8.134   7.275   8.858  1.4022  1.5975  2.7539
37957SOL     OW15877   0.385   1.348   8.546  0.0287  0.1132  0.4104
37957SOL    HW115878   0.380   1.435   8.506  0.3403  0.2507  0.6722
37957SOL    HW215879   0.303   1.339   8.594  0.5603  0.8095  1.4946
37958SOL     OW15880   6.581   6.147   8.116  0.0261 -0.0936  0.2370
37958SOL    HW115881   6.566   6.227   8.066  1.8090  0.3400  0.3320
37958SOL    HW215882   6.498   6.132   8.163 -0.8087  0.8882 -0.8678
37959SOL     OW15883   5.189  10.753   9.323 -0.3818 -0.1062 -0.6912
37959SOL    HW115884   5.215  10.704   9.401 -1.1485  2.9648  1.6295
37959SOL    HW215885   5.097  10.730   9.310 -0.0461 -1.2405 -1.2775
37960SOL     OW15886   1.495   2.942   3.725  0.2882 -0.1985 -0.2730
37960SOL    HW115887   1.403   2.954   3.749  0.2892 -0.0561 -0.3432
37960SOL    HW215888   1.526   2.872   3.783 -0.8892 -3.0458 -2.7649
37961SOL     OW15889   7.259  10.218   5.576  0.4211 -0.1028  0.0634
37961SOL    HW115890   7.317  10.144   5.558  0.3038  0.0196 -0.8201
37961SOL    HW215891   7.170  10.183   5.564  0.3836  0.3635 -1.0704
37962SOL     OW15892   6.651   0.610   2.630  0.2139  0.2103  0.4601
37962SOL    HW115893   6.642   0.627   2.724  1.9824 -2.5578  1.2489
37962SOL    HW215894   6.596   0.533   2.614  1.5803 -0.6522 -0.2640
37963SOL     OW15895   8.048   6.400   2.745 -0.3722  0.2823 -0.7201
37963SOL    HW115896   8.070   6.479   2.794  0.7088  0.6437 -1.7557
37963SOL    HW215897   7.991   6.431   2.674 -1.2625 -0.1222 -0.2067
37964SOL     OW15898  10.453   1.406   3.349 -0.7940  0.0660 -0.1953
37964SOL    HW115899  10.414   1.446   3.428 -2.1867 -0.8121 -0.3931
37964SOL    HW215900  10.441   1.473   3.281 -0.8820  0.2723  0.0178
37965SOL     OW15901   7.210   2.620   4.225  0.1093  0.3738  0.2254
37965SOL    HW115902   7.249   2.548   4.275  0.3701 -0.0108 -0.5096
37965SOL    HW215903   7.216   2.591   4.133 -1.2442  0.6341  0.0395
37966SOL     OW15904  10.444   5.153   4.555 -0.3643  0.1447 -0.2248
37966SOL    HW115905  10.396   5.196   4.485  0.5810  0.0448 -0.9497
37966SOL    HW215906  10.469   5.068   4.519  0.6209  0.3200  0.0243
37967SOL     OW15907   5.356   6.768   5.872 -0.3657 -0.2825 -0.2736
37967SOL    HW115908   5.339   6.747   5.780  1.0508  0.0577 -0.6470
37967SOL    HW215909   5.335   6.861   5.879 -1.1391 -0.4682 -0.0701
37968SOL     OW15910   0.303   3.279   1.128  0.2662 -0.5060  0.1790
37968SOL    HW115911   0.273   3.202   1.176  1.3748 -0.9264  0.2314
37968SOL    HW215912   0.350   3.331   1.193 -1.1063  0.6110  0.3240
37969SOL     OW15913  10.699   6.367   3.614  0.2664 -0.2782  0.3548
37969SOL    HW115914  10.671   6.456   3.632 -1.9075 -1.3077  2.7493
37969SOL    HW215915  10.667   6.349   3.526 -0.9457  0.6990  0.5749
37970SOL     OW15916   6.548   5.432   3.007  0.2412 -0.2505 -0.6853
37970SOL    HW115917   6.542   5.456   2.914  0.7261 -1.9423 -1.1692
37970SOL    HW215918   6.457   5.432   3.036  0.1612  1.4112 -0.8377
37971SOL     OW15919   0.290   3.777   0.772 -0.7736  0.0023 -0.1424
37971SOL    HW115920   0.375   3.735   0.786  0.3395  1.8562 -0.9679
37971SOL    HW215921   0.234   3.741   0.841  0.5145 -1.6458  0.1059
37972SOL     OW15922   2.662   7.146   4.643  0.1407  0.0990 -0.4804
37972SOL    HW115923   2.613   7.128   4.724  1.1055  1.7611  0.5298
37972SOL    HW215924   2.596   7.140   4.574 -0.8424 -0.7431  0.4923
37973SOL     OW15925   2.064   2.559   0.130 -0.7918  0.2289 -0.3202
37973SOL    HW115926   2.155   2.533   0.143 -0.4001  1.6994  0.0412
37973SOL    HW215927   2.021   2.541   0.213 -0.1883  1.9864  0.4200
37974SOL     OW15928   5.425   8.067   8.474 -0.1972 -0.6161  0.4762
37974SOL    HW115929   5.517   8.083   8.453 -0.1821  0.0777  1.0114
37974SOL    HW215930   5.412   7.973   8.459  0.4743 -0.6291 -0.0504
37975SOL     OW15931  10.162   7.511   0.525  0.5832 -0.0525 -0.3730
37975SOL    HW115932  10.104   7.514   0.601  0.0821  0.3208 -0.7662
37975SOL    HW215933  10.139   7.429   0.480 -0.0069  0.3512 -0.8132
37976SOL     OW15934   7.305   4.160   5.643  0.0516  0.0461  0.1185
37976SOL    HW115935   7.347   4.246   5.636 -1.9995  1.1081  0.1311
37976SOL    HW215936   7.346   4.108   5.574  1.9281  0.7483  0.6516
37977SOL     OW15937   6.210   7.627   6.603 -0.0758 -0.7115  0.4132
37977SOL    HW115938   6.290   7.584   6.633 -0.4110 -1.4567  0.2606
37977SOL    HW215939   6.195   7.697   6.667  2.5687  1.7477 -1.4070
37978SOL     OW15940   6.455   0.424   6.168  0.0150 -0.0032 -0.1764
37978SOL    HW115941   6.399   0.496   6.199 -0.8179 -1.7869  2.8376
37978SOL    HW215942   6.539   0.438   6.212 -0.3563 -1.1701  0.9526
37979SOL     OW15943   4.984   9.419   5.814 -0.2263 -0.1642 -0.0436
37979SOL    HW115944   4.974   9.332   5.775  0.2462 -0.6260  0.8237
37979SOL    HW215945   5.030   9.402   5.897  0.0198  0.9326  0.0503
37980SOL     OW15946   0.198   7.689   1.527  0.0037  0.3825  0.0319
37980SOL    HW115947   0.152   7.773   1.538  1.0880  0.8977  0.8222
37980SOL    HW215948   0.257   7.685   1.602 -0.1180 -1.1644  0.0666
37981SOL     OW15949   5.277   9.535   5.468 -0.0593  0.0358  0.3347
37981SOL    HW115950   5.288   9.541   5.562 -0.5879 -0.7159  0.4568
37981SOL    HW215951   5.219   9.607   5.445  0.0766  0.2236  0.5825
37982SOL     OW15952   2.456   7.192   5.621 -0.2146  0.1542 -0.3745
37982SOL    HW115953   2.474   7.100   5.639  0.2687  0.1049 -1.0629
37982SOL    HW215954   2.370   7.208   5.660 -0.4688 -0.6834 -0.5683
37983SOL     OW15955  10.070   2.931   5.368  0.1767  0.3479 -0.2497
37983SOL    HW115956  10.114   2.966   5.291  0.7757 -0.2740 -0.1964
37983SOL    HW215957   9.997   2.991   5.383 -0.7121 -0.2123 -2.0511
37984SOL     OW15958   1.937   6.909   1.274 -0.2703 -0.5756  0.2235
37984SOL    HW115959   2.016   6.938   1.229  0.1759 -0.7253  0.9056
37984SOL    HW215960   1.894   6.991   1.300  0.2761 -0.4997  0.9117
37985SOL     OW15961   3.129  10.928   4.287 -0.7249 -0.3178 -0.4016
37985SOL    HW115962   3.045  10.962   4.258 -0.6481 -1.1090 -1.6194
37985SOL    HW215963   3.193  10.991   4.256 -0.9202  1.1523  1.9173
37986SOL     OW15964   5.719   1.061  10.440  0.1329  0.0003  0.2353
37986SOL    HW115965   5.668   1.040  10.519  1.1445 -0.9752  0.6529
37986SOL    HW215966   5.681   1.005  10.372  0.9332 -1.1237  0.6692
37987SOL     OW15967  10.145   6.452  10.767  0.0776 -0.3999 -0.0439
37987SOL    HW115968  10.238   6.441  10.789  0.2946  1.7509  0.3554
37987SOL    HW215969  10.144   6.526  10.706 -1.4425  0.2071  0.6723
37988SOL     OW15970   8.177   2.413   8.117  0.3880  0.2545  0.4391
37988SOL    HW115971   8.266   2.438   8.141  0.5728 -0.8013  0.9001
37988SOL    HW215972   8.126   2.426   8.197  0.4664 -0.7084  0.6541
37989SOL     OW15973   5.805   0.075   4.240 -0.0566 -0.1141  0.3475
37989SOL    HW115974   5.842   0.136   4.304  1.4881  0.3508 -0.9422
37989SOL    HW215975   5.781  -0.002   4.292  0.7913  0.4027  1.5517
37990SOL     OW15976   9.082   7.698   4.210 -0.1080  0.5533 -0.2713
37990SOL    HW115977   9.105   7.687   4.118 -0.3954 -2.0559 -0.1206
37990SOL    HW215978   8.989   7.677   4.214  0.3622 -1.6850  0.8568
37991SOL     OW15979  10.503   7.037   8.739  0.2713 -0.0530  0.5768
37991SOL    HW115980  10.477   7.025   8.830  0.5441 -0.0243  0.6599
37991SOL    HW215981  10.579   7.094   8.743  0.7749 -0.7022  0.3922
37992SOL     OW15982   8.832   1.991   0.803  0.0568 -1.0111  0.0057
37992SOL    HW115983   8.753   2.024   0.762 -0.1569 -1.5029  0.0153
37992SOL    HW215984   8.879   2.069   0.831 -0.7952 -0.7374  0.6994
37993SOL     OW15985   4.670   0.481   8.650  0.3843  0.4995  0.2292
37993SOL    HW115986   4.688   0.574   8.663  1.0714  0.5619 -1.0297
37993SOL    HW215987   4.756   0.442   8.631  0.1001 -0.3866  0.7120
37994SOL     OW15988   2.816   7.697  11.022 -0.1236  0.3395 -0.0182
37994SOL    HW115989   2.878   7.769  11.028 -0.7382  0.8902 -0.0662
37994SOL    HW215990   2.776   7.692  11.109  1.8955 -1.8174  0.8861
37995SOL     OW15991   1.402   5.210   2.568  0.6561 -0.4090 -0.0202
37995SOL    HW115992   1.434   5.231   2.656  1.4731 -1.7140  0.0184
37995SOL    HW215993   1.446   5.273   2.510  2.8519 -1.7472  0.1141
37996SOL     OW15994   9.165   3.609  10.080 -0.3698 -0.1120 -0.5206
37996SOL    HW115995   9.090   3.660  10.110 -2.3136 -2.6922 -0.6917
37996SOL    HW215996   9.209   3.580  10.160  0.7829  1.7074 -0.4201
37997SOL     OW15997   1.219   3.142   5.754  0.4279  0.4069  0.0718
37997SOL    HW115998   1.145   3.193   5.788  0.2596  1.0754 -1.2273
37997SOL    HW215999   1.243   3.186   5.673  2.9403  0.8487  0.9458
37998SOL     OW16000   4.841   0.039   4.773 -0.1179 -0.3552  0.0617
37998SOL    HW116001   4.766   0.097   4.784 -0.6355 -0.9225 -0.3677
37998SOL    HW216002   4.884   0.071   4.694 -0.5599 -0.7085 -0.3311
37999SOL     OW16003   6.514   0.256   7.831  0.6139 -0.2730 -0.1013
37999SOL    HW116004   6.475   0.325   7.884 -1.5796 -0.6140 -1.1528
37999SOL    HW216005   6.601   0.291   7.807  0.2291  1.3856  0.7382
38000SOL     OW16006  10.710   3.791   5.194  0.4168 -0.5111 -0.4983
38000SOL    HW116007  10.673   3.807   5.107  0.9545 -0.4286 -0.7176
38000SOL    HW216008  10.760   3.709   5.183  1.0735 -0.1237 -0.4596
38001SOL     OW16009   4.711   8.081   6.397 -0.4814  0.8245 -0.6378
38001SOL    HW116010   4.671   8.164   6.421 -2.0867 -0.2811  0.8255
38001SOL    HW216011   4.736   8.041   6.481  2.5814  0.8481 -1.4131
38002SOL     OW16012   6.456  10.353   2.208  0.0299  0.0073 -0.2695
38002SOL    HW116013   6.486  10.267   2.176 -0.1929 -0.7598  1.4867
38002SOL    HW216014   6.383  10.375   2.150  2.2956  0.7935 -3.0830
38003SOL     OW16015   4.044   6.025   9.826  0.7686 -0.1692  0.3105
38003SOL    HW116016   4.025   6.089   9.895  1.5304  1.2142 -0.7130
38003SOL    HW216017   4.068   5.945   9.873 -1.6979 -0.2084  1.6189
38004SOL     OW16018   4.872   4.918   5.675  0.7352 -0.2492 -0.1170
38004SOL    HW116019   4.882   4.852   5.743  0.3161 -1.0243 -0.7900
38004SOL    HW216020   4.878   4.869   5.593  0.8982  0.6200 -0.6374
38005SOL     OW16021   6.931   9.689   6.574  0.4163  0.1031  0.4375
38005SOL    HW116022   6.872   9.745   6.522  1.6635  1.3617  0.3027
38005SOL    HW216023   6.873   9.638   6.630 -0.8863 -0.0040 -0.9349
38006SOL     OW16024   8.483   9.236   8.097  0.0371  0.4962  0.0660
38006SOL    HW116025   8.405   9.291   8.106  0.2401  1.1679 -1.7817
38006SOL    HW216026   8.487   9.215   8.004  0.6349 -1.7296  0.5292
38007SOL     OW16027   3.387   2.249   6.414 -0.1470  0.1475 -0.2184
38007SOL    HW116028   3.441   2.316   6.371 -0.6990  0.7941  0.0861
38007SOL    HW216029   3.449   2.180   6.437  0.4837  0.6920 -0.2561
38008SOL     OW16030   6.792   2.331   5.234  0.5804  0.2267  0.2196
38008SOL    HW116031   6.735   2.281   5.176  0.4153  1.3630 -0.6330
38008SOL    HW216032   6.881   2.314   5.203  0.5500  0.1677  0.1658
38009SOL     OW16033   9.082   0.755   3.680  0.3966  0.0216 -0.4641
38009SOL    HW116034   9.171   0.750   3.713  0.3002  0.5423 -0.1176
38009SOL    HW216035   9.034   0.805   3.746  0.1853  1.0218 -1.3457
38010SOL     OW16036   4.464   0.548  10.675  0.0047 -0.5929 -0.0739
38010SOL    HW116037   4.495   0.637  10.655  1.4408 -0.6735  1.5615
38010SOL    HW216038   4.381   0.562  10.721  0.4000 -0.0715  0.4941
38011SOL     OW16039   7.344   4.803   2.897 -0.0385 -0.5067 -0.1964
38011SOL    HW116040   7.277   4.810   2.964  1.2409 -0.8861  1.1746
38011SOL    HW216041   7.306   4.743   2.831 -1.1933 -0.3631  0.3174
38012SOL     OW16042   9.716   6.734   9.671 -0.2269  0.0730  0.3634
38012SOL    HW116043   9.797   6.772   9.638  0.7299 -0.3199  2.0920
38012SOL    HW216044   9.655   6.807   9.676  0.6126  0.7647  0.7639
38013SOL     OW16045   0.621   2.342   6.680 -0.1947 -0.8003 -0.0282
38013SOL    HW116046   0.661   2.265   6.640  0.4366 -0.6291  0.2667
38013SOL    HW216047   0.575   2.385   6.607 -2.1981 -2.4649  0.1643
38014SOL     OW16048  10.895   3.949   8.544  0.8749 -0.1079  0.5386
38014SOL    HW116049  10.825   3.885   8.558  1.3178 -0.5852  0.6097
38014SOL    HW216050  10.913   3.984   8.632  0.9865 -0.2648  0.5785
38015SOL     OW16051   7.254   9.950  10.767  0.1997 -0.4199 -0.5368
38015SOL    HW116052   7.257   9.893  10.845  0.6361  1.7565  1.1274
38015SOL    HW216053   7.345   9.972  10.749  0.0703 -0.5865 -1.4553
38016SOL     OW16054   6.242   5.681  10.023 -0.0505  0.1489  0.0196
38016SOL    HW116055   6.266   5.593   9.995  0.9465  0.1409  0.8325
38016SOL    HW216056   6.278   5.690  10.111 -0.6172  1.1772  0.1737
38017SOL     OW16057   8.512   6.463   6.031  0.1379  0.6957  0.1755
38017SOL    HW116058   8.416   6.461   6.034  0.1016  0.6674 -0.7082
38017SOL    HW216059   8.535   6.539   6.085 -0.4874  1.8235 -1.0556
38018SOL     OW16060  10.904   0.583   0.742  0.4456  0.2884  0.7102
38018SOL    HW116061  10.839   0.642   0.703  2.0294  0.7455 -1.4074
38018SOL    HW216062  10.856   0.502   0.760 -0.9616  1.0138  0.3295
38019SOL     OW16063   1.525   5.741   3.373  0.1267  0.9372 -0.4014
38019SOL    HW116064   1.490   5.826   3.402 -0.7007 -0.0242  1.5987
38019SOL    HW216065   1.508   5.682   3.446 -0.7973 -1.3811 -2.3742
38020SOL     OW16066   0.301   5.333   9.111  0.4454 -0.7257  0.7407
38020SOL    HW116067   0.395   5.353   9.108  0.6251 -1.2473  2.0239
38020SOL    HW216068   0.273   5.334   9.020  1.4218  0.7146  0.4219
38021SOL     OW16069   1.905   2.006   8.243  0.4495  0.1068 -0.2593
38021SOL    HW116070   1.837   2.050   8.294  1.2079  1.0441 -0.0427
38021SOL    HW216071   1.914   2.059   8.164 -0.7469 -1.3549 -1.4466
38022SOL     OW16072   3.404   2.542   4.440  0.3079 -0.0261  0.7711
38022SOL    HW116073   3.353   2.571   4.365  0.9710 -0.6022  0.0715
38022SOL    HW216074   3.436   2.622   4.481  0.5037  0.2826  0.0258
38023SOL     OW16075   5.928   2.453   0.433  0.5064  0.2511 -0.7901
38023SOL    HW116076   5.884   2.385   0.484  0.2107  1.1415  0.2029
38023SOL    HW216077   5.901   2.437   0.343 -0.0134 -0.6001 -0.4978
38024SOL     OW16078   7.381  10.954   5.645  0.0868  0.3333 -0.1133
38024SOL    HW116079   7.448  10.905   5.597 -0.2317 -0.4603  0.2368
38024SOL    HW216080   7.373  10.907   5.728  0.8321  1.8286  0.8589
38025SOL     OW16081   3.686  10.187   5.524 -0.1240 -0.3112  0.0041
38025SOL    HW116082   3.746  10.226   5.588 -1.5130 -0.0379  1.1879
38025SOL    HW216083   3.720  10.099   5.510  2.3446  0.7997 -1.7643
38026SOL     OW16084   2.494   1.659  10.240  0.2450  0.1784 -0.3338
38026SOL    HW116085   2.448   1.682  10.159 -0.0487 -1.3464 -0.6254
38026SOL    HW216086   2.536   1.741  10.268  0.8166  0.6109 -2.3175
38027SOL     OW16087   6.537   8.728   1.462  0.8763  0.3069 -0.4265
38027SOL    HW116088   6.461   8.686   1.503  0.6347  1.1064 -0.0465
38027SOL    HW216089   6.574   8.783   1.530  1.8016 -0.0634 -0.6138
38028SOL     OW16090   3.565   3.487   2.825 -0.1991 -0.0983  0.4428
38028SOL    HW116091   3.470   3.485   2.814 -0.4077  1.1101  1.8084
38028SOL    HW216092   3.598   3.439   2.749 -1.8831 -0.4118 -0.1445
38029SOL     OW16093   6.914   9.645   7.940  0.3814  0.1880 -0.1930
38029SOL    HW116094   6.888   9.695   8.018 -1.0572  0.7433 -0.9826
38029SOL    HW216095   6.958   9.710   7.884  0.7323 -0.0334 -0.1814
38030SOL     OW16096   1.565   6.446   3.694 -0.0323 -0.2319 -0.2290
38030SOL    HW116097   1.618   6.501   3.752 -1.2059 -0.9678  1.6134
38030SOL    HW216098   1.517   6.509   3.639  1.5592  0.4663 -0.8964
38031SOL     OW16099   0.419  10.432   3.112 -0.6860  0.0032  0.0342
38031SOL    HW116100   0.403  10.404   3.203  0.5909 -0.5331  0.1211
38031SOL    HW216101   0.506  10.396   3.091 -1.3367 -0.6463 -1.7095
38032SOL     OW16102   6.948   7.668   1.759  0.1414 -0.1524 -0.4768
38032SOL    HW116103   7.035   7.679   1.798 -0.6727  1.3694  1.0384
38032SOL    HW216104   6.930   7.752   1.717 -0.8020 -0.2699 -0.3188
38033SOL     OW16105   3.820   7.913   8.373 -0.4009  0.2726 -0.0468
38033SOL    HW116106   3.869   7.843   8.417 -1.1805 -0.0220  0.3713
38033SOL    HW216107   3.729   7.896   8.396 -0.5524  1.8065  0.5935
38034SOL     OW16108   5.221   4.793   2.191  0.4483  0.0341  0.6163
38034SOL    HW116109   5.229   4.875   2.143 -1.6346 -0.3389 -0.4377
38034SOL    HW216110   5.180   4.732   2.130 -0.6619 -0.9794  2.2900
38035SOL     OW16111   4.659   7.332   9.623  0.1124 -0.3796  0.0441
38035SOL    HW116112   4.575   7.305   9.659  0.5993 -2.5666 -0.2929
38035SOL    HW216113   4.718   7.259   9.644  1.6633  0.6332 -0.6326
38036SOL     OW16114   7.213  10.849   8.225  0.6048  0.8765  0.8564
38036SOL    HW116115   7.270  10.924   8.207  1.1216  0.2402 -0.2038
38036SOL    HW216116   7.250  10.777   8.174  0.5470 -0.3223  2.4329
38037SOL     OW16117   5.058   4.981   2.312  0.0418  0.2052  0.0189
38037SOL    HW116118   5.134   4.923   2.311 -0.2769 -0.2044 -1.0843
38037SOL    HW216119   4.982   4.923   2.307 -0.2838  0.6908 -0.9943
38038SOL     OW16120  11.027   8.197   6.120  0.1788 -0.2118  0.0587
38038SOL    HW116121  11.067   8.282   6.142  0.0676 -0.2751  0.5103
38038SOL    HW216122  11.044   8.142   6.197  1.0081 -0.8746 -0.5787
38039SOL     OW16123   0.427   6.605   5.680  0.2560 -0.6366  0.3901
38039SOL    HW116124   0.408   6.548   5.605 -0.6477 -1.8560  1.4974
38039SOL    HW216125   0.342   6.617   5.723  1.1312 -2.2953  2.7843
38040SOL     OW16126   5.240   6.496   1.295 -0.2961  0.0128  0.3960
38040SOL    HW116127   5.183   6.511   1.220  0.4868 -2.5766 -0.8520
38040SOL    HW216128   5.251   6.401   1.298  3.0902  0.2927  1.1626
38041SOL     OW16129   8.767   0.213   9.733 -0.8379  0.1413 -0.1387
38041SOL    HW116130   8.853   0.181   9.762 -0.4117  0.6102 -0.8620
38041SOL    HW216131   8.787   0.290   9.681 -1.8241  1.3206  1.1582
38042SOL     OW16132   0.388   1.034   2.696 -0.1311  0.0780  0.3440
38042SOL    HW116133   0.384   1.122   2.733 -0.5307  0.7114 -1.1449
38042SOL    HW216134   0.394   0.976   2.772 -1.7910  1.2702  1.4512
38043SOL     OW16135  10.155   8.346   9.731  0.1091  0.6083 -0.0861
38043SOL    HW116136  10.162   8.424   9.786  0.5874  1.3459 -1.1526
38043SOL    HW216137  10.237   8.300   9.745 -0.1078  0.3742  0.4263
38044SOL     OW16138   6.306   6.275   2.396 -0.2010 -0.0369  0.4250
38044SOL    HW116139   6.284   6.217   2.323 -1.0071  2.2404 -1.2648
38044SOL    HW216140   6.401   6.270   2.403 -0.1297 -0.4385 -0.6630
38045SOL     OW16141   8.763   7.675   3.745  0.4812  0.1701 -0.4026
38045SOL    HW116142   8.703   7.628   3.686  0.6339  0.4658 -0.8014
38045SOL    HW216143   8.846   7.677   3.698  0.6810  0.1639 -0.0515
38046SOL     OW16144   1.131   5.141   5.006  0.4294 -0.5540 -0.2615
38046SOL    HW116145   1.150   5.187   4.925  0.0958 -0.7396 -0.4460
38046SOL    HW216146   1.191   5.066   5.007  1.2268  0.0732  0.2128
38047SOL     OW16147   5.519   0.498   5.313  0.4250 -0.2409  0.0086
38047SOL    HW116148   5.437   0.450   5.303 -0.3749  0.6506  1.7860
38047SOL    HW216149   5.544   0.484   5.404  1.4400  0.7271 -0.1007
38048SOL     OW16150  10.515   1.400   2.697 -0.0112  0.3875  0.0478
38048SOL    HW116151  10.503   1.424   2.605  1.5014 -1.9121 -0.8411
38048SOL    HW216152  10.428   1.373   2.727 -0.5565  1.3610 -0.6179
38049SOL     OW16153   3.755   6.647   1.714 -0.0531 -0.9233  0.4962
38049SOL    HW116154   3.754   6.652   1.809  0.0119  0.9769  0.4356
38049SOL    HW216155   3.820   6.712   1.687 -0.7655 -0.7334 -0.8540
38050SOL     OW16156   2.356   3.577   3.285 -0.6269 -0.3059  0.0850
38050SOL    HW116157   2.416   3.601   3.356 -0.8314 -2.8932  1.2605
38050SOL    HW216158   2.388   3.492   3.255 -2.0523 -0.4247 -1.2199
38051SOL     OW16159   3.257   4.498   0.219 -0.6356  0.2013 -0.1153
38051SOL    HW116160   3.250   4.413   0.175  1.7457  0.0553 -0.3504
38051SOL    HW216161   3.177   4.544   0.196 -1.0763 -1.2354 -1.6314
38052SOL     OW16162   8.823  10.261   3.834  0.3094 -0.9577 -0.5382
38052SOL    HW116163   8.910  10.298   3.850  0.2867 -1.0406 -0.2168
38052SOL    HW216164   8.834  10.167   3.846  0.4392 -1.1041 -1.6862
38053SOL     OW16165   4.843   7.706   7.803 -0.0131  0.3938 -0.5394
38053SOL    HW116166   4.848   7.645   7.876  0.5768 -0.1895 -1.0547
38053SOL    HW216167   4.877   7.789   7.838  2.3636 -0.4324 -0.7165
38054SOL     OW16168   0.568   0.672   0.472  0.3123 -0.5603  0.2893
38054SOL    HW116169   0.481   0.644   0.499  0.1590 -0.7887 -0.4253
38054SOL    HW216170   0.554   0.755   0.427  0.6810  0.3378  1.7407
38055SOL     OW16171  11.038   8.699   0.552  0.7209  0.0887  0.4970
38055SOL    HW116172  11.057   8.775   0.498  1.4533 -1.3792 -1.4190
38055SOL    HW216173  10.968   8.653   0.506 -0.4861  0.1305  2.2009
38056SOL     OW16174   4.183   9.116   4.407  0.2189  0.0401 -0.1265
38056SOL    HW116175   4.269   9.142   4.375  0.0556 -3.0491 -3.7850
38056SOL    HW216176   4.121   9.156   4.346 -0.7378 -0.1173  0.7127
38057SOL     OW16177   1.942   0.062   3.355  0.0000  0.1967  0.6316
38057SOL    HW116178   2.008   0.068   3.423  1.5958 -1.7451 -0.6195
38057SOL    HW216179   1.869   0.016   3.396  1.3261 -1.8271  0.8493
38058SOL     OW16180   0.929   2.430   9.960 -0.0298  0.1772 -0.2151
38058SOL    HW116181   0.960   2.349  10.001 -0.8549 -0.2101 -0.3357
38058SOL    HW216182   0.964   2.500  10.014 -0.6754 -0.3093  0.8596
38059SOL     OW16183   8.159   1.748   8.300  0.2855 -0.2263  0.5396
38059SOL    HW116184   8.147   1.838   8.330 -1.9948  0.3242 -1.7275
38059SOL    HW216185   8.253   1.732   8.309  1.0710  3.0203 -0.6207
38060SOL     OW16186   0.569   1.554   6.587 -0.3825  0.2024  0.2291
38060SOL    HW116187   0.473   1.555   6.579 -0.5503 -0.9589  1.6645
38060SOL    HW216188   0.592   1.462   6.593  0.9027  0.4447 -0.5857
38061SOL     OW16189   0.883  10.402   5.231 -0.3942 -0.4357 -0.5619
38061SOL    HW116190   0.843  10.424   5.315 -3.0504  1.3573 -2.1562
38061SOL    HW216191   0.958  10.460   5.224 -2.4461  2.3357 -1.0400
38062SOL     OW16192   8.685   5.600   6.444 -0.0082 -0.5033  0.3410
38062SOL    HW116193   8.673   5.669   6.509  1.5920 -1.0024  1.2048
38062SOL    HW216194   8.647   5.522   6.484  1.1665 -0.8589  0.7823
38063SOL     OW16195   1.813   3.685   0.849  0.4641  0.4386  0.0544
38063SOL    HW116196   1.722   3.698   0.824  0.1847  2.5391  1.7969
38063SOL    HW216197   1.824   3.590   0.852 -1.5365  0.1412 -0.5814
38064SOL     OW16198   0.544   1.888   8.480  0.4921 -0.1170  0.2158
38064SOL    HW116199   0.546   1.978   8.513  0.3759 -0.3304  0.8299
38064SOL    HW216200   0.635   1.859   8.484  0.6974  0.3180 -0.9922
38065SOL     OW16201   7.031   6.220   5.901  0.0633 -0.2622 -0.1241
38065SOL    HW116202   7.117   6.194   5.866  0.1929 -0.4040  0.2830
38065SOL    HW216203   7.048   6.303   5.946 -0.0364 -0.2316 -0.1443
38066SOL     OW16204   3.489   7.448   7.459 -0.1477 -0.3310  0.2863
38066SOL    HW116205   3.485   7.510   7.531 -1.9614 -0.5485  0.4256
38066SOL    HW216206   3.481   7.502   7.380 -0.3957 -0.2672  0.3531
38067SOL     OW16207   9.860   7.630   9.327  0.2805  0.0985 -0.1625
38067SOL    HW116208   9.942   7.611   9.374  0.3875 -0.2732 -0.4946
38067SOL    HW216209   9.825   7.544   9.305  0.7030  0.2586 -1.5699
38068SOL     OW16210   1.596   8.500   7.220  0.1192  0.3852 -0.2471
38068SOL    HW116211   1.664   8.452   7.172 -1.0382 -1.7464  0.1182
38068SOL    HW216212   1.600   8.465   7.309 -0.1866  1.6288  0.2667
38069SOL     OW16213   8.935   1.040   5.533  0.5995 -0.1782  1.1488
38069SOL    HW116214   8.952   1.099   5.460  0.9242 -0.1593  1.2385
38069SOL    HW216215   8.976   0.958   5.508 -0.1196 -0.4657  0.8857
38070SOL     OW16216   2.355   5.554   9.638 -0.1643 -0.3477  0.4265
38070SOL    HW116217   2.287   5.502   9.597 -0.9352  2.0494 -1.6010
38070SOL    HW216218   2.313   5.593   9.715  0.3922 -2.4893  1.8967
38071SOL     OW16219   1.434   0.025  10.959 -0.0148 -0.5915 -0.1858
38071SOL    HW116220   1.387   0.057  11.036 -2.7811 -2.2468 -1.0095
38071SOL    HW216221   1.389  -0.057  10.936  1.1199 -0.5176 -3.1332
38072SOL     OW16222   2.178   2.066   0.745 -0.1301  0.3446  0.2875
38072SOL    HW116223   2.203   1.973   0.743  1.4156  0.6857  1.4338
38072SOL    HW216224   2.083   2.065   0.751 -0.1199 -1.1952  0.6750
38073SOL     OW16225   1.606   1.318   1.034 -0.0966  0.0457  0.3473
38073SOL    HW116226   1.670   1.373   0.988  0.5773 -0.5699  0.5350
38073SOL    HW216227   1.655   1.240   1.059 -0.8979 -0.3860  0.5995
38074SOL     OW16228   6.804   0.516   1.592  0.4457  0.2439 -0.0977
38074SOL    HW116229   6.789   0.552   1.679  0.3517  0.9953 -0.4112
38074SOL    HW216230   6.786   0.590   1.533  0.5469 -0.2449 -0.7444
38075SOL     OW16231   1.305   2.856   8.195 -0.2228  0.2079 -0.4525
38075SOL    HW116232   1.315   2.761   8.195  1.6944  0.3758 -0.7996
38075SOL    HW216233   1.285   2.878   8.286  0.9785 -0.4053 -0.0187
38076SOL     OW16234   7.297   0.884   5.299  0.2816  0.1702  0.0479
38076SOL    HW116235   7.332   0.916   5.216  2.0152  0.2234  0.7620
38076SOL    HW216236   7.312   0.956   5.361 -1.9399  0.5520  0.2362
38077SOL     OW16237  10.000   3.745   7.341 -0.0601  0.0792 -0.1730
38077SOL    HW116238   9.947   3.667   7.329  1.3627 -0.9286 -0.1839
38077SOL    HW216239  10.039   3.734   7.428  0.8788  0.2985 -0.5519
38078SOL     OW16240  10.370   0.126   3.516 -0.0871 -0.1993  0.0836
38078SOL    HW116241  10.364   0.031   3.525  0.0292 -0.2905 -0.6976
38078SOL    HW216242  10.359   0.160   3.605 -0.2284 -0.9369  0.3526
38079SOL     OW16243   8.661   3.645   6.317  0.0110  0.1013  0.6942
38079SOL    HW116244   8.630   3.608   6.399 -0.7713 -1.7804 -0.3901
38079SOL    HW216245   8.614   3.597   6.249  2.4287 -0.1889 -0.9359
38080SOL     OW16246   4.884   6.325   3.857  0.2500 -0.4110 -0.7156
38080SOL    HW116247   4.891   6.418   3.880 -0.4119 -0.6167  0.3704
38080SOL    HW216248   4.795   6.315   3.824  1.2082 -0.0917 -3.7368
38081SOL     OW16249   4.330   6.210   0.520  0.0529  0.0009  0.0499
38081SOL    HW116250   4.397   6.153   0.558  0.6067  0.7659  0.2406
38081SOL    HW216251   4.378   6.287   0.492 -0.9523  1.2648  1.6247
38082SOL     OW16252   1.086   8.713   8.519  0.1673  0.4747  0.5726
38082SOL    HW116253   1.143   8.782   8.552 -1.8774  1.9969  1.1396
38082SOL    HW216254   1.022   8.759   8.464 -0.9466 -1.0200  0.5576
38083SOL     OW16255   2.592   5.110   7.394 -0.0859 -0.1443 -0.3190
38083SOL    HW116256   2.586   5.205   7.397  3.1195  0.1701  2.5423
38083SOL    HW216257   2.668   5.092   7.338  0.8494 -0.7947  1.1016
38084SOL     OW16258   1.632   4.247   4.563 -0.1786  0.6865  1.1039
38084SOL    HW116259   1.541   4.231   4.586 -0.8352 -0.6018 -1.9711
38084SOL    HW216260   1.676   4.165   4.584 -0.3849  0.2167 -0.2143
38085SOL     OW16261   3.779  10.888   2.888 -0.1050 -0.0842  0.2219
38085SOL    HW116262   3.718  10.855   2.953 -1.3567  0.1463 -0.8083
38085SOL    HW216263   3.856  10.914   2.938 -1.7172  1.8238  1.8844
38086SOL     OW16264   8.488   3.317   0.352  0.4177 -0.2277  0.3232
38086SOL    HW116265   8.506   3.289   0.262  0.6475 -0.9412  0.5855
38086SOL    HW216266   8.543   3.394   0.365  0.0191  0.1674 -0.3052
38087SOL     OW16267   6.062   6.437   8.633 -0.4462 -0.0613 -0.0317
38087SOL    HW116268   6.109   6.385   8.698 -0.5318  0.4427  0.4407
38087SOL    HW216269   6.103   6.414   8.550 -1.1475 -1.6530  0.0257
38088SOL     OW16270   2.856   6.810   4.137  0.1752 -0.1012 -0.3509
38088SOL    HW116271   2.831   6.744   4.201 -3.3746  0.6342 -0.7868
38088SOL    HW216272   2.851   6.765   4.053 -0.7132  0.2749 -0.5145
38089SOL     OW16273   7.218   6.437  10.871 -0.2339  0.1667 -0.2331
38089SOL    HW116274   7.308   6.455  10.898 -0.4031 -1.6900  1.9181
38089SOL    HW216275   7.227   6.377  10.797  0.3639 -0.8215  0.6028
38090SOL     OW16276   1.137   9.018   7.182 -0.0039 -0.1938  0.2662
38090SOL    HW116277   1.120   9.104   7.221 -1.2802 -0.7675  1.0233
38090SOL    HW216278   1.052   8.989   7.150 -0.0991 -2.1926  2.1306
38091SOL     OW16279   3.578  10.615   0.872 -0.5486 -0.1220  0.4480
38091SOL    HW116280   3.654  10.664   0.904 -0.3526 -0.3615  0.3594
38091SOL    HW216281   3.504  10.674   0.883 -0.2409  0.3670 -0.1230
38092SOL     OW16282  10.089   0.803   9.887 -0.6402  0.1246 -0.2261
38092SOL    HW116283  10.129   0.748   9.820 -1.0569 -0.2582 -0.1699
38092SOL    HW216284  10.163   0.837   9.938 -0.3421  0.1643 -0.6801
38093SOL     OW16285   6.497   7.345   5.469  0.0074 -0.6001 -0.5224
38093SOL    HW116286   6.415   7.356   5.421 -0.0532  0.8365 -0.1233
38093SOL    HW216287   6.497   7.253   5.496 -1.4752 -0.6200 -0.5129
38094SOL     OW16288   5.155   0.569  10.229 -0.1459 -0.2689 -0.6141
38094SOL    HW116289   5.215   0.525  10.289  0.7280 -1.0030 -1.9513
38094SOL    HW216290   5.188   0.659  10.224  0.1300 -0.3573 -0.4379
38095SOL     OW16291  10.104   6.790   2.664 -0.0190 -0.1615  0.7584
38095SOL    HW116292  10.093   6.812   2.571 -0.0049 -0.0427  0.7844
38095SOL    HW216293  10.147   6.705   2.663  1.5836  0.6091  0.6344
38096SOL     OW16294   1.275  10.554   5.544 -0.3169  0.5595  0.0453
38096SOL    HW116295   1.212  10.604   5.594 -0.1069  0.3565  0.5213
38096SOL    HW216296   1.360  10.591   5.568  0.1011 -1.6261  2.4015
38097SOL     OW16297   6.803   8.426   5.912  0.3164 -0.0210 -0.2354
38097SOL    HW116298   6.789   8.498   5.850  0.2672  0.7503  0.6463
38097SOL    HW216299   6.722   8.375   5.907  0.3357 -0.0073 -0.8448
38098SOL     OW16300   2.126   5.915   8.094 -0.2633 -0.2124 -0.4400
38098SOL    HW116301   2.067   5.990   8.087  1.8411  1.5846 -0.0263
38098SOL    HW216302   2.168   5.909   8.008  1.9380  1.2492  0.4415
38099SOL     OW16303   7.550   4.562   3.688 -0.7356 -0.1338 -0.6754
38099SOL    HW116304   7.633   4.536   3.728 -1.4614 -1.2373  0.1835
38099SOL    HW216305   7.549   4.516   3.604 -0.0330  0.7085 -1.1601
38100SOL     OW16306   9.961   8.797   8.232 -0.1115  0.1789 -0.2326
38100SOL    HW116307   9.897   8.726   8.232  0.6471 -0.5999  1.6557
38100SOL    HW216308  10.046   8.752   8.237  0.3886  1.1957  1.0383
38101SOL     OW16309   2.404   5.267   8.463 -0.2144 -0.1736  0.0678
38101SOL    HW116310   2.448   5.350   8.482  2.0418 -1.3040  0.1414
38101SOL    HW216311   2.417   5.255   8.369  0.5606 -0.9930  0.2667
38102SOL     OW16312   5.678   0.937   5.289 -0.2195 -0.2042  0.6654
38102SOL    HW116313   5.621   1.005   5.251  0.7055 -0.8700 -2.0896
38102SOL    HW216314   5.743   0.986   5.339 -0.7813  0.8171  0.4270
38103SOL     OW16315   4.844   4.488   5.896  0.1342 -0.6255  0.5382
38103SOL    HW116316   4.907   4.491   5.968 -0.2828 -1.4897  0.9526
38103SOL    HW216317   4.854   4.401   5.858 -0.6881 -0.7213  0.5117
38104SOL     OW16318  10.497   8.950   7.629  0.2512  0.2439  0.3360
38104SOL    HW116319  10.474   8.859   7.609 -1.8162  0.6703  0.5854
38104SOL    HW216320  10.514   8.990   7.544 -1.7763  0.3302 -0.0744
38105SOL     OW16321   9.186   9.459   9.629 -0.4885 -0.0113 -0.4627
38105SOL    HW116322   9.162   9.465   9.537 -0.3932 -0.2760 -0.5064
38105SOL    HW216323   9.222   9.546   9.651 -0.7225  0.1233 -0.6114
38106SOL     OW16324   1.982   4.143  10.669  0.1385  0.1248  0.3558
38106SOL    HW116325   2.048   4.167  10.735  0.5307  0.9578 -0.3140
38106SOL    HW216326   1.997   4.205  10.597 -0.0529 -0.9775 -0.6702
38107SOL     OW16327   5.230   3.603   9.800 -0.1342 -0.4111  0.7785
38107SOL    HW116328   5.151   3.574   9.845  0.7699  1.5306  3.9420
38107SOL    HW216329   5.207   3.688   9.763  0.3851  0.1614  1.7094
38108SOL     OW16330   5.099   6.036   8.871 -0.0467 -0.5809 -0.6610
38108SOL    HW116331   5.040   6.041   8.796  0.6185  1.1268 -1.1093
38108SOL    HW216332   5.044   6.058   8.947 -0.2562 -0.2311 -0.9124
38109SOL     OW16333   7.932   2.569   3.188 -0.2519  0.0790  0.5429
38109SOL    HW116334   7.887   2.529   3.263 -1.0592  0.0409  0.0552
38109SOL    HW216335   7.981   2.642   3.225  0.2776 -0.6357  1.2743
38110SOL     OW16336   6.990   5.926   1.335 -0.0986 -0.2322 -0.2491
38110SOL    HW116337   7.081   5.957   1.332 -0.0180 -0.3982  0.3655
38110SOL    HW216338   6.968   5.926   1.428 -0.4836 -0.8969 -0.3337
38111SOL     OW16339   1.494   9.158   6.054 -0.3590  0.6643  0.2450
38111SOL    HW116340   1.561   9.219   6.024 -0.0712  0.0473 -0.4035
38111SOL    HW216341   1.509   9.149   6.148  0.2416  0.7979  0.1625
38112SOL     OW16342   9.671  10.088   5.910 -0.2778  0.4941  0.3803
38112SOL    HW116343   9.691  10.057   5.998  0.3817  0.6910  0.3084
38112SOL    HW216344   9.756  10.117   5.875 -0.5868  0.7237 -0.1952
38113SOL     OW16345   0.740   6.169   0.173  0.0295  0.2260 -0.1361
38113SOL    HW116346   0.747   6.119   0.255  2.1827 -2.0337 -1.5588
38113SOL    HW216347   0.745   6.260   0.201  0.3567 -0.4500  2.2799
38114SOL     OW16348   7.482   0.910   1.545 -0.3260  0.1646  0.1207
38114SOL    HW116349   7.535   0.966   1.601 -0.0281  1.0632 -1.0265
38114SOL    HW216350   7.437   0.970   1.486 -2.9402 -0.5305  1.2601
38115SOL     OW16351   8.915  10.988   8.145 -0.3494  0.0856  0.2364
38115SOL    HW116352   9.001  11.024   8.123 -0.7431  1.1643  0.3948
38115SOL    HW216353   8.894  11.026   8.230 -0.8931 -0.3477  0.3055
38116SOL     OW16354   1.701   3.688   4.813  0.3518 -0.0211 -0.0529
38116SOL    HW116355   1.644   3.749   4.765 -4.1927 -1.2897  3.1154
38116SOL    HW216356   1.696   3.606   4.765  1.7416  0.4724 -1.1293
38117SOL     OW16357   7.224   7.414   6.436 -0.3494 -0.2837 -0.1484
38117SOL    HW116358   7.133   7.435   6.415 -0.8157  1.0285  2.7169
38117SOL    HW216359   7.220   7.326   6.474 -0.7221  0.3621  1.3832
38118SOL     OW16360   1.491   1.479   1.223 -0.2853  0.1126  0.4317
38118SOL    HW116361   1.519   1.428   1.147  0.1556 -0.2002  0.8017
38118SOL    HW216362   1.546   1.557   1.221 -0.6042  0.3352  0.1614
38119SOL     OW16363   3.017   9.373   8.785  0.2284 -0.1163 -0.1655
38119SOL    HW116364   3.112   9.364   8.778  0.2954  0.4967 -0.0775
38119SOL    HW216365   2.984   9.341   8.701  0.5156 -0.2679 -0.2211
38120SOL     OW16366   9.687   3.547   8.464 -0.3052 -0.3926  0.8524
38120SOL    HW116367   9.660   3.485   8.531  1.1888 -1.3767  0.5930
38120SOL    HW216368   9.754   3.501   8.414  0.9384  1.4529  0.7041
38121SOL     OW16369   4.125   5.788   8.602 -0.5112 -0.4233  0.6582
38121SOL    HW116370   4.187   5.757   8.536 -0.9580 -1.1018  0.5496
38121SOL    HW216371   4.043   5.742   8.582 -0.2066 -2.0133  2.7391
38122SOL     OW16372   7.621   7.196  10.535  0.3205 -0.3523  0.0800
38122SOL    HW116373   7.683   7.128  10.561  2.0008  1.3656  0.8298
38122SOL    HW216374   7.562   7.205  10.611  0.4594 -0.5638  0.2128
38123SOL     OW16375   6.028   6.913   5.101 -0.0469  0.3852 -0.2154
38123SOL    HW116376   6.110   6.954   5.074  0.4993 -0.5636 -0.0379
38123SOL    HW216377   5.961   6.979   5.085  0.8367  1.4252  0.2832
38124SOL     OW16378   9.676   8.273   3.528 -0.1832  0.2419 -0.0816
38124SOL    HW116379   9.681   8.353   3.474 -0.8144  1.2771  1.3413
38124SOL    HW216380   9.645   8.206   3.467  0.7195  0.9659 -1.4056
38125SOL     OW16381   1.710   4.288   3.099  0.2161 -0.2236 -0.1797
38125SOL    HW116382   1.767   4.231   3.150 -2.4253 -2.0648  0.9239
38125SOL    HW216383   1.710   4.249   3.011 -0.4366 -1.0959  0.1932
38126SOL     OW16384  10.352   5.607  10.603 -0.2926 -0.0534  1.3297
38126SOL    HW116385  10.344   5.589  10.509  2.1294 -0.2574  1.0849
38126SOL    HW216386  10.339   5.702  10.609 -0.0474  0.0281  0.7166
38127SOL     OW16387  10.230   6.550   7.964  0.0364  0.2059  0.0106
38127SOL    HW116388  10.295   6.534   7.896 -1.3938  2.2517 -2.0117
38127SOL    HW216389  10.214   6.465   8.002  1.1674 -1.0040 -2.0075
38128SOL     OW16390   3.593  10.810   6.308 -0.7719  0.1107  0.0967
38128SOL    HW116391   3.675  10.836   6.265  0.5601 -2.5745  0.7762
38128SOL    HW216392   3.524  10.845   6.252  0.8616 -0.2656 -2.2935
38129SOL     OW16393   8.813   2.512  10.706 -0.3064  0.2945 -0.1114
38129SOL    HW116394   8.839   2.470  10.624  2.6361  0.2137  0.7383
38129SOL    HW216395   8.806   2.439  10.768 -0.4363  0.5476  0.1680
38130SOL     OW16396   6.320   0.838   9.611  1.1205  0.1681  0.6802
38130SOL    HW116397   6.248   0.885   9.654  0.5731  0.6758 -0.7470
38130SOL    HW216398   6.347   0.772   9.675  0.3108  0.8658  1.7783
38131SOL     OW16399   9.766   0.755   9.795 -0.6101  0.3841 -0.0306
38131SOL    HW116400   9.782   0.719   9.882  2.6528 -0.8678 -0.9996
38131SOL    HW216401   9.823   0.704   9.737 -0.4358  3.0733 -2.4519
38132SOL     OW16402   7.832  10.255   4.175  0.0211 -0.5821 -0.2420
38132SOL    HW116403   7.863  10.308   4.249  0.7828 -0.2335 -0.7976
38132SOL    HW216404   7.882  10.287   4.100  1.0808 -2.6175 -0.4693
38133SOL     OW16405   1.418   7.026  10.366  0.4369  0.5663  0.2646
38133SOL    HW116406   1.419   7.113  10.406  1.8958  1.4510 -1.5751
38133SOL    HW216407   1.501   7.019  10.319  0.5469 -2.0063  0.6847
38134SOL     OW16408   9.925   4.166   5.679  0.0225  0.2219 -0.2039
38134SOL    HW116409   9.967   4.104   5.619 -0.1504 -0.1107  0.0148
38134SOL    HW216410   9.979   4.164   5.758  0.2183  0.6190 -0.3289
38135SOL     OW16411   9.660   7.752   7.283  0.3104 -0.2433 -0.8465
38135SOL    HW116412   9.689   7.717   7.198  0.6823 -0.5765 -0.5839
38135SOL    HW216413   9.699   7.840   7.286 -0.0863 -0.0506 -1.2229
38136SOL     OW16414   4.314   2.117   8.548  0.8281 -0.4160  0.3922
38136SOL    HW116415   4.254   2.174   8.597 -0.5402  0.9639 -2.6539
38136SOL    HW216416   4.384   2.175   8.519  0.6228 -0.7496 -0.8291
38137SOL     OW16417   9.127   1.931   4.510 -0.6260  0.3402 -0.2988
38137SOL    HW116418   9.065   1.858   4.509 -0.7874  0.4724 -1.2619
38137SOL    HW216419   9.187   1.911   4.582  0.1662 -1.4659 -1.3774
38138SOL     OW16420   0.799   4.196   3.304 -0.2499  0.0642 -0.1023
38138SOL    HW116421   0.817   4.136   3.377  1.1795 -0.1053 -0.5587
38138SOL    HW216422   0.709   4.177   3.279 -1.5153  1.5110  2.8787
38139SOL     OW16423   4.067   4.705   2.216  0.0246 -0.5344 -0.3344
38139SOL    HW116424   4.057   4.733   2.125  2.5970 -2.1007 -1.2180
38139SOL    HW216425   4.074   4.786   2.266  0.4794  0.3720 -1.8050
38140SOL     OW16426   9.204   2.531   4.552  0.4197  0.7776 -0.1131
38140SOL    HW116427   9.171   2.617   4.524  1.1006  1.0415 -0.1246
38140SOL    HW216428   9.250   2.549   4.634  0.5935  0.4342 -0.1336
38141SOL     OW16429   1.072   9.056   4.892 -0.2053  0.3642 -0.1255
38141SOL    HW116430   1.027   9.038   4.809 -0.1966  0.3772 -0.1330
38141SOL    HW216431   1.165   9.042   4.872 -0.2513 -0.2374  0.0393
38142SOL     OW16432   7.453   9.088   8.953  0.0211 -0.1416 -0.0694
38142SOL    HW116433   7.466   9.006   8.905 -0.9510 -0.6066  0.4462
38142SOL    HW216434   7.522   9.087   9.020  1.5527  0.6311 -1.5575
38143SOL     OW16435   5.098   9.142   3.803  0.0748  0.4156  0.0261
38143SOL    HW116436   5.071   9.229   3.834 -2.1518  0.0570 -0.7160
38143SOL    HW216437   5.110   9.153   3.708 -0.5749 -0.1301 -0.1314
38144SOL     OW16438   3.725  10.453   8.471 -0.0997  0.3278  0.3957
38144SOL    HW116439   3.759  10.453   8.561  0.4051 -2.0621  0.2510
38144SOL    HW216440   3.802  10.450   8.416 -0.4451  0.5319 -0.1105
38145SOL     OW16441   7.783   7.912   0.071  0.2961  0.2963 -0.3534
38145SOL    HW116442   7.869   7.914   0.029 -0.4279  1.2149 -1.8740
38145SOL    HW216443   7.768   7.819   0.089  1.6410  0.1365  0.0420
38146SOL     OW16444   6.299   8.596   6.750 -0.5265 -0.5094 -0.0788
38146SOL    HW116445   6.332   8.677   6.790 -0.1164 -0.1300 -1.1270
38146SOL    HW216446   6.217   8.622   6.709 -0.1478 -0.4771 -0.8493
38147SOL     OW16447   2.043   3.730   1.110 -0.2738  0.6858 -0.4206
38147SOL    HW116448   2.031   3.780   1.191  2.5300 -0.5849  0.9081
38147SOL    HW216449   2.004   3.645   1.128  0.1120  0.4932 -0.4713
38148SOL     OW16450  10.492   9.421   9.085  0.6388 -0.1032  0.1165
38148SOL    HW116451  10.486   9.326   9.091 -0.6790  0.0115  1.0407
38148SOL    HW216452  10.559   9.444   9.150  0.9267 -0.3956 -0.0730
38149SOL     OW16453   7.112  10.590   4.847  0.5667 -0.3213  0.6466
38149SOL    HW116454   7.148  10.544   4.772 -0.2676  0.7947 -0.4764
38149SOL    HW216455   7.183  10.590   4.912  0.9842 -2.0954  0.2446
38150SOL     OW16456   5.200   8.584   3.270 -0.7016 -0.7829 -0.0790
38150SOL    HW116457   5.218   8.553   3.181 -1.3993 -3.0752  0.5041
38150SOL    HW216458   5.196   8.504   3.322  0.8382  0.5458  2.2570
38151SOL     OW16459   2.455   1.855   5.491 -0.2427  0.3507  0.4986
38151SOL    HW116460   2.467   1.875   5.584  2.1591  0.8632  0.1345
38151SOL    HW216461   2.543   1.857   5.454 -1.1508  0.3068 -1.8402
38152SOL     OW16462   2.525   0.565   8.141 -0.0094  0.2107 -0.2444
38152SOL    HW116463   2.434   0.577   8.113  0.1184 -1.1744 -1.3462
38152SOL    HW216464   2.576   0.577   8.061  0.7469  0.4937  0.2696
38153SOL     OW16465   3.514  10.866   7.717  0.0302 -0.1793 -0.0012
38153SOL    HW116466   3.489  10.825   7.634  1.5512 -1.5116  0.1366
38153SOL    HW216467   3.560  10.946   7.691  0.1942 -0.4139 -0.4527
38154SOL     OW16468  10.745   9.991   3.226  0.0766 -1.0592  0.0914
38154SOL    HW116469  10.831   9.956   3.247  0.4106 -0.0226  0.5219
38154SOL    HW216470  10.732   9.971   3.134  0.3134 -2.1657  0.2876
38155SOL     OW16471   7.083   1.096   9.004  0.7514  0.5288 -0.2092
38155SOL    HW116472   7.076   1.000   9.009 -0.2030  0.6377  0.9911
38155SOL    HW216473   7.173   1.114   9.030  0.6956 -0.0117  0.4059
38156SOL     OW16474   5.679   8.385   8.536  0.2225 -0.0897 -0.2323
38156SOL    HW116475   5.670   8.409   8.443 -0.2229  2.0427  0.3055
38156SOL    HW216476   5.685   8.469   8.581  0.0272 -1.0913  1.7316
38157SOL     OW16477   6.901   2.269   4.505  0.3932  0.6931  0.1206
38157SOL    HW116478   6.831   2.205   4.513 -0.7266  1.5807 -1.7595
38157SOL    HW216479   6.934   2.280   4.594 -0.6012 -1.1234  0.7607
38158SOL     OW16480   0.437   1.446   1.262 -0.1041 -0.0053 -0.2328
38158SOL    HW116481   0.516   1.410   1.222 -0.9642 -2.3048  0.0178
38158SOL    HW216482   0.416   1.386   1.333  0.7750  3.3479  3.1894
38159SOL     OW16483   7.264   1.391   2.272 -0.2107 -0.3184 -0.0181
38159SOL    HW116484   7.189   1.435   2.311 -0.9508 -0.8577 -0.7790
38159SOL    HW216485   7.276   1.313   2.326 -1.4720 -1.2618 -1.0193
38160SOL     OW16486   0.841   3.035   0.956 -0.6298 -0.2700  0.0722
38160SOL    HW116487   0.893   3.109   0.986 -1.1077  0.2321 -0.3257
38160SOL    HW216488   0.796   3.004   1.035 -2.1077  1.2300 -0.1384
38161SOL     OW16489   4.821   3.320   0.081 -0.0064 -0.2483  0.2686
38161SOL    HW116490   4.769   3.273   0.146 -0.3173 -1.8848 -1.0883
38161SOL    HW216491   4.756   3.354   0.018  0.4552 -2.5275 -1.5793
38162SOL     OW16492   3.715   0.355   5.933 -0.4621  0.3448  0.1409
38162SOL    HW116493   3.711   0.264   5.904  0.4229 -0.0429  1.1565
38162SOL    HW216494   3.711   0.350   6.029 -0.9009  1.4095  0.1962
38163SOL     OW16495  10.081   0.707   8.099  0.4111 -0.1313  0.5208
38163SOL    HW116496  10.033   0.659   8.031 -1.0353 -1.7467  2.5632
38163SOL    HW216497  10.015   0.764   8.139  0.8398 -0.4057  1.6310
38164SOL     OW16498   7.898   2.301   2.053 -0.3682  0.7861  0.2557
38164SOL    HW116499   7.947   2.283   1.973  0.0018  0.3288  0.5787
38164SOL    HW216500   7.822   2.351   2.024 -0.3517  0.4341 -0.4111
38165SOL     OW16501   7.315   2.438   2.939 -0.3975 -0.4734 -0.1628
38165SOL    HW116502   7.375   2.440   3.014 -0.2735 -0.7904 -0.2518
38165SOL    HW216503   7.321   2.349   2.907  0.6789  0.0416 -1.4636
38166SOL     OW16504   4.455   3.640  10.393 -0.3565 -0.6130 -0.3999
38166SOL    HW116505   4.503   3.562  10.420 -1.3984 -1.1850 -0.1040
38166SOL    HW216506   4.399   3.610  10.321 -0.0797  0.0959 -0.9207
38167SOL     OW16507   5.480   3.930   2.041 -0.4937  0.2799  0.6228
38167SOL    HW116508   5.505   4.021   2.055  1.5335 -0.1592  0.1088
38167SOL    HW216509   5.502   3.911   1.950 -1.8072 -0.4723  0.4260
38168SOL     OW16510   6.559   2.559   4.640  0.3040 -0.0603 -0.4423
38168SOL    HW116511   6.518   2.645   4.641  0.1270 -0.1503  0.3284
38168SOL    HW216512   6.653   2.576   4.645  0.3522  0.1299 -1.7340
38169SOL     OW16513   1.618   4.167   3.396  0.4083  0.2921  0.1058
38169SOL    HW116514   1.668   4.201   3.470 -2.9016 -0.4037  2.9110
38169SOL    HW216515   1.559   4.238   3.372 -1.1230 -0.7151  0.7368
38170SOL     OW16516   6.639   0.942   1.239  0.9280  0.1422  0.5026
38170SOL    HW116517   6.590   1.002   1.182  0.4743  0.7374  1.4863
38170SOL    HW216518   6.616   0.970   1.327 -0.5548 -2.4611  1.0334
38171SOL     OW16519   6.550   6.569   1.384 -0.3745 -0.4702  0.6011
38171SOL    HW116520   6.630   6.517   1.381  0.7599  1.2492 -0.8800
38171SOL    HW216521   6.521   6.563   1.475  0.1847 -2.8797  0.6978
38172SOL     OW16522   9.787   4.155   9.580 -0.0697 -0.5501 -0.0870
38172SOL    HW116523   9.832   4.095   9.520  0.0991 -0.3038 -0.2089
38172SOL    HW216524   9.841   4.154   9.659  0.0290 -0.4292 -0.1510
38173SOL     OW16525   6.231   0.388   8.475 -0.0901 -0.1360  0.3524
38173SOL    HW116526   6.176   0.466   8.468  0.6594  0.4012  0.3574
38173SOL    HW216527   6.262   0.387   8.565 -1.5273 -1.4461  0.8784
38174SOL     OW16528   8.830   4.238   6.658  0.2561  0.2389  0.2026
38174SOL    HW116529   8.757   4.221   6.718  0.8453 -2.5977  0.2669
38174SOL    HW216530   8.893   4.288   6.710 -0.0639 -0.5019  1.3359
38175SOL     OW16531   7.385   4.805   8.577 -0.7754  0.1637 -0.7232
38175SOL    HW116532   7.332   4.745   8.629 -1.0393  0.1205 -1.0353
38175SOL    HW216533   7.462   4.823   8.631 -2.2182  2.1632  0.8210
38176SOL     OW16534   9.632   3.344   1.813 -0.3454 -0.0455 -0.0663
38176SOL    HW116535   9.602   3.281   1.748  1.2115 -1.1201  0.1794
38176SOL    HW216536   9.677   3.290   1.878 -1.7217  1.0086  1.8459
38177SOL     OW16537   8.078   1.552  10.004 -0.2668  0.1722  0.2981
38177SOL    HW116538   8.051   1.629  10.055  0.0839  0.6741 -0.2678
38177SOL    HW216539   8.000   1.497  10.003 -0.5150  0.5021  0.7383
38178SOL     OW16540   5.675   4.028  10.177  0.3804  0.5653 -0.2697
38178SOL    HW116541   5.732   4.094  10.219 -1.2546  1.8979 -0.0497
38178SOL    HW216542   5.715   4.013  10.092  1.2184  1.2767 -0.0221
38179SOL     OW16543   8.909   2.665   8.069 -0.2218 -0.7940  0.3117
38179SOL    HW116544   8.955   2.718   8.133  0.3857 -1.7166  0.6681
38179SOL    HW216545   8.966   2.667   7.991 -0.7001 -0.1026 -0.0310
38180SOL     OW16546   6.759  10.899   2.402  0.6173  0.1880  0.1634
38180SOL    HW116547   6.694  10.852   2.454 -0.2485 -0.2776 -1.2803
38180SOL    HW216548   6.840  10.891   2.452  0.6662 -3.3469 -0.2499
38181SOL     OW16549   0.342   0.959   9.660  0.3257  0.3098 -0.1555
38181SOL    HW116550   0.403   0.888   9.679 -0.8049 -1.2369 -1.8119
38181SOL    HW216551   0.302   0.980   9.744  1.6756 -0.0576  0.5994
38182SOL     OW16552   9.951   3.581   4.241 -0.6780 -0.3118  0.3361
38182SOL    HW116553   9.864   3.621   4.230 -0.2043  0.1142 -2.6516
38182SOL    HW216554   9.937   3.488   4.220 -0.1150  0.1506 -2.4843
38183SOL     OW16555   9.511   5.442  10.378 -0.3463 -0.0580 -0.3549
38183SOL    HW116556   9.570   5.493  10.322  0.1384  1.0921  1.1403
38183SOL    HW216557   9.465   5.384  10.317  2.3300 -1.0726 -1.6195
38184SOL     OW16558   9.937   1.012   4.301  0.3050 -0.0384 -0.8847
38184SOL    HW116559   9.927   1.107   4.312 -0.5859 -0.2329  0.2759
38184SOL    HW216560   9.954   0.980   4.390 -1.0829 -1.1287 -0.9802
38185SOL     OW16561   8.498   0.929   1.206 -0.1244 -0.0023  0.0933
38185SOL    HW116562   8.562   0.896   1.142 -1.1864 -0.1945 -0.8966
38185SOL    HW216563   8.507   1.024   1.202  1.2908 -0.0516  1.2356
38186SOL     OW16564   2.775   6.131   3.619  0.3332 -0.2795 -0.0772
38186SOL    HW116565   2.726   6.148   3.538 -0.9859  0.3705  0.8274
38186SOL    HW216566   2.862   6.167   3.602 -0.6371  2.1030 -0.3684
38187SOL     OW16567   5.039   7.191   2.057 -0.3612  0.8173 -0.2402
38187SOL    HW116568   5.088   7.119   2.017 -0.0742  1.0851 -0.3819
38187SOL    HW216569   4.948   7.176   2.032 -0.5608 -0.4128  1.1009
38188SOL     OW16570   5.877   2.660  10.956  0.5520  0.6520  0.7739
38188SOL    HW116571   5.872   2.736  11.015 -1.2753  1.0423  0.1794
38188SOL    HW216572   5.971   2.642  10.948  1.2440  4.0211 -0.5121
38189SOL     OW16573   8.995   0.126   5.266  0.5635 -0.1240 -0.0735
38189SOL    HW116574   8.943   0.059   5.311  2.8886 -2.3382 -0.4803
38189SOL    HW216575   9.044   0.169   5.336  1.2168 -0.8359 -0.0917
38190SOL     OW16576   3.157   9.663   1.548 -0.3854 -0.1926 -0.7997
38190SOL    HW116577   3.251   9.675   1.531 -0.4953  0.4917 -0.9342
38190SOL    HW216578   3.129   9.602   1.481  0.2650 -1.5848  0.1413
38191SOL     OW16579   2.793  10.593   0.288 -0.1703  0.1410  0.1742
38191SOL    HW116580   2.716  10.605   0.344 -1.1118  0.5068 -1.1451
38191SOL    HW216581   2.784  10.660   0.220  1.4200  0.3044  0.0792
38192SOL     OW16582   5.891  10.868   4.866  0.2967 -0.4080  0.0201
38192SOL    HW116583   5.839  10.798   4.829 -1.5840  0.8954  0.0792
38192SOL    HW216584   5.935  10.828   4.941 -1.2891 -1.3604  0.4866
38193SOL     OW16585   3.681   6.530   8.150  0.2469 -0.1026 -0.1012
38193SOL    HW116586   3.776   6.520   8.145  0.3370  0.8584 -0.7436
38193SOL    HW216587   3.667   6.584   8.228  0.3231  0.6027 -0.5620
38194SOL     OW16588   5.176   1.319   7.628 -0.4469  0.4156 -0.6588
38194SOL    HW116589   5.264   1.289   7.602 -0.8197 -1.3403 -0.0461
38194SOL    HW216590   5.187   1.354   7.716 -0.3126  0.5088 -0.7121
38195SOL     OW16591   7.460   6.154   3.787  0.8156  0.8836  0.1967
38195SOL    HW116592   7.535   6.206   3.761  0.5906  0.5179 -1.2491
38195SOL    HW216593   7.409   6.212   3.843  2.4377  0.9452  1.6960
38196SOL     OW16594   3.072   7.861   5.249 -0.3566  0.2987 -0.7160
38196SOL    HW116595   3.098   7.825   5.164  1.6090  1.2072 -0.5611
38196SOL    HW216596   2.980   7.886   5.237  0.0597  1.0839 -2.8473
38197SOL     OW16597   2.404   8.503   0.439  0.2089 -0.3570  0.3394
38197SOL    HW116598   2.437   8.587   0.470 -0.6628  0.2850 -0.4119
38197SOL    HW216599   2.367   8.461   0.517 -1.8076  1.1570  0.2790
38198SOL     OW16600   3.995   5.086   9.451 -0.5224 -0.0390 -0.1933
38198SOL    HW116601   3.902   5.109   9.451 -0.4924  0.0843 -0.5489
38198SOL    HW216602   4.021   5.092   9.359  0.0465  0.7483  0.0193
38199SOL     OW16603   9.370   0.560   8.735  0.2110  0.0897  0.3673
38199SOL    HW116604   9.398   0.541   8.825 -1.5480 -2.1773  0.5273
38199SOL    HW216605   9.423   0.502   8.681  0.8454  1.0295 -0.0533
38200SOL     OW16606   3.700   5.926   1.703 -0.5772 -0.4655  0.2218
38200SOL    HW116607   3.611   5.924   1.667 -0.1196 -2.1243 -0.9101
38200SOL    HW216608   3.743   5.998   1.657 -1.1420 -0.0613  0.3194
38201SOL     OW16609   0.117   6.328   4.689  0.2701  0.4022  0.7948
38201SOL    HW116610   0.165   6.358   4.612  0.5627  0.2579  0.9192
38201SOL    HW216611   0.025   6.331   4.663  0.2035  2.2175  1.0474
38202SOL     OW16612   7.010   1.329   0.861  0.6881  0.2483 -0.0617
38202SOL    HW116613   6.950   1.378   0.916  3.2593  1.2235  2.1337
38202SOL    HW216614   7.059   1.274   0.922  1.0481 -1.5989 -1.9038
38203SOL     OW16615  10.715   0.248   0.532  0.2417 -0.5521  0.0350
38203SOL    HW116616  10.741   0.310   0.464 -1.4686 -0.5655 -0.6775
38203SOL    HW216617  10.619   0.252   0.533  0.2042 -0.1116  2.8584
38204SOL     OW16618   2.328   7.220   3.542  0.4913  0.0941  0.4011
38204SOL    HW116619   2.343   7.127   3.563  0.5372  0.4764  2.1994
38204SOL    HW216620   2.395   7.240   3.477  0.8527 -0.9912  0.4067
38205SOL     OW16621   2.297   5.243   5.986  0.3756 -0.4055  0.3040
38205SOL    HW116622   2.203   5.252   5.999  0.7747  2.6271  2.0852
38205SOL    HW216623   2.328   5.333   5.973  2.9981 -1.3574 -0.7656
38206SOL     OW16624   5.511   5.524   5.656  0.3314 -0.6520  0.3105
38206SOL    HW116625   5.468   5.486   5.579  1.0079  0.9740 -0.9170
38206SOL    HW216626   5.469   5.480   5.730 -3.2624  0.5481 -0.7840
38207SOL     OW16627   6.422  10.649  10.274 -0.0218 -0.0570 -0.2380
38207SOL    HW116628   6.495  10.710  10.267  0.2904  0.0430  2.6464
38207SOL    HW216629   6.345  10.705  10.282  0.1106 -0.0181  0.9952
38208SOL     OW16630   1.212   1.317   0.795 -0.0196  0.3159 -0.1251
38208SOL    HW116631   1.119   1.340   0.799 -0.1018 -0.1408  1.3596
38208SOL    HW216632   1.214   1.229   0.758 -0.2746 -0.0472  0.6920
38209SOL     OW16633   3.408  10.375  10.314 -0.4707  0.0040 -0.1460
38209SOL    HW116634   3.346  10.348  10.246 -0.2258  1.0164 -0.7926
38209SOL    HW216635   3.488  10.326  10.294 -0.4963  0.0640 -0.4070
38210SOL     OW16636   6.158   1.419   5.595 -0.3980 -0.3767  0.5321
38210SOL    HW116637   6.148   1.514   5.588  0.9481 -0.1890  0.8580
38210SOL    HW216638   6.172   1.403   5.689 -1.5618 -1.0153  0.6163
38211SOL     OW16639   5.180   5.983   3.596 -0.1661 -0.0294  0.1784
38211SOL    HW116640   5.143   5.913   3.650 -0.9939  0.4177  0.2208
38211SOL    HW216641   5.274   5.968   3.598 -0.2849 -0.7974  0.6583
38212SOL     OW16642   8.797   2.981  10.134  0.3624  0.4743  0.1767
38212SOL    HW116643   8.722   2.953  10.187  0.1827  1.5536  0.5227
38212SOL    HW216644   8.767   2.970  10.043  0.1356  0.0188  0.3008
38213SOL     OW16645   9.691   7.389   2.488  0.2385  0.1371 -0.0579
38213SOL    HW116646   9.735   7.415   2.569 -0.9853 -0.5564  0.8553
38213SOL    HW216647   9.673   7.296   2.499 -2.0250  0.5201 -0.0953
38214SOL     OW16648   0.541   0.794   9.743 -0.2479 -0.7151  0.2354
38214SOL    HW116649   0.568   0.763   9.830 -0.3719 -1.4587  0.0208
38214SOL    HW216650   0.577   0.729   9.682  0.0089 -0.0888 -0.2877
38215SOL     OW16651   9.814   6.283   0.198  0.6779  0.6464 -0.9208
38215SOL    HW116652   9.732   6.328   0.177  0.9823  1.7852  0.2595
38215SOL    HW216653   9.879   6.353   0.204  1.3929 -0.0716 -0.1478
38216SOL     OW16654   3.895   9.138   5.379  0.7386  0.1243  0.0558
38216SOL    HW116655   3.969   9.135   5.319  0.5318 -0.1085 -0.1903
38216SOL    HW216656   3.830   9.191   5.334  0.1545 -0.9699 -0.4166
38217SOL     OW16657   6.199   5.709   2.808 -0.2058 -0.0035  0.3908
38217SOL    HW116658   6.153   5.787   2.839 -1.3082 -0.4888  0.0378
38217SOL    HW216659   6.171   5.699   2.717 -2.1119 -2.1871  1.1100
38218SOL     OW16660   9.890   2.138   1.411 -0.0899  0.0255 -0.3551
38218SOL    HW116661   9.844   2.215   1.379  0.9704  0.5804 -0.5639
38218SOL    HW216662   9.982   2.156   1.395  0.1060 -1.9338 -1.8497
38219SOL     OW16663  10.402   1.775  10.917  0.1383  0.1150  0.2929
38219SOL    HW116664  10.472   1.737  10.864  0.8094 -0.9205  1.8182
38219SOL    HW216665  10.430   1.865  10.933 -0.8660  0.9778 -2.3563
38220SOL     OW16666  10.020   7.101   9.698 -0.1852 -0.1211  0.1810
38220SOL    HW116667  10.040   7.074   9.788  1.1012  1.5818  0.4446
38220SOL    HW216668   9.928   7.127   9.701 -0.7315 -1.9689  0.4980
38221SOL     OW16669   3.530   2.887   6.928 -0.3098 -0.0373 -0.2869
38221SOL    HW116670   3.573   2.854   6.849 -2.6925 -2.3084 -0.8196
38221SOL    HW216671   3.506   2.808   6.976 -2.7426  1.0800  0.4987
38222SOL     OW16672   9.346  10.807  10.996 -0.6997  0.2334  0.3091
38222SOL    HW116673   9.323  10.793  11.088  0.6837  0.0521  0.6493
38222SOL    HW216674   9.285  10.874  10.966 -0.9254  0.5760  1.4664
38223SOL     OW16675   5.369   3.017   6.794  0.3085 -0.3789  0.0972
38223SOL    HW116676   5.304   3.078   6.759 -0.8553 -1.0816  0.9493
38223SOL    HW216677   5.450   3.040   6.749 -0.6330  0.1839 -1.4091
38224SOL     OW16678   5.371   4.081   7.872  0.1199  0.1322  0.0178
38224SOL    HW116679   5.341   4.132   7.947  0.0238 -1.0699  0.8339
38224SOL    HW216680   5.370   3.990   7.903 -0.7286 -0.4896 -1.6994
38225SOL     OW16681   0.868   8.025   8.083 -0.2557  0.2855  0.4084
38225SOL    HW116682   0.848   8.110   8.044  0.7457 -0.1013 -1.0340
38225SOL    HW216683   0.782   7.984   8.096 -0.6575  0.7518 -0.6798
38226SOL     OW16684   7.318   7.662   4.354 -0.1746 -0.2880  0.1644
38226SOL    HW116685   7.309   7.743   4.404 -0.2394  0.5272 -1.1322
38226SOL    HW216686   7.248   7.665   4.289 -0.7875 -1.8609  0.6798
38227SOL     OW16687   8.279   4.083   6.837 -0.3510 -0.0583  0.4983
38227SOL    HW116688   8.323   4.016   6.784 -1.5479 -2.1660  1.9918
38227SOL    HW216689   8.187   4.056   6.838 -1.1625  2.4479  0.0259
38228SOL     OW16690   1.151   2.943   1.275 -0.3875 -0.6844  0.2806
38228SOL    HW116691   1.074   2.910   1.320 -0.3195 -0.5414  0.5035
38228SOL    HW216692   1.144   2.909   1.186 -0.4319 -1.1157  0.4474
38229SOL     OW16693   6.475   8.993   7.442  0.0535 -0.6516 -0.2539
38229SOL    HW116694   6.504   8.978   7.532  0.6360  0.1675 -0.2938
38229SOL    HW216695   6.412   9.064   7.449  2.3997  1.6299 -0.7936
38230SOL     OW16696   1.430   0.546   0.640  0.4056 -0.5615 -0.3411
38230SOL    HW116697   1.482   0.466   0.649 -0.7974 -1.6016 -1.9702
38230SOL    HW216698   1.460   0.585   0.558  0.5297  0.3276  0.1192
38231SOL     OW16699   3.115   0.611  10.712  0.3719 -0.2840 -0.1353
38231SOL    HW116700   3.105   0.556  10.634  0.9629 -1.1695  0.3988
38231SOL    HW216701   3.071   0.693  10.689 -0.1285 -0.8078 -1.1163
38232SOL     OW16702  10.135  10.674   0.204  0.4243  0.2132  0.1105
38232SOL    HW116703  10.076  10.692   0.131  0.1937  0.0829  0.2632
38232SOL    HW216704  10.203  10.617   0.166  1.2195  1.4641 -0.3972
38233SOL     OW16705   4.161   1.943   8.825 -0.3579  0.2142 -0.4185
38233SOL    HW116706   4.097   1.955   8.896 -1.8991  1.6516 -1.9821
38233SOL    HW216707   4.116   1.972   8.746  1.7338 -0.1872 -1.8443
38234SOL     OW16708   6.337   8.205   0.473 -0.1612 -0.5187  0.4309
38234SOL    HW116709   6.264   8.163   0.518 -1.0749 -0.4068 -0.8887
38234SOL    HW216710   6.363   8.142   0.406  1.2138 -0.7109  1.1285
38235SOL     OW16711   4.547   8.138   2.289  0.0586  0.2713 -0.2486
38235SOL    HW116712   4.576   8.081   2.219  0.7113  1.4117 -0.9399
38235SOL    HW216713   4.457   8.110   2.307 -0.1021 -0.0771 -1.5040
38236SOL     OW16714   1.058   9.778   8.547  0.0991 -0.2131 -0.1405
38236SOL    HW116715   1.001   9.842   8.590 -1.6136 -0.4305 -2.0027
38236SOL    HW216716   1.054   9.701   8.603  0.1949  0.4363  0.7939
38237SOL     OW16717   5.224   4.336   4.782 -0.4938  0.7512 -0.2189
38237SOL    HW116718   5.263   4.412   4.826 -1.6787  0.3752  1.5707
38237SOL    HW216719   5.285   4.264   4.799 -2.5422 -0.2931  4.1807
38238SOL     OW16720   2.225   1.923  10.205 -0.1050 -0.0553 -0.4354
38238SOL    HW116721   2.303   1.949  10.254  1.0252 -1.1921 -1.5517
38238SOL    HW216722   2.260   1.876  10.129 -1.8160  1.0541 -1.9740
38239SOL     OW16723   4.966   0.037   7.505 -0.0883  0.3883 -0.3602
38239SOL    HW116724   4.950  -0.037   7.447  1.1385 -0.3472  0.1923
38239SOL    HW216725   4.908   0.023   7.579  1.0405 -0.7560  0.3486
38240SOL     OW16726   0.923   8.027   5.374  0.2589  0.5009  0.2716
38240SOL    HW116727   1.001   8.061   5.416 -0.5872  1.5035  1.0850
38240SOL    HW216728   0.857   8.023   5.444  0.3292 -3.1188  0.3550
38241SOL     OW16729  10.366   1.312   8.268  0.3909  0.8048 -0.2468
38241SOL    HW116730  10.419   1.325   8.346  2.9806 -2.2811 -1.2661
38241SOL    HW216731  10.331   1.224   8.277 -2.7758  1.8925 -0.7585
38242SOL     OW16732   4.811   0.435  10.401 -0.2207  0.2603  0.3599
38242SOL    HW116733   4.899   0.416  10.434 -0.3826 -0.9928  0.1294
38242SOL    HW216734   4.818   0.521  10.361  1.0332 -0.0357 -0.1028
38243SOL     OW16735   5.213   7.274   9.446 -0.1435 -0.5086  0.1539
38243SOL    HW116736   5.302   7.294   9.417  0.3267 -0.8868  1.2891
38243SOL    HW216737   5.223   7.198   9.503 -1.3490 -1.2720 -0.5980
38244SOL     OW16738  10.264   5.376   5.572  0.3758  0.4543  1.0548
38244SOL    HW116739  10.285   5.373   5.665  1.8986  1.4218  0.7613
38244SOL    HW216740  10.271   5.468   5.548  3.0626 -0.0945 -0.6601
38245SOL     OW16741   3.311   0.791   8.835  0.5328  0.1401 -0.2773
38245SOL    HW116742   3.271   0.705   8.845 -2.1601  1.3438  0.2059
38245SOL    HW216743   3.316   0.825   8.924  1.0360  0.7158 -0.5209
38246SOL     OW16744  10.225   2.542   0.118 -0.5197  0.0532  0.3263
38246SOL    HW116745  10.169   2.602   0.069  3.2481  1.5522 -2.6576
38246SOL    HW216746  10.267   2.597   0.184  1.3057  0.3576 -0.9976
38247SOL     OW16747   4.165   6.250   2.698 -0.6240  0.5152  0.3204
38247SOL    HW116748   4.248   6.293   2.676 -0.8234  2.3355  2.7536
38247SOL    HW216749   4.191   6.170   2.743 -0.2463 -0.2478 -1.1821
38248SOL     OW16750   4.117   5.499   0.689 -0.0633 -0.3889 -0.3794
38248SOL    HW116751   4.124   5.593   0.672 -1.3239 -0.4975 -1.7100
38248SOL    HW216752   4.143   5.490   0.780  0.9262  1.1251 -0.4560
38249SOL     OW16753   6.935   1.001   0.775  0.0748  0.3301 -0.4320
38249SOL    HW116754   6.877   0.930   0.748  0.0020  0.3123 -0.2305
38249SOL    HW216755   6.887   1.081   0.751 -0.2747  0.3208  0.2316
38250SOL     OW16756   0.139   9.769   5.399  0.1070 -0.1288  0.0121
38250SOL    HW116757   0.167   9.766   5.308  0.2270 -0.6206  0.0604
38250SOL    HW216758   0.220   9.761   5.449 -0.1094 -1.8878  0.1542
38251SOL     OW16759   6.273   0.621   4.034  0.0628 -0.6439  0.2460
38251SOL    HW116760   6.253   0.683   4.104 -3.4882 -0.1218 -1.0385
38251SOL    HW216761   6.273   0.535   4.076 -0.1421 -0.1870  1.1888
38252SOL     OW16762   7.841  10.816   2.235 -0.8981 -0.4341  0.2803
38252SOL    HW116763   7.904  10.886   2.216 -1.2191 -0.4801 -1.0580
38252SOL    HW216764   7.771  10.859   2.284 -0.1846 -0.2428  1.1718
38253SOL     OW16765   3.315   6.301   0.881  0.2938  0.1065  0.3349
38253SOL    HW116766   3.378   6.335   0.944  0.3980  0.4578  0.0454
38253SOL    HW216767   3.241   6.361   0.886  1.0598  1.2456 -1.2028
38254SOL     OW16768   1.942   7.343   6.221 -0.2942  0.3359  0.1490
38254SOL    HW116769   1.994   7.372   6.146 -0.4171  1.6901  0.5691
38254SOL    HW216770   2.006   7.309   6.284 -0.1890 -0.7985 -0.5369
38255SOL     OW16771   0.089   4.873   5.607  0.1935 -0.3507 -0.3280
38255SOL    HW116772   0.110   4.830   5.690 -0.3007  0.9493  0.5091
38255SOL    HW216773   0.042   4.952   5.633  0.2225  0.1935 -1.8550
38256SOL     OW16774   4.344   7.626   7.900 -0.3787 -0.0103 -0.3034
38256SOL    HW116775   4.296   7.561   7.849 -1.3868 -0.4285  1.0997
38256SOL    HW216776   4.280   7.695   7.917  0.7151  1.4491 -1.8811
38257SOL     OW16777   8.400   6.757   0.796  0.1092  0.1127  0.0990
38257SOL    HW116778   8.431   6.809   0.721  0.4000 -0.9130 -0.5170
38257SOL    HW216779   8.312   6.789   0.813  0.7907  1.7814  0.6489
38258SOL     OW16780   8.409   7.625   4.794 -0.2133  0.1655  0.0126
38258SOL    HW116781   8.445   7.545   4.755 -0.0623 -0.2060  0.8938
38258SOL    HW216782   8.420   7.692   4.726  0.5455 -0.3439 -0.3790
38259SOL     OW16783   3.496   5.998   8.348 -0.2863  0.6306  0.5954
38259SOL    HW116784   3.515   6.080   8.301  1.2994  0.6615  1.2196
38259SOL    HW216785   3.543   6.007   8.431  0.0289 -0.9706  0.6243
38260SOL     OW16786   1.234   7.515   8.729 -0.6755 -0.0399 -0.2620
38260SOL    HW116787   1.282   7.586   8.686 -0.7486  0.7661  0.9524
38260SOL    HW216788   1.193   7.468   8.657  1.0643 -0.1276 -1.2676
38261SOL     OW16789   0.104   1.114   3.094  0.0561  0.2455  0.6295
38261SOL    HW116790   0.131   1.031   3.133 -0.6289 -0.1583  0.2715
38261SOL    HW216791   0.009   1.106   3.084  0.1159  0.6508 -0.3946
38262SOL     OW16792   6.155   6.778   8.666 -0.2677  0.5575 -0.3774
38262SOL    HW116793   6.142   6.690   8.631 -1.7210  0.9460 -0.8444
38262SOL    HW216794   6.069   6.805   8.697  0.2480  1.6613  0.1365
38263SOL     OW16795   7.107   1.740   3.055  0.0202  0.4892  1.3117
38263SOL    HW116796   7.021   1.782   3.059  0.1182  1.0261 -0.6595
38263SOL    HW216797   7.160   1.788   3.118 -0.8295  0.9213  1.7164
38264SOL     OW16798   7.501   3.023   6.107 -0.3433  0.1072 -0.1678
38264SOL    HW116799   7.483   3.072   6.188  0.4043 -0.1266  0.1410
38264SOL    HW216800   7.576   2.967   6.128  0.6790  0.9674 -1.4089
38265SOL     OW16801  10.320   9.734   5.764  0.1998  0.2530  0.0401
38265SOL    HW116802  10.228   9.749   5.739 -0.9626 -2.1134  2.4521
38265SOL    HW216803  10.369   9.794   5.708 -2.6712  0.5775 -2.4149
38266SOL     OW16804   1.707   7.285   8.288  0.0633  0.4843  0.3587
38266SOL    HW116805   1.631   7.226   8.291 -0.0962  0.7072  0.7675
38266SOL    HW216806   1.760   7.259   8.363  0.2350  0.5404  0.2557
38267SOL     OW16807   2.777   3.821  10.609 -0.9510 -0.4531  0.5868
38267SOL    HW116808   2.826   3.855  10.534  0.2648 -2.2463  0.5075
38267SOL    HW216809   2.718   3.892  10.633 -1.9670 -0.0376 -2.5646
38268SOL     OW16810   0.318   0.297   4.252 -0.2058  0.4589  0.0376
38268SOL    HW116811   0.393   0.340   4.293  0.0853  1.9097 -1.8877
38268SOL    HW216812   0.250   0.364   4.251 -0.2752  0.3949 -1.5803
38269SOL     OW16813   7.384   8.214   0.175  0.3443 -0.2836  0.7040
38269SOL    HW116814   7.305   8.230   0.124  0.3369  1.0224  1.0917
38269SOL    HW216815   7.447   8.178   0.112 -0.2934 -0.5780  0.2233
38270SOL     OW16816   1.330   4.884   2.784 -0.4358 -0.3109  0.3222
38270SOL    HW116817   1.387   4.807   2.782  1.0995  0.7516  0.7977
38270SOL    HW216818   1.329   4.910   2.876  0.0397  0.8924  0.0109
38271SOL     OW16819  10.396   3.371  10.108  0.3646 -0.3158 -0.1666
38271SOL    HW116820  10.360   3.328  10.030 -3.9355  2.1830  0.1209
38271SOL    HW216821  10.431   3.299  10.161  0.2134 -2.4837 -2.7663
38272SOL     OW16822   0.082   5.954   7.994  0.3713 -0.0788 -0.4639
38272SOL    HW116823   0.021   5.886   7.967  0.3659 -0.4010  0.3286
38272SOL    HW216824   0.160   5.906   8.021 -0.2193  0.0924  1.6921
38273SOL     OW16825   5.154   9.256   8.864 -0.2013  0.0958 -0.0835
38273SOL    HW116826   5.188   9.344   8.882 -0.5543  0.2949 -0.3713
38273SOL    HW216827   5.138   9.218   8.950 -1.0429  0.7106  0.0443
38274SOL     OW16828   7.768   3.655   7.149  0.7198 -0.2099  0.1938
38274SOL    HW116829   7.689   3.619   7.188  1.1731 -2.2539 -0.6356
38274SOL    HW216830   7.801   3.585   7.092  4.1548 -0.2223  1.9333
38275SOL     OW16831   1.838   4.754   8.458 -0.4271 -0.3339 -0.4792
38275SOL    HW116832   1.859   4.824   8.520  0.2717 -0.7281 -0.2595
38275SOL    HW216833   1.763   4.709   8.498 -3.2432  2.3738 -2.2874
38276SOL     OW16834   0.107   0.618  10.247  0.1069 -0.4674 -0.0378
38276SOL    HW116835   0.071   0.559  10.313 -0.7046 -1.4075 -1.2486
38276SOL    HW216836   0.050   0.604  10.171  0.4268  1.2751 -0.6279
38277SOL     OW16837   6.255   9.643   3.001 -0.4898  0.0124  0.6764
38277SOL    HW116838   6.272   9.599   2.918 -0.3683  0.9457  0.1973
38277SOL    HW216839   6.337   9.686   3.023 -1.2963  2.0727 -0.1422
38278SOL     OW16840   5.310  10.593   1.648 -0.2665 -0.0356 -0.0048
38278SOL    HW116841   5.234  10.547   1.684  1.1433 -0.2155  3.0834
38278SOL    HW216842   5.283  10.620   1.560 -3.2920 -1.4572  0.3706
38279SOL     OW16843   4.034  10.471   3.553  0.2061  0.0279 -0.4691
38279SOL    HW116844   3.946  10.508   3.561 -0.8496 -1.2805 -4.1636
38279SOL    HW216845   4.051  10.431   3.638 -2.6994  0.4438  0.4112
38280SOL     OW16846   8.092   0.395   7.918  0.1714 -0.5830 -0.1244
38280SOL    HW116847   8.119   0.410   8.008 -0.6346 -0.6149  0.1303
38280SOL    HW216848   8.054   0.479   7.890 -0.7687 -0.9436  0.0114
38281SOL     OW16849   2.463   9.212   5.567 -0.4200 -0.0331  0.1470
38281SOL    HW116850   2.486   9.203   5.660  1.5259 -0.0190 -0.2761
38281SOL    HW216851   2.372   9.182   5.562 -0.1975 -1.1922  1.8666
38282SOL     OW16852  10.328   4.558   2.735  0.2144  0.2422  0.4328
38282SOL    HW116853  10.256   4.499   2.758  1.9282 -1.8306  0.8869
38282SOL    HW216854  10.330   4.622   2.806 -0.4124 -0.4216  1.0773
38283SOL     OW16855   6.002   2.228   2.391  0.0305 -0.1110  0.1320
38283SOL    HW116856   5.909   2.217   2.375  0.0068  1.3742 -1.0351
38283SOL    HW216857   6.027   2.154   2.446 -1.8459 -0.4675  0.5421
38284SOL     OW16858   8.632  10.008   9.011  0.5387  0.1767  0.4491
38284SOL    HW116859   8.564  10.068   9.042 -0.5896 -0.3209 -0.9649
38284SOL    HW216860   8.623  10.009   8.916  0.1593 -2.5824  0.3989
38285SOL     OW16861   0.977   2.458   3.132  0.2385  0.0092  0.3625
38285SOL    HW116862   1.030   2.451   3.053 -0.0121  0.0312  0.1897
38285SOL    HW216863   1.023   2.522   3.186 -0.9322  2.0008 -0.8666
38286SOL     OW16864   5.056   0.261   7.145  0.2159  0.6564 -0.2047
38286SOL    HW116865   5.057   0.168   7.125  2.1980  0.2183  1.6053
38286SOL    HW216866   4.993   0.298   7.083 -0.2755 -1.7866 -1.2787
38287SOL     OW16867   2.145   5.956   4.710 -0.1939 -0.2009 -0.4496
38287SOL    HW116868   2.061   5.999   4.724  0.0934 -0.4204  2.9635
38287SOL    HW216869   2.139   5.876   4.762  2.3040  0.0915  0.4148
38288SOL     OW16870   5.657  10.287   8.267 -0.0490 -0.2056  0.1566
38288SOL    HW116871   5.583  10.226   8.259  0.3744 -0.7549  0.3198
38288SOL    HW216872   5.702  10.282   8.183 -0.0027 -0.1369  0.1775
38289SOL     OW16873   6.945   8.094   4.167  0.0147 -0.0725 -0.0296
38289SOL    HW116874   6.937   8.039   4.089 -1.3505  0.8370 -0.5844
38289SOL    HW216875   6.957   8.182   4.132 -0.3804  0.3112  0.7837
38290SOL     OW16876   3.493   4.552   7.228 -0.1339  0.1916  0.1260
38290SOL    HW116877   3.501   4.636   7.183  0.8753  0.4396  0.7596
38290SOL    HW216878   3.438   4.570   7.304  0.2661  0.3139  0.3811
38291SOL     OW16879   0.948   2.743   5.115  0.1246 -0.0524  0.2363
38291SOL    HW116880   0.868   2.720   5.067 -0.3146 -0.2075  1.0167
38291SOL    HW216881   0.920   2.746   5.206  0.6082  1.6679  0.3596
38292SOL     OW16882   5.744   2.464  10.517  0.0346  1.0386 -0.2582
38292SOL    HW116883   5.787   2.504  10.442  0.7899  0.4203 -0.1620
38292SOL    HW216884   5.779   2.510  10.593 -0.3296  1.3031 -0.2481
38293SOL     OW16885  10.910  10.975   1.540  0.2105 -0.2937  0.1101
38293SOL    HW116886  10.854  10.919   1.594  1.2082 -0.7547  0.7061
38293SOL    HW216887  10.876  11.064   1.554 -0.1386 -0.5219  0.7406
38294SOL     OW16888   8.961   7.888   0.425  0.0821 -0.4693 -0.3661
38294SOL    HW116889   8.901   7.938   0.370 -1.0907  1.6294  2.5911
38294SOL    HW216890   8.914   7.805   0.441 -1.4530  0.5460  0.6923
38295SOL     OW16891   9.567   1.299  10.042 -0.6339 -0.3214  0.0564
38295SOL    HW116892   9.640   1.350  10.076 -1.9838  0.1860  2.3893
38295SOL    HW216893   9.554   1.332   9.953  2.1624 -0.7137 -0.6038
38296SOL     OW16894   2.422   3.048   9.195  0.0653  0.0738  0.3509
38296SOL    HW116895   2.407   2.976   9.256  0.4515  0.3885  0.8290
38296SOL    HW216896   2.345   3.048   9.138  0.1479 -0.8249  0.2321
38297SOL     OW16897   6.974  10.458   7.330 -0.1738 -0.0049 -0.1496
38297SOL    HW116898   7.015  10.504   7.257 -0.5958  1.0285  0.2374
38297SOL    HW216899   7.008  10.502   7.408 -1.1790  0.1553  0.2069
38298SOL     OW16900   6.391  10.313   8.345 -0.2708 -0.2651 -0.5559
38298SOL    HW116901   6.378  10.351   8.432  1.0282  0.1834 -0.5359
38298SOL    HW216902   6.486  10.315   8.332 -0.5572  2.7901 -3.3289
38299SOL     OW16903   2.193   9.107   9.226  0.1845  0.2383  0.6047
38299SOL    HW116904   2.214   9.194   9.193 -0.0904 -0.6577 -2.2384
38299SOL    HW216905   2.278   9.068   9.247  0.4102  0.7093  0.5802
38300SOL     OW16906   4.534   1.685   9.750 -0.1000  0.2351  0.4085
38300SOL    HW116907   4.453   1.636   9.736  1.1447 -2.0336  0.6883
38300SOL    HW216908   4.577   1.686   9.665  0.7250 -0.7989  0.7931
38301SOL     OW16909   9.642   7.385   7.053 -0.1250  0.3769 -0.3283
38301SOL    HW116910   9.609   7.303   7.088 -0.9617  0.5917 -0.5824
38301SOL    HW216911   9.580   7.451   7.084  0.2118  0.8340 -0.6069
38302SOL     OW16912   3.243   0.268   4.406  0.2165 -0.1006 -0.0073
38302SOL    HW116913   3.316   0.329   4.398 -0.7255  0.9520 -1.1260
38302SOL    HW216914   3.254   0.207   4.334 -0.8500  1.0684 -1.2271
38303SOL     OW16915   6.092   1.987   2.483  0.2642 -0.4011  0.0504
38303SOL    HW116916   6.173   1.939   2.498 -0.1238 -1.6252 -1.5388
38303SOL    HW216917   6.023   1.928   2.516 -0.0875 -0.0511 -0.0522
38304SOL     OW16918   5.694   7.540   0.979 -0.2404  0.2945 -0.5075
38304SOL    HW116919   5.655   7.454   0.966 -0.6189  0.5467 -1.0664
38304SOL    HW216920   5.771   7.540   0.921  0.9354 -0.4007  0.9860
38305SOL     OW16921   6.369   9.825   5.892  0.4764  0.5570 -0.0610
38305SOL    HW116922   6.331   9.889   5.832  2.5575  0.8627 -1.1364
38305SOL    HW216923   6.330   9.846   5.977 -0.4807  1.8671 -0.7803
38306SOL     OW16924   5.956  10.140   1.666 -0.5003  0.4062 -0.1520
38306SOL    HW116925   5.929  10.229   1.643  1.5619  0.3716 -3.3432
38306SOL    HW216926   6.036  10.152   1.716 -0.9212  0.3185  0.5620
38307SOL     OW16927   5.457  10.503   8.525  0.4265  0.4206  0.2019
38307SOL    HW116928   5.519  10.431   8.514 -0.8506 -0.6182 -0.4424
38307SOL    HW216929   5.476  10.536   8.613 -0.6227 -2.3982  1.6148
38308SOL     OW16930   4.809  10.806   8.669 -0.2194  0.2341  0.4903
38308SOL    HW116931   4.781  10.716   8.689 -1.2736  0.2043 -0.9195
38308SOL    HW216932   4.762  10.860   8.732 -0.4006 -0.1199  0.6656
38309SOL     OW16933   8.331   2.817   3.226 -0.5691  0.2628 -0.2449
38309SOL    HW116934   8.254   2.793   3.277 -0.8251  0.6165 -0.4630
38309SOL    HW216935   8.308   2.794   3.136 -0.8546  1.4087 -0.4710
38310SOL     OW16936  10.600   5.365   3.570 -0.2374 -0.1580 -0.3105
38310SOL    HW116937  10.576   5.441   3.624 -3.7212 -0.3937 -1.2947
38310SOL    HW216938  10.590   5.290   3.629 -0.8211 -0.1463 -0.3855
38311SOL     OW16939   0.720   0.898   0.712  0.1083  0.3935  0.2728
38311SOL    HW116940   0.726   0.875   0.619 -1.3737 -1.8408  0.6517
38311SOL    HW216941   0.643   0.954   0.718 -1.0799 -1.1860  0.3794
38312SOL     OW16942   0.511   2.014   3.604  0.8499  0.8831  0.6243
38312SOL    HW116943   0.481   1.966   3.527 -3.6163  2.4601  1.0963
38312SOL    HW216944   0.589   2.061   3.574  2.2731 -2.4041 -1.3064
38313SOL     OW16945   2.039   8.531   4.138  0.4562 -0.7101 -0.8651
38313SOL    HW116946   2.086   8.447   4.139 -0.3541 -1.2205  2.0678
38313SOL    HW216947   1.961   8.514   4.086  0.3842 -1.7300 -0.4454
38314SOL     OW16948   0.421   1.879   6.247 -0.1413  0.6044 -0.9759
38314SOL    HW116949   0.438   1.835   6.163  0.5182  0.0238 -0.5528
38314SOL    HW216950   0.461   1.821   6.312 -2.6615 -0.1601 -0.0120
38315SOL     OW16951   7.825   4.731   5.551  0.1450  0.1934 -0.5688
38315SOL    HW116952   7.741   4.733   5.596 -0.5175  0.5136 -1.7896
38315SOL    HW216953   7.860   4.819   5.563  0.3110  0.0648 -0.0744
38316SOL     OW16954   3.644   2.574   8.614 -0.2346  0.0159 -0.2975
38316SOL    HW116955   3.597   2.643   8.567  1.4884  2.0447  0.8044
38316SOL    HW216956   3.679   2.518   8.544 -1.0262  0.6850 -1.2616
38317SOL     OW16957   6.843   6.106   1.121 -0.1201 -0.7022 -0.0074
38317SOL    HW116958   6.808   6.078   1.205 -0.8382  1.9039  0.6372
38317SOL    HW216959   6.918   6.162   1.143  0.5393 -1.0876 -1.1647
38318SOL     OW16960   1.669   8.894   0.832 -0.2603 -0.3857 -0.0774
38318SOL    HW116961   1.648   8.984   0.806 -0.5825  0.3976  2.5705
38318SOL    HW216962   1.758   8.899   0.867 -0.1171 -1.2058 -0.3078
38319SOL     OW16963   4.697   1.038   7.757 -0.0989 -0.1039 -0.0925
38319SOL    HW116964   4.711   1.128   7.727 -1.0526 -0.3210 -1.3179
38319SOL    HW216965   4.623   1.007   7.703  0.7714 -1.8956 -0.3250
38320SOL     OW16966   3.098   3.217   4.410  0.0457 -0.5750  0.8526
38320SOL    HW116967   3.177   3.270   4.415  0.3205 -0.9123  0.1855
38320SOL    HW216968   3.129   3.130   4.383 -0.7152 -0.2544 -1.2261
38321SOL     OW16969   2.172  10.204   7.796  0.5220 -0.6257  0.1585
38321SOL    HW116970   2.097  10.145   7.791 -0.1597  0.0604  1.7126
38321SOL    HW216971   2.153  10.261   7.871  1.7489  0.7482 -0.5281
38322SOL     OW16972   3.811   6.143   1.286  0.3697  1.0208  0.1724
38322SOL    HW116973   3.729   6.107   1.252  1.1141  0.6331 -1.2421
38322SOL    HW216974   3.785   6.225   1.328 -1.1238 -0.3278  2.0959
38323SOL     OW16975  10.301   2.358   0.534 -0.3428 -0.0085 -0.0985
38323SOL    HW116976  10.246   2.360   0.456  1.9836  1.6623 -1.8636
38323SOL    HW216977  10.323   2.450   0.549  1.0549 -0.5177  1.1688
38324SOL     OW16978   3.834   4.721   6.985  0.5223 -0.3293 -0.5374
38324SOL    HW116979   3.744   4.752   6.997  0.4823  0.0707 -1.7494
38324SOL    HW216980   3.886   4.800   6.976  0.7722 -0.5802 -1.3365
38325SOL     OW16981   7.036   0.873   0.048  0.4955  0.0464 -0.1733
38325SOL    HW116982   7.105   0.927   0.085  0.7446  0.8602 -1.7391
38325SOL    HW216983   6.976   0.857   0.121  0.2262  2.7425  0.2991
38326SOL     OW16984   0.475   2.298  10.558  0.8762  0.2540 -0.0252
38326SOL    HW116985   0.488   2.392  10.574 -0.5857  0.3376  0.8514
38326SOL    HW216986   0.380   2.289  10.546  0.9662 -1.1538  0.1620
38327SOL     OW16987   2.981   6.563   8.184  0.6512  0.0854  0.4788
38327SOL    HW116988   2.964   6.472   8.160  1.2113  0.0088  0.3573
38327SOL    HW216989   3.027   6.557   8.268  0.0770  0.2865  0.8092
38328SOL     OW16990   0.730   6.671   0.241  0.9671  0.0114  0.2300
38328SOL    HW116991   0.638   6.693   0.229  1.1701  0.2699 -1.0243
38328SOL    HW216992   0.730   6.578   0.264  0.4398 -0.2111 -0.6313
38329SOL     OW16993   9.378   8.360   2.621  0.0481 -0.3020  0.7293
38329SOL    HW116994   9.426   8.285   2.585  1.2743  0.0401  1.5543
38329SOL    HW216995   9.299   8.323   2.658 -1.5040 -0.6329 -2.5753
38330SOL     OW16996   8.541   8.336   9.267 -0.0914 -0.5011  0.1099
38330SOL    HW116997   8.475   8.307   9.205  1.1279 -2.4254 -0.3505
38330SOL    HW216998   8.490   8.364   9.344 -1.6777  2.6615 -1.8723
38331SOL     OW16999  10.263   6.890   5.208 -0.4903  0.3147 -0.4057
38331SOL    HW117000  10.277   6.889   5.303  0.0340  1.4928 -0.4428
38331SOL    HW217001  10.334   6.836   5.173 -1.5313 -1.3263 -0.0664
38332SOL     OW17002   1.358  10.526   3.582  0.0991  0.3044  0.2391
38332SOL    HW117003   1.264  10.543   3.573  0.6469  2.8891 -1.4928
38332SOL    HW217004   1.385  10.580   3.656  0.5553  1.2570 -0.5998
38333SOL     OW17005   3.564   7.477   5.222  0.5815 -0.3233 -0.4126
38333SOL    HW117006   3.638   7.522   5.183 -0.5743 -0.0464 -2.4089
38333SOL    HW217007   3.597   7.389   5.242  1.8988  0.3255  0.3771
38334SOL     OW17008   0.557   4.773  10.240 -0.1824 -0.2882 -0.0975
38334SOL    HW117009   0.523   4.759  10.328 -0.0346 -1.2845 -0.1877
38334SOL    HW217010   0.504   4.716  10.185  0.5952 -0.6565 -0.4681
38335SOL     OW17011   2.387   5.971   8.261  0.1234  0.2919 -0.2815
38335SOL    HW117012   2.379   5.996   8.353  2.7284 -0.6287  0.2950
38335SOL    HW217013   2.312   5.914   8.244  1.3985 -2.4169  2.3888
38336SOL     OW17014   5.574   3.183   1.534 -0.2695  0.0531  0.4699
38336SOL    HW117015   5.561   3.219   1.622  1.0249  1.4322  0.1422
38336SOL    HW217016   5.577   3.089   1.547 -2.5685  0.0591  1.5538
38337SOL     OW17017   3.556   3.833   5.364  0.3040 -0.2414  0.2709
38337SOL    HW117018   3.628   3.816   5.425 -1.1321 -1.7703  1.6198
38337SOL    HW217019   3.520   3.917   5.393  0.6378 -0.1678  0.4852
38338SOL     OW17020   8.353   4.254   5.756  0.3095  0.6997  0.1988
38338SOL    HW117021   8.392   4.330   5.713  0.2117  0.0825 -1.0128
38338SOL    HW217022   8.261   4.256   5.731  0.0916  0.7301  0.9802
38339SOL     OW17023   6.964  10.022   5.137 -0.2767  0.2870  0.0806
38339SOL    HW117024   7.056  10.004   5.155 -0.0654 -0.1804 -1.3452
38339SOL    HW217025   6.947  10.107   5.178  1.8186  2.2357 -2.7618
38340SOL     OW17026   7.105   5.794   8.805  0.4564 -0.5524  0.1568
38340SOL    HW117027   7.199   5.813   8.808  0.4609 -0.2261 -1.2452
38340SOL    HW217028   7.066   5.858   8.864  0.9731  0.4232 -0.5341
38341SOL     OW17029   5.778   1.551   2.541 -0.2837 -0.2532  0.0935
38341SOL    HW117030   5.761   1.465   2.503  0.3458 -0.5489  0.4606
38341SOL    HW217031   5.756   1.540   2.634  1.0455 -0.4075  0.4108
38342SOL     OW17032   4.328   0.993   7.867 -0.3498  0.4014  0.2463
38342SOL    HW117033   4.356   1.025   7.781 -1.6863  0.6623 -0.1203
38342SOL    HW217034   4.261   0.927   7.847  1.0200 -1.3016  1.0453
38343SOL     OW17035   7.482   5.942   6.863  0.6438 -0.0579 -0.1006
38343SOL    HW117036   7.515   5.938   6.953 -0.0918 -1.0018  0.1438
38343SOL    HW217037   7.516   5.862   6.822 -1.7586 -1.4079  0.3431
38344SOL     OW17038   2.575   5.191   1.654 -0.3923 -0.0492 -0.0636
38344SOL    HW117039   2.621   5.109   1.673  1.0402  0.8826  0.6998
38344SOL    HW217040   2.482   5.167   1.654 -0.1285 -1.3197  2.0703
38345SOL     OW17041   6.302   6.100   4.880  0.2397 -0.1503 -0.7308
38345SOL    HW117042   6.263   6.069   4.798 -2.6616 -0.4584  0.6419
38345SOL    HW217043   6.285   6.030   4.943 -3.4340  2.4867  1.6219
38346SOL     OW17044   8.746   3.381   4.044  0.6022  0.2878 -0.8630
38346SOL    HW117045   8.663   3.332   4.046  0.0685  0.8316 -4.1537
38346SOL    HW217046   8.813   3.314   4.033  0.4888 -0.0424  0.2995
38347SOL     OW17047   5.814   3.526   3.283 -0.1816 -0.4778 -0.1928
38347SOL    HW117048   5.908   3.510   3.298  0.0009 -0.4636 -1.2007
38347SOL    HW217049   5.770   3.449   3.319  0.2277 -0.5257  0.2112
38348SOL     OW17050   2.416  10.421   0.257 -0.0873 -0.1297 -0.1175
38348SOL    HW117051   2.325  10.438   0.283 -0.0767  0.0433 -0.1968
38348SOL    HW217052   2.461  10.403   0.340 -0.5814 -2.0660 -0.2291
38349SOL     OW17053   9.066   9.792  10.253  0.1848 -0.1284 -0.4171
38349SOL    HW117054   9.129   9.819  10.186  1.6208  0.8325  1.2343
38349SOL    HW217055   9.119   9.782  10.332 -1.7581  0.6945  1.0418
38350SOL     OW17056   6.149   3.800   5.464  0.4208 -0.3980  0.2245
38350SOL    HW117057   6.080   3.734   5.457  1.4217 -1.3705 -0.8748
38350SOL    HW217058   6.192   3.800   5.378 -0.4553  2.7488 -0.3355
38351SOL     OW17059   7.683   6.273   8.842 -0.7485 -0.7251 -0.0984
38351SOL    HW117060   7.643   6.355   8.814  0.3637 -0.8601 -2.2712
38351SOL    HW217061   7.705   6.288   8.934 -1.3070  1.0935 -0.2086
38352SOL     OW17062   3.917   1.239   3.439  0.1827  0.4227 -0.2059
38352SOL    HW117063   3.950   1.310   3.495 -1.6636  0.7531  0.5245
38352SOL    HW217064   3.988   1.174   3.439  1.6099  1.9023 -0.2888
38353SOL     OW17065   9.634   0.564   8.400 -0.2228  0.2364  0.2134
38353SOL    HW117066   9.624   0.642   8.454  1.3315 -0.1617  1.1168
38353SOL    HW217067   9.577   0.581   8.324  0.6457  2.5951 -0.0048
38354SOL     OW17068  10.744   4.125   3.831 -0.2372 -1.0699 -0.0247
38354SOL    HW117069  10.774   4.213   3.850  1.7114 -1.5371 -0.6779
38354SOL    HW217070  10.693   4.099   3.907  0.7747 -0.0808  1.0192
38355SOL     OW17071   1.269   7.592   1.043  0.4544  0.1855 -0.3118
38355SOL    HW117072   1.287   7.574   0.951 -0.9018 -2.0579 -0.2061
38355SOL    HW217073   1.174   7.595   1.049  0.5328  1.3230  0.8772
38356SOL     OW17074   7.723   1.201   3.895  0.2687 -0.3051 -0.3409
38356SOL    HW117075   7.818   1.210   3.903  0.6113  0.5098 -3.7631
38356SOL    HW217076   7.689   1.290   3.908  0.4872  0.2750 -3.1172
38357SOL     OW17077   9.761   9.391   1.169 -0.0449 -0.4955  0.3699
38357SOL    HW117078   9.750   9.472   1.118  0.2444 -0.9745 -0.4789
38357SOL    HW217079   9.846   9.357   1.142 -0.1721 -1.0958  0.7046
38358SOL     OW17080   3.086   2.432   2.950 -0.1906  0.3311 -0.0415
38358SOL    HW117081   3.083   2.523   2.981  0.5045  0.7105 -1.0395
38358SOL    HW217082   3.178   2.417   2.930 -0.5216 -0.0870 -1.3298
38359SOL     OW17083   9.270   2.945   8.368  0.0506  1.1555 -0.6606
38359SOL    HW117084   9.342   2.893   8.334 -0.3502  1.0209 -1.3148
38359SOL    HW217085   9.299   2.973   8.455 -0.3344 -1.4365  0.3907
38360SOL     OW17086   7.886   9.994   1.927 -0.4175  0.4796  0.1367
38360SOL    HW117087   7.947   9.922   1.914 -0.2771  0.5493  0.4037
38360SOL    HW217088   7.925  10.046   1.997 -1.7436 -0.5521  1.7203
38361SOL     OW17089   3.207  10.269   2.760 -0.0952 -0.3229 -0.3492
38361SOL    HW117090   3.222  10.345   2.704 -2.5608 -0.7346 -1.6846
38361SOL    HW217091   3.247  10.196   2.712  3.2188  0.1343  1.4228
38362SOL     OW17092   6.195   9.162   9.679 -0.0226 -0.3963  0.4115
38362SOL    HW117093   6.200   9.257   9.681 -1.9784 -0.2524  1.7137
38362SOL    HW217094   6.210   9.135   9.770 -0.3190 -1.2539  0.2238
38363SOL     OW17095   9.716   8.715   7.535 -0.3801 -0.8385 -0.3268
38363SOL    HW117096   9.622   8.699   7.535 -0.6522  0.0037 -3.8029
38363SOL    HW217097   9.726   8.805   7.506  1.5503 -0.5704  0.9216
38364SOL     OW17098   6.517  10.076  10.827 -0.0337 -0.7055  0.4617
38364SOL    HW117099   6.611  10.087  10.810 -0.2288 -0.3371 -0.4221
38364SOL    HW217100   6.509  10.084  10.922  0.5257  1.6655  0.3609
38365SOL     OW17101   5.144   4.331   3.430 -0.4827  0.3754  0.3749
38365SOL    HW117102   5.056   4.306   3.458  0.0186 -0.2463  1.4692
38365SOL    HW217103   5.136   4.422   3.401 -2.3012 -0.7927 -3.4166
38366SOL     OW17104   2.192  10.897   7.372 -0.2932  0.6672  0.6509
38366SOL    HW117105   2.231  10.814   7.344 -3.8205 -0.7046 -0.8207
38366SOL    HW217106   2.230  10.962   7.314 -0.0424 -0.5530 -0.6085
38367SOL     OW17107   1.017   6.339   1.679  0.3690  0.2301 -0.3308
38367SOL    HW117108   0.951   6.327   1.611 -0.4160  0.2529  0.4132
38367SOL    HW217109   0.967   6.346   1.760  1.2302  1.1567  0.1419
38368SOL     OW17110   8.128  10.997   7.552  0.5991  0.5419 -0.3178
38368SOL    HW117111   8.046  11.026   7.512  0.5559  0.3975 -0.3346
38368SOL    HW217112   8.140  10.908   7.519 -0.0663 -0.0454  0.9343
38369SOL     OW17113  10.561   6.611   8.770  0.4451 -0.1873 -0.2536
38369SOL    HW117114  10.556   6.688   8.826 -0.3101  1.1342 -2.0329
38369SOL    HW217115  10.495   6.551   8.806  1.4561 -0.3013  1.5115
38370SOL     OW17116  10.254   0.609   6.908  0.3538  0.3106  0.2224
38370SOL    HW117117  10.348   0.624   6.907  0.2218  1.1404 -0.8072
38370SOL    HW217118  10.241   0.532   6.852  0.1826  1.8664 -1.9753
38371SOL     OW17119   9.283   9.418   5.594 -0.3831  0.2733  0.1499
38371SOL    HW117120   9.209   9.477   5.606  0.3795  1.1482  0.7370
38371SOL    HW217121   9.267   9.348   5.657 -0.5280  0.6544  0.5502
38372SOL     OW17122   7.965   0.379   6.706 -0.2387  0.1352  0.6880
38372SOL    HW117123   8.046   0.336   6.733 -0.2622 -0.5110 -0.2256
38372SOL    HW217124   7.897   0.312   6.716  0.0308 -0.7927 -2.6552
38373SOL     OW17125   0.737   8.378   9.294  1.0237  0.0396 -0.3240
38373SOL    HW117126   0.826   8.385   9.259  0.2475  1.9930 -2.0682
38373SOL    HW217127   0.702   8.467   9.288 -0.6487 -0.4185  1.5448
38374SOL     OW17128   3.929   4.617   5.605 -0.1981 -0.2504  0.3568
38374SOL    HW117129   4.019   4.586   5.598 -0.0916 -0.9376  3.4987
38374SOL    HW217130   3.876   4.542   5.578  0.1459 -0.5246  0.4310
38375SOL     OW17131   9.748   5.701   3.591  0.6825 -0.2655  0.2138
38375SOL    HW117132   9.681   5.710   3.659 -0.4196 -1.6862 -0.6291
38375SOL    HW217133   9.805   5.631   3.624  0.3296 -0.7363 -0.1624
38376SOL     OW17134   9.119   6.412   0.329 -0.7930  0.2643  0.5096
38376SOL    HW117135   9.150   6.468   0.401  0.2170  0.2803  0.0892
38376SOL    HW217136   9.125   6.323   0.364 -0.1757  0.2618  0.4067
38377SOL     OW17137   4.551   8.279   1.587  0.1038  0.2810 -0.9041
38377SOL    HW117138   4.470   8.243   1.550  1.1972 -1.0183 -2.1308
38377SOL    HW217139   4.546   8.257   1.680 -0.9612  0.2373 -0.9577
38378SOL     OW17140   3.408   8.572   1.175  0.2325 -0.4294  0.2349
38378SOL    HW117141   3.366   8.507   1.118  0.4473 -1.7402  1.5093
38378SOL    HW217142   3.347   8.646   1.176 -0.7339 -1.2058 -0.0849
38379SOL     OW17143   7.210   4.332   9.395  0.3347 -0.5580  0.0162
38379SOL    HW117144   7.214   4.300   9.486  1.3575 -2.0285 -0.4984
38379SOL    HW217145   7.265   4.410   9.395  1.5993 -1.3992  0.3873
38380SOL     OW17146   7.081  10.696   5.671 -0.4149  0.4343  0.2621
38380SOL    HW117147   7.161  10.675   5.624 -0.5999  4.2548 -2.1855
38380SOL    HW217148   7.013  10.646   5.626  0.0651  0.4058 -0.4541
38381SOL     OW17149   9.330   9.030   8.115 -0.2563 -0.2882  0.2521
38381SOL    HW117150   9.310   9.027   8.022  1.0009  1.0408 -0.0861
38381SOL    HW217151   9.252   9.070   8.156 -0.2526  0.3972 -0.4020
38382SOL     OW17152   5.255   7.675  10.235 -0.0417 -0.1832 -0.2000
38382SOL    HW117153   5.195   7.653  10.164 -0.9989  0.1377  0.4861
38382SOL    HW217154   5.208   7.651  10.315  0.7482  0.0600  0.3531
38383SOL     OW17155   5.191   0.834   7.464  0.3704  0.3740  0.3787
38383SOL    HW117156   5.139   0.871   7.393 -2.4944 -0.7052  1.7371
38383SOL    HW217157   5.165   0.884   7.541  0.5627 -0.8743  1.2813
38384SOL     OW17158  11.006   0.273  10.832 -0.4058  0.2736 -0.7438
38384SOL    HW117159  10.943   0.258  10.762 -0.6261 -0.8347 -0.3297
38384SOL    HW217160  11.075   0.326  10.792 -1.2930  0.9763 -1.3623
38385SOL     OW17161   9.219  10.213   3.735  0.2359 -0.2163  0.8929
38385SOL    HW117162   9.270  10.140   3.700 -1.1858 -0.5683 -0.5678
38385SOL    HW217163   9.284  10.273   3.771  1.5196 -1.5819  0.9482
38386SOL     OW17164   7.621   8.558   1.776  0.2894 -0.4981 -0.0440
38386SOL    HW117165   7.587   8.585   1.862 -1.8629  2.1090 -1.5336
38386SOL    HW217166   7.704   8.605   1.768  1.3077 -1.9972  1.1624
38387SOL     OW17167   4.601   2.219   9.093 -0.0535  0.5117 -0.5309
38387SOL    HW117168   4.617   2.254   9.181  1.6092 -1.9652  0.2505
38387SOL    HW217169   4.630   2.289   9.034 -0.0716  1.7468  0.8552
38388SOL     OW17170   9.107   7.092   0.358 -0.5624  0.1244 -0.2851
38388SOL    HW117171   9.174   7.129   0.300  0.3883  2.1400  1.9117
38388SOL    HW217172   9.041   7.161   0.365 -0.6343 -0.0508  1.0224
38389SOL     OW17173   1.911   5.657   5.468 -0.1283  0.6802  0.5994
38389SOL    HW117174   1.896   5.657   5.374  2.0142  2.0901  0.1783
38389SOL    HW217175   1.903   5.566   5.494 -1.2514  0.3351 -0.8393
38390SOL     OW17176   1.623  10.943   8.169 -0.0659 -0.2058 -0.1524
38390SOL    HW117177   1.615  10.916   8.260  1.9360 -2.3327 -0.5224
38390SOL    HW217178   1.590  11.033   8.168 -2.6533 -0.9968  2.1022
38391SOL     OW17179   3.132  10.879   8.328  0.2352 -0.1839  0.5337
38391SOL    HW117180   3.204  10.914   8.275  0.0479 -0.7799 -0.1256
38391SOL    HW217181   3.125  10.788   8.302 -2.0897  0.3283 -0.9361
38392SOL     OW17182   7.304   7.718   9.903 -0.5319 -1.1286  0.4763
38392SOL    HW117183   7.356   7.791   9.871 -3.6750  1.0616 -0.1231
38392SOL    HW217184   7.357   7.678   9.972  1.5192  1.4533  0.5313
38393SOL     OW17185   2.706   5.847   0.555 -0.3790 -0.0779  0.2391
38393SOL    HW117186   2.623   5.800   0.567 -1.5227  2.0121  0.9954
38393SOL    HW217187   2.751   5.837   0.639 -0.6908  0.3194  0.4525
38394SOL     OW17188   0.007  10.206   9.620 -0.0564 -0.0201 -0.5205
38394SOL    HW117189   0.078  10.161   9.573 -0.3131 -2.0346  0.8959
38394SOL    HW217190  -0.014  10.148   9.692 -2.2417  1.2140 -0.0905
38395SOL     OW17191   9.627   8.868   7.255 -0.0413  0.2204 -0.4063
38395SOL    HW117192   9.701   8.855   7.196 -0.2870  1.7178 -1.0923
38395SOL    HW217193   9.650   8.946   7.306 -1.2200  0.8373 -0.7836
38396SOL     OW17194   7.280   8.118   3.415  0.0956  0.4359  0.3847
38396SOL    HW117195   7.225   8.054   3.371  0.2824 -0.3217  1.2278
38396SOL    HW217196   7.235   8.201   3.402  0.0541  0.2054 -1.0484
38397SOL     OW17197   5.027   8.319   8.205 -0.0314  0.3565  0.7371
38397SOL    HW117198   4.964   8.256   8.240 -0.6117  0.5336  0.0340
38397SOL    HW217199   5.110   8.297   8.249 -0.1500 -1.0931  0.2850
38398SOL     OW17200   7.967   5.391   0.354  0.5758 -1.0552 -0.1335
38398SOL    HW117201   7.947   5.430   0.269  0.5552  0.9455  0.7290
38398SOL    HW217202   8.048   5.342   0.340  1.4184  0.4954 -0.9778
38399SOL     OW17203   3.320   1.420   9.143  0.1730  0.5198  0.3403
38399SOL    HW117204   3.261   1.452   9.075  1.6801 -0.4718 -1.5632
38399SOL    HW217205   3.392   1.483   9.145  0.4341  0.2205  0.5825
38400SOL     OW17206   8.677   7.369   0.737 -0.2147  1.0299 -0.1773
38400SOL    HW117207   8.756   7.315   0.739 -1.7254 -1.2780  1.8311
38400SOL    HW217208   8.695   7.439   0.800  0.0865  0.3046  0.5539
38401SOL     OW17209   2.713  10.634   5.589 -0.1711  0.2589 -0.2919
38401SOL    HW117210   2.761  10.704   5.545 -0.2399  0.3251 -0.2626
38401SOL    HW217211   2.694  10.571   5.519  0.9948 -0.3476 -0.0817
38402SOL     OW17212   0.926  10.633  10.859 -0.4492  0.3472 -0.0889
38402SOL    HW117213   0.913  10.601  10.948 -1.1794 -0.2830 -0.4074
38402SOL    HW217214   0.864  10.582  10.806 -1.2413  1.8747 -0.7014
38403SOL     OW17215   4.723   7.715   8.799 -0.4051  0.3791  0.4600
38403SOL    HW117216   4.791   7.702   8.732  0.5402 -0.2057  1.5000
38403SOL    HW217217   4.693   7.805   8.785 -0.7494  0.0549 -1.1978
38404SOL     OW17218   3.377   3.120   8.979 -0.0371 -0.1970  0.7958
38404SOL    HW117219   3.454   3.106   8.924  0.2747 -0.0930  1.2045
38404SOL    HW217220   3.390   3.062   9.054 -1.7105 -2.3622 -0.4603
38405SOL     OW17221   2.522   5.146   7.724 -0.4713 -0.6023  0.0935
38405SOL    HW117222   2.537   5.172   7.814  2.2539 -0.7348 -0.2614
38405SOL    HW217223   2.454   5.078   7.729 -0.4225 -0.5397  2.0110
38406SOL     OW17224   2.471   2.062   3.026  0.5651 -0.3883 -0.5765
38406SOL    HW117225   2.383   2.094   3.004 -0.3100 -1.9056  0.5198
38406SOL    HW217226   2.505   2.127   3.088 -0.3947 -0.5104  0.1125
38407SOL     OW17227   2.971   1.604   2.050  0.0528  0.1881 -0.2337
38407SOL    HW117228   2.995   1.686   2.007 -2.1133  0.1252 -1.6507
38407SOL    HW217229   3.033   1.539   2.015 -0.4282  0.5377 -1.7907
38408SOL     OW17230   0.988   4.619   9.210 -0.0087 -0.4031  0.5337
38408SOL    HW117231   0.906   4.654   9.244  1.3491  1.8602  1.7616
38408SOL    HW217232   0.964   4.537   9.167 -2.5646 -0.8931  2.6565
38409SOL     OW17233   9.884   5.782   4.979  0.3558 -0.0164  0.2266
38409SOL    HW117234   9.876   5.713   5.044 -0.4326  1.5195  1.8470
38409SOL    HW217235   9.794   5.807   4.958  0.6288  0.7177 -0.1158
38410SOL     OW17236   8.303   3.877  10.973  0.2142 -0.8068 -0.2568
38410SOL    HW117237   8.300   3.798  11.027  1.3480  0.3161  1.5602
38410SOL    HW217238   8.395   3.885  10.947 -0.2926 -1.2841 -2.4058
38411SOL     OW17239  10.226   8.176   4.099  0.5300 -0.1572 -0.1493
38411SOL    HW117240  10.224   8.236   4.174 -0.3562  2.4074 -2.0801
38411SOL    HW217241  10.184   8.224   4.028  0.1790 -2.9541 -2.0130
38412SOL     OW17242   6.271  10.901   2.935  0.3590 -0.1067  0.4982
38412SOL    HW117243   6.346  10.929   2.884  0.3670  0.5793  0.8745
38412SOL    HW217244   6.307  10.876   3.020  0.1998 -0.0427  0.5859
38413SOL     OW17245   7.489   8.662   2.440  0.1048 -0.1761  0.1857
38413SOL    HW117246   7.461   8.583   2.394 -0.1217  1.0059 -1.8367
38413SOL    HW217247   7.573   8.639   2.479 -0.1414 -1.5271 -0.0375
38414SOL     OW17248   6.867   7.631   5.861 -0.5759  0.0750 -0.3851
38414SOL    HW117249   6.899   7.563   5.920 -0.1544 -0.2227 -0.9407
38414SOL    HW217250   6.847   7.585   5.780 -1.1581  0.4757 -0.4789
38415SOL     OW17251   7.654   4.458   1.396  0.2215  0.1430  0.5972
38415SOL    HW117252   7.621   4.491   1.480  0.9642 -1.4886  1.5756
38415SOL    HW217253   7.587   4.396   1.367  0.6560 -0.4067  0.7465
38416SOL     OW17254   7.547   9.477   0.677  0.3658 -0.5885  0.1783
38416SOL    HW117255   7.624   9.474   0.620 -0.8249 -0.6737 -1.5173
38416SOL    HW217256   7.511   9.388   0.672 -1.2672  0.0939 -1.2022
38417SOL     OW17257   6.265   6.898   0.126 -0.3727  0.0462  0.0918
38417SOL    HW117258   6.237   6.807   0.126  1.1391 -0.4498 -0.1032
38417SOL    HW217259   6.185   6.948   0.113 -1.3537 -1.2009  1.1013
38418SOL     OW17260   2.454   2.185   1.911  0.6711  0.3322 -0.1293
38418SOL    HW117261   2.493   2.257   1.861 -0.0594  0.3600 -0.6827
38418SOL    HW217262   2.360   2.201   1.906  0.4863 -0.7629 -0.4355
38419SOL     OW17263   7.486   0.327   0.694 -0.6563 -0.1583  0.0972
38419SOL    HW117264   7.470   0.417   0.664  0.2372  0.5944  1.7077
38419SOL    HW217265   7.433   0.320   0.774  0.2758 -0.5873  0.6960
38420SOL     OW17266   8.542   8.496   9.932 -0.5182  0.1963  0.0878
38420SOL    HW117267   8.487   8.417   9.929 -0.5503  0.1394  1.4469
38420SOL    HW217268   8.540   8.522  10.024  0.7714  0.8840 -0.0670
38421SOL     OW17269   1.450   5.412   2.050  0.1166  0.0467  0.2149
38421SOL    HW117270   1.461   5.476   1.980  0.8070 -0.4434 -0.1414
38421SOL    HW217271   1.371   5.364   2.027  1.0535 -0.9884 -0.9520
38422SOL     OW17272   5.170   8.813   0.291 -0.2579 -0.6056 -1.2007
38422SOL    HW117273   5.220   8.894   0.301 -0.2884 -0.8307  1.5984
38422SOL    HW217274   5.200   8.775   0.209  1.9826  0.7277 -1.0594
38423SOL     OW17275   9.234   6.805   1.791  0.1410  0.4827  0.1675
38423SOL    HW117276   9.264   6.866   1.859 -1.1452  1.5129 -0.1388
38423SOL    HW217277   9.168   6.751   1.834 -0.7309  1.1865 -0.2437
38424SOL     OW17278   7.587   8.595  10.882 -0.3380  0.0021 -0.2733
38424SOL    HW117279   7.498   8.625  10.863 -0.6867  0.5147  1.8268
38424SOL    HW217280   7.575   8.513  10.930  0.5266 -2.0072 -3.2257
38425SOL     OW17281   0.403   4.967   0.537 -0.4495 -0.5777  0.4486
38425SOL    HW117282   0.446   4.989   0.620  0.4351 -0.9660  0.1056
38425SOL    HW217283   0.351   4.889   0.557 -0.7686 -0.2806  0.7970
38426SOL     OW17284   8.781   8.369   6.692 -0.0483 -0.1784  0.4701
38426SOL    HW117285   8.813   8.456   6.667 -0.3010 -0.2893 -0.2638
38426SOL    HW217286   8.724   8.343   6.619 -0.5528 -0.6476  1.0244
38427SOL     OW17287   4.146   7.831  10.897  0.2752 -0.1002 -0.2951
38427SOL    HW117288   4.073   7.875  10.940  0.3464 -0.6122  0.3817
38427SOL    HW217289   4.109   7.794  10.817 -0.2788 -0.5676  0.1675
38428SOL     OW17290   5.985  10.825   9.498  0.0902 -0.0739  0.2017
38428SOL    HW117291   6.058  10.860   9.549  0.3786  0.0483 -0.2846
38428SOL    HW217292   5.907  10.852   9.547  0.2903  1.5032 -0.2744
38429SOL     OW17293   6.714   1.432   9.100 -0.1148 -0.1901 -0.5430
38429SOL    HW117294   6.793   1.385   9.128  0.1861  0.7223  0.2055
38429SOL    HW217295   6.740   1.524   9.099 -0.9337  0.0447 -1.1339
38430SOL     OW17296   7.315   3.171   7.419 -0.4570 -0.1464 -0.7645
38430SOL    HW117297   7.264   3.091   7.434  0.6174 -0.5259  1.1244
38430SOL    HW217298   7.401   3.139   7.390 -0.2436  0.3437 -0.6711
38431SOL     OW17299   3.777   3.715   0.171  0.4947 -0.1911 -0.0469
38431SOL    HW117300   3.796   3.722   0.077  1.9216  2.1691  0.3363
38431SOL    HW217301   3.862   3.703   0.212  0.2285  1.4300  1.0944
38432SOL     OW17302   9.509  10.046   1.613 -0.5451  0.4620  0.0192
38432SOL    HW117303   9.598  10.030   1.580 -1.0434 -0.0730 -1.1127
38432SOL    HW217304   9.452  10.002   1.550 -1.5405 -1.1043  1.8943
38433SOL     OW17305   3.855   7.560   3.175  0.4624 -0.2873  0.5404
38433SOL    HW117306   3.783   7.587   3.232 -1.6683 -1.4673 -1.4109
38433SOL    HW217307   3.855   7.465   3.180  0.3621 -0.4138 -1.1882
38434SOL     OW17308   3.213   8.573   2.348 -0.2903 -0.3561  0.4022
38434SOL    HW117309   3.303   8.598   2.329 -0.7220 -0.6678 -2.5231
38434SOL    HW217310   3.171   8.654   2.378  0.6555  0.0775  0.5831
38435SOL     OW17311   5.500   2.487   9.836 -0.0001 -0.5376 -0.2126
38435SOL    HW117312   5.531   2.510   9.924 -0.6918  1.1227 -0.3706
38435SOL    HW217313   5.469   2.569   9.799  0.1759 -1.2348 -1.9929
38436SOL     OW17314   7.473   3.156   3.249 -0.5452 -0.4209 -0.6359
38436SOL    HW117315   7.378   3.147   3.238 -1.0793  0.4321  2.3101
38436SOL    HW217316   7.483   3.201   3.333  2.4982 -0.8219 -0.6715
38437SOL     OW17317   7.457   6.689   9.821 -0.4775  0.2942 -0.2155
38437SOL    HW117318   7.513   6.766   9.808 -1.3714  1.3213  1.6005
38437SOL    HW217319   7.369   6.721   9.801 -0.6642 -0.7618 -1.1410
38438SOL     OW17320   2.029   7.922   3.257 -0.2944  0.0028 -0.3778
38438SOL    HW117321   2.077   7.957   3.182 -0.6975  1.2530 -0.0676
38438SOL    HW217322   2.066   7.968   3.333 -1.5732  0.5655 -0.0765
38439SOL     OW17323   7.773   5.460   9.933  0.6496 -0.3396 -0.3696
38439SOL    HW117324   7.807   5.522   9.868 -0.5865  0.7996  0.0277
38439SOL    HW217325   7.686   5.438   9.901  1.4928 -2.8581 -1.1371
38440SOL     OW17326   4.648   9.963   9.357 -0.0181 -0.0304 -0.3487
38440SOL    HW117327   4.741   9.973   9.373  0.2453 -2.0122 -0.3890
38440SOL    HW217328   4.615   9.914   9.433 -1.3094  1.7589  0.3095
38441SOL     OW17329   5.336   2.280   0.447  0.1095  0.4504 -0.8415
38441SOL    HW117330   5.356   2.232   0.527  0.4737 -1.8925 -2.2320
38441SOL    HW217331   5.328   2.371   0.475 -1.3933 -0.4493  2.1220
38442SOL     OW17332   2.479   2.694   7.124  0.1180  0.8647 -0.0993
38442SOL    HW117333   2.391   2.684   7.160  0.2446 -0.1000 -0.0440
38442SOL    HW217334   2.522   2.611   7.141  0.9878  1.2629 -0.2943
38443SOL     OW17335   8.092   3.234   3.104  0.2951 -0.1074  0.1027
38443SOL    HW117336   8.157   3.290   3.063  1.5498 -1.7502 -0.2415
38443SOL    HW217337   8.081   3.161   3.043 -0.6478 -0.6823  0.9300
38444SOL     OW17338   4.905   6.903   3.855  0.7392  0.0308 -0.0731
38444SOL    HW117339   4.883   6.972   3.918 -0.8810 -1.1029  0.6650
38444SOL    HW217340   4.974   6.852   3.899 -1.0870 -1.3723  1.3484
38445SOL     OW17341   2.303   3.889   9.483 -0.7669 -0.1741  0.0187
38445SOL    HW117342   2.332   3.955   9.546 -1.0144  0.2857 -0.3484
38445SOL    HW217343   2.269   3.818   9.537 -0.4491 -0.0254  0.4179
38446SOL     OW17344   8.407   2.237   7.276  0.2467  0.4458 -0.1501
38446SOL    HW117345   8.345   2.231   7.203 -0.3277 -3.4197  0.4593
38446SOL    HW217346   8.352   2.235   7.354  1.0108  0.2651  0.3929
38447SOL     OW17347   8.749   1.412   6.256  0.3281 -0.0008  0.5773
38447SOL    HW117348   8.684   1.467   6.211 -0.2229 -0.0029  1.3643
38447SOL    HW217349   8.698   1.361   6.318  1.1280  0.2431  1.4441
38448SOL     OW17350  10.719  10.021   1.084 -0.6499 -0.1413 -0.6948
38448SOL    HW117351  10.741  10.052   0.996 -0.4241  0.4894 -0.4249
38448SOL    HW217352  10.787   9.958   1.105  0.0700  0.6984 -0.4541
38449SOL     OW17353   0.915   0.816   9.740  0.2353  0.1710  0.2398
38449SOL    HW117354   0.848   0.868   9.785  0.4669 -0.6596  1.5990
38449SOL    HW217355   0.961   0.879   9.685 -0.8717  0.9845  0.2191
38450SOL     OW17356   9.316   1.848   3.784 -0.5131 -0.4049 -0.7945
38450SOL    HW117357   9.300   1.760   3.749  1.8089 -0.9980 -0.5649
38450SOL    HW217358   9.344   1.899   3.709  2.5951 -1.1667 -0.2992
38451SOL     OW17359  10.975   4.747   9.794 -0.6425 -0.5712 -0.0768
38451SOL    HW117360  10.927   4.829   9.808 -1.0421 -0.3717 -2.2153
38451SOL    HW217361  10.910   4.688   9.755  0.2588 -1.0556 -0.8982
38452SOL     OW17362   4.204   5.909   6.067 -0.1576 -0.6024 -0.6418
38452SOL    HW117363   4.141   5.912   6.139  0.3196  0.2557 -0.2267
38452SOL    HW217364   4.282   5.952   6.103  0.8329 -2.0459 -0.9766
38453SOL     OW17365   4.497   4.211   3.330  0.2309 -0.2373 -0.0873
38453SOL    HW117366   4.588   4.182   3.337  0.2402  0.1891  2.2973
38453SOL    HW217367   4.502   4.293   3.282  0.9233 -0.8578 -1.1337
38454SOL     OW17368   2.213  10.950   3.766 -0.5937 -0.3625  0.4612
38454SOL    HW117369   2.244  11.026   3.817 -0.2775 -0.4674  0.4259
38454SOL    HW217370   2.283  10.932   3.705 -0.2396 -1.2994  1.1247
38455SOL     OW17371   4.399   4.139  10.078  0.0901 -0.1244 -0.2740
38455SOL    HW117372   4.462   4.080  10.037 -0.0894 -1.4064  1.2200
38455SOL    HW217373   4.314   4.107  10.048  0.0530  0.5287 -0.9004
38456SOL     OW17374   7.992  10.635   8.539  0.1296 -0.2058 -0.1226
38456SOL    HW117375   8.027  10.547   8.548 -1.1036 -0.9038 -1.6070
38456SOL    HW217376   8.038  10.686   8.605  1.5688 -1.7378  0.1360
38457SOL     OW17377  10.761   0.010   2.308  0.5975 -0.3629 -0.3469
38457SOL    HW117378  10.792   0.026   2.219 -0.0883 -0.0823 -0.5410
38457SOL    HW217379  10.808   0.074   2.362  0.8575 -0.3922 -0.5357
38458SOL     OW17380   0.704   8.901   2.527 -0.2589 -0.1677  0.4480
38458SOL    HW117381   0.683   8.820   2.574  0.2100  0.7295  2.3014
38458SOL    HW217382   0.774   8.877   2.467 -1.8557 -1.6823 -0.9299
38459SOL     OW17383   3.024   2.976   9.163  0.1200 -0.0828  0.1987
38459SOL    HW117384   3.002   2.887   9.190  1.1451 -0.5021 -0.2535
38459SOL    HW217385   3.077   2.964   9.084  0.9425  0.8870  0.5771
38460SOL     OW17386   3.755   6.271  10.593 -0.1291 -0.0662  0.2422
38460SOL    HW117387   3.836   6.318  10.571  0.3089 -1.4931 -1.3772
38460SOL    HW217388   3.685   6.334  10.574  0.5203  0.5985  0.0010
38461SOL     OW17389   8.977   2.027   8.287 -0.2711  0.2649  0.0452
38461SOL    HW117390   8.947   2.113   8.258 -1.0565  0.1297  0.4064
38461SOL    HW217391   8.984   1.975   8.207  5.1207  1.9608 -0.9668
38462SOL     OW17392   5.085   2.131   3.555 -0.3317  0.2879  0.3961
38462SOL    HW117393   5.166   2.085   3.575  1.0641  1.9613 -1.0305
38462SOL    HW217394   5.066   2.107   3.464 -2.6150 -1.6594  1.3061
38463SOL     OW17395   5.525   3.774   5.117 -0.1321 -0.1078 -0.3478
38463SOL    HW117396   5.434   3.747   5.101 -0.2073 -0.9419  1.3601
38463SOL    HW217397   5.518   3.844   5.182  0.5254 -1.8556  1.7279
38464SOL     OW17398   4.184   4.273   9.839  0.5702 -0.0426 -0.0272
38464SOL    HW117399   4.211   4.338   9.904 -1.4573 -0.3820  1.2334
38464SOL    HW217400   4.121   4.217   9.885 -1.3101 -0.0237 -2.3907
38465SOL     OW17401   3.128   5.851   1.838 -0.1819  0.8667  0.0792
38465SOL    HW117402   3.209   5.841   1.888 -0.4492  1.8728  0.7704
38465SOL    HW217403   3.105   5.763   1.809  0.6302  0.4321  0.7268
38466SOL     OW17404   9.129   5.749   6.904 -0.1175 -0.3309  0.2741
38466SOL    HW117405   9.137   5.716   6.815  2.2224  0.0919  0.2702
38466SOL    HW217406   9.060   5.816   6.899  1.7097  1.5568 -1.8769
38467SOL     OW17407   8.602   9.913   3.744  0.6206 -0.1803 -0.2353
38467SOL    HW117408   8.530   9.938   3.802  0.9315 -2.0887  1.0425
38467SOL    HW217409   8.681   9.946   3.788  0.7054  0.1590 -0.6315
38468SOL     OW17410   4.647   5.571   6.870 -0.1068  0.2314 -0.4016
38468SOL    HW117411   4.695   5.572   6.953 -1.3465  1.9102  0.3546
38468SOL    HW217412   4.715   5.555   6.804  0.6932 -3.1356  0.9642
38469SOL     OW17413   3.352   6.761   2.775  0.3401  0.0659  0.1314
38469SOL    HW117414   3.439   6.783   2.741  0.0800  0.0421 -0.5709
38469SOL    HW217415   3.314   6.844   2.801  0.8953 -0.0121  1.2525
38470SOL     OW17416   5.909   9.078   8.161  0.0324 -0.0613  0.2366
38470SOL    HW117417   5.935   9.022   8.234 -0.9676 -0.0510  0.6178
38470SOL    HW217418   5.875   9.158   8.203 -0.3732  0.0206 -0.2402
38471SOL     OW17419   3.387  10.798   1.994 -0.0533 -0.1175 -0.4622
38471SOL    HW117420   3.364  10.715   1.952  1.2555 -0.5027 -0.4814
38471SOL    HW217421   3.474  10.819   1.958  0.4654  0.2839  0.9782
38472SOL     OW17422   8.597   4.529   5.886 -0.0670  0.0121 -0.0542
38472SOL    HW117423   8.571   4.461   5.824 -3.0443  0.0004  1.0247
38472SOL    HW217424   8.590   4.611   5.836  0.3644 -0.2212 -0.4967
38473SOL     OW17425   7.594   2.592   2.812  0.3732 -0.2354 -0.3731
38473SOL    HW117426   7.601   2.687   2.819  1.7167 -0.3288 -0.2881
38473SOL    HW217427   7.640   2.558   2.888  0.4279 -0.9640 -0.7201
38474SOL     OW17428   5.652   5.856  10.786  0.2523 -0.5208  0.0247
38474SOL    HW117429   5.732   5.847  10.734  0.1282 -1.5510 -0.0272
38474SOL    HW217430   5.620   5.766  10.794 -1.3957 -0.0410 -0.7463
38475SOL     OW17431   4.915  10.697   9.326  0.0404  0.5544 -1.0676
38475SOL    HW117432   4.855  10.722   9.396  0.1919  0.1569 -0.7893
38475SOL    HW217433   4.899  10.603   9.313  0.0566  0.6123 -1.5246
38476SOL     OW17434   6.574   1.272   2.738 -0.6048  0.8182 -0.0820
38476SOL    HW117435   6.606   1.321   2.662  0.5059 -1.0570 -0.9052
38476SOL    HW217436   6.482   1.256   2.720 -0.6549  1.4727 -0.4210
38477SOL     OW17437   3.947   2.583   1.831 -0.0307 -0.5839 -0.4364
38477SOL    HW117438   3.867   2.588   1.882  1.0339 -0.0309  1.2702
38477SOL    HW217439   3.937   2.649   1.763  0.0310  1.3797  1.3851
38478SOL     OW17440   9.415   8.843   2.292  0.1140 -0.1631  0.3002
38478SOL    HW117441   9.504   8.830   2.258 -0.2104  0.8129 -1.0141
38478SOL    HW217442   9.418   8.808   2.381  1.8964  0.1358  0.4038
38479SOL     OW17443   7.988   8.049   5.438  0.0795  0.7615 -0.2388
38479SOL    HW117444   7.980   8.131   5.390  0.2287  0.5124 -0.6925
38479SOL    HW217445   7.922   8.056   5.508 -3.0836 -0.5302 -2.8588
38480SOL     OW17446   2.638   6.082   5.085 -0.2535 -0.1841 -0.4604
38480SOL    HW117447   2.602   6.021   5.022 -1.8693  0.5312 -0.2979
38480SOL    HW217448   2.630   6.168   5.043  1.0888  0.0417 -0.3089
38481SOL     OW17449   6.357   3.585  10.759 -0.1941 -0.3935  0.1887
38481SOL    HW117450   6.282   3.554  10.709 -0.3426 -1.1471  0.8600
38481SOL    HW217451   6.422   3.516  10.750 -0.1076 -0.3904  0.7828
38482SOL     OW17452   2.731   7.047   9.962 -0.0900  0.2842  0.3342
38482SOL    HW117453   2.791   7.116   9.990 -0.0894  0.7649 -0.8101
38482SOL    HW217454   2.731   6.985  10.035  0.2493  1.2647  1.2016
38483SOL     OW17455   8.179   2.329   0.012  0.2058 -0.2229 -0.4248
38483SOL    HW117456   8.083   2.323   0.009  0.1844  0.0789 -3.7570
38483SOL    HW217457   8.208   2.239   0.021 -0.3718 -0.4117 -0.3898
38484SOL     OW17458   7.723   8.903   7.044  0.2260 -0.0622  0.1473
38484SOL    HW117459   7.792   8.970   7.041  0.2932 -0.0760  1.0435
38484SOL    HW217460   7.767   8.825   7.076 -0.2379 -0.0160  0.9278
38485SOL     OW17461   9.872   0.207   1.426 -0.4137  0.2209  0.2352
38485SOL    HW117462   9.836   0.147   1.491  0.6005  1.8149  2.4022
38485SOL    HW217463   9.854   0.165   1.342 -2.6226 -1.4978  1.4549
38486SOL     OW17464   1.652   2.272   4.552  0.8752  0.1772 -0.0201
38486SOL    HW117465   1.581   2.208   4.561  0.8996  0.1521 -0.0061
38486SOL    HW217466   1.676   2.267   4.459  0.0062  1.0940 -0.3152
38487SOL     OW17467  11.032   4.536   4.782  0.0632  0.3437  0.3808
38487SOL    HW117468  11.058   4.627   4.764  0.0378  0.4600  0.9106
38487SOL    HW217469  11.057   4.488   4.703 -2.3882  1.2703 -1.0606
38488SOL     OW17470   4.893   6.774   0.487 -0.1561 -0.3274 -0.0383
38488SOL    HW117471   4.986   6.770   0.506 -0.2063 -0.3579  0.2026
38488SOL    HW217472   4.878   6.865   0.461 -0.2019 -0.1263  0.6736
38489SOL     OW17473   2.977   6.406  10.015 -0.2108 -0.1962 -0.4219
38489SOL    HW117474   3.069   6.413   9.989 -0.0279 -0.6751  0.0768
38489SOL    HW217475   2.980   6.406  10.111 -0.7454 -0.0458 -0.4025
38490SOL     OW17476   9.500   9.549   2.653  0.3723  0.1251  0.0061
38490SOL    HW117477   9.530   9.602   2.579  1.3543 -3.5817 -2.4782
38490SOL    HW217478   9.404   9.556   2.650  0.3962  0.0484 -1.6150
38491SOL     OW17479  10.456  10.420   4.739  0.0940 -0.7021  0.6709
38491SOL    HW117480  10.502  10.410   4.823 -0.2615 -1.8350  0.7370
38491SOL    HW217481  10.384  10.357   4.743 -1.0042  0.4673  0.2334
38492SOL     OW17482   9.447   9.281   5.006 -0.2267 -0.3387  0.0350
38492SOL    HW117483   9.428   9.372   5.025 -1.1737 -0.3482 -0.8053
38492SOL    HW217484   9.370   9.233   5.037  0.0878 -0.8111  0.0960
38493SOL     OW17485   5.858   5.337   1.309  0.6835  0.3973  0.0125
38493SOL    HW117486   5.867   5.246   1.282  1.7166  0.5611 -0.2202
38493SOL    HW217487   5.907   5.387   1.244 -1.3284  1.3101 -0.8833
38494SOL     OW17488   2.693   8.700   8.572 -0.1785 -0.2226  0.0291
38494SOL    HW117489   2.770   8.748   8.602  1.6351 -2.2557 -1.0582
38494SOL    HW217490   2.694   8.619   8.623 -1.5857 -0.3228 -0.0685
38495SOL     OW17491   0.949   4.424   7.085  0.0170  0.6957  0.1765
38495SOL    HW117492   0.980   4.494   7.026  1.7538  0.7246  1.0416
38495SOL    HW217493   0.868   4.458   7.122 -1.2776  0.5689 -2.3321
38496SOL     OW17494  10.939   5.563   4.440 -0.3402 -0.4637 -0.6055
38496SOL    HW117495  10.884   5.501   4.487 -0.1800  0.0589  0.2895
38496SOL    HW217496  10.896   5.575   4.355 -0.9529 -0.9588 -0.3641
38497SOL     OW17497   3.142  10.783   6.311 -0.0993  0.2603  0.3027
38497SOL    HW117498   3.075  10.841   6.348 -0.4150  0.5387 -0.6518
38497SOL    HW217499   3.096  10.736   6.241  0.3518 -0.5921  0.5643
38498SOL     OW17500   1.628   9.940   0.387  0.0641 -0.2148 -0.3803
38498SOL    HW117501   1.580   9.929   0.469 -0.1959  2.1643 -0.1598
38498SOL    HW217502   1.624   9.853   0.346 -3.0994 -0.5520  0.3414
38499SOL     OW17503   2.676   1.885  10.632 -0.1647  0.1145  0.2436
38499SOL    HW117504   2.699   1.793  10.648 -0.3875 -0.2431 -1.2664
38499SOL    HW217505   2.665   1.923  10.719  0.5920 -1.1209  0.9119
38500SOL     OW17506   8.518   5.859   8.178 -0.1463  0.1981 -0.5167
38500SOL    HW117507   8.426   5.881   8.194  0.3444  1.2053  1.1288
38500SOL    HW217508   8.515   5.767   8.149 -1.6791  0.2937 -0.7741
38501SOL     OW17509   1.014   9.003   4.611  0.2066 -0.6589 -0.2327
38501SOL    HW117510   0.923   8.995   4.638  0.5645 -0.3714  1.1196
38501SOL    HW217511   1.016   8.965   4.523 -1.2078 -0.6646 -0.2853
38502SOL     OW17512   7.445   2.059   9.081  0.4092  0.1008  0.1653
38502SOL    HW117513   7.459   2.042   8.988 -1.1273  1.5503 -0.3676
38502SOL    HW217514   7.364   2.012   9.102 -1.1884  2.5719 -0.1409
38503SOL     OW17515   4.886   4.906   1.155 -0.8307  0.5058 -0.4182
38503SOL    HW117516   4.849   4.856   1.082 -1.2784 -0.5203  0.4886
38503SOL    HW217517   4.921   4.986   1.114  0.2144 -0.6842 -1.9663
38504SOL     OW17518   3.797   1.396   4.086  0.0204  0.3688  0.6558
38504SOL    HW117519   3.802   1.319   4.143 -1.4007 -0.1850  0.0907
38504SOL    HW217520   3.708   1.429   4.097  0.2385  1.2300 -0.0075
38505SOL     OW17521   4.727   8.319   3.974  0.1197 -0.3417 -0.0233
38505SOL    HW117522   4.721   8.391   4.036 -0.8896  0.2733 -0.8124
38505SOL    HW217523   4.820   8.296   3.972  0.4633  0.9899  0.1880
38506SOL     OW17524   7.697   9.369   9.618 -0.6289  0.4455  0.1815
38506SOL    HW117525   7.685   9.277   9.641 -1.0888  0.4202 -0.1436
38506SOL    HW217526   7.610   9.398   9.591 -0.2274  0.6319 -0.9518
38507SOL     OW17527   2.324   8.536   8.694  0.4999  0.1837 -0.5126
38507SOL    HW117528   2.254   8.559   8.756  0.2541  2.3565 -1.4880
38507SOL    HW217529   2.403   8.535   8.748 -0.0416 -0.6669  0.3055
38508SOL     OW17530   2.363   3.415   8.313 -0.4089  0.0565  0.0088
38508SOL    HW117531   2.373   3.354   8.240  0.3447  0.1509  0.0284
38508SOL    HW217532   2.319   3.491   8.274  0.6481  0.4170 -0.5357
38509SOL     OW17533   2.742   3.978   0.658  0.0013  0.0729  0.2144
38509SOL    HW117534   2.659   3.934   0.637 -0.7974  0.7001  1.8655
38509SOL    HW217535   2.778   4.004   0.573 -0.6422 -1.6948 -0.6484
38510SOL     OW17536   4.269   6.465   3.846  0.4900 -0.0323 -0.2378
38510SOL    HW117537   4.204   6.421   3.902  0.9055 -0.1622  0.1463
38510SOL    HW217538   4.298   6.397   3.786  1.4818 -0.4341  0.6628
38511SOL     OW17539   9.771   0.038   8.584 -0.0656 -0.6178 -0.7378
38511SOL    HW117540   9.846  -0.020   8.595 -0.7856 -1.3526  0.5487
38511SOL    HW217541   9.733   0.013   8.500 -0.4207 -2.0961 -0.1511
38512SOL     OW17542   9.664  10.747   9.519  0.3400 -0.0861 -0.1103
38512SOL    HW117543   9.666  10.838   9.491  2.8475 -0.0372 -0.0205
38512SOL    HW217544   9.603  10.704   9.459  0.8969  1.2034 -1.6610
38513SOL     OW17545  10.859   6.344   1.518  0.6263 -0.5879  0.1840
38513SOL    HW117546  10.809   6.414   1.477  0.3661 -0.4122  0.7974
38513SOL    HW217547  10.903   6.385   1.592  0.9013 -0.9524  0.2276
38514SOL     OW17548  10.507   8.196   5.095  0.0665 -0.0455  0.0728
38514SOL    HW117549  10.455   8.139   5.151 -0.9604  0.5314 -0.2688
38514SOL    HW217550  10.519   8.276   5.147 -1.1445  0.6080 -0.6150
38515SOL     OW17551   2.937   7.995   0.016 -0.2518  0.3189  0.0876
38515SOL    HW117552   2.864   8.017  -0.042  0.2566 -0.6580 -0.9851
38515SOL    HW217553   3.015   8.017  -0.035  0.2542  2.2223  1.5650
38516SOL     OW17554   7.777   8.935   5.100  0.0776 -0.5059 -0.0963
38516SOL    HW117555   7.759   8.849   5.138  0.8987 -2.6008 -3.8647
38516SOL    HW217556   7.866   8.955   5.127  0.5573 -1.7947 -0.6272
38517SOL     OW17557   6.219   1.960   9.575  0.0647  0.0152 -0.4738
38517SOL    HW117558   6.212   2.029   9.640  0.1793  0.6925 -1.1691
38517SOL    HW217559   6.154   1.895   9.602  0.6690 -0.0917  0.7545
38518SOL     OW17560  10.257   9.724   6.417  0.4281  1.0856  0.5062
38518SOL    HW117561  10.231   9.764   6.333 -3.0458  0.1286  0.9469
38518SOL    HW217562  10.292   9.639   6.393  0.3158  1.1822 -0.0159
38519SOL     OW17563  10.398  10.741   8.157 -0.1585  0.3761  0.1312
38519SOL    HW117564  10.454  10.701   8.224  0.8960  0.8747 -0.4307
38519SOL    HW217565  10.430  10.706   8.074 -0.1398  1.2962 -0.2617
38520SOL     OW17566   5.577   2.009   1.114  0.0683 -0.6670  0.5124
38520SOL    HW117567   5.611   2.049   1.034 -0.5703 -2.1281 -0.5226
38520SOL    HW217568   5.482   2.007   1.102 -0.0277 -1.0038  1.2684
38521SOL     OW17569  10.261   6.417   9.235  0.0708  0.0801 -0.1198
38521SOL    HW117570  10.356   6.432   9.227  0.0347  1.2854  1.2286
38521SOL    HW217571  10.228   6.422   9.146  1.1981  0.3189 -0.5423
38522SOL     OW17572  10.417   4.894   2.510 -0.2343 -0.2425 -0.1733
38522SOL    HW117573  10.328   4.864   2.529  0.3114 -1.6300  0.3563
38522SOL    HW217574  10.463   4.887   2.594  0.5457 -0.2191 -0.5885
38523SOL     OW17575   5.965   8.742   3.278 -0.2064 -0.1929 -0.0229
38523SOL    HW117576   5.994   8.750   3.187  0.4305  1.4230  0.3033
38523SOL    HW217577   5.925   8.826   3.299 -2.3172 -1.2712  0.5548
38524SOL     OW17578   2.442   9.880   6.904 -0.5255 -0.0828 -0.6598
38524SOL    HW117579   2.452   9.785   6.903 -0.7278 -0.1575  1.3624
38524SOL    HW217580   2.456   9.906   6.813  0.1209 -1.9741 -1.1460
38525SOL     OW17581   6.649   4.531   5.026  0.1936  0.3401 -0.1136
38525SOL    HW117582   6.737   4.545   5.060  0.1523 -1.7463  1.0152
38525SOL    HW217583   6.663   4.491   4.940  0.2955  2.3877 -1.1047
38526SOL     OW17584   6.042   7.942  10.543  0.3135 -0.3492 -0.0179
38526SOL    HW117585   6.109   7.953  10.610 -0.0067 -0.4679  0.3264
38526SOL    HW217586   5.965   7.989  10.577 -0.1695 -1.2472  0.1713
38527SOL     OW17587   4.939   6.131   1.581 -0.5287 -0.3850  0.1101
38527SOL    HW117588   4.976   6.211   1.545 -0.4329  0.9788  2.9151
38527SOL    HW217589   4.845   6.141   1.570 -0.4676 -0.2596 -0.2823
38528SOL     OW17590   7.243   8.658   4.357  0.2107  0.0901 -0.0105
38528SOL    HW117591   7.197   8.740   4.372 -1.0658 -0.8741  1.7413
38528SOL    HW217592   7.253   8.653   4.262  1.4170  2.8044 -0.1088
38529SOL     OW17593  10.496   1.365  10.305 -0.4011 -0.6356 -0.2922
38529SOL    HW117594  10.466   1.441  10.255  0.4880  1.0645  1.5922
38529SOL    HW217595  10.425   1.301  10.297 -0.5506 -0.2438 -3.1470
38530SOL     OW17596   8.150   3.923   2.289 -0.2686  0.0427  0.1271
38530SOL    HW117597   8.166   3.885   2.203 -0.7396 -0.1519  0.1238
38530SOL    HW217598   8.172   4.016   2.278  0.0889 -0.0643 -0.0831
38531SOL     OW17599   0.967   0.711   2.731  0.2413  0.4685 -0.4305
38531SOL    HW117600   0.892   0.710   2.671  0.7847  1.9337 -1.1835
38531SOL    HW217601   0.938   0.661   2.807 -0.6356 -1.0700 -1.7163
38532SOL     OW17602   6.094   7.520   3.747 -0.0389  0.1601  0.0049
38532SOL    HW117603   6.142   7.467   3.811 -0.3783  1.3717  1.3340
38532SOL    HW217604   6.002   7.508   3.771 -0.0743  2.6326  1.5216
38533SOL     OW17605   1.726   8.457   2.115 -0.1766  0.0267 -0.1203
38533SOL    HW117606   1.821   8.459   2.102 -0.1824  0.8976 -0.0977
38533SOL    HW217607   1.704   8.364   2.112  0.5524 -0.1380 -1.0639
38534SOL     OW17608   0.027   9.944   6.342 -0.3100 -0.4310  0.0422
38534SOL    HW117609   0.096   9.886   6.374  0.5816  1.0715  0.9700
38534SOL    HW217610   0.020   9.924   6.249 -1.3993 -3.3445  0.6224
38535SOL     OW17611   5.010   0.432   1.118  0.0360  0.0827  0.0881
38535SOL    HW117612   4.992   0.526   1.119  0.7830  0.2275  1.5502
38535SOL    HW217613   4.958   0.397   1.190  0.3280 -0.5138  0.0105
38536SOL     OW17614   3.113   8.712  11.013 -0.2304 -0.0366  0.0349
38536SOL    HW117615   3.096   8.677  10.926 -0.4163  1.9827 -0.7983
38536SOL    HW217616   3.046   8.779  11.026  0.3625  0.3438  1.3447
38537SOL     OW17617   4.322   3.156   2.844 -0.2677 -0.4135 -0.2771
38537SOL    HW117618   4.287   3.241   2.815 -0.4388  0.5538  2.4708
38537SOL    HW217619   4.408   3.151   2.802 -1.3283 -0.2005 -2.6416
38538SOL     OW17620   8.276   1.015   4.072 -0.5757  0.0556  0.1995
38538SOL    HW117621   8.267   1.061   3.988 -1.1165  3.7549  2.0472
38538SOL    HW217622   8.186   0.997   4.098 -0.3687 -2.1386 -0.4348
38539SOL     OW17623   1.201   7.550   9.639  0.5999  0.2827 -0.4139
38539SOL    HW117624   1.180   7.594   9.556  0.6980 -0.3897 -0.8044
38539SOL    HW217625   1.292   7.571   9.655  0.7294 -0.0004 -0.7506
38540SOL     OW17626   1.021   6.738   7.751  0.1068  0.2170  0.7093
38540SOL    HW117627   0.959   6.745   7.823 -0.6926 -0.4127  0.0889
38540SOL    HW217628   1.090   6.680   7.784 -1.0558 -1.3677  0.4377
38541SOL     OW17629   3.271   3.822   8.062  0.5448  0.0369  0.3319
38541SOL    HW117630   3.294   3.830   7.969  1.9123  0.3272  0.6694
38541SOL    HW217631   3.331   3.881   8.106  0.4582 -0.7064  1.4791
38542SOL     OW17632   2.713   5.576   9.304  0.1399  0.4638 -0.0712
38542SOL    HW117633   2.783   5.606   9.246 -1.1451  2.2920 -0.8163
38542SOL    HW217634   2.736   5.487   9.327  1.4000  0.1250 -2.3573
38543SOL     OW17635   6.149   2.265   9.335 -0.1719 -0.4558 -0.2831
38543SOL    HW117636   6.098   2.301   9.263 -1.1376 -0.6258  0.2934
38543SOL    HW217637   6.109   2.302   9.414  1.2853  0.2641  0.1576
38544SOL     OW17638   9.285   0.773   8.358 -0.0076  0.1717 -0.2241
38544SOL    HW117639   9.242   0.720   8.292 -1.1553  0.4182  0.3102
38544SOL    HW217640   9.255   0.737   8.442  0.9002  0.2906  0.1696
38545SOL     OW17641   2.911   2.698   4.127 -0.0340 -0.0129  0.3227
38545SOL    HW117642   2.912   2.645   4.047  1.0509  0.5133 -0.0230
38545SOL    HW217643   2.821   2.730   4.133 -0.3318 -0.7059 -0.2526
38546SOL     OW17644  10.573   8.096  10.215  0.3742 -0.3838  0.1228
38546SOL    HW117645  10.498   8.135  10.260  0.6285 -1.0861  1.2000
38546SOL    HW217646  10.606   8.030  10.276  2.2779  0.3522 -0.0513
38547SOL     OW17647   8.293   7.383   9.372  0.0178  0.1315  0.3537
38547SOL    HW117648   8.311   7.330   9.295 -0.8218 -0.2109  0.3922
38547SOL    HW217649   8.201   7.407   9.365 -0.2846 -0.5613  1.6500
38548SOL     OW17650   5.897   1.428   6.238 -0.3112  0.0633 -0.1918
38548SOL    HW117651   5.837   1.475   6.296  0.6575 -0.4723  1.3061
38548SOL    HW217652   5.902   1.340   6.275 -2.1925 -1.3713 -3.0223
38549SOL     OW17653   9.222   7.591   1.674 -0.7365 -0.4851  0.0292
38549SOL    HW117654   9.292   7.530   1.649 -0.1213 -0.2686  1.1678
38549SOL    HW217655   9.227   7.596   1.769  1.0390  3.3871 -0.0640
38550SOL     OW17656   3.800   0.311   7.120 -0.2767  0.7095 -0.1233
38550SOL    HW117657   3.749   0.230   7.123  1.5764 -0.4805  1.3669
38550SOL    HW217658   3.875   0.290   7.065  0.4486  1.2804  0.6335
38551SOL     OW17659   4.729   1.896   5.759 -0.1865 -0.0803  0.0822
38551SOL    HW117660   4.656   1.938   5.805  1.0791  0.1907  1.9512
38551SOL    HW217661   4.740   1.812   5.803 -0.3434 -0.7999 -1.2151
38552SOL     OW17662   1.350   3.474  10.802 -0.1611 -0.3245 -0.1265
38552SOL    HW117663   1.281   3.458  10.867  0.9158 -0.4825  1.0216
38552SOL    HW217664   1.407   3.539  10.843 -0.4552  0.9638 -1.7005
38553SOL     OW17665   8.775   3.010   9.629  0.0334 -0.2453 -0.4161
38553SOL    HW117666   8.777   3.034   9.722 -2.4741  0.4836 -0.4727
38553SOL    HW217667   8.682   2.999   9.610  0.4488  0.2238 -3.0041
38554SOL     OW17668  10.130   1.707   0.864  0.0318 -0.5181 -0.4704
38554SOL    HW117669  10.102   1.714   0.773  0.6106 -0.7919 -0.6718
38554SOL    HW217670  10.223   1.729   0.863 -0.0841  0.0430  0.1407
38555SOL     OW17671   7.161   5.976   3.783  0.9941  0.5365 -0.3682
38555SOL    HW117672   7.101   5.987   3.709 -0.7463  2.1279  1.1817
38555SOL    HW217673   7.158   5.882   3.802 -1.8119  0.6576  0.2260
38556SOL     OW17674   8.617   3.753   5.896 -0.0375 -0.3245  0.3551
38556SOL    HW117675   8.657   3.817   5.837 -0.2837 -2.0377 -1.8089
38556SOL    HW217676   8.661   3.766   5.980 -0.1537  2.6902  0.0471
38557SOL     OW17677   8.644  10.605   7.433  0.1874 -0.0011 -0.0753
38557SOL    HW117678   8.646  10.514   7.464 -1.5528 -0.0282  0.0598
38557SOL    HW217679   8.672  10.657   7.509  1.1481 -0.4026 -0.1400
38558SOL     OW17680   1.206   2.171  10.578  0.6374  0.2905  0.4179
38558SOL    HW117681   1.206   2.078  10.554  2.0279  0.2875  0.3674
38558SOL    HW217682   1.185   2.217  10.497  1.6688  0.0962  0.0291
38559SOL     OW17683   3.039   6.013   6.537  0.4310  0.7020  0.3613
38559SOL    HW117684   3.049   6.105   6.562  0.4275  0.3549  1.6975
38559SOL    HW217685   3.128   5.979   6.532  0.3912  0.5354  0.8035
38560SOL     OW17686   2.687   6.539   2.894  0.1266 -0.5407 -0.0760
38560SOL    HW117687   2.708   6.627   2.863  0.4487 -0.6897 -0.2897
38560SOL    HW217688   2.624   6.552   2.964  1.4554 -0.0196  1.0712
38561SOL     OW17689   2.972   1.717  10.720  0.4646 -0.0259 -0.2123
38561SOL    HW117690   3.063   1.749  10.719  0.2059  0.7424 -1.6936
38561SOL    HW217691   2.969   1.653  10.649  0.3691 -1.7040  1.2419
38562SOL     OW17692   8.354   9.207   6.362 -0.2863  0.2451  0.0635
38562SOL    HW117693   8.379   9.178   6.449 -0.9703  0.9236  0.5031
38562SOL    HW217694   8.350   9.127   6.310  0.6455 -0.1008  0.5181
38563SOL     OW17695   1.187  10.006  10.921 -0.2117  0.1117 -0.3303
38563SOL    HW117696   1.095  10.020  10.902 -0.0214  0.6664 -0.8813
38563SOL    HW217697   1.233  10.065  10.861  0.5091 -0.4182 -0.3128
38564SOL     OW17698   4.789   3.664   2.769  0.6008  0.3667  0.1361
38564SOL    HW117699   4.828   3.611   2.838  0.4599  0.6860  0.4666
38564SOL    HW217700   4.823   3.753   2.784  0.6789  0.4098 -0.2884
38565SOL     OW17701   7.066   2.397   1.821 -0.1890  0.0798 -0.5256
38565SOL    HW117702   7.105   2.380   1.906 -1.3132 -1.0557 -0.2041
38565SOL    HW217703   7.013   2.476   1.834 -1.2912 -0.7441  0.1791
38566SOL     OW17704   5.797   5.723   0.443  0.2620  0.1977 -0.3943
38566SOL    HW117705   5.836   5.810   0.444  0.2789  0.1864  0.2548
38566SOL    HW217706   5.855   5.670   0.496 -0.0141 -0.0958 -0.3800
38567SOL     OW17707   0.449   3.926  10.703  0.3233  0.3211  0.3505
38567SOL    HW117708   0.442   3.831  10.709  0.2164  0.3389  0.5119
38567SOL    HW217709   0.383   3.950  10.638  1.8622  0.0748 -1.4008
38568SOL     OW17710   0.953   7.816   5.191 -0.0938 -0.4302  0.1373
38568SOL    HW117711   0.930   7.881   5.258  1.0303  1.2541 -1.0142
38568SOL    HW217712   0.871   7.770   5.173 -1.0113  0.8661  0.8164
38569SOL     OW17713   2.648   5.921   7.057 -0.0782  0.4929 -0.0330
38569SOL    HW117714   2.739   5.912   7.028 -0.1675 -2.1435  0.2861
38569SOL    HW217715   2.599   5.860   7.003 -1.6300  1.5299  0.1307
38570SOL     OW17716   2.025   7.574   4.849  0.4815 -0.7533 -0.4606
38570SOL    HW117717   2.060   7.662   4.834 -1.4868  0.0358 -0.7379
38570SOL    HW217718   1.962   7.585   4.920  0.0089 -1.8899 -0.6716
38571SOL     OW17719   3.512   1.130   8.028 -0.1248 -0.0018 -0.7405
38571SOL    HW117720   3.418   1.131   8.045  0.0759  0.2462  0.4849
38571SOL    HW217721   3.528   1.208   7.976 -0.4250  0.6858  0.1674
38572SOL     OW17722  10.458   2.308   8.347  0.0462  0.0760 -0.2268
38572SOL    HW117723  10.533   2.327   8.403  0.6735 -0.0622 -0.9969
38572SOL    HW217724  10.383   2.308   8.406  1.1417 -4.6352  1.5897
38573SOL     OW17725   0.423   2.863   8.616  0.3213 -0.3407  0.5428
38573SOL    HW117726   0.512   2.899   8.618  0.1258  0.2194 -0.2792
38573SOL    HW217727   0.367   2.940   8.611 -0.1216 -0.7307 -0.9516
38574SOL     OW17728   7.757   6.898   7.590  0.6245  1.0690 -0.2395
38574SOL    HW117729   7.820   6.827   7.578  1.0556  1.6262 -1.3434
38574SOL    HW217730   7.810   6.978   7.590  0.2542  1.3737  1.9232
38575SOL     OW17731   0.900   6.092   1.965  0.0106  0.2890  0.0944
38575SOL    HW117732   0.850   6.171   1.943 -0.1368  0.4731  1.0261
38575SOL    HW217733   0.964   6.084   1.894 -0.2345  1.0167 -0.2284
38576SOL     OW17734  10.222   4.999   6.511  0.5221 -0.4512  0.0489
38576SOL    HW117735  10.250   4.968   6.597 -0.4859 -0.6840  0.3006
38576SOL    HW217736  10.292   5.058   6.483  2.1466 -2.3309 -0.1192
38577SOL     OW17737   7.256   3.797   1.699 -0.1203  0.3802  0.2343
38577SOL    HW117738   7.327   3.734   1.715 -1.1878 -0.4690  1.9678
38577SOL    HW217739   7.230   3.781   1.608 -1.3483 -2.8276  1.0174
38578SOL     OW17740   4.268   2.195   8.948 -0.9423  0.2132  0.2370
38578SOL    HW117741   4.240   2.172   9.036 -0.7657 -0.4133  0.1369
38578SOL    HW217742   4.245   2.119   8.895  1.4955 -0.6468  0.2651
38579SOL     OW17743   3.463   2.869   9.540  0.1572  0.4985 -0.3837
38579SOL    HW117744   3.555   2.882   9.514 -0.1013  1.3766 -0.8678
38579SOL    HW217745   3.438   2.951   9.581 -0.8228  0.7820 -1.4867
38580SOL     OW17746   5.867   0.184   1.263 -0.2084  0.4876 -0.3284
38580SOL    HW117747   5.811   0.243   1.314  1.0842  1.0342  0.5220
38580SOL    HW217748   5.920   0.139   1.329  0.9664  0.6399 -1.1372
38581SOL     OW17749   7.845   6.182   0.840 -0.0350 -0.1628  0.3520
38581SOL    HW117750   7.781   6.184   0.768  1.5809  0.4927 -1.1338
38581SOL    HW217751   7.831   6.265   0.886 -0.7579 -0.3648  0.5079
38582SOL     OW17752   7.820   1.486  10.685  0.0168 -0.1151 -0.0459
38582SOL    HW117753   7.874   1.467  10.608 -1.7289  0.2309 -1.4051
38582SOL    HW217754   7.797   1.400  10.721  2.8028 -0.2901  1.6198
38583SOL     OW17755   6.664   7.444   0.338  0.2799  0.2738 -0.3964
38583SOL    HW117756   6.757   7.425   0.348  1.2556  3.3029 -2.3396
38583SOL    HW217757   6.636   7.393   0.262  0.5693  0.0277 -0.3363
38584SOL     OW17758   5.221   9.093   4.057  0.2370 -0.2333  0.6919
38584SOL    HW117759   5.265   9.013   4.030 -0.3338  0.2139 -1.8432
38584SOL    HW217760   5.179   9.125   3.977 -1.7852  1.1825  2.2100
38585SOL     OW17761   6.133   6.971   7.996 -0.0805 -0.3498 -0.3798
38585SOL    HW117762   6.198   6.906   8.019  0.2852 -0.1247 -0.7662
38585SOL    HW217763   6.152   6.993   7.905  0.4305  1.0146  0.0261
38586SOL     OW17764  10.498   9.998  10.962 -0.2078 -0.3405 -0.3192
38586SOL    HW117765  10.403  10.000  10.955 -0.3742 -1.7260  1.1829
38586SOL    HW217766  10.520  10.075  11.015 -0.7106 -1.2471  1.2493
38587SOL     OW17767   2.830   2.038   8.727 -0.1624  0.3555 -0.1506
38587SOL    HW117768   2.879   1.964   8.764 -1.4270 -1.3749 -1.7483
38587SOL    HW217769   2.895   2.108   8.719  1.2760 -0.8025  0.7105
38588SOL     OW17770  10.391   7.103   4.803  0.3815 -0.0287  0.3859
38588SOL    HW117771  10.395   7.132   4.712  1.9648 -1.6165 -0.1172
38588SOL    HW217772  10.304   7.061   4.810  0.0067  0.6150 -0.2157
38589SOL     OW17773   5.654   4.039   2.883  0.4622 -0.4139  0.2749
38589SOL    HW117774   5.714   3.969   2.861  0.6180 -0.2176  0.0767
38589SOL    HW217775   5.675   4.061   2.974  1.0356  0.0013  0.0429
38590SOL     OW17776   5.554  10.449   9.050  0.2346  0.9581  0.2603
38590SOL    HW117777   5.500  10.395   8.992  0.0745  0.2210  1.0773
38590SOL    HW217778   5.494  10.477   9.119  0.6330  1.0643  0.5667
38591SOL     OW17779   6.294   9.656   1.622  0.1150  0.0416 -0.0895
38591SOL    HW117780   6.245   9.668   1.540  1.1967 -1.2617 -0.9790
38591SOL    HW217781   6.279   9.564   1.645  1.2135 -0.0597  0.2452
38592SOL     OW17782   8.562   6.265  10.451  0.4631  0.0055  0.6766
38592SOL    HW117783   8.584   6.320  10.376  0.6258 -0.8480  0.0858
38592SOL    HW217784   8.541   6.327  10.521  0.1456  0.8125 -0.1172
38593SOL     OW17785   5.652   2.782   6.182 -0.1744 -0.1729  0.0803
38593SOL    HW117786   5.729   2.773   6.239 -0.5779 -1.8548  0.4180
38593SOL    HW217787   5.688   2.798   6.095  0.4980  0.8449  0.5297
38594SOL     OW17788   6.399   2.905   4.407  0.5265  0.3584  0.4502
38594SOL    HW117789   6.360   2.866   4.486 -0.4620  1.2904  0.4410
38594SOL    HW217790   6.402   2.832   4.345  1.2971 -0.3838  1.3271
38595SOL     OW17791   2.025   8.795   2.263  0.0138  0.1783 -0.1746
38595SOL    HW117792   1.956   8.732   2.242 -0.4882  0.5234  0.4249
38595SOL    HW217793   2.066   8.760   2.342 -0.0559  0.4340 -0.0248
38596SOL     OW17794   9.122   2.836   7.257  0.5254 -0.1035  0.4703
38596SOL    HW117795   9.073   2.917   7.270  0.2357 -0.3099  0.6748
38596SOL    HW217796   9.194   2.860   7.199  0.2873  0.2414  0.3196
38597SOL     OW17797   5.645   5.881   2.635 -0.1138 -0.5921 -0.2849
38597SOL    HW117798   5.735   5.900   2.611 -0.5009  1.3158 -0.4043
38597SOL    HW217799   5.594   5.907   2.558 -1.1236  2.9474  1.3507
38598SOL     OW17800   1.178   4.510  10.987  0.7126 -0.3312 -0.2796
38598SOL    HW117801   1.190   4.590  10.935  0.4423 -0.5431 -0.6772
38598SOL    HW217802   1.250   4.453  10.959  1.5408  0.1658  0.7845
38599SOL     OW17803   8.887   0.828   6.899 -0.2091 -0.2383  0.3072
38599SOL    HW117804   8.870   0.807   6.991  0.1745 -2.1884 -0.0146
38599SOL    HW217805   8.800   0.839   6.860 -0.3533  2.0969  1.1660
38600SOL     OW17806   3.143   4.724   6.643  0.1063  0.0858  0.1118
38600SOL    HW117807   3.218   4.756   6.694 -0.9904  1.5610  0.8540
38600SOL    HW217808   3.073   4.714   6.707 -0.8372  0.4038 -0.8554
38601SOL     OW17809   3.708   3.687  10.929 -0.0270  0.4226 -0.7807
38601SOL    HW117810   3.726   3.671  10.836 -0.8014  0.4225 -0.9396
38601SOL    HW217811   3.675   3.777  10.932  2.0046  1.1921 -0.2065
38602SOL     OW17812   7.129   4.898   3.416  0.5545 -0.2731  0.0661
38602SOL    HW117813   7.042   4.927   3.444  0.1468  0.3162 -1.6811
38602SOL    HW217814   7.189   4.964   3.452  0.3054 -0.6862  1.2845
38603SOL     OW17815   4.125   7.840   4.844 -0.0971 -0.1359  0.6804
38603SOL    HW117816   4.035   7.847   4.811 -0.3328  0.5363  1.4260
38603SOL    HW217817   4.122   7.765   4.903  0.0590 -0.6676  0.0234
38604SOL     OW17818   7.092   4.455   7.389 -0.1698  0.1822  0.4948
38604SOL    HW117819   7.167   4.424   7.338  0.6277 -0.9011  2.2297
38604SOL    HW217820   7.103   4.414   7.475 -1.5399  1.8139  1.5071
38605SOL     OW17821   7.816   0.780   3.474 -0.1788 -0.6390  0.2302
38605SOL    HW117822   7.779   0.847   3.531 -1.4884 -1.6411  0.5973
38605SOL    HW217823   7.876   0.828   3.417  0.4260  0.5414  1.7762
38606SOL     OW17824   3.005   0.843   3.949  0.4310  0.4693 -0.0546
38606SOL    HW117825   2.957   0.786   4.010  1.2309 -0.0478  0.1064
38606SOL    HW217826   2.938   0.876   3.889  0.0651 -1.3635 -0.7136
38607SOL     OW17827   0.037   5.441   9.911  0.0053 -0.1037 -0.2484
38607SOL    HW117828   0.077   5.354   9.913 -0.3448 -0.2833 -0.7788
38607SOL    HW217829  -0.047   5.428   9.867 -0.8688  0.1740  1.2245
38608SOL     OW17830   3.639   9.499   8.712 -0.1403 -0.1134  0.4003
38608SOL    HW117831   3.614   9.513   8.620  2.6029 -0.1249 -0.4418
38608SOL    HW217832   3.631   9.585   8.753 -0.5405  0.0810 -0.0790
38609SOL     OW17833   7.534   0.531   5.218 -0.4304 -0.1167 -0.5557
38609SOL    HW117834   7.608   0.502   5.164  1.0949  1.0117  0.7951
38609SOL    HW217835   7.542   0.626   5.220 -2.6133  0.1357 -1.2228
38610SOL     OW17836  10.985   6.344   5.425 -0.2053 -0.1953  0.5844
38610SOL    HW117837  10.936   6.317   5.348 -1.6448 -1.3188  1.8379
38610SOL    HW217838  11.065   6.292   5.423 -1.3857 -2.1388  1.1299
38611SOL     OW17839   7.748   5.802   9.551 -0.3153  0.5773 -0.8038
38611SOL    HW117840   7.840   5.816   9.573  0.0664  0.1673 -2.0918
38611SOL    HW217841   7.728   5.715   9.586  0.2562 -0.0183 -1.8866
38612SOL     OW17842   0.612   0.271   1.000  0.3346 -0.5994 -0.4742
38612SOL    HW117843   0.603   0.292   0.907  3.2841 -2.1455 -1.2149
38612SOL    HW217844   0.683   0.328   1.031  0.3238 -1.0740  0.4785
38613SOL     OW17845  10.254   6.327   6.465  0.2612  0.1707  0.6257
38613SOL    HW117846  10.346   6.344   6.485  0.1636  1.1490  0.3169
38613SOL    HW217847  10.206   6.396   6.511 -0.4406 -1.0437  1.7890
38614SOL     OW17848   1.049   7.078   2.746 -0.4680  0.1196 -0.1603
38614SOL    HW117849   1.070   7.062   2.838 -0.5881  1.5669  0.1400
38614SOL    HW217850   0.998   7.001   2.720  1.1066 -1.1970  0.4337
38615SOL     OW17851   7.797   6.165   7.951  0.5494 -0.4318 -0.5737
38615SOL    HW117852   7.822   6.126   7.867  1.8073  0.0190 -0.4328
38615SOL    HW217853   7.744   6.241   7.928 -0.4659 -1.2180 -0.8967
38616SOL     OW17854   3.872   3.003   1.697  0.1149  0.3782 -0.0021
38616SOL    HW117855   3.906   3.066   1.760  0.1582  1.7865 -1.3607
38616SOL    HW217856   3.820   3.055   1.636 -2.1635 -1.3333  0.3799
38617SOL     OW17857  10.608  10.358   6.765  0.5040 -0.0513  0.1961
38617SOL    HW117858  10.545  10.430   6.768  1.7832  1.0807  1.2321
38617SOL    HW217859  10.667  10.375   6.839  0.6082 -2.4035  0.7270
38618SOL     OW17860  10.591   0.885   4.504  0.0496 -0.4298 -0.0784
38618SOL    HW117861  10.518   0.926   4.551  1.0599  0.5218  0.7276
38618SOL    HW217862  10.632   0.828   4.569  2.0512  1.6295  0.6095
38619SOL     OW17863   1.390   3.586   5.880 -0.1644 -0.8490 -0.6424
38619SOL    HW117864   1.479   3.597   5.914  0.1748 -1.9852 -1.1316
38619SOL    HW217865   1.334   3.614   5.952  0.5642  1.7846 -0.9785
38620SOL     OW17866   0.695   6.025   9.909 -0.2073 -0.1541 -0.2804
38620SOL    HW117867   0.746   6.064   9.838 -1.1334 -0.2045 -0.9917
38620SOL    HW217868   0.664   5.942   9.874  1.8728 -1.6954  1.2719
38621SOL     OW17869   9.762   3.741   9.347 -0.3776 -0.1480  0.4583
38621SOL    HW117870   9.753   3.691   9.428 -1.6974  0.3533  0.6609
38621SOL    HW217871   9.737   3.680   9.278  2.7203 -1.2198  0.1383
38622SOL     OW17872   9.970   7.516   4.310 -0.1521 -0.2679 -0.3039
38622SOL    HW117873  10.021   7.597   4.307 -1.4288  0.5814 -0.0811
38622SOL    HW217874   9.953   7.502   4.404 -1.0263 -0.0607 -0.4214
38623SOL     OW17875  10.903   4.554   3.772  0.1925  0.3698 -0.6881
38623SOL    HW117876  10.877   4.497   3.701 -0.0808  1.6545 -1.6651
38623SOL    HW217877  10.911   4.497   3.848  1.0562 -1.1365 -1.8660
38624SOL     OW17878   8.934   9.051  10.886  0.6328 -0.3717 -0.5413
38624SOL    HW117879   9.026   9.072  10.903  0.5544  1.0269 -1.6541
38624SOL    HW217880   8.938   8.966  10.842  1.3929 -0.3427 -0.5506
38625SOL     OW17881   3.308   8.035   2.461  0.0086 -0.3185  0.3893
38625SOL    HW117882   3.352   7.990   2.534  0.8671 -0.0196  0.0698
38625SOL    HW217883   3.316   8.128   2.483  0.7703 -0.1993 -0.3522
38626SOL     OW17884   3.702   3.950   1.814 -0.4327  0.0044  0.2628
38626SOL    HW117885   3.610   3.933   1.793 -0.3510 -0.5304  0.3262
38626SOL    HW217886   3.750   3.925   1.735 -0.1733 -1.5080  0.8670
38627SOL     OW17887   4.983   6.815   8.690 -0.3023 -0.6995 -0.9173
38627SOL    HW117888   4.939   6.877   8.632  1.1595  0.8607 -0.4231
38627SOL    HW217889   5.060   6.786   8.641 -0.8748 -2.0475 -1.0763
38628SOL     OW17890   2.448   5.063   5.654 -0.1639 -0.6664 -0.0519
38628SOL    HW117891   2.535   5.046   5.620  0.4251  0.9950  0.5168
38628SOL    HW217892   2.438   5.158   5.649 -1.5707 -0.7358  0.7728
38629SOL     OW17893  10.996   8.219   1.646  0.2014  0.2765  0.9050
38629SOL    HW117894  10.932   8.289   1.661  1.6937  2.1652 -0.8594
38629SOL    HW217895  11.018   8.187   1.734 -0.0835  2.4883  1.8517
38630SOL     OW17896   6.132   5.234   2.209  0.5193 -0.7114  0.1907
38630SOL    HW117897   6.133   5.295   2.283 -0.4026 -1.1692  0.5969
38630SOL    HW217898   6.161   5.151   2.245 -1.5369 -1.3546  0.4509
38631SOL     OW17899   9.402   2.311   0.771 -0.4770 -0.5159 -0.1006
38631SOL    HW117900   9.457   2.301   0.694 -1.8928 -1.4668 -1.0364
38631SOL    HW217901   9.353   2.392   0.755  0.5455  0.2891  0.6950
38632SOL     OW17902   8.264   6.748   9.511 -0.3134 -0.3216 -0.4955
38632SOL    HW117903   8.326   6.677   9.490  2.2340  1.7605 -0.4930
38632SOL    HW217904   8.296   6.783   9.594 -1.6938  0.6738 -0.3659
38633SOL     OW17905  11.026  10.069   3.077  0.2526  0.3002  0.8064
38633SOL    HW117906  11.061  10.079   3.165 -0.2752 -0.6044  1.1267
38633SOL    HW217907  10.991  10.156   3.055  0.3857  0.5300  1.4835
38634SOL     OW17908  10.046   0.773   7.396  0.2159 -0.3361 -0.4101
38634SOL    HW117909  10.112   0.752   7.462 -1.4495  0.1242  1.5085
38634SOL    HW217910   9.968   0.795   7.446 -1.8271 -2.1123 -2.5738
38635SOL     OW17911   0.755   5.102   2.613 -0.0278  0.4420  0.2047
38635SOL    HW117912   0.835   5.061   2.645 -0.2091 -0.9820 -1.0617
38635SOL    HW217913   0.685   5.056   2.657 -0.2009  1.8571  1.5058
38636SOL     OW17914   3.466   6.794   2.505  0.1201 -0.7991 -0.0530
38636SOL    HW117915   3.554   6.756   2.510  0.9565  1.0561 -0.2483
38636SOL    HW217916   3.411   6.731   2.553  1.2469 -2.7412 -1.1985
38637SOL     OW17917   2.861   6.214   1.398 -0.2967 -0.2976 -0.0901
38637SOL    HW117918   2.788   6.260   1.439 -0.0989 -0.0791  0.0180
38637SOL    HW217919   2.876   6.138   1.453 -0.2043 -0.1460  0.0961
38638SOL     OW17920   9.673  10.301   0.530 -0.1626 -0.1180 -0.3574
38638SOL    HW117921   9.676  10.210   0.499 -1.6874  0.3554 -2.0731
38638SOL    HW217922   9.580  10.324   0.526  0.3575  1.9733 -1.3405
38639SOL     OW17923   7.241   5.951  10.904  0.5075  0.2381  0.2827
38639SOL    HW117924   7.222   5.911  10.989  1.9095  0.7747  0.8767
38639SOL    HW217925   7.302   5.890  10.863  0.5638  0.4533  0.0499
38640SOL     OW17926  10.829   7.540   7.062 -0.0079 -0.5863  0.2440
38640SOL    HW117927  10.733   7.544   7.065 -0.1118  0.5201 -2.1094
38640SOL    HW217928  10.849   7.521   6.970  2.0309  0.9064  0.3131
38641SOL     OW17929   4.639  11.035   7.880 -0.2035 -0.1915  0.5445
38641SOL    HW117930   4.641  11.033   7.976  0.5923  0.6841  0.5599
38641SOL    HW217931   4.683  11.117   7.857 -0.6947 -0.2246 -0.5644
38642SOL     OW17932  10.689   9.430   2.996 -0.1765  0.7845 -0.0152
38642SOL    HW117933  10.704   9.348   2.947 -0.9547 -0.0707  1.1446
38642SOL    HW217934  10.656   9.402   3.081 -2.7808  2.3639 -0.3877
38643SOL     OW17935   9.328   6.257  11.012 -0.4140 -0.5456  0.3026
38643SOL    HW117936   9.312   6.272  10.919 -0.2840  2.6889  0.6638
38643SOL    HW217937   9.414   6.217  11.016  0.4482  1.0622 -0.9653
38644SOL     OW17938   3.214   5.293   4.764  0.3339 -0.5072 -0.5138
38644SOL    HW117939   3.215   5.381   4.726 -2.2232 -1.5657 -3.4746
38644SOL    HW217940   3.140   5.293   4.824 -0.3194 -0.9036 -1.3110
38645SOL     OW17941   1.582   4.403   1.050  0.4179  0.1595 -0.1573
38645SOL    HW117942   1.507   4.385   0.993  2.2132  1.4707 -3.1365
38645SOL    HW217943   1.606   4.493   1.031  0.7487  0.9674  3.3201
38646SOL     OW17944   4.858   1.353   7.888 -0.1025  0.3585 -0.0674
38646SOL    HW117945   4.768   1.377   7.868 -0.6142 -0.7467  0.7648
38646SOL    HW217946   4.884   1.294   7.818 -0.3569 -0.0398  0.1680
38647SOL     OW17947   3.282   2.355   1.451  0.6142 -0.0912  0.2567
38647SOL    HW117948   3.287   2.321   1.540  1.9829 -2.4878 -0.6309
38647SOL    HW217949   3.367   2.398   1.437 -0.1421  1.5548  0.5342
38648SOL     OW17950   2.729   1.560   5.686 -0.0590 -0.8552  0.7009
38648SOL    HW117951   2.753   1.548   5.778  0.3251 -0.8520  0.6008
38648SOL    HW217952   2.747   1.475   5.645  0.2691 -0.7023  0.5213
38649SOL     OW17953   6.038   4.279   5.666  0.3049 -0.0696 -0.2526
38649SOL    HW117954   5.994   4.205   5.708  1.6282 -0.9880 -0.4061
38649SOL    HW217955   6.075   4.330   5.738 -1.6430  1.1876 -0.0671
38650SOL     OW17956   0.423   1.291   5.481 -0.8591 -0.1384 -0.4546
38650SOL    HW117957   0.496   1.267   5.538  0.2049  0.2669 -1.6022
38650SOL    HW217958   0.345   1.276   5.534  0.1275  2.5285  1.9965
38651SOL     OW17959   4.217   7.625   4.620 -0.0197  0.0126  0.1628
38651SOL    HW117960   4.140   7.646   4.673  0.8585 -0.8107  1.8546
38651SOL    HW217961   4.278   7.586   4.682  2.1778  1.5520 -0.9261
38652SOL     OW17962   0.990   8.810   6.776 -0.2562 -0.1272 -0.1631
38652SOL    HW117963   0.908   8.824   6.824 -0.4256 -2.0058  0.1632
38652SOL    HW217964   1.018   8.898   6.751 -1.0769  0.7833  1.8606
38653SOL     OW17965   9.386   9.384   4.751  0.1504 -0.3413  0.1068
38653SOL    HW117966   9.332   9.455   4.785  0.7159  1.0879 -1.7777
38653SOL    HW217967   9.431   9.349   4.827 -0.8338  0.7246  1.2210
38654SOL     OW17968   0.943   1.641   1.914 -0.1327 -0.7341 -0.0529
38654SOL    HW117969   1.011   1.595   1.963 -0.0334 -1.5835 -0.9488
38654SOL    HW217970   0.956   1.612   1.824 -0.6505  0.3755 -0.4890
38655SOL     OW17971   3.083   6.673   7.175 -0.1783 -0.5761 -0.2776
38655SOL    HW117972   3.082   6.769   7.178  1.3229 -0.5686  1.1555
38655SOL    HW217973   2.993   6.648   7.198 -0.3085  0.4728  0.4584
38656SOL     OW17974   1.026   3.485   7.733  0.5517 -0.0166 -0.1345
38656SOL    HW117975   1.100   3.489   7.672 -0.2996 -0.6532 -1.2401
38656SOL    HW217976   0.954   3.450   7.681 -0.5800  0.7209  0.8887
38657SOL     OW17977   9.362   3.760  10.939  0.2032 -0.3816  0.3745
38657SOL    HW117978   9.292   3.720  10.990 -0.2461  0.8048  0.7007
38657SOL    HW217979   9.324   3.775  10.852  0.1345  0.0531  0.4820
38658SOL     OW17980   3.912   8.460   0.607 -0.1078 -0.1765 -0.2043
38658SOL    HW117981   3.847   8.391   0.598 -0.2746 -0.4868  2.5425
38658SOL    HW217982   3.996   8.414   0.605 -0.1048 -0.1516 -0.7283
38659SOL     OW17983   2.044   3.265   8.515 -1.0040  0.5466 -1.0233
38659SOL    HW117984   1.982   3.324   8.558  0.5714  0.9901  0.7760
38659SOL    HW217985   2.113   3.251   8.581 -0.0985 -1.3491 -2.2969
38660SOL     OW17986   3.155   1.985   5.164  0.1991  0.1301  0.5810
38660SOL    HW117987   3.214   2.026   5.101 -2.1462  1.1813 -1.1342
38660SOL    HW217988   3.089   1.941   5.109  0.5396 -2.9394  2.3667
38661SOL     OW17989   3.504   2.890   2.657  0.0463  0.5529 -0.6897
38661SOL    HW117990   3.561   2.883   2.733 -1.1893 -1.0717  0.1589
38661SOL    HW217991   3.490   2.984   2.645  2.0502  0.9342 -0.3316
38662SOL     OW17992   0.940   1.782   4.301  0.3462  0.0611 -0.0606
38662SOL    HW117993   0.918   1.851   4.239 -1.1754  0.2202  0.6069
38662SOL    HW217994   0.882   1.709   4.278 -0.4267  0.2056  1.2602
38663SOL     OW17995   6.050   1.591   8.521  0.0615 -0.9903 -0.1115
38663SOL    HW117996   5.969   1.588   8.471  0.5644  0.2494 -1.0406
38663SOL    HW217997   6.101   1.662   8.481  1.6572 -1.8181  0.3598
38664SOL     OW17998   3.367   0.165   6.335  0.2909  0.1332  0.4297
38664SOL    HW117999   3.285   0.216   6.339  0.6422  0.8145 -0.7492
38664SOL    HW218000   3.339   0.077   6.309 -0.2376 -0.1136  1.7405
38665SOL     OW18001   6.156  10.073   6.617 -0.0967 -0.0333  0.1521
38665SOL    HW118002   6.229  10.135   6.610 -0.6697  0.5804 -0.5961
38665SOL    HW218003   6.184  10.011   6.685  0.8783  0.5104  0.2749
38666SOL     OW18004  10.769   0.640   7.794 -0.3266  0.5180 -0.8473
38666SOL    HW118005  10.853   0.680   7.772  0.0851 -0.6290 -1.4319
38666SOL    HW218006  10.751   0.580   7.721 -1.5703  0.6149 -0.6462
38667SOL     OW18007   6.249   6.902   9.421 -0.3627 -0.4671  0.0921
38667SOL    HW118008   6.274   6.809   9.419  0.2805 -0.2935 -0.6803
38667SOL    HW218009   6.277   6.936   9.336  0.3942  0.6781  0.7707
38668SOL     OW18010   0.499   5.534  10.843  1.2168  0.0884 -0.2449
38668SOL    HW118011   0.523   5.480  10.919  1.4426 -0.1452 -0.4814
38668SOL    HW218012   0.532   5.486  10.768  0.7648  0.1955 -0.5137
38669SOL     OW18013  10.416   3.086  10.800  0.4746 -0.3603 -0.0938
38669SOL    HW118014  10.453   3.157  10.853  1.1990 -0.7719 -0.0264
38669SOL    HW218015  10.321   3.095  10.810  0.5556  0.5678 -0.0566
38670SOL     OW18016   7.766   4.902   2.353  0.3944 -0.2261 -0.4825
38670SOL    HW118017   7.699   4.872   2.292  1.2567 -0.2382 -1.4516
38670SOL    HW218018   7.815   4.823   2.377 -0.6612 -0.4232  1.1817
38671SOL     OW18019  10.574   8.150   0.325 -0.2216  0.5800 -0.0689
38671SOL    HW118020  10.579   8.063   0.363  0.7862  0.8438  0.4520
38671SOL    HW218021  10.485   8.180   0.343 -1.2474 -1.0830 -2.0018
38672SOL     OW18022   2.906   5.156   1.531  0.0027 -1.0070  0.1693
38672SOL    HW118023   2.987   5.135   1.578 -1.3688 -0.7729  2.8637
38672SOL    HW218024   2.868   5.071   1.511  0.4965 -1.1159 -0.3167
38673SOL     OW18025   6.600   9.244   7.498 -0.2351  0.6098 -0.2054
38673SOL    HW118026   6.654   9.270   7.573  0.3428  0.0095 -0.3991
38673SOL    HW218027   6.546   9.321   7.480 -0.8545  0.5396  1.2360
38674SOL     OW18028   3.507   6.772   2.213  0.1707  0.2755 -0.3713
38674SOL    HW118029   3.495   6.796   2.305 -0.6659  0.5152 -0.5307
38674SOL    HW218030   3.586   6.818   2.187  1.1037 -0.7462  0.5440
38675SOL     OW18031   7.660   4.049   3.492  0.0250  0.1408 -0.1538
38675SOL    HW118032   7.626   4.080   3.407  2.3992  0.8278 -0.9334
38675SOL    HW218033   7.637   4.119   3.553  0.9560  1.1310 -0.8920
38676SOL     OW18034   7.174   3.281   0.893  0.8191 -0.7748  0.4143
38676SOL    HW118035   7.239   3.311   0.956  1.1131 -0.5417  0.0018
38676SOL    HW218036   7.124   3.359   0.870  1.7271 -0.5221 -0.8247
38677SOL     OW18037   4.009   1.323   2.403  0.1857  0.1043 -0.5922
38677SOL    HW118038   4.057   1.306   2.484 -0.2259  2.6433  0.2908
38677SOL    HW218039   3.917   1.332   2.431 -0.2802 -1.0645 -1.6847
38678SOL     OW18040   8.637   6.096   6.512 -0.4302  0.0731 -0.2174
38678SOL    HW118041   8.672   6.014   6.547  0.6547 -0.4256 -2.2853
38678SOL    HW218042   8.542   6.088   6.523 -0.2137 -0.4959  1.5226
38679SOL     OW18043   8.633   3.554   0.337 -0.6120 -0.3716 -0.2250
38679SOL    HW118044   8.651   3.588   0.424 -1.5011  1.6109 -0.7573
38679SOL    HW218045   8.706   3.586   0.283 -2.3396  2.3761 -1.1006
38680SOL     OW18046  10.680   9.155   2.409  0.0909  0.1265 -0.1104
38680SOL    HW118047  10.630   9.205   2.473 -0.6665  0.3127 -0.8259
38680SOL    HW218048  10.660   9.198   2.325  0.4752 -0.5637 -0.5623
38681SOL     OW18049   2.761   5.700   5.493 -1.3371  0.0919 -0.0610
38681SOL    HW118050   2.717   5.728   5.413 -0.1992  0.4794 -0.5780
38681SOL    HW218051   2.831   5.642   5.463 -1.6296 -0.7039  0.7515
38682SOL     OW18052   7.876   3.853   7.030 -0.3457  0.4545 -0.1568
38682SOL    HW118053   7.968   3.860   7.055  0.2902 -0.8532 -1.8995
38682SOL    HW218054   7.849   3.768   7.065 -1.0151  1.0127  0.6909
38683SOL     OW18055   0.764   7.886   1.894 -0.1572  0.9341  0.4964
38683SOL    HW118056   0.854   7.893   1.862 -0.0707  0.8891  0.7255
38683SOL    HW218057   0.720   7.964   1.858  0.2140  1.4604  1.1519
38684SOL     OW18058   8.684   7.425   6.229  0.6677  0.4297 -0.4913
38684SOL    HW118059   8.676   7.333   6.252  3.2902  0.3580  0.4210
38684SOL    HW218060   8.716   7.468   6.308 -1.0251  2.2743 -0.7191
38685SOL     OW18061   7.680   7.040   5.749  0.3279  0.2147 -0.2641
38685SOL    HW118062   7.666   7.119   5.802  0.5333 -1.0366  1.7901
38685SOL    HW218063   7.772   7.018   5.762 -0.3339 -1.9161  1.6537
38686SOL     OW18064   6.941   1.501   3.739  0.1078  0.4468 -0.0903
38686SOL    HW118065   6.914   1.423   3.788  1.1581 -0.4868 -0.9251
38686SOL    HW218066   6.982   1.466   3.660 -0.6298  1.8945 -1.1484
38687SOL     OW18067   6.593   6.547   9.120 -0.8671 -0.0102 -0.0830
38687SOL    HW118068   6.638   6.468   9.090 -0.2464 -0.4345  1.8662
38687SOL    HW218069   6.512   6.548   9.069  0.1292 -0.6513 -1.7727
38688SOL     OW18070   1.508   8.752   1.390 -0.2840 -0.1945  0.1031
38688SOL    HW118071   1.441   8.711   1.446 -1.0685  1.2690  0.3013
38688SOL    HW218072   1.577   8.779   1.451 -1.4697  2.0612  0.5708
38689SOL     OW18073   4.979   1.280   8.756 -0.3567 -0.2795  0.3375
38689SOL    HW118074   4.919   1.263   8.683 -0.0691 -2.5705  0.5480
38689SOL    HW218075   5.047   1.335   8.719 -1.6586  0.9280 -0.3693
38690SOL     OW18076  10.095   5.021   3.127 -0.4794  0.0706 -0.1873
38690SOL    HW118077  10.080   5.092   3.190 -2.8066 -0.2331 -0.3224
38690SOL    HW218078  10.043   4.948   3.160 -0.0406 -0.7931 -1.3426
38691SOL     OW18079   8.458   8.522   6.800 -0.1779  0.0829  0.0980
38691SOL    HW118080   8.417   8.565   6.726 -0.9330  1.5423  1.3096
38691SOL    HW218081   8.550   8.547   6.795 -0.4825  1.2987  0.3960
38692SOL     OW18082   3.992   7.502   5.552  0.0133  0.1567 -0.4223
38692SOL    HW118083   3.933   7.515   5.627 -0.4409 -0.1210 -0.7282
38692SOL    HW218084   4.015   7.591   5.525  0.1509  0.2616  0.0198
38693SOL     OW18085   8.710   6.321   0.044  0.2952 -0.0708  0.1866
38693SOL    HW118086   8.778   6.369  -0.004 -1.1091  0.6737 -1.1548
38693SOL    HW218087   8.701   6.368   0.126  1.0279  0.1346  0.1600
38694SOL     OW18088   9.030   0.426  10.426 -0.4182 -0.8739  0.1311
38694SOL    HW118089   9.109   0.403  10.474  0.5615  1.2638 -0.3523
38694SOL    HW218090   9.061   0.464  10.344 -1.9932 -1.0528 -0.6011
38695SOL     OW18091   2.900   6.322   9.346  0.4098  0.1500  0.6325
38695SOL    HW118092   2.813   6.349   9.317  0.4962  0.6692  0.8255
38695SOL    HW218093   2.936   6.401   9.387  0.4602 -0.4211  1.7431
38696SOL     OW18094   9.325   4.113   9.718  0.0647 -0.4516  0.1717
38696SOL    HW118095   9.355   4.023   9.728 -0.9734 -0.9769 -1.2542
38696SOL    HW218096   9.403   4.166   9.738  1.0107 -1.6812 -0.1362
38697SOL     OW18097   9.279  10.797   6.514  0.5957 -0.6354 -0.1541
38697SOL    HW118098   9.194  10.755   6.519 -0.5041  1.3763 -0.6163
38697SOL    HW218099   9.281  10.839   6.428  2.1328 -0.7881 -0.2316
38698SOL     OW18100   2.165   4.839  10.475 -0.4977  0.1735 -1.1435
38698SOL    HW118101   2.093   4.900  10.492  1.6635  2.5326  0.4469
38698SOL    HW218102   2.201   4.867  10.391  0.8571  1.5996 -0.1414
38699SOL     OW18103   4.326   5.075   0.459 -0.2569 -0.3855 -0.2063
38699SOL    HW118104   4.232   5.067   0.475 -0.0501  0.2433  1.5230
38699SOL    HW218105   4.334   5.076   0.364 -2.1143  0.7442 -0.4008
38700SOL     OW18106   9.339   1.563   9.997 -0.0276  0.1770  0.1893
38700SOL    HW118107   9.317   1.654  10.019  0.4398  0.7230 -1.4744
38700SOL    HW218108   9.386   1.531  10.074  2.5684  2.3691 -0.3499
38701SOL     OW18109   2.402   8.130   1.704  0.4942 -0.2054  0.4765
38701SOL    HW118110   2.402   8.053   1.646  0.6137 -0.5875  0.9781
38701SOL    HW218111   2.316   8.169   1.692  0.5487 -0.2277 -0.0263
38702SOL     OW18112   8.464   6.350   3.086 -0.1283 -0.0670  0.2689
38702SOL    HW118113   8.396   6.331   3.151 -1.0772 -1.6000 -1.0823
38702SOL    HW218114   8.543   6.309   3.121 -0.9143 -1.9979 -0.0607
38703SOL     OW18115   5.975   6.925   1.728 -0.2976 -0.1851  0.2746
38703SOL    HW118116   5.982   7.002   1.784 -3.7036  0.4335  0.0902
38703SOL    HW218117   5.966   6.960   1.640  0.9843 -0.9819 -0.2083
38704SOL     OW18118   2.067   3.855   4.041 -0.0403 -0.3571 -0.3290
38704SOL    HW118119   2.139   3.865   3.979  0.6697 -1.4600  0.2836
38704SOL    HW218120   2.006   3.925   4.019  1.1603  0.5255 -0.9411
38705SOL     OW18121   8.193   5.793   1.150  0.0345  0.0840 -0.2428
38705SOL    HW118122   8.174   5.836   1.234 -1.3132  0.9053 -0.9382
38705SOL    HW218123   8.260   5.848   1.110  0.9942 -0.5434  0.4473
38706SOL     OW18124   6.743   5.101  10.384  0.3073  0.6391 -0.2460
38706SOL    HW118125   6.676   5.164  10.408 -0.7259 -0.4476 -0.2141
38706SOL    HW218126   6.817   5.155  10.355 -1.1012  1.8783 -1.7642
38707SOL     OW18127  10.794   6.437   7.400 -0.7461  0.5967  0.0832
38707SOL    HW118128  10.858   6.427   7.470 -0.2046  4.7685  0.4786
38707SOL    HW218129  10.836   6.396   7.324 -0.0306 -1.3850  1.4566
38708SOL     OW18130   5.183   4.168   6.591  0.0695 -0.2141 -0.8730
38708SOL    HW118131   5.185   4.073   6.603  2.2401 -0.1640 -0.3974
38708SOL    HW218132   5.136   4.200   6.668  0.5176 -0.8404 -0.3217
38709SOL     OW18133   7.808  10.558   0.907 -0.2088  0.2006  0.2927
38709SOL    HW118134   7.813  10.502   0.829  1.7376  1.3437 -0.4625
38709SOL    HW218135   7.867  10.516   0.969 -1.4102 -0.4544  1.0247
38710SOL     OW18136   2.920   0.941   1.987 -0.0759  0.0238 -0.0758
38710SOL    HW118137   2.914   0.999   2.063 -1.9100 -0.8349  0.4875
38710SOL    HW218138   2.902   0.998   1.912 -2.1029  0.2057  0.4901
38711SOL     OW18139   7.936   2.670   2.786 -0.1531 -0.5076 -1.2189
38711SOL    HW118140   7.889   2.592   2.818 -0.1657  0.1282  0.3770
38711SOL    HW218141   7.873   2.741   2.795  0.7473  0.1655 -0.0652
38712SOL     OW18142   9.941  10.785   1.628 -0.2799  0.7397 -0.5978
38712SOL    HW118143   9.931  10.877   1.605 -1.8658  0.9698  0.8595
38712SOL    HW218144   9.852  10.752   1.637  0.2540 -0.9607 -1.0791
38713SOL     OW18145   8.616   7.060   4.083 -0.2214  1.1111  0.3944
38713SOL    HW118146   8.622   6.975   4.040  0.3145  0.8636  0.9418
38713SOL    HW218147   8.631   7.041   4.176 -0.6490  1.7289  0.6009
38714SOL     OW18148   7.367   7.186   9.653 -0.8506  0.0581 -0.2016
38714SOL    HW118149   7.441   7.156   9.601  0.0123 -1.2472  1.6883
38714SOL    HW218150   7.391   7.275   9.681  0.4754 -0.6759  1.1411
38715SOL     OW18151   2.703   9.636   3.703 -0.1112  0.6122  0.7014
38715SOL    HW118152   2.629   9.621   3.644 -0.6174  0.9571  1.2352
38715SOL    HW218153   2.698   9.564   3.766  0.8237 -0.1374 -0.0495
38716SOL     OW18154   6.966   3.679   3.015  0.4036  0.0583  0.5237
38716SOL    HW118155   6.967   3.690   3.110 -4.0033 -0.1096  0.7823
38716SOL    HW218156   6.996   3.763   2.981  0.8112  0.5747  2.0476
38717SOL     OW18157   6.017   6.607   5.415  0.5787  0.2046 -0.3273
38717SOL    HW118158   5.997   6.572   5.502 -0.5078 -0.2525 -0.7553
38717SOL    HW218159   5.973   6.692   5.413 -0.6712 -0.4456 -0.9734
38718SOL     OW18160   4.872   0.119   1.691  0.5619 -1.4437 -0.1845
38718SOL    HW118161   4.831   0.183   1.749  1.0279  0.4767 -1.8832
38718SOL    HW218162   4.835   0.136   1.605  1.7496 -2.5454 -0.9571
38719SOL     OW18163   4.960   2.384   4.011 -0.0180 -0.4577 -0.0123
38719SOL    HW118164   4.987   2.301   3.972  0.3457 -0.6312  0.5941
38719SOL    HW218165   4.867   2.392   3.988  0.3422 -0.2161 -1.4782
38720SOL     OW18166   1.290   8.273   3.527 -0.1609  0.4554 -0.1582
38720SOL    HW118167   1.279   8.178   3.534  1.0338  0.3660  1.1583
38720SOL    HW218168   1.357   8.285   3.459 -1.6165  0.4924 -1.6375
38721SOL     OW18169   6.456  10.997   3.216  0.2062 -0.0310  0.5621
38721SOL    HW118170   6.451  11.035   3.304  0.1160 -0.7165  0.8630
38721SOL    HW218171   6.529  11.043   3.175 -1.5232  2.3764 -0.0641
38722SOL     OW18172   7.637  10.552   9.494 -0.3449 -0.1868  0.1130
38722SOL    HW118173   7.718  10.502   9.495  0.2054  0.6149  3.2456
38722SOL    HW218174   7.568  10.487   9.508 -0.1760 -0.6606 -1.0768
38723SOL     OW18175   5.543   4.274   3.991 -0.0378  0.1026  0.1914
38723SOL    HW118176   5.526   4.265   4.085 -2.1798  1.2029 -0.0295
38723SOL    HW218177   5.505   4.196   3.952  0.2399 -0.0168  0.1522
38724SOL     OW18178   7.497   1.943   8.265  0.3552 -0.1666 -0.1362
38724SOL    HW118179   7.534   2.030   8.277  1.2958 -0.1982 -2.3977
38724SOL    HW218180   7.452   1.947   8.181 -2.6822 -0.8973  1.2740
38725SOL     OW18181   4.370  10.891   9.407 -0.0615 -0.5967 -0.2696
38725SOL    HW118182   4.372  10.823   9.339 -0.6809 -2.1658  1.2279
38725SOL    HW218183   4.387  10.844   9.489 -0.3665  1.0818  0.8018
38726SOL     OW18184   1.496   0.749   8.541  0.3303 -0.1024 -0.8565
38726SOL    HW118185   1.539   0.673   8.579  0.5554 -0.6092 -2.0669
38726SOL    HW218186   1.472   0.804   8.616 -2.5726 -2.7273  0.3528
38727SOL     OW18187   1.976   3.030   4.169  0.2814  0.2535 -0.1507
38727SOL    HW118188   2.009   3.118   4.189 -0.9523  0.0345  3.4717
38727SOL    HW218189   1.897   3.045   4.117 -0.1798  1.3607  0.8295
38728SOL     OW18190   3.862   9.782   5.226  0.1793 -0.2608 -0.2899
38728SOL    HW118191   3.896   9.720   5.161  0.3598  1.1291 -1.5739
38728SOL    HW218192   3.872   9.736   5.310  1.8145 -1.3274 -1.0139
38729SOL     OW18193   5.038   9.310   7.436 -0.0350 -0.1086 -0.3023
38729SOL    HW118194   4.944   9.302   7.450  0.0312 -0.3848  0.0118
38729SOL    HW218195   5.075   9.310   7.525  0.0887  2.4197 -0.2762
38730SOL     OW18196   4.294   3.798   7.975  0.2035 -0.0002 -0.3184
38730SOL    HW118197   4.305   3.882   8.019  1.8579 -0.7485  0.7710
38730SOL    HW218198   4.379   3.780   7.936  0.2682 -1.7511  0.5381
38731SOL     OW18199   2.458   2.000   7.587  0.0454 -0.5842  0.2990
38731SOL    HW118200   2.464   1.972   7.679  0.6287  0.6479  0.6581
38731SOL    HW218201   2.365   1.989   7.565  0.1621 -2.3816  0.5198
38732SOL     OW18202   9.976  10.048  10.403  0.5469  0.2195 -0.6820
38732SOL    HW118203   9.884  10.038  10.379  0.7416 -1.3568 -0.9120
38732SOL    HW218204   9.980  10.128  10.454 -0.9959  0.1692 -0.4634
38733SOL     OW18205   2.760   6.274   4.290 -0.5950 -0.0544  0.1607
38733SOL    HW118206   2.851   6.256   4.265 -0.7591 -1.8230  0.6775
38733SOL    HW218207   2.708   6.229   4.224 -1.0754  0.0127  0.4878
38734SOL     OW18208   3.869   3.469   7.713  0.9550 -0.8263 -0.4562
38734SOL    HW118209   3.873   3.419   7.632 -4.4910  0.5618 -2.0408
38734SOL    HW218210   3.880   3.560   7.685 -0.0354 -0.3961  0.4767
38735SOL     OW18211   4.325   5.322   9.436 -0.2896  0.4788 -0.8996
38735SOL    HW118212   4.267   5.355   9.367  1.0303 -2.6243 -3.8100
38735SOL    HW218213   4.413   5.350   9.408  0.0918  1.3377  1.0192
38736SOL     OW18214   6.541   7.616  10.898  0.6609  0.3699  0.1583
38736SOL    HW118215   6.622   7.627  10.849  0.2827  1.2029 -0.3003
38736SOL    HW218216   6.534   7.696  10.950  1.2028 -0.6184  1.8234
38737SOL     OW18217   0.394   2.911   7.460 -0.8420  0.1955 -0.1789
38737SOL    HW118218   0.442   2.829   7.450 -1.1436  0.1297 -1.1908
38737SOL    HW218219   0.441   2.974   7.406  0.8521  1.3982  2.4732
38738SOL     OW18220   9.963   5.205   1.858 -0.7331  0.0809 -0.2861
38738SOL    HW118221   9.966   5.169   1.770 -1.1760 -0.4720 -0.0836
38738SOL    HW218222   9.873   5.189   1.887 -0.6538  0.4599  0.1799
38739SOL     OW18223   1.505   3.985   1.842 -0.3648 -0.3834  0.1604
38739SOL    HW118224   1.471   3.961   1.928 -1.3389 -0.6022 -0.2774
38739SOL    HW218225   1.568   4.055   1.860 -0.7532 -0.2440  1.0285
38740SOL     OW18226   5.383   6.843   7.375  0.0312 -0.2794  0.0759
38740SOL    HW118227   5.448   6.888   7.321 -0.3561 -0.8773 -0.9191
38740SOL    HW218228   5.306   6.837   7.318 -0.6409 -0.2591  0.9720
38741SOL     OW18229   7.182   0.240   8.880  0.0870 -0.2608  0.0938
38741SOL    HW118230   7.114   0.306   8.873  0.7527  0.5405  0.9030
38741SOL    HW218231   7.210   0.224   8.790 -1.4397 -0.9264 -0.2963
38742SOL     OW18232   4.041   6.867   7.700  0.6696  0.1022  0.1863
38742SOL    HW118233   3.978   6.898   7.766  0.9239  0.0879  0.4397
38742SOL    HW218234   3.995   6.874   7.617  0.2998  0.0088  0.3815
38743SOL     OW18235   8.472   4.529  10.486 -0.4138  0.1005  0.6240
38743SOL    HW118236   8.394   4.567  10.526  0.1728  1.4040  0.5833
38743SOL    HW218237   8.543   4.553  10.545  0.1673  0.2442 -0.1223
38744SOL     OW18238   0.297   8.668   6.550  0.3584 -0.8166  0.1039
38744SOL    HW118239   0.341   8.716   6.621 -1.7378  0.5994  0.5425
38744SOL    HW218240   0.337   8.702   6.470  1.0686 -0.6249  0.5309
38745SOL     OW18241   7.210   9.345   7.237  0.2207 -0.4319 -0.1917
38745SOL    HW118242   7.152   9.398   7.183  0.9047 -1.9015 -2.5428
38745SOL    HW218243   7.159   9.322   7.314 -1.5511  0.0577 -1.1837
38746SOL     OW18244   1.522   5.611   6.528  0.0308  0.5014 -0.4836
38746SOL    HW118245   1.539   5.542   6.464  0.3475 -0.5899  0.7381
38746SOL    HW218246   1.454   5.665   6.488  0.6634  0.2221 -1.9996
38747SOL     OW18247   4.881   5.350   8.079  0.0498 -0.9271 -0.4648
38747SOL    HW118248   4.893   5.444   8.064  2.3067 -0.8886  1.1109
38747SOL    HW218249   4.812   5.345   8.145 -0.1664 -0.3925 -0.6438
38748SOL     OW18250   1.382   0.396   0.228  0.8213 -0.1472  0.8630
38748SOL    HW118251   1.343   0.458   0.290 -0.3830 -0.5367  0.5237
38748SOL    HW218252   1.454   0.444   0.188 -1.0523  1.6528 -0.5641
38749SOL     OW18253  10.527   6.934   5.557  0.6097 -0.0858  0.2766
38749SOL    HW118254  10.564   6.972   5.478  0.1627  1.8232  0.9436
38749SOL    HW218255  10.595   6.946   5.623 -0.1942  1.2059  0.9125
38750SOL     OW18256   6.128   8.727   5.217  0.1744  0.2319  0.0400
38750SOL    HW118257   6.142   8.817   5.186  1.3871 -0.0232 -0.2149
38750SOL    HW218258   6.142   8.732   5.311 -0.5347  0.4416  0.1446
38751SOL     OW18259   4.588   2.646  10.016 -0.8043  0.1218 -0.2767
38751SOL    HW118260   4.495   2.624  10.013 -0.5448 -0.9975 -0.2518
38751SOL    HW218261   4.609   2.673   9.926 -0.6910 -1.5985 -0.7945
38752SOL     OW18262   8.515  10.359   2.542  0.0578  0.2920  0.1616
38752SOL    HW118263   8.514  10.427   2.475  0.2764 -0.2273 -0.3817
38752SOL    HW218264   8.433  10.311   2.529 -0.4059  0.8594  0.9739
38753SOL     OW18265   4.801   7.141   4.710 -0.0483 -0.3167 -0.0802
38753SOL    HW118266   4.788   7.221   4.659 -0.5899 -0.3814 -0.0518
38753SOL    HW218267   4.822   7.074   4.645  0.2603 -0.1858 -0.1179
38754SOL     OW18268   0.347   3.632   9.892  0.1595  0.0446 -0.7781
38754SOL    HW118269   0.372   3.545   9.862 -1.0396 -1.0164  1.0932
38754SOL    HW218270   0.394   3.644   9.975 -0.5001  0.7136 -0.4822
38755SOL     OW18271   1.173   7.610   5.268 -0.3815  0.3185  0.2488
38755SOL    HW118272   1.104   7.668   5.237 -0.1452  0.6301  0.3015
38755SOL    HW218273   1.131   7.558   5.337 -0.7582  0.0033 -0.2104
38756SOL     OW18274   8.741   2.124  10.724  0.2312 -0.0555  0.2761
38756SOL    HW118275   8.714   2.187  10.791 -0.3013 -1.2018  1.1903
38756SOL    HW218276   8.830   2.100  10.748  0.4691  0.4040 -0.1277
38757SOL     OW18277   3.985   6.519   0.891  0.7038 -0.0783  0.1039
38757SOL    HW118278   4.028   6.487   0.812  0.3426  0.6441 -0.4038
38757SOL    HW218279   4.037   6.595   0.918 -0.5619  1.2200 -0.9006
38758SOL     OW18280   4.059   5.789  10.834  0.4145  0.4467 -0.5192
38758SOL    HW118281   4.076   5.703  10.872  2.3711  1.4077  1.0242
38758SOL    HW218282   4.079   5.780  10.741  0.5232 -0.7630 -0.3861
38759SOL     OW18283   5.253   1.088   3.005  0.3172 -0.3342  0.1479
38759SOL    HW118284   5.219   1.171   3.039  0.5222  0.8088 -2.2529
38759SOL    HW218285   5.348   1.094   3.018  0.2753 -0.4636  0.5229
38760SOL     OW18286   2.839   8.128   4.053  0.1720  0.1338 -0.6179
38760SOL    HW118287   2.860   8.064   4.122 -0.0745 -0.1789 -0.8294
38760SOL    HW218288   2.752   8.102   4.022 -0.0152  0.6965 -0.5677
38761SOL     OW18289  10.488   9.991   5.203  0.1228 -0.2162  0.5601
38761SOL    HW118290  10.415   9.955   5.252 -1.0642  0.9781 -0.2735
38761SOL    HW218291  10.511  10.072   5.249  0.4451 -0.2137  0.4017
38762SOL     OW18292   0.279   6.680   2.546  0.0733 -0.3756  0.3358
38762SOL    HW118293   0.305   6.678   2.454  0.8185  1.1219  0.4804
38762SOL    HW218294   0.185   6.697   2.544  0.2881  0.8915 -0.1731
38763SOL     OW18295   5.825   3.680  10.994 -0.0255 -0.0642 -0.5158
38763SOL    HW118296   5.743   3.706  10.951 -0.2218 -0.6672 -0.5162
38763SOL    HW218297   5.886   3.663  10.922  0.1378  0.5041 -0.5131
38764SOL     OW18298   7.225   5.465   8.983 -0.0476 -0.0731 -0.1886
38764SOL    HW118299   7.297   5.526   8.999  1.2605 -1.5311 -0.2576
38764SOL    HW218300   7.210   5.471   8.888 -0.1935  0.3999 -0.1409
38765SOL     OW18301   6.589   5.867   1.608 -0.0016 -0.8249 -0.3166
38765SOL    HW118302   6.517   5.918   1.646  0.4292 -0.3161 -0.1734
38765SOL    HW218303   6.554   5.834   1.525 -1.0209 -2.1079  0.5926
38766SOL     OW18304   5.049  10.591   8.763  0.1694 -0.8022  0.4265
38766SOL    HW118305   4.954  10.604   8.763  0.4661  2.0990  1.3418
38766SOL    HW218306   5.075  10.599   8.855  1.4453  0.0701  0.0278
38767SOL     OW18307   0.919   3.898   0.895  0.5855  0.0076 -0.3014
38767SOL    HW118308   0.963   3.961   0.952  0.1947  0.6347 -0.6897
38767SOL    HW218309   0.910   3.819   0.949 -1.1134  1.0593  1.0401
38768SOL     OW18310   5.407  10.263   0.660 -0.2125 -0.3145  0.2582
38768SOL    HW118311   5.415  10.357   0.646  1.1184 -0.5050 -0.3545
38768SOL    HW218312   5.362  10.255   0.745 -0.4197  0.8591  0.2664
38769SOL     OW18313   7.455   7.880   8.793 -0.5217 -0.0249  0.2218
38769SOL    HW118314   7.464   7.935   8.871  0.0687  0.1658  0.0296
38769SOL    HW218315   7.528   7.818   8.799  1.0036  1.4892 -1.3453
38770SOL     OW18316   3.246   1.786   3.815 -0.3781 -0.0794  0.1585
38770SOL    HW118317   3.293   1.831   3.885  0.7902  1.2732 -1.4107
38770SOL    HW218318   3.261   1.693   3.833  0.6569  0.2545  1.2116
38771SOL     OW18319   6.475  10.183   0.835  0.6091  0.4248  0.4591
38771SOL    HW118320   6.467  10.219   0.746  0.8343  1.2728  0.7760
38771SOL    HW218321   6.389  10.195   0.874  1.2830  2.8525  1.3728
38772SOL     OW18322   9.982   2.802   8.491  0.5304 -0.5590 -0.0862
38772SOL    HW118323  10.007   2.750   8.414  6.1276 -0.6248  1.3142
38772SOL    HW218324   9.989   2.742   8.565  0.7299  0.6787  0.9527
38773SOL     OW18325   9.226   0.900  10.217 -0.4840  0.6510  0.1021
38773SOL    HW118326   9.148   0.954  10.208 -1.5743 -0.9580 -0.5793
38773SOL    HW218327   9.238   0.861  10.130 -0.2031 -0.7995  0.7671
38774SOL     OW18328   2.214  10.513   4.255 -0.2123 -0.6283 -0.3811
38774SOL    HW118329   2.261  10.553   4.328  0.5258 -0.2320 -1.0588
38774SOL    HW218330   2.241  10.421   4.256 -0.3010 -0.6518 -0.0823
38775SOL     OW18331   8.657   8.824   7.808 -1.0495 -0.2305  0.1413
38775SOL    HW118332   8.610   8.790   7.884 -1.2714 -1.0868 -0.3676
38775SOL    HW218333   8.591   8.831   7.740 -0.9223  0.8716  0.1151
38776SOL     OW18334   2.625   1.398   3.935 -0.0116  0.5128 -0.2796
38776SOL    HW118335   2.711   1.421   3.901  0.6051 -1.4567 -0.1791
38776SOL    HW218336   2.635   1.401   4.030  0.2997 -0.8238 -0.2551
38777SOL     OW18337   7.891   7.876   5.231  0.3236 -0.4087  0.3619
38777SOL    HW118338   7.961   7.901   5.170 -0.8443  0.8667 -0.5137
38777SOL    HW218339   7.894   7.942   5.300 -1.4663  1.1088 -0.9062
38778SOL     OW18340   0.976   7.911   6.702 -0.2132 -0.0404  0.0273
38778SOL    HW118341   0.919   7.988   6.707 -2.3150 -1.5830  2.1326
38778SOL    HW218342   0.981   7.892   6.608 -2.7372  0.5363 -0.3105
38779SOL     OW18343   5.347   5.485   6.116  0.2445 -0.0134  0.0805
38779SOL    HW118344   5.294   5.410   6.144 -0.5374  0.3111 -0.4793
38779SOL    HW218345   5.338   5.487   6.021 -2.6381  2.7648  0.2202
38780SOL     OW18346   9.411   0.262   3.339  0.3484  0.0852 -0.2003
38780SOL    HW118347   9.395   0.339   3.285  0.8332  0.3218 -0.0082
38780SOL    HW218348   9.384   0.288   3.427  2.3123  0.7085  0.2631
38781SOL     OW18349   0.302   1.278   5.007 -0.2821 -0.5710 -0.1085
38781SOL    HW118350   0.240   1.350   5.018  0.8248  0.4928 -0.5576
38781SOL    HW218351   0.352   1.276   5.089 -0.4737 -0.9869 -0.0018
38782SOL     OW18352  10.052   2.284   7.193  0.3306 -0.1549  0.4745
38782SOL    HW118353  10.029   2.208   7.141  0.9544 -0.4624  0.6352
38782SOL    HW218354   9.974   2.302   7.245 -0.7622  0.9178 -1.4300
38783SOL     OW18355   6.635   3.310   5.697 -0.0134  0.3319 -0.1150
38783SOL    HW118356   6.579   3.366   5.751 -0.8040 -1.0801  0.6009
38783SOL    HW218357   6.592   3.307   5.612 -0.2239  0.4503 -0.0127
38784SOL     OW18358   3.633   9.526   3.785  0.2876  0.3558 -0.3155
38784SOL    HW118359   3.661   9.608   3.824  0.8211 -0.9661  2.2816
38784SOL    HW218360   3.706   9.465   3.801 -1.1848 -1.3327  0.3116
38785SOL     OW18361   3.993   1.463   1.128  0.2910 -0.1224  0.0648
38785SOL    HW118362   3.921   1.479   1.188  0.5779 -0.1481  0.4219
38785SOL    HW218363   3.994   1.368   1.116  0.4816 -0.1556  0.3349
38786SOL     OW18364   8.812   7.841  10.280 -0.0583 -0.0899 -0.1017
38786SOL    HW118365   8.844   7.931  10.283 -1.3245  0.3594  0.8655
38786SOL    HW218366   8.868   7.793  10.342 -0.0960  0.2786  0.2178
38787SOL     OW18367  10.106   0.436  10.800  0.0710 -0.2038  0.1268
38787SOL    HW118368  10.069   0.522  10.778  0.8322  0.1176  0.0794
38787SOL    HW218369  10.169   0.419  10.730  1.6217  0.2663  1.3497
38788SOL     OW18370  10.901   9.542   1.521 -0.1439  0.3627  0.3646
38788SOL    HW118371  10.929   9.506   1.437  0.2946 -0.2599  0.7651
38788SOL    HW218372  10.981   9.580   1.558 -0.7590  2.5968 -0.4366
38789SOL     OW18373   6.682   9.631   5.849 -0.5849  0.0579  0.1194
38789SOL    HW118374   6.739   9.699   5.885  1.2805 -0.7645 -1.1240
38789SOL    HW218375   6.614   9.679   5.801 -0.1901  1.0481  0.5226
38790SOL     OW18376   5.182   4.105   5.515 -0.0082 -0.1613  0.3565
38790SOL    HW118377   5.178   4.106   5.610  0.2508 -0.1174  0.3669
38790SOL    HW218378   5.117   4.040   5.488 -1.3760  1.0873  0.4998
38791SOL     OW18379   7.199   8.415   2.301 -0.3166 -0.2362  0.1730
38791SOL    HW118380   7.144   8.414   2.379 -2.1387 -0.4460 -1.0406
38791SOL    HW218381   7.171   8.338   2.251  0.8469 -0.1477 -0.6563
38792SOL     OW18382   4.341   4.692  10.016 -0.3444  0.7786  0.0607
38792SOL    HW118383   4.377   4.609  10.049 -1.3007 -0.0805 -0.9529
38792SOL    HW218384   4.325   4.675   9.923  0.0834  2.3490 -0.3327
38793SOL     OW18385  10.474   5.779   9.750 -0.0081  0.2653  0.1993
38793SOL    HW118386  10.395   5.736   9.783  0.9595 -1.0955  0.8102
38793SOL    HW218387  10.446   5.819   9.667 -1.0577 -1.2070 -0.1987
38794SOL     OW18388   3.122   4.897   6.414  0.0991  0.0900 -0.1227
38794SOL    HW118389   3.122   4.849   6.497  0.3048 -0.0459 -0.2001
38794SOL    HW218390   3.030   4.909   6.392  0.0473 -0.3225 -0.1333
38795SOL     OW18391   8.642   7.385   9.727 -0.0497 -0.1377  0.4652
38795SOL    HW118392   8.581   7.446   9.686 -0.2747 -1.0076 -0.5491
38795SOL    HW218393   8.722   7.435   9.739 -0.8200  0.8982  1.4334
38796SOL     OW18394   5.415   4.754   6.813 -1.4889  0.1570 -0.5143
38796SOL    HW118395   5.384   4.835   6.773 -0.0660  0.9629 -0.0592
38796SOL    HW218396   5.463   4.783   6.891 -0.4660 -1.0827 -0.6519
38797SOL     OW18397   4.316   8.193   0.967 -0.2488 -0.0250  0.0215
38797SOL    HW118398   4.239   8.190   1.025 -0.5967 -2.8049 -0.4291
38797SOL    HW218399   4.284   8.161   0.883  1.4485 -1.9025 -0.0079
38798SOL     OW18400   1.642   7.884   1.537 -0.5237  0.0796 -0.3993
38798SOL    HW118401   1.599   7.824   1.598 -1.0203  0.8841  0.0730
38798SOL    HW218402   1.733   7.887   1.566 -0.3878 -0.7884 -0.7148
38799SOL     OW18403   5.416   2.600   3.475  0.4048 -0.6273 -0.0095
38799SOL    HW118404   5.439   2.577   3.385  0.9706 -0.6644  0.1431
38799SOL    HW218405   5.326   2.570   3.485 -0.0268  0.3226 -0.8912
38800SOL     OW18406   1.378   6.841   2.073  0.3333 -0.6101  0.0303
38800SOL    HW118407   1.344   6.859   1.985 -0.0720  0.0959  0.3288
38800SOL    HW218408   1.458   6.893   2.079 -0.5881  0.7980  0.7187
38801SOL     OW18409   3.869   1.459  10.242  0.5054 -0.5066 -0.1520
38801SOL    HW118410   3.792   1.445  10.299 -0.6212  2.3009 -0.8414
38801SOL    HW218411   3.944   1.447  10.301 -0.5709  0.4762  1.5177
38802SOL     OW18412   0.052   4.715   1.570 -0.1977 -0.0643 -0.0334
38802SOL    HW118413   0.044   4.643   1.508 -0.3735 -0.0343 -0.0460
38802SOL    HW218414  -0.038   4.742   1.587 -0.1012  0.5656 -0.5072
38803SOL     OW18415   8.736   0.925  10.675 -0.0172 -0.4758  0.5077
38803SOL    HW118416   8.708   0.867  10.604 -1.0946  0.3662  0.2187
38803SOL    HW218417   8.661   0.930  10.734 -0.0540  0.8212  0.3819
38804SOL     OW18418   3.316   5.466   2.787  0.4995  0.5586 -0.3194
38804SOL    HW118419   3.394   5.452   2.735  1.4478  1.8667  0.6551
38804SOL    HW218420   3.252   5.505   2.727  1.6863  2.3626 -0.4919
38805SOL     OW18421   1.680   8.621   0.403  0.3979 -0.8193 -0.4445
38805SOL    HW118422   1.667   8.715   0.399 -1.6154 -1.0778 -1.1557
38805SOL    HW218423   1.770   8.610   0.434  1.2757  1.3209 -2.0479
38806SOL     OW18424   7.697   3.639  10.504 -0.1549  0.5608 -0.2895
38806SOL    HW118425   7.697   3.661  10.597  1.1840  2.0194 -0.5823
38806SOL    HW218426   7.655   3.553  10.499 -0.9386  0.7961  1.5593
38807SOL     OW18427   3.041   2.651   4.925  0.0246 -0.1936 -0.2321
38807SOL    HW118428   3.076   2.615   5.006  0.1766 -1.3111 -0.7676
38807SOL    HW218429   3.118   2.659   4.868  0.2415  2.3245  0.3041
38808SOL     OW18430   9.493   1.772   3.274  0.4936 -0.1773  0.2309
38808SOL    HW118431   9.453   1.839   3.218 -0.7418 -1.4065 -0.3986
38808SOL    HW218432   9.455   1.690   3.244  1.7959 -1.1533  1.1566
38809SOL     OW18433   1.896   8.668   2.571 -0.2962  0.0734 -0.8132
38809SOL    HW118434   1.855   8.732   2.630 -0.7671  0.4421 -1.5224
38809SOL    HW218435   1.837   8.664   2.496 -0.1344 -1.0181 -0.8903
38810SOL     OW18436   8.773  10.494   7.912 -0.0931  0.2924 -0.8478
38810SOL    HW118437   8.790  10.417   7.858 -0.5165 -0.3826 -0.0506
38810SOL    HW218438   8.853  10.505   7.964 -1.0600 -1.4099  1.1433
38811SOL     OW18439   6.518   3.153   3.534 -0.0525  0.2443  0.3538
38811SOL    HW118440   6.487   3.088   3.472  0.4633 -2.0880  2.3942
38811SOL    HW218441   6.606   3.125   3.557  0.5058  2.1376  0.7315
38812SOL     OW18442   8.514  11.007   3.007 -0.3432 -0.6549 -0.4636
38812SOL    HW118443   8.492  10.915   2.998 -0.1368 -0.7707  0.1800
38812SOL    HW218444   8.599  11.017   2.965  0.0732 -0.9502  0.2981
38813SOL     OW18445   4.062   3.413   5.888  0.2209 -0.2141 -0.5815
38813SOL    HW118446   4.023   3.380   5.807 -1.6437  1.0219 -0.2360
38813SOL    HW218447   4.128   3.476   5.858 -0.3674  0.1411 -1.1468
38814SOL     OW18448   5.796   7.266  10.377 -0.1419 -0.0326 -0.2947
38814SOL    HW118449   5.767   7.207  10.308 -0.8390  0.3105 -0.2940
38814SOL    HW218450   5.868   7.218  10.420 -0.8258 -0.9722 -0.1634
38815SOL     OW18451   4.370   8.313   5.535  0.7114  0.2511 -0.1724
38815SOL    HW118452   4.374   8.405   5.511  0.6589 -0.2733 -2.3520
38815SOL    HW218453   4.280   8.300   5.566  0.8285  0.9961  0.4937
38816SOL     OW18454   6.406   8.098   5.958 -0.0935  0.0141  0.1078
38816SOL    HW118455   6.342   8.067   5.894  0.9503 -0.3558 -0.8021
38816SOL    HW218456   6.367   8.079   6.043 -1.2547 -0.0401 -0.4152
38817SOL     OW18457   7.311   3.542   6.215 -0.1986  0.1631 -0.1852
38817SOL    HW118458   7.330   3.636   6.228 -2.1295  0.3271  2.2830
38817SOL    HW218459   7.376   3.498   6.270 -0.2776  0.1559 -0.0967
38818SOL     OW18460   4.459   5.581   8.397 -0.0168  0.3798  0.4733
38818SOL    HW118461   4.490   5.530   8.322 -0.8232  2.0260 -1.0460
38818SOL    HW218462   4.523   5.564   8.466  1.8298  0.2990 -1.1911
38819SOL     OW18463   4.167   0.894   4.813 -0.5114  0.3446  0.0506
38819SOL    HW118464   4.136   0.956   4.747  1.2880  0.9637 -0.2749
38819SOL    HW218465   4.195   0.949   4.887 -0.6866 -0.2137  0.5392
38820SOL     OW18466  10.072   4.678   4.386  0.2373 -0.3466 -0.1467
38820SOL    HW118467  10.003   4.674   4.320  1.2440 -0.0494 -1.2518
38820SOL    HW218468  10.151   4.650   4.340  0.6666 -1.8595  1.3977
38821SOL     OW18469   6.792   9.114  10.835 -0.2877 -0.1568  0.4132
38821SOL    HW118470   6.837   9.030  10.827  0.8058  0.1494  2.4749
38821SOL    HW218471   6.855   9.178  10.800  0.1957  0.0836  1.6570
38822SOL     OW18472   3.974   3.077   5.798  0.3511  0.6373 -0.0348
38822SOL    HW118473   3.983   2.996   5.748 -0.5185  1.3383 -1.3996
38822SOL    HW218474   4.062   3.116   5.796  0.8839 -0.4380  1.0020
38823SOL     OW18475   6.145   3.470  10.637  0.3363  0.4043  0.0383
38823SOL    HW118476   6.080   3.519  10.587 -0.0572  0.8942  1.0000
38823SOL    HW218477   6.155   3.387  10.590 -1.6245 -0.0425  0.3397
38824SOL     OW18478   8.555   9.569   4.402 -0.1708 -0.6196  0.2297
38824SOL    HW118479   8.533   9.604   4.489 -2.7510  2.3777 -1.4418
38824SOL    HW218480   8.650   9.578   4.397  0.0794 -0.9788  2.7377
38825SOL     OW18481   6.828  10.911   5.909 -0.2662 -0.1398 -0.0848
38825SOL    HW118482   6.885  10.970   5.861 -0.5823 -1.1413 -1.7590
38825SOL    HW218483   6.781  10.862   5.842 -1.3514 -1.0163  1.2461
38826SOL     OW18484   8.305   3.230   6.630  0.2078  0.4703 -0.6641
38826SOL    HW118485   8.259   3.306   6.594 -0.4372  1.1036  1.3417
38826SOL    HW218486   8.238   3.162   6.635 -0.2342  0.9836  1.0306
38827SOL     OW18487   2.777   0.506   2.158  0.7106 -0.5465 -0.2254
38827SOL    HW118488   2.775   0.511   2.062 -0.3466  0.7314 -0.1643
38827SOL    HW218489   2.722   0.430   2.179  0.8848 -0.7861 -0.6143
38828SOL     OW18490  10.043  10.955   8.529 -0.3207 -0.3317  0.5476
38828SOL    HW118491  10.084  10.920   8.450 -0.2675  0.5546  0.1680
38828SOL    HW218492  10.091  11.036   8.547 -1.1433  0.1166  0.7710
38829SOL     OW18493   9.275   2.254   6.960 -0.2250  0.1051  0.5056
38829SOL    HW118494   9.329   2.197   6.905 -0.0986  0.4012  0.3194
38829SOL    HW218495   9.242   2.321   6.900 -2.8411 -1.4537  0.0734
38830SOL     OW18496   8.539   5.400   4.933  0.1124  0.1212 -0.1443
38830SOL    HW118497   8.470   5.425   4.872 -0.0947  1.1571  0.4928
38830SOL    HW218498   8.560   5.309   4.910 -1.4417 -0.1997 -0.3653
38831SOL     OW18499   1.261   2.090   0.886  0.3963 -0.2485 -0.2969
38831SOL    HW118500   1.354   2.088   0.907  0.3436 -2.5734 -0.0158
38831SOL    HW218501   1.251   2.027   0.815 -1.0801 -0.7501  0.3073
38832SOL     OW18502   0.591   7.229   9.073 -0.2646 -0.0892  0.2049
38832SOL    HW118503   0.606   7.281   8.994  0.5364 -0.4678  0.0921
38832SOL    HW218504   0.499   7.204   9.069 -0.6808  1.3821  0.3057
38833SOL     OW18505   3.352   2.667   2.225  0.2798  0.2236  0.0112
38833SOL    HW118506   3.272   2.648   2.273  1.1347 -0.9811  1.0362
38833SOL    HW218507   3.373   2.757   2.249 -1.1276  0.8098 -0.8514
38834SOL     OW18508   7.535   5.277  10.863 -0.3520  0.2051 -0.3270
38834SOL    HW118509   7.473   5.339  10.900 -1.0172 -0.5253 -0.1808
38834SOL    HW218510   7.488   5.236  10.790  0.2396  0.2020 -0.7194
38835SOL     OW18511   7.836   9.679   2.217 -0.0742  0.1602  0.0379
38835SOL    HW118512   7.898   9.750   2.198 -0.4242  0.0380 -1.7504
38835SOL    HW218513   7.751   9.713   2.189 -0.5448 -0.3381  0.8012
38836SOL     OW18514   2.114   8.866   9.697  0.0692  0.1087 -0.4630
38836SOL    HW118515   2.196   8.882   9.652  0.0785  0.9705 -0.1648
38836SOL    HW218516   2.064   8.809   9.638  1.1530 -1.0250 -0.3185
38837SOL     OW18517   3.092   8.184   1.165 -0.1782  0.4496  0.2283
38837SOL    HW118518   3.149   8.114   1.198 -1.6125 -0.5179  0.7658
38837SOL    HW218519   3.131   8.265   1.198  1.3061 -0.1080 -0.0861
38838SOL     OW18520   8.395   0.563   3.743  0.9187  0.2882  0.1853
38838SOL    HW118521   8.362   0.587   3.657 -1.1629 -1.2176  0.4754
38838SOL    HW218522   8.370   0.636   3.800  1.8396  1.0482 -0.3714
38839SOL     OW18523   1.688   3.251   9.886 -0.1789 -0.3155  1.0571
38839SOL    HW118524   1.718   3.165   9.917 -1.4858 -0.0244  3.2954
38839SOL    HW218525   1.691   3.307   9.963  1.5392  1.9852 -0.5422
38840SOL     OW18526   0.733   7.835   9.992 -0.4058  0.2550  0.5567
38840SOL    HW118527   0.757   7.753  10.035  1.9872  0.3209 -0.4771
38840SOL    HW218528   0.738   7.902  10.060 -1.5144 -0.3161  1.2133
38841SOL     OW18529   4.543   5.448   9.358 -0.1673 -0.4633 -0.5541
38841SOL    HW118530   4.524   5.537   9.328 -1.2554 -0.2010  0.8081
38841SOL    HW218531   4.590   5.408   9.285  0.1533  1.1479 -1.2810
38842SOL     OW18532   1.375   8.483   6.852  0.1917 -0.2613 -0.1138
38842SOL    HW118533   1.359   8.561   6.906 -0.7680  1.3203 -2.5158
38842SOL    HW218534   1.300   8.479   6.793  1.4932 -1.4523 -1.7930
38843SOL     OW18535   1.754   3.084   1.541  0.3760  0.1164  0.1967
38843SOL    HW118536   1.818   3.047   1.480 -0.0064 -0.1865 -0.0268
38843SOL    HW218537   1.775   3.043   1.625 -1.1813 -2.0866 -0.3914
38844SOL     OW18538   5.853   0.780   0.362  0.3746 -0.0240  0.5035
38844SOL    HW118539   5.925   0.842   0.357 -0.5716  1.0041 -1.1491
38844SOL    HW218540   5.779   0.831   0.395 -0.4583 -0.1804 -1.0441
38845SOL     OW18541   7.798   8.546   8.651 -0.5142  0.2518  0.4024
38845SOL    HW118542   7.855   8.472   8.669  0.1300  0.4575 -0.6558
38845SOL    HW218543   7.714   8.524   8.692 -0.2149 -0.8712  0.4226
38846SOL     OW18544   3.393   8.906   5.050  0.7314  0.1128 -0.4888
38846SOL    HW118545   3.463   8.841   5.039  0.1128 -0.6831  0.2022
38846SOL    HW218546   3.312   8.855   5.049  0.0851  1.0870 -1.9208
38847SOL     OW18547   5.292   8.298   6.397 -0.2348  0.0757 -0.1706
38847SOL    HW118548   5.324   8.386   6.420 -0.3112 -0.1783  0.9701
38847SOL    HW218549   5.361   8.261   6.342  0.4209  0.3594  0.4432
38848SOL     OW18550   2.190  10.853   2.701 -0.5405 -1.0214  0.3786
38848SOL    HW118551   2.266  10.799   2.676  0.2554  0.0332  0.4443
38848SOL    HW218552   2.117  10.791   2.703  0.5481 -2.3408  1.6196
38849SOL     OW18553   0.018   5.242   3.123  0.6262  0.9163 -0.2810
38849SOL    HW118554   0.022   5.174   3.190  3.3537  1.4078  0.1881
38849SOL    HW218555   0.046   5.199   3.042  0.2399  1.0050 -0.4666
38850SOL     OW18556  10.962   5.582   3.862 -0.6188  0.2346 -0.4750
38850SOL    HW118557  10.964   5.488   3.843  1.2470  0.2359 -0.4017
38850SOL    HW218558  10.876   5.596   3.901 -0.5741 -1.6209  0.3945
38851SOL     OW18559   7.398  10.257  10.658 -0.4051 -0.2067 -0.2362
38851SOL    HW118560   7.375  10.331  10.603 -1.0089 -0.5881 -0.5001
38851SOL    HW218561   7.318  10.235  10.705  0.4618  1.0911  1.9988
38852SOL     OW18562   1.420  11.035   9.073  0.0718 -0.4015 -0.0050
38852SOL    HW118563   1.358  11.104   9.095  2.7196  2.4084 -0.6566
38852SOL    HW218564   1.388  10.999   8.990 -1.3926 -0.0197  0.3731
38853SOL     OW18565   4.815   5.687   1.537  0.5745  0.3287  0.0584
38853SOL    HW118566   4.784   5.655   1.622  1.0068 -0.0624  0.0747
38853SOL    HW218567   4.907   5.710   1.552  1.5845 -2.6139 -1.0061
38854SOL     OW18568   0.996   3.614   8.341 -0.0031 -1.3421  0.2492
38854SOL    HW118569   0.980   3.707   8.329 -1.9352 -1.7428 -0.5845
38854SOL    HW218570   1.028   3.606   8.431  3.1493  0.4091 -0.5682
38855SOL     OW18571   9.445   1.760   8.292  0.1035  0.5001  0.2117
38855SOL    HW118572   9.417   1.788   8.205  0.7347  1.5476  0.3306
38855SOL    HW218573   9.433   1.665   8.291  0.3267  0.4660 -1.1054
38856SOL     OW18574   1.763   8.801   2.792 -0.4801  0.1514 -0.3017
38856SOL    HW118575   1.713   8.809   2.711 -1.1290 -2.2314 -0.2088
38856SOL    HW218576   1.696   8.787   2.860 -0.1290  3.9960  1.1003
38857SOL     OW18577   5.381  10.740   8.951 -0.4486  0.7028  0.0502
38857SOL    HW118578   5.445  10.761   9.018  1.5133  1.6461 -2.0077
38857SOL    HW218579   5.322  10.815   8.950  0.0483  1.0979  0.1261
38858SOL     OW18580   7.203   1.231   9.928 -0.4713 -0.2470 -0.5874
38858SOL    HW118581   7.114   1.255   9.902 -0.0818  0.2890 -1.4860
38858SOL    HW218582   7.191   1.177  10.006 -1.4531  2.1076  1.0321
38859SOL     OW18583   2.302   4.324   8.682 -0.0336 -0.1935 -0.0720
38859SOL    HW118584   2.345   4.239   8.692  0.3841  0.1633  1.5312
38859SOL    HW218585   2.209   4.303   8.673  0.1328 -0.8482 -0.3221
38860SOL     OW18586   8.811   5.117   6.252 -0.3442  0.0393 -0.0151
38860SOL    HW118587   8.802   5.133   6.158 -0.4263  0.8028  0.1175
38860SOL    HW218588   8.773   5.194   6.293 -1.7821 -1.0008  0.6817
38861SOL     OW18589   4.519   2.497   2.536 -0.0939 -0.7721  0.0776
38861SOL    HW118590   4.517   2.460   2.448 -0.5814  0.6727 -0.5416
38861SOL    HW218591   4.600   2.548   2.540 -0.5236 -0.0793  0.1355
38862SOL     OW18592   8.399   9.140   7.456 -0.5446 -0.3718 -0.2141
38862SOL    HW118593   8.338   9.158   7.528 -0.4314 -1.5812  0.2200
38862SOL    HW218594   8.486   9.142   7.497 -0.4866 -1.1818 -0.2727
38863SOL     OW18595   9.226   1.222   7.351  0.2655  0.1710 -0.5291
38863SOL    HW118596   9.156   1.181   7.300 -0.8079  0.0186  0.9871
38863SOL    HW218597   9.212   1.190   7.440  1.3887  1.2872  0.0792
38864SOL     OW18598   5.216   0.125   7.550 -0.2876  0.3051 -0.9151
38864SOL    HW118599   5.123   0.100   7.547 -0.7056  1.4522  0.9481
38864SOL    HW218600   5.223   0.197   7.489 -1.0969  1.4811  0.3254
38865SOL     OW18601   2.717   4.116   1.277  0.2112  0.0760  0.1272
38865SOL    HW118602   2.762   4.038   1.245 -0.6978 -1.3233  2.0255
38865SOL    HW218603   2.718   4.106   1.373 -1.8035  1.2864  0.3244
38866SOL     OW18604   3.041   2.497   5.697 -0.2649  0.1988 -0.0727
38866SOL    HW118605   3.059   2.516   5.605 -0.5571  0.9767  0.0202
38866SOL    HW218606   3.082   2.412   5.713 -0.3932 -0.0416 -0.9727
38867SOL     OW18607   6.401   6.559   8.928 -0.3801  0.6877  0.3852
38867SOL    HW118608   6.320   6.594   8.966 -1.6236 -0.5270 -1.0649
38867SOL    HW218609   6.403   6.595   8.839 -1.4953 -2.4357 -1.0252
38868SOL     OW18610   6.776   3.595   8.866  0.1190 -0.4904  0.3826
38868SOL    HW118611   6.744   3.516   8.821  0.1409 -1.4185  1.9383
38868SOL    HW218612   6.866   3.574   8.890  0.3870  0.3279  0.1324
38869SOL     OW18613   9.393   6.041   9.944 -0.4041  0.7838 -0.2075
38869SOL    HW118614   9.327   6.106   9.921 -0.7007  0.6128  0.1349
38869SOL    HW218615   9.476   6.088   9.943 -0.4869  0.9289 -0.9557
38870SOL     OW18616   8.635   7.179  10.183  0.1859 -0.4163  0.3631
38870SOL    HW118617   8.667   7.266  10.158  1.2857 -0.7786  0.4383
38870SOL    HW218618   8.563   7.161  10.123  0.3680  0.2848 -0.0771
38871SOL     OW18619   5.410   6.009   8.361 -0.4459 -0.3900  0.7825
38871SOL    HW118620   5.330   6.015   8.309 -0.7989  2.5536  1.5304
38871SOL    HW218621   5.380   5.996   8.450 -0.1631  1.1069  1.1243
38872SOL     OW18622   3.356   6.086   4.423  0.4266 -0.2816 -0.2344
38872SOL    HW118623   3.420   6.103   4.492  0.6079  0.8099 -0.6546
38872SOL    HW218624   3.272   6.104   4.464  0.6489  3.4894 -1.0563
38873SOL     OW18625   6.060   5.063  10.497  0.1882  0.0087 -0.1405
38873SOL    HW118626   6.120   5.061  10.422  0.7245 -0.2408  0.2871
38873SOL    HW218627   5.991   5.123  10.470  0.0769 -0.5154 -1.0562
38874SOL     OW18628   1.204  10.176   1.535 -0.5213 -0.0122 -0.3242
38874SOL    HW118629   1.281  10.228   1.558  0.7976 -1.5222 -1.1625
38874SOL    HW218630   1.141  10.194   1.605 -0.1471  2.6890 -0.5896
38875SOL     OW18631   5.181   7.216   6.748  0.6070 -0.2550  0.7101
38875SOL    HW118632   5.236   7.285   6.787 -1.2070  0.8260  1.4620
38875SOL    HW218633   5.128   7.183   6.820 -0.7556 -0.2529 -0.2450
38876SOL     OW18634  10.843   7.495   9.454 -0.4691 -0.2123  0.1607
38876SOL    HW118635  10.900   7.433   9.500 -0.2572 -0.9506 -1.0438
38876SOL    HW218636  10.837   7.570   9.513  0.2650 -0.8726  1.1190
38877SOL     OW18637   2.745   1.155  10.219  0.1824 -0.1999  0.1124
38877SOL    HW118638   2.820   1.213  10.235  0.2299 -0.4380  0.7922
38877SOL    HW218639   2.761   1.079  10.274  0.1958 -0.9470 -0.8974
38878SOL     OW18640   1.448   7.772   7.271  0.6598  0.2092 -0.3744
38878SOL    HW118641   1.464   7.705   7.337  1.5204 -1.0042 -1.7532
38878SOL    HW218642   1.532   7.817   7.262  0.9749 -0.5895 -1.6354
38879SOL     OW18643   2.635   4.660   2.511 -0.2531  0.3817  0.0140
38879SOL    HW118644   2.687   4.740   2.496 -1.7064  1.1308 -1.3864
38879SOL    HW218645   2.562   4.668   2.450 -0.1039 -2.3670 -0.6297
38880SOL     OW18646   7.706   9.925   4.721 -0.3466 -0.3768 -0.2150
38880SOL    HW118647   7.747   9.853   4.672  0.3149 -0.5646  0.5913
38880SOL    HW218648   7.728  10.003   4.670  1.3579 -0.4289  0.3694
38881SOL     OW18649   9.486   8.746  10.965 -0.1723 -0.1730  0.4104
38881SOL    HW118650   9.397   8.768  10.991 -0.7650 -0.2437 -1.4644
38881SOL    HW218651   9.499   8.656  10.995 -1.3910 -0.7982 -0.8564
38882SOL     OW18652   7.042   4.266   0.357 -0.2457 -0.1899 -0.2934
38882SOL    HW118653   7.058   4.309   0.274 -1.7527  0.6370 -0.1903
38882SOL    HW218654   7.057   4.334   0.423  1.6646 -1.0258  0.2104
38883SOL     OW18655   6.025  10.142  10.222 -0.3465  0.5254  0.5243
38883SOL    HW118656   6.043  10.225  10.179  1.1194  0.6708  1.3668
38883SOL    HW218657   5.959  10.162  10.288 -0.2833  0.9248  0.4658
38884SOL     OW18658   8.890   6.051   2.452  0.3459  0.4548 -0.5089
38884SOL    HW118659   8.796   6.047   2.468  0.2651  0.6960 -0.9028
38884SOL    HW218660   8.926   5.976   2.498 -0.2057 -0.4592 -1.5304
38885SOL     OW18661   3.273   9.103   3.381  0.2727  0.1698  0.1345
38885SOL    HW118662   3.355   9.148   3.360  0.2841  0.5481  0.9405
38885SOL    HW218663   3.205   9.169   3.368  0.2203  0.2200  0.6210
38886SOL     OW18664  10.421   6.182   7.183 -0.1055  1.4595  0.7128
38886SOL    HW118665  10.490   6.239   7.150  0.5690  0.0633 -0.4329
38886SOL    HW218666  10.342   6.211   7.137  0.3810  1.0235 -0.4388
38887SOL     OW18667   1.701   7.898   7.206 -0.6905 -0.6781  0.1414
38887SOL    HW118668   1.670   7.906   7.115  1.9449  1.1592 -0.7299
38887SOL    HW218669   1.783   7.850   7.199 -1.0283 -1.5472  1.7555
38888SOL     OW18670   0.548  10.828   1.889 -0.3157  0.4282  0.3749
38888SOL    HW118671   0.604  10.787   1.823 -1.5199 -0.4351 -0.1537
38888SOL    HW218672   0.567  10.780   1.970  1.1074  1.4368  0.6711
38889SOL     OW18673   9.242   9.466   1.225 -0.6356  0.0640 -0.0706
38889SOL    HW118674   9.301   9.477   1.299  0.2624 -0.2233 -0.7287
38889SOL    HW218675   9.277   9.391   1.177 -1.8909 -0.4967 -0.1504
38890SOL     OW18676   3.967   1.707   8.957 -0.1064  0.5943 -0.2476
38890SOL    HW118677   3.939   1.724   8.867  0.6473  2.4135 -0.1700
38890SOL    HW218678   3.972   1.793   8.997  1.1447 -0.0570  1.0673
38891SOL     OW18679  10.135   6.067  10.566  0.3110 -0.8167 -0.8143
38891SOL    HW118680  10.069   6.027  10.509 -0.0620  1.0957 -1.8233
38891SOL    HW218681  10.149   6.154  10.528 -0.3959  0.8025  2.3445
38892SOL     OW18682   6.600   2.651   4.296  0.0045 -0.7445  0.1779
38892SOL    HW118683   6.620   2.697   4.378  0.1100  0.0160 -0.2695
38892SOL    HW218684   6.635   2.563   4.310  0.1695 -0.5768  0.8922
38893SOL     OW18685   9.453   8.467  10.595  0.0952  0.1319  0.1716
38893SOL    HW118686   9.373   8.416  10.590  0.2521 -0.1016  0.0055
38893SOL    HW218687   9.424   8.556  10.617 -0.1307 -0.1491  1.0408
38894SOL     OW18688   7.805   5.216   0.497 -0.2008  0.1925  0.6928
38894SOL    HW118689   7.871   5.282   0.475  0.1309 -0.9429 -2.1013
38894SOL    HW218690   7.846   5.132   0.476 -2.5128 -0.5486 -1.4978
38895SOL     OW18691   9.527   6.554   7.355 -0.5496 -0.2698  0.2945
38895SOL    HW118692   9.513   6.465   7.387  0.8301 -0.5929  0.0621
38895SOL    HW218693   9.609   6.549   7.306  0.4045  1.4709  1.6060
38896SOL     OW18694   8.494   0.298   8.649 -0.2149 -0.5247 -0.0652
38896SOL    HW118695   8.445   0.216   8.639 -0.7597 -0.1667 -0.4251
38896SOL    HW218696   8.432   0.366   8.623 -0.4381  0.1929  2.1465
38897SOL     OW18697   4.089   4.597   0.930 -0.3502  0.1058 -0.3538
38897SOL    HW118698   4.001   4.562   0.915 -0.0464 -1.0623  0.4524
38897SOL    HW218699   4.078   4.692   0.927 -1.5245 -0.0282 -0.8733
38898SOL     OW18700   0.478   7.959   5.639 -0.3450 -0.4266  0.1178
38898SOL    HW118701   0.389   7.965   5.603 -0.2108 -2.5139 -0.7316
38898SOL    HW218702   0.531   7.926   5.567  0.9162 -0.2432  0.9284
38899SOL     OW18703   2.250   4.346   0.892  0.3875 -0.0347 -0.1752
38899SOL    HW118704   2.274   4.362   0.801  2.5013  0.2067  0.3868
38899SOL    HW218705   2.327   4.306   0.931 -1.0012 -1.5527  1.1715
38900SOL     OW18706   2.416   1.547   1.142  0.0941  0.5531  0.2183
38900SOL    HW118707   2.461   1.523   1.223 -0.7607 -0.9472  0.2953
38900SOL    HW218708   2.337   1.592   1.171 -0.4184 -0.3454  0.2673
38901SOL     OW18709   2.682   3.380   2.039 -0.3053 -0.1686  0.2202
38901SOL    HW118710   2.648   3.437   2.108 -1.2470  0.6225 -0.8539
38901SOL    HW218711   2.604   3.337   2.004  0.1742 -0.6397 -0.2840
38902SOL     OW18712   4.287   2.530   9.472  0.0733  1.3010  0.3669
38902SOL    HW118713   4.258   2.552   9.561  1.9279 -1.6654  1.8741
38902SOL    HW218714   4.362   2.588   9.457  0.5068  0.9928  1.2713
38903SOL     OW18715   9.195   5.760   4.280 -0.2828 -0.3890 -0.0358
38903SOL    HW118716   9.201   5.853   4.259 -1.5271 -0.5207 -1.1194
38903SOL    HW218717   9.124   5.728   4.224  1.8841 -2.5750 -1.7230
38904SOL     OW18718   4.030   8.642  10.046 -0.2361  0.3279  0.2997
38904SOL    HW118719   3.944   8.680  10.028 -1.2346 -1.3789  1.1807
38904SOL    HW218720   4.044   8.579   9.975 -1.8837 -2.7067  2.4068
38905SOL     OW18721   7.444   5.816   8.514 -0.3723  0.6083  0.2633
38905SOL    HW118722   7.495   5.895   8.497  0.8826  0.1718  1.8030
38905SOL    HW218723   7.475   5.753   8.449 -1.8779  1.5302 -1.4392
38906SOL     OW18724   0.499  10.177   6.952 -0.3659 -0.2643  0.3557
38906SOL    HW118725   0.520  10.269   6.968 -0.1116 -0.2632  0.0054
38906SOL    HW218726   0.564  10.148   6.889  0.0434 -0.9049  1.0681
38907SOL     OW18727   7.774   6.508   4.807 -0.3429  0.0319 -0.4862
38907SOL    HW118728   7.819   6.484   4.888 -0.2300  0.3243 -0.4642
38907SOL    HW218729   7.842   6.507   4.740 -0.8514 -2.7796 -1.1100
38908SOL     OW18730   5.059   0.820   0.905 -0.3434 -0.1144  0.1823
38908SOL    HW118731   5.099   0.906   0.914 -1.1158  0.1887  0.9450
38908SOL    HW218732   5.017   0.822   0.819 -1.1694  0.6534  0.5737
38909SOL     OW18733   8.006   4.222   4.343 -0.0217  0.1669 -0.1921
38909SOL    HW118734   8.078   4.177   4.301  1.1081  1.8451 -0.1498
38909SOL    HW218735   7.933   4.160   4.340  1.5371 -1.7774  0.2237
38910SOL     OW18736   1.758   5.949   5.907 -0.3114  0.0604 -0.2839
38910SOL    HW118737   1.771   5.906   5.822  2.3590  0.8108 -0.3586
38910SOL    HW218738   1.721   6.034   5.885  0.0674  0.1265 -0.7082
38911SOL     OW18739   1.443   2.221   6.819  0.7343 -0.8135  0.3343
38911SOL    HW118740   1.353   2.227   6.789  0.3119 -0.5430  1.5863
38911SOL    HW218741   1.496   2.220   6.739 -0.4943 -4.1394 -0.6019
38912SOL     OW18742   3.544   7.828   7.983 -0.3335  0.4531 -0.3814
38912SOL    HW118743   3.454   7.859   7.976 -0.9542 -1.2571 -0.4775
38912SOL    HW218744   3.547   7.779   8.065  0.5330  0.5507 -0.3414
38913SOL     OW18745   3.939   0.464   3.971 -0.5837 -0.1845 -0.5844
38913SOL    HW118746   3.850   0.457   3.938 -0.1397 -1.3507 -1.6289
38913SOL    HW218747   3.944   0.399   4.042 -0.5185 -0.2677 -0.6640
38914SOL     OW18748   6.481   1.603   3.372 -0.0562 -0.0555  0.3314
38914SOL    HW118749   6.568   1.585   3.408  0.3998  0.4146 -0.5069
38914SOL    HW218750   6.429   1.628   3.448  0.0091 -2.1621  1.1538
38915SOL     OW18751   6.591   4.424   1.636  0.3049  0.1165  0.1009
38915SOL    HW118752   6.685   4.443   1.645  0.0951  0.6707  1.2567
38915SOL    HW218753   6.551   4.509   1.618 -0.0298 -0.0638 -0.0155
38916SOL     OW18754   3.756   1.662   5.426 -0.4382  0.2368  0.4478
38916SOL    HW118755   3.788   1.623   5.508  1.2248  0.8569  0.1225
38916SOL    HW218756   3.745   1.754   5.447  1.6637  0.7432 -0.4462
38917SOL     OW18757   3.522   6.962   6.760 -0.0517 -0.0035 -0.1260
38917SOL    HW118758   3.468   6.977   6.838 -0.4776  0.0290 -0.4229
38917SOL    HW218759   3.475   7.007   6.690 -0.2221 -0.9138 -0.6046
38918SOL     OW18760  10.085   7.440   3.925 -0.2857  0.6400 -0.1838
38918SOL    HW118761  10.131   7.508   3.974  0.9872 -0.6275  0.4880
38918SOL    HW218762  10.146   7.416   3.854  0.4073 -1.3965  1.0028
38919SOL     OW18763   7.438   1.966   5.445  0.4244  0.3823  0.0903
38919SOL    HW118764   7.528   1.961   5.413  0.1367  0.3843 -0.7243
38919SOL    HW218765   7.439   2.038   5.508  1.2254 -0.2896  0.8712
38920SOL     OW18766  10.083   1.496   2.600  0.1200  0.3358  0.1318
38920SOL    HW118767  10.089   1.431   2.529 -0.3594  0.6318 -0.1811
38920SOL    HW218768  10.044   1.573   2.559  0.7106  0.8352  0.4978
38921SOL     OW18769   6.536   9.253   9.008  0.0237  0.2035  0.3569
38921SOL    HW118770   6.620   9.246   9.054  0.9942 -0.0616 -1.3692
38921SOL    HW218771   6.470   9.249   9.078  1.3528 -1.6175  1.6021
38922SOL     OW18772   2.482   8.959   6.086  0.0424  0.5271 -0.1841
38922SOL    HW118773   2.419   8.943   6.157  0.5834  1.6419  0.5839
38922SOL    HW218774   2.520   9.045   6.106  1.5322  0.0646 -0.8286
38923SOL     OW18775   9.009   9.363   7.552  0.8156  0.4225 -0.5454
38923SOL    HW118776   9.019   9.387   7.644  0.6797  0.9669 -0.6673
38923SOL    HW218777   9.049   9.436   7.504  1.8544 -0.3657 -0.9000
38924SOL     OW18778   5.302   1.723   4.974 -0.5513 -0.4011  0.6814
38924SOL    HW118779   5.287   1.816   4.958 -1.7682 -0.8818 -1.2131
38924SOL    HW218780   5.361   1.696   4.904  0.5827 -0.8938  1.7808
38925SOL     OW18781   3.513   7.074   9.424  0.1717  0.1141 -0.1348
38925SOL    HW118782   3.580   7.116   9.370 -0.6969  0.5603 -0.8938
38925SOL    HW218783   3.431   7.115   9.396 -0.2130  1.1849  2.3189
38926SOL     OW18784   3.860   1.010   5.348 -0.0566 -0.4293  0.8182
38926SOL    HW118785   3.912   1.000   5.268 -0.2586  0.3788  0.5759
38926SOL    HW218786   3.819   1.097   5.340 -0.3180 -0.4613  1.6590
38927SOL     OW18787   1.975  10.742   6.411  0.2784  0.0666 -0.4859
38927SOL    HW118788   1.946  10.765   6.323  0.7101 -0.3228 -0.7374
38927SOL    HW218789   2.019  10.657   6.400  0.3374  0.0196  0.1017
38928SOL     OW18790   8.079   8.387   3.204 -0.0428  0.8514  0.0400
38928SOL    HW118791   8.103   8.390   3.112  0.1067 -0.2947  0.0353
38928SOL    HW218792   7.986   8.408   3.206 -1.0389 -2.7958 -0.7993
38929SOL     OW18793   2.480   0.375   5.123  0.0049 -0.0801 -0.0601
38929SOL    HW118794   2.546   0.400   5.187  0.0865  2.0307 -0.8526
38929SOL    HW218795   2.413   0.443   5.131 -0.8795 -0.8234 -0.9223
38930SOL     OW18796   0.064   4.864   9.401  0.0162  0.3277 -0.0328
38930SOL    HW118797  -0.028   4.863   9.376  0.4946 -0.2194 -1.9236
38930SOL    HW218798   0.073   4.788   9.459 -0.2320 -1.1889 -1.8917
38931SOL     OW18799   4.464   7.103   2.428  0.4044  0.0416  0.2576
38931SOL    HW118800   4.403   7.167   2.392  0.5436  0.1692  0.2495
38931SOL    HW218801   4.510   7.149   2.497 -0.1754 -0.3347  0.9058
38932SOL     OW18802   8.391   1.376   3.443  0.3666 -0.2677 -0.8307
38932SOL    HW118803   8.317   1.400   3.387 -2.8633 -0.9123  2.7209
38932SOL    HW218804   8.427   1.459   3.472 -0.7585  0.1514 -0.5600
38933SOL     OW18805   9.286   6.737   8.041 -0.4340  0.6220 -0.7434
38933SOL    HW118806   9.225   6.714   8.111  1.4840 -0.5283  0.6683
38933SOL    HW218807   9.281   6.832   8.034  0.2248  0.9342  1.9260
38934SOL     OW18808   7.284   5.908   1.324  0.1188  0.3167  0.1677
38934SOL    HW118809   7.375   5.886   1.340 -0.1937 -0.7053  0.5962
38934SOL    HW218810   7.264   5.978   1.387  0.2772 -0.2858  0.9005
38935SOL     OW18811   0.601   8.268   5.590  0.3043 -0.3423  0.5098
38935SOL    HW118812   0.537   8.263   5.661  0.0035  0.4627  0.2987
38935SOL    HW218813   0.669   8.206   5.616 -1.1749 -2.2580  0.0962
38936SOL     OW18814   9.117  10.180   8.034 -0.8878 -0.5147  0.1211
38936SOL    HW118815   9.080  10.149   8.117 -0.8391  1.4815  0.9469
38936SOL    HW218816   9.042  10.210   7.983 -0.7674  0.0794  0.2769
38937SOL     OW18817   2.086   8.476   3.503  0.0205  0.3930 -0.1715
38937SOL    HW118818   2.132   8.542   3.554 -0.8974  0.5442  0.4883
38937SOL    HW218819   2.014   8.523   3.461 -0.1632 -0.0305 -0.3430
38938SOL     OW18820   2.565   9.252   3.341 -0.2695 -0.2224 -0.0511
38938SOL    HW118821   2.608   9.334   3.366  1.4306 -0.8671 -0.6894
38938SOL    HW218822   2.472   9.274   3.337  0.2398  2.0081 -1.4636
38939SOL     OW18823   8.914  10.061   7.659  0.1443  0.2897 -0.4129
38939SOL    HW118824   8.864   9.980   7.664 -0.5752  0.6550 -1.3702
38939SOL    HW218825   8.984  10.044   7.596  0.7212  0.0560  0.2713
38940SOL     OW18826   7.512   8.209   1.103  0.3122  0.4516  0.0415
38940SOL    HW118827   7.452   8.237   1.033  1.0415 -0.9246 -1.2110
38940SOL    HW218828   7.598   8.208   1.061  1.0613  1.3279  1.4993
38941SOL     OW18829  10.544   1.598   0.682  0.3103  0.1435 -0.4129
38941SOL    HW118830  10.621   1.626   0.732 -0.7436  1.1146  0.7293
38941SOL    HW218831  10.557   1.504   0.668  1.3799  0.1642  0.3319
38942SOL     OW18832   6.340   8.949   9.555  0.0993  0.1724  0.2772
38942SOL    HW118833   6.310   9.018   9.614 -1.4129  0.1633 -0.4563
38942SOL    HW218834   6.436   8.958   9.555  0.1590  0.1828  2.7048
38943SOL     OW18835   8.669   6.825   5.428  0.0469 -0.2007 -0.6067
38943SOL    HW118836   8.634   6.865   5.349  2.4317  1.3738 -0.9642
38943SOL    HW218837   8.752   6.871   5.444 -0.4912 -0.2144  3.0124
38944SOL     OW18838   3.139   3.671   3.603  0.7760 -0.1556 -0.6062
38944SOL    HW118839   3.141   3.634   3.515 -1.1158  1.6187 -1.4591
38944SOL    HW218840   3.173   3.760   3.593 -0.7793  0.5579  0.1568
38945SOL     OW18841   8.388   7.416   7.139 -0.2546  0.2999  0.5712
38945SOL    HW118842   8.354   7.328   7.120  1.0389 -0.2742  0.8134
38945SOL    HW218843   8.324   7.453   7.200 -1.5703  0.0915 -0.6236
38946SOL     OW18844   8.811   9.225   7.254 -0.1681  0.3040 -0.2400
38946SOL    HW118845   8.727   9.184   7.274  0.0739  0.5112  1.3530
38946SOL    HW218846   8.806   9.311   7.295  1.1551 -0.0457  0.7303
38947SOL     OW18847   2.403   2.771   0.304  0.0925 -0.3384 -0.2388
38947SOL    HW118848   2.498   2.765   0.294  0.4282  1.1544  1.5851
38947SOL    HW218849   2.374   2.680   0.307  1.3566 -0.8234 -1.5317
38948SOL     OW18850   3.400   4.601   3.950 -0.7142 -0.1904  0.5652
38948SOL    HW118851   3.390   4.664   4.022  0.6788 -0.8383  1.3725
38948SOL    HW218852   3.491   4.612   3.922 -0.0547 -2.5947  1.5013
38949SOL     OW18853  10.322   9.844   9.590 -0.4720  0.2037  0.4148
38949SOL    HW118854  10.251   9.836   9.525 -1.9075  0.8703  1.8299
38949SOL    HW218855  10.278   9.832   9.674  0.9231  1.6645  1.3968
38950SOL     OW18856   5.788  10.649   0.111  0.0935 -0.3842  0.1813
38950SOL    HW118857   5.828  10.604   0.036  0.4462 -0.5795  0.4855
38950SOL    HW218858   5.736  10.719   0.072  2.8651  1.6362 -0.1373
38951SOL     OW18859   7.903   1.243   2.459  0.6574 -0.1338 -0.0212
38951SOL    HW118860   7.880   1.151   2.453  1.9104 -0.4710  0.1142
38951SOL    HW218861   7.987   1.250   2.412  0.4325  0.9894 -0.2878
38952SOL     OW18862   6.598   8.515   0.623  0.5576 -0.2713 -0.5007
38952SOL    HW118863   6.614   8.574   0.697  0.7493 -0.6525 -0.2341
38952SOL    HW218864   6.677   8.460   0.620 -0.5767 -2.0537  0.6952
38953SOL     OW18865   0.948   0.313  10.743  0.3429 -0.1612  0.4569
38953SOL    HW118866   0.863   0.299  10.785 -0.3806  1.4206 -0.3739
38953SOL    HW218867   0.987   0.226  10.738 -0.9330 -0.8281  1.4696
38954SOL     OW18868   2.468   9.811   8.597 -0.1098 -0.1723 -0.6858
38954SOL    HW118869   2.386   9.854   8.617 -1.2737 -1.6852 -1.9006
38954SOL    HW218870   2.508   9.865   8.529  0.3542  1.0342  0.5148
38955SOL     OW18871   4.317   9.313   1.115 -0.0775 -0.5876  0.3814
38955SOL    HW118872   4.307   9.311   1.210 -0.1771 -0.0175  0.3830
38955SOL    HW218873   4.325   9.221   1.091  2.1456 -0.6628  1.1797
38956SOL     OW18874   4.803   7.532   6.864  0.1880  0.4541 -0.2927
38956SOL    HW118875   4.861   7.587   6.813  0.3874  0.0807 -0.4755
38956SOL    HW218876   4.715   7.566   6.846  0.4363  2.0504  1.2384
38957SOL     OW18877   6.230   3.511   3.670 -0.6135 -0.1068 -0.1268
38957SOL    HW118878   6.256   3.505   3.763  1.7551  0.2063 -0.6939
38957SOL    HW218879   6.206   3.603   3.659  0.7633  0.2813 -0.1577
38958SOL     OW18880   3.597   3.368  10.168 -0.5039  0.0068 -0.0009
38958SOL    HW118881   3.681   3.341  10.204 -1.1706 -1.5494  0.4854
38958SOL    HW218882   3.597   3.333  10.079 -0.5910  0.0966 -0.0364
38959SOL     OW18883   6.118   8.858   0.055  0.9605  0.1047 -0.3337
38959SOL    HW118884   6.057   8.819  -0.008  0.9173 -0.5487  0.1024
38959SOL    HW218885   6.153   8.935   0.010  0.6824 -0.1647 -1.0273
38960SOL     OW18886  10.670   4.448   2.191 -0.0338  0.0681 -0.2073
38960SOL    HW118887  10.631   4.376   2.142  2.1125 -0.6181 -1.0272
38960SOL    HW218888  10.727   4.406   2.254 -1.8323  0.9886  2.1997
38961SOL     OW18889   1.444   1.565   7.487 -0.2727 -0.2473 -0.2776
38961SOL    HW118890   1.365   1.585   7.537 -0.1566 -0.7951  0.1397
38961SOL    HW218891   1.429   1.477   7.453  0.3853 -0.5955  0.2849
38962SOL     OW18892   9.744   9.783   7.195 -0.0524  0.2495 -0.1897
38962SOL    HW118893   9.769   9.705   7.145  0.4885 -0.2442  0.8213
38962SOL    HW218894   9.801   9.781   7.272 -1.6885  0.3103  1.0764
38963SOL     OW18895   8.408   0.255   8.033 -0.3888  0.4033 -0.0265
38963SOL    HW118896   8.402   0.222   8.122  1.1463 -0.4941 -0.2142
38963SOL    HW218897   8.338   0.211   7.986 -0.6614  0.2191  0.5450
38964SOL     OW18898   5.401  10.823   5.964 -0.2088 -0.6671 -0.2215
38964SOL    HW118899   5.389  10.900   5.908  0.4825  0.0435  0.5686
38964SOL    HW218900   5.329  10.827   6.026  0.7222  0.2886  0.8411
38965SOL     OW18901   2.871   2.979   7.992  0.1467  0.4751  0.0911
38965SOL    HW118902   2.942   3.002   8.052  0.2084 -0.6245  0.4712
38965SOL    HW218903   2.822   2.911   8.039  1.2736 -1.8039 -1.8050
38966SOL     OW18904   8.424   2.181   8.156 -0.2803  0.0380 -0.0739
38966SOL    HW118905   8.400   2.266   8.192 -1.5619  0.6340 -2.1372
38966SOL    HW218906   8.341   2.139   8.135  0.3521 -0.7906 -1.0604
38967SOL     OW18907  10.461   8.630   2.931 -0.6006  0.1514  0.2866
38967SOL    HW118908  10.471   8.704   2.870  0.6675 -0.0052  0.2702
38967SOL    HW218909  10.413   8.564   2.881 -0.8189  0.5675 -0.0636
38968SOL     OW18910   3.974   5.910   5.570 -0.3947  0.1928 -0.4552
38968SOL    HW118911   4.029   5.913   5.491 -0.3164  2.2285 -0.3638
38968SOL    HW218912   3.999   5.988   5.619 -1.4488 -0.3098  0.9190
38969SOL     OW18913   7.056   7.183   6.786 -0.0589  0.0144  0.3934
38969SOL    HW118914   7.076   7.126   6.859 -2.6078 -0.5020  0.7897
38969SOL    HW218915   7.057   7.126   6.709  0.6212  0.1379  0.3059
38970SOL     OW18916   6.483   3.039   0.380  0.0302  0.3346  0.0313
38970SOL    HW118917   6.483   2.944   0.396  0.3953  0.1102 -1.2499
38970SOL    HW218918   6.430   3.050   0.301  1.3236  1.0169 -0.7807
38971SOL     OW18919   8.298   7.901   9.789  0.2374  0.5414  0.1232
38971SOL    HW118920   8.376   7.882   9.737 -0.1399 -0.5037 -0.0881
38971SOL    HW218921   8.270   7.816   9.821 -0.6194  0.9537  0.4883
38972SOL     OW18922   0.758   1.720   9.399  0.5518 -0.2718  0.1493
38972SOL    HW118923   0.750   1.721   9.495  0.8938 -1.0456  0.1937
38972SOL    HW218924   0.852   1.724   9.382  0.7468 -3.0599 -0.0425
38973SOL     OW18925   7.016   7.608   8.429  0.3580  0.0815 -0.0049
38973SOL    HW118926   7.090   7.627   8.486 -0.5213  1.1998  0.8164
38973SOL    HW218927   6.965   7.542   8.476  0.2884  0.0779 -0.0843
38974SOL     OW18928   6.332   7.055   4.761  0.2570 -0.0250  0.7685
38974SOL    HW118929   6.329   7.145   4.729  0.5257  0.6535  2.5291
38974SOL    HW218930   6.275   7.006   4.702 -4.1852  2.2516  2.6479
38975SOL     OW18931   6.671   4.119   8.906  0.0194 -0.5280 -0.7833
38975SOL    HW118932   6.735   4.105   8.976  0.2814  1.0105 -0.6667
38975SOL    HW218933   6.654   4.032   8.871  0.8258 -1.1785  0.3751
38976SOL     OW18934   0.628   2.287   3.940  0.4501 -0.8889  0.1625
38976SOL    HW118935   0.548   2.333   3.964 -0.3400 -1.7306 -0.7615
38976SOL    HW218936   0.632   2.293   3.844  1.4731 -0.8922  0.1863
38977SOL     OW18937   6.631   6.138   0.215 -0.0524 -0.1756  0.2176
38977SOL    HW118938   6.579   6.062   0.242 -1.1340  0.2885 -0.5050
38977SOL    HW218939   6.682   6.106   0.141 -2.6978  0.4857 -2.0725
38978SOL     OW18940   2.401   0.461   1.282 -0.2817 -0.0872 -0.2792
38978SOL    HW118941   2.395   0.367   1.301  1.4929  0.1500  1.7333
38978SOL    HW218942   2.353   0.503   1.354 -0.9009  0.5698 -1.0616
38979SOL     OW18943   3.460  11.005   2.145 -0.2712  0.2238  0.1393
38979SOL    HW118944   3.422  10.918   2.150  0.9921 -0.3745 -0.2693
38979SOL    HW218945   3.423  11.043   2.065 -2.0857  0.7275  1.1550
38980SOL     OW18946   0.971  10.003   5.136  0.2574  0.6872 -0.2258
38980SOL    HW118947   0.909   9.931   5.152  1.0248  0.1318  0.3445
38980SOL    HW218948   1.046   9.983   5.193  0.5568  1.8561 -0.1857
38981SOL     OW18949   2.560   0.541   4.073  0.4101  0.2144  0.1016
38981SOL    HW118950   2.487   0.599   4.052  0.5078  0.9233  1.5802
38981SOL    HW218951   2.520   0.461   4.105  0.2892  0.3913  0.3865
38982SOL     OW18952   4.340   9.748   3.128  0.0712 -0.0594  0.0631
38982SOL    HW118953   4.386   9.720   3.049  1.0914 -2.3066  1.3587
38982SOL    HW218954   4.396   9.719   3.200 -2.1472 -0.6213  1.6715
38983SOL     OW18955   5.725   8.899   6.360 -0.6731 -0.3995 -0.6588
38983SOL    HW118956   5.676   8.940   6.289 -1.5348 -0.9265 -0.3748
38983SOL    HW218957   5.730   8.806   6.335  0.2415 -0.3452 -0.7182
38984SOL     OW18958  10.879   8.560   0.367 -0.1756 -0.4969 -0.3828
38984SOL    HW118959  10.859   8.512   0.287 -0.0778 -1.8312  0.3703
38984SOL    HW218960  10.843   8.506   0.438  1.2097 -0.2133  0.6005
38985SOL     OW18961  10.848   8.676   2.668  0.2324 -0.1203  0.1558
38985SOL    HW118962  10.760   8.658   2.635  0.0050  0.4891  0.4079
38985SOL    HW218963  10.881   8.746   2.612  0.1045  0.4506  0.7718
38986SOL     OW18964   9.762   1.131   9.661  0.3780 -0.1122  0.6265
38986SOL    HW118965   9.811   1.213   9.663 -0.8500  0.6423  1.7533
38986SOL    HW218966   9.818   1.068   9.706  0.4805  0.6371  1.5778
38987SOL     OW18967  10.900   1.741   4.256  0.0604  0.1223  0.3470
38987SOL    HW118968  10.819   1.750   4.206 -1.3843 -0.7852  2.3671
38987SOL    HW218969  10.924   1.831   4.279  1.9861  0.8144 -3.5670
38988SOL     OW18970   0.607  10.197   1.783 -0.6019 -0.7133  0.4743
38988SOL    HW118971   0.600  10.268   1.718  0.7500 -1.1272 -0.1594
38988SOL    HW218972   0.519  10.161   1.787 -1.2924  0.8822  0.6889
38989SOL     OW18973   0.589   3.513   3.265  0.0368  0.1558 -0.1787
38989SOL    HW118974   0.609   3.579   3.332 -0.9143  1.7317 -1.3609
38989SOL    HW218975   0.627   3.549   3.185  0.9814 -1.5995 -0.5560
38990SOL     OW18976   6.038   7.292   7.867 -0.2731 -0.9044  0.6015
38990SOL    HW118977   6.022   7.264   7.777 -0.9696 -2.8534  1.2721
38990SOL    HW218978   6.057   7.211   7.914  3.4875  0.3633  1.6144
38991SOL     OW18979   0.787   8.309   7.970  0.2747  0.9206  0.0612
38991SOL    HW118980   0.852   8.359   7.920  0.1050  0.3559 -0.7349
38991SOL    HW218981   0.703   8.348   7.947 -0.0093 -0.6005 -1.6844
38992SOL     OW18982   7.108   3.563   7.057 -0.7632  0.1316  0.2741
38992SOL    HW118983   7.124   3.648   7.017  1.3711 -0.6769 -0.7160
38992SOL    HW218984   7.041   3.522   7.001 -0.6466  0.5423 -0.1696
38993SOL     OW18985   5.640  10.174   5.936 -0.2604  0.0527 -0.6257
38993SOL    HW118986   5.638  10.262   5.897 -0.7385 -0.3193 -1.4769
38993SOL    HW218987   5.709  10.179   6.002 -0.3455  1.0977 -0.5835
38994SOL     OW18988   9.870   7.376   7.793  0.1416 -0.0748  0.0728
38994SOL    HW118989   9.877   7.379   7.697 -1.0220  0.0272 -0.0301
38994SOL    HW218990   9.776   7.362   7.809  0.1402  1.0655  1.2153
38995SOL     OW18991   4.481   6.894   8.698 -0.1316 -0.5104  0.3057
38995SOL    HW118992   4.502   6.819   8.644 -0.8522 -0.1499 -0.5158
38995SOL    HW218993   4.555   6.953   8.687 -0.1697 -0.5350 -0.1375
38996SOL     OW18994   7.679   1.757   7.317 -0.2380  0.5146  0.0711
38996SOL    HW118995   7.591   1.725   7.336  0.5722 -1.8483  0.1304
38996SOL    HW218996   7.709   1.703   7.244  0.9289  1.7382 -0.3902
38997SOL     OW18997   5.249   4.559   9.127 -0.1189 -0.2041 -0.2139
38997SOL    HW118998   5.317   4.592   9.186 -0.3019 -0.3085  0.0557
38997SOL    HW218999   5.266   4.604   9.044 -1.0033  1.3758  0.4198
38998SOL     OW19000  10.504   0.406   6.604  0.0683 -0.5452 -0.3706
38998SOL    HW119001  10.570   0.447   6.548 -0.1635 -0.9339 -0.9431
38998SOL    HW219002  10.542   0.321   6.627 -0.5824 -1.1420 -1.4206
38999SOL     OW19003  10.992   9.980   7.899  0.7492  0.0181  0.0662
38999SOL    HW119004  11.029   9.900   7.937 -1.0232 -0.5201  0.7768
38999SOL    HW219005  10.906   9.988   7.940  0.5624  1.8730 -0.5931
39000SOL     OW19006   5.347   3.562   4.744  0.2684 -0.1076  0.0529
39000SOL    HW119007   5.440   3.577   4.759  0.1394 -1.4795  2.7699
39000SOL    HW219008   5.316   3.517   4.823 -2.0723 -2.3682 -1.9287
39001SOL     OW19009   7.157   7.651   1.112  0.1505 -0.4283  0.3755
39001SOL    HW119010   7.193   7.726   1.159 -0.8989  0.0060  0.4987
39001SOL    HW219011   7.137   7.586   1.179  1.7873 -1.1682  0.2065
39002SOL     OW19012   8.258   2.281  10.265 -0.3940 -0.4865 -0.4294
39002SOL    HW119013   8.229   2.325  10.345  1.6462 -0.3009  0.2561
39002SOL    HW219014   8.228   2.338  10.195 -1.0042  0.0678  0.2587
39003SOL     OW19015   3.752   6.340   3.595 -0.1572  0.0358 -0.2020
39003SOL    HW119016   3.832   6.288   3.583  0.4346  0.5181  1.3609
39003SOL    HW219017   3.763   6.382   3.681 -1.6557  0.9029 -0.3894
39004SOL     OW19018   2.590   6.154   8.223  0.3577  0.4042  0.7435
39004SOL    HW119019   2.522   6.087   8.226 -0.3884  1.1886  1.7529
39004SOL    HW219020   2.544   6.237   8.234  1.3537  1.0409  0.2954
39005SOL     OW19021   1.375   4.448   1.995  0.4502  0.2644 -0.1423
39005SOL    HW119022   1.398   4.370   2.045 -0.6605 -0.4016 -0.6458
39005SOL    HW219023   1.304   4.489   2.045  1.8154  1.6349  0.7549
39006SOL     OW19024   0.970  10.339   9.868 -0.0491 -0.5011 -0.0042
39006SOL    HW119025   1.022  10.315   9.944  0.4906 -0.1603 -0.2597
39006SOL    HW219026   1.030  10.390   9.812 -0.6437 -0.1188 -0.3099
39007SOL     OW19027   6.751   2.912   0.056  0.2088 -0.4248 -0.1775
39007SOL    HW119028   6.807   2.924   0.134 -0.4721  0.9754  0.1295
39007SOL    HW219029   6.676   2.862   0.088  0.1306 -0.2139 -0.0278
39008SOL     OW19030   1.502   4.128   6.904  0.4269 -0.5583 -0.2548
39008SOL    HW119031   1.535   4.058   6.961  0.0160  0.2320  0.9910
39008SOL    HW219032   1.550   4.206   6.931 -0.0225 -0.0971 -0.7640
39009SOL     OW19033   6.751   0.796   6.538  0.1777  0.5873 -0.3145
39009SOL    HW119034   6.740   0.861   6.468 -0.0807  1.3080  0.3706
39009SOL    HW219035   6.826   0.744   6.512 -0.1167  0.6419 -1.2836
39010SOL     OW19036   2.359   6.779   6.208 -0.4791 -0.5304 -0.0843
39010SOL    HW119037   2.449   6.797   6.234 -0.3020 -1.6233  0.1315
39010SOL    HW219038   2.316   6.749   6.289 -0.9419 -0.3265 -0.2534
39011SOL     OW19039   3.631   6.741   7.612 -0.0569 -0.0507  0.0057
39011SOL    HW119040   3.657   6.816   7.666  0.1879  1.4025 -2.0173
39011SOL    HW219041   3.566   6.776   7.551 -0.3625 -1.6304 -0.6321
39012SOL     OW19042   3.800   8.459   5.678  0.1079  0.1847  0.3811
39012SOL    HW119043   3.859   8.384   5.674 -1.9008 -1.4548 -1.1340
39012SOL    HW219044   3.726   8.428   5.730 -0.2759  1.5077  0.6607
39013SOL     OW19045   9.615  10.774   4.576  0.0068  0.5692  0.6308
39013SOL    HW119046   9.548  10.717   4.614  0.3983 -1.5456 -1.6378
39013SOL    HW219047   9.688  10.769   4.637  0.2915 -2.0068  0.1872
39014SOL     OW19048   9.699  10.699   4.939  0.0591 -0.0001 -0.2218
39014SOL    HW119049   9.628  10.755   4.906  1.3786  2.9480  1.5635
39014SOL    HW219050   9.654  10.635   4.993 -1.3481  1.6240  0.6513
39015SOL     OW19051  10.874   5.937  10.128  0.0319 -0.4078 -0.1206
39015SOL    HW119052  10.778   5.937  10.136 -0.0903  2.5834 -0.5329
39015SOL    HW219053  10.892   5.866  10.065 -1.7810 -1.6784  0.6951
39016SOL     OW19054   6.818   5.679   8.613 -0.1265  0.4977  0.2161
39016SOL    HW119055   6.872   5.745   8.571 -2.1481  1.1800 -1.4883
39016SOL    HW219056   6.806   5.711   8.703  1.1765  0.9769  0.2358
39017SOL     OW19057   1.246   5.398   3.876  0.0680  0.3266  0.0591
39017SOL    HW119058   1.164   5.374   3.920  1.0713 -1.4637  1.0762
39017SOL    HW219059   1.264   5.487   3.906 -0.5581  0.0425  1.3381
39018SOL     OW19060   1.946   2.709  10.740  0.3741 -0.1988  0.1486
39018SOL    HW119061   1.985   2.783  10.787 -0.9402 -0.3693  1.5878
39018SOL    HW219062   1.960   2.634  10.798 -1.2805 -0.4171  0.3175
39019SOL     OW19063   1.179   4.766   3.572  0.1096 -0.5587 -0.1712
39019SOL    HW119064   1.214   4.727   3.492  0.2399 -0.6575 -0.0683
39019SOL    HW219065   1.131   4.694   3.614  0.4152 -0.6299  0.0575
39020SOL     OW19066   5.358   5.847   1.209 -0.0057 -0.0152  0.0478
39020SOL    HW119067   5.362   5.940   1.228 -0.3784  0.3399 -1.5246
39020SOL    HW219068   5.431   5.809   1.259  0.1706  1.1009  0.6626
39021SOL     OW19069   4.121   5.667   8.023 -0.2006  0.1068 -0.5115
39021SOL    HW119070   4.034   5.695   8.048  0.1012  0.3029  0.3285
39021SOL    HW219071   4.135   5.585   8.070 -0.1334 -0.2146 -1.0701
39022SOL     OW19072   3.256   4.507   9.508  0.6778  0.4135  0.3593
39022SOL    HW119073   3.209   4.428   9.480  2.7475 -0.3265 -1.3205
39022SOL    HW219074   3.198   4.548   9.572 -1.9076 -0.7595 -1.0632
39023SOL     OW19075   1.999   9.049  10.579  0.7351 -0.5593  0.4921
39023SOL    HW119076   2.049   9.054  10.498  0.7457  0.8087  0.5681
39023SOL    HW219077   1.953   8.965  10.573 -0.3252  0.1008 -1.5634
39024SOL     OW19078   1.065   6.058   3.434  0.5003 -0.6695 -0.5714
39024SOL    HW119079   1.088   6.050   3.342 -0.1031 -1.0391 -0.6993
39024SOL    HW219080   1.047   6.151   3.447 -0.3714 -0.7537 -1.0741
39025SOL     OW19081   1.561  10.708   0.016 -0.2527 -0.4451 -0.3640
39025SOL    HW119082   1.630  10.746   0.070 -0.1789 -2.1015  0.7657
39025SOL    HW219083   1.483  10.760   0.035 -0.1064 -0.6821  0.9807
39026SOL     OW19084  10.344   3.575   6.805 -0.7412 -0.2400  0.4806
39026SOL    HW119085  10.321   3.617   6.722 -0.5123 -1.0411 -0.0080
39026SOL    HW219086  10.304   3.630   6.872 -2.3268 -0.4325 -0.2404
39027SOL     OW19087   7.356   9.694   3.524  0.1411  0.4708  0.1534
39027SOL    HW119088   7.321   9.772   3.481  2.2698  0.5462 -1.6518
39027SOL    HW219089   7.316   9.621   3.477 -0.7357  0.4695  0.8780
39028SOL     OW19090   3.523  10.105   2.907  0.0692 -0.1134  0.4282
39028SOL    HW119091   3.603  10.086   2.957  0.8323  1.1165 -0.2711
39028SOL    HW219092   3.484  10.181   2.951 -0.4621 -0.4137  0.4801
39029SOL     OW19093   7.808   8.666   5.885 -0.2426 -0.0003 -0.4009
39029SOL    HW119094   7.859   8.736   5.927  0.0428  0.4017 -1.4074
39029SOL    HW219095   7.735   8.711   5.843 -0.6890 -0.4360 -0.1043
39030SOL     OW19096   1.792   5.139   8.187  0.3256  0.0472 -0.2168
39030SOL    HW119097   1.753   5.053   8.205 -2.3858  1.4850  1.3844
39030SOL    HW219098   1.786   5.148   8.092 -0.9490 -0.8739 -0.2594
39031SOL     OW19099   8.225   9.766   9.128  0.1958 -0.1030  0.1500
39031SOL    HW119100   8.258   9.839   9.181 -2.7345  1.9053 -0.5100
39031SOL    HW219101   8.266   9.778   9.042  1.0459 -0.2981  0.5213
39032SOL     OW19102   6.867   1.452   1.431  0.4698 -0.4687 -0.1455
39032SOL    HW119103   6.914   1.533   1.451  0.7850 -0.5891 -0.4068
39032SOL    HW219104   6.775   1.475   1.443  0.5986 -0.2767  0.5255
39033SOL     OW19105   8.751   9.257   1.391 -0.2097 -0.4873 -0.0322
39033SOL    HW119106   8.764   9.308   1.311 -0.8741 -1.4454 -0.7842
39033SOL    HW219107   8.810   9.296   1.455  3.5117 -2.1671 -2.1158
39034SOL     OW19108   7.499   6.576   4.887  0.0406  0.2420  0.3358
39034SOL    HW119109   7.589   6.556   4.859  0.4392  1.2329  0.8628
39034SOL    HW219110   7.462   6.490   4.909  0.3867 -0.3442 -1.1869
39035SOL     OW19111   1.729   4.045   5.740  1.0718 -0.3772  0.8764
39035SOL    HW119112   1.773   4.018   5.821 -1.0296 -1.5979  1.6978
39035SOL    HW219113   1.639   4.016   5.752  0.8004 -1.0258 -2.1325
39036SOL     OW19114   9.538   1.240   2.865  0.2920  0.0990  0.1098
39036SOL    HW119115   9.615   1.199   2.905  0.8078  1.1201  0.1895
39036SOL    HW219116   9.553   1.334   2.876 -0.0367  0.3743 -1.6091
39037SOL     OW19117   8.625   0.614  10.778 -0.4737  0.6446  0.5557
39037SOL    HW119118   8.594   0.643  10.693  1.4254  0.4473 -0.2477
39037SOL    HW219119   8.621   0.518  10.774 -0.9484  0.6469  0.9172
39038SOL     OW19120   2.159   2.075   7.938  0.0471  0.3933 -0.0744
39038SOL    HW119121   2.071   2.058   7.972  0.5152  0.2671  1.1345
39038SOL    HW219122   2.146   2.101   7.847 -1.0936 -1.5429 -0.5102
39039SOL     OW19123   5.411   3.936   1.315 -0.0743  0.0241  0.5123
39039SOL    HW119124   5.467   3.859   1.305  0.6205  0.5137  0.5698
39039SOL    HW219125   5.322   3.902   1.306  0.2778 -0.4326 -1.8635
39040SOL     OW19126   1.511   4.063   5.411  0.2855 -0.5136  0.3581
39040SOL    HW119127   1.446   4.115   5.363 -0.4925 -0.6731  1.1979
39040SOL    HW219128   1.533   4.116   5.487  1.8683 -0.0528 -0.3985
39041SOL     OW19129   8.715   2.330   9.255 -0.8048 -0.4573  0.3347
39041SOL    HW119130   8.652   2.267   9.220 -0.6086 -0.1102 -0.6464
39041SOL    HW219131   8.669   2.414   9.255 -0.3752 -0.2178 -0.3039
39042SOL     OW19132   0.821   5.654   0.983  0.1149  0.5659 -0.0743
39042SOL    HW119133   0.866   5.715   1.041 -0.1365 -0.5280  1.3118
39042SOL    HW219134   0.881   5.580   0.975 -0.1473  0.4093 -0.6883
39043SOL     OW19135   9.400   8.002   6.789 -0.0272  0.0177  0.1338
39043SOL    HW119136   9.419   7.937   6.857 -2.2325 -0.7275  0.1266
39043SOL    HW219137   9.402   7.953   6.707 -1.4875 -0.0607  0.1068
39044SOL     OW19138   4.704   1.929  10.042 -0.7988 -0.4336  0.3476
39044SOL    HW119139   4.617   1.967  10.032 -0.9242 -0.8295 -0.1409
39044SOL    HW219140   4.725   1.939  10.135 -1.4151 -0.4364  0.4899
39045SOL     OW19141   9.572   5.040   5.395  0.0732 -0.7499 -0.2018
39045SOL    HW119142   9.600   5.013   5.482 -1.5185  0.9547  0.9114
39045SOL    HW219143   9.647   5.089   5.359  0.2861 -0.3631  0.7418
39046SOL     OW19144   0.349   2.065   5.949 -0.3368  0.3165 -0.2788
39046SOL    HW119145   0.279   2.022   5.998  0.3039 -0.4736 -0.0556
39046SOL    HW219146   0.411   2.094   6.015  0.1004  0.0257 -0.5602
39047SOL     OW19147   5.368   9.595   5.711  0.3097  0.2077  0.3319
39047SOL    HW119148   5.441   9.653   5.733  1.2472 -1.4183  1.7647
39047SOL    HW219149   5.378   9.520   5.769 -3.1480  0.3646  1.3665
39048SOL     OW19150   7.069   1.152   5.766 -0.4308  0.0748 -0.3776
39048SOL    HW119151   7.089   1.147   5.859 -0.8051 -1.0264 -0.3451
39048SOL    HW219152   6.975   1.137   5.760 -0.4104  0.1204 -0.9366
39049SOL     OW19153   7.091   3.285   9.504  0.1386  0.1192 -0.1841
39049SOL    HW119154   7.045   3.252   9.427  2.5295  0.9733 -2.0775
39049SOL    HW219155   7.170   3.231   9.511  1.6332  2.1563 -0.4083
39050SOL     OW19156   4.019   5.344   1.846 -0.1439  0.2210 -0.2912
39050SOL    HW119157   4.073   5.323   1.923 -2.0124 -0.1733  0.9858
39050SOL    HW219158   4.005   5.439   1.852  1.3153  0.5343 -1.2946
39051SOL     OW19159   4.351   4.276   2.794 -0.2020 -0.0674 -0.0677
39051SOL    HW119160   4.287   4.204   2.790 -0.7752  0.3847  0.7426
39051SOL    HW219161   4.343   4.319   2.708 -0.2285 -0.6477 -0.3613
39052SOL     OW19162  10.618   6.330   5.323  0.7554 -0.3848 -0.0465
39052SOL    HW119163  10.671   6.398   5.363 -0.1866 -0.4637  1.3969
39052SOL    HW219164  10.552   6.378   5.273  1.2698 -0.2746 -0.6308
39053SOL     OW19165   4.233  10.030   8.420 -0.0812  0.1758  0.1494
39053SOL    HW119166   4.283  10.073   8.489 -0.2795 -0.5886  0.7890
39053SOL    HW219167   4.253  10.079   8.341  0.6411  0.6843  0.6394
39054SOL     OW19168   9.496  10.881   4.882  0.6805  0.3774 -0.5256
39054SOL    HW119169   9.405  10.895   4.908  0.6712 -1.7654  0.8932
39054SOL    HW219170   9.491  10.813   4.814  1.2175 -0.0708 -0.1307
39055SOL     OW19171   4.845   8.220   5.389  0.2822 -0.2498 -0.2489
39055SOL    HW119172   4.875   8.297   5.438 -0.5177 -0.4093  0.5156
39055SOL    HW219173   4.849   8.248   5.297 -2.3346  1.6623  0.0731
39056SOL     OW19174   4.847   4.528   3.880  0.2336 -0.0762 -0.2839
39056SOL    HW119175   4.866   4.437   3.901  0.3540 -0.0496 -0.2745
39056SOL    HW219176   4.886   4.578   3.952 -0.1954 -0.0419 -0.0715
39057SOL     OW19177   3.051   9.873   9.544 -0.2663 -0.0049  0.1526
39057SOL    HW119178   3.054   9.880   9.640  0.8625 -1.8407  0.2907
39057SOL    HW219179   2.989   9.802   9.528  0.1829 -0.2684 -0.4382
39058SOL     OW19180   8.990   8.188   9.025  0.6136 -0.0201  0.3819
39058SOL    HW119181   8.991   8.223   9.114  1.1604 -0.3218  0.5026
39058SOL    HW219182   8.898   8.177   9.004  0.4606  0.6238  0.6815
39059SOL     OW19183   3.125   6.515   7.793 -0.3407  0.9220  0.1427
39059SOL    HW119184   3.109   6.604   7.826 -0.8427  0.4408  1.2385
39059SOL    HW219185   3.208   6.522   7.746  0.3570  1.6848  1.4123
39060SOL     OW19186   4.501   3.425   5.509 -0.2705 -0.3596 -0.4233
39060SOL    HW119187   4.526   3.489   5.442 -1.5309 -0.2509 -0.8208
39060SOL    HW219188   4.565   3.355   5.500  1.4607  1.0268  0.3467
39061SOL     OW19189   5.129   3.649   6.575  0.4982  0.3624  0.1584
39061SOL    HW119190   5.159   3.633   6.485  1.2760 -0.7112  0.5938
39061SOL    HW219191   5.054   3.709   6.565 -1.0483 -1.6952 -1.3815
39062SOL     OW19192   6.498   1.921   9.515 -0.1742  0.3141 -0.1763
39062SOL    HW119193   6.404   1.919   9.531  0.0400  0.5719  1.2570
39062SOL    HW219194   6.518   1.834   9.480 -0.8706  0.0830 -0.0203
39063SOL     OW19195   5.920   9.741  10.301  0.2134 -0.8059 -0.3545
39063SOL    HW119196   5.994   9.773  10.353 -1.9331  0.6568  2.0596
39063SOL    HW219197   5.916   9.801  10.227  0.0893  0.6108  0.7442
39064SOL     OW19198   1.574   9.615   0.749  0.0556 -0.1777  0.2450
39064SOL    HW119199   1.626   9.542   0.715  0.2867 -0.1429  0.5216
39064SOL    HW219200   1.484   9.596   0.721 -0.2339 -1.6060  2.0187
39065SOL     OW19201   7.467  10.664   4.718  0.0848 -0.2403 -0.1054
39065SOL    HW119202   7.469  10.683   4.811  0.9363  1.1298 -0.3754
39065SOL    HW219203   7.521  10.585   4.708 -1.7081 -1.6676  0.7682
39066SOL     OW19204   1.029   8.513   5.755  0.2075 -0.4185  0.1971
39066SOL    HW119205   1.118   8.547   5.742  0.8522 -2.4879 -1.4618
39066SOL    HW219206   0.975   8.591   5.766  1.8698  1.0323 -1.2421
39067SOL     OW19207   8.022   6.353   4.239 -0.0378  0.4820 -0.1614
39067SOL    HW119208   8.039   6.284   4.303 -0.0754  0.1214 -0.5359
39067SOL    HW219209   7.939   6.327   4.197 -0.7578  1.4539  0.6236
39068SOL     OW19210   2.625   2.261   5.047  0.3013  0.1248 -0.4778
39068SOL    HW119211   2.700   2.319   5.059 -0.0236  0.3874  0.3376
39068SOL    HW219212   2.564   2.311   4.992 -0.3765  0.9624  0.9682
39069SOL     OW19213   0.059   7.336   4.893  0.0747  0.1919 -0.5855
39069SOL    HW119214   0.026   7.333   4.983  1.3975 -0.1310 -0.0953
39069SOL    HW219215  -0.020   7.351   4.840 -0.6596  0.9106  0.6510
39070SOL     OW19216   1.074   0.808   1.648 -0.6155  0.1419 -0.0882
39070SOL    HW119217   1.074   0.789   1.554  0.9055  0.2544 -0.1431
39070SOL    HW219218   1.057   0.724   1.690 -0.1960 -0.1247 -0.4467
39071SOL     OW19219   8.229   1.750   1.698 -0.2056  0.0515 -0.1853
39071SOL    HW119220   8.320   1.777   1.709 -0.7292  1.8388  0.1327
39071SOL    HW219221   8.219   1.676   1.758  0.5687  1.0562  1.2667
39072SOL     OW19222   5.129  10.874   7.291  0.0336  0.4476 -0.3535
39072SOL    HW119223   5.041  10.836   7.295  0.4557 -0.5558 -0.1864
39072SOL    HW219224   5.178  10.827   7.359  0.4977  1.5543  0.1026
39073SOL     OW19225   0.396   3.574   0.962  0.0381  0.5144  0.8337
39073SOL    HW119226   0.478   3.524   0.953 -0.0265  0.6524 -0.9018
39073SOL    HW219227   0.373   3.567   1.054  1.3843 -0.5255  1.1153
39074SOL     OW19228   7.247   5.096   7.777 -0.3805  0.1207  0.0099
39074SOL    HW119229   7.182   5.158   7.745 -0.6973 -0.3926 -0.3655
39074SOL    HW219230   7.261   5.119   7.868 -1.4365 -0.0567  0.2269
39075SOL     OW19231   4.921   4.036   0.104 -0.4396 -0.1150  0.4823
39075SOL    HW119232   4.912   3.968   0.037 -0.2938 -0.2718  0.6216
39075SOL    HW219233   5.011   4.028   0.135  0.7021  2.3251 -1.8376
39076SOL     OW19234   2.452   9.685   0.248 -0.6632 -0.1141 -0.4584
39076SOL    HW119235   2.462   9.590   0.245 -0.5557 -0.1003 -2.6959
39076SOL    HW219236   2.541   9.719   0.256 -0.6106 -0.1990 -0.6714
39077SOL     OW19237   7.017   2.432   2.811  0.4502  0.0159 -0.2867
39077SOL    HW119238   6.952   2.478   2.758 -0.8558  0.2433  1.4208
39077SOL    HW219239   7.013   2.476   2.896  1.6204 -1.0837  0.3568
39078SOL     OW19240   6.166   8.164   8.559  0.3879  0.2053 -0.2490
39078SOL    HW119241   6.071   8.179   8.562  0.3750  0.6450 -1.8485
39078SOL    HW219242   6.200   8.210   8.636 -0.6513  0.3688  0.1315
39079SOL     OW19243   0.169   1.024   0.021  0.2487 -0.0446 -0.5248
39079SOL    HW119244   0.199   1.042   0.111 -1.2863 -0.5396  0.1246
39079SOL    HW219245   0.169   1.110  -0.021  0.8821  0.2131 -0.0109
39080SOL     OW19246   8.958   2.435   9.159  0.2264  0.1158  0.1076
39080SOL    HW119247   8.958   2.502   9.091  0.0344  0.3483  0.3308
39080SOL    HW219248   8.868   2.401   9.159  0.5353 -0.7188 -0.5594
39081SOL     OW19249   6.643   2.314   8.383 -0.3729 -0.1551 -0.5616
39081SOL    HW119250   6.688   2.369   8.447  0.6420 -0.1762 -1.2403
39081SOL    HW219251   6.702   2.311   8.308 -0.8813 -1.3366 -0.9313
39082SOL     OW19252   8.531   4.856  10.510 -0.2186 -0.3987  0.0234
39082SOL    HW119253   8.574   4.829  10.591 -0.6876  2.4558  1.3493
39082SOL    HW219254   8.603   4.875  10.449  0.3124  1.0036  1.0552
39083SOL     OW19255   4.594  10.242   2.780 -0.1479  0.4623 -0.1640
39083SOL    HW119256   4.534  10.305   2.820 -2.5095 -1.3507 -0.6486
39083SOL    HW219257   4.588  10.259   2.686 -0.3170 -0.0887 -0.2526
39084SOL     OW19258   2.941   3.916   8.106 -0.2159  0.3061  0.3820
39084SOL    HW119259   2.918   3.827   8.134 -1.0835  0.6463  0.8059
39084SOL    HW219260   3.005   3.947   8.171 -0.2244  0.1369  0.4706
39085SOL     OW19261  10.213   9.246   7.392  0.1946 -0.2349  0.5088
39085SOL    HW119262  10.123   9.259   7.423 -0.0706 -0.9204  0.0387
39085SOL    HW219263  10.214   9.158   7.356  1.2785 -0.5476  1.2400
39086SOL     OW19264   2.027   4.000   6.802  0.7248 -0.5604 -0.5627
39086SOL    HW119265   2.064   4.080   6.839  0.1867 -0.3760 -0.4240
39086SOL    HW219266   2.028   4.015   6.707 -1.6891  0.6562 -0.4532
39087SOL     OW19267   5.393   7.162   4.869  0.4798  0.0842  0.1239
39087SOL    HW119268   5.435   7.076   4.874  1.9143  0.6451 -1.4802
39087SOL    HW219269   5.465   7.225   4.875 -0.2063  1.1049 -1.4858
39088SOL     OW19270   1.756   4.945   4.090 -0.3762 -0.0464  0.0147
39088SOL    HW119271   1.716   5.015   4.038  0.8085 -0.0298 -0.9315
39088SOL    HW219272   1.845   4.937   4.055  0.0139 -0.9893  1.1358
39089SOL     OW19273   0.114   0.578   7.865 -0.2005 -0.0741  0.4623
39089SOL    HW119274   0.175   0.505   7.860 -0.1413 -0.0554  0.8888
39089SOL    HW219275   0.167   0.650   7.901 -0.4157  0.0016  0.6268
39090SOL     OW19276   5.362   4.640   0.074  0.0717  0.4513 -0.0023
39090SOL    HW119277   5.390   4.661  -0.015  0.6885 -0.4506 -0.0287
39090SOL    HW219278   5.306   4.563   0.064 -0.2854  0.6599  0.3448
39091SOL     OW19279   1.865   2.995   8.270  0.1188 -0.3398 -0.4329
39091SOL    HW119280   1.807   2.921   8.258  0.7317 -0.8716 -0.1522
39091SOL    HW219281   1.817   3.054   8.329 -0.7894 -0.0317 -1.4537
39092SOL     OW19282   2.589   9.750   7.249 -0.6279  0.1779  0.2151
39092SOL    HW119283   2.520   9.812   7.224 -2.0625 -0.8376  1.4434
39092SOL    HW219284   2.571   9.731   7.341  0.6471 -0.9701  0.2527
39093SOL     OW19285   2.052   1.550   2.033  0.3711 -0.4198 -1.0725
39093SOL    HW119286   2.053   1.483   1.964  2.1526 -2.5924  0.9237
39093SOL    HW219287   2.110   1.619   2.000  0.2865 -0.8598 -2.2057
39094SOL     OW19288   0.162   2.912   0.529  0.1519 -0.2456  0.3284
39094SOL    HW119289   0.155   2.873   0.442 -0.2236  1.3833 -0.4036
39094SOL    HW219290   0.243   2.963   0.526  0.0758 -0.0877  0.9016
39095SOL     OW19291   1.516  10.318   5.987  0.3313 -0.2847 -0.3424
39095SOL    HW119292   1.511  10.295   6.079  0.3673  0.0258 -0.2612
39095SOL    HW219293   1.610  10.312   5.966  0.3761  0.0521 -0.2496
39096SOL     OW19294  10.433   9.800   7.222  0.4704  0.7378  0.1016
39096SOL    HW119295  10.433   9.886   7.266 -2.1562  0.1860  1.3801
39096SOL    HW219296  10.499   9.749   7.271 -0.8386  0.8256  2.0911
39097SOL     OW19297   5.452   8.059   7.118  0.0810  0.1733 -0.0739
39097SOL    HW119298   5.433   7.981   7.170  1.1310  1.4847  2.4137
39097SOL    HW219299   5.506   8.113   7.175 -0.9653  2.9284 -1.5432
39098SOL     OW19300   9.264   1.262   0.120  0.1057 -0.4724  0.3838
39098SOL    HW119301   9.178   1.249   0.079 -0.2364  1.3737  0.4312
39098SOL    HW219302   9.327   1.230   0.056 -0.5754 -0.8341 -0.1130
39099SOL     OW19303   9.411   8.283   3.275 -0.2900 -0.3605  0.0170
39099SOL    HW119304   9.435   8.308   3.364 -0.7270  0.3199 -0.0532
39099SOL    HW219305   9.337   8.338   3.253  1.6757  1.7682 -1.8708
39100SOL     OW19306   0.385   7.400   1.727  0.4563 -0.3733 -0.4048
39100SOL    HW119307   0.443   7.342   1.776 -0.8795 -1.1391  0.3119
39100SOL    HW219308   0.306   7.407   1.780 -0.2922  0.2984 -1.5519
39101SOL     OW19309   8.769   4.972   8.895  0.2163 -0.1165  0.4066
39101SOL    HW119310   8.807   5.059   8.910 -1.5880  0.6538  0.8971
39101SOL    HW219311   8.710   4.959   8.970 -0.0639 -1.4579 -0.0243
39102SOL     OW19312  10.091   8.822   1.634  0.1965  1.0979 -0.1593
39102SOL    HW119313  10.080   8.843   1.541 -2.9011  0.4007 -0.0466
39102SOL    HW219314  10.033   8.883   1.680  0.1586  0.1286  1.1428
39103SOL     OW19315   9.895   9.934   4.895 -0.4671  0.6434  0.0173
39103SOL    HW119316   9.907   9.839   4.888  1.2056  0.6760  1.6745
39103SOL    HW219317   9.919   9.955   4.985  1.0169  2.8580 -0.7979
39104SOL     OW19318   5.863   6.523   1.345 -0.4727 -0.0953  0.3899
39104SOL    HW119319   5.937   6.462   1.342 -1.3655 -1.1887 -1.3611
39104SOL    HW219320   5.897   6.600   1.390  0.9793 -1.5169  1.8654
39105SOL     OW19321   2.081   0.904   1.078  0.6918 -0.6257 -0.1300
39105SOL    HW119322   2.166   0.874   1.109  1.1438  0.8622  0.1638
39105SOL    HW219323   2.056   0.973   1.139 -1.2090 -1.6951  0.3614
39106SOL     OW19324   0.659   9.101   2.701 -0.2196  0.1861  0.0765
39106SOL    HW119325   0.717   9.032   2.668 -0.9441 -0.3150 -0.1558
39106SOL    HW219326   0.571   9.067   2.690 -0.6051  1.2263 -0.2316
39107SOL     OW19327   1.659   7.589   7.074  0.0614  0.3760  0.5172
39107SOL    HW119328   1.744   7.631   7.074  1.5459 -2.3613  1.8603
39107SOL    HW219329   1.641   7.569   7.166 -0.3048 -2.1791 -0.0224
39108SOL     OW19330  10.480   5.263   2.174  0.0267  0.3882 -0.5301
39108SOL    HW119331  10.432   5.340   2.145  3.2843  2.6265 -0.5161
39108SOL    HW219332  10.426   5.226   2.244 -1.6026  2.7358 -0.4312
39109SOL     OW19333   0.364  10.799  10.513 -0.0538  0.4860  0.1103
39109SOL    HW119334   0.338  10.755  10.432  1.6657  0.1503 -0.2899
39109SOL    HW219335   0.395  10.885  10.484  0.1231  0.5444  0.4752
39110SOL     OW19336   2.485   1.520   8.115  0.1460 -0.1310  0.3254
39110SOL    HW119337   2.433   1.462   8.059 -1.3771  1.7199 -0.2856
39110SOL    HW219338   2.550   1.558   8.056  0.7516 -0.7104  0.5977
39111SOL     OW19339  10.405   8.227   0.069  0.5275  0.8352 -0.2055
39111SOL    HW119340  10.324   8.245   0.117  0.4506  0.0370 -0.0328
39111SOL    HW219341  10.457   8.173   0.129  0.7437  0.4620 -0.7272
39112SOL     OW19342   3.152   9.494  10.197  0.4094 -0.1799 -0.3987
39112SOL    HW119343   3.094   9.432  10.240  0.8999 -0.4410 -0.1011
39112SOL    HW219344   3.212   9.523  10.266  0.4765  0.2745 -0.6426
39113SOL     OW19345   9.903   3.929   6.085  0.4088  0.2203  0.0613
39113SOL    HW119346   9.985   3.969   6.116 -1.2569  2.5661  1.8330
39113SOL    HW219347   9.864   3.996   6.028 -1.1022 -0.0390  0.7461
39114SOL     OW19348   5.674   1.691   9.662  0.2737  0.3921  0.1393
39114SOL    HW119349   5.741   1.668   9.727  1.4749 -2.8977 -2.0356
39114SOL    HW219350   5.720   1.745   9.598  0.4506 -0.5260 -0.5218
39115SOL     OW19351   4.031   2.837  10.198  0.2660  0.0472 -0.3088
39115SOL    HW119352   4.125   2.831  10.216  0.1041 -1.3098  0.1400
39115SOL    HW219353   3.990   2.786  10.267 -0.6691 -1.1985 -1.7304
39116SOL     OW19354   6.648   9.782  10.106 -0.7233 -0.2484 -0.6304
39116SOL    HW119355   6.664   9.838  10.182  0.8586 -0.4512 -0.7744
39116SOL    HW219356   6.590   9.833  10.049 -0.8639  0.4340  0.1175
39117SOL     OW19357   6.954   3.740   9.127  0.8297  0.8215 -0.1031
39117SOL    HW119358   7.031   3.740   9.070  0.7715  2.8729 -0.2433
39117SOL    HW219359   6.974   3.675   9.195  2.2010  0.5380 -0.7521
39118SOL     OW19360   3.814   9.644   5.568 -0.4167 -0.5966 -0.4110
39118SOL    HW119361   3.812   9.551   5.587  1.3551 -0.8696 -1.3373
39118SOL    HW219362   3.907   9.666   5.565 -0.7903  1.1993 -0.2525
39119SOL     OW19363  10.363   9.448  10.036  0.6426 -0.1206 -0.2577
39119SOL    HW119364  10.343   9.368   9.987 -0.5023 -0.0483  0.0785
39119SOL    HW219365  10.448   9.475  10.002  0.4171 -0.7258 -1.3635
39120SOL     OW19366   1.717   2.753   8.254  0.0872  0.5635  0.2644
39120SOL    HW119367   1.749   2.700   8.327  1.3966  1.3794  0.2949
39120SOL    HW219368   1.624   2.729   8.247  0.1644 -0.2240  1.5772
39121SOL     OW19369  10.678   8.983   1.159 -0.0382  0.6229 -0.1499
39121SOL    HW119370  10.589   8.952   1.142  0.1105 -0.3850  0.7891
39121SOL    HW219371  10.733   8.932   1.100  0.1640 -0.6813  1.1131
39122SOL     OW19372   3.021   1.195   3.887  0.1085 -0.2289  0.2889
39122SOL    HW119373   2.925   1.203   3.889  0.1877  0.9772  0.2686
39122SOL    HW219374   3.049   1.218   3.975  0.4819  1.7229 -0.2706
39123SOL     OW19375   1.855   8.000   6.332  0.2463  0.2959  0.2897
39123SOL    HW119376   1.798   7.926   6.313  1.6912 -0.2688 -2.2608
39123SOL    HW219377   1.865   7.997   6.428  0.1040 -2.7288  0.3300
39124SOL     OW19378   7.876   6.837   8.966  0.1352 -0.6708  0.3769
39124SOL    HW119379   7.808   6.902   8.950 -1.1288 -1.1045  3.3457
39124SOL    HW219380   7.912   6.860   9.051  2.0497 -1.9123 -0.0248
39125SOL     OW19381   4.849   0.669   5.623 -0.0509 -0.3590  0.0357
39125SOL    HW119382   4.818   0.611   5.694 -0.1079  0.3614  0.6124
39125SOL    HW219383   4.830   0.620   5.543  1.4182 -1.8716  0.5531
39126SOL     OW19384   2.009   8.285   2.929  0.1135 -0.0029 -0.1899
39126SOL    HW119385   1.963   8.218   2.878 -1.2806  0.5125  0.3342
39126SOL    HW219386   1.978   8.368   2.893 -1.2720  0.3919  1.7442
39127SOL     OW19387   8.846   9.784  10.813  0.8643 -0.5483  0.3140
39127SOL    HW119388   8.914   9.719  10.794  0.8402 -0.7371  0.8657
39127SOL    HW219389   8.795   9.788  10.732  2.0573  0.2579 -0.4283
39128SOL     OW19390   3.289   3.439   1.380 -0.2938  0.0500 -0.4856
39128SOL    HW119391   3.260   3.420   1.292 -0.9922  1.7652 -0.6699
39128SOL    HW219392   3.223   3.499   1.415  1.0162  1.0264  0.4448
39129SOL     OW19393   0.531   6.023   9.234 -0.4483 -0.1185 -0.3339
39129SOL    HW119394   0.451   5.978   9.207 -1.5728 -0.4237  3.0681
39129SOL    HW219395   0.546   6.088   9.165 -1.4132 -2.4850 -2.9796
39130SOL     OW19396   0.393   2.677   5.863  0.1775  0.1125  0.0949
39130SOL    HW119397   0.321   2.621   5.889 -1.8998  1.9396 -1.3926
39130SOL    HW219398   0.471   2.622   5.873 -1.5625 -2.5806 -0.1115
39131SOL     OW19399  10.318  10.396   1.783 -0.2786  0.1543  0.0870
39131SOL    HW119400  10.402  10.406   1.737  1.4224  0.1765  2.9463
39131SOL    HW219401  10.315  10.304   1.809 -0.7694  0.3276  0.6755
39132SOL     OW19402   8.019   0.758   0.500 -0.1432 -0.3897 -0.0439
39132SOL    HW119403   7.926   0.759   0.524 -0.0137 -1.5077  0.5974
39132SOL    HW219404   8.056   0.688   0.554  1.3032  0.7909  0.5582
39133SOL     OW19405   0.943   0.467   1.244  0.0674  0.2401  0.1361
39133SOL    HW119406   1.030   0.469   1.205 -0.0891  2.4821 -0.2334
39133SOL    HW219407   0.887   0.432   1.176  0.5749 -0.6769  0.1758
39134SOL     OW19408   7.191   0.681   4.960  0.6655 -0.5760 -0.0928
39134SOL    HW119409   7.263   0.734   4.926  0.4699 -0.0849  0.2416
39134SOL    HW219410   7.114   0.737   4.951  0.2058 -1.3275 -1.0294
39135SOL     OW19411   4.658   5.453   3.119  0.2101 -0.3771  0.4923
39135SOL    HW119412   4.734   5.418   3.167  2.0183 -0.2406 -2.0945
39135SOL    HW219413   4.643   5.539   3.158 -2.2872 -2.3864  4.7926
39136SOL     OW19414   2.914   1.589   2.524 -0.1280 -0.4967 -0.3333
39136SOL    HW119415   2.983   1.574   2.589 -0.4797 -3.5535 -0.4959
39136SOL    HW219416   2.961   1.608   2.443  0.4141  0.1546  0.1246
39137SOL     OW19417   4.278   8.655   3.608  0.4966 -0.0519 -0.5724
39137SOL    HW119418   4.349   8.594   3.587 -1.3333 -2.3979 -0.3380
39137SOL    HW219419   4.302   8.736   3.562  2.4336 -1.2902 -1.9280
39138SOL     OW19420   5.323   6.856   7.876 -1.2762  0.2620 -0.3889
39138SOL    HW119421   5.399   6.832   7.823 -1.7474 -1.0082 -0.5279
39138SOL    HW219422   5.334   6.807   7.957 -1.2157  1.2086  0.1862
39139SOL     OW19423  10.123   4.885   0.239  0.1236 -0.4782  0.2377
39139SOL    HW119424  10.150   4.939   0.165 -0.7996  0.3422  0.4890
39139SOL    HW219425  10.151   4.796   0.215 -0.9897 -0.3913 -1.5256
39140SOL     OW19426   5.495   8.902   6.038  0.3964  0.4807  0.2657
39140SOL    HW119427   5.440   8.960   5.985  0.6470 -0.3648 -0.9647
39140SOL    HW219428   5.432   8.843   6.081  0.2597  0.4138 -0.0253
39141SOL     OW19429   8.867   6.690   2.988 -0.1915  0.1318  0.8783
39141SOL    HW119430   8.882   6.636   3.066 -0.8972  0.7890  1.4883
39141SOL    HW219431   8.837   6.628   2.921  1.1725 -0.5594  0.8704
39142SOL     OW19432   0.229   5.242   0.897 -0.1061  0.2524  0.2408
39142SOL    HW119433   0.233   5.153   0.933  0.4085  0.9857  2.0802
39142SOL    HW219434   0.207   5.298   0.972  2.4043  2.0174 -0.2100
39143SOL     OW19435   2.360   1.549   9.630  0.2705 -0.1264  0.2564
39143SOL    HW119436   2.445   1.531   9.669  2.1847  3.4315 -1.7090
39143SOL    HW219437   2.366   1.513   9.541 -0.4353 -0.2104  0.2376
39144SOL     OW19438   6.887   9.159   9.944  0.2074  0.1370 -0.4122
39144SOL    HW119439   6.914   9.121  10.027 -1.1189 -1.0066 -0.4634
39144SOL    HW219440   6.897   9.253   9.956 -1.3912  0.1017  1.5936
39145SOL     OW19441  10.920   1.611   2.385  0.1902  0.0050  0.0952
39145SOL    HW119442  10.864   1.658   2.447  0.5819  1.2213 -0.4328
39145SOL    HW219443  10.979   1.678   2.351  0.2290 -0.7056 -1.3204
39146SOL     OW19444   4.528   8.754   1.836  0.2992 -0.1152 -0.1370
39146SOL    HW119445   4.567   8.729   1.752  0.8773  0.4203 -0.0334
39146SOL    HW219446   4.481   8.836   1.817  1.6185  0.7865  0.3591
39147SOL     OW19447   3.301   3.631   1.703  0.3812 -0.1285  0.6004
39147SOL    HW119448   3.366   3.637   1.633 -0.8138  0.7933 -0.4710
39147SOL    HW219449   3.258   3.547   1.688 -0.3657  0.3845 -0.2611
39148SOL     OW19450   1.296   9.094   1.741  0.1319  0.6216 -0.1978
39148SOL    HW119451   1.384   9.131   1.743  0.9572 -1.2472 -0.1965
39148SOL    HW219452   1.294   9.040   1.662 -1.8330  2.4343 -1.5002
39149SOL     OW19453   1.671   8.680   6.015 -0.0322  0.0643  0.3945
39149SOL    HW119454   1.717   8.616   5.960  0.8019  1.2502 -0.3428
39149SOL    HW219455   1.674   8.762   5.965 -2.5998  0.3244  0.5003
39150SOL     OW19456   8.642   2.880   0.573 -0.1321  0.3328  0.0223
39150SOL    HW119457   8.642   2.971   0.602 -1.1538  0.3309  0.0812
39150SOL    HW219458   8.678   2.831   0.647 -0.0530  0.6369  0.1863
39151SOL     OW19459   8.544   4.587   1.615 -0.0264 -0.0906  0.0166
39151SOL    HW119460   8.632   4.626   1.612 -0.0009 -0.1920 -1.3485
39151SOL    HW219461   8.539   4.546   1.701  0.5370  1.5543  0.8843
39152SOL     OW19462   7.822   6.623   1.645  0.4628  0.6761 -0.2420
39152SOL    HW119463   7.881   6.552   1.622  0.1840 -0.3552  1.9585
39152SOL    HW219464   7.754   6.621   1.578  0.3643 -1.2789 -0.1375
39153SOL     OW19465   9.322   7.279   2.387 -0.5107  0.1560 -0.6600
39153SOL    HW119466   9.369   7.343   2.334 -0.4634 -0.8290 -1.8777
39153SOL    HW219467   9.271   7.228   2.323  0.9180 -2.2427 -0.0246
39154SOL     OW19468   1.267   2.731   3.141 -0.0225  0.3420  0.0696
39154SOL    HW119469   1.339   2.671   3.160 -1.0971 -0.0997  3.4687
39154SOL    HW219470   1.189   2.686   3.174 -1.6096  1.6458 -1.6751
39155SOL     OW19471   9.639   1.447   3.248 -0.1175  0.2596  0.0107
39155SOL    HW119472   9.663   1.373   3.303 -0.4389  0.6244  0.6478
39155SOL    HW219473   9.544   1.442   3.241 -0.4107  1.9484  2.0140
39156SOL     OW19474   9.369   8.704  10.718  0.1276 -0.4966 -0.2491
39156SOL    HW119475   9.298   8.767  10.706 -0.6986 -1.4238 -0.3628
39156SOL    HW219476   9.417   8.735  10.795  1.1657  1.5560 -1.6299
39157SOL     OW19477   1.474   6.200   7.195 -0.8819  0.5500 -1.0650
39157SOL    HW119478   1.522   6.260   7.139 -1.2114 -0.0581 -2.0122
39157SOL    HW219479   1.436   6.135   7.136  0.6027 -1.4334  0.0083
39158SOL     OW19480  10.359   6.487   1.109  0.1517  0.3719  0.0012
39158SOL    HW119481  10.270   6.522   1.114  0.7861  2.2648 -0.8406
39158SOL    HW219482  10.411   6.546   1.164  0.9987 -0.3291 -0.0202
39159SOL     OW19483   7.083   2.713   0.760  0.2500  0.1938  0.3521
39159SOL    HW119484   7.068   2.619   0.772  0.2953  0.0876 -0.3814
39159SOL    HW219485   7.170   2.718   0.720 -0.1113  0.4907 -0.4134
39160SOL     OW19486   1.450   5.684   2.206  0.6855  0.3727 -0.3873
39160SOL    HW119487   1.446   5.639   2.290  1.1654  0.0513 -0.5304
39160SOL    HW219488   1.469   5.614   2.143 -2.7027  0.0489 -1.2124
39161SOL     OW19489   4.813   0.046   9.978 -0.0883 -0.4078  0.1376
39161SOL    HW119490   4.826   0.140   9.989  3.1237 -0.8480  1.1742
39161SOL    HW219491   4.755   0.021  10.050  0.1821  0.6055  0.7250
39162SOL     OW19492   9.517   1.896   7.435  0.8671 -0.2136  0.6797
39162SOL    HW119493   9.505   1.815   7.385  0.6235  0.8473 -1.0565
39162SOL    HW219494   9.433   1.910   7.478  0.0364  0.4055 -1.0537
39163SOL     OW19495   6.171  11.036  10.881 -0.5257 -0.0316  0.3153
39163SOL    HW119496   6.159  11.051  10.975 -0.6510  0.8979  0.1611
39163SOL    HW219497   6.083  11.014  10.849 -0.1091 -2.5968  0.7769
39164SOL     OW19498   3.635   2.993   8.866 -0.0060 -0.0551  0.3085
39164SOL    HW119499   3.695   2.956   8.931 -0.3433 -0.2316  0.5227
39164SOL    HW219500   3.586   2.918   8.833 -0.6331  0.1814  0.6827
39165SOL     OW19501   7.101   5.798  10.128 -0.1006  0.0895 -0.3750
39165SOL    HW119502   7.116   5.752  10.046 -1.4894  0.0706 -0.6484
39165SOL    HW219503   7.030   5.859  10.108  0.7947  1.3918  0.3379
39166SOL     OW19504   4.839   8.453   1.237 -0.4150  0.2346  0.2873
39166SOL    HW119505   4.767   8.464   1.176 -0.3798  1.3176  0.4210
39166SOL    HW219506   4.797   8.442   1.323 -0.5611 -3.2149 -0.0542
39167SOL     OW19507   3.518   3.091   3.847  0.2037  0.3007  0.0813
39167SOL    HW119508   3.541   3.151   3.918  1.3191  1.6110 -1.3264
39167SOL    HW219509   3.602   3.051   3.822 -0.3551 -0.9862  0.2325
39168SOL     OW19510   3.601   7.831   1.106 -0.1578  0.1993 -0.5740
39168SOL    HW119511   3.569   7.906   1.156  1.8605  1.2359 -0.7226
39168SOL    HW219512   3.608   7.761   1.171  0.6691  0.9957  0.2357
39169SOL     OW19513   1.245   3.467   9.854 -0.4841 -0.7765 -0.0861
39169SOL    HW119514   1.194   3.540   9.819 -0.5200 -0.0082  1.4775
39169SOL    HW219515   1.248   3.404   9.782  0.2901  1.1043 -1.8430
39170SOL     OW19516   1.956   5.405  10.159  0.5342  0.1016  0.4174
39170SOL    HW119517   1.963   5.363  10.073 -0.8873 -1.2612  0.9179
39170SOL    HW219518   1.902   5.345  10.211 -0.1849  1.7657  1.7036
39171SOL     OW19519   8.220   4.693   6.219 -0.8115  0.4543 -0.2911
39171SOL    HW119520   8.173   4.709   6.301 -0.8620 -0.3865 -0.1392
39171SOL    HW219521   8.226   4.597   6.214  0.3196  0.5253 -0.6244
39172SOL     OW19522   9.318   1.228   5.367 -0.5970 -0.4198  0.3471
39172SOL    HW119523   9.271   1.276   5.298 -1.6040  1.7356  2.3930
39172SOL    HW219524   9.265   1.149   5.381 -0.7639 -0.5379 -0.8310
39173SOL     OW19525   0.883  10.112  10.919 -0.2221  0.0287  1.1336
39173SOL    HW119526   0.796  10.139  10.949 -0.6291  0.4065 -0.3281
39173SOL    HW219527   0.934  10.193  10.918 -1.4219  0.9431 -3.1796
39174SOL     OW19528  10.948   7.737   2.156  0.2902  0.2577  0.3710
39174SOL    HW119529  10.876   7.770   2.210  0.3931 -1.2385  1.4959
39174SOL    HW219530  10.904   7.686   2.087  0.1735  1.9024 -0.8141
39175SOL     OW19531   1.634   3.788   6.522  0.0940  0.4014  0.5463
39175SOL    HW119532   1.576   3.731   6.572  1.8056 -1.8441  0.1578
39175SOL    HW219533   1.713   3.795   6.575  0.6606  0.7421 -0.3106
39176SOL     OW19534   5.737   1.551   7.940 -0.2549 -0.2504 -0.7206
39176SOL    HW119535   5.727   1.619   7.874  0.8830  0.9077  0.2594
39176SOL    HW219536   5.657   1.556   7.992 -1.0732 -1.0427 -1.8548
39177SOL     OW19537   5.630   3.102   6.044  0.6072  1.0502  0.0273
39177SOL    HW119538   5.720   3.133   6.052  0.3605  1.6627  0.5293
39177SOL    HW219539   5.591   3.122   6.129  0.0251  0.6934 -0.1541
39178SOL     OW19540   9.099   4.563   3.291  0.4825 -0.7347  0.1132
39178SOL    HW119541   9.146   4.566   3.208  0.7728 -0.2057  0.2897
39178SOL    HW219542   9.167   4.570   3.358  0.1389  0.5268  0.3657
39179SOL     OW19543   4.728   4.308   5.030  0.2098  0.4462  0.4110
39179SOL    HW119544   4.634   4.327   5.034 -0.0868 -0.7949 -0.2792
39179SOL    HW219545   4.746   4.261   5.112  0.6118  2.1684  1.3563
39180SOL     OW19546  10.273   5.331   4.420 -0.3596 -0.0509  0.4362
39180SOL    HW119547  10.237   5.344   4.508  1.6662 -0.2640  1.3735
39180SOL    HW219548  10.240   5.404   4.369  1.6284  2.4797  2.5086
39181SOL     OW19549   7.007   0.703   6.499 -0.0744 -0.3850  0.3350
39181SOL    HW119550   7.036   0.680   6.588 -0.1329 -1.7265  0.0324
39181SOL    HW219551   7.048   0.637   6.443  0.5459  0.8648 -0.7390
39182SOL     OW19552   4.498   1.525   4.368 -0.2763  0.6038 -0.4153
39182SOL    HW119553   4.579   1.483   4.398 -1.4376 -1.0505  0.6272
39182SOL    HW219554   4.493   1.503   4.275  0.5361  0.8200 -0.5119
39183SOL     OW19555   0.895  10.056   0.944  0.7363  0.3269 -0.2532
39183SOL    HW119556   0.823  10.032   1.003  1.9453  0.9741  1.5936
39183SOL    HW219557   0.855  10.117   0.882 -0.6612 -0.6038 -0.3164
39184SOL     OW19558   8.351   1.638   8.010 -0.4442  0.3870 -0.4181
39184SOL    HW119559   8.348   1.659   8.103  1.3683  0.1813 -0.2768
39184SOL    HW219560   8.343   1.543   8.006 -0.2232  0.3708 -0.4591
39185SOL     OW19561   3.141   5.121   2.603 -0.2772  0.5090 -0.3996
39185SOL    HW119562   3.047   5.105   2.596 -0.5036  1.1449  0.9019
39185SOL    HW219563   3.152   5.163   2.688  1.4878 -1.8160  0.6326
39186SOL     OW19564   3.715   3.971   4.772 -0.1716  0.3787 -0.5720
39186SOL    HW119565   3.732   4.065   4.779 -0.5950  0.4360 -0.2622
39186SOL    HW219566   3.715   3.953   4.678  1.4872  0.3862 -0.6042
39187SOL     OW19567   4.615   5.367   9.055 -0.3232  0.7001  0.6544
39187SOL    HW119568   4.655   5.451   9.076  1.1577  0.2167 -0.0871
39187SOL    HW219569   4.685   5.317   9.011 -0.3140 -1.8335  3.2237
39188SOL     OW19570   3.365   1.354   6.310 -0.0480 -0.2925 -0.2255
39188SOL    HW119571   3.272   1.362   6.327 -0.1465 -0.9118 -0.4691
39188SOL    HW219572   3.387   1.264   6.332  0.3708 -0.3192 -0.7250
39189SOL     OW19573   6.869   0.021   9.913 -0.4999 -0.1954  0.6888
39189SOL    HW119574   6.831   0.046   9.997 -1.2128 -0.3990  0.4410
39189SOL    HW219575   6.893   0.104   9.872  1.1703 -0.1546  1.6679
39190SOL     OW19576   6.266   7.984   5.734  0.4320  0.4684 -0.3663
39190SOL    HW119577   6.235   7.994   5.644 -0.3058  0.2531 -0.1497
39190SOL    HW219578   6.318   7.904   5.733  1.5896  1.2088 -0.8899
39191SOL     OW19579   6.739   9.485   5.242  0.1735  0.8183  0.0987
39191SOL    HW119580   6.780   9.399   5.242  1.4067  1.3421 -1.6292
39191SOL    HW219581   6.805   9.544   5.279 -0.2820  1.1762  0.3603
39192SOL     OW19582   5.117   8.518   0.213 -0.0827 -0.5591 -0.0312
39192SOL    HW119583   5.095   8.585   0.278 -0.3929 -0.7750  0.0890
39192SOL    HW219584   5.076   8.439   0.247 -0.4593 -0.6185 -0.6200
39193SOL     OW19585   8.426   8.394   8.433  0.8164 -0.1903 -0.3562
39193SOL    HW119586   8.333   8.410   8.445  0.7714  1.4299 -2.2910
39193SOL    HW219587   8.465   8.407   8.519 -0.7526 -1.1918  0.5450
39194SOL     OW19588   3.910   2.346   9.726 -0.2865  0.0262  0.6495
39194SOL    HW119589   3.871   2.295   9.655 -0.2986  1.8767 -0.7516
39194SOL    HW219590   3.846   2.341   9.797 -1.5418  0.2881 -0.4227
39195SOL     OW19591   4.257   2.888   5.729  0.3486  0.2323 -0.2107
39195SOL    HW119592   4.237   2.977   5.699 -0.4855 -0.3990 -1.6421
39195SOL    HW219593   4.279   2.841   5.649  1.6692 -0.6429  0.6435
39196SOL     OW19594   1.463   7.015   4.255 -0.2409  0.4383  0.1012
39196SOL    HW119595   1.497   7.083   4.196 -0.6783  0.3476 -0.2601
39196SOL    HW219596   1.469   7.054   4.342  2.8568 -0.3641  0.3651
39197SOL     OW19597   7.931   2.391   5.254 -0.0799  0.2863 -0.7056
39197SOL    HW119598   7.954   2.433   5.171 -1.2197  0.6101 -0.8829
39197SOL    HW219599   7.966   2.302   5.248 -0.0285  0.3579 -1.4665
39198SOL     OW19600  10.784   8.112   9.173 -0.1707 -0.8807  0.1025
39198SOL    HW119601  10.878   8.096   9.179 -0.0985 -1.6291 -2.2862
39198SOL    HW219602  10.771   8.154   9.088 -2.2325 -3.0642 -0.7998
39199SOL     OW19603   1.395   9.223   5.795  0.3222  0.0054  0.0622
39199SOL    HW119604   1.452   9.300   5.783 -0.8258  0.9814  0.6500
39199SOL    HW219605   1.398   9.207   5.889 -0.9947  0.5797  0.2177
39200SOL     OW19606   6.923  10.058   7.747  0.0540 -0.7266 -0.2532
39200SOL    HW119607   6.920  10.104   7.663 -2.0049 -0.2312  0.0461
39200SOL    HW219608   7.014  10.068   7.776  0.6390 -0.3164 -2.0747
39201SOL     OW19609   6.093  10.669   7.372 -0.2260 -0.2136  0.2191
39201SOL    HW119610   6.127  10.751   7.407 -0.7643 -0.0650  0.4084
39201SOL    HW219611   6.159  10.641   7.308 -0.7350  1.1306 -0.9486
39202SOL     OW19612   7.922   5.143  10.973 -0.6537  0.1133  0.0058
39202SOL    HW119613   7.908   5.176  10.884 -0.2313 -0.9142 -0.4526
39202SOL    HW219614   7.835   5.148  11.013 -0.8686  0.5066 -0.4904
39203SOL     OW19615   3.199  10.516   6.481  0.3181  0.1193 -0.2933
39203SOL    HW119616   3.234  10.605   6.486  0.4561  0.2098 -2.2604
39203SOL    HW219617   3.120  10.523   6.427 -0.1161 -0.8477  0.1667
39204SOL     OW19618   2.482   6.157   1.955  0.3655 -0.0063  0.4530
39204SOL    HW119619   2.395   6.185   1.928  0.1827  0.1973  1.2139
39204SOL    HW219620   2.519   6.234   1.999  0.0990 -0.7160  2.0074
39205SOL     OW19621   7.557   0.253   4.241  0.2913  0.1758 -0.2570
39205SOL    HW119622   7.506   0.330   4.265 -0.6115 -0.6076  0.4287
39205SOL    HW219623   7.523   0.183   4.297  1.4558 -0.6013 -0.4796
39206SOL     OW19624   2.955   7.631   8.275 -0.8213  0.0368 -0.2580
39206SOL    HW119625   3.026   7.568   8.263 -0.2573  0.6751 -0.3552
39206SOL    HW219626   3.000   7.714   8.292 -1.5301  0.6553 -1.2995
39207SOL     OW19627   4.595   2.931   0.802  0.1724 -0.0380 -0.0627
39207SOL    HW119628   4.678   2.918   0.756  0.3759 -2.6313  0.8332
39207SOL    HW219629   4.531   2.882   0.751 -0.1066 -0.8055  0.9738
39208SOL     OW19630   5.362   2.496   3.230 -0.3613  0.1841  0.2954
39208SOL    HW119631   5.298   2.427   3.248  0.3999 -0.2825  1.3279
39208SOL    HW219632   5.424   2.457   3.169  0.1893 -0.1335  1.0450
39209SOL     OW19633   8.441   3.191   7.473 -0.2245  0.3349 -0.3149
39209SOL    HW119634   8.491   3.225   7.398  0.3787 -2.0190 -1.0484
39209SOL    HW219635   8.350   3.191   7.443  0.1634 -2.0960 -1.7742
39210SOL     OW19636   7.578   2.101   0.910  0.5008  0.2004 -0.3080
39210SOL    HW119637   7.608   2.136   0.994 -1.7730  0.6908  0.3528
39210SOL    HW219638   7.658   2.071   0.867  1.8984  1.3194  1.3777
39211SOL     OW19639   9.567   4.996   9.813 -0.0093  0.0972 -0.2341
39211SOL    HW119640   9.582   4.924   9.752  1.2215 -0.5426  0.7825
39211SOL    HW219641   9.539   5.069   9.758  0.1235 -0.7446 -1.4451
39212SOL     OW19642   4.391   7.451   0.917 -0.1500  0.6537  0.2435
39212SOL    HW119643   4.319   7.424   0.861  0.0754  0.5240  0.0129
39212SOL    HW219644   4.449   7.501   0.859  0.9194 -0.8590 -0.0629
39213SOL     OW19645  10.601   9.473   8.833 -0.5123  0.0601 -0.0271
39213SOL    HW119646  10.649   9.391   8.848  1.7536  1.2215 -0.4646
39213SOL    HW219647  10.538   9.477   8.905  0.4808 -1.2529  0.9734
39214SOL     OW19648   2.056   2.736   9.599  0.1170  0.1322  0.2777
39214SOL    HW119649   2.139   2.691   9.613  0.1623  0.6499  1.8744
39214SOL    HW219650   2.011   2.730   9.683 -1.4033  0.0100 -0.5101
39215SOL     OW19651   1.141   7.800   2.189  0.1894  0.0221  0.1761
39215SOL    HW119652   1.064   7.760   2.229  0.1024 -0.0669 -0.0776
39215SOL    HW219653   1.184   7.728   2.143  0.3453  0.1016  0.1981
39216SOL     OW19654   2.097   3.789   2.419 -0.3229 -0.9690 -0.2151
39216SOL    HW119655   2.004   3.778   2.397 -0.0059 -0.4040 -1.9493
39216SOL    HW219656   2.111   3.883   2.417  0.3740 -1.0690 -0.3247
39217SOL     OW19657   8.545   5.560   0.149  0.0029  0.1959 -0.2202
39217SOL    HW119658   8.495   5.501   0.204  1.8814 -2.0823 -0.7960
39217SOL    HW219659   8.506   5.552   0.062  0.2780 -0.2524 -0.3052
39218SOL     OW19660   0.251  10.226   1.243  0.4900 -0.1821 -0.3619
39218SOL    HW119661   0.327  10.262   1.196  0.6056 -0.3912 -0.3339
39218SOL    HW219662   0.281  10.142   1.277  0.0459 -0.5708 -0.9093
39219SOL     OW19663   5.078   2.984   8.378  0.2815  0.2666 -0.8200
39219SOL    HW119664   5.058   2.964   8.286 -1.1770  2.6442 -1.1020
39219SOL    HW219665   5.146   3.051   8.374 -0.5053  1.1174 -0.2236
39220SOL     OW19666   0.907   6.186   8.407  0.2857  0.0083 -0.0546
39220SOL    HW119667   0.925   6.113   8.467  0.3914 -0.0179 -0.1168
39220SOL    HW219668   0.822   6.166   8.369 -2.0330  2.2554  3.4176
39221SOL     OW19669   4.626   8.139   4.831 -0.5848 -0.0745 -0.2033
39221SOL    HW119670   4.661   8.207   4.888  0.8082  0.0461 -1.1537
39221SOL    HW219671   4.562   8.184   4.776 -1.1528  0.0301  0.5403
39222SOL     OW19672   1.610   0.699   6.510 -0.2780  0.0036 -0.4348
39222SOL    HW119673   1.581   0.673   6.597 -1.5840  1.7690 -0.2772
39222SOL    HW219674   1.599   0.621   6.456 -0.7477 -0.7304  0.6970
39223SOL     OW19675   2.172   8.275   0.522  0.3794 -0.8742 -0.4597
39223SOL    HW119676   2.108   8.257   0.590  1.1954 -0.8282  0.3373
39223SOL    HW219677   2.122   8.318   0.452 -0.9240 -2.9738 -0.9023
39224SOL     OW19678   8.238   9.987   3.104 -0.4005 -0.4845  0.2029
39224SOL    HW119679   8.240   9.979   3.009  0.4915 -2.0347  0.3336
39224SOL    HW219680   8.214  10.079   3.119  2.0963  0.5852 -1.5398
39225SOL     OW19681   8.029  10.233  10.181  0.9135 -0.2496  0.8155
39225SOL    HW119682   7.962  10.199  10.241  1.8525 -1.9778  0.9625
39225SOL    HW219683   8.051  10.319  10.216 -0.2981 -0.2051  1.5304
39226SOL     OW19684   3.903   6.445   7.992 -0.1635  0.5777  0.4360
39226SOL    HW119685   3.823   6.451   7.940  0.1967 -1.5673 -0.4859
39226SOL    HW219686   3.964   6.398   7.935  1.1818  0.6504  1.7740
39227SOL     OW19687  10.508   4.079   3.406  0.2048 -0.3142  0.0546
39227SOL    HW119688  10.520   4.046   3.317 -2.2547 -2.0124  0.2419
39227SOL    HW219689  10.595   4.076   3.445  0.9599 -1.7298 -1.5993
39228SOL     OW19690   0.260   2.931   3.900 -0.4802  0.5178  0.0197
39228SOL    HW119691   0.334   2.991   3.908  0.1655 -0.4458  2.0174
39228SOL    HW219692   0.238   2.907   3.991 -1.4541 -1.3454 -0.6439
39229SOL     OW19693   5.769   2.609   3.446 -0.4313  0.2016  0.6448
39229SOL    HW119694   5.787   2.519   3.418  0.4025  0.0966  1.4490
39229SOL    HW219695   5.742   2.599   3.538  1.9770  0.9263  1.5158
39230SOL     OW19696   4.828   3.075   8.425  0.0023  0.3474  0.2987
39230SOL    HW119697   4.907   3.024   8.408 -0.2737  0.2136 -0.6281
39230SOL    HW219698   4.782   3.027   8.494  2.3852  2.2235  3.4703
39231SOL     OW19699   9.971  10.897   4.437  0.1905 -0.1000 -0.4921
39231SOL    HW119700   9.961  10.990   4.457  0.1335  0.0692 -1.2720
39231SOL    HW219701   9.992  10.857   4.521  0.2911  0.6283 -0.1583
39232SOL     OW19702   9.785   6.528  10.330 -0.1869  0.3718  0.0763
39232SOL    HW119703   9.854   6.556  10.269 -0.0765 -1.2154 -0.6017
39232SOL    HW219704   9.820   6.548  10.417  0.7189  0.4649 -0.2982
39233SOL     OW19705   1.573   7.837   8.317  0.3220  0.3020  0.5293
39233SOL    HW119706   1.669   7.831   8.324  0.5689  0.9423 -1.5843
39233SOL    HW219707   1.556   7.931   8.320 -0.1325  0.2418 -0.1077
39234SOL     OW19708   3.782  10.894   6.099  0.1930  0.2137 -0.2816
39234SOL    HW119709   3.750  10.968   6.047 -2.1695 -0.9614 -0.6107
39234SOL    HW219710   3.869  10.875   6.063  0.6548  2.4720 -0.5179
39235SOL     OW19711   0.779   2.211   7.483 -0.0148  0.0530  0.2673
39235SOL    HW119712   0.722   2.170   7.418  2.0350 -0.3664 -1.3813
39235SOL    HW219713   0.855   2.152   7.490  1.5097  1.9049  0.2702
39236SOL     OW19714   2.270   1.321   8.346 -0.5599 -0.7609  0.2883
39236SOL    HW119715   2.341   1.266   8.312  0.0152 -0.1886  0.5328
39236SOL    HW219716   2.219   1.346   8.268 -1.2636 -2.2102  0.2538
39237SOL     OW19717   6.402   1.547   3.705 -0.3121  0.7808 -0.0997
39237SOL    HW119718   6.383   1.538   3.798 -0.7648  1.8520 -0.0758
39237SOL    HW219719   6.484   1.499   3.693  0.1193  1.2114  0.9877
39238SOL     OW19720  10.522   6.479   7.349 -0.1839 -0.4080  0.5760
39238SOL    HW119721  10.522   6.548   7.416 -0.4558 -0.8931  1.0818
39238SOL    HW219722  10.609   6.440   7.355  0.4147  0.6775 -0.5510
39239SOL     OW19723   7.127  10.631   7.549 -0.7560  0.1576  0.9026
39239SOL    HW119724   7.134  10.715   7.505 -0.7902 -0.0994  0.3922
39239SOL    HW219725   7.138  10.651   7.642  1.1693  0.4828  0.6405
39240SOL     OW19726   8.716   8.585   4.630 -0.1559 -0.1012 -0.0981
39240SOL    HW119727   8.653   8.523   4.594  0.7097 -0.7720 -0.4975
39240SOL    HW219728   8.793   8.533   4.650 -0.1597  0.4810  1.6137
39241SOL     OW19729   3.843   5.965  10.457 -0.4652 -0.1185 -0.2422
39241SOL    HW119730   3.874   5.890  10.405 -0.2632  0.1755 -0.5461
39241SOL    HW219731   3.840   6.038  10.395  2.0165  0.8344  0.6230
39242SOL     OW19732   5.633   3.450   3.637 -0.0029  0.2403  1.2557
39242SOL    HW119733   5.581   3.531   3.636 -0.9875 -0.2568 -2.0882
39242SOL    HW219734   5.568   3.380   3.644  0.3656 -0.3218 -0.4764
39243SOL     OW19735   1.837   9.829   3.305  0.6723  0.7405 -0.5544
39243SOL    HW119736   1.816   9.896   3.239  0.7332  0.4871 -0.8341
39243SOL    HW219737   1.930   9.842   3.323  0.6353  0.8659 -0.4546
39244SOL     OW19738   3.620   6.380   7.453  0.3265  0.2487 -0.3754
39244SOL    HW119739   3.597   6.441   7.382  0.3578 -0.2987 -0.8600
39244SOL    HW219740   3.590   6.295   7.422  1.5264 -0.2111 -0.3062
39245SOL     OW19741   5.995   7.003   2.873 -0.1533  0.2012  0.0141
39245SOL    HW119742   5.930   6.938   2.899 -0.9572  0.2534 -1.6869
39245SOL    HW219743   6.044   6.961   2.802 -0.2117  1.1735 -0.6234
39246SOL     OW19744   9.524   7.633  10.416  0.6073  0.4865 -0.3503
39246SOL    HW119745   9.504   7.701  10.481 -0.9679  1.3460 -1.6516
39246SOL    HW219746   9.555   7.559  10.468 -1.6117  0.7545  1.5473
39247SOL     OW19747  10.114   6.661   0.986  0.1699  0.1291 -0.8462
39247SOL    HW119748  10.106   6.747   1.028 -0.4467  0.5115 -1.7454
39247SOL    HW219749  10.041   6.610   1.021  0.4678 -0.0003 -0.4013
39248SOL     OW19750   8.793   1.952   3.357  0.1551  0.1084  0.6575
39248SOL    HW119751   8.724   1.892   3.329 -0.6957  0.9823  0.8575
39248SOL    HW219752   8.840   1.974   3.277  0.0742 -0.3237  0.4888
39249SOL     OW19753   5.934   6.529  10.271  0.4740 -0.1457 -0.2186
39249SOL    HW119754   5.902   6.445  10.240  2.5200 -0.8788 -0.5441
39249SOL    HW219755   5.987   6.508  10.348 -0.6216  1.1143  0.9309
39250SOL     OW19756   0.158   1.926   9.036 -0.0234 -0.5518 -0.3464
39250SOL    HW119757   0.092   1.916   9.105 -0.1151 -0.7743 -0.4631
39250SOL    HW219758   0.184   2.017   9.040 -1.5781 -0.0120 -1.4320
39251SOL     OW19759   0.715   8.423   3.848 -0.1766 -0.5219  0.0219
39251SOL    HW119760   0.791   8.463   3.807  0.0146 -1.3603 -0.4595
39251SOL    HW219761   0.669   8.496   3.890 -0.2158  0.3110 -1.4037
39252SOL     OW19762   1.485  10.421   5.746 -0.4188 -0.1037 -0.1646
39252SOL    HW119763   1.521  10.402   5.833 -0.4632 -0.9605 -0.3205
39252SOL    HW219764   1.399  10.378   5.745 -0.1600 -0.6387 -0.8341
39253SOL     OW19765   0.345   0.667   4.092 -0.3036 -0.4159 -0.1140
39253SOL    HW119766   0.356   0.679   4.186  0.0514  0.6300 -0.2683
39253SOL    HW219767   0.256   0.635   4.082 -0.8776  0.9254  0.4843
39254SOL     OW19768   9.938   7.682   8.375  0.0761  0.1304  0.1352
39254SOL    HW119769   9.913   7.694   8.283  1.6571 -0.5139 -0.4072
39254SOL    HW219770   9.863   7.716   8.424 -0.6025  0.9427 -1.3775
39255SOL     OW19771   9.124   4.409   2.891  0.1799 -0.3830 -0.2850
39255SOL    HW119772   9.060   4.340   2.911  0.1329 -0.3084 -0.1788
39255SOL    HW219773   9.074   4.475   2.843 -1.0543  1.9317  3.6807
39256SOL     OW19774   8.800   4.858   7.903  0.1349 -0.2663  0.8516
39256SOL    HW119775   8.877   4.815   7.864 -0.9591 -2.2362  0.7053
39256SOL    HW219776   8.765   4.912   7.832  1.7035  1.1721  1.1158
39257SOL     OW19777   7.872   3.326   0.828 -0.1968 -0.0229  0.5182
39257SOL    HW119778   7.874   3.407   0.879 -0.6720  0.5078 -0.2647
39257SOL    HW219779   7.913   3.350   0.744 -0.1961 -0.6356  0.3392
39258SOL     OW19780   6.085   3.834   6.319  0.2630  0.0985  0.1455
39258SOL    HW119781   6.142   3.772   6.273 -2.2418 -0.8522 -1.8922
39258SOL    HW219782   6.065   3.791   6.402  1.6852  0.0417  0.4989
39259SOL     OW19783   7.791  10.030   0.146  0.2174  0.3504  0.8095
39259SOL    HW119784   7.799   9.985   0.231  0.4611 -1.3260 -0.0648
39259SOL    HW219785   7.722   9.983   0.100  0.7323  0.6349 -0.2905
39260SOL     OW19786   9.959   0.703   4.882  0.1711  0.4500  0.3202
39260SOL    HW119787   9.939   0.610   4.874  0.4014  0.4547 -0.4499
39260SOL    HW219788   9.892   0.737   4.941  0.7504 -0.4007  1.5081
39261SOL     OW19789   6.615   2.156   8.045 -0.4991  0.1452  0.8130
39261SOL    HW119790   6.608   2.062   8.029 -0.7266  0.3304 -0.2581
39261SOL    HW219791   6.662   2.163   8.127  0.9642 -0.8753  0.1015
39262SOL     OW19792   0.437   3.562   0.589  0.1164 -0.8476 -0.0253
39262SOL    HW119793   0.501   3.596   0.650  0.6964  0.1023 -1.1344
39262SOL    HW219794   0.466   3.472   0.572  0.5949 -0.7413  0.2117
39263SOL     OW19795  10.645   3.524   7.384 -0.1063 -0.3760 -0.1557
39263SOL    HW119796  10.606   3.521   7.297 -0.4874  1.7927 -0.1227
39263SOL    HW219797  10.692   3.441   7.392  1.1630 -0.0490 -2.9861
39264SOL     OW19798  10.364   2.600   6.539  0.3896  0.8294 -0.4010
39264SOL    HW119799  10.419   2.660   6.590  0.8499  0.4272 -0.4199
39264SOL    HW219800  10.418   2.522   6.528 -0.8243 -0.2712  1.0615
39265SOL     OW19801   7.649   9.735   7.449 -0.3618 -0.0094  0.6803
39265SOL    HW119802   7.689   9.660   7.405  1.0404 -0.2272  2.2009
39265SOL    HW219803   7.694   9.739   7.534 -1.0491  1.9972  1.0039
39266SOL     OW19804   4.211   5.175   7.380 -0.5540  0.2948  0.0567
39266SOL    HW119805   4.156   5.103   7.350  0.2905  0.3874 -1.8708
39266SOL    HW219806   4.213   5.166   7.475  0.9702 -3.3398 -0.1684
39267SOL     OW19807   2.217   0.113   7.980 -0.6808 -0.5806  0.4523
39267SOL    HW119808   2.198   0.205   7.997 -0.3119 -0.5827  0.8964
39267SOL    HW219809   2.258   0.081   8.061 -3.4048 -1.8849  1.4161
39268SOL     OW19810   8.345  10.266   6.330 -0.1254  0.3881  0.4926
39268SOL    HW119811   8.317  10.212   6.256  0.3438 -1.3651  1.5352
39268SOL    HW219812   8.406  10.329   6.292  0.6026 -0.8855 -0.5345
39269SOL     OW19813   2.489   0.117   6.400 -0.3257  0.3760  0.1261
39269SOL    HW119814   2.449   0.113   6.487 -0.4566  0.3107  0.0631
39269SOL    HW219815   2.526   0.205   6.394  0.1445  0.2010  0.4527
39270SOL     OW19816   8.297   0.523   0.381 -0.1111 -0.0809 -0.4010
39270SOL    HW119817   8.316   0.576   0.304 -0.7804 -0.5254 -0.8858
39270SOL    HW219818   8.382   0.489   0.409  0.1407  0.1300 -0.9111
39271SOL     OW19819   3.298   0.570   9.409  0.1675  0.0512  0.0215
39271SOL    HW119820   3.228   0.629   9.437  0.0254  0.3421 -0.9245
39271SOL    HW219821   3.322   0.523   9.489 -1.5546 -0.5367  0.2343
39272SOL     OW19822   9.682   5.656   2.742  1.1327  0.0448 -0.1442
39272SOL    HW119823   9.749   5.722   2.724  1.3703 -0.3120 -0.5932
39272SOL    HW219824   9.601   5.695   2.711  1.4606 -0.3567 -1.5622
39273SOL     OW19825   7.642   9.501   6.896  0.5589  0.1405 -0.2605
39273SOL    HW119826   7.696   9.425   6.872  1.6804  1.2044 -1.2319
39273SOL    HW219827   7.562   9.463   6.931  0.8908 -1.4999 -1.1899
39274SOL     OW19828   4.239   3.621   5.818 -0.7483  0.6381  0.1758
39274SOL    HW119829   4.214   3.710   5.792  1.6980  0.8792 -1.6608
39274SOL    HW219830   4.326   3.631   5.856 -0.2746 -1.0107 -0.3923
39275SOL     OW19831   8.550   7.699  10.655 -0.3519 -0.2375 -0.9746
39275SOL    HW119832   8.556   7.754  10.577 -1.0387 -2.0144 -2.3572
39275SOL    HW219833   8.457   7.677  10.661 -0.3669  0.1712  0.5892
39276SOL     OW19834  11.013   2.892   7.020  0.4338 -0.3295  0.0568
39276SOL    HW119835  11.054   2.823   6.967  0.8776  1.5579 -2.2199
39276SOL    HW219836  11.065   2.970   7.002 -2.1848  1.4461 -0.3911
39277SOL     OW19837  10.154   9.617  10.129 -0.4146 -0.6986  0.0239
39277SOL    HW119838  10.176   9.635  10.220  0.9080  0.6889 -0.5344
39277SOL    HW219839  10.233   9.576  10.093 -0.6947 -0.6419 -0.6728
39278SOL     OW19840   2.514   3.018   7.457  0.0600  0.6061  0.4179
39278SOL    HW119841   2.541   3.028   7.548 -1.8303 -0.7572  1.2158
39278SOL    HW219842   2.594   2.996   7.410  0.8621 -0.0145  2.0032
39279SOL     OW19843   9.497   9.064   4.259 -0.2663  0.6075 -0.0163
39279SOL    HW119844   9.497   8.980   4.304  0.4638  0.7296  0.2264
39279SOL    HW219845   9.480   9.128   4.329 -1.6709  0.6060 -0.3334
39280SOL     OW19846   4.619   0.343  10.563 -0.1301 -0.0109 -0.0941
39280SOL    HW119847   4.578   0.418  10.605 -0.7053 -0.6353  0.4703
39280SOL    HW219848   4.698   0.379  10.522 -0.2926  0.8599  0.3401
39281SOL     OW19849   5.087   5.228   1.927  0.0608 -0.2052  0.8216
39281SOL    HW119850   5.057   5.300   1.983  0.6292  0.4330  0.3199
39281SOL    HW219851   5.073   5.260   1.838 -0.1496 -0.9233  0.5957
39282SOL     OW19852  10.016   1.140   8.806  0.3749  0.0967  0.3002
39282SOL    HW119853  10.051   1.147   8.717 -0.5212 -1.6400 -0.2462
39282SOL    HW219854   9.992   1.229   8.829 -0.5621  0.4419 -1.7358
39283SOL     OW19855   1.441   4.980  10.688  0.0756  0.4412 -0.3078
39283SOL    HW119856   1.513   4.916  10.691  0.7369  1.0537 -2.0251
39283SOL    HW219857   1.453   5.033  10.767  0.6534 -0.3629  0.1604
39284SOL     OW19858   2.619   0.875   1.637 -0.6317 -0.5215 -0.2945
39284SOL    HW119859   2.663   0.818   1.574  2.1931  1.9067 -0.7635
39284SOL    HW219860   2.657   0.851   1.722 -1.3615 -1.0242 -0.1020
39285SOL     OW19861   1.931   4.550   7.678 -0.0492  0.0477  0.0240
39285SOL    HW119862   1.967   4.634   7.708 -0.4264  1.3099 -2.6950
39285SOL    HW219863   1.998   4.486   7.698  0.3634  1.0297  1.9588
39286SOL     OW19864   5.500   4.800  10.837 -0.2772  0.3311 -0.1621
39286SOL    HW119865   5.448   4.765  10.764 -0.8585 -0.0317  0.4238
39286SOL    HW219866   5.539   4.880  10.801  0.2767 -0.3717 -1.2036
39287SOL     OW19867   3.834   8.159   9.487 -0.4994  0.6303 -0.6011
39287SOL    HW119868   3.819   8.082   9.543 -0.7038  0.3028 -1.1016
39287SOL    HW219869   3.856   8.229   9.549 -0.0926  0.1169 -0.1539
39288SOL     OW19870   1.718   1.127   8.723  0.1840  0.4580  0.2578
39288SOL    HW119871   1.669   1.081   8.791  0.3306  2.0577  1.4906
39288SOL    HW219872   1.653   1.179   8.676  0.3610  0.8249  0.4150
39289SOL     OW19873   4.518   2.299  10.501  0.5594 -0.3898  0.2872
39289SOL    HW119874   4.435   2.252  10.492  0.6366 -0.4918  0.1194
39289SOL    HW219875   4.531   2.306  10.596  0.1510 -0.0050  0.3197
39290SOL     OW19876   0.626   8.783   1.342  0.8116  0.3603  0.6044
39290SOL    HW119877   0.676   8.701   1.343 -0.3691 -0.3831  2.1768
39290SOL    HW219878   0.597   8.795   1.432 -2.4666  0.3413 -0.3297
39291SOL     OW19879   7.447   6.196   6.266 -0.3567 -0.5068  0.3802
39291SOL    HW119880   7.386   6.270   6.277 -1.0221 -0.4209 -2.7472
39291SOL    HW219881   7.405   6.123   6.312 -2.6110 -0.2693 -1.1244
39292SOL     OW19882   5.735   6.553   6.423 -0.2218 -0.1045 -0.2806
39292SOL    HW119883   5.708   6.631   6.374  1.9956 -0.6195 -2.5046
39292SOL    HW219884   5.792   6.505   6.363 -0.5890 -2.9062  1.4237
39293SOL     OW19885   1.651   0.471   0.874 -0.2484 -0.2925  0.4906
39293SOL    HW119886   1.697   0.417   0.938  0.3826  1.5419  1.6651
39293SOL    HW219887   1.712   0.543   0.855 -1.0378  0.0102 -1.0339
39294SOL     OW19888  10.842   1.841   5.489  0.4166 -0.5057 -0.6046
39294SOL    HW119889  10.868   1.925   5.450 -2.5644 -0.6707 -3.3990
39294SOL    HW219890  10.884   1.775   5.434 -1.5332 -0.7352 -1.9437
39295SOL     OW19891   1.351   2.084   4.566  0.0316 -0.2272  0.2075
39295SOL    HW119892   1.316   2.173   4.559  1.8571  0.5232  0.0090
39295SOL    HW219893   1.330   2.056   4.655 -2.1151 -0.3288 -0.2813
39296SOL     OW19894   5.140   1.146   9.151  0.5493  0.4096 -0.4598
39296SOL    HW119895   5.069   1.185   9.201 -1.0306 -0.6552 -1.7678
39296SOL    HW219896   5.198   1.107   9.217 -1.2465 -0.5980  0.5970
39297SOL     OW19897   4.762   0.477   0.389 -0.3584 -0.5339  0.3025
39297SOL    HW119898   4.698   0.532   0.433  0.4163 -0.1995  1.0246
39297SOL    HW219899   4.720   0.454   0.306 -0.5368  1.4884 -0.2176
39298SOL     OW19900   7.625   4.314   2.798 -0.2349  0.1456  0.3625
39298SOL    HW119901   7.577   4.292   2.877 -0.3935 -0.3232  0.1450
39298SOL    HW219902   7.651   4.405   2.809  0.5841 -0.1842  1.3863
39299SOL     OW19903   3.111   5.946   4.352  0.3626  0.1270 -0.5265
39299SOL    HW119904   3.180   5.933   4.417 -0.3551 -1.0110  0.0423
39299SOL    HW219905   3.048   5.877   4.370 -0.2230  0.2444 -1.9716
39300SOL     OW19906   0.178   9.953   1.621  0.1450 -0.5157 -0.4800
39300SOL    HW119907   0.133   9.945   1.537  0.1222  1.4130 -0.7087
39300SOL    HW219908   0.108   9.958   1.686  0.1533 -1.5935 -0.3754
39301SOL     OW19909   9.586   9.082   9.896  0.1417  0.0170 -0.3291
39301SOL    HW119910   9.651   9.040   9.841 -1.2820 -0.5646 -1.6400
39301SOL    HW219911   9.520   9.115   9.835 -0.2964  1.4817  0.8817
39302SOL     OW19912   3.924   8.695   5.768  0.6099  0.0107 -0.6998
39302SOL    HW119913   3.988   8.712   5.700  0.1004 -1.4178 -1.6002
39302SOL    HW219914   3.873   8.621   5.734 -0.4681  0.0780  0.6861
39303SOL     OW19915   0.640   1.710   7.793  0.0558 -0.0536 -0.2181
39303SOL    HW119916   0.643   1.615   7.801 -0.0305 -0.1001 -0.7466
39303SOL    HW219917   0.710   1.741   7.852  0.1197 -0.4410 -0.0868
39304SOL     OW19918   6.579  10.964   5.062 -0.8352  0.3112  0.3622
39304SOL    HW119919   6.631  10.991   4.987  0.1123  1.1569  1.2984
39304SOL    HW219920   6.498  11.015   5.055 -1.2056 -0.3698 -0.6152
39305SOL     OW19921   1.848   5.913   3.728  0.7551  0.1280  0.7222
39305SOL    HW119922   1.802   5.997   3.732  2.8215  1.3715  0.3903
39305SOL    HW219923   1.899   5.918   3.647  1.2555 -1.2702  0.9326
39306SOL     OW19924   4.075   9.393   5.517  0.0783 -0.1552 -0.4280
39306SOL    HW119925   4.121   9.340   5.583 -0.6467  0.2054  0.3813
39306SOL    HW219926   4.000   9.339   5.491 -0.2713  0.1743 -0.1128
39307SOL     OW19927   5.123   5.432   7.917 -0.0282 -0.0734 -0.5677
39307SOL    HW119928   5.150   5.522   7.898  0.1364 -0.1950 -0.9150
39307SOL    HW219929   5.072   5.439   7.998 -0.7961  0.4577 -1.0887
39308SOL     OW19930   0.923   4.812  10.685 -0.1127 -0.2150 -0.1901
39308SOL    HW119931   0.839   4.789  10.724  0.6265 -2.3338  0.2981
39308SOL    HW219932   0.901   4.848  10.599 -1.6171  1.9020  0.9884
39309SOL     OW19933   5.246   5.498   3.034 -0.0775 -0.1987 -0.4306
39309SOL    HW119934   5.306   5.519   3.106  1.1896 -0.8973 -1.2524
39309SOL    HW219935   5.290   5.529   2.955 -0.1523 -1.9017 -1.1927
39310SOL     OW19936  10.734   5.685   9.626  0.4602 -0.3898  0.3314
39310SOL    HW119937  10.782   5.743   9.686  0.5489 -0.9302  0.7919
39310SOL    HW219938  10.642   5.700   9.647  0.5108 -1.2382  1.2551
39311SOL     OW19939   9.361   8.376  10.315 -0.2072  0.4111 -0.7007
39311SOL    HW119940   9.405   8.402  10.233  0.0977  0.2075 -0.6050
39311SOL    HW219941   9.296   8.444  10.330  0.9244  1.4118 -0.1768
39312SOL     OW19942   9.244   9.844  10.047  0.0809  0.0150 -0.0285
39312SOL    HW119943   9.334   9.868  10.028 -0.2096  1.9663  0.8324
39312SOL    HW219944   9.191   9.914  10.008 -0.9382 -0.1062  1.0533
39313SOL     OW19945   7.350   0.344  10.773  0.2094  0.2294 -0.6906
39313SOL    HW119946   7.352   0.347  10.868 -1.1736  1.0255 -0.6596
39313SOL    HW219947   7.267   0.301  10.751  0.0591  0.8935 -1.5167
39314SOL     OW19948   8.787   3.245   7.691  0.0728  0.2462 -0.0763
39314SOL    HW119949   8.721   3.176   7.683  1.1556 -0.7609 -0.6265
39314SOL    HW219950   8.736   3.326   7.693 -1.2179 -0.5361  0.2969
39315SOL     OW19951   1.219   6.829   0.983  0.1616  0.0051 -0.4983
39315SOL    HW119952   1.309   6.859   0.994 -0.3841  1.3180  0.6909
39315SOL    HW219953   1.187   6.877   0.907 -0.1013  0.9828  0.2176
39316SOL     OW19954  10.981   9.746   8.913 -0.8431  0.4839  0.3059
39316SOL    HW119955  10.902   9.766   8.964 -2.5046 -2.4129 -0.8993
39316SOL    HW219956  10.961   9.663   8.869  1.3871  1.5981 -3.2037
39317SOL     OW19957   0.068   9.441  10.155 -0.2520 -0.5258 -1.0141
39317SOL    HW119958  -0.012   9.393  10.175 -0.2724 -0.6790 -1.4548
39317SOL    HW219959   0.128   9.375  10.121 -0.1951 -0.2824 -1.3896
39318SOL     OW19960   5.113   7.933   2.228  0.3409 -0.4842  0.0999
39318SOL    HW119961   5.168   7.861   2.198  1.7661  0.6473 -0.1431
39318SOL    HW219962   5.172   7.989   2.279 -0.7550  0.4473  0.4020
39319SOL     OW19963   4.115   3.224   8.231  0.1098 -0.0280  0.3705
39319SOL    HW119964   4.026   3.193   8.249 -0.4627  0.9194 -0.7096
39319SOL    HW219965   4.164   3.144   8.210 -0.9123 -0.4040 -0.7014
39320SOL     OW19966   3.646   7.373   0.668  0.4400  0.2988 -0.0860
39320SOL    HW119967   3.640   7.310   0.741 -0.9623  0.3671 -0.1315
39320SOL    HW219968   3.572   7.432   0.680  0.6748  0.8234 -1.1009
39321SOL     OW19969   5.013  10.182   5.512 -0.2538 -0.2252 -0.1100
39321SOL    HW119970   5.094  10.137   5.488 -0.3027 -0.9462  0.9785
39321SOL    HW219971   4.984  10.224   5.432  1.9354  1.2609 -0.2026
39322SOL     OW19972   0.247   0.004   4.716 -0.4230  0.2128  0.0465
39322SOL    HW119973   0.232   0.094   4.689  0.7741  0.5710  0.4902
39322SOL    HW219974   0.314   0.010   4.785 -1.9492 -0.8287  1.7139
39323SOL     OW19975   7.127   9.330   8.407  0.2312 -0.2796  0.0311
39323SOL    HW119976   7.102   9.355   8.495  0.0653  0.2046 -0.1486
39323SOL    HW219977   7.192   9.396   8.381 -1.0120  0.6456 -0.8547
39324SOL     OW19978   0.482   1.778   3.726  0.1945  0.3273  0.3148
39324SOL    HW119979   0.492   1.863   3.683  0.5430 -0.6220 -1.5660
39324SOL    HW219980   0.535   1.718   3.674  0.8244 -0.8693  2.2405
39325SOL     OW19981   6.799   4.538   7.890 -0.1037 -0.2662  0.5814
39325SOL    HW119982   6.721   4.516   7.840  0.0735 -0.3860  0.3552
39325SOL    HW219983   6.823   4.457   7.934  0.2488 -0.3940  0.1602
39326SOL     OW19984   4.086   6.196   1.714 -0.3589  0.5483 -0.7070
39326SOL    HW119985   4.077   6.287   1.685  0.2328  0.1274 -2.2976
39326SOL    HW219986   4.023   6.148   1.660 -1.0924  0.0600  0.5352
39327SOL     OW19987  10.495   0.316   4.938  0.0275 -0.2292 -0.5388
39327SOL    HW119988  10.473   0.397   4.984 -1.6172 -0.5452 -0.7152
39327SOL    HW219989  10.443   0.249   4.981  2.0336 -1.4002  0.1882
39328SOL     OW19990   3.325  10.197   9.322  0.2122 -0.7473  0.5958
39328SOL    HW119991   3.359  10.286   9.327 -0.7606 -0.2994 -0.4087
39328SOL    HW219992   3.402  10.143   9.304  0.6151  0.0477 -0.1210
39329SOL     OW19993   1.000   6.384   5.996  0.6538  0.1464 -0.2044
39329SOL    HW119994   0.937   6.322   5.960 -0.8297  0.6380  1.4090
39329SOL    HW219995   1.077   6.330   6.016  0.2284 -0.7457 -0.8883
39330SOL     OW19996   2.071   8.855   2.868 -0.5937 -0.6456  0.5718
39330SOL    HW119997   2.036   8.916   2.803 -2.3697  0.6483  2.5835
39330SOL    HW219998   1.997   8.800   2.892 -0.2930 -0.3895  2.2273
39331SOL     OW19999   3.846   7.415  10.513  0.1695  0.2779 -0.2862
39331SOL    HW120000   3.935   7.381  10.523  0.1847  0.4275  0.1149
39331SOL    HW220001   3.806   7.360  10.446  0.1944 -0.5310  0.3507
39332SOL     OW20002   4.119   6.731   1.011 -0.2927  0.3509  0.1399
39332SOL    HW120003   4.173   6.804   0.980  0.0448 -0.3950 -1.0910
39332SOL    HW220004   4.054   6.772   1.068  0.7291  1.4352  0.5694
39333SOL     OW20005   6.410   1.687   0.478 -0.0059 -0.4342 -0.1095
39333SOL    HW120006   6.365   1.615   0.523 -0.2143 -0.2707 -0.0537
39333SOL    HW220007   6.490   1.648   0.445  0.1745 -0.5449  0.4440
39334SOL     OW20008   4.936   5.980   8.656 -0.0085  0.3964  0.0362
39334SOL    HW120009   4.992   5.936   8.592 -1.2425  2.8222 -2.9637
39334SOL    HW220010   4.867   5.915   8.676  0.1945 -0.3145 -1.4260
39335SOL     OW20011  10.088   9.924   5.684 -0.3260  0.0064 -0.3193
39335SOL    HW120012  10.162   9.985   5.691  0.1339 -0.4352 -1.1270
39335SOL    HW220013  10.029   9.965   5.621 -0.4318  0.0352 -0.2002
39336SOL     OW20014  10.669   4.510  10.214  0.7356  0.0785  1.3178
39336SOL    HW120015  10.599   4.461  10.172 -0.5699  1.9817  1.1540
39336SOL    HW220016  10.700   4.570  10.146  0.0686  1.7111  2.4164
39337SOL     OW20017   1.767   8.184   9.913 -0.2592  0.3444  0.0132
39337SOL    HW120018   1.709   8.146   9.979 -0.9900  0.3180 -0.6302
39337SOL    HW220019   1.752   8.132   9.834  0.8161  0.1923 -0.1103
39338SOL     OW20020   2.423   0.140   6.659 -0.0047  1.0490 -0.0696
39338SOL    HW120021   2.466   0.058   6.684 -2.3123 -0.2672 -0.1889
39338SOL    HW220022   2.443   0.200   6.731  2.0350  0.5330 -0.1567
39339SOL     OW20023  10.382   0.974   5.847  0.0264  0.0056 -0.7895
39339SOL    HW120024  10.324   1.047   5.826 -1.6643 -1.6514 -2.2723
39339SOL    HW220025  10.464   0.994   5.802 -0.6487  0.6493 -1.7675
39340SOL     OW20026   7.445   9.023  10.965 -0.0012  0.0605  0.5106
39340SOL    HW120027   7.429   9.117  10.976  1.8066  0.5357 -0.4499
39340SOL    HW220028   7.470   8.993  11.053 -0.7228  0.4337  0.8517
39341SOL     OW20029   7.390   7.647   7.030  0.5649  0.7845  0.1102
39341SOL    HW120030   7.439   7.566   7.043 -0.9052 -0.0750  0.5661
39341SOL    HW220031   7.298   7.620   7.029  0.1032  2.1515 -2.0293
39342SOL     OW20032   9.940   5.239  10.277  0.4177 -0.5573 -0.1254
39342SOL    HW120033   9.847   5.261  10.272  0.5843 -0.0385 -0.9910
39342SOL    HW220034   9.981   5.287  10.206  1.5591  0.2543  1.0195
39343SOL     OW20035   2.380   1.035   9.602  0.4694 -0.3338 -0.3989
39343SOL    HW120036   2.456   1.065   9.652 -1.5550  1.1576  2.0483
39343SOL    HW220037   2.343   1.115   9.564 -0.7785 -0.7639 -0.1434
39344SOL     OW20038   1.905   1.702   1.116  0.0530 -0.4205  0.2912
39344SOL    HW120039   1.914   1.794   1.091  0.3526 -0.1001  1.5067
39344SOL    HW220040   1.975   1.687   1.180 -0.4959 -1.2701  0.7264
39345SOL     OW20041   9.477   9.479   9.492  0.0568 -0.5159 -0.7346
39345SOL    HW120042   9.505   9.538   9.422 -1.4352  0.7257 -0.3444
39345SOL    HW220043   9.409   9.528   9.539  0.8876 -1.3842  1.4815
39346SOL     OW20044   5.239   3.849   4.927  0.0985 -0.2067 -0.0840
39346SOL    HW120045   5.208   3.932   4.964 -0.7919 -1.0331  1.0828
39346SOL    HW220046   5.229   3.786   4.998  1.1350 -1.2448 -0.8336
39347SOL     OW20047   4.114   3.074   2.694  0.0092 -0.5756 -0.0626
39347SOL    HW120048   4.060   3.113   2.762  0.6520  0.7532 -0.2637
39347SOL    HW220049   4.204   3.090   2.723  0.3445  1.2892 -1.8047
39348SOL     OW20050  10.939   9.938   9.330 -0.1500  0.7028 -0.2489
39348SOL    HW120051  11.033   9.934   9.311 -0.2541 -0.5792 -0.5718
39348SOL    HW220052  10.897   9.923   9.245 -0.6271 -1.4470  0.3290
39349SOL     OW20053   5.030  10.876   2.439  0.0922  0.3669  0.5815
39349SOL    HW120054   5.025  10.955   2.384  0.4582  0.5048  0.7394
39349SOL    HW220055   5.112  10.835   2.414 -1.1377 -1.2227 -1.1488
39350SOL     OW20056   1.655   7.175   3.700 -0.4392  0.7115 -0.2398
39350SOL    HW120057   1.563   7.150   3.693 -0.1591 -0.1148 -1.3385
39350SOL    HW220058   1.656   7.268   3.680 -0.8948  0.4258 -1.7440
39351SOL     OW20059   8.894   5.243   9.936  0.4648 -0.1666 -0.5251
39351SOL    HW120060   8.811   5.288   9.952  1.4647  2.5684 -2.2982
39351SOL    HW220061   8.935   5.237  10.022 -1.1414 -0.7620  0.2419
39352SOL     OW20062  11.023   8.524   2.454  0.4292 -0.3077  0.1122
39352SOL    HW120063  11.020   8.511   2.549  1.0697  3.1187  0.7345
39352SOL    HW220064  10.931   8.530   2.427  0.2509 -1.0891  0.5076
39353SOL     OW20065   4.497   0.618   3.453 -0.6528  0.7293  0.2814
39353SOL    HW120066   4.503   0.578   3.539 -0.6167 -0.2000 -0.1395
39353SOL    HW220067   4.578   0.593   3.409 -1.0564  0.4374 -0.3230
39354SOL     OW20068   0.148   8.910   7.019  0.0668  0.2533 -0.5946
39354SOL    HW120069   0.093   8.921   6.942  0.3038 -0.1357 -0.8253
39354SOL    HW220070   0.165   8.999   7.050  1.0790  0.4948 -1.7799
39355SOL     OW20071   1.066   6.804   5.732  0.4758 -0.0496  0.6037
39355SOL    HW120072   1.032   6.753   5.805  3.1851 -3.2085 -0.1382
39355SOL    HW220073   1.153   6.832   5.761  1.0421 -0.1913 -0.8768
39356SOL     OW20074   4.057   1.266   4.211  0.4608  0.4091  0.2293
39356SOL    HW120075   4.103   1.226   4.284  0.4073  2.8738  1.7172
39356SOL    HW220076   3.965   1.242   4.224  0.5940 -0.1152  0.2571
39357SOL     OW20077  10.284  10.497   7.674 -0.0995 -0.0155 -0.1254
39357SOL    HW120078  10.298  10.587   7.703  2.1523 -0.8288  1.5954
39357SOL    HW220079  10.369  10.468   7.641 -0.1505 -2.1306  1.3401
39358SOL     OW20080   9.602   5.587   8.326  0.1714  0.9569  0.1292
39358SOL    HW120081   9.655   5.575   8.247 -1.6044  0.8253 -1.0983
39358SOL    HW220082   9.517   5.617   8.294 -0.2889  1.9149  2.0823
39359SOL     OW20083   4.665   3.587   6.242  0.0056  0.3055 -0.2478
39359SOL    HW120084   4.699   3.551   6.161 -0.2146  1.6029 -0.9437
39359SOL    HW220085   4.683   3.681   6.237 -4.6173  1.4030 -1.2772
39360SOL     OW20086   1.813   2.757   3.878 -0.0965  0.3889 -0.3863
39360SOL    HW120087   1.808   2.737   3.784 -0.0973 -1.4737 -0.0227
39360SOL    HW220088   1.731   2.722   3.913  0.2900  0.3034  0.4372
39361SOL     OW20089   5.285   9.732   7.392  0.0461 -0.0927  0.2846
39361SOL    HW120090   5.238   9.737   7.475  1.7257  1.1596  1.2306
39361SOL    HW220091   5.220   9.700   7.330 -1.1409 -1.5463  2.1496
39362SOL     OW20092   2.364   6.379   7.706 -0.2648  0.3307 -0.3219
39362SOL    HW120093   2.433   6.375   7.773  1.3105 -0.3188 -1.9081
39362SOL    HW220094   2.316   6.459   7.726 -0.2031 -0.1144  1.8918
39363SOL     OW20095   9.267   9.302  10.656  0.3780 -0.0574 -0.0842
39363SOL    HW120096   9.233   9.355  10.728  0.7655 -1.0255  0.8346
39363SOL    HW220097   9.189   9.282  10.603 -0.5444 -2.1079  1.8914
39364SOL     OW20098   8.548   9.020   8.398 -0.2419 -0.1813  0.0783
39364SOL    HW120099   8.470   8.966   8.411  0.2225 -0.6330  1.1093
39364SOL    HW220100   8.525   9.105   8.435 -0.0708 -0.4759  0.8814
39365SOL     OW20101   7.660   6.658   8.461 -0.4393 -0.1954 -0.1997
39365SOL    HW120102   7.648   6.635   8.553 -0.0525 -0.4469 -0.2075
39365SOL    HW220103   7.636   6.751   8.456 -2.5134 -0.6967 -0.2702
39366SOL     OW20104   5.047   8.344   7.238 -0.4650  0.1687 -0.0255
39366SOL    HW120105   5.009   8.263   7.273 -0.0481 -0.7873 -1.6707
39366SOL    HW220106   5.126   8.315   7.191  0.3801  1.6990  0.3989
39367SOL     OW20107  10.645   8.125   1.725  0.0500  0.0556 -0.2019
39367SOL    HW120108  10.634   8.213   1.760 -0.2765 -0.0429 -0.0548
39367SOL    HW220109  10.668   8.072   1.802 -0.1032 -0.0542 -0.2322
39368SOL     OW20110   4.227   6.866   3.946  0.2244  0.2092 -0.1456
39368SOL    HW120111   4.286   6.801   3.985 -1.6080 -0.4338  1.7591
39368SOL    HW220112   4.272   6.949   3.959  0.1029 -0.0530  2.8255
39369SOL     OW20113  10.063   3.479   6.651  0.1070 -0.6740  0.4516
39369SOL    HW120114   9.988   3.429   6.620  0.1319 -1.1629  1.1565
39369SOL    HW220115  10.053   3.565   6.612 -1.3892 -0.3993  1.3860
39370SOL     OW20116   7.845   8.671   3.442  0.0608 -0.1296  0.5648
39370SOL    HW120117   7.791   8.634   3.512  1.2266 -1.0553  1.0201
39370SOL    HW220118   7.792   8.742   3.405 -0.5363  0.4737  2.4607
39371SOL     OW20119   8.162  10.948   1.991 -0.2039 -0.1252 -0.2254
39371SOL    HW120120   8.236  10.891   1.969  0.4304  0.1035  1.2213
39371SOL    HW220121   8.150  11.004   1.914  1.8860  0.6144 -0.0587
39372SOL     OW20122   5.033   6.627   3.257 -0.0510 -0.8019  0.0994
39372SOL    HW120123   4.962   6.573   3.223 -1.8130  0.3194  1.8129
39372SOL    HW220124   5.078   6.570   3.320  0.1085 -1.2710 -0.4296
39373SOL     OW20125   4.791   0.763   9.898  0.6679  0.2145  0.9250
39373SOL    HW120126   4.862   0.779   9.835  1.8784  0.5618  2.3313
39373SOL    HW220127   4.773   0.669   9.889  0.0750  0.4388 -0.6602
39374SOL     OW20128   3.288   6.519   7.063 -0.1241  1.0331 -0.0655
39374SOL    HW120129   3.221   6.567   7.112 -0.3518  0.3910  0.2589
39374SOL    HW220130   3.349   6.587   7.032 -0.1523  1.4739  0.8338
39375SOL     OW20131   6.201   5.314   1.950 -0.1135 -0.0734  0.0493
39375SOL    HW120132   6.162   5.295   2.035  0.1711  1.2942  0.5040
39375SOL    HW220133   6.293   5.290   1.959  0.3995  2.0409  0.8424
39376SOL     OW20134   1.935   7.092   4.093  0.7391  0.1564  0.1631
39376SOL    HW120135   1.899   7.085   4.181  0.7262  0.3984  0.1786
39376SOL    HW220136   2.000   7.162   4.099  1.5120 -0.5590  0.2302
39377SOL     OW20137   3.046   9.937   1.570 -0.0718 -0.0319 -0.3117
39377SOL    HW120138   3.090   9.852   1.568  1.1993  0.6065 -1.0225
39377SOL    HW220139   3.077   9.982   1.491 -1.9381  0.5218 -0.7789
39378SOL     OW20140   5.055   9.957   8.706 -0.0922 -0.0045  0.2383
39378SOL    HW120141   5.023   9.895   8.641 -0.6122  0.3260  0.1706
39378SOL    HW220142   5.134   9.916   8.741 -0.3658 -0.6579  0.1199
39379SOL     OW20143   9.380   8.769   0.656 -0.0636 -0.3775  0.7438
39379SOL    HW120144   9.361   8.772   0.562  1.2906  0.6846  0.4757
39379SOL    HW220145   9.419   8.683   0.670  0.3529 -0.2849  0.1934
39380SOL     OW20146   5.026   6.704   1.044  0.2517  0.4887  0.2861
39380SOL    HW120147   4.932   6.685   1.042  0.2486  0.3154  1.4113
39380SOL    HW220148   5.067   6.624   1.012  0.1148 -0.4729  2.3901
39381SOL     OW20149   1.551   3.841   3.680 -0.3714 -0.3044  0.0174
39381SOL    HW120150   1.625   3.782   3.667 -1.0278 -1.2083  0.2742
39381SOL    HW220151   1.545   3.850   3.776 -0.9420 -0.6997  0.0230
39382SOL     OW20152   6.903   5.237   2.077 -0.6722  0.2481  0.5658
39382SOL    HW120153   6.839   5.302   2.107 -1.0209  0.1192  0.1215
39382SOL    HW220154   6.877   5.219   1.986 -1.5463 -1.6616  1.1445
39383SOL     OW20155   4.855   3.909   3.140 -0.6598  0.5640  0.5043
39383SOL    HW120156   4.950   3.910   3.134 -0.7351  0.4099 -1.5653
39383SOL    HW220157   4.833   3.817   3.157 -0.4685  0.3253 -0.4709
39384SOL     OW20158   8.582   8.896   4.159  0.2196 -0.4723  0.1212
39384SOL    HW120159   8.525   8.972   4.169 -0.5730 -0.9873 -0.3544
39384SOL    HW220160   8.566   8.866   4.070  1.0496 -0.7856  0.0684
39385SOL     OW20161   4.922   9.205  10.495 -0.4018  0.3332 -0.0100
39385SOL    HW120162   4.850   9.216  10.558 -0.4532  2.3939 -0.3699
39385SOL    HW220163   4.997   9.182  10.549 -0.9185 -0.0841  0.5536
39386SOL     OW20164   3.176   7.912   8.759  0.7274  0.7111  0.2601
39386SOL    HW120165   3.125   7.894   8.680  0.9439  2.2864 -0.2874
39386SOL    HW220166   3.155   8.003   8.780  1.2006  0.5224  1.6438
39387SOL     OW20167   5.780  10.138   8.883 -0.2833 -0.1035 -0.0807
39387SOL    HW120168   5.727  10.211   8.853 -0.4870  0.3310  1.2696
39387SOL    HW220169   5.719  10.064   8.886 -0.1447 -0.2747 -1.1685
39388SOL     OW20170   4.847  10.486  10.694  0.0172 -0.6387 -0.0147
39388SOL    HW120171   4.826  10.574  10.726 -1.5526 -0.9013 -0.2367
39388SOL    HW220172   4.838  10.429  10.771  1.8705 -0.5121  0.3231
39389SOL     OW20173   8.889   2.506   3.754 -0.1755  0.0847 -0.7940
39389SOL    HW120174   8.984   2.517   3.752 -0.4120  2.6663 -1.6575
39389SOL    HW220175   8.871   2.465   3.839  1.5107  2.3144  0.7389
39390SOL     OW20176   7.681  10.218   2.395 -0.3758  0.6004  0.1897
39390SOL    HW120177   7.750  10.265   2.441 -0.5756  0.2678  0.8354
39390SOL    HW220178   7.713  10.127   2.389 -1.0228  0.3083  1.0459
39391SOL     OW20179   5.370   2.536   9.578  0.8558  0.3046 -0.4916
39391SOL    HW120180   5.370   2.602   9.647  0.7499 -0.0724 -0.1235
39391SOL    HW220181   5.311   2.570   9.511  2.4308  1.5930 -1.2997
39392SOL     OW20182  10.764   6.774   0.304 -0.3109  0.9048  0.5698
39392SOL    HW120183  10.716   6.755   0.384 -0.6548  2.3098  0.7387
39392SOL    HW220184  10.699   6.769   0.235  0.2175 -1.4654  0.1707
39393SOL     OW20185   7.831   7.727   4.015 -0.1710  0.0796 -0.2751
39393SOL    HW120186   7.782   7.809   4.022 -0.4782 -0.2101  1.5099
39393SOL    HW220187   7.922   7.752   4.026 -0.3773  0.0572  1.8031
39394SOL     OW20188   0.809   9.711   8.863 -0.0699  0.5909 -0.2709
39394SOL    HW120189   0.793   9.805   8.856 -0.1733  0.4395 -3.2788
39394SOL    HW220190   0.865   9.691   8.789  0.6620 -1.6177  0.8013
39395SOL     OW20191   4.163  10.884  10.330 -0.3744  0.4125  0.2711
39395SOL    HW120192   4.232  10.912  10.390 -0.3827  0.8964  0.0583
39395SOL    HW220193   4.168  10.945  10.257 -0.6390  0.0833 -0.0274
39396SOL     OW20194   0.295   4.103   0.221 -0.0802 -0.0003  0.2864
39396SOL    HW120195   0.263   4.116   0.131  0.4226  0.8241  0.2206
39396SOL    HW220196   0.269   4.013   0.242  1.0383 -0.7179 -1.1962
39397SOL     OW20197   9.772  10.191   7.666 -0.9854 -0.1304  0.2826
39397SOL    HW120198   9.756  10.278   7.630 -3.7251 -0.6396  0.0384
39397SOL    HW220199   9.810  10.207   7.752  0.7741  1.2069 -0.6783
39398SOL     OW20200   5.312   9.730   4.989  0.0688 -0.2643  0.1265
39398SOL    HW120201   5.325   9.762   5.079  0.9470  0.5189 -0.2591
39398SOL    HW220202   5.217   9.729   4.978 -0.1892 -2.7376  1.8680
39399SOL     OW20203   6.832   9.629   0.519  0.0110 -0.4575  0.1634
39399SOL    HW120204   6.745   9.593   0.532  0.5982 -1.9971 -0.0140
39399SOL    HW220205   6.860   9.596   0.434  0.8265 -0.1032  0.2778
39400SOL     OW20206   8.000   6.855   1.781 -0.0203 -0.0676 -0.5179
39400SOL    HW120207   7.926   6.829   1.725  1.1846 -1.0758 -1.7018
39400SOL    HW220208   8.036   6.933   1.738 -1.1437  1.2596  0.8010
39401SOL     OW20209   4.219  10.575   0.138  0.0302  0.2839 -0.1963
39401SOL    HW120210   4.237  10.662   0.175  0.5414 -0.4313  1.3035
39401SOL    HW220211   4.237  10.584   0.044  1.3801  1.4473  0.1454
39402SOL     OW20212   5.978   9.787   8.559 -0.1117  0.2441  0.3007
39402SOL    HW120213   5.906   9.728   8.583  1.4440 -0.9602  2.3818
39402SOL    HW220214   5.985   9.779   8.464 -1.9344 -0.5439  0.2012
39403SOL     OW20215   3.603   2.118   3.967  0.1815 -0.4432  0.0628
39403SOL    HW120216   3.644   2.055   4.026  3.6304  0.3021 -1.2565
39403SOL    HW220217   3.615   2.203   4.010 -3.4889 -0.3945  1.3389
39404SOL     OW20218   0.864   9.293  10.983  0.4031 -0.9628  0.0708
39404SOL    HW120219   0.857   9.283  10.888  0.5989 -1.0002  0.0599
39404SOL    HW220220   0.899   9.382  10.995  0.4407 -0.9829  0.1076
39405SOL     OW20221  10.860   6.534   7.725  0.2636  0.3979  0.1029
39405SOL    HW120222  10.770   6.562   7.706  0.4836  0.4049 -0.9957
39405SOL    HW220223  10.882   6.580   7.806  0.0572  2.2195 -0.8136
39406SOL     OW20224   1.452   4.859   3.067 -0.4052 -0.5222  0.1731
39406SOL    HW120225   1.434   4.927   3.131  0.0505 -0.5899  0.3746
39406SOL    HW220226   1.470   4.780   3.119 -1.1892 -0.8668 -0.0611
39407SOL     OW20227   1.864   6.963   1.919  0.9504 -0.3308  0.3737
39407SOL    HW120228   1.822   6.888   1.961 -0.4611 -0.0157 -0.3884
39407SOL    HW220229   1.807   6.982   1.844  1.9353  0.7670 -0.1155
39408SOL     OW20230   4.389   4.709  10.782 -0.1906 -0.4692  0.0528
39408SOL    HW120231   4.455   4.665  10.836  0.8487 -1.5222 -1.9727
39408SOL    HW220232   4.429   4.794  10.760 -0.3823 -0.2648  0.4920
39409SOL     OW20233   7.550   4.309   6.890 -0.0892 -0.5050 -0.0035
39409SOL    HW120234   7.622   4.309   6.953 -0.2489  2.0162  0.2678
39409SOL    HW220235   7.574   4.375   6.826 -1.1846 -1.1610 -1.1392
39410SOL     OW20236   5.245   5.730   4.841  0.2396 -0.7194  0.6368
39410SOL    HW120237   5.283   5.818   4.846 -1.0824 -0.1910  3.5800
39410SOL    HW220238   5.305   5.681   4.785  1.2643  1.8978 -0.7559
39411SOL     OW20239   5.040   1.306   9.822  0.5621 -0.4477  0.0001
39411SOL    HW120240   5.041   1.375   9.889  1.9347 -0.6716  0.2482
39411SOL    HW220241   5.120   1.321   9.772 -1.2008  0.7236 -2.7154
39412SOL     OW20242  10.824   0.222  10.620  0.2043 -0.4043 -0.6293
39412SOL    HW120243  10.788   0.143  10.661 -1.6401  0.5974 -0.2077
39412SOL    HW220244  10.767   0.238  10.544  0.3071  0.7263 -0.4806
39413SOL     OW20245   6.382   6.803   5.566  0.3997  0.4249 -0.4862
39413SOL    HW120246   6.361   6.846   5.649 -0.3696 -0.2248 -0.3310
39413SOL    HW220247   6.304   6.813   5.513  0.9553  0.9967 -1.2176
39414SOL     OW20248   3.725   9.538   6.875  0.0252  0.2684  0.2962
39414SOL    HW120249   3.767   9.520   6.959 -1.1383  0.5596  0.9745
39414SOL    HW220250   3.746   9.462   6.821 -0.1298 -0.4615  1.2349
39415SOL     OW20251   3.414   0.590   5.270 -0.1067 -0.0711 -0.3208
39415SOL    HW120252   3.447   0.535   5.199 -0.3452  1.0589 -1.3173
39415SOL    HW220253   3.493   0.619   5.316  0.0780 -0.3792 -0.4417
39416SOL     OW20254   6.954   7.550  10.477  0.1003 -0.1749  0.2027
39416SOL    HW120255   7.005   7.570  10.555  0.0729 -1.3519  0.5413
39416SOL    HW220256   6.863   7.555  10.507  0.0536  0.3104 -0.0025
39417SOL     OW20257   9.903   4.997   2.892 -0.2135 -0.3414 -0.5502
39417SOL    HW120258   9.983   5.047   2.878  0.4530 -0.5646  1.9278
39417SOL    HW220259   9.925   4.909   2.863 -0.8668  0.3146 -3.3916
39418SOL     OW20260   7.694   9.214   5.062  0.0928  0.3660  0.0108
39418SOL    HW120261   7.706   9.187   5.153  0.4474  2.4270  0.6325
39418SOL    HW220262   7.606   9.184   5.040  0.1781 -0.5657  0.8812
39419SOL     OW20263   5.124   3.827   2.529 -0.0558  0.0751  0.1134
39419SOL    HW120264   5.217   3.828   2.554 -0.4644  1.0721  1.7203
39419SOL    HW220265   5.118   3.892   2.459  0.4871 -0.1907 -0.1957
39420SOL     OW20266   7.819   8.196   8.965 -0.9557 -0.4073 -0.1722
39420SOL    HW120267   7.748   8.212   9.028 -2.1789 -1.7525 -1.1370
39420SOL    HW220268   7.861   8.116   8.997  0.7082  0.8085  0.8428
39421SOL     OW20269   6.116   9.900   0.682  0.1828  0.0366  0.0445
39421SOL    HW120270   6.160   9.985   0.683 -1.4683  0.9252  0.3347
39421SOL    HW220271   6.098   9.881   0.774 -0.0309 -0.3286 -0.0703
39422SOL     OW20272   5.973   2.506   8.480  0.1171  0.0173  0.8089
39422SOL    HW120273   6.037   2.560   8.433  0.0718  0.1708  0.9224
39422SOL    HW220274   6.026   2.449   8.536  0.2080 -0.7898 -0.0881
39423SOL     OW20275   1.204   6.990   7.018 -0.2063  0.1235  0.0770
39423SOL    HW120276   1.157   6.907   7.025  0.0948 -0.0978 -0.4834
39423SOL    HW220277   1.192   7.017   6.927 -2.3174  1.9079  0.7979
39424SOL     OW20278   0.826  10.454   2.633  0.2515 -0.7913 -0.0213
39424SOL    HW120279   0.868  10.496   2.708  0.7930 -0.2698 -0.6106
39424SOL    HW220280   0.749  10.410   2.670  0.0056  0.2142  0.7121
39425SOL     OW20281   0.406   4.813   0.061  0.2676 -0.7394 -0.2511
39425SOL    HW120282   0.366   4.791   0.145  0.9288  0.5508  0.4355
39425SOL    HW220283   0.336   4.858   0.013  0.3683 -0.0202  0.2635
39426SOL     OW20284   6.328   9.611   2.179  0.4712 -0.5497  0.3729
39426SOL    HW120285   6.276   9.620   2.099  0.2537 -2.2513  0.3058
39426SOL    HW220286   6.270   9.642   2.248  0.1646 -0.3688  0.0404
39427SOL     OW20287   7.095   0.175   0.916 -0.2530  0.0067 -0.2366
39427SOL    HW120288   7.152   0.230   0.969 -0.8120 -0.0536  0.4379
39427SOL    HW220289   7.123   0.085   0.935  0.5063  0.0330 -1.1612
39428SOL     OW20290   7.862   4.735   1.047 -0.1148  0.0144 -0.2193
39428SOL    HW120291   7.786   4.676   1.051  0.3105 -0.5059  0.5066
39428SOL    HW220292   7.919   4.705   1.118  0.3679  0.9597 -0.1966
39429SOL     OW20293  10.614   8.295   6.916 -0.1978  0.1260 -0.5940
39429SOL    HW120294  10.705   8.279   6.939 -0.4534  1.2491  1.4831
39429SOL    HW220295  10.618   8.357   6.844  0.7184  1.3530  0.4659
39430SOL     OW20296   9.543   8.528   0.712 -0.0586 -0.6075  0.2067
39430SOL    HW120297   9.603   8.536   0.786 -1.6617  0.0776  1.5052
39430SOL    HW220298   9.564   8.443   0.673  0.0967 -1.5209  2.1488
39431SOL     OW20299   6.025   0.821   8.496  0.2048  0.3012 -0.6108
39431SOL    HW120300   6.112   0.834   8.458  1.0257 -0.0517  1.0639
39431SOL    HW220301   6.012   0.896   8.553  0.2378 -0.5816  0.5969
39432SOL     OW20302   9.754   0.428   0.921 -0.6672  0.0365 -0.0400
39432SOL    HW120303   9.801   0.370   0.861 -2.2649 -0.3331 -0.9825
39432SOL    HW220304   9.674   0.381   0.942 -0.7812  0.7822  1.3060
39433SOL     OW20305   4.504   6.617   5.887  0.2372  0.3294  0.0035
39433SOL    HW120306   4.562   6.641   5.959  0.0199 -0.9923  0.6513
39433SOL    HW220307   4.442   6.690   5.880  0.3267  0.5218  1.0744
39434SOL     OW20308   2.363   4.243   3.781  0.3424  0.1331 -0.0080
39434SOL    HW120309   2.281   4.284   3.753  0.3492 -0.3441 -0.7456
39434SOL    HW220310   2.359   4.154   3.745  0.3967 -0.4766  1.4346
39435SOL     OW20311   3.556   4.913   2.619  0.4506  0.0427  0.2932
39435SOL    HW120312   3.461   4.903   2.615  0.3926  0.9326 -2.1602
39435SOL    HW220313   3.586   4.840   2.673 -1.5559 -0.7450  0.3935
39436SOL     OW20314   5.635   2.406   6.939 -0.1367  0.0127 -0.2518
39436SOL    HW120315   5.695   2.419   6.865  1.0175 -1.7919  0.3049
39436SOL    HW220316   5.677   2.453   7.012 -0.3041  0.1934 -0.2695
39437SOL     OW20317   5.087   7.137   6.992 -0.2494  0.6054  0.0167
39437SOL    HW120318   5.054   7.190   7.066  0.9509  0.1349  0.9278
39437SOL    HW220319   5.106   7.052   7.031  2.1627  0.8881 -0.3793
39438SOL     OW20320   7.933   8.255   1.211  0.1135  0.4263  0.2519
39438SOL    HW120321   7.912   8.270   1.303  0.5998 -0.4734  0.5272
39438SOL    HW220322   8.010   8.197   1.213 -1.0029 -1.1708 -0.6953
39439SOL     OW20323   0.867   3.198   1.377  0.3494  0.0033 -0.1918
39439SOL    HW120324   0.882   3.234   1.465 -1.4024  1.2033 -0.3328
39439SOL    HW220325   0.803   3.128   1.391  0.8298 -0.4854 -0.4061
39440SOL     OW20326   5.208   4.729   6.239 -0.3464 -0.0279  0.5022
39440SOL    HW120327   5.219   4.681   6.157 -0.2736  1.2939 -0.2776
39440SOL    HW220328   5.290   4.715   6.286  0.4070  0.8323 -0.5260
39441SOL     OW20329   6.450   9.893   0.161 -0.0498  0.4868 -0.9842
39441SOL    HW120330   6.431   9.820   0.102 -0.2269 -0.0053 -0.3311
39441SOL    HW220331   6.395   9.876   0.238  1.3526  0.2601 -0.0081
39442SOL     OW20332   0.346   4.533   2.001 -0.5865  0.4950  0.1263
39442SOL    HW120333   0.282   4.574   1.943  0.7866  1.3139 -0.8724
39442SOL    HW220334   0.293   4.486   2.066 -2.2347 -2.6057 -3.1713
39443SOL     OW20335   5.396   8.482   3.584 -0.7312 -0.0379 -0.4989
39443SOL    HW120336   5.467   8.429   3.548 -0.3913 -0.3244  0.5660
39443SOL    HW220337   5.386   8.452   3.674 -4.0772 -1.9421 -1.3353
39444SOL     OW20338   4.596   6.662   7.628  0.3608  0.3471  0.1873
39444SOL    HW120339   4.643   6.691   7.707 -0.0038  0.5339  0.3389
39444SOL    HW220340   4.556   6.742   7.594 -1.0899 -0.0438  0.8950
39445SOL     OW20341   2.555   1.950   4.533 -0.5704 -0.0930 -0.4998
39445SOL    HW120342   2.515   2.023   4.487 -0.4245  0.2572 -0.0756
39445SOL    HW220343   2.535   1.873   4.479 -0.6503  0.2698 -0.9904
39446SOL     OW20344   3.535   1.124  10.607 -0.2381  0.0696 -0.0790
39446SOL    HW120345   3.505   1.209  10.640 -0.7685 -0.3804  0.6096
39446SOL    HW220346   3.529   1.066  10.682  1.2446 -0.3151 -0.2415
39447SOL     OW20347   7.565   9.901   0.047 -0.6009 -0.7396  0.3623
39447SOL    HW120348   7.543   9.985   0.007  1.0003 -0.0942  0.7547
39447SOL    HW220349   7.513   9.898   0.128 -1.8965 -0.8855 -0.4596
39448SOL     OW20350   8.162   2.130   8.091  0.7276 -0.2927 -0.0738
39448SOL    HW120351   8.156   2.218   8.054  2.6099  0.0855  0.4101
39448SOL    HW220352   8.097   2.080   8.043  0.5181  1.0518 -1.2832
39449SOL     OW20353   5.180   6.682   1.522  0.0031 -0.1825 -0.0969
39449SOL    HW120354   5.256   6.735   1.547  0.3145 -0.7326  0.1363
39449SOL    HW220355   5.203   6.644   1.438 -0.1999  0.0079 -0.2395
39450SOL     OW20356   2.985   6.812   3.109 -0.2992  0.1421  0.2162
39450SOL    HW120357   2.983   6.740   3.172  1.6047 -1.3219 -1.2933
39450SOL    HW220358   2.916   6.792   3.046 -1.4508  1.0249  1.1352
39451SOL     OW20359   3.212   1.921   7.986  0.0452 -0.7448 -0.2846
39451SOL    HW120360   3.130   1.965   8.009 -0.8352 -2.4815  0.0830
39451SOL    HW220361   3.241   1.880   8.068  1.5243  0.1836 -0.3107
39452SOL     OW20362   1.962   7.973   7.447  0.3856 -0.4169 -0.0434
39452SOL    HW120363   1.997   7.972   7.536 -1.8969  2.8435  1.1041
39452SOL    HW220364   1.989   8.058   7.412 -1.5097 -0.1988 -1.1263
39453SOL     OW20365   8.597   1.223   3.304 -0.3730 -0.1287 -0.4295
39453SOL    HW120366   8.608   1.272   3.386 -0.4735 -0.7303 -0.0507
39453SOL    HW220367   8.509   1.246   3.275  0.0089  0.8391 -0.8880
39454SOL     OW20368   7.917   9.756   5.670 -0.1395  0.0774 -0.2903
39454SOL    HW120369   7.954   9.833   5.712  0.2354  0.2688 -0.9524
39454SOL    HW220370   7.826   9.779   5.653 -0.0500  0.3494 -0.4063
39455SOL     OW20371   4.514   2.000   9.541  0.3044  0.3250  0.5796
39455SOL    HW120372   4.499   2.035   9.628 -0.4889  2.2457 -0.2658
39455SOL    HW220373   4.523   1.906   9.553  0.8025  0.6196  2.7836
39456SOL     OW20374   9.605   3.588   1.951 -0.2460 -0.2503  0.5108
39456SOL    HW120375   9.619   3.507   1.902  2.5050 -0.1282  0.9743
39456SOL    HW220376   9.627   3.657   1.889  3.9557 -0.1049  1.9110
39457SOL     OW20377   4.614  10.378   2.178  0.8066  0.0043 -0.0327
39457SOL    HW120378   4.697  10.330   2.177  0.7291 -0.1776  1.0827
39457SOL    HW220379   4.547  10.309   2.180  0.5226  0.1005 -2.7096
39458SOL     OW20380   2.161   4.159   6.362  0.1550 -0.0606  0.2138
39458SOL    HW120381   2.083   4.193   6.320  1.0033 -0.4448 -1.7720
39458SOL    HW220382   2.129   4.090   6.420 -0.9972  0.0646 -0.2488
39459SOL     OW20383   1.909   8.459   9.364  0.3874  0.0639 -0.4637
39459SOL    HW120384   1.896   8.467   9.269 -2.0344  1.9051 -0.0744
39459SOL    HW220385   1.852   8.386   9.390 -0.6954  0.9897 -0.1747
39460SOL     OW20386   2.448   9.059   7.866 -0.0625  0.1463  0.1960
39460SOL    HW120387   2.525   9.072   7.921 -0.5235  1.0100  0.6500
39460SOL    HW220388   2.481   9.011   7.790  0.7809 -0.1241  0.7185
39461SOL     OW20389   1.073   3.562   5.870  0.0178 -0.4149 -0.6589
39461SOL    HW120390   1.152   3.592   5.825  0.7825 -0.4088  0.6480
39461SOL    HW220391   1.016   3.639   5.873  0.4035 -0.1290 -0.6640
39462SOL     OW20392  10.947  10.413  10.120 -0.0436  0.1007  0.2428
39462SOL    HW120393  10.997  10.340  10.157 -0.2302 -0.4140 -0.4996
39462SOL    HW220394  10.942  10.393  10.027  1.1525  1.8034 -0.2226
39463SOL     OW20395   9.558   7.954   0.389  0.2187 -0.0070 -0.0984
39463SOL    HW120396   9.591   7.990   0.471  0.5672 -1.4033  0.3928
39463SOL    HW220397   9.637   7.937   0.337 -0.0434  3.1433 -1.7909
39464SOL     OW20398   8.597   8.498   7.901 -0.3456 -0.0107 -0.1674
39464SOL    HW120399   8.515   8.548   7.905 -0.6653 -0.6009  1.3841
39464SOL    HW220400   8.598   8.461   7.813 -1.0766  1.0974 -0.6641
39465SOL     OW20401   0.229   0.125   2.088 -0.1601 -0.6783 -0.4087
39465SOL    HW120402   0.179   0.202   2.117  1.1188 -0.0817  0.2693
39465SOL    HW220403   0.175   0.050   2.114 -1.0369 -0.0368 -0.3349
39466SOL     OW20404   2.281   5.854   9.840 -0.7893  0.2369 -0.0312
39466SOL    HW120405   2.366   5.815   9.863 -1.4260 -1.0034  0.3076
39466SOL    HW220406   2.220   5.817   9.904 -1.4265  1.9022  0.3716
39467SOL     OW20407   7.040   4.040   6.779  0.6448 -0.4834  0.3104
39467SOL    HW120408   7.057   3.949   6.754 -0.1457 -0.4279 -0.4773
39467SOL    HW220409   7.109   4.090   6.736 -0.5003 -0.4264 -1.5792
39468SOL     OW20410   2.088   1.541   5.693 -0.1583  0.5592  0.1202
39468SOL    HW120411   2.100   1.533   5.599 -0.6337 -1.2322  0.1676
39468SOL    HW220412   2.110   1.454   5.727 -0.1806  1.1175  1.6402
39469SOL     OW20413   9.520   2.336   8.734 -0.3217 -0.9016  0.0151
39469SOL    HW120414   9.514   2.270   8.665  1.0849 -0.2287 -0.8029
39469SOL    HW220415   9.434   2.335   8.776 -1.9830 -0.0125 -2.9795
39470SOL     OW20416   4.227   2.817   6.531  0.0112 -0.0658  0.2421
39470SOL    HW120417   4.260   2.795   6.618  1.0149  2.5917  0.6282
39470SOL    HW220418   4.289   2.776   6.471  0.0389 -0.8661  0.8027
39471SOL     OW20419   1.171   4.345   2.456  0.0057  0.3930 -0.4310
39471SOL    HW120420   1.151   4.336   2.362 -0.1590  1.5029 -0.5158
39471SOL    HW220421   1.086   4.334   2.499  0.0097  0.3246 -0.4400
39472SOL     OW20422   6.211   4.978   1.948  0.0496  0.3250  1.0080
39472SOL    HW120423   6.135   4.933   1.985  0.0349 -1.0098 -0.5313
39472SOL    HW220424   6.281   4.963   2.012 -0.0941 -1.4904  0.7943
39473SOL     OW20425   2.390   6.073   2.447  0.4422  0.1643  0.1536
39473SOL    HW120426   2.420   6.164   2.447  1.1002 -0.0283 -1.2127
39473SOL    HW220427   2.296   6.079   2.430  0.6268  0.5777 -0.8095
39474SOL     OW20428   4.519   4.840   9.683  0.4262  0.0232  0.3159
39474SOL    HW120429   4.458   4.769   9.663 -1.8261  1.4973  1.5544
39474SOL    HW220430   4.497   4.908   9.619  1.6752  0.1418 -0.0198
39475SOL     OW20431   4.116   5.271   8.689  0.5632 -0.2585 -0.0090
39475SOL    HW120432   4.197   5.310   8.655  0.4927 -1.0117 -1.0997
39475SOL    HW220433   4.096   5.200   8.628 -0.9201 -0.0945  0.2402
39476SOL     OW20434  10.692  10.216   4.331  0.3977 -0.5729 -0.6286
39476SOL    HW120435  10.618  10.251   4.382 -0.0954 -2.4784  0.0673
39476SOL    HW220436  10.766  10.222   4.391 -0.1643 -2.7389  0.3787
39477SOL     OW20437   1.244  10.962   2.771 -0.0147 -0.0646  0.0523
39477SOL    HW120438   1.200  11.018   2.836  0.7438 -1.7758  2.1696
39477SOL    HW220439   1.179  10.897   2.747  0.3644 -0.7333  0.7994
39478SOL     OW20440   6.324   0.577  10.889  0.3660  0.3543  0.2655
39478SOL    HW120441   6.236   0.547  10.914  0.5358 -2.5559 -2.1232
39478SOL    HW220442   6.375   0.568  10.970 -1.0494  0.1326  1.1864
39479SOL     OW20443   6.918   0.153   3.703  0.8550  0.2365 -0.2017
39479SOL    HW120444   6.894   0.061   3.709  0.8757  0.2850  0.6519
39479SOL    HW220445   6.968   0.159   3.621 -1.7806  0.1055 -1.9533
39480SOL     OW20446   4.485   3.508   9.437  0.4396  0.0850 -0.0857
39480SOL    HW120447   4.571   3.545   9.416 -0.0170  1.0865 -0.2829
39480SOL    HW220448   4.453   3.473   9.354  1.1233 -1.3452  0.2219
39481SOL     OW20449   6.691   7.537   3.765 -0.2828  0.2640  0.1612
39481SOL    HW120450   6.656   7.604   3.707 -0.1712  0.5790  0.4559
39481SOL    HW220451   6.618   7.514   3.823 -0.0935  0.7165  0.5892
39482SOL     OW20452   2.285   8.684   7.566  0.3618 -0.1912 -0.5628
39482SOL    HW120453   2.267   8.594   7.540 -0.0005 -0.1563 -0.4393
39482SOL    HW220454   2.304   8.679   7.660 -0.4244 -0.0429 -0.3864
39483SOL     OW20455   9.229   8.758   0.073 -0.6468 -0.3946  0.5596
39483SOL    HW120456   9.137   8.769   0.049 -0.3774 -1.1276 -0.8867
39483SOL    HW220457   9.239   8.664   0.087  0.6259 -0.8404 -2.7075
39484SOL     OW20458   0.526   3.389   1.482 -0.1465 -0.0084 -0.1161
39484SOL    HW120459   0.592   3.385   1.551  0.1419 -1.8421 -0.4419
39484SOL    HW220460   0.515   3.298   1.455 -0.4033  0.6291 -2.3390
39485SOL     OW20461   2.958   8.380   1.746  0.1015 -0.1337  0.2004
39485SOL    HW120462   3.045   8.409   1.717  1.6772 -2.3751  2.3099
39485SOL    HW220463   2.899   8.411   1.678  2.6672  0.6717 -1.8317
39486SOL     OW20464   8.314   1.846   3.703  0.0338  0.2527 -0.3428
39486SOL    HW120465   8.400   1.888   3.695 -0.5199  1.5399  0.1424
39486SOL    HW220466   8.332   1.763   3.746  0.9193  1.0219  0.8425
39487SOL     OW20467   6.299   7.589   4.890 -0.2115  0.2941  0.6959
39487SOL    HW120468   6.312   7.530   4.964  0.2630  2.2828  2.3050
39487SOL    HW220469   6.370   7.568   4.829 -1.9317 -2.9469 -0.3989
39488SOL     OW20470   7.465   2.858   9.130 -0.0831  0.3754  0.2571
39488SOL    HW120471   7.446   2.799   9.058 -1.0238 -0.3608  1.0770
39488SOL    HW220472   7.460   2.946   9.092 -0.3559 -0.0116 -0.6126
39489SOL     OW20473   6.758   8.432   4.607 -0.6487 -0.3715 -0.5165
39489SOL    HW120474   6.673   8.414   4.647 -1.5682 -0.0021 -2.1949
39489SOL    HW220475   6.737   8.452   4.515  0.8855  2.7915 -0.3347
39490SOL     OW20476   3.052   9.302   3.434 -0.3156  0.5267  0.0600
39490SOL    HW120477   2.983   9.246   3.399 -0.1995  0.1791  0.3726
39490SOL    HW220478   3.006   9.362   3.493 -0.8419  2.6208 -2.3395
39491SOL     OW20479   1.548   3.974   7.780 -0.3331  0.5076 -0.0761
39491SOL    HW120480   1.465   3.966   7.827 -1.0418  0.7046 -1.2334
39491SOL    HW220481   1.605   3.908   7.818 -1.2760 -0.1407  0.2278
39492SOL     OW20482   6.180  10.151   2.471 -0.4610  0.3278 -0.7903
39492SOL    HW120483   6.239  10.226   2.481  1.0935 -1.0525  1.2679
39492SOL    HW220484   6.100  10.176   2.517  0.4683  0.3373  0.8694
39493SOL     OW20485   7.743   2.360  10.052 -0.0242 -0.0893 -0.0956
39493SOL    HW120486   7.679   2.404  10.109  1.4529  1.2942  0.5922
39493SOL    HW220487   7.756   2.274  10.092 -0.1559  0.2806  0.7600
39494SOL     OW20488   0.552   8.403   6.401  0.1268 -0.1939  0.7528
39494SOL    HW120489   0.587   8.471   6.343 -0.0191  0.4241  1.3899
39494SOL    HW220490   0.630   8.365   6.443  0.3348 -1.3602 -0.5955
39495SOL     OW20491   8.177   3.351  11.029 -0.0192 -0.1745 -0.5257
39495SOL    HW120492   8.231   3.288  10.980  0.2715 -0.0324 -0.3871
39495SOL    HW220493   8.146   3.302  11.105 -1.5472 -0.8018 -1.5047
39496SOL     OW20494   9.773   1.417   9.020 -0.0447  0.5088  0.3460
39496SOL    HW120495   9.761   1.496   8.966  0.6785  0.9816  0.8522
39496SOL    HW220496   9.701   1.359   8.994 -1.0878  1.6655  0.5460
39497SOL     OW20497   5.034   4.215   5.232 -0.6217 -0.1783  0.2382
39497SOL    HW120498   5.060   4.128   5.200  0.4178  0.1381  0.2078
39497SOL    HW220499   4.969   4.196   5.300 -0.2265 -1.0064  0.4045
39498SOL     OW20500   1.362   5.942   7.126 -0.0715 -0.0265 -0.3553
39498SOL    HW120501   1.313   5.873   7.170 -1.4253  0.7697 -0.5851
39498SOL    HW220502   1.431   5.894   7.078  0.7166 -0.9783  1.6270
39499SOL     OW20503   6.247  10.383   4.515 -0.3635 -0.6764 -0.3855
39499SOL    HW120504   6.217  10.454   4.459 -1.4061 -0.0684  0.9051
39499SOL    HW220505   6.332  10.413   4.549  1.2658 -1.8635 -3.0449
39500SOL     OW20506   6.477   1.613   7.434  0.5486 -0.4851  0.1854
39500SOL    HW120507   6.520   1.646   7.513 -0.3860  1.0482  0.1054
39500SOL    HW220508   6.547   1.572   7.384  1.2016 -1.3069  1.6872
39501SOL     OW20509   1.302   1.553   5.194  0.3137 -0.4688 -0.0251
39501SOL    HW120510   1.313   1.460   5.178 -0.8992 -0.5652 -0.4065
39501SOL    HW220511   1.208   1.569   5.181  0.3048  0.5897  1.1138
39502SOL     OW20512   7.521   8.154  10.785  0.0265  0.2239  0.6197
39502SOL    HW120513   7.512   8.088  10.717  0.2888  0.9486 -0.1374
39502SOL    HW220514   7.527   8.237  10.738  2.1586  0.5832  1.3863
39503SOL     OW20515  10.209   2.673   2.206 -0.5431  0.3919 -0.3684
39503SOL    HW120516  10.154   2.626   2.143 -0.7790 -0.3561  0.3798
39503SOL    HW220517  10.147   2.715   2.266 -0.3381 -0.8430  0.7635
39504SOL     OW20518   6.300   4.576   1.463  0.0498 -0.5183  0.4725
39504SOL    HW120519   6.245   4.645   1.426 -1.7170 -2.0393  0.1198
39504SOL    HW220520   6.250   4.544   1.538  1.1173 -1.0430  0.9771
39505SOL     OW20521  10.708   5.631   5.261 -0.1783 -0.7682  0.3615
39505SOL    HW120522  10.672   5.693   5.198 -1.4151  0.2739  1.9843
39505SOL    HW220523  10.761   5.571   5.209 -0.4570  0.5307 -1.5233
39506SOL     OW20524   4.581   6.826   9.506  0.3799 -0.2454  0.4907
39506SOL    HW120525   4.672   6.808   9.484  0.4197  1.1154 -0.5971
39506SOL    HW220526   4.531   6.759   9.461  0.8455 -1.4134  1.6365
39507SOL     OW20527   0.942   2.811   0.441  0.0207  0.1765  0.2486
39507SOL    HW120528   1.027   2.856   0.435  0.5050 -0.6750  0.5621
39507SOL    HW220529   0.893   2.863   0.505  0.5070  0.3707  0.4757
39508SOL     OW20530  10.609   0.838   6.107  0.2891 -0.1349 -0.0459
39508SOL    HW120531  10.646   0.917   6.146  1.5370 -1.3782  1.3943
39508SOL    HW220532  10.515   0.854   6.104  0.1308  0.1850  3.2700
39509SOL     OW20533   3.256   0.588   4.716  0.3085  0.4751 -0.0379
39509SOL    HW120534   3.193   0.565   4.784  0.7912 -1.9030 -0.3037
39509SOL    HW220535   3.341   0.589   4.761  0.5799 -0.7242 -0.4840
39510SOL     OW20536   2.279   3.391  10.702 -0.4161 -0.2238 -0.5109
39510SOL    HW120537   2.267   3.481  10.732 -0.1201 -0.6148  0.8904
39510SOL    HW220538   2.251   3.337  10.776 -0.4606 -1.2847 -1.2738
39511SOL     OW20539   6.905   4.903   0.745  0.2076 -0.3714  0.4709
39511SOL    HW120540   6.905   4.997   0.727  0.9122 -0.5455 -0.5045
39511SOL    HW220541   6.849   4.894   0.822 -0.6686  0.7397 -0.0010
39512SOL     OW20542   6.906   6.577   4.287 -0.0217  0.2243  0.0049
39512SOL    HW120543   6.934   6.636   4.216 -0.2989  0.4875  0.1112
39512SOL    HW220544   6.971   6.590   4.356  0.9364 -0.9043 -0.6361
39513SOL     OW20545   5.743   3.121  10.261  0.0590 -0.6722  0.5756
39513SOL    HW120546   5.688   3.129  10.339 -2.2023 -0.4075 -0.9420
39513SOL    HW220547   5.737   3.208  10.220  1.6082 -0.6621  0.3416
39514SOL     OW20548  10.073   4.572   2.974  0.0520  0.5173 -0.2021
39514SOL    HW120549  10.117   4.657   2.971  1.0343 -0.0282 -1.6730
39514SOL    HW220550   9.988   4.588   2.932  0.2941  0.7422 -0.6100
39515SOL     OW20551   6.740   7.386   4.140 -0.8068  0.4521 -0.2296
39515SOL    HW120552   6.655   7.364   4.178 -0.8670 -0.0471 -0.6489
39515SOL    HW220553   6.801   7.382   4.213 -1.1647  0.9754  0.1078
39516SOL     OW20554   2.333   1.758  10.020  0.0657 -0.4001  0.3770
39516SOL    HW120555   2.285   1.705   9.956 -0.1051  0.5734 -0.3295
39516SOL    HW220556   2.418   1.774   9.979 -0.3396  0.9112  0.0142
39517SOL     OW20557   5.317   1.449   9.783 -0.3008 -0.3209 -0.5383
39517SOL    HW120558   5.335   1.431   9.875  0.9878  0.0569 -0.6875
39517SOL    HW220559   5.269   1.532   9.784  0.7920  0.3365 -0.2414
39518SOL     OW20560   9.123   2.876   4.743  0.1205 -0.0933 -0.2524
39518SOL    HW120561   9.065   2.849   4.672  0.1811 -0.4074 -0.1850
39518SOL    HW220562   9.210   2.843   4.718 -0.1986 -1.9407  0.8825
39519SOL     OW20563   5.959   5.671   1.480 -0.5553  0.3590  0.2296
39519SOL    HW120564   5.901   5.746   1.473 -0.6080  0.3392  0.4495
39519SOL    HW220565   5.937   5.631   1.564 -0.0036  0.5319  0.4570
39520SOL     OW20566   8.235   9.166   7.662  0.3828  0.0008  0.5046
39520SOL    HW120567   8.257   9.141   7.751 -1.6834  0.3457  1.1639
39520SOL    HW220568   8.140   9.156   7.656  0.4319  0.1954 -1.5976
39521SOL     OW20569  10.035   8.436   8.371  0.7065 -0.0378 -0.1469
39521SOL    HW120570   9.972   8.436   8.443  0.9513  0.2449  0.0724
39521SOL    HW220571  10.088   8.358   8.386  0.6987 -0.0285 -0.0700
39522SOL     OW20572   3.671   1.718   8.710 -0.3942 -0.1423 -0.9199
39522SOL    HW120573   3.660   1.623   8.707 -1.1341 -0.3161  3.0129
39522SOL    HW220574   3.766   1.730   8.719 -0.4428 -0.6579  0.4770
39523SOL     OW20575   9.251   0.440   1.395 -0.8249  0.1486  0.0656
39523SOL    HW120576   9.210   0.494   1.328 -2.6201 -1.1459  0.0643
39523SOL    HW220577   9.342   0.470   1.397 -0.8781  0.6748 -2.4453
39524SOL     OW20578   8.890   6.789   3.620 -0.1933  0.3017  0.2906
39524SOL    HW120579   8.802   6.763   3.648 -0.5116  1.3914  0.3628
39524SOL    HW220580   8.874   6.857   3.553  0.5730 -0.6377 -0.8901
39525SOL     OW20581   0.603  10.819   3.571  0.1698 -0.1962 -0.8206
39525SOL    HW120582   0.522  10.865   3.546  0.9099  0.8216 -1.4205
39525SOL    HW220583   0.599  10.816   3.667  0.9982  3.0009 -0.5531
39526SOL     OW20584   0.992   9.317   0.562  0.1547 -0.5305  0.2162
39526SOL    HW120585   0.987   9.278   0.475  2.2600 -1.1539  0.3104
39526SOL    HW220586   1.085   9.338   0.574 -0.0797 -0.4152  2.2880
39527SOL     OW20587   7.779   7.145   2.852 -0.2428 -0.0376  0.3311
39527SOL    HW120588   7.799   7.223   2.800 -1.7889  0.3737  0.3113
39527SOL    HW220589   7.862   7.096   2.855 -0.0375  0.0120 -2.3344
39528SOL     OW20590   4.210   3.030   4.780 -0.3621  0.2864  0.3158
39528SOL    HW120591   4.179   3.105   4.729  0.7305  1.2485  1.0156
39528SOL    HW220592   4.195   3.056   4.871 -0.5235 -0.6036  0.5489
39529SOL     OW20593   0.617   6.967  10.545  0.2962 -0.2172 -0.8578
39529SOL    HW120594   0.666   7.035  10.591 -0.3481 -0.0737 -0.3707
39529SOL    HW220595   0.645   6.885  10.586 -1.9014  0.0595  1.3752
39530SOL     OW20596   9.792  10.382   8.887  0.2742 -0.4356 -0.3053
39530SOL    HW120597   9.834  10.428   8.815  0.0435 -0.6099 -0.5499
39530SOL    HW220598   9.784  10.291   8.857 -0.5983 -0.3362 -0.4048
39531SOL     OW20599  10.387   0.076   5.042  0.3929  0.2228  0.2259
39531SOL    HW120600  10.293   0.089   5.050  0.3680  0.4218 -0.3980
39531SOL    HW220601  10.400  -0.018   5.058  0.1995  0.3633  1.2743
39532SOL     OW20602   7.137   9.743   5.796  0.4712 -0.6898 -0.7822
39532SOL    HW120603   7.076   9.707   5.861 -0.5561  0.2810 -1.1919
39532SOL    HW220604   7.157   9.668   5.739  0.0284 -1.1285 -0.3780
39533SOL     OW20605   3.628   0.085  10.135 -0.4723  0.4622 -0.4372
39533SOL    HW120606   3.666   0.049  10.216  0.2383 -1.1863 -1.4450
39533SOL    HW220607   3.701   0.131  10.094 -0.5759  0.4705 -0.6105
39534SOL     OW20608   3.997   3.648   8.083 -0.2700 -0.3472 -0.1128
39534SOL    HW120609   4.083   3.666   8.122 -0.9014 -0.1281  1.2287
39534SOL    HW220610   3.997   3.553   8.068  0.4234 -0.2669 -0.6916
39535SOL     OW20611   7.448   6.137   2.520 -0.5350 -0.2801  0.2052
39535SOL    HW120612   7.465   6.135   2.426 -0.6019 -1.2182  0.2028
39535SOL    HW220613   7.357   6.167   2.528 -0.9406 -1.3877 -0.0972
39536SOL     OW20614   7.152   9.500   5.156  0.2378 -0.3518 -0.5098
39536SOL    HW120615   7.126   9.492   5.065 -0.1100  3.1329 -0.8688
39536SOL    HW220616   7.233   9.549   5.154 -0.6046  1.2239  1.0433
39537SOL     OW20617   9.378  10.502   2.963  0.0385  0.3041  0.1145
39537SOL    HW120618   9.435  10.425   2.969  0.4417  0.4766 -1.0970
39537SOL    HW220619   9.403  10.557   3.037  0.1535 -0.4710  0.6601
39538SOL     OW20620   4.238   1.774   0.563 -0.4972  0.0234  0.2281
39538SOL    HW120621   4.233   1.751   0.471  1.9821 -0.5011  0.1603
39538SOL    HW220622   4.197   1.700   0.608 -0.6633 -0.2647 -0.3858
39539SOL     OW20623   4.978   7.726   6.040  0.1844 -0.2991 -0.6268
39539SOL    HW120624   5.027   7.805   6.020  1.1495 -1.0686 -1.4315
39539SOL    HW220625   4.950   7.737   6.131  1.1189  0.5384 -0.4245
39540SOL     OW20626   9.524   8.937   2.846  0.0658  0.3792  0.1234
39540SOL    HW120627   9.503   9.017   2.894 -1.2446 -0.3107  0.7708
39540SOL    HW220628   9.617   8.922   2.864  0.2901  1.6579  0.1154
39541SOL     OW20629   1.284  10.201   1.066  0.2269 -0.2370 -0.3275
39541SOL    HW120630   1.371  10.163   1.052  1.1034  1.7993 -0.7009
39541SOL    HW220631   1.265  10.248   0.985 -0.3773  0.9118  0.4549
39542SOL     OW20632   1.913   6.807   6.785  0.6337 -0.4501 -0.4814
39542SOL    HW120633   1.849   6.822   6.715 -1.2113 -0.2972  1.1693
39542SOL    HW220634   1.959   6.891   6.793  0.5427 -0.3269 -1.1693
39543SOL     OW20635  10.979   2.632   4.323 -0.0558  0.2333  0.1699
39543SOL    HW120636  11.050   2.588   4.276  0.6420  0.5069  0.9561
39543SOL    HW220637  10.907   2.569   4.322  0.7327 -0.7056  0.7867
39544SOL     OW20638   4.285   9.284   2.473 -0.1749 -0.4774  0.5428
39544SOL    HW120639   4.355   9.218   2.476  0.6713  0.3855  0.3911
39544SOL    HW220640   4.291   9.321   2.385 -1.8203 -1.4051 -0.0057
39545SOL     OW20641   1.079   1.318  10.302 -0.4391  0.1954 -0.0098
39545SOL    HW120642   1.080   1.403  10.346  1.5914 -0.1084  0.6270
39545SOL    HW220643   1.116   1.335  10.216 -0.6378  0.0613 -0.1229
39546SOL     OW20644   0.529   9.208   3.562  0.0429  0.4266 -0.5254
39546SOL    HW120645   0.480   9.135   3.601 -0.8812  1.2500 -0.1232
39546SOL    HW220646   0.474   9.237   3.489  0.3782  0.7662 -0.6424
39547SOL     OW20647  10.984  10.143   0.538  0.4592 -0.0517 -0.0149
39547SOL    HW120648  11.073  10.153   0.504 -0.0137 -0.1718 -1.3607
39547SOL    HW220649  10.995  10.138   0.633  1.8835 -0.0420 -0.1533
39548SOL     OW20650   6.148   3.949   2.066 -0.3797  0.1395 -0.2221
39548SOL    HW120651   6.226   3.904   2.100 -0.2003  0.7375  0.1816
39548SOL    HW220652   6.182   4.014   2.006 -0.6401 -0.2623 -0.8107
39549SOL     OW20653   1.467   8.525   0.605 -0.1472  0.0253 -0.1170
39549SOL    HW120654   1.517   8.539   0.686  1.2957 -0.5346 -0.8785
39549SOL    HW220655   1.524   8.558   0.536 -1.0019 -0.2875 -0.9846
39550SOL     OW20656   9.028   1.170   9.289 -0.1264  0.3433 -0.8383
39550SOL    HW120657   9.120   1.141   9.285  0.1096  0.7366  1.0138
39550SOL    HW220658   8.977   1.090   9.277  0.4908 -0.2745  0.4644
39551SOL     OW20659   4.881   7.198   7.717 -0.1062 -0.5958 -0.7745
39551SOL    HW120660   4.850   7.149   7.641  0.7880 -1.5246 -0.5791
39551SOL    HW220661   4.840   7.283   7.710 -1.8612 -1.4308 -1.0418
39552SOL     OW20662   4.989   1.994   0.465  0.3233  0.1906  0.2905
39552SOL    HW120663   5.015   1.922   0.522 -0.7390 -1.1340 -0.8552
39552SOL    HW220664   4.929   2.046   0.519  1.4505  0.5110  1.2749
39553SOL     OW20665   2.915   2.775   3.688 -0.1876  0.0766  0.1337
39553SOL    HW120666   2.963   2.858   3.684  0.1469 -0.1307 -0.2700
39553SOL    HW220667   2.823   2.801   3.696 -0.1116  0.4957 -0.2979
39554SOL     OW20668   7.896   5.561   6.257  0.7016  0.1046  0.1021
39554SOL    HW120669   7.945   5.534   6.178  0.8500 -0.3756  0.3578
39554SOL    HW220670   7.903   5.487   6.316 -0.3598  0.0332  0.1419
39555SOL     OW20671   8.900   2.066   7.445 -0.4372  0.5256 -0.1605
39555SOL    HW120672   8.850   2.148   7.435 -0.3660  0.7389  1.0603
39555SOL    HW220673   8.932   2.068   7.536 -2.1974 -1.8480  0.6066
39556SOL     OW20674   1.891   7.293   5.127 -0.4697  0.6072 -0.5616
39556SOL    HW120675   1.848   7.304   5.042  1.1870  2.5085 -1.2309
39556SOL    HW220676   1.833   7.339   5.188 -0.0075  2.2724 -1.2888
39557SOL     OW20677   4.331  10.097   4.233  0.0072  0.1876  0.4297
39557SOL    HW120678   4.316  10.168   4.296 -0.4428  0.3389  0.1566
39557SOL    HW220679   4.367  10.140   4.156  1.2123 -0.0825  0.8150
39558SOL     OW20680   9.441   9.251   9.743 -0.9240 -0.4027  0.1986
39558SOL    HW120681   9.384   9.228   9.670 -1.7768  0.5921  0.5355
39558SOL    HW220682   9.402   9.329   9.781  0.8867  0.5783  0.1854
39559SOL     OW20683   4.490  10.841   6.110  0.1036 -0.2344  0.1541
39559SOL    HW120684   4.478  10.826   6.016  3.7090 -0.0290 -0.4901
39559SOL    HW220685   4.440  10.771   6.152  0.2854 -1.7823 -2.0281
39560SOL     OW20686   7.346   3.801   6.271  1.2977  0.2827  1.5857
39560SOL    HW120687   7.386   3.830   6.353  1.6831  0.5712  1.3005
39560SOL    HW220688   7.318   3.881   6.228  0.2426  0.0728  1.8541
39561SOL     OW20689   4.595   4.651   2.266  0.0488 -0.1238  0.0296
39561SOL    HW120690   4.520   4.709   2.279 -1.0828 -1.8473  1.9767
39561SOL    HW220691   4.586   4.620   2.176 -1.1621  0.2983 -0.0135
39562SOL     OW20692   9.227   9.102   1.482 -0.1465  0.1109  0.2741
39562SOL    HW120693   9.193   9.017   1.452  2.8461 -0.7316 -1.0590
39562SOL    HW220694   9.319   9.085   1.503 -0.0765  2.5138  2.4571
39563SOL     OW20695   9.919   7.384   8.816  0.0040 -0.1142 -0.1628
39563SOL    HW120696   9.860   7.432   8.874  2.1370  2.6508 -0.0750
39563SOL    HW220697   9.879   7.392   8.729  0.3584  2.0784 -0.1815
39564SOL     OW20698  10.212   0.430   4.222 -0.2402 -0.8082 -0.0180
39564SOL    HW120699  10.223   0.380   4.141  1.5147 -0.0110 -0.3248
39564SOL    HW220700  10.180   0.366   4.286  2.2708 -2.5087 -0.3037
39565SOL     OW20701   4.029   9.896   4.898  0.9961  0.3437 -0.1501
39565SOL    HW120702   3.992   9.959   4.836  0.5577 -0.5677 -0.8296
39565SOL    HW220703   4.010   9.933   4.984 -0.3622  0.5345 -0.5104
39566SOL     OW20704   0.983   6.739   9.379 -0.1701  0.1935 -0.0544
39566SOL    HW120705   0.998   6.833   9.367  0.3011 -0.0053 -1.0914
39566SOL    HW220706   1.069   6.699   9.365 -0.2897 -0.3622  0.7642
39567SOL     OW20707   0.689   1.408   8.409 -0.1721  0.2572 -0.0941
39567SOL    HW120708   0.714   1.316   8.419  0.3182  0.3536 -0.4113
39567SOL    HW220709   0.612   1.418   8.464 -1.0000 -0.6660 -1.0306
39568SOL     OW20710   4.108   0.507   5.915 -0.0578 -0.6332  0.3714
39568SOL    HW120711   4.129   0.538   5.827 -1.0051 -0.8549  0.0524
39568SOL    HW220712   4.096   0.413   5.906 -0.7197 -0.5811  0.6145
39569SOL     OW20713   9.462   1.832  10.027  0.2839 -0.2679 -0.2458
39569SOL    HW120714   9.476   1.849  10.120  1.0050  0.2839 -0.4519
39569SOL    HW220715   9.502   1.906   9.982 -1.3621  0.2508 -0.9500
39570SOL     OW20716   6.204   4.333   9.033 -0.0075  0.9486  0.2554
39570SOL    HW120717   6.275   4.284   8.993 -1.8904 -1.2969 -0.6121
39570SOL    HW220718   6.148   4.359   8.960 -0.7359  1.5361  0.9993
39571SOL     OW20719   1.408   8.606   4.500  0.2203 -0.6481  0.0644
39571SOL    HW120720   1.470   8.614   4.573  0.7882 -0.8716 -0.3854
39571SOL    HW220721   1.335   8.663   4.524  1.1506  0.5947  0.0460
39572SOL     OW20722   5.542   9.853   2.619 -0.4559 -0.3582  0.6405
39572SOL    HW120723   5.486   9.853   2.541  0.7965 -0.7966 -0.3033
39572SOL    HW220724   5.583   9.939   2.619  0.1117 -0.6214  0.3730
39573SOL     OW20725   2.332   0.192   1.226  0.3593 -0.1969 -0.4383
39573SOL    HW120726   2.377   0.107   1.230 -0.8524 -0.8763 -0.4280
39573SOL    HW220727   2.317   0.208   1.133  2.4312  1.0654 -0.6027
39574SOL     OW20728   3.509   7.838   5.244 -0.0896  0.3133 -0.2669
39574SOL    HW120729   3.455   7.896   5.297  1.9026  0.7272  1.4427
39574SOL    HW220730   3.586   7.820   5.298  0.5846 -1.8442 -1.7777
39575SOL     OW20731   8.096  10.640   0.871  0.8797  0.2663  0.1465
39575SOL    HW120732   8.075  10.551   0.900 -0.2766  0.1108 -1.0603
39575SOL    HW220733   8.029  10.695   0.911  0.2539  0.2714 -0.8787
39576SOL     OW20734   8.813   4.274   7.156 -0.2548 -0.3875 -0.0306
39576SOL    HW120735   8.818   4.361   7.114 -2.1385 -0.6010 -0.8338
39576SOL    HW220736   8.775   4.292   7.242 -0.1653 -0.3671  0.0050
39577SOL     OW20737   1.254   4.599   5.310 -0.1864 -0.0737  0.1030
39577SOL    HW120738   1.254   4.551   5.227  1.2894 -0.2070  0.1564
39577SOL    HW220739   1.322   4.665   5.300 -2.1369  2.0450  0.0606
39578SOL     OW20740   7.128   7.651   8.056 -0.4892  0.4083  0.2137
39578SOL    HW120741   7.113   7.743   8.076  1.0019  0.6665  0.2314
39578SOL    HW220742   7.185   7.620   8.125 -1.7479 -0.8168  0.7585
39579SOL     OW20743  10.121   1.595   3.212  0.4836  0.1691 -0.0967
39579SOL    HW120744  10.036   1.597   3.169  0.8572 -0.4293 -0.8922
39579SOL    HW220745  10.172   1.532   3.162  0.8037 -0.8969  1.4987
39580SOL     OW20746   3.653   1.543   9.739 -0.1657 -0.3309 -0.2778
39580SOL    HW120747   3.619   1.549   9.650  1.2048 -0.0731 -0.8100
39580SOL    HW220748   3.748   1.550   9.729  0.0117 -0.2558  1.2090
39581SOL     OW20749   5.676   0.333   6.235 -0.1290 -0.3431  0.2206
39581SOL    HW120750   5.737   0.381   6.290  0.2497 -0.8603  0.2592
39581SOL    HW220751   5.667   0.386   6.156  0.8033 -0.5303 -0.0158
39582SOL     OW20752   3.017   2.978   5.082  0.6617 -0.8689  0.2218
39582SOL    HW120753   3.098   2.934   5.056  0.7283 -1.1902  0.9462
39582SOL    HW220754   2.996   2.941   5.168 -0.4512 -1.0450 -0.1075
39583SOL     OW20755   9.527   7.105   9.847 -0.0134  0.0444  0.2754
39583SOL    HW120756   9.473   7.075   9.920  3.1630 -2.8680  1.7749
39583SOL    HW220757   9.565   7.187   9.878 -0.0790 -0.2579  1.2166
39584SOL     OW20758   6.629   5.927   6.511  0.5822  0.0656 -0.1581
39584SOL    HW120759   6.585   5.939   6.427  0.5978  0.2725 -0.1361
39584SOL    HW220760   6.716   5.966   6.498  1.0065 -0.9086 -0.4116
39585SOL     OW20761   3.017   3.834   2.797  0.0531  0.3094 -0.2570
39585SOL    HW120762   2.979   3.853   2.883 -2.0337 -1.3678 -0.7334
39585SOL    HW220763   2.942   3.821   2.740  1.4005  0.6578 -2.2014
39586SOL     OW20764   1.699  10.782   0.553  0.2925  0.3370  0.2771
39586SOL    HW120765   1.721  10.869   0.587 -0.1802  0.2416  0.8492
39586SOL    HW220766   1.784  10.742   0.533  0.6308  0.2994  1.6353
39587SOL     OW20767   8.088   9.655  10.527 -0.3363  0.3766 -0.0286
39587SOL    HW120768   7.994   9.657  10.512 -0.2529  0.0695 -0.6365
39587SOL    HW220769   8.123   9.719  10.466 -0.0443 -0.4138 -0.7037
39588SOL     OW20770   9.047  10.147   1.730 -0.5654  0.3761  0.1902
39588SOL    HW120771   8.979  10.105   1.782  0.8046 -1.4206  0.6322
39588SOL    HW220772   9.128  10.105   1.758  0.7122  2.1712 -0.5789
39589SOL     OW20773   9.605   3.276   9.636  0.1008 -0.6411  0.3157
39589SOL    HW120774   9.596   3.183   9.616 -1.0318 -0.7091  1.0846
39589SOL    HW220775   9.538   3.294   9.703 -0.4763  0.9686 -0.6265
39590SOL     OW20776   5.397   5.198   6.484  0.0905 -0.3349 -0.5318
39590SOL    HW120777   5.444   5.194   6.567  0.3130 -2.6031 -0.6865
39590SOL    HW220778   5.304   5.197   6.510  0.0882  1.7460 -0.2928
39591SOL     OW20779  10.979   7.820   9.560 -0.2531  0.0144  0.4955
39591SOL    HW120780  10.931   7.863   9.489 -0.5007 -0.1344  0.5704
39591SOL    HW220781  10.911   7.779   9.613  0.0467 -3.2378 -1.3147
39592SOL     OW20782   2.405   4.210   4.057 -0.7602 -0.2890  0.1642
39592SOL    HW120783   2.379   4.191   3.967  0.1021 -1.1856  0.0849
39592SOL    HW220784   2.500   4.213   4.054 -0.7444  0.2705  0.9449
39593SOL     OW20785   5.309   2.870  10.110 -0.1193 -0.0478 -0.3335
39593SOL    HW120786   5.234   2.818  10.080 -0.7384  0.2721  0.6287
39593SOL    HW220787   5.381   2.807  10.116 -0.5703 -0.5639 -0.3044
39594SOL     OW20788   7.769   7.364   2.672  0.1604 -0.4780  0.0305
39594SOL    HW120789   7.800   7.305   2.603 -0.5967 -1.5173  0.5690
39594SOL    HW220790   7.674   7.364   2.663  0.1424  0.5750  0.1221
39595SOL     OW20791   2.152   2.360   0.634  0.4373  0.4163 -0.1259
39595SOL    HW120792   2.202   2.400   0.705 -0.1289 -1.4347  1.3834
39595SOL    HW220793   2.066   2.344   0.672 -0.9173  2.1277 -2.1971
39596SOL     OW20794   5.408   5.162   9.951 -0.3162  0.3531  0.2081
39596SOL    HW120795   5.348   5.116   9.892 -1.8814  2.6833 -0.1517
39596SOL    HW220796   5.382   5.134  10.039  0.4039 -1.2838 -0.0811
39597SOL     OW20797   8.091   8.849   6.323 -0.8520  0.7230 -0.3908
39597SOL    HW120798   8.130   8.771   6.286 -2.0834  0.3808 -1.0081
39597SOL    HW220799   7.996   8.833   6.319 -1.1144  2.1287 -0.2939
39598SOL     OW20800   1.712   6.723   1.945  0.4988  0.0032 -0.9904
39598SOL    HW120801   1.692   6.716   2.039  0.3959 -0.4387 -1.0428
39598SOL    HW220802   1.643   6.671   1.902  2.2046 -2.3380 -1.1263
39599SOL     OW20803   6.464   3.290   8.565 -0.3384  1.0497  0.1687
39599SOL    HW120804   6.452   3.242   8.483 -2.0464  0.2282  0.8465
39599SOL    HW220805   6.395   3.356   8.565 -0.7662  0.6381  1.1960
39600SOL     OW20806   3.048   9.719   5.972 -0.1516 -0.0599  0.9477
39600SOL    HW120807   3.004   9.804   5.977 -0.7551 -0.4073  1.6464
39600SOL    HW220808   3.132   9.734   6.015 -0.4844  0.0447  1.5695
39601SOL     OW20809   6.284   6.443   7.348 -0.2385 -0.0635  0.0674
39601SOL    HW120810   6.281   6.382   7.422 -0.2858 -1.1321 -0.7922
39601SOL    HW220811   6.195   6.478   7.343 -0.5811 -0.9480 -0.2562
39602SOL     OW20812   3.021   9.838  10.553  0.1086 -0.7646  0.5024
39602SOL    HW120813   3.005   9.756  10.600 -0.1029 -2.0579 -1.6985
39602SOL    HW220814   2.956   9.899  10.588 -1.8618 -2.4700  0.0279
39603SOL     OW20815   9.529   0.964   0.032 -0.1372  0.1887  0.0452
39603SOL    HW120816   9.435   0.980   0.026 -0.5400 -1.2423  1.7576
39603SOL    HW220817   9.558   1.018   0.106  1.2436  3.6753 -2.7308
39604SOL     OW20818   8.778   5.775   1.262 -0.4320 -0.1104  0.3529
39604SOL    HW120819   8.684   5.784   1.272 -0.6102 -2.4757  1.4502
39604SOL    HW220820   8.816   5.818   1.339 -0.7672 -1.1140  1.0974
39605SOL     OW20821   7.797  10.693   0.556 -0.4540 -0.2324  0.2249
39605SOL    HW120822   7.889  10.709   0.577 -0.1347 -1.2484 -0.3400
39605SOL    HW220823   7.769  10.625   0.618 -1.4076  1.3809  1.6885
39606SOL     OW20824   7.200   9.888   8.834 -0.0371 -0.0367  0.3942
39606SOL    HW120825   7.257   9.964   8.822  1.7999 -1.4821 -0.5993
39606SOL    HW220826   7.236   9.842   8.910  1.3138 -1.8498 -1.2173
39607SOL     OW20827  10.758   8.861   0.552  0.3017 -0.1089  0.4497
39607SOL    HW120828  10.758   8.766   0.568  0.5893 -0.0109  1.0468
39607SOL    HW220829  10.669   8.880   0.524 -0.1337 -0.3526  1.6133
39608SOL     OW20830   6.831   1.888   3.940  0.2014 -0.4179  0.2751
39608SOL    HW120831   6.861   1.977   3.955  0.4750 -0.3198 -0.7272
39608SOL    HW220832   6.784   1.864   4.019  0.8354  0.3188  0.8867
39609SOL     OW20833   0.730   0.735  10.567  0.5223 -0.4839 -0.2030
39609SOL    HW120834   0.710   0.694  10.483 -2.9315  1.8199 -0.7131
39609SOL    HW220835   0.694   0.676  10.633 -0.5526 -0.3536 -0.6578
39610SOL     OW20836   9.422   6.783   4.009 -0.1509  0.9952  0.1433
39610SOL    HW120837   9.481   6.851   4.043 -0.6991  0.9896  1.1486
39610SOL    HW220838   9.335   6.820   4.018 -0.3857  0.5433 -0.2424
39611SOL     OW20839   5.523   5.587  10.775 -0.0070  0.0142  0.5070
39611SOL    HW120840   5.474   5.520  10.824 -2.1798  2.0366  1.2751
39611SOL    HW220841   5.615   5.563  10.789 -0.6572 -2.1104  1.7241
39612SOL     OW20842   2.581   8.937  10.294  0.2463 -0.4846 -0.0021
39612SOL    HW120843   2.648   8.948  10.361  1.5151 -0.7683 -1.1624
39612SOL    HW220844   2.574   8.842  10.283  1.0412 -0.4368 -1.1637
39613SOL     OW20845   8.882   3.865   9.084 -0.4827  0.0724  0.1374
39613SOL    HW120846   8.868   3.896   8.994  0.4060  2.1074  0.6319
39613SOL    HW220847   8.941   3.790   9.075  2.7491  2.4765 -0.8926
39614SOL     OW20848   3.496  10.208   4.897 -0.2679  0.3192  0.0074
39614SOL    HW120849   3.452  10.265   4.959 -1.0854 -0.7267  0.4300
39614SOL    HW220850   3.446  10.126   4.900  0.3860 -0.1540 -1.1563
39615SOL     OW20851   0.705   2.371   3.691  0.1955 -0.2741  0.4904
39615SOL    HW120852   0.649   2.421   3.632 -0.7626 -1.7533  0.0883
39615SOL    HW220853   0.774   2.432   3.716  0.5134  0.4918 -1.9866
39616SOL     OW20854   4.874   4.232   1.785 -0.4166  0.1908  0.0829
39616SOL    HW120855   4.847   4.274   1.867 -1.3509 -0.1104 -0.0561
39616SOL    HW220856   4.950   4.180   1.809  1.0211  2.2029  0.1980
39617SOL     OW20857   0.492   8.644  10.768  0.4379 -0.4199 -0.4598
39617SOL    HW120858   0.420   8.642  10.830 -0.1948  1.1099 -1.0711
39617SOL    HW220859   0.547   8.571  10.792 -0.0873 -0.2215  1.5213
39618SOL     OW20860  10.849   4.877   4.607 -0.0935  0.0268 -0.1148
39618SOL    HW120861  10.895   4.941   4.552 -0.4111 -0.0925 -0.5189
39618SOL    HW220862  10.878   4.898   4.696 -1.5965  1.9313 -0.0147
39619SOL     OW20863   2.132   1.040   7.205 -0.2375  0.2754  0.2902
39619SOL    HW120864   2.088   1.002   7.129 -1.2432 -0.6016  1.2841
39619SOL    HW220865   2.167   0.965   7.252  0.7749  0.8469  0.4801
39620SOL     OW20866   3.028   4.465   3.001  0.2341  0.5333 -0.3634
39620SOL    HW120867   2.949   4.514   3.024  0.6270  0.9830  0.0520
39620SOL    HW220868   3.098   4.530   3.003  0.5195  0.2633 -1.3467
39621SOL     OW20869   1.290   3.537   0.384 -0.1853  0.6709  0.7477
39621SOL    HW120870   1.331   3.613   0.344 -1.0422  1.3768  1.1735
39621SOL    HW220871   1.223   3.511   0.321  0.5665 -0.1820  0.2759
39622SOL     OW20872   9.934   5.530   7.840 -0.0665  0.1130  0.2264
39622SOL    HW120873  10.029   5.541   7.849  0.1094 -1.4184  0.6307
39622SOL    HW220874   9.896   5.590   7.905  0.5778  1.3003 -0.4649
39623SOL     OW20875   2.647   9.285   7.555 -0.0025  0.1674  0.0911
39623SOL    HW120876   2.557   9.294   7.586 -0.3115  0.0754 -0.7564
39623SOL    HW220877   2.698   9.270   7.634 -1.1009 -2.5457  0.4166
39624SOL     OW20878   4.769   1.736   4.553  0.3375 -0.0730  0.3615
39624SOL    HW120879   4.786   1.718   4.460 -0.3575 -1.4640  0.4670
39624SOL    HW220880   4.730   1.824   4.553 -0.3069 -0.3237 -0.7654
39625SOL     OW20881   1.696   5.771   6.375  0.3143  0.1547  0.3368
39625SOL    HW120882   1.622   5.755   6.432  0.1327  0.6920  0.2586
39625SOL    HW220883   1.663   5.832   6.308  0.6090 -0.2080 -0.1496
39626SOL     OW20884   2.348   4.183  10.521 -0.2932  0.4382 -0.9977
39626SOL    HW120885   2.379   4.266  10.484 -1.1633  1.7964  1.0883
39626SOL    HW220886   2.254   4.196  10.533 -0.0378  0.3472  2.0097
39627SOL     OW20887   7.575   8.839   9.941 -0.8688 -0.2017 -0.1523
39627SOL    HW120888   7.556   8.750   9.973 -1.1779 -0.2527 -0.4675
39627SOL    HW220889   7.670   8.847   9.949 -1.0673  0.5311  2.7117
39628SOL     OW20890   5.632   8.072   4.333  0.4726 -0.3132 -0.0755
39628SOL    HW120891   5.624   8.107   4.245  4.2464 -0.5661 -0.7029
39628SOL    HW220892   5.571   8.124   4.386 -1.4158  0.2646 -2.6687
39629SOL     OW20893   3.867   0.596   0.407  0.5150 -0.0336  0.4610
39629SOL    HW120894   3.954   0.576   0.442 -0.0114 -1.1721  1.1654
39629SOL    HW220895   3.829   0.656   0.471  0.2212 -0.7239  0.9424
39630SOL     OW20896   7.768  10.014   9.988 -0.2007 -0.5195  1.1508
39630SOL    HW120897   7.734  10.003  10.077  2.0126  1.6316  2.3780
39630SOL    HW220898   7.771  10.109   9.974  1.1151 -0.7466 -0.5303
39631SOL     OW20899   6.380   4.126  10.686  0.3594  0.0254  0.1097
39631SOL    HW120900   6.292   4.162  10.690  0.7140  0.9777 -0.2759
39631SOL    HW220901   6.368   4.036  10.658 -0.4722  0.2508 -0.2854
39632SOL     OW20902   0.304   9.395   4.820 -0.3883 -0.1488 -0.0217
39632SOL    HW120903   0.362   9.410   4.744 -0.9289 -1.2459 -0.6675
39632SOL    HW220904   0.359   9.349   4.883  0.1963  1.1592  0.4651
39633SOL     OW20905   6.659   5.685   3.448 -0.3331 -0.2743 -0.2523
39633SOL    HW120906   6.741   5.724   3.478 -1.1930  0.7169  0.8796
39633SOL    HW220907   6.685   5.602   3.409  1.3021  0.4172 -0.7169
39634SOL     OW20908  10.315   7.725   3.415 -0.3502 -0.1056  0.7654
39634SOL    HW120909  10.355   7.763   3.336 -2.0487 -1.4709 -0.8622
39634SOL    HW220910  10.389   7.708   3.473  1.1750 -0.3563 -1.1303
39635SOL     OW20911   4.349   6.853   5.866 -0.0371  0.6180 -0.1459
39635SOL    HW120912   4.417   6.918   5.884  0.4027  0.1823 -0.2015
39635SOL    HW220913   4.282   6.869   5.933 -0.4493  1.8336 -0.8373
39636SOL     OW20914   7.506   7.544   5.275 -0.0413 -0.1640 -0.2166
39636SOL    HW120915   7.586   7.588   5.246 -0.4184 -0.0670 -1.1380
39636SOL    HW220916   7.508   7.552   5.370  2.2616 -2.2990  0.0049
39637SOL     OW20917   0.145   9.336   3.347 -0.4399  0.2663  0.1057
39637SOL    HW120918   0.238   9.351   3.365 -0.3326 -0.1362 -0.1084
39637SOL    HW220919   0.126   9.393   3.273 -0.6647  1.2599  0.9051
39638SOL     OW20920   9.898   0.110   2.819 -0.5844 -0.3839 -0.2085
39638SOL    HW120921   9.940   0.046   2.876 -1.2140  0.5037  1.3227
39638SOL    HW220922   9.971   0.155   2.776 -0.0085 -0.0012  1.1174
39639SOL     OW20923   3.028   3.290   9.669  0.3511 -0.6589 -0.6801
39639SOL    HW120924   2.981   3.373   9.674 -0.9545 -1.3482 -1.0516
39639SOL    HW220925   3.108   3.305   9.718 -0.1400  0.6390 -0.2297
39640SOL     OW20926   2.057   6.964  10.365 -0.1416  0.6161  0.1365
39640SOL    HW120927   2.051   7.047  10.412  1.2643 -0.6053  2.6606
39640SOL    HW220928   2.005   6.903  10.417  0.4807 -0.5327 -0.5541
39641SOL     OW20929   5.514   3.848   9.992  0.2377 -0.4788  0.2108
39641SOL    HW120930   5.522   3.797   9.912 -0.2148 -0.6866  0.2953
39641SOL    HW220931   5.524   3.939   9.964 -0.9109 -0.4734 -0.2369
39642SOL     OW20932   2.478   8.771   0.469  0.2657  0.8102 -0.4117
39642SOL    HW120933   2.391   8.806   0.449  1.2722  2.6826 -1.8999
39642SOL    HW220934   2.526   8.779   0.386  1.4001 -1.7492 -0.0986
39643SOL     OW20935   4.082   0.176   4.115  0.4937 -0.5095 -0.1008
39643SOL    HW120936   4.168   0.137   4.100 -0.0862 -2.3623  1.0870
39643SOL    HW220937   4.040   0.177   4.030  1.6120  0.2641 -0.6675
39644SOL     OW20938   9.703   2.258   8.293 -0.2375  0.3383 -0.1323
39644SOL    HW120939   9.681   2.171   8.326 -0.1892  0.1735 -0.5217
39644SOL    HW220940   9.721   2.310   8.371 -0.3928  0.0326  0.1104
39645SOL     OW20941   0.678   1.787   5.370 -0.1080  0.4813  0.4333
39645SOL    HW120942   0.737   1.716   5.344 -0.4466 -0.4336  2.0412
39645SOL    HW220943   0.598   1.743   5.398 -1.1627  1.6554 -0.6367
39646SOL     OW20944   3.270   1.048   0.407 -0.0536 -0.0763  0.4702
39646SOL    HW120945   3.243   1.046   0.499  0.6644 -3.4984  0.7475
39646SOL    HW220946   3.365   1.041   0.410  0.1683  1.9098 -0.5853
39647SOL     OW20947   0.128   3.344  10.843  0.1467  0.1214  0.1126
39647SOL    HW120948   0.136   3.340  10.748  2.0116 -2.0082  0.2587
39647SOL    HW220949   0.035   3.358  10.859 -0.0208  2.0107 -1.9981
39648SOL     OW20950   7.780   6.621   6.537  0.2987  0.0808  0.8276
39648SOL    HW120951   7.841   6.564   6.489  2.4539  2.1661  0.8813
39648SOL    HW220952   7.820   6.632   6.623 -2.2722 -1.6257  2.3725
39649SOL     OW20953   1.157   9.070   8.002  0.2652 -0.4083 -0.0324
39649SOL    HW120954   1.116   9.071   7.916 -0.3523  3.2075  0.1508
39649SOL    HW220955   1.238   9.118   7.990  0.5729 -0.5679  1.2654
39650SOL     OW20956   9.793   2.049   3.799 -0.0529 -0.6093 -0.2597
39650SOL    HW120957   9.802   2.008   3.885  2.1851  0.1704 -0.0454
39650SOL    HW220958   9.731   2.120   3.813 -0.3454 -1.0051  0.5152
39651SOL     OW20959   8.821   2.001   6.190 -0.0012 -0.2329 -0.3932
39651SOL    HW120960   8.745   1.944   6.199 -0.0857 -0.3421 -1.5908
39651SOL    HW220961   8.894   1.951   6.226 -0.1393 -0.9637 -1.1132
39652SOL     OW20962   1.154   0.059   5.457 -0.0682 -0.7924  0.7634
39652SOL    HW120963   1.059   0.053   5.464 -0.1717 -0.7883 -0.4226
39652SOL    HW220964   1.180  -0.021   5.411  0.3390 -0.1180 -0.2102
39653SOL     OW20965   8.884   5.101   0.750 -0.1875 -0.1006  0.4119
39653SOL    HW120966   8.839   5.067   0.828  0.5109 -1.4895  0.2506
39653SOL    HW220967   8.869   5.033   0.684  0.0254  0.6193 -0.3820
39654SOL     OW20968   0.666   8.412   5.165 -0.2316  0.4347  0.5248
39654SOL    HW120969   0.603   8.348   5.197 -0.2602  0.0486 -0.2764
39654SOL    HW220970   0.665   8.401   5.070  2.1503 -0.6002  0.5725
39655SOL     OW20971   9.959   9.051   2.872 -0.7420  0.0176  0.0907
39655SOL    HW120972  10.004   9.047   2.788  0.1702 -0.3294  0.5743
39655SOL    HW220973   9.896   8.979   2.870 -1.8625  0.9787 -0.8967
39656SOL     OW20974   1.209   0.084  10.458 -0.2958  0.1247 -0.7239
39656SOL    HW120975   1.266   0.108  10.531 -0.9571 -0.6585  0.0781
39656SOL    HW220976   1.243   0.133  10.384  0.1623  1.2495  0.1950
39657SOL     OW20977  10.158   3.132   8.197 -0.4452 -0.1468  0.4836
39657SOL    HW120978  10.245   3.147   8.160 -0.1171 -0.6759  1.0204
39657SOL    HW220979  10.100   3.129   8.122  0.0183  0.1007  0.1101
39658SOL     OW20980   2.113   2.928   2.973 -0.3723 -0.2173 -0.3480
39658SOL    HW120981   2.051   2.994   3.003 -2.9548 -2.3562 -0.5862
39658SOL    HW220982   2.106   2.929   2.877 -0.0257 -0.4788 -0.3814
39659SOL     OW20983   4.902   7.569   4.724  0.3141 -0.0567 -0.1404
39659SOL    HW120984   4.868   7.596   4.810 -0.1031  0.4741 -0.4685
39659SOL    HW220985   4.833   7.594   4.662  1.7040  1.9839 -0.9676
39660SOL     OW20986   0.421   3.320   0.271 -0.3647 -0.0021  0.7270
39660SOL    HW120987   0.391   3.231   0.252 -0.4659 -0.0869  1.2803
39660SOL    HW220988   0.503   3.308   0.320 -0.7414  0.1911  1.4193
39661SOL     OW20989   5.696   7.141   5.517 -0.0821 -1.0517  0.2125
39661SOL    HW120990   5.724   7.186   5.437 -1.5938 -0.8938 -0.2620
39661SOL    HW220991   5.659   7.058   5.487 -0.3675 -1.1324  0.7682
39662SOL     OW20992   0.884   3.813   5.062  0.2130  0.6577  0.5665
39662SOL    HW120993   0.967   3.766   5.065 -0.0292 -0.2747 -2.7512
39662SOL    HW220994   0.905   3.902   5.090  2.3888  0.4857 -0.3546
39663SOL     OW20995   1.377   6.436   0.749 -0.1058  0.2859  0.2102
39663SOL    HW120996   1.338   6.456   0.834 -2.3957  1.0852 -0.9634
39663SOL    HW220997   1.349   6.346   0.731  0.9122 -0.1157  0.5431
39664SOL     OW20998   4.221   8.453   4.585  0.2852  0.0461 -0.2112
39664SOL    HW120999   4.244   8.468   4.677 -6.3083 -0.1344  2.0165
39664SOL    HW221000   4.131   8.486   4.578 -0.0157 -0.9939 -6.4179
39665SOL     OW21001   6.948   3.645   4.379 -0.1890 -0.6887 -0.1145
39665SOL    HW121002   6.930   3.613   4.467  0.4625 -0.9410 -0.0713
39665SOL    HW221003   6.921   3.572   4.322 -1.2742 -0.2608 -0.1755
39666SOL     OW21004   2.776  10.505   7.721  0.0740  0.0310 -0.1317
39666SOL    HW121005   2.813  10.439   7.662 -0.5955 -1.1569  0.7316
39666SOL    HW221006   2.700  10.462   7.760 -0.1320  1.1750  0.7783
39667SOL     OW21007   1.959   6.286   7.247  0.0419 -0.1257 -0.8377
39667SOL    HW121008   1.890   6.320   7.191  0.5941 -1.1615 -2.2207
39667SOL    HW221009   1.967   6.194   7.221  0.6627 -0.5091  0.6144
39668SOL     OW21010   0.697   7.288   7.724  0.0560 -0.5007  0.0583
39668SOL    HW121011   0.662   7.375   7.743 -1.0437 -0.7825 -0.5646
39668SOL    HW221012   0.754   7.268   7.798 -0.6319  0.2505  0.8176
39669SOL     OW21013   7.916  10.964   8.452  0.2485  0.1512 -0.0034
39669SOL    HW121014   7.863  10.884   8.453  2.8474 -1.7420 -1.7479
39669SOL    HW221015   7.865  11.025   8.398 -1.2288 -0.7459  0.3247
39670SOL     OW21016   2.115   8.285   3.312  0.1418  0.1175 -0.0889
39670SOL    HW121017   2.149   8.217   3.370  1.6027 -0.9248 -2.0505
39670SOL    HW221018   2.111   8.364   3.366 -0.8816 -1.3155  2.0420
39671SOL     OW21019   8.075   9.774   7.525  0.1721 -0.3050 -0.0491
39671SOL    HW121020   8.026   9.695   7.546  0.7297 -0.4828  0.6192
39671SOL    HW221021   8.140   9.782   7.595 -0.8919  1.6119  0.7959
39672SOL     OW21022   9.419   6.179   9.494  0.1336 -0.1096 -0.3723
39672SOL    HW121023   9.355   6.230   9.544  0.0338  1.1588 -1.7146
39672SOL    HW221024   9.387   6.183   9.403  2.0432  0.5098 -1.0684
39673SOL     OW21025   2.528   3.360   0.865  0.0126 -0.3518 -0.5013
39673SOL    HW121026   2.571   3.373   0.950 -1.4665 -1.0283  0.4009
39673SOL    HW221027   2.528   3.447   0.825  1.8829 -0.2651 -0.4198
39674SOL     OW21028   4.971   1.688   7.270  0.0724 -0.5305 -0.0045
39674SOL    HW121029   5.032   1.709   7.199 -1.1967 -1.0200 -1.2839
39674SOL    HW221030   4.899   1.750   7.260  0.5280  0.3664  1.7965
39675SOL     OW21031   5.238   4.935   6.687  0.6967 -0.5290  0.0366
39675SOL    HW121032   5.223   4.917   6.594 -0.7301 -1.4070  0.4022
39675SOL    HW221033   5.231   5.030   6.694 -2.0002 -0.6073 -0.3741
39676SOL     OW21034   8.480   3.191  10.730 -0.4965  0.2602  0.1642
39676SOL    HW121035   8.544   3.232  10.671 -2.2400  1.1597 -1.1877
39676SOL    HW221036   8.492   3.238  10.813  0.9073  0.0722  0.0991
39677SOL     OW21037   7.400   8.185   1.350  0.9281 -0.8033 -1.0071
39677SOL    HW121038   7.463   8.227   1.408  0.8054 -1.6871 -0.2278
39677SOL    HW221039   7.437   8.197   1.262  0.9445  0.8399 -0.8170
39678SOL     OW21040   9.965   8.680   7.727  0.3101 -0.0509  0.1312
39678SOL    HW121041   9.912   8.752   7.693  0.6002 -0.4265 -1.2092
39678SOL    HW221042   9.992   8.631   7.648  2.4634  0.0200  0.7530
39679SOL     OW21043   5.488  10.676   1.052  0.1213  0.2101 -0.1521
39679SOL    HW121044   5.526  10.595   1.017  1.7951  0.9926 -0.2701
39679SOL    HW221045   5.524  10.745   0.997 -0.5149  1.1202  0.5437
39680SOL     OW21046   7.998   6.702   6.138  0.4058 -0.2375 -0.0694
39680SOL    HW121047   7.913   6.670   6.109  0.5404  0.7018 -1.6153
39680SOL    HW221048   7.979   6.755   6.215 -0.1254 -1.7902  0.9047
39681SOL     OW21049   7.761   0.079   8.304  0.3569  0.9092 -0.4058
39681SOL    HW121050   7.728   0.089   8.215  1.3076 -0.0937 -0.8965
39681SOL    HW221051   7.804   0.163   8.323 -2.4766  2.3112  0.3178
39682SOL     OW21052   3.201   3.615   5.854 -0.2396  0.1705 -0.4840
39682SOL    HW121053   3.234   3.543   5.802 -0.9827 -0.5725  0.0508
39682SOL    HW221054   3.279   3.652   5.897  0.2320  0.1401 -1.3025
39683SOL     OW21055   7.627   6.325   6.570  0.0091  0.2635 -0.1212
39683SOL    HW121056   7.648   6.318   6.663  0.3871  0.0691 -0.2176
39683SOL    HW221057   7.712   6.316   6.526 -0.1120  0.7943 -0.4653
39684SOL     OW21058   7.797  10.964   3.701  0.1755 -0.6639 -0.4774
39684SOL    HW121059   7.722  10.984   3.646  1.1779  1.1987 -1.2711
39684SOL    HW221060   7.768  10.891   3.756 -2.2009  0.0292 -0.7007
39685SOL     OW21061   2.635   5.780   5.810  0.1843  0.1414  0.4253
39685SOL    HW121062   2.720   5.823   5.801  1.0871 -1.5141  0.7239
39685SOL    HW221063   2.605   5.805   5.897 -0.1226  1.5238 -0.0495
39686SOL     OW21064   5.730   7.025  10.510  0.5116  0.5207  1.1097
39686SOL    HW121065   5.791   7.045  10.439  1.5246 -0.1358  1.7664
39686SOL    HW221066   5.693   6.939  10.487 -0.0446  0.8353  0.8041
39687SOL     OW21067   6.395  10.910   8.678  0.0009  0.0898 -0.1661
39687SOL    HW121068   6.455  10.846   8.716  0.0374  1.1264  1.6170
39687SOL    HW221069   6.309  10.868   8.682  0.1742 -0.2530  0.0079
39688SOL     OW21070   7.782   0.483   8.750 -0.2109 -0.1055  0.1446
39688SOL    HW121071   7.844   0.411   8.744 -2.2714 -1.8696 -1.2889
39688SOL    HW221072   7.712   0.450   8.807 -1.6993  0.3338 -1.3641
39689SOL     OW21073   3.487  10.722   0.034  0.3441  0.1677 -0.0694
39689SOL    HW121074   3.425  10.762  -0.027 -0.3757 -0.0070  0.5432
39689SOL    HW221075   3.540  10.795   0.066 -0.6245  0.5760  0.6519
39690SOL     OW21076   9.940   8.979   4.251 -0.2786  0.0231 -0.2513
39690SOL    HW121077  10.009   8.914   4.236 -0.2791  0.4781 -2.4577
39690SOL    HW221078   9.861   8.928   4.265  0.2242 -0.4751  0.9174
39691SOL     OW21079   1.171   0.542   4.084 -0.1178  0.5313 -0.1012
39691SOL    HW121080   1.149   0.634   4.102 -2.9076 -0.0481 -0.0626
39691SOL    HW221081   1.206   0.542   3.995 -0.2421  1.6160 -0.1598
39692SOL     OW21082   2.786   5.906   0.277 -0.6478 -0.1722  0.5695
39692SOL    HW121083   2.775   5.818   0.241  1.5337 -1.1970  2.1654
39692SOL    HW221084   2.723   5.910   0.349  1.0860 -1.5657  2.2704
39693SOL     OW21085   3.929   1.257   6.071  0.0055 -0.1320 -0.6361
39693SOL    HW121086   3.936   1.217   5.985 -0.5278  0.1909 -0.8331
39693SOL    HW221087   3.964   1.191   6.131 -1.0293 -0.9648 -0.9290
39694SOL     OW21088   7.526   7.130   3.784  0.1757  0.1426  0.0995
39694SOL    HW121089   7.555   7.195   3.848  0.1719  0.4111 -0.1692
39694SOL    HW221090   7.540   7.046   3.828  2.1128  0.2116 -0.3144
39695SOL     OW21091  10.604   3.249   5.312  0.5039 -0.3985  0.4117
39695SOL    HW121092  10.589   3.204   5.229  1.1254 -2.3778  1.2884
39695SOL    HW221093  10.528   3.305   5.324  0.6768  0.3648 -1.7400
39696SOL     OW21094   2.932   7.382   3.708  0.1965 -0.0853  0.1253
39696SOL    HW121095   2.972   7.441   3.772  0.0067 -0.8055  0.9301
39696SOL    HW221096   2.884   7.440   3.649  1.3380  0.6856 -0.0778
39697SOL     OW21097  10.154   9.789   2.843 -0.6143 -0.1615  0.7378
39697SOL    HW121098  10.204   9.811   2.921 -0.9417  3.0034  0.1541
39697SOL    HW221099  10.062   9.795   2.870 -0.7240 -0.0667  0.3504
39698SOL     OW21100   1.983   6.000  10.687 -0.3088  0.2605  0.3183
39698SOL    HW121101   1.972   6.054  10.765 -1.4478 -0.1374  0.4425
39698SOL    HW221102   2.071   5.963  10.696  0.2202  1.5363  0.5705
39699SOL     OW21103   1.467   4.099   4.296 -0.2460  0.1403  0.2694
39699SOL    HW121104   1.481   4.176   4.352 -1.5542 -0.1838  1.0941
39699SOL    HW221105   1.389   4.121   4.244 -0.6377 -0.6141  0.5180
39700SOL     OW21106   4.439   0.093   5.664 -0.1496 -0.0787  0.1036
39700SOL    HW121107   4.358   0.143   5.659  0.4375  0.7959 -2.4975
39700SOL    HW221108   4.498   0.137   5.603  1.9415 -1.3116  1.1102
39701SOL     OW21109   4.132   4.395   9.387 -0.0561 -0.2618  0.2782
39701SOL    HW121110   4.066   4.414   9.453  0.4147  0.5895  0.5337
39701SOL    HW221111   4.084   4.357   9.314 -0.6218 -0.9492  1.0020
39702SOL     OW21112   4.088  11.036   4.331  0.3474  0.2587  0.1020
39702SOL    HW121113   4.104  11.092   4.255  1.5868 -1.1735 -0.7395
39702SOL    HW221114   4.117  10.949   4.303  1.9591 -0.0965  2.6062
39703SOL     OW21115   4.532   4.097   6.443 -0.2489  0.1546 -0.1935
39703SOL    HW121116   4.478   4.152   6.500 -0.9482  1.2340 -1.8460
39703SOL    HW221117   4.616   4.090   6.489 -1.5190 -1.0301  2.1148
39704SOL     OW21118  10.033   2.740   0.014  0.4475 -0.0830  0.0954
39704SOL    HW121119  10.068   2.761  -0.073 -1.3437  0.3430 -0.5590
39704SOL    HW221120   9.968   2.809   0.031 -1.8519 -2.1439  0.1761
39705SOL     OW21121   6.543   6.338  10.074 -0.6501  0.1693  0.1746
39705SOL    HW121122   6.487   6.386  10.135  0.0839  2.3282 -0.7634
39705SOL    HW221123   6.482   6.291  10.017 -1.3533 -1.3757  2.0894
39706SOL     OW21124   1.489   0.342   1.138 -0.1488  0.7670 -0.0630
39706SOL    HW121125   1.573   0.383   1.157 -0.5801  1.4496  0.4691
39706SOL    HW221126   1.461   0.305   1.222 -0.5142  0.8105 -0.1640
39707SOL     OW21127  10.620   0.780   7.360 -0.2129  0.1427 -0.3335
39707SOL    HW121128  10.624   0.685   7.353 -0.3586  0.0947  0.1481
39707SOL    HW221129  10.558   0.807   7.292 -1.0902 -0.2262  0.2949
39708SOL     OW21130   1.525   9.053   8.370 -0.7322 -0.0169 -0.2673
39708SOL    HW121131   1.485   8.989   8.312 -0.5381  0.8791 -1.4181
39708SOL    HW221132   1.538   9.131   8.316 -0.7791  0.9386  1.0326
39709SOL     OW21133   8.908   7.299   1.718  0.3013  0.2332  0.3206
39709SOL    HW121134   8.920   7.317   1.625 -0.9154 -0.6381 -0.0318
39709SOL    HW221135   8.860   7.376   1.751  0.9565  0.6597  0.3019
39710SOL     OW21136   8.402  10.849   8.152 -0.6296 -0.0689 -0.0935
39710SOL    HW121137   8.308  10.842   8.164 -0.5444 -1.6394 -0.1997
39710SOL    HW221138   8.427  10.769   8.107  0.5941  0.8751 -1.1854
39711SOL     OW21139   1.824   2.347   9.944 -0.2315  0.8330  0.1966
39711SOL    HW121140   1.779   2.262   9.946 -1.6714  1.5812  0.6618
39711SOL    HW221141   1.817   2.380  10.033  2.0414  0.5998  0.5025
39712SOL     OW21142   6.975  10.268   8.881  0.0820  0.4261 -0.7270
39712SOL    HW121143   6.913  10.215   8.831  0.3214 -0.6038  0.0290
39712SOL    HW221144   7.061  10.232   8.858  0.4085  1.7495 -1.6583
39713SOL     OW21145   0.425   8.603   6.895  0.0658 -0.0090 -0.1636
39713SOL    HW121146   0.330   8.595   6.902  0.1528  0.6820  3.4396
39713SOL    HW221147   0.439   8.687   6.851 -1.0528  1.1154  1.5323
39714SOL     OW21148   1.963   1.835   3.208 -0.3005 -0.4662  0.0860
39714SOL    HW121149   2.004   1.902   3.262 -0.0488 -0.5714  0.0291
39714SOL    HW221150   1.876   1.824   3.245 -0.5299  0.2495 -0.2105
39715SOL     OW21151   0.414   6.855   6.593  0.1111  0.3300  0.0805
39715SOL    HW121152   0.329   6.899   6.587  0.0541  0.2710  0.4459
39715SOL    HW221153   0.477   6.922   6.564 -0.0568  0.3738 -0.1878
39716SOL     OW21154   3.299   8.876   0.125  0.7047 -0.6935 -0.1067
39716SOL    HW121155   3.229   8.850   0.065 -0.2093  1.7111 -0.1655
39716SOL    HW221156   3.379   8.858   0.076 -0.0015  1.9401 -2.5230
39717SOL     OW21157  10.987   0.179  10.240 -0.0384  0.5356  0.5563
39717SOL    HW121158  11.034   0.225  10.171 -0.4048 -0.2874 -0.2712
39717SOL    HW221159  11.009   0.087  10.227 -1.3254  0.2064  0.5724
39718SOL     OW21160   9.420   1.111   0.767 -0.5399  0.8626 -0.3718
39718SOL    HW121161   9.386   1.023   0.753 -0.8269  0.6147  1.6399
39718SOL    HW221162   9.364   1.148   0.835  1.4930  1.4544  1.0494
39719SOL     OW21163   9.470  10.349  10.530 -0.0927  0.0644 -0.7945
39719SOL    HW121164   9.468  10.351  10.626  1.8712 -0.8180 -0.6942
39719SOL    HW221165   9.383  10.380  10.504 -0.8783 -0.2475  1.2631
39720SOL     OW21166   7.026   5.684   9.883 -0.1352  0.5953  0.3045
39720SOL    HW121167   7.050   5.591   9.882  0.3066  0.7050  0.1053
39720SOL    HW221168   7.001   5.702   9.793  2.4945  1.3240 -0.3815
39721SOL     OW21169   2.472   6.204   1.093 -0.1549  0.1662 -0.0720
39721SOL    HW121170   2.520   6.285   1.112 -1.1938  1.3870 -2.1366
39721SOL    HW221171   2.501   6.142   1.159 -0.4647  2.6630  2.6342
39722SOL     OW21172   8.017   8.412   2.550  0.4517 -0.1176 -0.3793
39722SOL    HW121173   7.983   8.498   2.573  1.1445  0.1839 -0.4679
39722SOL    HW221174   8.039   8.419   2.457 -1.6719 -1.1131 -1.0176
39723SOL     OW21175   1.303   4.281   9.786 -0.2683 -0.0675  0.7959
39723SOL    HW121176   1.219   4.327   9.783 -1.5444 -2.2666  0.3588
39723SOL    HW221177   1.322   4.260   9.694  0.2079 -0.5311  0.9954
39724SOL     OW21178  10.042   2.076   6.060  0.1725  0.3141  0.1572
39724SOL    HW121179   9.950   2.093   6.076 -0.2514 -0.5771 -1.1715
39724SOL    HW221180  10.081   2.070   6.147 -1.6336 -2.4967  0.8798
39725SOL     OW21181   7.260   7.759   5.285 -0.2432 -0.0598 -0.3616
39725SOL    HW121182   7.299   7.673   5.296  0.3904  0.3410  0.6350
39725SOL    HW221183   7.184   7.759   5.343  0.3399  0.3958  0.4133
39726SOL     OW21184   2.403   9.504   8.362 -0.1393 -0.4219 -0.2897
39726SOL    HW121185   2.313   9.480   8.385 -0.5069  1.3624  0.3452
39726SOL    HW221186   2.446   9.519   8.447 -0.3775  2.4036 -0.5521
39727SOL     OW21187   1.781   6.326   6.785 -0.3452 -0.4473 -0.3899
39727SOL    HW121188   1.772   6.300   6.693  1.3794 -1.6332 -0.2808
39727SOL    HW221189   1.874   6.348   6.795 -0.9277  1.8410  0.5691
39728SOL     OW21190   3.950   4.265   9.222 -0.4223  0.1359 -0.2900
39728SOL    HW121191   3.860   4.277   9.253 -0.2101 -0.7267  0.7028
39728SOL    HW221192   3.959   4.171   9.207  0.0905  0.3020 -1.1437
39729SOL     OW21193   6.409   5.555   9.512 -0.0826 -0.3527  0.2421
39729SOL    HW121194   6.377   5.478   9.559  0.5713 -0.8597 -0.1356
39729SOL    HW221195   6.329   5.600   9.483 -0.4688 -0.7658  0.6605
39730SOL     OW21196   7.118   1.454   8.659  0.4666  0.3145 -0.0121
39730SOL    HW121197   7.061   1.392   8.704  0.0742  1.1807  0.7106
39730SOL    HW221198   7.169   1.495   8.729 -2.6515  4.3213  0.2721
39731SOL     OW21199   0.693   6.727   4.185  0.0943  0.3769 -0.1277
39731SOL    HW121200   0.658   6.725   4.274 -2.5832 -0.2008 -1.1063
39731SOL    HW221201   0.759   6.797   4.187  0.0226  0.4621  2.2534
39732SOL     OW21202  10.987   3.736   5.428  0.2078  0.3190  0.1341
39732SOL    HW121203  10.979   3.775   5.515 -0.1408  1.9577 -0.6027
39732SOL    HW221204  10.929   3.660   5.431 -0.0768  0.5589  1.2169
39733SOL     OW21205   6.333  10.366   6.396  0.1417 -0.0183  0.0648
39733SOL    HW121206   6.328  10.429   6.468  0.7168  0.5029 -0.3455
39733SOL    HW221207   6.426  10.360   6.376  0.0477 -0.6949 -0.1743
39734SOL     OW21208   4.361   6.410   4.897 -0.5656  0.1687 -0.5412
39734SOL    HW121209   4.362   6.364   4.981  1.0475  0.6502 -0.2689
39734SOL    HW221210   4.408   6.492   4.914  1.5911 -0.5930 -2.3497
39735SOL     OW21211   8.001  10.121   7.612 -0.1673 -0.0899  0.1953
39735SOL    HW121212   8.030  10.047   7.666 -0.8108  0.3386  1.1484
39735SOL    HW221213   8.030  10.098   7.524  1.2452 -0.6261  0.7687
39736SOL     OW21214   3.850   0.520  10.611 -0.2022  0.0547  0.3181
39736SOL    HW121215   3.879   0.575  10.538 -0.1416 -1.0796 -0.5323
39736SOL    HW221216   3.775   0.568  10.648 -1.0645  0.0341 -1.3127
39737SOL     OW21217   5.130   7.929   4.669 -0.0818  0.3815  0.4269
39737SOL    HW121218   5.146   7.854   4.727  0.3097 -0.1262 -0.3265
39737SOL    HW221219   5.155   8.005   4.721  0.3110 -0.0697  0.9086
39738SOL     OW21220   6.034   6.720   1.464 -0.0575 -0.2490 -0.0494
39738SOL    HW121221   6.061   6.802   1.505 -1.8283  0.1284  0.4419
39738SOL    HW221222   6.091   6.711   1.388 -1.1569  2.5356 -1.3237
39739SOL     OW21223   9.867   7.848   5.743 -0.1946  0.5626  0.3227
39739SOL    HW121224   9.791   7.893   5.705 -0.2762 -0.1165 -0.3454
39739SOL    HW221225   9.878   7.770   5.688  0.7739  0.4753  0.6300
39740SOL     OW21226   1.797   8.514   0.142 -0.0560  0.4965  0.4227
39740SOL    HW121227   1.726   8.462   0.103  0.1132  0.8849 -0.4194
39740SOL    HW221228   1.770   8.526   0.233 -1.7360  1.7377 -0.1901
39741SOL     OW21229   4.324   8.378  10.351  0.0693 -0.1909 -0.2417
39741SOL    HW121230   4.307   8.374  10.257 -0.4938 -0.6624 -0.1292
39741SOL    HW221231   4.407   8.424  10.359 -0.3183  0.6553 -0.9252
39742SOL     OW21232  10.638   4.070   5.940  0.3882 -1.1061  0.5415
39742SOL    HW121233  10.732   4.059   5.928  0.8888  3.2349 -1.5115
39742SOL    HW221234  10.630   4.130   6.014 -0.7416 -0.9885  0.3467
39743SOL     OW21235  10.054   7.085   3.721  0.5035  0.0197 -0.0099
39743SOL    HW121236   9.997   7.161   3.704 -1.2227 -1.4222 -1.0538
39743SOL    HW221237  10.099   7.070   3.637  0.6436 -0.2729  0.1184
39744SOL     OW21238   5.545   3.716   1.034  0.0533 -0.5392  0.8191
39744SOL    HW121239   5.538   3.723   0.938 -0.1755  0.4060  0.8993
39744SOL    HW221240   5.455   3.710   1.064  0.0767  0.1190  1.0364
39745SOL     OW21241   3.296   6.566   9.305  0.2120 -0.2411  0.2516
39745SOL    HW121242   3.290   6.483   9.352  1.4573 -0.2531  0.4259
39745SOL    HW221243   3.344   6.624   9.365 -1.7806  1.0629  0.7121
39746SOL     OW21244   5.032   5.384   5.701  0.4129 -0.0175 -0.0221
39746SOL    HW121245   5.100   5.341   5.648 -0.1643  1.2229 -1.8877
39746SOL    HW221246   4.951   5.340   5.676  0.1272  0.6156 -0.2357
39747SOL     OW21247   5.941   3.150   3.200  0.0236 -0.3880  0.9139
39747SOL    HW121248   5.896   3.181   3.279 -1.0129  0.9524 -0.1558
39747SOL    HW221249   5.925   3.056   3.199 -1.6511 -0.1467  1.2820
39748SOL     OW21250   4.839   6.737   1.767 -0.5580 -0.5274  0.0297
39748SOL    HW121251   4.754   6.692   1.764 -1.1697  0.6420 -1.7205
39748SOL    HW221252   4.898   6.678   1.721 -0.6112 -0.9334  0.4652
39749SOL     OW21253  10.342   5.887  10.643  0.1291  0.0043  0.7984
39749SOL    HW121254  10.345   5.901  10.738 -0.0981  2.7894  0.4886
39749SOL    HW221255  10.291   5.961  10.610  1.1381 -0.2835 -1.5975
39750SOL     OW21256   6.240   6.634   3.066 -0.1814  0.2233  0.4629
39750SOL    HW121257   6.263   6.561   3.122 -0.6819 -0.3597 -0.0735
39750SOL    HW221258   6.153   6.660   3.095 -2.2959 -2.6782 -2.5089
39751SOL     OW21259   0.625  10.721   2.463  0.5025  0.5623  0.4154
39751SOL    HW121260   0.650  10.642   2.414  1.3922  0.6314  0.7480
39751SOL    HW221261   0.539  10.699   2.501  1.0994 -0.5667  1.1769
39752SOL     OW21262  10.585   3.295   1.794  0.7165  0.3079  0.0201
39752SOL    HW121263  10.507   3.331   1.752  1.4868 -1.0701 -2.7935
39752SOL    HW221264  10.550   3.237   1.862 -0.6228  1.3666  0.2944
39753SOL     OW21265   0.836   0.747   7.562 -0.2078  0.8324  0.0797
39753SOL    HW121266   0.775   0.808   7.605  0.9723  1.1045  1.4672
39753SOL    HW221267   0.828   0.666   7.612  0.0271  0.6356 -0.2013
39754SOL     OW21268   7.626   1.372   7.576 -0.5771  0.2000 -0.4801
39754SOL    HW121269   7.590   1.355   7.663  2.0982  2.2797  1.1951
39754SOL    HW221270   7.642   1.467   7.574  0.1838  0.1049 -2.9550
39755SOL     OW21271   1.062   3.113   2.171  0.2889  1.1873 -0.5653
39755SOL    HW121272   1.004   3.188   2.183 -1.7456 -0.2660 -0.7030
39755SOL    HW221273   1.009   3.037   2.196  2.1362 -0.2606 -0.7487
39756SOL     OW21274   6.407   1.746   6.865  0.6207 -0.1836 -0.1692
39756SOL    HW121275   6.457   1.828   6.867  1.6804 -0.7764 -0.8002
39756SOL    HW221276   6.332   1.765   6.808  0.0995  0.7269  0.7917
39757SOL     OW21277   8.262   7.454   1.593 -0.7167  0.2333  0.4307
39757SOL    HW121278   8.336   7.396   1.613  0.2601  1.5740  0.8032
39757SOL    HW221279   8.270   7.527   1.654 -1.2940  1.3091 -0.7208
39758SOL     OW21280  10.166   0.316   1.498  0.0985 -0.1462  0.3794
39758SOL    HW121281  10.077   0.296   1.525  0.0073 -0.3375 -0.0550
39758SOL    HW221282  10.163   0.409   1.473 -0.0134 -0.1917  0.2243
39759SOL     OW21283   6.514  10.570   7.030 -0.6233 -0.2711 -0.2495
39759SOL    HW121284   6.471  10.635   6.974  0.7318  0.2032 -0.7948
39759SOL    HW221285   6.597  10.551   6.985 -0.3925 -1.3885  0.5901
39760SOL     OW21286   4.419   3.205   7.559  0.2088 -0.5916 -0.0802
39760SOL    HW121287   4.372   3.232   7.638  0.8940 -0.0453  0.1494
39760SOL    HW221288   4.477   3.278   7.540  0.9737 -1.2600 -0.3540
39761SOL     OW21289   9.668   9.405   8.732 -0.7970 -0.8646 -0.0374
39761SOL    HW121290   9.613   9.333   8.764 -1.2729 -0.6461 -0.3653
39761SOL    HW221291   9.689   9.381   8.642  0.8341 -1.6547  0.5078
39762SOL     OW21292   5.768   6.211  10.702  0.2947  0.4264  0.0339
39762SOL    HW121293   5.698   6.153  10.734  0.6965  0.1157  0.3726
39762SOL    HW221294   5.723   6.273  10.644  0.0252 -0.9907 -1.3403
39763SOL     OW21295  10.154   7.833   0.279  0.2817 -0.1185  0.5568
39763SOL    HW121296  10.213   7.805   0.349 -1.1920 -0.0986  1.8601
39763SOL    HW221297  10.096   7.758   0.265  1.7806 -0.8965 -2.1033
39764SOL     OW21298   2.220   8.737   6.616 -0.2837 -0.1888 -0.1207
39764SOL    HW121299   2.263   8.819   6.590 -2.8271  0.6537 -2.0836
39764SOL    HW221300   2.139   8.765   6.658 -1.6360 -1.6274 -1.6219
39765SOL     OW21301   8.461   7.800   4.998  0.2348 -0.4554 -0.4147
39765SOL    HW121302   8.471   7.731   4.933 -1.0755  1.1967 -2.5249
39765SOL    HW221303   8.536   7.858   4.983 -1.1939  1.0859 -2.0834
39766SOL     OW21304   0.158   4.662   9.587 -0.8632  0.2815 -0.2378
39766SOL    HW121305   0.194   4.576   9.567  1.4810  0.8878  1.0037
39766SOL    HW221306   0.100   4.647   9.662  2.1168  0.1034  2.2484
39767SOL     OW21307   2.280   2.746   3.800  0.2232 -0.5392  0.2327
39767SOL    HW121308   2.199   2.788   3.831 -0.5836 -2.5141  1.0076
39767SOL    HW221309   2.343   2.761   3.870 -0.3529 -1.4001  0.9636
39768SOL     OW21310   0.791   2.875   4.334 -0.0289  0.0998 -0.5772
39768SOL    HW121311   0.841   2.953   4.358 -0.3668  0.3579 -0.7136
39768SOL    HW221312   0.751   2.897   4.250 -0.0612 -0.2496 -0.6556
39769SOL     OW21313   2.979  10.027   4.780 -0.2717 -0.2257 -0.4568
39769SOL    HW121314   2.916   9.955   4.782  0.2612 -0.6955  1.5165
39769SOL    HW221315   3.057   9.989   4.739 -0.0629 -0.7227  0.3852
39770SOL     OW21316   8.411   5.348   6.055 -0.1960  0.0643  0.4731
39770SOL    HW121317   8.320   5.330   6.031 -0.3897 -0.2641  1.3952
39770SOL    HW221318   8.421   5.309   6.142  1.6835 -2.6460 -0.8100
39771SOL     OW21319   4.724   2.216   1.321 -0.7975  0.4703  0.0798
39771SOL    HW121320   4.744   2.123   1.330 -2.0802  0.0400 -1.0401
39771SOL    HW221321   4.733   2.252   1.409  1.1016 -0.3960  0.2931
39772SOL     OW21322   2.920   3.898   4.551  0.0666 -0.2583  1.6064
39772SOL    HW121323   2.922   3.816   4.501  0.1976  0.6101  0.1038
39772SOL    HW221324   2.897   3.964   4.486  0.1083  0.9203  2.7570
39773SOL     OW21325   7.428  10.733   0.220 -0.0681 -0.0227 -0.4918
39773SOL    HW121326   7.412  10.827   0.232  0.5968  0.2992 -1.8501
39773SOL    HW221327   7.452  10.701   0.306 -0.1648  1.0918 -0.0362
39774SOL     OW21328   6.893   6.591   7.270  0.2279 -0.5590 -0.3603
39774SOL    HW121329   6.830   6.575   7.200 -1.3542  0.3777  0.7965
39774SOL    HW221330   6.923   6.503   7.295 -0.5792 -1.0245 -0.9590
39775SOL     OW21331   7.882   3.653   3.436 -0.0526 -0.6368  0.2078
39775SOL    HW121332   7.821   3.592   3.396 -0.6493 -1.5282  2.3104
39775SOL    HW221333   7.967   3.609   3.430 -0.2967 -1.1957  0.7155
39776SOL     OW21334  10.506   6.739   4.780 -0.3963 -0.4228 -0.1083
39776SOL    HW121335  10.497   6.647   4.755 -1.1790 -0.8770  1.6536
39776SOL    HW221336  10.497   6.738   4.875 -1.1222  1.5760 -0.1188
39777SOL     OW21337   4.477   4.053   0.951  0.4613 -0.3285  0.8353
39777SOL    HW121338   4.476   4.109   0.874  2.4473  0.6506  1.4646
39777SOL    HW221339   4.535   3.980   0.927  0.0528 -0.7101  0.9782
39778SOL     OW21340   8.984   1.779   2.856 -0.1012  0.2160  0.5059
39778SOL    HW121341   8.947   1.697   2.888 -1.9595  1.6488  2.2445
39778SOL    HW221342   8.937   1.797   2.775 -0.1754 -0.0781  0.4831
39779SOL     OW21343   3.889  10.781   9.752  0.3356  0.1556  0.1974
39779SOL    HW121344   3.815  10.739   9.708  0.6118 -1.0202  0.8169
39779SOL    HW221345   3.849  10.844   9.812 -0.0920  0.6557 -0.5938
39780SOL     OW21346   1.045   7.328   5.695  0.3879  0.1501 -0.0421
39780SOL    HW121347   1.000   7.301   5.775 -1.2627  1.7886 -0.3617
39780SOL    HW221348   1.054   7.248   5.644  0.6674 -0.7584  1.3653
39781SOL     OW21349   0.786   5.294   8.150  0.1931 -0.0538  0.0140
39781SOL    HW121350   0.738   5.301   8.068  1.9821 -0.9906 -1.1569
39781SOL    HW221351   0.785   5.201   8.171 -0.0868  0.1512  0.9759
39782SOL     OW21352   3.406   5.074   8.627 -0.2789 -0.0042 -0.2310
39782SOL    HW121353   3.429   5.058   8.718 -0.5466  0.6612 -0.0354
39782SOL    HW221354   3.360   4.995   8.599  0.1088 -0.3514  0.1063
39783SOL     OW21355   2.084   1.817  10.956 -0.4866  0.2195  0.1594
39783SOL    HW121356   1.990   1.805  10.969 -0.9561  1.2777 -1.9347
39783SOL    HW221357   2.100   1.790  10.866  0.9807  1.2925  0.0610
39784SOL     OW21358   5.587  10.436   5.857  0.1155 -0.1109 -0.9329
39784SOL    HW121359   5.523  10.487   5.805 -0.1453  0.4097 -0.1194
39784SOL    HW221360   5.579  10.471   5.945 -0.4679 -1.9487 -0.2113
39785SOL     OW21361   1.416   2.330   2.674 -0.3874 -0.0401 -0.1037
39785SOL    HW121362   1.439   2.321   2.581  1.3344  1.5050  0.1241
39785SOL    HW221363   1.493   2.370   2.714 -1.1184 -0.6180  2.0093
39786SOL     OW21364   8.579   4.303   9.604  0.4892 -0.1976  0.0270
39786SOL    HW121365   8.632   4.295   9.683 -0.7181  2.5264  1.2311
39786SOL    HW221366   8.517   4.231   9.610  0.6762 -0.2781  1.3557
39787SOL     OW21367   7.726   8.079  10.401 -0.0797 -0.3469 -0.0105
39787SOL    HW121368   7.739   7.984  10.397  1.9202 -0.1041  0.0619
39787SOL    HW221369   7.723   8.099  10.495  0.9677 -0.1656 -0.0124
39788SOL     OW21370   7.957   5.433   2.716 -0.1644 -0.1729 -0.2312
39788SOL    HW121371   7.923   5.358   2.667  0.3696 -0.4421 -0.1982
39788SOL    HW221372   8.041   5.403   2.752  0.1608  0.5079 -0.3974
39789SOL     OW21373   9.526   5.092   9.481  0.0603 -0.0859  0.9875
39789SOL    HW121374   9.442   5.052   9.502  0.6935 -1.6031  0.7593
39789SOL    HW221375   9.574   5.024   9.433  1.5851  0.5878  1.4853
39790SOL     OW21376   6.655   1.263   4.876  0.1503  0.2250 -0.2642
39790SOL    HW121377   6.702   1.240   4.796  1.2923 -1.0971  0.7491
39790SOL    HW221378   6.611   1.182   4.902  0.4786  0.4083  0.9003
39791SOL     OW21379   7.089   1.267   7.191 -0.4497 -0.1095  0.2116
39791SOL    HW121380   7.056   1.355   7.173  0.2470  0.0760 -0.2055
39791SOL    HW221381   7.183   1.273   7.175 -0.5564 -1.2351 -1.0464
39792SOL     OW21382   3.380   6.219   5.662 -0.5565  0.0869  0.2587
39792SOL    HW121383   3.298   6.201   5.708  0.2175 -0.4272  1.4986
39792SOL    HW221384   3.445   6.227   5.732  0.6522 -0.6423 -0.7404
39793SOL     OW21385   7.324  10.963   8.698  0.0810  0.1279 -0.7308
39793SOL    HW121386   7.409  10.945   8.657  0.6139  1.2264 -0.1558
39793SOL    HW221387   7.296  11.046   8.659  0.4208  1.0059  0.8436
39794SOL     OW21388   0.834   7.482   0.005 -0.5196  0.3215  0.4542
39794SOL    HW121389   0.758   7.493   0.062 -0.3460 -2.0751  1.2828
39794SOL    HW221390   0.799   7.436  -0.072 -0.0736  0.0437  0.4161
39795SOL     OW21391   0.272   9.740   4.282  0.1001  0.1483  0.7753
39795SOL    HW121392   0.301   9.806   4.345 -0.2430 -0.2081  1.3191
39795SOL    HW221393   0.339   9.741   4.213  0.6203  0.3633  1.2738
39796SOL     OW21394   3.983   5.972   8.746 -0.1440  0.3133  0.4333
39796SOL    HW121395   4.025   5.902   8.695 -0.4993 -0.0995  0.6953
39796SOL    HW221396   4.022   6.053   8.712  0.1741 -0.0002  0.0280
39797SOL     OW21397   7.787   3.226   8.366 -0.0109  0.1303  0.3455
39797SOL    HW121398   7.841   3.154   8.399  1.0144  0.5658 -0.3290
39797SOL    HW221399   7.699   3.189   8.359  0.6264 -1.2951 -0.6909
39798SOL     OW21400   0.536  10.100   7.907  0.3540  0.2686  0.1451
39798SOL    HW121401   0.504  10.081   7.995  0.5331  1.2922  0.4463
39798SOL    HW221402   0.475  10.055   7.849 -0.8819  1.1005  0.7459
39799SOL     OW21403   7.863   3.297   2.915  0.0576  0.3451  0.0645
39799SOL    HW121404   7.931   3.231   2.928  0.2238  0.3005 -0.9693
39799SOL    HW221405   7.908   3.380   2.928  0.8490  0.4146 -2.6242
39800SOL     OW21406   0.966  10.655   7.581  0.0377 -1.0632  0.1760
39800SOL    HW121407   1.039  10.680   7.638  1.1353 -1.9487 -0.7813
39800SOL    HW221408   0.912  10.597   7.634 -0.0363 -0.3275  0.9230
39801SOL     OW21409  11.032   5.572   7.041 -0.3454 -0.3364 -0.4174
39801SOL    HW121410  11.050   5.596   7.132 -0.3816  0.6156 -0.6491
39801SOL    HW221411  10.965   5.634   7.013  0.1547 -0.1867 -1.2944
39802SOL     OW21412  10.647   0.356  10.840 -0.2741 -0.3190  0.7046
39802SOL    HW121413  10.672   0.415  10.769 -0.4305  0.2703  1.1352
39802SOL    HW221414  10.710   0.375  10.910 -0.2098 -0.7959  0.7809
39803SOL     OW21415  10.864   1.205   2.993  0.4872  0.3187 -0.2505
39803SOL    HW121416  10.773   1.215   3.022  0.3438 -0.8628 -0.2167
39803SOL    HW221417  10.860   1.136   2.927  1.5112 -0.5967  0.6011
39804SOL     OW21418   7.055   4.669   9.171 -0.4862  0.7691  0.0331
39804SOL    HW121419   7.107   4.738   9.131 -3.4673  2.3960 -1.3669
39804SOL    HW221420   7.023   4.707   9.253  0.8457 -0.4150  1.1632
39805SOL     OW21421   5.863   2.179   4.110  0.0072  0.5943 -0.0414
39805SOL    HW121422   5.868   2.086   4.091 -0.9180  0.4287  0.4868
39805SOL    HW221423   5.783   2.190   4.161  2.3524  0.9702  3.9654
39806SOL     OW21424   6.906   3.061   4.551  0.4181  0.2133  0.0469
39806SOL    HW121425   6.871   2.976   4.525 -0.7702  0.3968  0.9506
39806SOL    HW221426   6.946   3.045   4.636 -0.7052  0.7322  0.6995
39807SOL     OW21427   3.471   3.100   2.927  0.3705 -0.1338 -0.4254
39807SOL    HW121428   3.548   3.129   2.878  0.9379  1.7231  1.4105
39807SOL    HW221429   3.507   3.051   3.001 -0.2748 -0.2024 -0.1525
39808SOL     OW21430   7.289   4.171   9.597  0.3621  0.4100 -0.2817
39808SOL    HW121431   7.230   4.109   9.554 -0.5672  2.6267 -2.4802
39808SOL    HW221432   7.367   4.172   9.541  0.8585  0.3880  0.3979
39809SOL     OW21433   4.356   6.558   8.942  0.1450 -0.0867  0.0775
39809SOL    HW121434   4.422   6.627   8.954 -3.4340  3.5982  0.9903
39809SOL    HW221435   4.319   6.545   9.029 -3.3150  1.5411 -0.9620
39810SOL     OW21436   6.603   0.580   7.899 -0.2333  0.7981 -0.4587
39810SOL    HW121437   6.583   0.535   7.816  0.8022  0.6291 -0.6294
39810SOL    HW221438   6.534   0.551   7.959 -1.1579  1.1399 -1.3342
39811SOL     OW21439   5.032   1.767   0.656 -0.0684 -0.3516  0.0337
39811SOL    HW121440   5.014   1.852   0.698  2.2980  0.1980  0.0847
39811SOL    HW221441   4.950   1.719   0.663 -1.1293  1.4958  1.0798
39812SOL     OW21442   4.805   5.387   9.918  0.1736 -0.1631  0.2329
39812SOL    HW121443   4.883   5.424   9.877  0.6000 -0.2047  0.9981
39812SOL    HW221444   4.732   5.420   9.865  0.5383  1.7549  0.8832
39813SOL     OW21445   9.403  10.338   0.521 -0.2465 -0.1273 -0.2281
39813SOL    HW121446   9.369  10.338   0.611 -0.6819  2.4710 -0.3175
39813SOL    HW221447   9.325  10.324   0.467 -0.4449  1.0210 -0.2635
39814SOL     OW21448   9.141   6.119   2.549 -0.2798 -0.5444 -0.1631
39814SOL    HW121449   9.138   6.190   2.613  0.1405  0.1662 -0.9094
39814SOL    HW221450   9.059   6.127   2.501 -0.5983 -1.0819  0.2848
39815SOL     OW21451   3.501   6.184   5.275  0.2163 -0.8169  0.0559
39815SOL    HW121452   3.578   6.149   5.319  0.6710  0.4005  0.2346
39815SOL    HW221453   3.454   6.232   5.342  0.5903  0.5288 -0.6131
39816SOL     OW21454   3.115   0.712   3.240 -0.8528  0.3722  0.1111
39816SOL    HW121455   3.104   0.788   3.183  0.8119  0.2051 -0.4875
39816SOL    HW221456   3.030   0.669   3.239 -1.0165  0.6203 -1.9267
39817SOL     OW21457   7.283   8.388   5.031 -0.1650  0.3114  0.4250
39817SOL    HW121458   7.271   8.404   4.937  0.3697  1.2312  0.4930
39817SOL    HW221459   7.220   8.446   5.073 -0.3597 -0.0552  0.6356
39818SOL     OW21460   6.364   5.374   1.190  0.5969  0.4813  0.3480
39818SOL    HW121461   6.273   5.346   1.188  0.8098 -0.2232 -1.4691
39818SOL    HW221462   6.402   5.329   1.265  0.1614 -1.6951 -0.6586
39819SOL     OW21463   9.518   1.087   1.317 -0.2114 -0.0569 -0.0129
39819SOL    HW121464   9.527   1.167   1.265 -0.9375  0.2030  0.2488
39819SOL    HW221465   9.428   1.089   1.349  0.7389  0.8915  2.9805
39820SOL     OW21466   1.796   0.862   2.372  0.6017 -0.4634  0.4465
39820SOL    HW121467   1.729   0.911   2.419  0.9605  0.1956  0.2845
39820SOL    HW221468   1.752   0.782   2.343 -0.0371 -0.1615  0.5720
39821SOL     OW21469   9.775   8.943   0.500  0.6214 -0.1687 -0.5815
39821SOL    HW121470   9.781   8.854   0.466 -0.8308 -0.4446 -0.1729
39821SOL    HW221471   9.684   8.969   0.485  0.9925  1.2142 -0.6046
39822SOL     OW21472   0.438   3.382   9.797 -0.2139 -0.2328  0.1011
39822SOL    HW121473   0.518   3.338   9.826  0.0405  1.0442  1.4859
39822SOL    HW221474   0.376   3.312   9.779  1.2076 -1.2617 -1.0398
39823SOL     OW21475   0.299   4.790   1.441  0.0575 -0.6403 -0.1313
39823SOL    HW121476   0.227   4.799   1.503  0.5084 -1.6491  0.5625
39823SOL    HW221477   0.311   4.696   1.431  0.8917 -0.4897 -0.7015
39824SOL     OW21478  10.517   6.303   4.059 -0.1027  0.6869 -0.1457
39824SOL    HW121479  10.543   6.268   3.974 -1.8759  2.5465 -1.5634
39824SOL    HW221480  10.434   6.258   4.078  1.3528 -1.4063  1.8135
39825SOL     OW21481   3.786   3.038   3.847 -0.3119 -0.2047 -0.3899
39825SOL    HW121482   3.804   2.964   3.905 -1.3235 -1.5608 -1.7260
39825SOL    HW221483   3.848   3.028   3.775  1.3695  1.8276  0.6709
39826SOL     OW21484   5.416  10.843  10.464 -0.3558 -0.1169 -0.6519
39826SOL    HW121485   5.357  10.840  10.389 -0.2212 -0.9430 -0.7438
39826SOL    HW221486   5.412  10.754  10.500  0.9568 -0.2465 -0.7729
39827SOL     OW21487   0.217   2.570   4.966  0.1893 -0.0724  0.2284
39827SOL    HW121488   0.184   2.540   5.050 -0.3272  0.2177  0.1350
39827SOL    HW221489   0.159   2.530   4.901 -0.2999  0.8419  0.0873
39828SOL     OW21490   2.228   3.948   8.478 -0.6823 -0.2881  0.4869
39828SOL    HW121491   2.152   3.890   8.476 -2.7334  2.1901 -0.2846
39828SOL    HW221492   2.266   3.943   8.390 -1.7380  0.5275 -0.0428
39829SOL     OW21493   1.170   1.129   6.956 -0.1305 -0.0330 -0.2067
39829SOL    HW121494   1.175   1.221   6.983 -0.6709  0.1705 -0.7772
39829SOL    HW221495   1.224   1.083   7.020 -0.5413  0.5696  0.5964
39830SOL     OW21496   5.573   4.816   2.619 -0.1220  0.1573 -0.3068
39830SOL    HW121497   5.599   4.904   2.646 -1.0726  0.6380 -0.9115
39830SOL    HW221498   5.524   4.781   2.693 -1.0348  0.7193 -0.6381
39831SOL     OW21499   9.952   6.259   3.373 -0.4271  0.2532  0.3750
39831SOL    HW121500  10.014   6.329   3.394  0.2306 -0.3962  0.6633
39831SOL    HW221501   9.868   6.290   3.407  0.1159  0.3344  1.7295
39832SOL     OW21502   2.879   5.596   7.824  0.3665 -0.0795 -0.0717
39832SOL    HW121503   2.911   5.651   7.752 -1.4719  0.5022 -0.5086
39832SOL    HW221504   2.919   5.510   7.808  0.5413  0.2169 -1.4005
39833SOL     OW21505  10.783   3.732   0.132  0.3669 -0.3928  0.8084
39833SOL    HW121506  10.815   3.822   0.143  0.6661 -0.3470 -0.4061
39833SOL    HW221507  10.859   3.677   0.150  0.9574 -0.3065 -1.2474
39834SOL     OW21508  10.554   7.789   1.244 -0.2237  0.0438  0.6160
39834SOL    HW121509  10.485   7.725   1.260 -2.2161  1.9130  0.0242
39834SOL    HW221510  10.514   7.854   1.186  2.8566 -0.1029 -1.9637
39835SOL     OW21511   3.067   0.009   6.532 -0.0400 -0.5827 -0.2985
39835SOL    HW121512   2.984   0.011   6.579 -0.8085 -2.8795 -1.4211
39835SOL    HW221513   3.124  -0.046   6.586  0.5231  0.3189  0.0574
39836SOL     OW21514   3.620   4.593   5.885  0.1911 -0.2296 -0.0418
39836SOL    HW121515   3.528   4.616   5.893 -0.3235 -1.3695 -2.0336
39836SOL    HW221516   3.661   4.672   5.850 -0.0797  0.1620  0.5086
39837SOL     OW21517   2.589   6.436   2.111  0.9168  0.2104  0.4006
39837SOL    HW121518   2.509   6.451   2.161 -0.5999  2.1027 -2.2896
39837SOL    HW221519   2.653   6.494   2.151  0.4275  0.0055  1.5087
39838SOL     OW21520   2.457   1.335   5.563  0.0769 -0.6688 -0.1186
39838SOL    HW121521   2.369   1.299   5.555 -0.1237  0.0003 -1.0077
39838SOL    HW221522   2.461   1.404   5.497  2.6051 -3.3051 -2.9839
39839SOL     OW21523   7.677   4.501  10.474  0.0658 -0.5051 -0.5159
39839SOL    HW121524   7.737   4.455  10.415  0.4696 -0.8510  0.1445
39839SOL    HW221525   7.734   4.557  10.527 -0.5360  1.9618 -2.3090
39840SOL     OW21526   8.203   0.068   6.503  0.2568  0.1666 -0.1120
39840SOL    HW121527   8.156   0.151   6.502 -0.7288 -0.2158  3.0259
39840SOL    HW221528   8.292   0.090   6.530  0.5233  0.3511 -1.0951
39841SOL     OW21529  10.576   7.267   0.192  0.2147 -0.3184  0.5714
39841SOL    HW121530  10.492   7.228   0.168  0.0217  0.3394  0.1595
39841SOL    HW221531  10.556   7.359   0.209  1.0199  0.0569 -0.4444
39842SOL     OW21532  10.040   0.357   7.096 -0.0338  0.6425  0.0200
39842SOL    HW121533   9.994   0.281   7.132  1.4232 -0.9017 -1.2224
39842SOL    HW221534  10.012   0.361   7.005  1.6323  0.1231 -0.5531
39843SOL     OW21535   5.944   5.975   4.952  0.8397  0.0995 -0.2544
39843SOL    HW121536   6.035   5.960   4.976  0.4669 -0.8448  0.6243
39843SOL    HW221537   5.902   6.008   5.031  0.5021  0.9635 -0.7751
39844SOL     OW21538   3.813   8.221   8.369  0.3885 -0.2555  0.3370
39844SOL    HW121539   3.836   8.130   8.347  1.3273  0.1614 -0.5313
39844SOL    HW221540   3.856   8.237   8.453 -0.2819 -0.7867  0.7934
39845SOL     OW21541   6.846   4.843   0.241  0.2755 -0.1615  0.1299
39845SOL    HW121542   6.779   4.801   0.295  0.9928 -0.8550  0.4964
39845SOL    HW221543   6.807   4.847   0.153  0.7476 -3.0348 -0.3032
39846SOL     OW21544   1.901   5.203   3.257  0.1590  0.2088  0.7938
39846SOL    HW121545   1.992   5.195   3.286  0.1163 -0.2560  0.8056
39846SOL    HW221546   1.896   5.150   3.177  0.1391  1.0415  0.2408
39847SOL     OW21547   0.302   8.404   4.046  0.1336 -0.3513 -0.0674
39847SOL    HW121548   0.268   8.472   4.103  1.4408  0.9594 -0.7801
39847SOL    HW221549   0.381   8.373   4.090 -0.5669 -1.5962  0.3598
39848SOL     OW21550   1.788   5.552  10.849 -0.1229 -0.3991 -0.3689
39848SOL    HW121551   1.772   5.646  10.850 -0.3088 -0.4302  0.7540
39848SOL    HW221552   1.867   5.541  10.903 -0.1255 -0.8904 -0.4621
39849SOL     OW21553   4.453   1.402   1.619 -0.0431  0.1697  0.3209
39849SOL    HW121554   4.447   1.333   1.553  1.1872  1.5516 -1.3001
39849SOL    HW221555   4.477   1.481   1.570  0.6282  1.3126  2.3758
39850SOL     OW21556   1.742   9.152   3.031 -0.4256 -0.4698  0.0459
39850SOL    HW121557   1.802   9.103   2.975 -0.7380 -0.3046 -0.4403
39850SOL    HW221558   1.723   9.232   2.982  0.0418  0.1252  0.8103
39851SOL     OW21559   0.998   6.808  10.568  0.1614  0.0780  0.4928
39851SOL    HW121560   1.057   6.876  10.602  1.2195 -0.5104 -0.0896
39851SOL    HW221561   0.956   6.848  10.492 -0.1883  0.4998  0.9019
39852SOL     OW21562   0.766   6.447   1.499 -0.3440 -0.3447 -0.0201
39852SOL    HW121563   0.672   6.435   1.495 -0.2820 -1.8502  1.6274
39852SOL    HW221564   0.779   6.536   1.533 -1.0638  0.9266 -2.8379
39853SOL     OW21565   1.151   7.517   4.297  0.1232  0.3675 -0.0741
39853SOL    HW121566   1.114   7.575   4.364 -0.4532  0.2229 -0.2640
39853SOL    HW221567   1.211   7.459   4.345 -1.9783 -1.2613  0.7072
39854SOL     OW21568  10.361   4.949   6.758 -0.0945  0.4649 -0.0689
39854SOL    HW121569  10.370   5.043   6.743 -1.4640  0.6839  0.3645
39854SOL    HW221570  10.352   4.941   6.853 -2.8537  0.2088 -0.2860
39855SOL     OW21571   7.368   2.370   7.218  0.0887 -0.4914 -0.1480
39855SOL    HW121572   7.273   2.376   7.224  0.1392 -0.5311  0.8401
39855SOL    HW221573   7.400   2.410   7.298  0.8302 -2.2625  0.5025
39856SOL     OW21574   4.543   3.033   2.300 -0.4422 -0.3223  0.0470
39856SOL    HW121575   4.478   3.074   2.243 -0.6526  0.0363  0.5398
39856SOL    HW221576   4.501   2.952   2.329  0.9591 -2.3188 -3.0175
39857SOL     OW21577   4.966   2.093  10.538  0.0474  0.1929 -0.1627
39857SOL    HW121578   4.889   2.075  10.592 -0.4240  0.5168 -0.7212
39857SOL    HW221579   5.020   2.150  10.593  0.9848 -1.7926  1.1392
39858SOL     OW21580   7.457   3.732   0.250  0.5745  0.4188  0.0743
39858SOL    HW121581   7.518   3.782   0.304  1.1469  1.5662 -1.5420
39858SOL    HW221582   7.418   3.797   0.191  0.2496 -0.8098 -1.1209
39859SOL     OW21583   6.417   0.142   6.206  0.1806 -0.0917  0.4861
39859SOL    HW121584   6.506   0.107   6.191  0.8318  0.6019  2.4519
39859SOL    HW221585   6.421   0.231   6.172  0.5786  0.2925  1.5091
39860SOL     OW21586   2.959   3.512   5.722  0.7411 -0.0436  0.1316
39860SOL    HW121587   2.949   3.605   5.702 -3.2066 -0.2464  0.4356
39860SOL    HW221588   3.016   3.510   5.799  2.1692  1.9311 -0.7889
39861SOL     OW21589   5.263   6.651   0.796 -0.3902 -0.7869 -0.1448
39861SOL    HW121590   5.258   6.570   0.846  0.9567 -0.8408 -0.0779
39861SOL    HW221591   5.346   6.692   0.822 -1.5487  1.1939  0.6892
39862SOL     OW21592   7.784  10.996   2.710  0.3418  0.1690 -0.3777
39862SOL    HW121593   7.853  11.030   2.766 -0.4306 -0.0606  0.7449
39862SOL    HW221594   7.817  11.009   2.621  2.4693 -1.2653  0.1135
39863SOL     OW21595   2.517   8.117   0.935 -0.3784  0.1247 -0.3735
39863SOL    HW121596   2.550   8.207   0.933  0.8873 -0.2455  1.2230
39863SOL    HW221597   2.551   8.077   0.855  1.2961  0.3697  0.1759
39864SOL     OW21598   9.944   0.139   3.730  0.4836 -0.4460 -0.2131
39864SOL    HW121599   9.929   0.164   3.638  0.9822  0.7267  0.0052
39864SOL    HW221600   9.937   0.221   3.778 -0.4815 -1.1645  0.9111
39865SOL     OW21601   6.820   9.108   7.208  0.1779 -0.1715 -0.1699
39865SOL    HW121602   6.765   9.187   7.213  0.0180 -0.3390  0.8753
39865SOL    HW221603   6.873   9.122   7.129  0.1253  0.9631 -0.0298
39866SOL     OW21604   7.496   3.785   4.567  0.6019 -0.0992  0.4102
39866SOL    HW121605   7.425   3.728   4.596 -1.0422  1.4125 -0.4300
39866SOL    HW221606   7.557   3.727   4.522 -0.5327 -1.3234  0.4095
39867SOL     OW21607   8.879   1.326   7.369 -0.0387 -0.3082  0.1983
39867SOL    HW121608   8.798   1.348   7.323  0.2381  2.1688  0.7621
39867SOL    HW221609   8.928   1.407   7.371  2.0573 -1.5199  0.7430
39868SOL     OW21610   0.309   2.170   8.839  0.3896  0.0119  0.1226
39868SOL    HW121611   0.246   2.201   8.904 -2.3263 -2.0674 -1.3113
39868SOL    HW221612   0.360   2.103   8.885 -1.4112 -1.3402  0.2563
39869SOL     OW21613   1.887   3.106   3.060 -0.2698 -0.7380 -0.6483
39869SOL    HW121614   1.839   3.066   3.133  0.6274 -0.1522  0.2793
39869SOL    HW221615   1.842   3.189   3.045  0.5967 -0.0522  0.4181
39870SOL     OW21616   0.089   0.058   5.972 -0.4956  0.7023 -0.4948
39870SOL    HW121617   0.182   0.048   5.994 -0.4367 -1.6604 -1.4712
39870SOL    HW221618   0.089   0.113   5.893 -0.0756  1.8716  0.2863
39871SOL     OW21619   0.537   2.494   3.235 -0.3602  0.0546 -0.1337
39871SOL    HW121620   0.569   2.513   3.146  0.3930 -0.0843  0.0995
39871SOL    HW221621   0.456   2.544   3.242  0.5878  1.6514 -0.2086
39872SOL     OW21622   3.136   8.362   2.145  0.0465  0.0785  0.2533
39872SOL    HW121623   3.094   8.287   2.187 -0.1479  0.4857  0.7903
39872SOL    HW221624   3.133   8.431   2.210  0.3213  0.5263 -0.2016
39873SOL     OW21625   0.273   4.286   1.700 -0.4104  0.5040  0.3327
39873SOL    HW121626   0.251   4.260   1.789 -1.6944 -0.7494 -0.3260
39873SOL    HW221627   0.346   4.229   1.676 -0.2434  0.6585  0.4588
39874SOL     OW21628   3.108   2.704   2.976 -0.3599 -0.1748 -0.1917
39874SOL    HW121629   3.121   2.788   3.020  1.5996 -0.1839 -0.6745
39874SOL    HW221630   3.169   2.706   2.903 -0.7399 -1.7825 -0.5817
39875SOL     OW21631   0.908   0.663   4.319 -0.6476 -0.1072  0.3762
39875SOL    HW121632   0.843   0.734   4.322 -1.0674 -0.4045 -1.0893
39875SOL    HW221633   0.881   0.604   4.390 -0.3198  1.1318  1.5895
39876SOL     OW21634   7.089   8.628   1.427 -0.1588 -0.5243  0.3853
39876SOL    HW121635   7.034   8.680   1.486  1.6839 -0.0218  1.7583
39876SOL    HW221636   7.067   8.660   1.340 -0.5819  1.0881  1.0420
39877SOL     OW21637   4.302   2.783   5.471 -0.4263 -0.1239  0.2537
39877SOL    HW121638   4.286   2.816   5.382  1.1554 -1.2448 -0.4812
39877SOL    HW221639   4.275   2.691   5.467  0.8080 -0.5082  0.5697
39878SOL     OW21640   2.279   7.673   0.235  0.7369 -0.1921 -0.1841
39878SOL    HW121641   2.314   7.720   0.159 -0.1918 -0.2763 -0.6770
39878SOL    HW221642   2.245   7.591   0.199 -1.5620  0.6335 -0.0498
39879SOL     OW21643   6.685   6.560   0.803 -0.6255 -0.3611 -0.1183
39879SOL    HW121644   6.673   6.562   0.898  0.1175  1.6408 -0.0020
39879SOL    HW221645   6.778   6.541   0.791  0.0550  2.4999 -0.2400
39880SOL     OW21646   1.989   8.007   4.314  0.2912 -1.0318  0.7758
39880SOL    HW121647   2.074   8.016   4.358  0.0575 -0.4132  1.1154
39880SOL    HW221648   2.003   8.045   4.227 -0.0809  0.6970  1.4243
39881SOL     OW21649   4.671   2.042   1.603 -0.0047  0.5892  0.4820
39881SOL    HW121650   4.734   1.988   1.556  1.7176  2.6410  0.2712
39881SOL    HW221651   4.587   2.026   1.559  0.7729 -0.5585 -0.6480
39882SOL     OW21652   4.941   9.546   6.775  0.5469 -0.5655 -0.2543
39882SOL    HW121653   4.962   9.630   6.735 -1.9758 -1.0903 -3.0488
39882SOL    HW221654   4.891   9.568   6.854 -0.9123  0.6696 -1.4467
39883SOL     OW21655   9.700   5.388   2.775  0.6505 -0.1305  0.8753
39883SOL    HW121656   9.703   5.481   2.754 -0.5457 -0.1846  0.3576
39883SOL    HW221657   9.664   5.385   2.864  1.4252 -0.0726  1.1934
39884SOL     OW21658   7.039   7.232  10.416  0.4632  0.2132  0.3420
39884SOL    HW121659   7.122   7.280  10.423  0.3198  0.8398 -1.7383
39884SOL    HW221660   7.064   7.145  10.384  0.2528  0.8793 -1.7754
39885SOL     OW21661   2.014  10.886   4.260  0.3200  0.4686  0.6459
39885SOL    HW121662   2.097  10.840   4.250  0.7125  1.4815 -1.1484
39885SOL    HW221663   2.023  10.933   4.344  0.9273 -0.6205  1.2124
39886SOL     OW21664   3.045   7.303   9.117  0.1815 -0.5534  0.2373
39886SOL    HW121665   3.019   7.370   9.054 -0.0955 -0.6131  0.2858
39886SOL    HW221666   3.087   7.352   9.189  1.2724 -0.5596 -0.3755
39887SOL     OW21667   7.667   7.913   3.974  0.2109 -0.1768 -0.0755
39887SOL    HW121668   7.662   7.863   3.893 -0.1581  1.1906 -0.9319
39887SOL    HW221669   7.587   7.889   4.021  0.5754 -1.2090  0.0507
39888SOL     OW21670   2.246   3.819   8.926  0.0605  0.0385  0.0248
39888SOL    HW121671   2.315   3.757   8.947  1.3159  1.8400  1.5340
39888SOL    HW221672   2.273   3.901   8.968 -3.1434  0.7639  1.0130
39889SOL     OW21673   1.566   1.973   4.438 -0.7380  0.2416  0.7461
39889SOL    HW121674   1.485   2.010   4.473 -2.1747 -1.9444 -0.0847
39889SOL    HW221675   1.566   1.997   4.345 -2.0746 -2.2764  0.0105
39890SOL     OW21676   0.723   6.783   0.521  0.2058  0.2038 -0.0667
39890SOL    HW121677   0.728   6.743   0.435 -0.9249  2.7067 -1.4012
39890SOL    HW221678   0.632   6.776   0.547  0.5553 -0.6364  1.0165
39891SOL     OW21679   3.773   9.808   2.265  0.6709  0.4763 -0.3347
39891SOL    HW121680   3.727   9.724   2.261  0.2408  0.6572  0.6428
39891SOL    HW221681   3.729   9.862   2.199 -0.1764  0.4663  0.2057
39892SOL     OW21682   1.799   3.210   3.417 -0.1738 -0.3102  0.5672
39892SOL    HW121683   1.769   3.154   3.488  2.3145 -2.6412 -0.0482
39892SOL    HW221684   1.723   3.221   3.360 -1.9658  0.8696  3.0288
39893SOL     OW21685   6.985   6.026   3.565 -0.2483 -0.2095 -0.0868
39893SOL    HW121686   6.944   6.112   3.565  0.9489  0.5517  3.4667
39893SOL    HW221687   7.028   6.020   3.479 -0.1167  2.8757 -0.3571
39894SOL     OW21688   6.744   4.348   4.840 -0.0728  0.1051  0.1385
39894SOL    HW121689   6.703   4.358   4.754 -0.2019  1.2457  0.3145
39894SOL    HW221690   6.825   4.301   4.823 -0.4264 -0.2916 -0.5055
39895SOL     OW21691   7.016   6.920   8.029 -0.2616  0.6441  0.3042
39895SOL    HW121692   7.044   6.978   8.100 -0.2172  1.3923 -0.3180
39895SOL    HW221693   7.059   6.954   7.951 -1.6950  0.9076 -0.4024
39896SOL     OW21694   8.784   1.395   9.036 -0.3499  0.2077  0.4426
39896SOL    HW121695   8.783   1.300   9.041  0.4024  0.0289 -1.8836
39896SOL    HW221696   8.817   1.423   9.122 -1.8597 -1.5270  1.6414
39897SOL     OW21697   4.838   1.953   7.190 -0.1725 -0.0366  0.0002
39897SOL    HW121698   4.756   1.910   7.212  1.5850 -2.9701  1.5625
39897SOL    HW221699   4.841   1.955   7.095 -2.0753  0.2822 -0.0771
39898SOL     OW21700   2.157   2.356   4.243 -0.5401  0.2755  0.2992
39898SOL    HW121701   2.161   2.284   4.305  0.4982  0.5361  0.5624
39898SOL    HW221702   2.159   2.315   4.157 -2.3197 -0.1049  0.4098
39899SOL     OW21703   4.897   8.843   4.068  0.7311 -0.0273  0.0766
39899SOL    HW121704   4.841   8.825   3.993  0.0645  0.3632  0.4737
39899SOL    HW221705   4.852   8.804   4.143  1.5706 -0.7412  0.2289
39900SOL     OW21706  10.281   5.406   4.023  0.1547 -0.2575 -0.4936
39900SOL    HW121707  10.354   5.398   4.084 -0.3160  1.2284  0.3065
39900SOL    HW221708  10.229   5.327   4.038 -0.2311  0.3177  1.4411
39901SOL     OW21709   2.622  10.383   3.348 -0.6050  0.1455  0.3495
39901SOL    HW121710   2.584  10.471   3.354 -2.9114 -0.5381 -2.1243
39901SOL    HW221711   2.549  10.328   3.320  1.6373 -1.7936 -2.2085
39902SOL     OW21712  10.857   8.340   4.520 -0.4782 -0.2264  0.0082
39902SOL    HW121713  10.857   8.427   4.481  0.2525 -0.2884 -0.1347
39902SOL    HW221714  10.914   8.349   4.597 -0.6449 -0.5018  0.1635
39903SOL     OW21715   2.793   4.631   1.554 -0.2309 -0.1533  0.5293
39903SOL    HW121716   2.764   4.609   1.642  1.1990 -0.5302  0.9386
39903SOL    HW221717   2.877   4.585   1.544 -0.2004  0.1568 -0.8997
39904SOL     OW21718   5.363   8.268  10.809  0.1763  0.1430  0.2104
39904SOL    HW121719   5.311   8.192  10.833  1.0897 -0.4332  0.4022
39904SOL    HW221720   5.363   8.323  10.888 -0.6828  0.4816 -0.0054
39905SOL     OW21721   9.363   7.404   8.045  0.6095 -0.0202 -0.2559
39905SOL    HW121722   9.408   7.488   8.047  0.5858 -0.0173  0.4965
39905SOL    HW221723   9.431   7.341   8.071  0.8245 -0.3351 -1.5311
39906SOL     OW21724   9.429  10.874   2.760 -0.2584 -0.0674  0.5469
39906SOL    HW121725   9.508  10.916   2.794  0.8910 -1.1578 -0.6686
39906SOL    HW221726   9.364  10.944   2.757  1.4079  1.5085 -0.8358
39907SOL     OW21727   3.816  10.774   4.093 -0.3821  0.1290 -0.5551
39907SOL    HW121728   3.820  10.717   4.016  2.2493 -0.5692  0.0183
39907SOL    HW221729   3.896  10.826   4.089 -0.6365  0.7155  1.2298
39908SOL     OW21730   1.612   6.687  10.201 -0.5131 -0.3728  0.0360
39908SOL    HW121731   1.669   6.713  10.129 -0.0886 -1.2669  0.0411
39908SOL    HW221732   1.525   6.680  10.161 -0.4098 -0.1863 -0.2295
39909SOL     OW21733   5.651   5.939   1.816  0.5225 -0.4238 -0.9342
39909SOL    HW121734   5.723   5.974   1.868 -1.0005  0.1677  0.8738
39909SOL    HW221735   5.582   6.005   1.822 -0.3883 -1.2110 -2.1683
39910SOL     OW21736   0.593   7.177   4.973  0.0108 -0.3726  0.4232
39910SOL    HW121737   0.503   7.145   4.970 -0.2796  0.4625 -0.4142
39910SOL    HW221738   0.586   7.265   5.009  0.7205 -0.9528  2.0829
39911SOL     OW21739   4.084   7.696   2.341 -0.1062 -0.2799 -0.2722
39911SOL    HW121740   4.074   7.791   2.342 -1.0111 -0.3471 -1.1991
39911SOL    HW221741   4.128   7.678   2.258  0.7936 -0.6192  0.2648
39912SOL     OW21742   7.624   6.049   0.321 -0.3770  0.0954 -0.0433
39912SOL    HW121743   7.698   6.104   0.295 -0.2767  1.6579  3.1318
39912SOL    HW221744   7.664   5.966   0.349 -0.3533 -0.9234 -2.7661
39913SOL     OW21745   2.751   6.368   5.262 -0.0461 -0.2752 -0.0090
39913SOL    HW121746   2.731   6.417   5.343  1.7254 -2.1855  1.6974
39913SOL    HW221747   2.841   6.392   5.241  0.5984 -2.1496  0.4445
39914SOL     OW21748   7.061   8.344   8.614 -0.4427  0.1442  0.8364
39914SOL    HW121749   7.124   8.416   8.616 -0.5407  0.3064 -0.5748
39914SOL    HW221750   7.041   8.333   8.521 -1.3047 -0.9491  1.1330
39915SOL     OW21751   0.810   1.066   7.457  0.1146 -0.4911  0.3056
39915SOL    HW121752   0.814   1.161   7.455  2.5510 -0.5172 -1.9665
39915SOL    HW221753   0.873   1.040   7.524 -0.3091 -0.5348  0.6942
39916SOL     OW21754   4.597   5.440   9.706 -0.1004  0.3324 -0.2095
39916SOL    HW121755   4.541   5.368   9.735  2.6831 -1.9938 -0.2409
39916SOL    HW221756   4.571   5.455   9.615 -1.7479  0.5002  0.2465
39917SOL     OW21757   2.868   5.746   3.937  0.2383  0.0446  0.2901
39917SOL    HW121758   2.795   5.749   4.000 -0.5264 -0.4441 -0.5574
39917SOL    HW221759   2.887   5.838   3.919  0.0386  0.1819  0.7536
39918SOL     OW21760   0.158   5.561   9.219 -0.2208  0.3694  0.1961
39918SOL    HW121761   0.178   5.473   9.187 -2.3741  0.2687 -1.0673
39918SOL    HW221762   0.236   5.587   9.268  1.2730 -1.4520 -1.0715
39919SOL     OW21763   2.197   9.312   9.047 -0.2102  0.5006  0.3735
39919SOL    HW121764   2.251   9.382   9.083  1.2739  0.1038 -0.9711
39919SOL    HW221765   2.245   9.282   8.970  0.1557 -3.1907  1.8192
39920SOL     OW21766   0.495   3.080  10.111 -0.2388  0.5067  0.3463
39920SOL    HW121767   0.590   3.064  10.114 -0.4128 -0.6838  0.0182
39920SOL    HW221768   0.479   3.107  10.021 -0.2240  0.5802  0.3663
39921SOL     OW21769   5.447   5.628   7.520  0.2569  0.7650 -0.0592
39921SOL    HW121770   5.400   5.710   7.503  2.1423  1.9401  0.1546
39921SOL    HW221771   5.432   5.611   7.613  0.2031  1.1140 -0.0019
39922SOL     OW21772   8.693   8.199   1.622 -0.6427 -0.7237  0.3099
39922SOL    HW121773   8.764   8.181   1.560 -2.9372 -1.7080 -2.2917
39922SOL    HW221774   8.638   8.263   1.577 -1.7120 -0.4083  1.9808
39923SOL     OW21775   5.220   9.926   9.293 -0.0578  0.8998 -0.3536
39923SOL    HW121776   5.239   9.876   9.373  1.1536 -1.3974 -1.9506
39923SOL    HW221777   5.129   9.905   9.274  0.3097 -0.4454 -0.7637
39924SOL     OW21778   9.131   2.428  10.679 -0.0151  0.3469 -0.5160
39924SOL    HW121779   9.132   2.362  10.610  1.2474  0.6003 -0.7737
39924SOL    HW221780   9.107   2.509  10.634  1.4482  0.6410 -0.8174
39925SOL     OW21781   4.160   3.692   0.615 -0.7860  0.1268  0.6195
39925SOL    HW121782   4.084   3.747   0.631 -0.5370  0.4843  0.5829
39925SOL    HW221783   4.234   3.753   0.609 -0.8395  0.0452 -1.9387
39926SOL     OW21784   9.147   0.042   8.027 -0.3955  0.9518  0.0520
39926SOL    HW121785   9.183   0.048   8.116 -0.6952 -0.8040  0.3317
39926SOL    HW221786   9.197  -0.027   7.985 -1.8512  0.0762 -0.3191
39927SOL     OW21787  10.031  10.048   1.557 -0.4635  0.2406 -0.2578
39927SOL    HW121788  10.067  10.037   1.644  0.8379 -1.1123 -0.9285
39927SOL    HW221789   9.955   9.990   1.555 -1.4842  1.4990  0.4657
39928SOL     OW21790   4.930  10.368   1.538 -0.1887 -0.0722 -0.4872
39928SOL    HW121791   4.858  10.307   1.522 -0.7576  0.4046  0.1995
39928SOL    HW221792   4.917  10.437   1.473  0.5796 -0.7551 -1.4091
39929SOL     OW21793   3.478   0.688   8.546  0.6317  0.3220 -0.3401
39929SOL    HW121794   3.463   0.708   8.453  0.9002  2.9735  0.1137
39929SOL    HW221795   3.467   0.771   8.590 -0.6766 -1.0871  2.2143
39930SOL     OW21796   2.309   6.712   7.420 -1.0847  0.3746  0.1574
39930SOL    HW121797   2.391   6.689   7.463 -2.4750 -0.2584  2.6954
39930SOL    HW221798   2.280   6.632   7.377 -0.6080  0.4786 -0.3658
39931SOL     OW21799   3.361   5.264   7.735  0.0816  0.1487 -0.4589
39931SOL    HW121800   3.395   5.280   7.823  1.8778 -1.6585 -0.7315
39931SOL    HW221801   3.333   5.350   7.704  0.3494  0.9963  1.4829
39932SOL     OW21802   4.410   9.673   1.029 -0.0062  0.4618 -0.1622
39932SOL    HW121803   4.371   9.711   1.108 -0.7201 -1.7558  0.6283
39932SOL    HW221804   4.412   9.745   0.967 -2.6779  1.4593  0.7393
39933SOL     OW21805   3.997  10.965   2.130  0.1043  0.3636 -0.0443
39933SOL    HW121806   4.038  11.047   2.157 -1.2321  1.7485 -1.9949
39933SOL    HW221807   3.959  10.930   2.211 -1.4464  2.9620  0.4506
39934SOL     OW21808   4.658   6.161   1.552  0.6629 -0.3297  0.2954
39934SOL    HW121809   4.642   6.225   1.482  1.2140  2.6388  2.6739
39934SOL    HW221810   4.572   6.126   1.573  0.4990 -1.4264 -1.8532
39935SOL     OW21811  10.887   8.808   5.507 -0.1750  0.2421 -0.2332
39935SOL    HW121812  10.845   8.772   5.428  0.5248 -0.8917 -0.1179
39935SOL    HW221813  10.896   8.901   5.488  0.2989 -0.0620 -1.6607
39936SOL     OW21814   4.226   8.427   4.013  0.4804  0.2673  0.2851
39936SOL    HW121815   4.133   8.439   4.034  0.3490  1.1813 -0.7218
39936SOL    HW221816   4.272   8.448   4.094 -0.1903 -0.2319  0.8036
39937SOL     OW21817   3.550   5.549  10.076 -0.0484  0.1564  0.0943
39937SOL    HW121818   3.534   5.466  10.121  1.6202 -1.1994 -1.6460
39937SOL    HW221819   3.606   5.526  10.002  0.5277  2.8683 -0.4267
39938SOL     OW21820   3.511   8.876   5.890  0.0867 -0.0260  0.3900
39938SOL    HW121821   3.423   8.858   5.924 -0.0711 -2.6461 -1.0736
39938SOL    HW221822   3.570   8.857   5.964 -0.5093  0.9859  1.1484
39939SOL     OW21823   4.804  10.061   6.809 -0.0527  0.2201  0.4234
39939SOL    HW121824   4.868  10.130   6.826 -0.1270  0.2245  0.6945
39939SOL    HW221825   4.732  10.105   6.765  0.2632  0.1573 -0.1647
39940SOL     OW21826   9.161   3.146   4.215  0.2435 -0.6057 -0.0994
39940SOL    HW121827   9.249   3.134   4.250 -0.0793 -0.4664  0.7937
39940SOL    HW221828   9.113   3.187   4.287 -0.8712 -1.8212 -0.1093
39941SOL     OW21829   0.168   6.610   5.601  0.7443  0.3224  0.1776
39941SOL    HW121830   0.193   6.587   5.512  0.5473 -0.1145  0.2304
39941SOL    HW221831   0.154   6.526   5.645 -1.8870  0.4789 -0.1549
39942SOL     OW21832   8.111   8.859   1.760 -0.0995 -0.2747 -0.5566
39942SOL    HW121833   8.149   8.939   1.797 -0.7768  0.0309 -0.5044
39942SOL    HW221834   8.187   8.807   1.733  0.3553  0.3023 -0.4205
39943SOL     OW21835   3.232   8.269   9.577  0.0960 -0.2519 -0.0150
39943SOL    HW121836   3.307   8.275   9.636  0.4652  1.3397 -0.6000
39943SOL    HW221837   3.245   8.188   9.529  1.6818  0.1989 -0.4025
39944SOL     OW21838   1.181   3.552   3.521  0.1253  0.2601 -0.2395
39944SOL    HW121839   1.175   3.457   3.521  0.8587  0.2037 -0.4931
39944SOL    HW221840   1.249   3.572   3.456 -2.0531  1.1188 -2.4201
39945SOL     OW21841  10.179   1.809   6.911 -0.4331 -0.2441  0.2845
39945SOL    HW121842  10.169   1.832   7.003 -1.0526  0.3396  0.0834
39945SOL    HW221843  10.260   1.759   6.907 -0.4352 -0.3320  1.1544
39946SOL     OW21844   1.946   5.137   6.550 -0.2519 -0.0988  0.4853
39946SOL    HW121845   1.936   5.145   6.455  0.3785  1.9343  0.5283
39946SOL    HW221846   2.019   5.077   6.562  0.3420  0.4326 -0.3586
39947SOL     OW21847   6.618   0.093   9.589  0.1667 -0.5559  0.1504
39947SOL    HW121848   6.633   0.100   9.683 -0.4439 -0.3690  0.2365
39947SOL    HW221849   6.528   0.121   9.577  0.7936  1.1980 -0.7297
39948SOL     OW21850   1.826   7.600   1.568 -0.2070 -0.0687  0.2703
39948SOL    HW121851   1.857   7.624   1.655 -1.0042 -0.0300  0.5556
39948SOL    HW221852   1.759   7.534   1.584  1.0087 -1.5316 -0.4244
39949SOL     OW21853   0.252   2.147  10.857 -0.0139 -0.1647  0.4159
39949SOL    HW121854   0.315   2.198  10.909  1.1183 -1.8336  0.7486
39949SOL    HW221855   0.218   2.081  10.917  0.2813 -1.2477 -0.5718
39950SOL     OW21856   9.802   7.398   6.422  0.5696 -0.9554  0.1260
39950SOL    HW121857   9.721   7.346   6.426 -1.5938  2.1797  0.4271
39950SOL    HW221858   9.844   7.382   6.506 -0.5326 -1.4566  0.6074
39951SOL     OW21859  10.972   2.830   5.022 -0.1593 -0.4819  0.6414
39951SOL    HW121860  11.006   2.775   4.951  1.3260  1.4067 -0.1978
39951SOL    HW221861  10.935   2.907   4.977 -2.0366 -0.6439  1.7850
39952SOL     OW21862   9.152   4.598   8.876  0.2936 -0.1157 -0.3536
39952SOL    HW121863   9.172   4.622   8.785  2.0196  1.9802  0.5246
39952SOL    HW221864   9.064   4.634   8.891 -1.0816 -2.5372 -1.8118
39953SOL     OW21865  10.609   3.458   5.642  0.7097  0.2729  0.1119
39953SOL    HW121866  10.521   3.475   5.608  1.4478  2.3503 -0.9067
39953SOL    HW221867  10.594   3.422   5.729 -1.1881  2.7592  0.9408
39954SOL     OW21868  10.836   6.145   8.325 -0.1556 -0.1548  0.1041
39954SOL    HW121869  10.879   6.065   8.297 -1.5456 -1.1051  0.5752
39954SOL    HW221870  10.837   6.201   8.247 -1.0581 -1.4793 -0.9134
39955SOL     OW21871   9.386   3.004   6.482  0.5206 -0.3159 -0.1409
39955SOL    HW121872   9.466   2.953   6.469  0.6951  0.1643 -1.0942
39955SOL    HW221873   9.389   3.070   6.412 -0.9435 -0.5992 -0.4939
39956SOL     OW21874   3.237   9.893   9.334 -0.3207 -0.1605 -0.7881
39956SOL    HW121875   3.162   9.887   9.393 -0.7485 -0.0522 -1.3215
39956SOL    HW221876   3.260   9.987   9.335  0.8257 -0.4054  0.6201
39957SOL     OW21877   9.895  10.145   9.354  0.3936 -0.5059  0.2314
39957SOL    HW121878   9.854  10.109   9.433  1.2249 -0.9553  0.4750
39957SOL    HW221879   9.978  10.181   9.385 -1.4163  4.0934  0.5135
39958SOL     OW21880   1.670   1.914   4.167  0.3779  0.3815  0.2203
39958SOL    HW121881   1.739   1.892   4.230  0.3971  0.7426  0.3269
39958SOL    HW221882   1.633   1.830   4.141  0.8289  0.1885  0.2003
39959SOL     OW21883   9.481   5.040  10.857 -0.1225 -0.5182  0.5659
39959SOL    HW121884   9.479   5.058  10.763  1.3710 -0.1340  0.5756
39959SOL    HW221885   9.479   4.945  10.864 -0.3157 -0.5444  0.1464
39960SOL     OW21886   1.320   6.816   6.524  0.3728  0.6999  0.1544
39960SOL    HW121887   1.250   6.844   6.582  0.5496 -0.3169  0.8745
39960SOL    HW221888   1.389   6.882   6.537  0.6926  0.1043  1.6550
39961SOL     OW21889   3.833   8.574   6.847 -0.3191  0.6629 -0.0837
39961SOL    HW121890   3.905   8.568   6.909 -0.4416 -0.9836 -0.0733
39961SOL    HW221891   3.821   8.669   6.834  0.8845  0.9934  0.9969
39962SOL     OW21892   8.149   1.207  10.719  0.5764 -0.1639  0.6490
39962SOL    HW121893   8.148   1.297  10.752  0.1837 -0.2057  0.7557
39962SOL    HW221894   8.127   1.153  10.795  1.1244 -0.3793  0.6626
39963SOL     OW21895   7.287   4.706   7.428  0.0727 -0.1327 -0.2570
39963SOL    HW121896   7.264   4.742   7.513  0.4824 -2.5232  0.9465
39963SOL    HW221897   7.204   4.676   7.391 -0.0164  0.2857 -0.4000
39964SOL     OW21898   0.755  10.136   1.291  0.4564  0.1224  0.5584
39964SOL    HW121899   0.701  10.084   1.231  1.7477  1.2026 -1.6759
39964SOL    HW221900   0.709  10.220   1.297  1.3016  0.6772 -0.5021
39965SOL     OW21901  10.283   5.015   1.293 -0.7552 -0.0380 -0.3926
39965SOL    HW121902  10.316   4.946   1.236  1.2237 -0.1484  0.7771
39965SOL    HW221903  10.255   4.969   1.372  1.3374  0.4723  0.7283
39966SOL     OW21904   9.774   0.952   7.470 -0.2429  0.1965  0.1080
39966SOL    HW121905   9.848   1.008   7.450  0.9323 -1.0718  0.7679
39966SOL    HW221906   9.746   0.979   7.558 -0.0416  0.1325  0.1922
39967SOL     OW21907   3.491  10.147  10.830 -0.3507  0.0361  0.5957
39967SOL    HW121908   3.487  10.182  10.742 -0.5435 -4.8690 -1.6779
39967SOL    HW221909   3.400  10.138  10.857 -0.3720 -0.2642  0.4295
39968SOL     OW21910   2.531   6.566   3.103 -0.1477 -0.2415  0.1628
39968SOL    HW121911   2.546   6.620   3.180  0.4467  0.5320 -0.4724
39968SOL    HW221912   2.553   6.477   3.131  0.3152  0.0679  0.8089
39969SOL     OW21913   4.320   9.556   5.867 -0.5264  0.0864 -0.3180
39969SOL    HW121914   4.291   9.571   5.957  0.5492  1.2526 -0.1428
39969SOL    HW221915   4.310   9.641   5.824 -0.0650 -0.2063 -1.0226
39970SOL     OW21916   0.183   6.183   5.492 -0.2459  0.4325  0.1457
39970SOL    HW121917   0.177   6.158   5.584  1.2307  2.4045  0.8605
39970SOL    HW221918   0.260   6.240   5.488  0.4737 -0.5646 -2.5708
39971SOL     OW21919   3.938   0.248   0.512 -0.3471  0.2666  0.1031
39971SOL    HW121920   3.920   0.177   0.573 -0.5025 -0.3636 -0.6611
39971SOL    HW221921   3.854   0.292   0.502 -0.5665 -0.2511 -0.4179
39972SOL     OW21922   5.492   5.627   5.204  0.4915  0.0519  0.4978
39972SOL    HW121923   5.567   5.665   5.159 -0.8532  1.0061 -1.0262
39972SOL    HW221924   5.451   5.570   5.138 -0.7433  0.4184  0.9209
39973SOL     OW21925   8.953   6.409   8.423 -0.2414 -0.5664  0.0481
39973SOL    HW121926   8.956   6.314   8.415  0.1712 -0.5389 -0.1897
39973SOL    HW221927   8.892   6.426   8.494 -2.9915 -0.9001 -2.0390
39974SOL     OW21928   5.052   9.517   7.919 -0.7676  0.1621  0.0807
39974SOL    HW121929   4.985   9.512   7.851  0.3474 -0.1093 -1.0283
39974SOL    HW221930   5.134   9.525   7.871  0.0814 -0.3789  1.3979
39975SOL     OW21931   9.535   3.098   2.825 -0.0114  0.4234  0.2332
39975SOL    HW121932   9.453   3.125   2.867 -0.1529  0.8162 -0.2879
39975SOL    HW221933   9.582   3.180   2.810 -0.4499  0.3950 -1.3821
39976SOL     OW21934  10.871   8.596   4.705  0.4651 -0.2389 -0.0644
39976SOL    HW121935  10.782   8.572   4.730  1.0844 -1.7903  0.8439
39976SOL    HW221936  10.861   8.670   4.646 -1.4853 -0.9719 -0.7271
39977SOL     OW21937   2.605   8.726   0.070  0.5344 -0.4215 -0.4325
39977SOL    HW121938   2.529   8.712   0.014  0.5893  0.0334 -0.6242
39977SOL    HW221939   2.630   8.638   0.099 -0.7055 -0.4858  0.4912
39978SOL     OW21940   9.737   6.869   0.147  0.0392  0.3541  0.2448
39978SOL    HW121941   9.660   6.916   0.179  0.0988  0.1698  0.6648
39978SOL    HW221942   9.752   6.904   0.060  1.1300  2.4010  1.1963
39979SOL     OW21943   8.284   5.254   4.247  0.3043 -0.1947  0.0058
39979SOL    HW121944   8.323   5.195   4.312  0.4633  0.2670  0.3388
39979SOL    HW221945   8.302   5.212   4.163  1.7255  0.1067  0.1336
39980SOL     OW21946   9.967   2.211   9.366 -0.0386  0.1980 -1.1379
39980SOL    HW121947  10.030   2.152   9.324  0.5261  0.2246 -0.3511
39980SOL    HW221948   9.882   2.171   9.348  0.4233 -1.8573  0.8625
39981SOL     OW21949   1.650   1.922   1.707 -0.1418 -0.4914  0.4157
39981SOL    HW121950   1.581   1.972   1.751  1.4187  1.3649  0.9136
39981SOL    HW221951   1.604   1.854   1.658 -2.2564  0.3324  1.1596
39982SOL     OW21952  10.346   4.220   6.074 -0.6000 -0.3077 -0.5409
39982SOL    HW121953  10.352   4.315   6.066 -0.6418 -0.1986  0.5556
39982SOL    HW221954  10.384   4.201   6.160 -0.7895 -1.2657 -0.6570
39983SOL     OW21955   3.279   0.988   6.768 -0.0256  0.0692 -0.0635
39983SOL    HW121956   3.239   1.045   6.702  0.2693  0.7913  0.3714
39983SOL    HW221957   3.205   0.943   6.809 -0.4974  1.7762  1.0904
39984SOL     OW21958   5.806   8.614   5.302  0.2342  0.0105 -0.1772
39984SOL    HW121959   5.885   8.562   5.319  1.5145  1.6834 -0.7105
39984SOL    HW221960   5.809   8.632   5.208 -0.7893  0.0913 -0.2015
39985SOL     OW21961   3.423   1.186   1.932 -0.1789 -0.0135 -0.0274
39985SOL    HW121962   3.346   1.167   1.878  0.7842 -3.0031 -0.5705
39985SOL    HW221963   3.494   1.138   1.888  1.4160  0.4595  1.9121
39986SOL     OW21964   6.214   3.093   6.784 -0.3763 -0.4136  0.1840
39986SOL    HW121965   6.229   3.001   6.803 -1.1543 -0.3148  1.3764
39986SOL    HW221966   6.125   3.110   6.815  0.0502  0.9297  0.7625
39987SOL     OW21967   5.067   8.477   0.557  0.6041 -0.2792  0.2246
39987SOL    HW121968   5.155   8.448   0.533  1.1981  2.6665 -1.7487
39987SOL    HW221969   5.081   8.535   0.632  0.5196  0.7459 -0.5190
39988SOL     OW21970   9.677   9.227   9.011  0.3657 -0.0433  0.8141
39988SOL    HW121971   9.747   9.166   8.988  0.9372  0.7193  0.4892
39988SOL    HW221972   9.615   9.222   8.938  0.7966  0.3376  0.4231
39989SOL     OW21973   7.677   3.191   7.119  0.0053 -0.6002  0.1504
39989SOL    HW121974   7.628   3.137   7.181  0.6050 -1.2022  0.1090
39989SOL    HW221975   7.615   3.208   7.048 -0.6256 -0.0607  0.8256
39990SOL     OW21976   0.648   0.665   0.067  0.0714  0.3133 -0.0980
39990SOL    HW121977   0.696   0.669  -0.016 -0.7427  1.8792 -0.5315
39990SOL    HW221978   0.565   0.623   0.045  0.7686 -1.4347  0.4404
39991SOL     OW21979   2.516   9.940   4.299 -0.8502  0.2212 -0.2956
39991SOL    HW121980   2.447   9.993   4.259  0.2806  0.3877 -2.1198
39991SOL    HW221981   2.476   9.907   4.380 -3.6199 -0.9107 -1.9635
39992SOL     OW21982   4.230   4.921   1.586 -0.4968 -0.2836 -0.8020
39992SOL    HW121983   4.262   4.957   1.504  0.6660 -1.3996 -0.8736
39992SOL    HW221984   4.232   4.994   1.647 -0.1979  0.2658 -1.4541
39993SOL     OW21985   8.470   5.372   2.628  0.0350  0.0357 -0.0969
39993SOL    HW121986   8.480   5.451   2.577 -0.1766 -0.3413 -0.7310
39993SOL    HW221987   8.450   5.304   2.564  0.5238 -0.5930  0.4025
39994SOL     OW21988   5.442   0.539   5.777  0.8344 -0.1765 -0.4662
39994SOL    HW121989   5.424   0.633   5.781 -1.6150 -0.5710 -1.0164
39994SOL    HW221990   5.487   0.527   5.694  0.9807  0.4672 -0.4861
39995SOL     OW21991   8.763   2.789   2.582 -0.0957 -0.6193 -0.2720
39995SOL    HW121992   8.727   2.716   2.633 -0.8190  0.7963  1.3489
39995SOL    HW221993   8.812   2.841   2.646  0.5270  0.2565 -1.4172
39996SOL     OW21994   2.140  10.990   0.913  0.6662  0.1509  0.0772
39996SOL    HW121995   2.206  10.962   0.977 -1.0940  0.0917  1.9649
39996SOL    HW221996   2.191  11.026   0.841  2.7698  0.3572  1.5738
39997SOL     OW21997   8.311   2.963   8.814  0.2338 -0.5532  0.0286
39997SOL    HW121998   8.291   3.056   8.805  1.1901 -0.3987 -0.6214
39997SOL    HW221999   8.399   2.953   8.777 -0.7123 -2.0980 -1.9955
39998SOL     OW22000   5.917   1.410   5.460  0.0083  0.4055 -0.1493
39998SOL    HW122001   5.938   1.415   5.367 -0.5773 -1.9262 -0.4633
39998SOL    HW222002   6.002   1.410   5.504  0.3341  0.2392 -0.7695
39999SOL     OW22003   1.940   7.209   7.186 -0.4778 -0.1238  0.8299
39999SOL    HW122004   1.921   7.135   7.127 -0.7046  0.7408 -0.2178
39999SOL    HW222005   1.861   7.216   7.241 -1.2597  0.4744 -0.3177
40000SOL     OW22006   1.618   5.031   2.545 -0.0128 -0.3557 -0.2437
40000SOL    HW122007   1.682   5.074   2.488 -0.7713 -0.1909 -1.0103
40000SOL    HW222008   1.557   5.101   2.569  0.6398 -0.2908  1.3067
40001SOL     OW22009   8.631   9.714   8.839 -0.1153  0.2106 -0.3471
40001SOL    HW122010   8.726   9.721   8.843 -0.1373  1.2645 -1.2048
40001SOL    HW222011   8.610   9.730   8.747 -1.1272  0.0403 -0.1554
40002SOL     OW22012   0.513   1.188   4.096 -0.4144 -0.1015 -0.2035
40002SOL    HW122013   0.470   1.107   4.123 -1.3284  0.2525 -0.5324
40002SOL    HW222014   0.599   1.161   4.064  0.0760 -0.7032  1.5265
40003SOL     OW22015   8.098   4.947   0.838 -0.4649 -0.4092 -0.3932
40003SOL    HW122016   8.120   4.873   0.781  1.4448  0.8893 -1.4827
40003SOL    HW222017   8.182   4.973   0.876 -0.2165  3.4138 -2.9394
40004SOL     OW22018   8.765   8.899   3.737 -0.0472 -0.4240 -0.1959
40004SOL    HW122019   8.854   8.888   3.771 -0.1986 -1.5931 -0.1618
40004SOL    HW222020   8.768   8.983   3.690  0.4956  0.6320  1.6192
40005SOL     OW22021   7.863   7.879   1.677  0.4395 -0.1971  0.0384
40005SOL    HW122022   7.950   7.843   1.694  0.9301  0.0679 -1.6873
40005SOL    HW222023   7.854   7.876   1.581 -0.0823  2.8439 -0.1210
40006SOL     OW22024   6.849   5.133   6.382  0.3704  0.0064  0.2071
40006SOL    HW122025   6.874   5.060   6.325 -0.8041 -0.0413 -0.2948
40006SOL    HW222026   6.793   5.188   6.326  0.7829  0.9950  0.7445
40007SOL     OW22027   9.224   1.672  10.643  0.0966 -0.4825  0.5302
40007SOL    HW122028   9.243   1.596  10.587  0.9046  0.3592 -0.3610
40007SOL    HW222029   9.135   1.697  10.621  0.7417  0.4533 -1.1474
40008SOL     OW22030   8.168   6.100   6.759  0.1178 -0.4497 -0.1976
40008SOL    HW122031   8.115   6.174   6.731 -1.3464 -1.9230 -1.5841
40008SOL    HW222032   8.227   6.135   6.826 -1.4860  1.6143  0.2117
40009SOL     OW22033  10.849   7.131   4.294 -0.4237  0.5148  0.2343
40009SOL    HW122034  10.920   7.135   4.231 -0.9023 -1.5967 -0.5371
40009SOL    HW222035  10.891   7.144   4.379  0.6123  0.8941 -0.3206
40010SOL     OW22036   1.824   1.767  10.958 -0.3226  0.3406  0.1059
40010SOL    HW122037   1.759   1.787  11.025  0.6300 -2.6307  2.1494
40010SOL    HW222038   1.836   1.672  10.964  1.1150  0.1954 -3.1370
40011SOL     OW22039   0.077   7.276   3.628 -0.0521  0.0041  0.3183
40011SOL    HW122040   0.068   7.212   3.557 -0.5572 -1.7074  1.8201
40011SOL    HW222041   0.170   7.273   3.651  0.3938  1.6102 -1.1454
40012SOL     OW22042   8.338  10.508   3.085 -0.0134  0.0370  0.5239
40012SOL    HW122043   8.285  10.524   3.163  0.2065  0.7451  0.5354
40012SOL    HW222044   8.427  10.494   3.119  0.3272  1.5968  0.3316
40013SOL     OW22045   4.635   5.700   6.228  0.7095 -0.8434 -0.0926
40013SOL    HW122046   4.572   5.683   6.298  0.3677  0.3353 -0.0861
40013SOL    HW222047   4.586   5.684   6.147 -0.0027  1.1274 -0.1222
40014SOL     OW22048   2.431   3.966   4.620 -0.0664  0.8231  0.4926
40014SOL    HW122049   2.412   3.874   4.601  0.3606  0.8069  0.1418
40014SOL    HW222050   2.368   4.014   4.566 -0.2372  0.7393  0.6154
40015SOL     OW22051   7.518   6.110   1.868 -0.0928 -0.6047 -0.2477
40015SOL    HW122052   7.594   6.110   1.810 -0.0468  0.1459 -0.2013
40015SOL    HW222053   7.552   6.081   1.952 -0.0174 -1.0274 -0.4243
40016SOL     OW22054   7.805   0.147   3.936 -0.4648  0.1237  0.3487
40016SOL    HW122055   7.888   0.183   3.904  0.4307 -1.4882  0.7420
40016SOL    HW222056   7.815   0.053   3.927 -2.1887 -0.1131  0.6172
40017SOL     OW22057   0.403   0.685   1.261  0.5794 -0.4322  0.0290
40017SOL    HW122058   0.312   0.692   1.288 -0.1303  0.5955 -2.4002
40017SOL    HW222059   0.399   0.652   1.171  2.7290 -2.5099  0.5931
40018SOL     OW22060   6.100   6.105   4.307 -0.2333  0.0259  0.0992
40018SOL    HW122061   6.070   6.150   4.228  1.0682 -0.5389 -0.7544
40018SOL    HW222062   6.021   6.069   4.346 -0.9252  0.5019 -0.8255
40019SOL     OW22063   0.354  10.845   2.688  0.0512  0.8933  0.3909
40019SOL    HW122064   0.431  10.892   2.655  0.4803  0.0985  0.2314
40019SOL    HW222065   0.291  10.914   2.710  0.7740  1.5489  0.4352
40020SOL     OW22066   3.462   1.817   5.573  0.5090  0.6966  0.0359
40020SOL    HW122067   3.543   1.851   5.536  1.0676  1.1340  1.5925
40020SOL    HW222068   3.430   1.887   5.630 -0.6801  0.3240 -0.1398
40021SOL     OW22069   2.650   8.410   3.109 -0.0883 -0.0586 -0.1927
40021SOL    HW122070   2.589   8.356   3.160  0.0134 -0.0413 -0.0510
40021SOL    HW222071   2.600   8.489   3.089 -0.0365  0.0626  0.1357
40022SOL     OW22072   5.007   5.397   3.095  0.1579 -0.0342 -0.0458
40022SOL    HW122073   5.095   5.410   3.060 -0.1422  0.6241 -0.5963
40022SOL    HW222074   4.998   5.464   3.163 -1.1035  2.3276 -2.3335
40023SOL     OW22075   1.505   6.296   9.801  0.5919  0.7869 -0.5501
40023SOL    HW122076   1.559   6.375   9.799  0.3832  0.9242 -0.7933
40023SOL    HW222077   1.417   6.327   9.823  0.9340  0.3729  1.5898
40024SOL     OW22078   2.570   8.967   3.843 -0.2848 -0.0404  0.2128
40024SOL    HW122079   2.517   9.044   3.861  1.1832  1.3593 -1.1594
40024SOL    HW222080   2.654   8.984   3.886 -0.1856 -1.2537  0.5572
40025SOL     OW22081   9.725   2.260  10.118  0.1007  0.1655  0.5291
40025SOL    HW122082   9.679   2.331  10.073 -1.3298 -0.6592  0.6314
40025SOL    HW222083   9.809   2.298  10.143 -1.2986  2.4252  2.1744
40026SOL     OW22084   1.907   6.680   6.237  0.3931 -0.7677 -0.2268
40026SOL    HW122085   1.947   6.702   6.321  1.1525  1.1464 -1.0307
40026SOL    HW222086   1.980   6.678   6.175 -0.4081  0.1414 -1.2451
40027SOL     OW22087   4.690   4.366   6.753  0.3767  0.4079  0.9060
40027SOL    HW122088   4.685   4.450   6.707  1.0498 -0.2743 -0.4920
40027SOL    HW222089   4.728   4.388   6.838  0.8959  1.4749  0.4247
40028SOL     OW22090   1.423   9.985   5.714 -0.3940 -0.2009  0.3747
40028SOL    HW122091   1.483  10.055   5.687  1.2479 -2.3352 -2.0541
40028SOL    HW222092   1.422   9.991   5.809  1.7157  1.5159  0.3997
40029SOL     OW22093   9.640   1.892   5.364 -0.3269 -0.7353  0.4026
40029SOL    HW122094   9.704   1.957   5.335 -1.4543 -0.1069 -0.8379
40029SOL    HW222095   9.591   1.870   5.284 -1.2947 -1.5836  1.2019
40030SOL     OW22096   6.329   7.574  10.102  0.5473 -1.0716  0.3507
40030SOL    HW122097   6.306   7.507  10.037  0.9624 -1.0789  0.2125
40030SOL    HW222098   6.265   7.644  10.087  1.2033 -0.6678 -0.6884
40031SOL     OW22099  10.817  10.616   6.672 -0.0898 -0.3487 -0.3018
40031SOL    HW122100  10.815  10.667   6.591  0.4197 -1.2895 -0.9220
40031SOL    HW222101  10.726  10.591   6.687 -0.3021  0.5156 -0.1340
40032SOL     OW22102   0.675   2.883   8.537  0.4093  0.4171  0.1893
40032SOL    HW122103   0.712   2.873   8.450  1.2041  0.7512  0.4847
40032SOL    HW222104   0.750   2.894   8.595  0.1819 -3.0770  1.4158
40033SOL     OW22105   4.509   5.670   6.597 -0.1184  0.1649 -0.5382
40033SOL    HW122106   4.455   5.664   6.518  2.0290  0.5189 -2.1151
40033SOL    HW222107   4.566   5.594   6.592  1.1444  1.0710 -0.1993
40034SOL     OW22108   3.023   1.916   2.288 -0.0896 -0.2527  0.1087
40034SOL    HW122109   2.936   1.908   2.249 -0.2217  1.5402 -0.0749
40034SOL    HW222110   3.017   1.994   2.344  1.0435 -0.8426  1.1105
40035SOL     OW22111   3.703   9.935   9.051  0.4714  0.2082 -0.7773
40035SOL    HW122112   3.667  10.019   9.026  1.4623  0.7642 -0.3840
40035SOL    HW222113   3.690   9.930   9.146 -2.5649 -1.5480 -1.1507
40036SOL     OW22114   3.210   3.836  10.312 -0.8265 -0.2923 -0.1687
40036SOL    HW122115   3.116   3.855  10.307 -1.0182 -1.3492 -1.0305
40036SOL    HW222116   3.245   3.864  10.228 -0.2301  0.6736  0.3776
40037SOL     OW22117   6.057   0.430   5.229 -0.2164 -0.2642  0.0834
40037SOL    HW122118   5.989   0.367   5.251  0.2190 -0.5713  0.5757
40037SOL    HW222119   6.114   0.432   5.306 -0.0302  0.4763 -0.0614
40038SOL     OW22120   8.526   8.814   3.871 -0.4529  0.2532  0.3997
40038SOL    HW122121   8.466   8.858   3.811 -0.5118  0.5355  0.6644
40038SOL    HW222122   8.613   8.831   3.834 -0.5119  0.1434  0.2112
40039SOL     OW22123   0.700   0.903   3.561  0.2276  0.6039 -0.1180
40039SOL    HW122124   0.684   0.818   3.602 -2.9798  0.5102 -1.3059
40039SOL    HW222125   0.675   0.890   3.470 -0.1590  2.7707 -0.3617
40040SOL     OW22126   0.855   1.760   3.843  0.1032  0.1312 -0.5587
40040SOL    HW122127   0.855   1.768   3.748  0.8708  0.7072 -0.5216
40040SOL    HW222128   0.812   1.840   3.874  1.0869  0.5998 -0.3868
40041SOL     OW22129   3.033  10.498   9.713  0.4035  0.4492 -0.1318
40041SOL    HW122130   3.033  10.502   9.617 -2.3329  0.0036 -0.2096
40041SOL    HW222131   3.017  10.406   9.733  0.7880  0.5681  0.7739
40042SOL     OW22132   5.988   7.314   5.104 -0.0328 -0.3658  0.1649
40042SOL    HW122133   6.066   7.275   5.144 -0.6997 -0.3382  1.5536
40042SOL    HW222134   6.011   7.324   5.012  1.2207 -1.3319  0.3428
40043SOL     OW22135   6.445   6.327   0.207  0.0032 -0.1987 -0.8416
40043SOL    HW122136   6.372   6.289   0.157  0.5151 -1.3145 -0.7827
40043SOL    HW222137   6.504   6.253   0.222 -0.3701 -0.0573  1.8575
40044SOL     OW22138   3.402   9.215  10.034  0.4999  0.2023 -0.1739
40044SOL    HW122139   3.405   9.294  10.088  1.0229 -0.1057  0.2656
40044SOL    HW222140   3.472   9.227   9.970  0.4401  0.1928 -0.2405
40045SOL     OW22141   8.577   1.789   1.980 -0.3526  0.2883 -0.0675
40045SOL    HW122142   8.496   1.748   2.011  0.0364 -0.1289  0.4094
40045SOL    HW222143   8.596   1.857   2.044  0.5843 -0.7379  0.7828
40046SOL     OW22144   5.780   4.492   3.227 -0.1258 -0.0579 -0.1635
40046SOL    HW122145   5.860   4.498   3.280  0.5516 -0.6659 -1.0773
40046SOL    HW222146   5.724   4.431   3.274  0.0513  0.1850  0.3644
40047SOL     OW22147   6.027   8.070   9.771 -0.8593 -0.0459 -0.3708
40047SOL    HW122148   6.000   7.987   9.808  0.4588  0.4001  1.7726
40047SOL    HW222149   6.111   8.051   9.728  1.1133  0.6569  2.8742
40048SOL     OW22150   1.623   2.121   2.348 -0.0214  0.3636 -0.2038
40048SOL    HW122151   1.667   2.051   2.397  0.0479  0.6067  0.0861
40048SOL    HW222152   1.693   2.180   2.322 -0.1633  0.7190  0.2056
40049SOL     OW22153   9.410  10.684   4.729  0.3436 -0.5156 -0.0096
40049SOL    HW122154   9.381  10.623   4.797  1.1414  0.4798  1.2740
40049SOL    HW222155   9.357  10.662   4.653 -1.4543 -0.8651  1.2941
40050SOL     OW22156  10.426   0.604   4.602 -0.0597 -0.0752 -0.4965
40050SOL    HW122157  10.485   0.530   4.614  2.0881  1.4662 -1.0334
40050SOL    HW222158  10.438   0.658   4.681  0.2029  0.8605 -1.1585
40051SOL     OW22159  10.278  10.217   5.047  0.2191 -0.6229  0.6398
40051SOL    HW122160  10.231  10.297   5.066  0.3595 -0.2077 -0.6689
40051SOL    HW222161  10.367  10.245   5.025 -0.1735 -0.9191 -1.5749
40052SOL     OW22162   0.168   9.415   2.911 -0.3232 -0.7116  0.6627
40052SOL    HW122163   0.146   9.325   2.886 -2.4177 -0.1767  0.3883
40052SOL    HW222164   0.106   9.470   2.863  0.7977  0.8893  0.9536
40053SOL     OW22165   9.817   0.701   1.361 -0.3193 -0.2230  0.2800
40053SOL    HW122166   9.870   0.780   1.354 -0.7272  0.0400  0.1729
40053SOL    HW222167   9.842   0.650   1.283 -1.2138  0.5082 -0.5092
40054SOL     OW22168   0.368   2.203   9.116  0.9348  0.1138 -0.1764
40054SOL    HW122169   0.397   2.143   9.185  0.8902  0.2742 -0.0149
40054SOL    HW222170   0.272   2.205   9.125  0.9764  0.6346  0.1823
40055SOL     OW22171   7.767   3.866   8.786  0.2297 -0.2565  0.6914
40055SOL    HW122172   7.821   3.848   8.863  2.0782  1.6317 -0.0644
40055SOL    HW222173   7.748   3.960   8.791  0.9041  0.0427 -1.4341
40056SOL     OW22174   3.045   6.771   7.802  0.5628 -0.2940  0.1422
40056SOL    HW122175   3.032   6.860   7.836  1.8518 -0.2741  0.6247
40056SOL    HW222176   3.097   6.783   7.723 -0.8656 -0.4879 -0.8490
40057SOL     OW22177   4.918   2.664   3.656  0.1579  0.7442 -0.6763
40057SOL    HW122178   4.870   2.585   3.630 -3.5529  1.7127  2.3973
40057SOL    HW222179   4.866   2.736   3.621  0.1555  1.8567  1.4907
40058SOL     OW22180   6.747   3.136   1.728  0.1736  0.0872  0.1289
40058SOL    HW122181   6.807   3.181   1.669 -0.1408 -0.7272 -0.8416
40058SOL    HW222182   6.695   3.079   1.671 -0.9991  0.1994  1.0375
40059SOL     OW22183   5.090   3.494   3.942 -0.5809  0.5061 -0.4921
40059SOL    HW122184   5.023   3.477   4.009  1.7561  0.9817  2.1630
40059SOL    HW222185   5.093   3.589   3.935  0.8181  0.5861  0.6364
40060SOL     OW22186   7.112   8.284   9.525  0.2947 -0.9991 -0.3541
40060SOL    HW122187   7.195   8.332   9.518  0.5100 -1.4989 -1.5295
40060SOL    HW222188   7.133   8.207   9.579  0.2153 -0.3712  0.5984
40061SOL     OW22189   7.180   3.134   7.133  0.5151  0.4693  0.2306
40061SOL    HW122190   7.092   3.119   7.165  0.1426 -0.0675 -0.9824
40061SOL    HW222191   7.221   3.191   7.199 -0.1012 -0.8066  1.7598
40062SOL     OW22192   0.467   8.299   6.698 -0.0118 -0.4066 -0.3254
40062SOL    HW122193   0.462   8.340   6.611 -1.1480  0.2861  0.0526
40062SOL    HW222194   0.376   8.295   6.728  0.2440 -1.6929  0.3631
40063SOL     OW22195  10.983   0.561   7.611 -0.4448  0.3429 -0.1910
40063SOL    HW122196  10.990   0.588   7.519  0.6154 -2.2055 -0.9550
40063SOL    HW222197  11.073   0.541   7.637 -0.8938 -0.3183  0.9339
40064SOL     OW22198   1.499   8.114   7.122 -0.2903  0.1377 -0.3367
40064SOL    HW122199   1.542   8.031   7.145  1.4565  1.0413 -0.2475
40064SOL    HW222200   1.532   8.136   7.035 -0.4485  0.9383 -0.2014
40065SOL     OW22201   2.175   2.872   9.990 -0.1317  0.4876  0.7591
40065SOL    HW122202   2.191   2.959  10.026  1.0394  1.5924 -2.1701
40065SOL    HW222203   2.259   2.846   9.952 -0.4889 -1.9031  1.4388
40066SOL     OW22204   0.923   2.723   5.715 -0.6111  0.1369  0.2457
40066SOL    HW122205   0.831   2.702   5.732 -1.3613  1.4620 -1.7140
40066SOL    HW222206   0.962   2.640   5.688 -1.6400 -0.1478 -0.4230
40067SOL     OW22207   0.505   9.330   8.860 -0.1551  0.1119  0.5875
40067SOL    HW122208   0.467   9.246   8.834  0.9465  0.5145 -2.8689
40067SOL    HW222209   0.568   9.309   8.929  0.2690 -1.9517 -0.3730
40068SOL     OW22210  10.017  10.786   0.482  0.1135 -0.1328  0.1887
40068SOL    HW122211  10.037  10.779   0.389 -2.0659  1.4356 -0.4687
40068SOL    HW222212  10.101  10.805   0.524  0.8914  0.5871 -1.6386
40069SOL     OW22213   8.340   8.644   7.868 -0.1344 -0.1553 -0.0405
40069SOL    HW122214   8.302   8.617   7.785 -1.0039 -1.2248  0.6786
40069SOL    HW222215   8.267   8.645   7.930 -0.2733  4.1625  0.0226
40070SOL     OW22216   1.017   7.499   5.447 -0.4060 -0.4921 -0.5431
40070SOL    HW122217   0.988   7.434   5.511 -0.7290  0.4455  0.2930
40070SOL    HW222218   0.936   7.532   5.409 -0.3310  0.4670  0.1062
40071SOL     OW22219   3.097   5.798   0.693  0.1039 -0.4479 -0.1951
40071SOL    HW122220   3.068   5.879   0.735 -0.0270 -0.5258 -0.1384
40071SOL    HW222221   3.023   5.738   0.700 -0.1785 -0.2306 -1.1540
40072SOL     OW22222  10.238   5.603   2.354 -0.2309 -0.0796  0.6094
40072SOL    HW122223  10.183   5.526   2.362 -2.0371  1.0651 -0.1840
40072SOL    HW222224  10.249   5.634   2.444 -0.4019 -0.6398  0.8269
40073SOL     OW22225   0.064   7.077   0.235 -0.1957 -0.5043 -0.2484
40073SOL    HW122226   0.080   7.099   0.143 -1.4199  2.4091  0.0895
40073SOL    HW222227   0.008   7.000   0.232 -1.2383  0.2543 -2.0594
40074SOL     OW22228   6.091   4.138   9.434 -0.4068  0.0918  0.1837
40074SOL    HW122229   6.094   4.064   9.496  0.0306  0.9304  1.1984
40074SOL    HW222230   6.162   4.121   9.372  0.2666  0.0960  0.9354
40075SOL     OW22231   0.150   3.177   6.559 -0.2219 -0.0442 -0.6765
40075SOL    HW122232   0.166   3.101   6.504  0.4788 -0.7531  0.4692
40075SOL    HW222233   0.222   3.237   6.539 -0.7043  0.2786 -1.4859
40076SOL     OW22234   6.783   6.954   1.840 -0.3569  0.5050  0.5161
40076SOL    HW122235   6.862   6.916   1.878 -0.7189 -1.0574 -0.2234
40076SOL    HW222236   6.718   6.884   1.842 -0.8230  0.7859 -1.6425
40077SOL     OW22237   4.304   2.715   1.219  0.6553 -0.1819  0.0493
40077SOL    HW122238   4.301   2.785   1.284 -0.7340 -0.3879  0.2331
40077SOL    HW222239   4.391   2.723   1.179 -0.3918  3.4120 -1.8914
40078SOL     OW22240   8.730  10.878  10.115 -0.1057 -0.0842 -0.3750
40078SOL    HW122241   8.749  10.927  10.036 -1.9935  1.4483  0.0477
40078SOL    HW222242   8.668  10.811  10.087 -1.5571  1.0855 -0.0768
40079SOL     OW22243   2.812  10.692  10.651 -0.3150  0.0569  0.5591
40079SOL    HW122244   2.838  10.674  10.742  0.8767 -1.1117  0.0237
40079SOL    HW222245   2.895  10.702  10.604 -0.8695  3.4082  0.0420
40080SOL     OW22246  10.743   2.843   3.433  0.0588 -0.1769 -0.2659
40080SOL    HW122247  10.685   2.811   3.365 -0.3662 -0.3836  0.1880
40080SOL    HW222248  10.830   2.809   3.409  0.2269  1.0592 -1.5509
40081SOL     OW22249   6.726   3.237   4.452 -0.5768  0.1255 -0.3497
40081SOL    HW122250   6.802   3.186   4.481  0.9165  0.5598 -3.0605
40081SOL    HW222251   6.702   3.197   4.368 -1.9408  1.3912 -0.5933
40082SOL     OW22252   1.342  10.200   2.322 -0.0441  0.3813  0.0510
40082SOL    HW122253   1.285  10.226   2.394  1.1231  0.9060  0.8095
40082SOL    HW222254   1.394  10.129   2.357  1.4304  1.4790  0.1833
40083SOL     OW22255   0.577   5.022   0.806 -0.0876 -0.2477  0.2906
40083SOL    HW122256   0.651   5.038   0.748 -2.2854  1.4072 -2.3344
40083SOL    HW222257   0.606   4.951   0.864  3.1148 -0.3655 -1.2601
40084SOL     OW22258   1.865  10.537   0.522  0.3320 -0.2404 -0.1254
40084SOL    HW122259   1.842  10.541   0.429  1.3828  1.3797 -0.3579
40084SOL    HW222260   1.955  10.570   0.526  0.5088 -0.8239  1.4055
40085SOL     OW22261   6.937   1.253   2.458 -0.9831  0.3391  0.0737
40085SOL    HW122262   6.969   1.217   2.541  2.5505  0.2032 -1.1827
40085SOL    HW222263   6.890   1.180   2.417  0.1720 -0.7013  0.5371
40086SOL     OW22264   1.317   6.944   6.073  0.1745 -0.1971  0.6569
40086SOL    HW122265   1.292   6.984   5.990  2.4898  3.1149  1.3540
40086SOL    HW222266   1.249   6.971   6.134  0.6777  1.1714  0.6698
40087SOL     OW22267  10.945   7.503   8.741  0.5651 -0.1107  0.4644
40087SOL    HW122268  10.968   7.497   8.649  1.2278 -2.5156  0.7058
40087SOL    HW222269  10.875   7.567   8.745  0.4378 -0.0497 -1.7200
40088SOL     OW22270   9.517  10.651   3.889  0.6531 -0.2435  0.1939
40088SOL    HW122271   9.596  10.691   3.851 -0.8195  1.4071 -1.3524
40088SOL    HW222272   9.489  10.714   3.956  0.7761 -0.9630  0.9358
40089SOL     OW22273   1.665   4.860   0.255 -0.1888  0.1786 -0.3368
40089SOL    HW122274   1.736   4.903   0.303 -0.8886  1.8560 -0.7405
40089SOL    HW222275   1.586   4.908   0.280 -1.0772 -1.1214 -0.5440
40090SOL     OW22276   9.646   4.664   6.894 -0.5532 -0.3010 -0.7307
40090SOL    HW122277   9.615   4.596   6.834 -0.2036 -2.6670  1.5730
40090SOL    HW222278   9.737   4.639   6.913 -1.0778 -0.5866  1.8662
40091SOL     OW22279   3.188   4.756   5.331  0.4640 -0.0599 -0.3135
40091SOL    HW122280   3.252   4.686   5.341  0.3580 -0.0682  0.3855
40091SOL    HW222281   3.207   4.794   5.246  0.3884 -1.0727 -0.7962
40092SOL     OW22282   1.224   6.241   9.862 -0.0809  0.0128  0.2350
40092SOL    HW122283   1.153   6.180   9.885  0.3767 -0.9868 -0.8970
40092SOL    HW222284   1.211   6.259   9.769  0.7923  0.2971  0.1585
40093SOL     OW22285   8.779   4.595   0.365 -0.1972  0.1375 -0.2641
40093SOL    HW122286   8.764   4.598   0.459 -1.5398 -0.0293 -0.4538
40093SOL    HW222287   8.820   4.679   0.344  1.9515 -0.5689  0.7236
40094SOL     OW22288   0.503   6.268   8.669  0.1284  0.3600 -0.1954
40094SOL    HW122289   0.493   6.193   8.611 -0.8813 -0.4513  0.9525
40094SOL    HW222290   0.578   6.316   8.635  0.9155 -1.2697 -0.8613
40095SOL     OW22291  10.454   6.980   9.288  0.5665 -0.1153  0.1263
40095SOL    HW122292  10.515   6.933   9.344  1.2086  0.8275  0.2228
40095SOL    HW222293  10.443   7.065   9.329  0.2211  0.2052 -0.6065
40096SOL     OW22294   9.297   9.270   5.358  0.4879 -0.1161  0.1880
40096SOL    HW122295   9.337   9.351   5.393  0.7957 -0.2686  0.1966
40096SOL    HW222296   9.239   9.301   5.289 -1.4083  0.3529  1.8901
40097SOL     OW22297   3.179   9.196   7.406  0.1904 -0.3856  0.0810
40097SOL    HW122298   3.122   9.130   7.366 -1.5159  0.5661  0.7987
40097SOL    HW222299   3.226   9.149   7.474 -0.6281 -0.9760  0.2601
40098SOL     OW22300   8.641   4.318   8.530  0.3855 -0.4945  0.1810
40098SOL    HW122301   8.629   4.389   8.466  0.5487  2.5459  3.1943
40098SOL    HW222302   8.551   4.290   8.551  0.0870  1.0273  1.0990
40099SOL     OW22303   7.036  10.314   4.979 -0.4408  0.3728  0.5322
40099SOL    HW122304   6.981  10.260   4.922 -0.1343  1.0000 -0.3927
40099SOL    HW222305   6.982  10.391   4.998 -0.3020  0.4685  0.5423
40100SOL     OW22306   5.183   9.377   5.992 -0.1608  0.1228 -0.0414
40100SOL    HW122307   5.182   9.445   6.060  1.1405 -0.3931  0.5365
40100SOL    HW222308   5.160   9.297   6.039  0.8863 -0.2612 -0.1539
40101SOL     OW22309  10.548   0.789   5.249  0.6551  0.0491 -0.6305
40101SOL    HW122310  10.596   0.862   5.211  0.3820 -0.0981 -1.2758
40101SOL    HW222311  10.611   0.746   5.307  0.3427  1.7465  1.0516
40102SOL     OW22312   8.546   8.521   0.875 -0.1274 -0.1578 -0.5837
40102SOL    HW122313   8.539   8.498   0.782 -1.6063 -0.1141 -0.5050
40102SOL    HW222314   8.594   8.604   0.875  1.2952 -0.9462 -1.1813
40103SOL     OW22315   9.359   8.005   1.680 -0.9401 -0.3335  0.3198
40103SOL    HW122316   9.334   7.992   1.771 -0.7288 -0.9949  0.2878
40103SOL    HW222317   9.329   8.093   1.659 -3.1887 -1.0205  0.3150
40104SOL     OW22318   4.614   0.950   7.303 -0.3337  0.0445 -0.0599
40104SOL    HW122319   4.596   0.936   7.396  0.1099  0.7372  0.1401
40104SOL    HW222320   4.547   0.899   7.257 -0.0750 -0.9374  0.6269
40105SOL     OW22321   3.250   0.043   5.925 -0.0140 -0.6589 -0.3239
40105SOL    HW122322   3.314   0.089   5.872  1.4373 -0.1461  1.7498
40105SOL    HW222323   3.196   0.112   5.964  0.5131 -0.8515  0.7724
40106SOL     OW22324   4.727   6.607   7.062 -1.0923  0.4886 -0.3472
40106SOL    HW122325   4.753   6.530   7.012 -0.6263  0.6376 -0.3471
40106SOL    HW222326   4.666   6.575   7.128  1.7856 -0.5742  2.0520
40107SOL     OW22327   7.713   6.514   9.173 -0.4302 -0.2357  0.4337
40107SOL    HW122328   7.795   6.540   9.131 -0.2817  1.0546  1.4425
40107SOL    HW222329   7.655   6.590   9.161 -0.6498 -0.1595  1.7936
40108SOL     OW22330   5.097   8.056  10.880  0.3551  0.0038 -0.0676
40108SOL    HW122331   5.190   8.036  10.873  0.1625 -0.8837 -0.2164
40108SOL    HW222332   5.059   7.978  10.921 -0.4258  0.0753 -0.6346
40109SOL     OW22333   9.970   8.789   8.963  0.1341 -1.2289  0.2855
40109SOL    HW122334  10.028   8.713   8.966  1.9678  0.1024 -0.0977
40109SOL    HW222335  10.028   8.864   8.953 -1.6205  0.2524  0.6119
40110SOL     OW22336   6.032   0.427   0.735 -0.3284 -0.0151 -0.3748
40110SOL    HW122337   6.079   0.470   0.806 -0.5439  0.4259 -0.4953
40110SOL    HW222338   6.091   0.432   0.660 -0.6882  0.8209 -0.6102
40111SOL     OW22339   9.818   2.415   7.789  0.7042  0.6399 -0.5953
40111SOL    HW122340   9.896   2.375   7.752  1.3103  0.9615  0.3035
40111SOL    HW222341   9.799   2.489   7.731  0.8065  0.3026 -1.0614
40112SOL     OW22342   2.572   8.408   4.177 -0.2370 -0.1037  0.5473
40112SOL    HW122343   2.614   8.408   4.264  1.8685 -0.4288 -0.4058
40112SOL    HW222344   2.530   8.493   4.171  1.7577  0.9701  0.9407
40113SOL     OW22345  10.280   6.143   1.822 -0.1427 -0.5411 -0.6417
40113SOL    HW122346  10.249   6.072   1.766  1.1560 -2.2667  0.6998
40113SOL    HW222347  10.367   6.115   1.850  0.2786  1.4584  0.1922
40114SOL     OW22348   0.584  10.036   1.123 -0.0041 -0.1300  0.7180
40114SOL    HW122349   0.541  10.050   1.039 -0.1348  0.8750  0.9371
40114SOL    HW222350   0.512  10.015   1.184 -0.0351  0.2053  0.7992
40115SOL     OW22351   7.699  10.284   6.245  0.0181 -0.3303  0.3391
40115SOL    HW122352   7.642  10.358   6.266 -0.3259 -0.2887 -0.6684
40115SOL    HW222353   7.721  10.246   6.330 -0.7229  0.2389  0.8021
40116SOL     OW22354   7.453   6.015   7.906  0.0728 -0.1709  0.0767
40116SOL    HW122355   7.431   5.922   7.909 -0.6720 -0.0166 -0.4270
40116SOL    HW222356   7.428   6.048   7.992 -0.7176 -0.2092 -0.1352
40117SOL     OW22357   1.593   1.656   8.300  0.0980 -0.5021 -0.1078
40117SOL    HW122358   1.584   1.633   8.393  1.2804 -1.9471 -0.3084
40117SOL    HW222359   1.506   1.642   8.264 -0.3468 -0.0509  0.7564
40118SOL     OW22360   4.705   8.387   5.961 -0.2946 -0.5220  0.7158
40118SOL    HW122361   4.637   8.451   5.939  0.8988  0.6594  0.3584
40118SOL    HW222362   4.726   8.345   5.878  1.2811  1.0281  0.2672
40119SOL     OW22363   8.382  10.829   1.851  0.3753  0.2391 -0.3773
40119SOL    HW122364   8.318  10.760   1.839  0.8814 -0.4870  0.9035
40119SOL    HW222365   8.417  10.845   1.763 -2.8095  1.9826 -1.5059
40120SOL     OW22366   1.977   7.543   0.402  0.4338 -0.2611 -0.2694
40120SOL    HW122367   1.981   7.559   0.307 -1.1949  2.1442 -0.0359
40120SOL    HW222368   2.011   7.624   0.441  0.0778 -0.7811  1.1951
40121SOL     OW22369   7.978   3.007   3.338 -0.0442 -0.1567  0.4888
40121SOL    HW122370   7.987   3.069   3.411 -1.8330  0.8825 -0.1125
40121SOL    HW222371   8.007   3.057   3.261 -1.3464 -0.0597  0.0262
40122SOL     OW22372   5.751   1.600  10.175 -0.2018  0.2747 -0.0636
40122SOL    HW122373   5.803   1.521  10.189 -0.3629 -0.1675 -1.6982
40122SOL    HW222374   5.664   1.579  10.210 -0.0371  0.0139  0.1920
40123SOL     OW22375   7.416   4.149   0.978 -0.0593 -0.0833  0.0930
40123SOL    HW122376   7.487   4.103   1.022  1.2721 -0.7903 -2.6238
40123SOL    HW222377   7.455   4.231   0.948 -0.1798 -0.6820 -1.8297
40124SOL     OW22378   9.091   0.382   0.424 -0.4717 -0.4832  0.1193
40124SOL    HW122379   9.049   0.395   0.509 -0.2383 -0.3959  0.2209
40124SOL    HW222380   9.136   0.298   0.432 -0.1552 -0.3093  0.2044
40125SOL     OW22381   1.693   1.840   9.270 -0.2518  0.3158 -0.4222
40125SOL    HW122382   1.724   1.769   9.213  1.8934 -0.2664  1.3270
40125SOL    HW222383   1.688   1.916   9.213 -1.8984 -1.0052 -2.1941
40126SOL     OW22384   8.019   0.292  10.862 -0.2293  0.1929 -0.2563
40126SOL    HW122385   8.025   0.387  10.869 -0.7944  0.2868 -0.9530
40126SOL    HW222386   7.930   0.272  10.891  0.0293 -0.1705  0.3002
40127SOL     OW22387   6.270  10.699   7.933 -0.4154  0.1029  0.0855
40127SOL    HW122388   6.263  10.606   7.910  0.4119 -0.3006  1.3587
40127SOL    HW222389   6.183  10.723   7.966 -0.3614 -0.5050  0.6966
40128SOL     OW22390   4.275   7.173   1.356  0.0071 -0.1601  0.3251
40128SOL    HW122391   4.272   7.254   1.305  1.8908  0.9521  1.8357
40128SOL    HW222392   4.291   7.202   1.446  1.8852 -2.2233  0.7344
40129SOL     OW22393  10.843   4.217   7.009  0.4707 -0.0851 -0.3577
40129SOL    HW122394  10.932   4.208   7.044  0.6263  0.7721 -0.5121
40129SOL    HW222395  10.837   4.308   6.981 -0.8102  0.1582  0.6204
40130SOL     OW22396   7.393   6.264   0.828  0.2922  0.0988 -0.2190
40130SOL    HW122397   7.377   6.193   0.766 -0.9716 -0.3371  0.5555
40130SOL    HW222398   7.449   6.225   0.895 -1.0705 -0.4529  0.6390
40131SOL     OW22399   7.513   3.413   8.058  0.0747  0.7713 -0.1050
40131SOL    HW122400   7.451   3.362   8.007  0.5763 -0.6852  0.6625
40131SOL    HW222401   7.461   3.449   8.130 -0.1512  0.7154 -0.2403
40132SOL     OW22402  10.188  10.583   3.325  0.2580  0.3205  0.3101
40132SOL    HW122403  10.242  10.630   3.261 -0.7941  2.4287  0.8621
40132SOL    HW222404  10.104  10.572   3.281  0.1029  0.0986  0.6610
40133SOL     OW22405   3.193   7.759   3.289  0.4314  0.4489 -0.1517
40133SOL    HW122406   3.183   7.667   3.265 -0.4963  0.6475 -0.5618
40133SOL    HW222407   3.131   7.773   3.360  0.8655  0.6616  0.1902
40134SOL     OW22408  10.956   9.360   9.494  0.2809  0.4065 -0.1096
40134SOL    HW122409  11.006   9.295   9.543  1.4599  2.2477  1.2899
40134SOL    HW222410  10.866   9.349   9.523  0.6816  0.2426  1.1150
40135SOL     OW22411   6.572   9.989   9.134  0.5007 -0.1606 -0.2957
40135SOL    HW122412   6.551  10.074   9.096 -2.4865  0.0654  1.4863
40135SOL    HW222413   6.600  10.009   9.223 -0.0352 -1.0022  0.0727
40136SOL     OW22414   8.497   7.894   1.247 -0.8970  0.2115  0.1900
40136SOL    HW122415   8.459   7.855   1.168  0.0271  0.0030 -0.1621
40136SOL    HW222416   8.569   7.947   1.215  0.7742 -1.4398  1.0219
40137SOL     OW22417  10.787   7.084   5.504 -0.2954  0.5588  0.4197
40137SOL    HW122418  10.837   7.095   5.423 -0.4665 -1.5908 -0.0352
40137SOL    HW222419  10.743   7.168   5.517  0.8201  1.3912 -0.9726
40138SOL     OW22420   5.188   4.718   4.766  0.3002  0.7680  0.1165
40138SOL    HW122421   5.105   4.729   4.812  0.0750 -0.5527  0.0399
40138SOL    HW222422   5.167   4.667   4.688  0.5513  3.4959 -1.9003
40139SOL     OW22423   6.341   6.725   0.972  0.5943 -0.0914  0.2365
40139SOL    HW122424   6.260   6.764   0.938  0.2173 -1.3850 -0.4296
40139SOL    HW222425   6.396   6.800   0.995 -0.6736  0.8162  0.4267
40140SOL     OW22426   6.705   7.221   4.845 -0.0371  0.2336 -0.0142
40140SOL    HW122427   6.795   7.198   4.870 -0.0986 -0.4135 -0.3889
40140SOL    HW222428   6.676   7.281   4.915  0.4141 -0.1588  0.5210
40141SOL     OW22429   4.576   8.447   2.976  0.1155 -0.1366  0.1906
40141SOL    HW122430   4.556   8.484   3.061 -1.1772  2.7158 -1.2280
40141SOL    HW222431   4.661   8.484   2.953  0.2351 -0.5055  0.0336
40142SOL     OW22432   5.503   2.169   6.622 -0.4282 -0.4924  0.7217
40142SOL    HW122433   5.507   2.264   6.628  0.3812 -0.2321 -2.1308
40142SOL    HW222434   5.595   2.141   6.622 -0.4885 -0.9038 -1.4165
40143SOL     OW22435   6.786   6.701   1.528  0.0637  0.3546 -0.2293
40143SOL    HW122436   6.734   6.688   1.607 -0.6795 -1.2552 -0.9526
40143SOL    HW222437   6.754   6.784   1.492  0.0236  0.8229  0.8491
40144SOL     OW22438   7.265  10.618   9.889  0.2778 -0.0350 -0.4480
40144SOL    HW122439   7.336  10.649   9.832  2.2478 -0.6655  1.5042
40144SOL    HW222440   7.229  10.698   9.927  0.7775  0.2383 -0.5346
40145SOL     OW22441   6.339  10.147   6.060 -0.3941 -0.2246  0.6383
40145SOL    HW122442   6.250  10.163   6.029  0.3391 -0.5047 -1.8062
40145SOL    HW222443   6.394  10.206   6.008  1.1698 -2.4438 -0.4092
40146SOL     OW22444   4.597   2.552   0.013 -0.4041  0.3333 -0.0224
40146SOL    HW122445   4.605   2.583  -0.078  0.3290 -0.3242 -0.1924
40146SOL    HW222446   4.675   2.588   0.057  0.3360 -1.0403 -0.1660
40147SOL     OW22447   0.484   9.664  10.732 -0.1010  0.0954 -0.3855
40147SOL    HW122448   0.478   9.598  10.801 -1.8488  1.7317  1.1179
40147SOL    HW222449   0.549   9.628  10.671 -0.3391 -2.5810  0.7927
40148SOL     OW22450   7.780   5.234   2.627  0.8796  0.1265  0.6621
40148SOL    HW122451   7.786   5.154   2.575  4.6542  0.6634 -0.0026
40148SOL    HW222452   7.769   5.204   2.717 -1.3067 -0.9426  0.1074
40149SOL     OW22453   1.853   1.891  10.705 -0.0577 -0.2162  0.3045
40149SOL    HW122454   1.870   1.980  10.735 -1.6959 -0.6361  2.7490
40149SOL    HW222455   1.846   1.840  10.785 -1.2514 -2.1567 -0.9573
40150SOL     OW22456   5.734   3.952   9.086  0.1236  0.2931 -0.0634
40150SOL    HW122457   5.738   4.030   9.031 -1.5942  0.8684  0.5601
40150SOL    HW222458   5.676   3.977   9.158  0.6766 -1.1120  0.8957
40151SOL     OW22459   6.346   4.338   5.359  0.2222  0.1088 -0.1941
40151SOL    HW122460   6.417   4.399   5.378  1.3455 -0.5445 -1.9833
40151SOL    HW222461   6.379   4.285   5.286 -1.7857 -0.7846 -0.5290
40152SOL     OW22462   9.431   1.554   1.456 -0.2168 -0.4534 -0.2070
40152SOL    HW122463   9.477   1.500   1.521  0.2417 -0.6964 -0.7322
40152SOL    HW222464   9.420   1.639   1.499  1.0184 -0.2815 -0.1993
40153SOL     OW22465   1.569  10.778   1.044 -0.2018 -0.4239 -0.4966
40153SOL    HW122466   1.567  10.711   0.975  0.7360  0.3619 -1.3273
40153SOL    HW222467   1.662  10.789   1.064 -0.3141  0.7530 -0.5308
40154SOL     OW22468   4.201   3.857   0.939  0.0447 -0.1417 -0.2140
40154SOL    HW122469   4.154   3.889   0.862 -1.3504  0.1905  0.7577
40154SOL    HW222470   4.254   3.932   0.967 -1.5824  0.7043  0.7751
40155SOL     OW22471   9.168   5.176  10.378  0.0401 -0.5149  0.1985
40155SOL    HW122472   9.146   5.233  10.451 -4.0989 -1.6048  0.1078
40155SOL    HW222473   9.120   5.094  10.396 -0.0133 -1.3417 -2.9619
40156SOL     OW22474   1.226   8.171   3.149 -0.8182  0.2671 -0.7151
40156SOL    HW122475   1.195   8.082   3.130 -0.4443  0.2843 -1.4435
40156SOL    HW222476   1.146   8.223   3.157 -1.0698 -0.2604  0.4363
40157SOL     OW22477   0.066   7.808   4.352 -0.5644 -0.1806 -0.4472
40157SOL    HW122478  -0.002   7.793   4.287 -0.3537 -0.8487 -0.5218
40157SOL    HW222479   0.108   7.722   4.363 -0.9538 -0.1999  0.9802
40158SOL     OW22480   9.526   7.662   0.766 -0.0701 -0.3983 -0.0857
40158SOL    HW122481   9.505   7.655   0.672  0.3180 -1.1085 -0.1226
40158SOL    HW222482   9.513   7.574   0.800 -2.8303  0.3783  1.1130
40159SOL     OW22483   7.780   9.696   3.771  0.4931 -0.0282 -0.9271
40159SOL    HW122484   7.732   9.705   3.689 -0.0166  0.7588 -0.5524
40159SOL    HW222485   7.863   9.741   3.755 -0.9071  3.1357  0.0052
40160SOL     OW22486   3.866   6.063   6.122 -0.3108  0.0955 -0.6022
40160SOL    HW122487   3.814   5.985   6.145  1.7588 -0.7637  1.7027
40160SOL    HW222488   3.887   6.051   6.030  0.8619 -2.7647 -0.0901
40161SOL     OW22489   8.847   6.083   0.207  0.3937  0.0278  0.4504
40161SOL    HW122490   8.929   6.067   0.161  1.6677  1.7787  1.9757
40161SOL    HW222491   8.829   6.176   0.193 -0.9489 -0.1628  0.7521
40162SOL     OW22492   3.178   9.864   4.696  0.5655 -0.1828  0.2103
40162SOL    HW122493   3.148   9.778   4.724  1.2108  0.0929  1.8902
40162SOL    HW222494   3.221   9.848   4.612  0.4638 -1.4557  0.3759
40163SOL     OW22495   7.265   5.041   9.093 -0.1379  0.0887 -0.2436
40163SOL    HW122496   7.251   5.135   9.079  2.1143  0.2773 -1.8760
40163SOL    HW222497   7.260   5.003   9.005  0.5886 -1.0516  0.1842
40164SOL     OW22498   6.726   2.258   4.144  0.7383 -0.3955 -0.3822
40164SOL    HW122499   6.806   2.209   4.131  0.6571 -0.7587  0.4267
40164SOL    HW222500   6.656   2.194   4.134  0.6193 -0.3931  0.3670
40165SOL     OW22501   3.180   7.449   8.612 -0.0579  0.3855 -0.0686
40165SOL    HW122502   3.263   7.465   8.657 -0.0543 -1.7642  0.8251
40165SOL    HW222503   3.202   7.450   8.519  0.4017  2.5520  0.0261
40166SOL     OW22504   4.338   1.618   6.346 -0.0792 -0.5318 -0.2144
40166SOL    HW122505   4.287   1.698   6.359  1.0792  0.0255  1.1475
40166SOL    HW222506   4.290   1.550   6.393  0.5827  0.0669  1.3767
40167SOL     OW22507   7.859  10.048   4.919 -0.2558 -0.3402 -0.1653
40167SOL    HW122508   7.923   9.978   4.926 -1.9652 -1.8394  1.2535
40167SOL    HW222509   7.795  10.015   4.855 -0.3403  0.5682 -0.5670
40168SOL     OW22510  10.495   9.719   2.947 -0.6144  0.1467 -0.3265
40168SOL    HW122511  10.459   9.631   2.957 -1.2245  0.5287  1.0877
40168SOL    HW222512  10.432   9.775   2.992 -0.1871  1.2998 -1.1416
40169SOL     OW22513   7.931   9.293   1.892  0.1196 -0.2626  0.2209
40169SOL    HW122514   7.875   9.283   1.815  1.5397  2.8820 -1.3746
40169SOL    HW222515   7.870   9.312   1.963 -1.4510 -5.3531  0.6643
40170SOL     OW22516   6.797   1.450   4.015 -0.0769  0.3106  0.6591
40170SOL    HW122517   6.855   1.502   4.070 -0.9738  1.0693  0.9039
40170SOL    HW222518   6.777   1.373   4.068  0.7617  0.0014  0.5384
40171SOL     OW22519   0.801   3.353   9.506 -0.1801 -0.1171 -0.2417
40171SOL    HW122520   0.726   3.345   9.447  0.4738 -0.0970 -1.0991
40171SOL    HW222521   0.869   3.299   9.465  0.4656  0.3504  0.2035
40172SOL     OW22522   2.322   9.942   5.442 -0.1721  0.6884  0.1336
40172SOL    HW122523   2.352   9.916   5.356  0.8747  0.8950  0.4164
40172SOL    HW222524   2.237   9.984   5.427 -0.5835 -0.3870 -0.6304
40173SOL     OW22525   6.958   5.750   2.292 -0.6310 -0.2958  0.5692
40173SOL    HW122526   6.995   5.731   2.207 -0.3714  0.7191  0.4367
40173SOL    HW222527   7.025   5.802   2.337 -0.9654 -0.3901  1.1937
40174SOL     OW22528   6.530   8.126   1.029  0.1837  0.4062  0.1960
40174SOL    HW122529   6.515   8.220   1.037  0.0125  0.4169 -0.2451
40174SOL    HW222530   6.549   8.098   1.119 -3.1200  0.2792  0.9756
40175SOL     OW22531   9.253   2.923   1.744 -0.1359  0.2732 -0.2959
40175SOL    HW122532   9.271   3.012   1.714 -1.0738  0.4757 -0.2849
40175SOL    HW222533   9.158   2.920   1.753 -0.4854 -1.6557 -3.3208
40176SOL     OW22534   0.988   2.393   8.387 -0.0782 -1.0345 -0.6586
40176SOL    HW122535   1.034   2.417   8.306  0.2792 -0.5380 -0.3190
40176SOL    HW222536   1.041   2.324   8.426  1.6610  1.0211  0.8422
40177SOL     OW22537   5.147   0.136   6.812  0.0433 -0.2213  0.0102
40177SOL    HW122538   5.087   0.085   6.867  0.0412 -2.0027 -1.5375
40177SOL    HW222539   5.219   0.159   6.871 -1.4856  0.8801  1.5823
40178SOL     OW22540   8.096   1.357   1.903  0.2215 -0.3897  0.3328
40178SOL    HW122541   8.089   1.324   1.993 -0.9513  0.2253  0.4875
40178SOL    HW222542   8.010   1.393   1.884  0.9693  1.1385 -0.3827
40179SOL     OW22543   0.510   9.741   0.614 -0.2308 -0.1511  0.8314
40179SOL    HW122544   0.453   9.664   0.618 -0.8504  0.1414 -1.2076
40179SOL    HW222545   0.569   9.723   0.541  0.7404  0.5966  1.4026
40180SOL     OW22546   8.312   3.667   0.345 -0.3805 -0.6932  0.0002
40180SOL    HW122547   8.270   3.641   0.263  0.2634  1.5861 -1.1535
40180SOL    HW222548   8.390   3.612   0.351 -0.5231 -0.9974 -0.8405
40181SOL     OW22549   4.962   4.602   0.238  0.2191  0.0757 -0.4107
40181SOL    HW122550   4.996   4.668   0.298 -0.7312  0.4174 -0.2390
40181SOL    HW222551   4.955   4.648   0.154  0.3641 -0.0535 -0.4948
40182SOL     OW22552   9.897   5.792   3.046  0.3612 -0.1881  0.3574
40182SOL    HW122553   9.951   5.864   3.079 -0.2273  0.8949 -0.9667
40182SOL    HW222554   9.961   5.729   3.013  0.8657  0.2794  0.4159
40183SOL     OW22555   6.988   3.405   7.391  0.3462  0.4643 -0.6954
40183SOL    HW122556   7.022   3.492   7.370  0.8412  0.2260 -0.8956
40183SOL    HW222557   7.058   3.345   7.366 -0.0163  0.0013 -0.6160
40184SOL     OW22558   4.092   7.604   8.122 -0.5483 -0.0940  0.2869
40184SOL    HW122559   4.142   7.598   8.203 -0.8976  1.6381  0.6727
40184SOL    HW222560   4.134   7.675   8.073 -0.6889 -0.7505 -0.8018
40185SOL     OW22561   7.455   5.626   8.972 -0.7964 -0.0040 -0.0969
40185SOL    HW122562   7.440   5.609   8.879 -1.0231 -0.5684  0.0350
40185SOL    HW222563   7.546   5.600   8.986 -1.2657 -1.6049  0.1932
40186SOL     OW22564   7.332   0.259   7.371 -0.0463  0.0863 -0.5887
40186SOL    HW122565   7.277   0.328   7.407 -1.1072 -0.1811 -1.6142
40186SOL    HW222566   7.316   0.184   7.428  0.9702  0.6142  0.4207
40187SOL     OW22567   5.681   9.472   7.445  0.2573  0.7265  0.2174
40187SOL    HW122568   5.768   9.433   7.452  0.5087  1.4418  1.6778
40187SOL    HW222569   5.671   9.496   7.353  2.4401  2.4225  0.3451
40188SOL     OW22570   6.784   7.400   6.999 -0.0563  0.3326 -0.7680
40188SOL    HW122571   6.833   7.334   7.047  0.9069  2.3796  1.2428
40188SOL    HW222572   6.713   7.425   7.058  0.9087  2.6276 -0.4862
40189SOL     OW22573   4.086   9.591   4.483 -0.2921 -0.2511 -0.6240
40189SOL    HW122574   4.075   9.523   4.550  1.5409 -0.3256 -0.3606
40189SOL    HW222575   4.015   9.653   4.500  1.8899  1.4341  3.4585
40190SOL     OW22576   9.412   1.226   3.996 -0.6957  0.0215 -0.3465
40190SOL    HW122577   9.438   1.313   3.965 -0.0847  1.3581  3.4473
40190SOL    HW222578   9.336   1.204   3.942 -2.4309  4.0591  0.0598
40191SOL     OW22579   3.185  10.163   1.011  0.0102 -0.2843  0.2175
40191SOL    HW122580   3.142  10.154   0.926 -0.8493  1.4572  0.4303
40191SOL    HW222581   3.178  10.076   1.051  0.8468 -1.2560 -1.6576
40192SOL     OW22582   7.306   9.953   3.437  0.4831  0.8211  0.1863
40192SOL    HW122583   7.242   9.946   3.365 -1.1483  0.1300  1.6323
40192SOL    HW222584   7.386   9.983   3.394 -0.4475  0.5319 -1.9087
40193SOL     OW22585   3.584   3.632   4.245  0.4219 -0.0309  0.1224
40193SOL    HW122586   3.564   3.725   4.250  0.3222  0.0215 -0.9941
40193SOL    HW222587   3.519   3.596   4.185  0.6405 -0.7679  0.3087
40194SOL     OW22588   8.735  10.130   5.440  0.0996 -0.7396 -0.0084
40194SOL    HW122589   8.682  10.210   5.440  0.0031 -0.8005  0.3680
40194SOL    HW222590   8.671  10.059   5.440  0.1856 -0.8234 -0.7154
40195SOL     OW22591   2.815   5.448   4.730 -0.3937  0.4076  0.4913
40195SOL    HW122592   2.889   5.419   4.678 -0.7117 -0.0035  0.2681
40195SOL    HW222593   2.805   5.541   4.707  0.6853  0.7423  1.2874
40196SOL     OW22594   5.135   6.484   5.643 -0.6655 -0.2425 -0.1839
40196SOL    HW122595   5.217   6.532   5.654 -1.1647  0.1667  2.0750
40196SOL    HW222596   5.155   6.394   5.669 -1.2997  0.2446  2.2520
40197SOL     OW22597  10.573   1.002   6.553  0.6451 -0.1179  0.2675
40197SOL    HW122598  10.625   0.957   6.619  2.3596 -0.2182 -1.0631
40197SOL    HW222599  10.491   0.954   6.550  0.5984 -0.2264  2.1452
40198SOL     OW22600   1.374   6.730   2.311  0.6605  0.1455 -0.1459
40198SOL    HW122601   1.370   6.771   2.225  0.7656 -1.3157 -0.8882
40198SOL    HW222602   1.284   6.699   2.327  0.6672  0.3081  0.2309
40199SOL     OW22603   9.958   7.187   5.652 -0.1359 -0.2934 -0.5611
40199SOL    HW122604  10.031   7.158   5.707  0.9248  2.1095 -0.5526
40199SOL    HW222605   9.893   7.221   5.714  0.0092  0.1935 -0.6679
40200SOL     OW22606   9.318   0.936   4.516 -0.4202 -0.7632 -0.5130
40200SOL    HW122607   9.340   0.998   4.446 -0.5296  0.2039  0.2778
40200SOL    HW222608   9.392   0.943   4.577 -1.2617 -0.0828  0.4550
40201SOL     OW22609   9.407  10.723   8.182 -0.9434 -0.1328 -0.3867
40201SOL    HW122610   9.336  10.728   8.246 -1.4341 -0.2144 -0.9161
40201SOL    HW222611   9.438  10.813   8.174  0.3718 -0.3826  1.3314
40202SOL     OW22612   4.781   5.613   0.478 -0.4049  0.2328  0.8246
40202SOL    HW122613   4.876   5.618   0.467 -0.3913 -0.0447  0.8063
40202SOL    HW222614   4.745   5.645   0.395 -0.3178 -0.4159  0.5250
40203SOL     OW22615   2.826   3.155   7.298 -0.0826 -0.5925 -0.2360
40203SOL    HW122616   2.822   3.074   7.349  1.3117  0.4586  1.6710
40203SOL    HW222617   2.749   3.205   7.327 -0.2253 -0.6937 -0.4392
40204SOL     OW22618   4.158   8.881   2.836  0.5060  0.0885  0.5028
40204SOL    HW122619   4.145   8.814   2.904  2.9674 -0.2797  0.7068
40204SOL    HW222620   4.086   8.866   2.775  0.0680 -1.7039  1.3609
40205SOL     OW22621   1.416  10.030   1.433 -0.0590  0.2159  0.5300
40205SOL    HW122622   1.493  10.072   1.394  0.4268  0.1345  1.3807
40205SOL    HW222623   1.344  10.089   1.412  0.4010  0.8173  0.6003
40206SOL     OW22624   8.299   0.720   8.703  0.6645  0.2588  0.4347
40206SOL    HW122625   8.277   0.716   8.796 -0.8275  2.9904  0.2977
40206SOL    HW222626   8.343   0.804   8.693  0.5150  0.1489 -1.3648
40207SOL     OW22627   9.078   6.207   7.683 -0.1611 -0.0495  0.0541
40207SOL    HW122628   8.997   6.258   7.681  0.7211  1.3627 -0.7636
40207SOL    HW222629   9.147   6.270   7.703  1.0281 -0.7871 -1.4848
40208SOL     OW22630   8.657   6.101   9.275  0.6517 -0.1981  0.1313
40208SOL    HW122631   8.619   6.179   9.317  0.0458 -0.9447  1.0022
40208SOL    HW222632   8.748   6.100   9.305  1.5204  1.6840 -2.0825
40209SOL     OW22633  10.774  11.003   9.894  0.6630 -0.4190  0.3260
40209SOL    HW122634  10.854  10.962   9.863 -0.3530 -0.1796 -3.0496
40209SOL    HW222635  10.783  11.095   9.870 -0.2599 -0.2047  0.7344
40210SOL     OW22636   8.139   2.020   1.001 -0.0220  0.6663  0.2924
40210SOL    HW122637   8.223   2.034   1.044  0.4636 -0.0445 -0.4105
40210SOL    HW222638   8.090   1.963   1.061  0.3876  0.2517  0.2371
40211SOL     OW22639   4.651   1.840   0.209  0.1337 -0.6420 -0.1205
40211SOL    HW122640   4.561   1.865   0.229  0.7084  0.4497  1.2177
40211SOL    HW222641   4.650   1.819   0.116 -2.0163 -2.9949  0.3198
40212SOL     OW22642   5.453   5.783   3.323 -0.1463  0.1606  0.4179
40212SOL    HW122643   5.515   5.733   3.377  1.2300 -0.1100 -1.3349
40212SOL    HW222644   5.381   5.722   3.306  1.3513 -1.2062 -1.4107
40213SOL     OW22645   3.914   4.855   4.809  0.0365 -0.0637  0.4817
40213SOL    HW122646   3.882   4.765   4.801  2.3430 -0.9775  0.9935
40213SOL    HW222647   3.990   4.849   4.866  0.5945  2.1525  0.0673
40214SOL     OW22648   4.711   3.252   1.938 -0.1071 -0.1917  0.0006
40214SOL    HW122649   4.745   3.172   1.977 -1.4737 -1.1638 -0.7096
40214SOL    HW222650   4.663   3.223   1.860 -1.6170  1.1655  0.3454
40215SOL     OW22651   3.131   6.328   7.405 -0.3464  0.0535 -0.1914
40215SOL    HW122652   3.176   6.408   7.377 -2.3930  1.1438 -0.5125
40215SOL    HW222653   3.097   6.349   7.492 -1.7322 -0.0996 -0.6794
40216SOL     OW22654   6.325   9.373   7.453 -0.8925 -0.0663 -0.0066
40216SOL    HW122655   6.328   9.299   7.513 -3.7560  0.6295  1.1460
40216SOL    HW222656   6.374   9.442   7.498 -0.4616 -0.4544  0.1242
40217SOL     OW22657   9.467   3.539   5.735 -0.2695 -0.1579 -0.3821
40217SOL    HW122658   9.388   3.582   5.700 -0.4155 -1.2785 -1.4820
40217SOL    HW222659   9.446   3.446   5.734  0.3397 -0.3368  1.2428
40218SOL     OW22660   1.857   3.620   8.019 -0.7804  0.2218  0.3307
40218SOL    HW122661   1.918   3.546   8.016 -0.4903  0.5040 -0.8669
40218SOL    HW222662   1.777   3.583   8.057 -0.5590 -0.6540 -0.0302
40219SOL     OW22663   6.805   8.368   7.758 -0.3393  0.3174 -0.1309
40219SOL    HW122664   6.741   8.315   7.806  2.8091 -1.4534  2.5429
40219SOL    HW222665   6.821   8.319   7.677  0.0713 -1.0689  0.7571
40220SOL     OW22666   7.688   8.937   0.794  0.0202  0.1887  0.6687
40220SOL    HW122667   7.746   8.861   0.801  0.5432  0.3664 -1.3323
40220SOL    HW222668   7.677   8.951   0.700 -0.5761  2.2182  0.9897
40221SOL     OW22669   6.170   4.643   1.148 -0.0154  0.2495 -0.4254
40221SOL    HW122670   6.179   4.676   1.237  1.3746  0.4052 -0.5984
40221SOL    HW222671   6.131   4.715   1.099  0.7879  0.7971 -0.2897
40222SOL     OW22672   7.964   1.291   7.765  0.0556 -0.2717 -0.3144
40222SOL    HW122673   7.994   1.202   7.750  1.6269 -0.1082  1.5100
40222SOL    HW222674   7.946   1.326   7.677 -0.5756 -2.3293 -1.0583
40223SOL     OW22675   5.890   0.101   3.952 -0.0416  0.0433 -0.0450
40223SOL    HW122676   5.875   0.069   4.042  1.3874 -0.0246  0.1903
40223SOL    HW222677   5.978   0.138   3.954 -1.0162  2.5898 -0.7299
40224SOL     OW22678   0.558   8.031   6.936  0.2615 -0.1216 -0.4458
40224SOL    HW122679   0.528   7.943   6.957 -1.6229  0.6995  0.6365
40224SOL    HW222680   0.514   8.087   7.001  3.9485  1.3437  1.0771
40225SOL     OW22681   1.586   8.371   0.993 -0.0846 -1.3351  0.3853
40225SOL    HW122682   1.579   8.302   1.059 -2.0248 -1.0965  0.4936
40225SOL    HW222683   1.631   8.329   0.920  1.7689 -1.7092  1.6572
40226SOL     OW22684   3.226   8.548   7.594 -0.4317 -0.0649 -0.3837
40226SOL    HW122685   3.184   8.615   7.648 -1.4659  0.0559 -1.2897
40226SOL    HW222686   3.158   8.481   7.582  0.5903 -1.2943  0.5071
40227SOL     OW22687   8.973   3.123   6.455  0.7240 -0.2472  0.3881
40227SOL    HW122688   8.983   3.144   6.548  1.3101  0.2449  0.2139
40227SOL    HW222689   8.935   3.035   6.455 -0.0639  0.0784  1.0990
40228SOL     OW22690   2.072   8.479   5.699  0.6664 -0.7736  0.5691
40228SOL    HW122691   2.167   8.494   5.704  0.5383 -0.4150  2.2462
40228SOL    HW222692   2.043   8.536   5.628  1.3842  0.8293  1.5140
40229SOL     OW22693   6.850   2.560   4.687 -0.1417 -0.6498 -0.6291
40229SOL    HW122694   6.884   2.611   4.760  1.7373 -1.7501 -0.6851
40229SOL    HW222695   6.920   2.500   4.664 -1.7083 -2.2268 -1.5659
40230SOL     OW22696   0.457   1.566   0.519  0.3192  0.5410 -0.0895
40230SOL    HW122697   0.459   1.503   0.591  0.0335  1.2287  0.5257
40230SOL    HW222698   0.488   1.516   0.443 -0.8123 -0.6067  0.1745
40231SOL     OW22699   7.794   5.981   1.035 -0.2578  0.3635  0.3668
40231SOL    HW122700   7.702   5.996   1.055 -0.5239 -0.4756 -0.1788
40231SOL    HW222701   7.814   6.044   0.966 -0.7529 -0.2447 -0.3443
40232SOL     OW22702   6.397   5.399   8.134  0.3385 -0.0132 -0.5750
40232SOL    HW122703   6.419   5.373   8.045 -3.2491 -0.3643 -1.5167
40232SOL    HW222704   6.372   5.491   8.127  0.5415  0.1079  0.1824
40233SOL     OW22705   8.566   2.273   0.111  0.2320 -0.7632  0.6244
40233SOL    HW122706   8.499   2.310   0.169  1.1226  0.3640  0.9839
40233SOL    HW222707   8.644   2.268   0.165  0.2258 -2.9916  0.4950
40234SOL     OW22708   7.524  10.960   1.814  0.4340 -0.0044 -0.1405
40234SOL    HW122709   7.525  11.037   1.758  0.2852  0.6475  0.7214
40234SOL    HW222710   7.550  10.888   1.757  1.7639  0.8765 -0.6824
40235SOL     OW22711   4.423   7.359   8.224 -0.5535  0.7069 -0.6164
40235SOL    HW122712   4.349   7.382   8.281 -0.6606  0.4203 -0.6395
40235SOL    HW222713   4.407   7.268   8.200 -0.0720  0.5738 -0.4371
40236SOL     OW22714   9.138  10.483   3.361 -0.6600 -0.0791 -0.2352
40236SOL    HW122715   9.161  10.562   3.312  2.0707  0.2365  1.3291
40236SOL    HW222716   9.187  10.413   3.318  0.3801 -0.0942  0.9157
40237SOL     OW22717   3.521   2.567   0.391 -0.3202 -0.5750  0.5198
40237SOL    HW122718   3.483   2.654   0.409 -0.8187 -0.8765  0.9581
40237SOL    HW222719   3.605   2.568   0.436  1.8514  1.3065 -3.1013
40238SOL     OW22720  10.111   9.221   6.771 -0.5715  0.4007  0.3284
40238SOL    HW122721  10.026   9.185   6.749 -0.8059  0.2407  1.4440
40238SOL    HW222722  10.123   9.295   6.710  0.2311 -1.8779 -2.5061
40239SOL     OW22723   3.124   9.518   6.933  0.3144 -0.2185  0.0198
40239SOL    HW122724   3.200   9.577   6.936  0.9359 -1.0194  1.7965
40239SOL    HW222725   3.160   9.434   6.907 -0.2013 -0.2963 -0.4434
40240SOL     OW22726   3.614   3.114   1.253  0.3683 -0.1987  0.1777
40240SOL    HW122727   3.653   3.035   1.216 -0.0751  0.2450 -1.3217
40240SOL    HW222728   3.520   3.104   1.237  0.1832  0.1169  1.0136
40241SOL     OW22729   2.535   7.152   4.908 -0.9902  0.0985 -0.5451
40241SOL    HW122730   2.604   7.152   4.974  0.6640 -1.7368 -2.1423
40241SOL    HW222731   2.454   7.142   4.958  0.1661 -0.9933  1.2241
40242SOL     OW22732   5.892   6.789  10.896 -0.5087 -0.5360  0.3081
40242SOL    HW122733   5.845   6.821  10.819 -0.5168  1.4600  1.0898
40242SOL    HW222734   5.984   6.801  10.875 -0.2540 -3.7292 -0.9125
40243SOL     OW22735  10.744   2.983   8.538  0.5465  0.0115  0.1237
40243SOL    HW122736  10.794   2.925   8.481 -1.4095 -1.0597 -0.5923
40243SOL    HW222737  10.653   2.951   8.532 -0.5033  2.7174  0.2575
40244SOL     OW22738   6.374   1.883   7.598 -0.6485  0.0996 -0.4052
40244SOL    HW122739   6.324   1.942   7.655  0.9131  1.3349 -0.2459
40244SOL    HW222740   6.349   1.795   7.627 -0.7643  0.6858  1.4375
40245SOL     OW22741   0.581   3.889   4.467 -0.5519  0.1489  0.1092
40245SOL    HW122742   0.492   3.870   4.438 -0.8663 -0.4392  1.3593
40245SOL    HW222743   0.572   3.906   4.561  0.4473  1.6310 -0.0250
40246SOL     OW22744   4.661  10.541   9.233 -0.3074  0.2212 -0.0946
40246SOL    HW122745   4.677  10.455   9.271 -0.6708 -0.4945 -1.4933
40246SOL    HW222746   4.733  10.552   9.170  0.3950  1.4577  0.8752
40247SOL     OW22747   8.744  10.482   2.758 -0.0044  0.1679 -0.1115
40247SOL    HW122748   8.728  10.576   2.751 -0.2220  0.1870  0.5688
40247SOL    HW222749   8.826  10.468   2.710 -1.6717  0.1559 -3.2310
40248SOL     OW22750   0.473   7.308  10.640  0.4719  0.4956  0.0418
40248SOL    HW122751   0.422   7.297  10.720 -0.1784 -0.2936 -0.4701
40248SOL    HW222752   0.407   7.311  10.570  1.0595  0.6727 -0.5107
40249SOL     OW22753   8.871   5.452   3.918  0.1973 -0.0446  0.2775
40249SOL    HW122754   8.921   5.372   3.939 -1.3280 -0.6290  1.9003
40249SOL    HW222755   8.861   5.450   3.823  1.2222 -1.1483  0.1706
40250SOL     OW22756   6.565   6.473   2.436  0.2226  0.4846 -0.4553
40250SOL    HW122757   6.599   6.448   2.522 -0.4889 -0.6115 -0.4681
40250SOL    HW222758   6.521   6.557   2.451  0.6743  0.6260  0.1066
40251SOL     OW22759  11.001   4.712   9.131  0.5743  0.1204  0.1470
40251SOL    HW122760  10.949   4.773   9.184 -0.6125 -0.6694 -0.0651
40251SOL    HW222761  11.022   4.761   9.052  1.6099  1.0149  0.9429
40252SOL     OW22762   3.717   4.692  10.201  0.0648 -0.0256  0.1168
40252SOL    HW122763   3.672   4.710  10.284 -0.0586 -0.5900  0.1801
40252SOL    HW222764   3.700   4.769  10.147 -3.3319 -1.2862 -0.8852
40253SOL     OW22765  10.747   7.684   9.238  0.1073  0.0654 -0.0393
40253SOL    HW122766  10.802   7.622   9.286 -1.5156 -0.6134  1.0209
40253SOL    HW222767  10.736   7.758   9.297 -0.0875  0.2011 -0.2435
40254SOL     OW22768   1.311   9.162   8.633 -0.1689 -0.3886 -0.6232
40254SOL    HW122769   1.270   9.235   8.679  1.4405 -0.4474  1.0820
40254SOL    HW222770   1.294   9.178   8.541 -1.2511  1.2491 -0.1837
40255SOL     OW22771   5.252   6.164   7.197  0.1077  0.1008 -0.1447
40255SOL    HW122772   5.222   6.081   7.233  0.5998  0.8583  2.2186
40255SOL    HW222773   5.337   6.144   7.159  0.7075 -0.3270  1.3415
40256SOL     OW22774   8.761   1.635   1.873  0.2782  0.4664 -0.6676
40256SOL    HW122775   8.725   1.698   1.935 -1.1979 -0.4667 -0.5322
40256SOL    HW222776   8.688   1.576   1.854  0.8432  0.4188 -2.8987
40257SOL     OW22777   3.380   1.794   5.967 -0.4374 -0.5124  0.1309
40257SOL    HW122778   3.353   1.787   6.059 -1.4043 -0.5382 -0.1379
40257SOL    HW222779   3.439   1.720   5.954 -0.5756 -0.7190  0.6381
40258SOL     OW22780  10.327  10.119   7.826 -0.0118  0.9672 -0.9806
40258SOL    HW122781  10.266  10.095   7.895  1.1346  0.2539 -0.1889
40258SOL    HW222782  10.281  10.097   7.745 -0.0015 -1.6640 -0.3600
40259SOL     OW22783   3.323   2.964   8.129  0.0028  0.1283  0.9430
40259SOL    HW122784   3.282   2.880   8.108 -0.8519  0.4096  1.4197
40259SOL    HW222785   3.413   2.941   8.152  0.0869 -0.5251  0.0287
40260SOL     OW22786   3.271   1.631   5.171 -0.1932 -0.0504  0.3977
40260SOL    HW122787   3.296   1.540   5.164  0.4720  0.1682 -0.0771
40260SOL    HW222788   3.202   1.632   5.238 -0.9687 -1.0408 -0.3594
40261SOL     OW22789   3.885   4.277   9.643 -0.1463 -0.2179 -0.0443
40261SOL    HW122790   3.829   4.329   9.702 -0.3171  1.1894 -1.3816
40261SOL    HW222791   3.964   4.330   9.633 -0.5716  0.1309 -1.9180
40262SOL     OW22792   3.138   7.106  10.096  0.6065  0.7087 -0.4095
40262SOL    HW122793   3.229   7.135  10.103  0.4177  1.8315 -1.9764
40262SOL    HW222794   3.089   7.168  10.151  0.7832 -0.0311  0.6133
40263SOL     OW22795  10.588  10.380   1.687 -0.5337  0.2486  0.6854
40263SOL    HW122796  10.642  10.303   1.707 -0.1922  0.4380  0.4980
40263SOL    HW222797  10.612  10.403   1.597  0.6213  1.5854  1.2958
40264SOL     OW22798   5.302   5.861   7.549 -0.1793 -0.0964  0.3661
40264SOL    HW122799   5.337   5.950   7.559 -0.2813  0.3653 -2.5068
40264SOL    HW222800   5.207   5.873   7.547 -0.1642 -0.0082 -1.4784
40265SOL     OW22801   3.288   6.730   3.972 -0.1382  0.0640 -0.0286
40265SOL    HW122802   3.284   6.798   3.905 -0.1135  1.5521  1.4109
40265SOL    HW222803   3.321   6.653   3.926  0.5855  1.2305 -1.5531
40266SOL     OW22804   6.457   3.172   4.756 -0.5841 -0.0774 -0.1594
40266SOL    HW122805   6.379   3.176   4.700 -1.4979 -0.0625  1.0723
40266SOL    HW222806   6.510   3.102   4.719 -1.2702 -0.2116 -0.9095
40267SOL     OW22807   1.059   6.194   6.228  0.2697  0.1510  0.5007
40267SOL    HW122808   1.070   6.285   6.254 -1.6452  0.9672 -1.2019
40267SOL    HW222809   1.122   6.181   6.158 -0.9281  0.9100 -0.7653
40268SOL     OW22810  10.924   4.310   9.444 -0.0783 -0.0607  0.3340
40268SOL    HW122811  10.868   4.240   9.479 -1.2120 -0.5483 -2.2077
40268SOL    HW222812  11.001   4.264   9.411 -1.0729 -0.2910 -1.8480
40269SOL     OW22813   6.068   5.002  10.798 -0.3157 -0.0153  0.2230
40269SOL    HW122814   6.077   5.009  10.703 -1.4376  1.5481  0.1983
40269SOL    HW222815   6.147   4.957  10.826  0.6726  0.6886 -1.3108
40270SOL     OW22816   7.577   3.625   2.556  0.2097  0.1193 -0.5891
40270SOL    HW122817   7.610   3.714   2.562  1.9000 -0.4959 -0.2395
40270SOL    HW222818   7.655   3.570   2.561 -0.8598 -1.4146  0.0391
40271SOL     OW22819  10.706   0.769   1.389  0.5288  0.7293  0.1014
40271SOL    HW122820  10.617   0.749   1.362  0.5656 -1.0091  1.0906
40271SOL    HW222821  10.697   0.837   1.456  0.0116  1.1221 -0.3713
40272SOL     OW22822   2.296   9.181   2.750  0.2419 -0.1095 -0.4687
40272SOL    HW122823   2.374   9.216   2.707  0.1461 -1.9703 -2.2686
40272SOL    HW222824   2.326   9.100   2.791  0.1185  1.1423  2.3616
40273SOL     OW22825   3.118  10.165   8.570  0.6775 -0.0925 -0.2014
40273SOL    HW122826   3.055  10.126   8.630  0.7647  1.0452  0.6660
40273SOL    HW222827   3.203  10.131   8.599  0.4183 -3.0067 -2.4400
40274SOL     OW22828  10.930   6.838   6.235 -0.3430 -0.3547  0.4707
40274SOL    HW122829  10.938   6.883   6.151 -4.8595 -1.9915 -1.1104
40274SOL    HW222830  10.966   6.751   6.219 -0.5216 -0.4289  0.4770
40275SOL     OW22831   9.596   2.927   5.560 -0.2955 -0.0231 -0.2832
40275SOL    HW122832   9.546   2.976   5.494 -0.7827  0.8798  0.7313
40275SOL    HW222833   9.673   2.981   5.577  0.6487 -1.0203 -1.2384
40276SOL     OW22834   8.269   4.327   9.543 -0.2497 -0.2521 -0.1412
40276SOL    HW122835   8.305   4.400   9.493  2.9240  0.0029  2.1875
40276SOL    HW222836   8.311   4.250   9.505  0.3348 -0.2911  0.5564
40277SOL     OW22837   5.217   6.010   8.184 -0.2111  0.0231  0.5269
40277SOL    HW122838   5.158   5.935   8.175 -0.5116  0.3652 -0.4875
40277SOL    HW222839   5.172   6.081   8.138  1.2945  0.1181 -0.8993
40278SOL     OW22840  10.470   9.464  10.623  0.5517  0.1409  0.1293
40278SOL    HW122841  10.471   9.556  10.597  1.1930  0.1069  0.0275
40278SOL    HW222842  10.540   9.424  10.572  0.0884 -0.4672 -0.0396
40279SOL     OW22843   8.174   5.928   1.581  0.2472 -0.0263  0.2838
40279SOL    HW122844   8.254   5.963   1.621  0.2980  0.3321 -0.1178
40279SOL    HW222845   8.186   5.942   1.487 -0.0777 -0.4177  0.1807
40280SOL     OW22846   0.168   6.435  10.645 -0.3543 -0.3791 -0.6376
40280SOL    HW122847   0.175   6.343  10.672 -0.9906 -0.2858 -0.1289
40280SOL    HW222848   0.074   6.450  10.635 -0.2808  0.3275 -0.3311
40281SOL     OW22849   3.016   4.441   4.787  0.0597 -0.2336 -0.1308
40281SOL    HW122850   2.932   4.487   4.788  0.9920  1.5388  0.3324
40281SOL    HW222851   3.027   4.413   4.696 -0.5554  0.4423 -0.4253
40282SOL     OW22852  10.662   9.433   3.521 -0.2670  0.3282  0.3581
40282SOL    HW122853  10.605   9.497   3.564 -0.6420 -0.1745  0.6224
40282SOL    HW222854  10.609   9.354   3.516  0.6313 -0.3624  1.2330
40283SOL     OW22855   1.191   1.447   3.629 -0.0637  0.0966  0.6161
40283SOL    HW122856   1.199   1.542   3.621 -1.2388  0.1956  0.4225
40283SOL    HW222857   1.235   1.413   3.551  1.2504  0.4167  1.1845
40284SOL     OW22858   1.054  10.779   4.991  0.1549  0.1477  0.3262
40284SOL    HW122859   1.137  10.756   4.951  0.2134  0.1535  0.4456
40284SOL    HW222860   0.996  10.706   4.970 -0.3017  0.9113 -1.2319
40285SOL     OW22861   9.721   5.590   7.303 -0.1117  0.5585  0.6672
40285SOL    HW122862   9.707   5.496   7.294 -0.7527  0.7378 -0.3910
40285SOL    HW222863   9.756   5.618   7.219  0.7278  1.1711  1.2001
40286SOL     OW22864   5.409   7.454   1.167  0.6482 -0.2111  0.4560
40286SOL    HW122865   5.386   7.509   1.242  1.2952  0.9324 -0.1609
40286SOL    HW222866   5.496   7.420   1.188  0.0318 -1.4771  1.0798
40287SOL     OW22867   9.508   7.574   2.368 -0.3904  0.2509  0.1280
40287SOL    HW122868   9.579   7.513   2.392 -0.1312 -0.6685 -2.5902
40287SOL    HW222869   9.553   7.657   2.352  0.1483 -0.3268 -1.5806
40288SOL     OW22870   2.770   9.623   0.574 -0.1946  0.1756  0.0323
40288SOL    HW122871   2.798   9.590   0.659  2.0950 -0.0902 -0.7675
40288SOL    HW222872   2.701   9.563   0.546  0.1081 -0.6385  1.0026
40289SOL     OW22873   2.139   9.216   4.927  0.3692 -0.4813  0.1962
40289SOL    HW122874   2.178   9.206   5.014  0.2290 -2.7691  0.0697
40289SOL    HW222875   2.070   9.149   4.925  1.2202 -1.3602 -2.1024
40290SOL     OW22876   6.691   8.623   7.264 -0.2236 -0.4980 -0.7981
40290SOL    HW122877   6.609   8.649   7.307  0.1260  0.2336 -0.5622
40290SOL    HW222878   6.744   8.702   7.263  1.3566 -1.4361  1.0115
40291SOL     OW22879  10.072   1.731   1.230 -0.1815 -0.0438  0.1557
40291SOL    HW122880  10.085   1.747   1.323  1.2784  0.9161 -0.1818
40291SOL    HW222881   9.986   1.770   1.211 -0.4414 -0.1428  1.0531
40292SOL     OW22882   9.486  10.388   4.457  0.2405  0.7765  0.1575
40292SOL    HW122883   9.500  10.389   4.362 -1.5347  0.0250 -0.1409
40292SOL    HW222884   9.447  10.473   4.476 -0.5968  0.4403 -0.0074
40293SOL     OW22885   4.305   9.346   7.783 -0.3749  0.0999 -0.2332
40293SOL    HW122886   4.241   9.316   7.718  0.6230 -0.9438 -0.7827
40293SOL    HW222887   4.372   9.276   7.784  2.0132  2.1972 -1.4672
40294SOL     OW22888   9.255  10.944   6.024  0.0715  1.0276 -0.1789
40294SOL    HW122889   9.275  10.931   6.117  1.0900  1.0283 -0.3835
40294SOL    HW222890   9.232  11.036   6.017 -0.5196  0.9088  0.1585
40295SOL     OW22891   3.973   4.911  10.836 -0.4228 -0.2657  0.8411
40295SOL    HW122892   3.925   4.913  10.919 -0.1316 -1.5423  1.0612
40295SOL    HW222893   3.944   4.830  10.794 -0.1822  0.1150 -0.0780
40296SOL     OW22894   0.944   7.118   3.964  0.3123 -0.0619  0.0870
40296SOL    HW122895   1.007   7.088   4.030 -0.3355 -1.9392 -0.1013
40296SOL    HW222896   0.916   7.038   3.919 -1.5727  0.8309 -0.4118
40297SOL     OW22897   9.966  10.539   3.749 -0.5407  0.2965 -0.5121
40297SOL    HW122898  10.044  10.569   3.702 -0.2244 -0.9709 -0.8565
40297SOL    HW222899   9.960  10.446   3.727 -0.8722 -0.1430  1.2849
40298SOL     OW22900   2.788   8.975   6.019  0.3177 -1.0930  0.0083
40298SOL    HW122901   2.779   8.943   6.108  0.7583 -0.7645  0.1739
40298SOL    HW222902   2.825   9.063   6.028  1.8083 -1.6206 -0.5442
40299SOL     OW22903   9.085   2.819   7.593  0.4548 -0.3222 -0.4376
40299SOL    HW122904   9.128   2.769   7.523 -1.1940  0.0736 -1.7859
40299SOL    HW222905   8.994   2.827   7.565  0.2733  1.9495  0.5740
40300SOL     OW22906   7.514   5.078   4.259 -0.3622  0.0555 -0.7636
40300SOL    HW122907   7.587   5.032   4.299  0.3260  1.1196 -0.7599
40300SOL    HW222908   7.436   5.028   4.286  0.1841  0.0574  0.9018
40301SOL     OW22909   5.250   5.876   6.096 -0.1705  0.3600  0.8314
40301SOL    HW122910   5.338   5.849   6.122 -0.5503 -1.6785  0.2135
40301SOL    HW222911   5.259   5.904   6.005 -0.3073 -0.9117  0.4026
40302SOL     OW22912   2.237   3.277   4.054  0.3079  0.1854 -0.0977
40302SOL    HW122913   2.295   3.282   3.978  0.0724  2.2089 -0.2100
40302SOL    HW222914   2.156   3.320   4.025 -0.8284 -1.5005  0.4453
40303SOL     OW22915   1.666   9.878   0.099 -0.1809  0.2451  0.1884
40303SOL    HW122916   1.734   9.939   0.069  1.3958 -0.6317  1.8227
40303SOL    HW222917   1.714   9.801   0.129 -2.0701 -1.4554 -0.8969
40304SOL     OW22918   2.483   6.667   3.747  0.3231 -0.2799  0.5926
40304SOL    HW122919   2.499   6.694   3.837  0.5709  0.6951  0.2710
40304SOL    HW222920   2.536   6.728   3.694  2.6734 -2.7478 -0.1073
40305SOL     OW22921   3.200   8.068   2.198 -0.1175  0.3480  0.2300
40305SOL    HW122922   3.283   8.080   2.151  0.7079  2.6273  2.0737
40305SOL    HW222923   3.227   8.050   2.288 -1.6662 -0.2658  0.5976
40306SOL     OW22924   2.854   8.399   5.021 -0.3280  0.1907 -0.3577
40306SOL    HW122925   2.904   8.444   4.953 -0.5889  1.2643  0.1287
40306SOL    HW222926   2.919   8.357   5.076 -0.0974 -0.3990 -1.0721
40307SOL     OW22927   1.621   2.515   2.759  0.3416 -0.6814  0.4969
40307SOL    HW122928   1.590   2.590   2.809  0.6345 -1.1043  1.3453
40307SOL    HW222929   1.631   2.547   2.669  0.3333  0.2495  0.8215
40308SOL     OW22930   5.917   3.168  10.717 -0.3546 -0.8759  0.2197
40308SOL    HW122931   6.000   3.134  10.685  0.5916  1.4693 -0.0528
40308SOL    HW222932   5.853   3.099  10.701  1.2182 -2.0492 -1.1865
40309SOL     OW22933   2.610   4.805   0.424 -0.5687  0.2850 -0.0999
40309SOL    HW122934   2.674   4.854   0.475  0.3851  1.3327 -2.1694
40309SOL    HW222935   2.528   4.853   0.436 -0.2280  0.8514  0.0159
40310SOL     OW22936   3.483   4.272   1.118 -0.4843  0.0776 -0.2436
40310SOL    HW122937   3.403   4.314   1.149 -0.6481 -1.3431  1.4305
40310SOL    HW222938   3.477   4.276   1.023 -2.5635  0.0145 -0.1666
40311SOL     OW22939   2.448   5.695   8.128  0.2833  0.3187 -0.3151
40311SOL    HW122940   2.470   5.785   8.105  0.4166  0.3225 -0.1796
40311SOL    HW222941   2.485   5.684   8.216 -0.0364  0.2432 -0.1890
40312SOL     OW22942   4.970   6.219  10.812 -0.5176 -0.5120  0.5126
40312SOL    HW122943   5.019   6.288  10.856 -0.6240 -1.2529  1.8496
40312SOL    HW222944   4.901   6.195  10.874 -1.8531 -0.3214 -0.8344
40313SOL     OW22945   1.734   6.873  10.016 -0.3450 -0.1219 -0.2137
40313SOL    HW122946   1.694   6.884   9.930 -0.5116 -2.3745 -0.4706
40313SOL    HW222947   1.810   6.932  10.015 -1.1369  0.9107 -1.3550
40314SOL     OW22948   5.961   7.340   7.583  0.1559  0.5285 -0.4718
40314SOL    HW122949   5.956   7.400   7.508 -0.4924 -0.0414 -0.8923
40314SOL    HW222950   6.023   7.273   7.555 -1.6761 -0.8711 -1.3875
40315SOL     OW22951   0.292   1.556  10.012 -0.0290  0.8302  0.0518
40315SOL    HW122952   0.207   1.518   9.991  0.7206 -1.2359  0.5450
40315SOL    HW222953   0.332   1.574   9.927  0.7033 -2.1801 -0.3437
40316SOL     OW22954   2.011   8.878   6.369 -0.5060 -0.3364  0.2720
40316SOL    HW122955   1.971   8.791   6.367 -2.0403  0.3612 -0.8469
40316SOL    HW222956   1.968   8.923   6.442 -2.4388  0.6709 -1.3978
40317SOL     OW22957   9.539   3.115  10.895  0.0750 -0.4903  0.5236
40317SOL    HW122958   9.495   3.130  10.979  0.4230  1.6299  0.3835
40317SOL    HW222959   9.475   3.068  10.842 -0.0846 -2.0243  2.0166
40318SOL     OW22960   6.719   8.755   1.714  0.4024  0.1955  0.0458
40318SOL    HW122961   6.776   8.680   1.730  0.0586 -0.9471 -3.3735
40318SOL    HW222962   6.775   8.819   1.670 -0.2889  0.1245 -0.9723
40319SOL     OW22963   5.645   7.752   9.433  0.5831 -0.1701 -0.0935
40319SOL    HW122964   5.738   7.741   9.450  0.7230  0.5890 -0.3072
40319SOL    HW222965   5.641   7.795   9.347 -0.0180 -1.5342 -0.7830
40320SOL     OW22966   5.308   0.196   5.152 -0.2284 -0.1814  0.0931
40320SOL    HW122967   5.229   0.202   5.205  0.1466 -0.6982  0.7244
40320SOL    HW222968   5.333   0.104   5.156  1.5321  0.3016  1.6024
40321SOL     OW22969   3.047   8.252   0.524  0.3490  0.2188 -0.1487
40321SOL    HW122970   2.974   8.204   0.562  0.0659  0.8318  0.0741
40321SOL    HW222971   3.035   8.242   0.429  1.0072 -1.2312 -0.1209
40322SOL     OW22972   1.931   9.529   9.260  0.3214  0.1917 -0.9120
40322SOL    HW122973   2.012   9.542   9.310  0.7578  0.8377 -1.7557
40322SOL    HW222974   1.875   9.603   9.286  0.6776  0.7156 -1.6156
40323SOL     OW22975   9.759   2.178   7.430 -0.1210  0.1236  0.2084
40323SOL    HW122976   9.683   2.151   7.377  0.2421  0.7180 -0.6308
40323SOL    HW222977   9.822   2.108   7.418 -0.9971 -1.0476  1.9783
40324SOL     OW22978  10.505   5.727   0.376  0.1958 -0.4364 -0.1069
40324SOL    HW122979  10.539   5.675   0.303  0.3090 -1.2673  0.5230
40324SOL    HW222980  10.568   5.712   0.447  0.7614  1.3310 -0.1818
40325SOL     OW22981   2.814   9.893   2.958 -0.1024 -0.5537 -0.1736
40325SOL    HW122982   2.842   9.827   2.895  1.0168 -0.6445  0.3989
40325SOL    HW222983   2.871   9.968   2.943 -0.6798 -0.0943 -0.1228
40326SOL     OW22984   6.019   7.747   1.557  0.0094  0.2151 -0.2918
40326SOL    HW122985   6.059   7.675   1.507 -0.5135  0.0784 -0.5235
40326SOL    HW222986   6.016   7.714   1.647 -1.8796 -0.8187 -0.6758
40327SOL     OW22987   9.861   0.440   6.613 -0.1771 -0.3376 -0.2418
40327SOL    HW122988   9.843   0.353   6.578  1.3434 -1.4437  1.5000
40327SOL    HW222989   9.925   0.479   6.553 -0.2980 -0.7458 -0.6294
40328SOL     OW22990   3.197   4.868   5.077 -0.3350 -0.2962  0.2656
40328SOL    HW122991   3.266   4.899   5.019 -0.8360 -0.4287 -0.4140
40328SOL    HW222992   3.126   4.842   5.019 -0.8477 -0.4467  0.9382
40329SOL     OW22993   8.398   1.107   9.728 -0.9148  0.2473 -0.6633
40329SOL    HW122994   8.480   1.146   9.698 -0.9196  2.7668  2.1139
40329SOL    HW222995   8.349   1.087   9.648  0.5787  2.8751 -2.3622
40330SOL     OW22996   9.452   7.433   3.836  0.1539  0.2113 -0.6052
40330SOL    HW122997   9.445   7.354   3.889  1.0897 -0.3980 -1.3461
40330SOL    HW222998   9.384   7.423   3.769  0.6508 -0.2748 -1.0540
40331SOL     OW22999   9.545   5.461   4.148  0.4696  0.1819 -0.4429
40331SOL    HW123000   9.594   5.538   4.178 -3.6120  1.6740  3.4635
40331SOL    HW223001   9.552   5.398   4.220 -3.4605  0.7059  0.6251
40332SOL     OW23002   2.766   7.812  10.633  0.5349 -0.5847 -0.2422
40332SOL    HW123003   2.853   7.807  10.593  0.1830 -1.6523 -0.9142
40332SOL    HW223004   2.759   7.731  10.684  0.1800 -0.1960  0.3405
40333SOL     OW23005   7.024   5.227   0.320 -0.3900 -0.1392 -0.0091
40333SOL    HW123006   7.016   5.319   0.342 -0.5635 -0.1726  0.0667
40333SOL    HW223007   6.953   5.211   0.258 -1.0766 -0.4932  0.8493
40334SOL     OW23008   9.126   9.181   6.045 -0.2134  0.0888 -0.0765
40334SOL    HW123009   9.055   9.245   6.031  0.2039  0.3017 -1.3849
40334SOL    HW223010   9.104   9.139   6.128 -1.3878  0.7858 -0.0027
40335SOL     OW23011  10.701   1.123   8.441 -0.2499  0.1437  0.4651
40335SOL    HW123012  10.777   1.143   8.496  0.2909  1.5207 -0.7470
40335SOL    HW223013  10.725   1.154   8.354 -0.4265 -3.3952 -1.0201
40336SOL     OW23014   4.675   5.892   8.473 -0.4721  0.2027 -0.3481
40336SOL    HW123015   4.661   5.985   8.452 -0.5421  0.1651 -0.4673
40336SOL    HW223016   4.615   5.874   8.545 -2.2727 -0.3841 -1.9061
40337SOL     OW23017   2.600   1.999   1.483  0.6448  0.0393  0.4124
40337SOL    HW123018   2.618   1.908   1.508  0.5265 -0.1614 -0.2205
40337SOL    HW223019   2.539   2.030   1.550  0.6776 -0.3511  0.6275
40338SOL     OW23020   3.815   7.494   1.026  0.6416 -0.9871 -0.0373
40338SOL    HW123021   3.755   7.434   0.981  0.2565  0.4481 -1.5498
40338SOL    HW223022   3.765   7.526   1.101 -0.9769  0.8834 -1.7703
40339SOL     OW23023  10.390   7.174   4.511 -0.1817 -0.3232 -0.0752
40339SOL    HW123024  10.314   7.127   4.477 -1.5028  2.3382 -1.0530
40339SOL    HW223025  10.453   7.174   4.439  0.0840 -1.0672  0.1453
40340SOL     OW23026   5.553   4.737  10.268 -0.2653  0.3373  0.0554
40340SOL    HW123027   5.603   4.731  10.349  0.9126 -0.7663 -0.7227
40340SOL    HW223028   5.507   4.654  10.262  1.3230 -0.4854 -1.4312
40341SOL     OW23029   7.854   6.262   5.319  0.2619  0.0216 -0.1244
40341SOL    HW123030   7.778   6.297   5.272  2.6866  3.0900 -2.0992
40341SOL    HW223031   7.865   6.174   5.284 -1.5811 -0.0071 -0.7571
40342SOL     OW23032  10.942   0.632   5.587  0.3650  0.4282  0.8376
40342SOL    HW123033  10.948   0.674   5.672  0.9595  0.7486  0.6385
40342SOL    HW223034  11.017   0.573   5.583 -0.5146 -0.7743  1.1595
40343SOL     OW23035   1.611   1.555   3.911 -0.2172 -0.4491  0.0271
40343SOL    HW123036   1.683   1.615   3.894  0.7219 -1.3251  0.7860
40343SOL    HW223037   1.595   1.512   3.827  1.7051 -1.8911  0.3372
40344SOL     OW23038   9.708   6.888   5.096 -0.5276 -0.5931 -0.0910
40344SOL    HW123039   9.779   6.877   5.159 -1.9308 -3.6800  1.1674
40344SOL    HW223040   9.700   6.982   5.085  1.4228 -0.0189  2.4169
40345SOL     OW23041   4.046   5.359   8.397  0.0398 -0.6769 -0.8528
40345SOL    HW123042   4.084   5.428   8.452 -0.4096  0.3053 -1.7454
40345SOL    HW223043   3.985   5.314   8.454  0.2867 -0.2892 -0.2680
40346SOL     OW23044   2.018   1.739   6.277 -0.1014 -0.0480  0.5464
40346SOL    HW123045   2.044   1.663   6.226 -0.5126  0.2149 -0.0601
40346SOL    HW223046   2.101   1.777   6.307  0.2369  0.7568 -1.3192
40347SOL     OW23047   3.600   0.121   7.161 -0.1353  0.5679  0.3060
40347SOL    HW123048   3.610   0.075   7.244  0.0628  1.1697  0.6247
40347SOL    HW223049   3.512   0.159   7.165 -0.3184  0.1723  0.0227
40348SOL     OW23050  10.551   4.136   4.670 -0.0667 -0.2435  0.2857
40348SOL    HW123051  10.609   4.060   4.677  1.0076  0.4666 -0.5456
40348SOL    HW223052  10.598   4.206   4.716 -0.7062  0.0996  0.4169
40349SOL     OW23053   9.709   7.945   7.789  0.3985  0.3388  0.1897
40349SOL    HW123054   9.722   7.853   7.810 -1.1349  0.2918  1.0846
40349SOL    HW223055   9.780   7.966   7.728  0.2888 -1.6577 -0.7111
40350SOL     OW23056  10.345   2.174   5.747  0.0242 -0.1830 -0.2496
40350SOL    HW123057  10.335   2.269   5.747  0.5931 -0.1205 -0.0939
40350SOL    HW223058  10.262   2.141   5.711  0.2139  0.4121 -1.2740
40351SOL     OW23059   1.443   5.409   7.932  0.2877 -0.6051 -0.5274
40351SOL    HW123060   1.406   5.345   7.993 -1.6960  3.1076  2.6490
40351SOL    HW223061   1.512   5.452   7.983  0.3322  0.9831 -1.8661
40352SOL     OW23062   3.506   6.596   0.898 -0.5496  0.2716 -0.2582
40352SOL    HW123063   3.579   6.655   0.912 -0.8864  0.2064  2.1674
40352SOL    HW223064   3.546   6.511   0.881 -0.0765  0.6811 -1.2148
40353SOL     OW23065   1.332   3.365   4.174  0.3849 -0.7986  0.5352
40353SOL    HW123066   1.426   3.348   4.184  1.3832  1.3716 -3.2894
40353SOL    HW223067   1.297   3.286   4.134  1.1516 -0.6635 -0.4236
40354SOL     OW23068   6.532   4.675   5.257  0.3924  0.3675 -0.4158
40354SOL    HW123069   6.439   4.657   5.269  0.3977  0.1321 -0.6926
40354SOL    HW223070   6.560   4.612   5.189  0.8456  0.1364 -0.0252
40355SOL     OW23071   1.926   3.497   9.408  0.5078 -0.4270 -0.0554
40355SOL    HW123072   1.847   3.442   9.411  1.1138 -1.2772  1.0570
40355SOL    HW223073   1.934   3.532   9.497 -0.0064  1.7044 -0.8108
40356SOL     OW23074   6.278   2.285   4.809 -0.1391 -0.3788 -0.1984
40356SOL    HW123075   6.272   2.279   4.714  0.5084  1.4536 -0.3785
40356SOL    HW223076   6.365   2.321   4.826 -1.0076  1.2989  0.9610
40357SOL     OW23077   8.785  10.018   8.736  0.9025  0.0770  0.2959
40357SOL    HW123078   8.831   9.937   8.717 -0.8872 -1.0016  0.2983
40357SOL    HW223079   8.848  10.088   8.715  2.9236 -1.2925  1.4833
40358SOL     OW23080   3.833   8.500   7.907 -0.6919 -0.1096 -0.2766
40358SOL    HW123081   3.754   8.479   7.955 -0.1535 -1.5064  0.0476
40358SOL    HW223082   3.897   8.435   7.936  0.3718  0.5640 -1.0322
40359SOL     OW23083   2.148   1.978   2.500  0.2538  0.3863  0.3651
40359SOL    HW123084   2.218   1.952   2.440 -0.1912 -0.8845  0.3788
40359SOL    HW223085   2.190   2.040   2.560  1.4382 -0.5350  0.5326
40360SOL     OW23086   8.821   2.592   5.602  0.6288 -0.7926  0.1395
40360SOL    HW123087   8.907   2.597   5.561  0.6560  0.1610  0.3005
40360SOL    HW223088   8.839   2.561   5.691  0.8789 -0.0432  0.3615
40361SOL     OW23089   0.899   5.158   6.295  0.2797  0.3166 -0.4181
40361SOL    HW123090   0.809   5.162   6.263  0.1761  0.0528 -0.1529
40361SOL    HW223091   0.950   5.206   6.228 -0.3266  2.2764  0.4618
40362SOL     OW23092   2.188   2.271   9.321  0.1456  0.6466  0.0962
40362SOL    HW123093   2.219   2.273   9.412  0.3343 -0.7824  0.0798
40362SOL    HW223094   2.103   2.314   9.324  0.2953  0.9088  0.8958
40363SOL     OW23095   5.992   6.805   6.188 -0.2916 -0.1852 -0.1482
40363SOL    HW123096   5.978   6.900   6.188 -0.3595 -0.1631 -2.0438
40363SOL    HW223097   6.087   6.795   6.182 -0.2585 -0.2676  0.3903
40364SOL     OW23098   7.000   1.901  11.019 -0.9437  0.7246 -0.1919
40364SOL    HW123099   7.041   1.963  10.959  1.2005  0.8574  1.3046
40364SOL    HW223100   6.961   1.955  11.087 -0.3110  0.5177  0.3540
40365SOL     OW23101   9.028   8.108   6.427  0.4155 -0.2436  0.0278
40365SOL    HW123102   8.957   8.092   6.489 -0.1059 -1.5470 -0.8443
40365SOL    HW223103   9.025   8.202   6.409  1.1962  0.3532  2.6403
40366SOL     OW23104   7.139  10.749  10.754  0.3873 -0.1409  0.6583
40366SOL    HW123105   7.131  10.662  10.714 -3.8867  0.1378  0.4108
40366SOL    HW223106   7.145  10.731  10.848 -3.2351 -0.8995  0.8839
40367SOL     OW23107   8.419   4.892   6.265  0.1877 -0.5984  0.3214
40367SOL    HW123108   8.459   4.866   6.182 -0.1858 -1.7545  0.4780
40367SOL    HW223109   8.359   4.820   6.285  0.2555 -0.3150  1.5807
40368SOL     OW23110   1.345   3.612   8.542 -0.0008  0.1411  0.4696
40368SOL    HW123111   1.361   3.587   8.451 -0.0538 -0.2441  0.5641
40368SOL    HW223112   1.269   3.560   8.567 -0.7200  1.1138  0.3717
40369SOL     OW23113   2.082  10.420   6.719 -0.1140 -0.2638  0.3914
40369SOL    HW123114   2.029  10.361   6.773  0.4092 -2.2701 -1.1279
40369SOL    HW223115   2.173  10.394   6.737  0.3765  2.1909  1.9282
40370SOL     OW23116   4.873   0.323   4.640 -0.1657 -0.0843 -0.1248
40370SOL    HW123117   4.947   0.345   4.696 -0.9499  0.1599  0.8274
40370SOL    HW223118   4.913   0.298   4.557  0.9508  0.8566  0.1019
40371SOL     OW23119   7.009   7.391   5.590  0.2902 -0.5023  0.0362
40371SOL    HW123120   6.968   7.336   5.657 -1.4076  1.5158  0.7614
40371SOL    HW223121   6.947   7.389   5.517 -0.2673  1.1114  0.4233
40372SOL     OW23122   2.678   1.066   1.891 -0.2011  0.0896 -0.3267
40372SOL    HW123123   2.584   1.049   1.892 -0.0324 -0.9286 -0.7670
40372SOL    HW223124   2.714   1.006   1.956  0.3214 -0.7490 -1.3531
40373SOL     OW23125   0.226   7.070   6.758  0.6504 -0.1857  0.1859
40373SOL    HW123126   0.199   6.979   6.750 -0.3449  0.0936  0.1876
40373SOL    HW223127   0.165   7.108   6.821  0.9759  0.5109  0.0921
40374SOL     OW23128   3.547   0.959   8.251  0.3919  0.1078  0.2885
40374SOL    HW123129   3.600   1.014   8.308  1.2957 -0.2907 -0.1309
40374SOL    HW223130   3.557   0.998   8.164 -0.0608  0.0677  0.2198
40375SOL     OW23131   6.746   1.301   3.354  0.4844 -0.0039 -0.2029
40375SOL    HW123132   6.719   1.339   3.437  1.0312 -0.6539  0.2784
40375SOL    HW223133   6.780   1.215   3.376  0.5787 -0.2126 -1.1090
40376SOL     OW23134   5.329   2.926  10.568  0.1511 -0.4324 -0.5645
40376SOL    HW123135   5.268   2.918  10.495  0.7165  0.4275 -1.1493
40376SOL    HW223136   5.414   2.940  10.526  0.1292  2.6700  0.2235
40377SOL     OW23137   9.272   0.057   0.536  0.3982  0.0418 -0.9840
40377SOL    HW123138   9.284   0.073   0.442  0.7417 -1.1507 -1.1518
40377SOL    HW223139   9.180   0.076   0.552 -0.0148 -1.1042 -1.8653
40378SOL     OW23140  10.651   5.865  10.837 -0.3457  0.1492 -0.7086
40378SOL    HW123141  10.558   5.845  10.854 -0.2885  0.4758  0.0181
40378SOL    HW223142  10.692   5.862  10.923  0.4843 -0.7781 -1.1125
40379SOL     OW23143   9.025   8.017   9.336 -0.1190 -0.5258 -0.3814
40379SOL    HW123144   9.015   8.097   9.389  1.0130 -0.4854 -0.2039
40379SOL    HW223145   8.935   7.984   9.326 -0.7410  1.2362 -1.2088
40380SOL     OW23146   1.511   7.763   8.937  0.1944 -0.0731 -0.3219
40380SOL    HW123147   1.494   7.669   8.945 -0.6284  0.0754 -0.1896
40380SOL    HW223148   1.424   7.803   8.944  0.5048  0.6763 -0.6871
40381SOL     OW23149   8.462  10.205   5.862  0.4084  0.9970  0.1169
40381SOL    HW123150   8.430  10.205   5.772  0.0406 -0.0521  0.2353
40381SOL    HW223151   8.486  10.297   5.879 -0.6564  1.4388 -0.6365
40382SOL     OW23152   8.764   8.593   9.780 -0.5570  0.1218 -0.5025
40382SOL    HW123153   8.675   8.610   9.810  0.6004  0.4672  3.2178
40382SOL    HW223154   8.790   8.674   9.735 -1.2005  1.1636  0.9376
40383SOL     OW23155  10.786   5.968   1.845 -0.4259 -0.1076  0.1104
40383SOL    HW123156  10.877   5.996   1.829 -0.0708 -1.0803  0.3642
40383SOL    HW223157  10.733   6.040   1.811  0.3975 -0.2024 -1.4940
40384SOL     OW23158   7.788  10.927   6.726  0.0755  0.1718  0.8143
40384SOL    HW123159   7.709  10.960   6.684 -0.1173  0.3237  1.2905
40384SOL    HW223160   7.770  10.835   6.745  0.4328 -0.0940 -0.0762
40385SOL     OW23161   3.975   0.273   9.755  0.4230  0.0680  0.5093
40385SOL    HW123162   3.959   0.360   9.719 -0.1565  0.0377  0.6967
40385SOL    HW223163   4.003   0.221   9.680 -0.8268 -0.0066  0.0724
40386SOL     OW23164   3.180   9.994   1.846  0.0929 -0.1631  0.5166
40386SOL    HW123165   3.237  10.023   1.776  0.0598 -0.3164  0.4267
40386SOL    HW223166   3.226   9.921   1.887  0.4173  0.3511  1.0788
40387SOL     OW23167   5.121   3.604   1.886  0.2177 -0.1094  0.1536
40387SOL    HW123168   5.026   3.598   1.901  0.0042 -0.2094 -1.1416
40387SOL    HW223169   5.130   3.604   1.791  1.5539 -0.5017  0.2657
40388SOL     OW23170   0.576   9.877   8.895  0.1137 -0.5300  0.4330
40388SOL    HW123171   0.543   9.788   8.883  0.6152 -0.5373 -1.1385
40388SOL    HW223172   0.596   9.908   8.806  1.3198  0.6147  1.0570
40389SOL     OW23173   3.661   3.758   6.907 -0.2255 -0.0807  0.4105
40389SOL    HW123174   3.636   3.830   6.849 -1.3567  0.9019  2.0120
40389SOL    HW223175   3.583   3.742   6.960  0.7711 -0.8711  1.7119
40390SOL     OW23176   7.116   1.929   2.772 -0.2944  0.3945  0.2380
40390SOL    HW123177   7.103   2.023   2.757  0.9972  0.4658 -0.6323
40390SOL    HW223178   7.030   1.896   2.795 -0.6414  1.9128  1.2370
40391SOL     OW23179   0.357   5.792  10.485  0.8058 -0.2469 -0.4677
40391SOL    HW123180   0.324   5.864  10.432  1.4759  0.5029  0.1152
40391SOL    HW223181   0.443   5.821  10.515  0.8444 -1.0527  0.2477
40392SOL     OW23182   4.910   1.271   7.612 -0.2887 -0.0753 -0.4163
40392SOL    HW123183   4.896   1.327   7.536  1.0756 -0.6434 -1.1229
40392SOL    HW223184   5.003   1.282   7.633 -0.5917 -0.1129  1.0262
40393SOL     OW23185   4.269   3.372   2.474  0.0468  0.8278  0.2993
40393SOL    HW123186   4.187   3.334   2.442  2.0185 -1.7148 -2.2933
40393SOL    HW223187   4.276   3.344   2.565 -1.6280  0.5656  0.3722
40394SOL     OW23188   9.655   8.493   9.439 -0.1286 -0.0193 -0.0335
40394SOL    HW123189   9.698   8.572   9.472  0.8319 -0.1838 -0.8834
40394SOL    HW223190   9.690   8.422   9.493 -1.3675  0.1652  1.0710
40395SOL     OW23191   7.766  10.128   6.462  0.0694  0.4641 -0.2189
40395SOL    HW123192   7.727  10.042   6.477  1.5507 -0.1349  0.3918
40395SOL    HW223193   7.764  10.170   6.548 -0.6886  1.0913 -0.5214
40396SOL     OW23194   4.030   8.012   1.647 -0.5516  0.5919 -0.3543
40396SOL    HW123195   3.954   8.057   1.609 -1.4691  0.1589  0.9047
40396SOL    HW223196   3.997   7.925   1.669  0.9806 -0.4949 -2.0166
40397SOL     OW23197   1.743   5.709   0.628  0.0515 -0.2732  0.7848
40397SOL    HW123198   1.748   5.614   0.639 -0.2869 -0.2633  1.0484
40397SOL    HW223199   1.746   5.722   0.534 -1.6520 -0.6702  0.6335
40398SOL     OW23200   6.721   3.050   4.256  0.3971  0.7050 -0.0179
40398SOL    HW123201   6.741   3.089   4.171 -0.8810 -0.9769 -1.1460
40398SOL    HW223202   6.732   2.956   4.243 -0.5618  0.3492  1.4765
40399SOL     OW23203   5.425   8.727   2.048  0.0578 -0.3209  0.3258
40399SOL    HW123204   5.461   8.810   2.018 -1.2093 -0.1608 -0.8529
40399SOL    HW223205   5.403   8.742   2.140  0.7087  0.3272  0.3876
40400SOL     OW23206   0.848   4.702   9.739 -0.2338  0.7331 -0.4215
40400SOL    HW123207   0.868   4.790   9.770  1.0047  0.5129 -0.5522
40400SOL    HW223208   0.794   4.664   9.808  0.4166  1.1102  0.3104
40401SOL     OW23209   7.205   0.595  10.649  0.0244 -0.1066  0.3068
40401SOL    HW123210   7.300   0.586  10.650 -0.0137 -0.8932 -1.2890
40401SOL    HW223211   7.175   0.535  10.581 -1.5221  1.0350 -0.0727
40402SOL     OW23212  10.678  10.082   5.569  0.2924  0.6025 -0.3676
40402SOL    HW123213  10.756  10.135   5.584  0.8980 -0.1852 -0.6798
40402SOL    HW223214  10.635  10.077   5.654  0.4117  1.2939 -0.2600
40403SOL     OW23215  10.367   9.386   0.461  0.2315  0.4228 -0.2723
40403SOL    HW123216  10.418   9.466   0.475 -0.1961  0.6048  0.2874
40403SOL    HW223217  10.309   9.407   0.387 -0.4063  0.8987  0.3520
40404SOL     OW23218   7.367   7.547   3.693  0.7650 -0.3679  0.7889
40404SOL    HW123219   7.315   7.591   3.625 -0.4941  0.1130  2.0229
40404SOL    HW223220   7.403   7.619   3.746  0.5709 -0.7634  1.4671
40405SOL     OW23221   1.990   3.753   8.971 -0.4965 -0.2120  0.1632
40405SOL    HW123222   1.958   3.842   8.984  0.9837  0.2514  0.8293
40405SOL    HW223223   2.083   3.763   8.954 -0.3056 -1.6443  0.2563
40406SOL     OW23224   0.139   7.952   1.420 -0.3505  0.0381 -0.0095
40406SOL    HW123225   0.167   8.035   1.459  0.4275 -0.5184  0.6536
40406SOL    HW223226   0.131   7.970   1.327 -1.2498  1.1341  0.2626
40407SOL     OW23227   3.047   2.776   6.141  0.2260 -0.1614  0.2714
40407SOL    HW123228   2.970   2.736   6.181  1.6168 -1.8476  1.4156
40407SOL    HW223229   3.092   2.704   6.098  1.2596  0.7562 -0.2363
40408SOL     OW23230   0.689   4.035   1.463 -0.0053 -0.7125  0.4507
40408SOL    HW123231   0.682   3.939   1.470 -1.2675 -0.5992  1.0051
40408SOL    HW223232   0.707   4.050   1.370  1.2506 -1.5206  0.5285
40409SOL     OW23233   3.869   5.031   2.111 -0.3314 -0.0630 -0.1347
40409SOL    HW123234   3.836   4.949   2.074 -0.4789  0.3948 -1.0172
40409SOL    HW223235   3.806   5.097   2.084  0.6685  0.6209 -0.8281
40410SOL     OW23236   4.743   4.175   5.247 -0.0649  0.0564  0.1871
40410SOL    HW123237   4.755   4.198   5.339 -0.9915  0.0061  0.3300
40410SOL    HW223238   4.719   4.082   5.249 -1.0726  0.3011 -0.0157
40411SOL     OW23239   8.534   4.729   3.600  0.5309  0.6625 -0.3327
40411SOL    HW123240   8.602   4.703   3.538  1.0793  0.1372  0.4639
40411SOL    HW223241   8.579   4.784   3.664  0.3761 -0.2685  0.6014
40412SOL     OW23242   5.177  10.931   8.946  0.2583  1.0019 -0.2250
40412SOL    HW123243   5.093  10.936   8.899 -0.0287  0.9082  0.2745
40412SOL    HW223244   5.188  11.017   8.985 -0.4646  0.4866  1.1660
40413SOL     OW23245   1.297   6.085   2.599 -0.3040  0.1649 -0.1329
40413SOL    HW123246   1.312   6.077   2.505  0.3967  0.0950 -0.0198
40413SOL    HW223247   1.384   6.079   2.638 -0.7108 -1.2946  0.6216
40414SOL     OW23248   5.491   9.583   4.574  0.0713 -0.4982 -0.0153
40414SOL    HW123249   5.401   9.556   4.593  0.1550  0.5436  2.1693
40414SOL    HW223250   5.485   9.632   4.492 -1.6587  0.9307  0.9067
40415SOL     OW23251   0.935   7.873  10.753  0.1717  0.4184  0.2346
40415SOL    HW123252   0.935   7.823  10.834 -0.0878  0.2065  0.1032
40415SOL    HW223253   1.026   7.902  10.742  0.4175 -0.4059  0.0721
40416SOL     OW23254   0.864   1.551   5.715  0.0572  0.2056 -0.6786
40416SOL    HW123255   0.813   1.534   5.794  0.0464  1.0635 -0.4892
40416SOL    HW223256   0.921   1.625   5.738 -0.3918  0.8830 -1.6646
40417SOL     OW23257   9.354   5.960   8.775  0.1535 -0.6177 -0.6824
40417SOL    HW123258   9.361   5.906   8.696 -1.0481 -0.5134 -0.8804
40417SOL    HW223259   9.270   5.937   8.813  1.5969 -2.2433  1.7851
40418SOL     OW23260   1.519  10.271   5.115 -0.5955  0.5857  0.4160
40418SOL    HW123261   1.496  10.341   5.176 -0.4474  0.7539  0.2808
40418SOL    HW223262   1.524  10.314   5.029 -1.2329  0.2684  0.2145
40419SOL     OW23263   1.901   0.815   1.770  0.1720  0.2514  0.2378
40419SOL    HW123264   1.989   0.781   1.782 -0.1553 -0.3795  0.9431
40419SOL    HW223265   1.848   0.738   1.749 -0.1729  0.6576 -0.4265
40420SOL     OW23266   0.890   3.339   8.407 -0.5166 -0.7054  0.0585
40420SOL    HW123267   0.856   3.399   8.474  1.0932 -0.1716  0.4344
40420SOL    HW223268   0.872   3.252   8.442  0.8686 -0.4445  1.5359
40421SOL     OW23269   2.155   6.767  10.713  0.6244 -0.4874 -0.4753
40421SOL    HW123270   2.173   6.704  10.643  2.1528 -0.5079 -0.0828
40421SOL    HW223271   2.182   6.723  10.793  2.0194  0.7545 -0.2279
40422SOL     OW23272   1.380   6.454   9.505 -0.0268 -0.5129 -0.3845
40422SOL    HW123273   1.330   6.380   9.539 -0.1253  0.0233  0.6596
40422SOL    HW223274   1.375   6.521   9.573  2.6219 -0.6511  0.0597
40423SOL     OW23275   4.872   8.576   7.631  0.0183 -0.0016 -0.0514
40423SOL    HW123276   4.858   8.647   7.694  0.1227  0.7003 -0.7994
40423SOL    HW223277   4.827   8.606   7.552 -0.7627 -1.2091 -0.0942
40424SOL     OW23278   9.399   0.826   8.065 -0.3460 -0.4882  0.2486
40424SOL    HW123279   9.330   0.890   8.048  0.7734  0.9913  0.9940
40424SOL    HW223280   9.362   0.768   8.131 -0.9754  0.1108  0.4389
40425SOL     OW23281   0.705   8.028   1.498  0.2513 -0.4144  0.0590
40425SOL    HW123282   0.659   8.101   1.457 -0.8023  0.1963  2.2237
40425SOL    HW223283   0.644   7.954   1.492  0.2364 -0.4163  0.2337
40426SOL     OW23284   0.294   5.683   7.559  0.0412  0.0361 -0.0318
40426SOL    HW123285   0.338   5.603   7.589  2.7452  0.6581 -1.9539
40426SOL    HW223286   0.236   5.707   7.632  0.3871 -2.7110  1.2949
40427SOL     OW23287   8.474   5.956   9.095 -0.0921  0.1184 -0.7040
40427SOL    HW123288   8.497   5.998   9.178  0.8064 -0.6144 -0.5731
40427SOL    HW223289   8.467   6.029   9.033 -0.2043  0.6166 -0.1204
40428SOL     OW23290   0.616   7.003   5.731 -0.2179  0.8986 -0.0936
40428SOL    HW123291   0.711   6.996   5.721 -0.1042  2.2656 -0.1779
40428SOL    HW223292   0.599   7.097   5.733 -1.5546  0.6731  0.1380
40429SOL     OW23293  10.346  10.154   4.347 -0.9131 -0.3604 -0.5393
40429SOL    HW123294  10.393  10.215   4.404 -0.8305 -0.4552 -0.5056
40429SOL    HW223295  10.404  10.140   4.273 -1.2626  0.2036 -0.9264
40430SOL     OW23296   2.178   6.316   5.415  0.0953 -0.1847 -0.3868
40430SOL    HW123297   2.215   6.289   5.499  1.5577 -0.2185 -1.0099
40430SOL    HW223298   2.212   6.251   5.352 -0.7148  0.0204 -1.0529
40431SOL     OW23299   8.414   0.033  10.210 -0.8172 -0.5081 -0.7369
40431SOL    HW123300   8.345   0.098  10.192 -1.8782 -1.6944 -1.1281
40431SOL    HW223301   8.472   0.076  10.272 -1.8983  0.5656 -0.4293
40432SOL     OW23302   0.957   5.905   3.742 -0.5340 -0.9434 -0.0063
40432SOL    HW123303   0.932   5.933   3.830 -1.0495 -1.4320  0.0091
40432SOL    HW223304   1.051   5.923   3.737 -0.0457 -2.7920  1.3926
40433SOL     OW23305   2.409   6.077   7.086  0.0027  0.0940 -0.0022
40433SOL    HW123306   2.434   6.151   7.031  0.4434  0.3386  0.5196
40433SOL    HW223307   2.482   6.017   7.081 -1.2982 -1.4442 -2.3153
40434SOL     OW23308   7.916   8.664   2.044  0.1053 -0.6746  0.6581
40434SOL    HW123309   8.010   8.649   2.039  0.1719 -0.3819  0.9891
40434SOL    HW223310   7.894   8.712   1.964  0.6786  1.5018  1.7148
40435SOL     OW23311   4.937   5.481   2.804  0.4477  0.5874  0.5092
40435SOL    HW123312   4.998   5.488   2.878 -0.2664  0.2225  1.1450
40435SOL    HW223313   4.890   5.399   2.820  2.0418 -0.8806 -1.7180
40436SOL     OW23314   0.359   5.141  10.811 -0.2063 -0.0870  0.3412
40436SOL    HW123315   0.451   5.167  10.813  0.7083 -2.9350  0.2426
40436SOL    HW223316   0.323   5.185  10.734  1.7808 -0.8370 -1.1081
40437SOL     OW23317   1.443   7.864  10.545  0.2725 -0.2406 -0.2377
40437SOL    HW123318   1.410   7.807  10.476  0.1382 -0.0711 -0.3143
40437SOL    HW223319   1.379   7.858  10.616  0.3414 -0.3094 -0.1807
40438SOL     OW23320   1.388   2.271   0.484 -0.1567 -0.1554  0.1858
40438SOL    HW123321   1.409   2.336   0.417  0.9087 -2.6078 -2.0309
40438SOL    HW223322   1.345   2.199   0.436  2.4344 -2.9096  1.6698
40439SOL     OW23323   1.306   5.413   9.375 -0.2548 -0.6128 -0.3730
40439SOL    HW123324   1.246   5.441   9.444 -2.6948 -2.0485 -1.7547
40439SOL    HW223325   1.352   5.338   9.413 -0.2143 -0.2645  0.2900
40440SOL     OW23326   5.659   9.430   6.606 -0.6303  0.0431  0.2489
40440SOL    HW123327   5.702   9.508   6.572 -0.3374 -0.3380 -0.2574
40440SOL    HW223328   5.615   9.460   6.686  1.7338  0.1687  1.6076
40441SOL     OW23329   2.370   7.681   0.710  0.3412  0.0411 -0.1658
40441SOL    HW123330   2.394   7.697   0.802  3.0812  3.7106 -1.2567
40441SOL    HW223331   2.289   7.731   0.697  0.1804 -0.1344  0.1549
40442SOL     OW23332   3.393   7.219   3.744 -0.6801  0.1097 -0.1670
40442SOL    HW123333   3.342   7.206   3.665  0.8889  1.2599 -1.4334
40442SOL    HW223334   3.351   7.163   3.809 -1.5865 -1.4475 -1.9899
40443SOL     OW23335   4.551   6.341   4.303 -0.4025 -0.1525  0.0135
40443SOL    HW123336   4.541   6.368   4.395  0.2775 -1.9317  0.6547
40443SOL    HW223337   4.542   6.245   4.305  1.0711 -0.3747 -1.5539
40444SOL     OW23338   4.795   6.120   0.890  0.0866 -0.1260  0.0649
40444SOL    HW123339   4.846   6.138   0.812 -0.5664  1.4160 -0.0352
40444SOL    HW223340   4.779   6.025   0.887  0.8941 -0.2367 -1.1416
40445SOL     OW23341   1.442   7.602   0.376 -0.4787  0.0664  0.2910
40445SOL    HW123342   1.475   7.692   0.372 -1.2839  0.3521 -0.2483
40445SOL    HW223343   1.520   7.547   0.376  0.0005  0.7309 -0.5929
40446SOL     OW23344   8.761  10.936  10.385  0.1162  0.4170 -0.3748
40446SOL    HW123345   8.848  10.898  10.380  0.5064  1.2878 -0.3048
40446SOL    HW223346   8.718  10.909  10.304 -0.2081 -1.5303  0.3714
40447SOL     OW23347   2.128   3.862  10.398  0.1977 -0.6746 -0.4918
40447SOL    HW123348   2.146   3.860  10.304 -2.3487  0.4699 -1.1063
40447SOL    HW223349   2.087   3.948  10.412 -3.2224 -2.3389  0.8097
40448SOL     OW23350  11.027   5.561   3.525  0.6675 -0.4156  0.3711
40448SOL    HW123351  10.965   5.489   3.516  0.8528 -0.5514  0.1752
40448SOL    HW223352  11.098   5.525   3.579  0.3385 -0.1049  1.0291
40449SOL     OW23353   3.434   2.071   8.141 -0.2658 -0.1446  0.3034
40449SOL    HW123354   3.475   2.014   8.076  1.4045  0.8472  0.4461
40449SOL    HW223355   3.353   2.026   8.164 -0.6301 -0.8148 -2.0161
40450SOL     OW23356   9.731   0.987   8.714  0.3460  0.0188  0.1897
40450SOL    HW123357   9.819   1.024   8.706  0.4895 -0.0816  1.1502
40450SOL    HW223358   9.725   0.959   8.805 -0.2375 -1.1045 -0.1679
40451SOL     OW23359   4.890   2.939   6.153 -0.0339 -0.4947 -0.4443
40451SOL    HW123360   4.939   2.873   6.104  2.9022  1.5844 -0.5605
40451SOL    HW223361   4.844   2.989   6.086  0.5629 -0.2676 -0.6912
40452SOL     OW23362   3.562  10.946   9.746  0.2546 -0.0193  0.0916
40452SOL    HW123363   3.494  11.011   9.760  0.0955  0.4472 -2.4162
40452SOL    HW223364   3.564  10.933   9.651  3.6411 -0.0117  0.0486
40453SOL     OW23365   2.725   6.145  10.668 -0.0501 -0.7392  0.1285
40453SOL    HW123366   2.727   6.102  10.582 -1.3311 -1.9613  0.6752
40453SOL    HW223367   2.782   6.092  10.722 -0.1242 -0.6227  0.3215
40454SOL     OW23368   2.139   8.926   5.918  0.0353 -0.1269  0.4875
40454SOL    HW123369   2.096   8.970   5.992 -1.1922 -0.1035 -0.2033
40454SOL    HW223370   2.133   8.833   5.939 -2.5275 -0.3038 -0.6436
40455SOL     OW23371   2.998   7.426   4.174  0.0814 -0.6306  0.1462
40455SOL    HW123372   2.916   7.470   4.151  0.6529 -0.0727 -0.9351
40455SOL    HW223373   2.995   7.417   4.269 -1.1832 -0.5298  0.1322
40456SOL     OW23374   3.830   8.911   6.274 -0.2605  0.5220 -0.1274
40456SOL    HW123375   3.769   8.928   6.346  0.5108 -2.3703  1.3708
40456SOL    HW223376   3.916   8.912   6.315  0.3575  0.6503 -1.4018
40457SOL     OW23377   2.874   0.996   9.345 -0.1854  0.4530  0.1021
40457SOL    HW123378   2.795   0.946   9.366 -0.9408  0.4335 -2.4327
40457SOL    HW223379   2.883   0.987   9.250  5.2423 -3.0890  0.5387
40458SOL     OW23380   2.708   4.136   5.416 -0.6356  0.4703  0.3793
40458SOL    HW123381   2.797   4.110   5.393 -0.6095  0.7502  0.1536
40458SOL    HW223382   2.658   4.124   5.335 -0.7480  0.5527  0.4367
40459SOL     OW23383   8.088   3.127   7.676 -0.1023  0.1572  0.4362
40459SOL    HW123384   8.107   3.220   7.684 -0.1676  0.1653  0.4941
40459SOL    HW223385   8.175   3.086   7.670 -0.0127  0.5771 -4.1874
40460SOL     OW23386   4.400   4.789   0.049  0.2526  0.4989  0.1998
40460SOL    HW123387   4.452   4.710   0.031 -1.1073 -0.1809 -1.0078
40460SOL    HW223388   4.366   4.776   0.137 -0.6037 -0.6822 -0.2778
40461SOL     OW23389   2.097   5.381   0.748 -0.0868 -0.1696  0.1401
40461SOL    HW123390   2.048   5.407   0.826 -0.4821 -1.2967  0.2776
40461SOL    HW223391   2.101   5.286   0.752  1.0923 -0.1682 -0.4997
40462SOL     OW23392   5.739   8.193   7.129 -0.1167  0.3243  0.5253
40462SOL    HW123393   5.758   8.227   7.041 -2.5508  1.3586  0.3277
40462SOL    HW223394   5.819   8.211   7.178  0.8165  0.9780 -1.1330
40463SOL     OW23395   9.328   7.722   9.592 -0.4050  0.3107  0.3175
40463SOL    HW123396   9.255   7.693   9.536  0.2909 -0.6935 -0.1129
40463SOL    HW223397   9.339   7.651   9.655  0.7844 -0.0083 -0.2121
40464SOL     OW23398   1.639   8.256   9.005 -0.0279 -0.4755 -0.7001
40464SOL    HW123399   1.696   8.236   9.079 -0.1244 -0.2179 -0.5551
40464SOL    HW223400   1.657   8.187   8.941  1.1709  0.1449 -1.0651
40465SOL     OW23401   6.641  10.220   3.984 -0.2427 -0.0788  0.4916
40465SOL    HW123402   6.734  10.239   3.996  0.7214 -1.9045 -2.6815
40465SOL    HW223403   6.596  10.301   4.007  2.3631  1.6755 -0.1900
40466SOL     OW23404   9.889   7.821   8.838 -0.6058 -0.1778  0.3204
40466SOL    HW123405   9.825   7.811   8.768 -1.1722  0.3505  0.7536
40466SOL    HW223406   9.838   7.811   8.919 -0.3558  1.3139  0.6932
40467SOL     OW23407   3.610   7.489   6.679 -0.4465  0.4481  0.4211
40467SOL    HW123408   3.539   7.432   6.707 -2.4084  2.0316 -0.9564
40467SOL    HW223409   3.626   7.547   6.754 -0.8182  0.2523  0.6517
40468SOL     OW23410   3.255   2.622  10.244 -0.0395 -0.2385  0.0073
40468SOL    HW123411   3.189   2.562  10.278  0.0686  1.2077  3.0604
40468SOL    HW223412   3.241   2.621  10.149 -1.5425 -3.2405  0.1563
40469SOL     OW23413   0.847   8.836   1.835  0.2632 -0.6539  0.1806
40469SOL    HW123414   0.940   8.857   1.839  0.8579 -3.1953  1.9431
40469SOL    HW223415   0.817   8.839   1.925 -1.0208 -1.2555 -0.1958
40470SOL     OW23416   4.698   2.541   2.944 -0.4974  0.3640  0.4770
40470SOL    HW123417   4.613   2.507   2.972 -1.2393  2.7294  1.3406
40470SOL    HW223418   4.694   2.538   2.848 -0.6337 -1.5559  0.4980
40471SOL     OW23419   0.559   9.775   7.074 -0.2546  0.2033 -0.2139
40471SOL    HW123420   0.523   9.718   7.142  1.8483  1.1848  1.8550
40471SOL    HW223421   0.610   9.716   7.018 -2.0321 -0.6190 -1.0526
40472SOL     OW23422   2.782   2.282   2.053 -0.2101 -0.0429 -0.3092
40472SOL    HW123423   2.719   2.354   2.053 -0.2239 -0.0544 -0.8523
40472SOL    HW223424   2.760   2.231   1.975 -0.7372 -1.1056  0.4972
40473SOL     OW23425  10.400   4.952   1.943  0.0067 -0.7407 -0.1188
40473SOL    HW123426  10.376   5.041   1.918 -1.5159 -0.8495  0.8598
40473SOL    HW223427  10.377   4.899   1.867 -0.6947 -0.5294 -0.0580
40474SOL     OW23428   9.499  10.327  10.182  0.3199 -0.4176 -0.3675
40474SOL    HW123429   9.584  10.291  10.159  0.3309 -0.0676 -0.8829
40474SOL    HW223430   9.447  10.321  10.102  0.2299  0.4393 -0.3843
40475SOL     OW23431  10.548   3.884   1.409  0.0831 -0.3598  0.7602
40475SOL    HW123432  10.571   3.792   1.397 -0.5115 -0.3755 -0.3201
40475SOL    HW223433  10.633   3.929   1.414  0.3704 -0.8875  0.7146
40476SOL     OW23434   6.737   9.812   4.743 -0.4578 -0.8855  0.2171
40476SOL    HW123435   6.707   9.830   4.654  1.1910 -1.0794 -0.3997
40476SOL    HW223436   6.657   9.789   4.790 -1.3970 -0.5505 -1.1406
40477SOL     OW23437   6.757   4.162  10.769 -0.2568  0.5583  0.5610
40477SOL    HW123438   6.775   4.069  10.783 -0.4141  0.4856  0.3103
40477SOL    HW223439   6.701   4.187  10.843 -0.7778  0.2771  0.2707
40478SOL     OW23440   6.691   8.920   3.152 -0.3674  0.0751  0.1121
40478SOL    HW123441   6.756   8.988   3.174 -0.2559 -1.0059  3.9338
40478SOL    HW223442   6.742   8.852   3.109  0.6689  0.0943  1.2570
40479SOL     OW23443   9.281   0.114   3.845  0.4142  0.3177 -0.3632
40479SOL    HW123444   9.260   0.204   3.821 -0.7965 -0.0003 -0.5617
40479SOL    HW223445   9.324   0.078   3.767  2.0190  1.0529  0.1369
40480SOL     OW23446   9.147   3.672   8.389 -0.0430 -0.2900 -0.0585
40480SOL    HW123447   9.114   3.625   8.313 -1.7277 -0.3484  0.6775
40480SOL    HW223448   9.240   3.648   8.393 -0.0119 -0.6081 -1.8268
40481SOL     OW23449  10.792   5.706   1.074  0.2512 -0.0743  0.1970
40481SOL    HW123450  10.821   5.733   1.161  2.7575 -1.1717 -0.2101
40481SOL    HW223451  10.848   5.754   1.013 -1.3923  0.6050 -0.8550
40482SOL     OW23452   6.759   5.931   1.898  0.1388 -0.1409 -0.0935
40482SOL    HW123453   6.810   5.889   1.829 -1.1258 -1.0814 -0.5061
40482SOL    HW223454   6.789   6.021   1.898  1.6882 -0.6267 -0.3955
40483SOL     OW23455   3.663   5.854   7.215 -0.2637  0.3813 -0.2489
40483SOL    HW123456   3.747   5.898   7.203  0.6786 -0.5624  2.2125
40483SOL    HW223457   3.677   5.796   7.289 -2.9089 -0.3726 -0.2369
40484SOL     OW23458   7.972   5.932  10.702  0.0914  0.3018 -0.1497
40484SOL    HW123459   8.043   5.994  10.686  0.5316  0.3838  1.8030
40484SOL    HW223460   7.972   5.921  10.798 -2.3981  0.1466 -0.1126
40485SOL     OW23461   0.090   1.357   6.960  0.4447  0.6531 -0.1256
40485SOL    HW123462   0.179   1.325   6.973 -0.0388 -0.6037  0.2690
40485SOL    HW223463   0.048   1.346   7.046 -0.4262  0.0754 -0.6088
40486SOL     OW23464  10.716   3.189   8.724 -0.4349  0.4256 -0.3551
40486SOL    HW123465  10.727   3.119   8.660  0.5952  0.5843 -0.3551
40486SOL    HW223466  10.776   3.167   8.795 -0.9030  0.7397  0.1481
40487SOL     OW23467   9.261  11.034   3.450  0.1591  0.2275 -0.9949
40487SOL    HW123468   9.350  11.067   3.456  0.0541  0.2030  1.4377
40487SOL    HW223469   9.257  10.961   3.511 -1.1199 -0.8552 -2.2731
40488SOL     OW23470   0.198  10.385  10.496  0.3931 -0.3668  0.4462
40488SOL    HW123471   0.159  10.472  10.498 -0.7236 -0.8317 -0.1757
40488SOL    HW223472   0.156  10.338  10.568  0.0955 -0.7463  0.0330
40489SOL     OW23473   0.949   9.780   0.635 -0.3169 -0.7846  0.2639
40489SOL    HW123474   0.926   9.871   0.655  2.0600  0.8763 -3.4995
40489SOL    HW223475   1.037   9.769   0.671 -1.3313 -2.4494  2.4994
40490SOL     OW23476  10.274   0.303   8.265 -0.5284 -0.2076  0.1207
40490SOL    HW123477  10.262   0.395   8.241  0.5416  0.0018  0.3208
40490SOL    HW223478  10.193   0.278   8.309 -1.5641  0.1016 -1.5520
40491SOL     OW23479   8.501   3.132   9.144 -0.4410 -0.0919  0.1978
40491SOL    HW123480   8.413   3.104   9.170 -0.8912  0.2510 -0.9157
40491SOL    HW223481   8.553   3.122   9.224 -0.9623 -2.4401  0.3086
40492SOL     OW23482   4.521   0.596   9.423 -0.3871 -0.0195 -0.7810
40492SOL    HW123483   4.614   0.610   9.443 -0.4947  0.5028 -0.6234
40492SOL    HW223484   4.494   0.678   9.380 -1.8554  1.7040  2.9908
40493SOL     OW23485   0.089   8.664   3.022 -0.2305  0.6000 -0.2721
40493SOL    HW123486   0.012   8.696   3.068 -0.2486 -0.1657  0.2552
40493SOL    HW223487   0.141   8.619   3.090 -1.6333 -3.1208 -1.3897
40494SOL     OW23488   6.318   4.675   8.948  0.2749  0.0570  0.9239
40494SOL    HW123489   6.371   4.755   8.954 -0.5065  0.8101 -1.2374
40494SOL    HW223490   6.381   4.606   8.933  0.7876  0.6704  0.2039
40495SOL     OW23491   5.014   1.008   1.179 -0.0501 -0.3919  0.2944
40495SOL    HW123492   5.077   0.967   1.238  0.7744  0.4408  0.0265
40495SOL    HW223493   5.068   1.056   1.116 -0.9521  0.7320  0.3368
40496SOL     OW23494   2.370   1.548   6.868 -0.2085 -0.2673 -0.1547
40496SOL    HW123495   2.447   1.553   6.812  0.8617  0.7744  1.3180
40496SOL    HW223496   2.375   1.461   6.908  0.4183 -0.0698  0.2054
40497SOL     OW23497   6.071   3.716   3.605  0.2345 -0.0918 -0.0259
40497SOL    HW123498   6.075   3.754   3.517 -0.9526  0.4887  0.1518
40497SOL    HW223499   5.995   3.757   3.645  1.0269  0.0123  1.4520
40498SOL     OW23500   0.563  10.183   0.154 -0.2242  0.3560  0.3083
40498SOL    HW123501   0.638  10.228   0.194 -0.3711  2.2289 -1.3771
40498SOL    HW223502   0.587  10.174   0.062 -1.2973 -0.7536  0.1234
40499SOL     OW23503   8.233   9.780   0.951  0.1579 -0.3650 -0.8052
40499SOL    HW123504   8.147   9.750   0.980  0.0325  0.3708 -0.3924
40499SOL    HW223505   8.215   9.855   0.895  0.5053 -0.5540 -1.1753
40500SOL     OW23506  11.010   2.051   6.380 -0.1108 -0.3512 -0.4465
40500SOL    HW123507  11.038   2.031   6.470  0.1084 -0.8708 -0.6266
40500SOL    HW223508  10.975   2.140   6.385  0.7749 -0.0108 -0.0324
40501SOL     OW23509   0.253   8.683   5.292  0.3818 -0.5313 -0.1813
40501SOL    HW123510   0.334   8.634   5.304  0.8995  0.4360  0.3857
40501SOL    HW223511   0.183   8.618   5.303  1.0505 -1.1510  0.4909
40502SOL     OW23512  10.438   3.271   9.088  0.7781  0.1077 -0.2498
40502SOL    HW123513  10.441   3.323   9.007 -0.6915 -0.5822 -0.7746
40502SOL    HW223514  10.434   3.336   9.158 -0.6809  0.7315 -0.8807
40503SOL     OW23515   8.099   7.949   3.780 -0.6715  0.3298 -0.3213
40503SOL    HW123516   8.120   7.902   3.699 -1.2208 -1.1979  0.3760
40503SOL    HW223517   8.094   8.041   3.754  0.9169  0.1000 -1.6657
40504SOL     OW23518   6.532   4.560   6.959 -0.7378 -0.0984  0.3771
40504SOL    HW123519   6.565   4.565   6.870 -0.5330 -2.3898  0.2780
40504SOL    HW223520   6.594   4.611   7.011  0.6251 -0.8832 -0.4246
40505SOL     OW23521  10.015   6.933   8.601  0.9338  0.2050 -0.0432
40505SOL    HW123522  10.067   7.013   8.592  3.7833 -1.4503  0.2787
40505SOL    HW223523  10.058   6.885   8.673 -0.7883 -1.5300 -0.0891
40506SOL     OW23524   6.374   9.909   2.642 -0.0697 -0.1544  0.4004
40506SOL    HW123525   6.339   9.977   2.584  0.7400 -1.8846 -2.2876
40506SOL    HW223526   6.299   9.881   2.695 -0.8901  1.3551  0.0854
40507SOL     OW23527   7.697   1.015   3.229  0.3427  0.1391  0.0728
40507SOL    HW123528   7.721   0.937   3.180 -1.7835 -1.7550  1.8161
40507SOL    HW223529   7.660   0.982   3.311 -0.6773  2.9819  0.8945
40508SOL     OW23530   0.909   6.703   1.295  0.1853 -0.3879  0.1477
40508SOL    HW123531   0.959   6.774   1.255  0.4318 -1.1689 -0.9828
40508SOL    HW223532   0.925   6.628   1.239  0.3683 -1.4966  1.6143
40509SOL     OW23533   7.344   9.027   7.047  0.1286  0.1527  0.1667
40509SOL    HW123534   7.391   9.027   7.131 -1.8975 -1.0087  1.3659
40509SOL    HW223535   7.337   8.935   7.023  0.6065  0.4721 -1.2602
40510SOL     OW23536   5.919   6.135   6.365 -0.3346  0.0518 -0.2118
40510SOL    HW123537   5.824   6.134   6.353 -0.2197  0.9877 -1.3663
40510SOL    HW223538   5.944   6.227   6.356  0.6901 -0.1851  0.0440
40511SOL     OW23539   9.001   0.778   3.436  0.8284  0.4265 -0.1194
40511SOL    HW123540   9.019   0.870   3.419 -1.2437  1.1863  1.4209
40511SOL    HW223541   9.025   0.765   3.528  0.1975 -0.3087 -0.0447
40512SOL     OW23542   9.253   1.057   1.368  0.2330  0.3984 -0.0376
40512SOL    HW123543   9.166   1.085   1.339  0.8545  0.3180 -2.0723
40512SOL    HW223544   9.247   0.961   1.374  0.1705  0.3973 -0.1232
40513SOL     OW23545   3.745   3.016   0.669 -0.0993  0.0490 -0.8037
40513SOL    HW123546   3.694   3.071   0.728 -0.9139  1.2061 -2.5222
40513SOL    HW223547   3.830   3.005   0.713 -1.6372 -1.7558  2.0098
40514SOL     OW23548   6.312   8.993   8.705 -0.2633 -0.3471 -1.0643
40514SOL    HW123549   6.332   8.906   8.671 -0.2501  0.1153 -2.2537
40514SOL    HW223550   6.395   9.024   8.741 -1.0469 -2.4354  3.2540
40515SOL     OW23551   9.505   2.394   2.358  0.7614 -0.5978 -0.0022
40515SOL    HW123552   9.444   2.356   2.295 -0.2760  0.1387  0.5233
40515SOL    HW223553   9.576   2.330   2.364  0.4711 -1.0756 -1.2680
40516SOL     OW23554   6.270   0.935   1.465 -0.8332  0.0700  0.0335
40516SOL    HW123555   6.181   0.900   1.472  0.0382 -2.6371 -1.0797
40516SOL    HW223556   6.319   0.891   1.534  0.5682 -1.9923 -2.1268
40517SOL     OW23557   6.161   5.100   0.662 -0.1191 -0.7504  0.2666
40517SOL    HW123558   6.106   5.106   0.583  0.8330  0.5026 -0.3285
40517SOL    HW223559   6.142   5.180   0.710  1.8916  0.2250 -0.4501
40518SOL     OW23560   0.186   3.776   7.019  0.0020 -0.1962 -0.2594
40518SOL    HW123561   0.187   3.715   6.945  0.6278  0.7361 -1.0438
40518SOL    HW223562   0.100   3.763   7.060  0.9606 -3.3123  1.1049
40519SOL     OW23563   1.987   6.025   2.035  0.8712 -0.2521 -0.7410
40519SOL    HW123564   1.961   6.046   2.124 -0.5743  1.5889 -1.5115
40519SOL    HW223565   1.905   6.002   1.991  1.3875 -0.0141 -1.8622
40520SOL     OW23566   6.121   1.534   9.396 -0.1558 -0.3930  0.0672
40520SOL    HW123567   6.117   1.600   9.327  1.0850 -0.3672  0.0025
40520SOL    HW223568   6.161   1.579   9.470 -0.2274 -0.7921  0.3531
40521SOL     OW23569   0.236   4.419  10.956 -0.2216 -0.0625  0.7640
40521SOL    HW123570   0.159   4.368  10.982 -0.3197 -0.3928 -0.1490
40521SOL    HW223571   0.304   4.392  11.017  0.3044 -2.8357 -0.9349
40522SOL     OW23572   4.510   7.467   1.327 -0.8234 -0.4519  0.4356
40522SOL    HW123573   4.421   7.476   1.293 -0.9494  0.9388  1.0833
40522SOL    HW223574   4.566   7.469   1.249 -1.3291 -1.0600  0.0481
40523SOL     OW23575   0.303   6.851   2.817  0.6367 -0.2952 -0.4203
40523SOL    HW123576   0.303   6.946   2.811  0.2261 -0.2604  0.1033
40523SOL    HW223577   0.352   6.822   2.740 -0.2399  0.2936 -1.2171
40524SOL     OW23578   7.266   8.988   8.599 -0.0402  0.1486 -0.4728
40524SOL    HW123579   7.253   8.908   8.649  0.2895  0.2570 -0.2098
40524SOL    HW223580   7.245   9.059   8.660  0.8038  0.2946 -0.3330
40525SOL     OW23581   1.737   0.651   7.016 -0.7023  0.4886  0.1915
40525SOL    HW123582   1.706   0.714   6.951 -0.9918 -1.1736 -1.3612
40525SOL    HW223583   1.832   0.659   7.014 -0.5846 -0.6991 -1.7559
40526SOL     OW23584   7.210   1.255   3.961  0.3211  0.0793 -0.2405
40526SOL    HW123585   7.285   1.308   3.987  1.2272 -1.9009  1.4899
40526SOL    HW223586   7.212   1.255   3.865  0.5142  2.7212 -0.3068
40527SOL     OW23587  10.592   2.845   5.302  0.1186  0.2567  0.4071
40527SOL    HW123588  10.666   2.797   5.264  0.4680  0.8140  0.3845
40527SOL    HW223589  10.555   2.895   5.229 -0.7654 -0.5989  0.2359
40528SOL     OW23590   3.955   1.896   4.380 -0.2438 -0.2931  0.0407
40528SOL    HW123591   3.968   1.978   4.331  0.7163 -1.0813 -1.0855
40528SOL    HW223592   3.954   1.828   4.312 -1.0696 -1.2214  0.9550
40529SOL     OW23593   3.649   3.260   3.561  0.2765 -0.4338  0.3097
40529SOL    HW123594   3.659   3.319   3.635  0.7536 -0.5117  0.3118
40529SOL    HW223595   3.738   3.243   3.532  0.1457 -1.1244  0.2910
40530SOL     OW23596   3.392   3.375   8.674  0.6172  0.4460 -0.0713
40530SOL    HW123597   3.433   3.461   8.688  0.1972  0.6509 -0.0821
40530SOL    HW223598   3.465   3.313   8.679  0.9155  0.7960  0.0062
40531SOL     OW23599   8.020   9.827   8.066 -0.2491  0.1087  0.1553
40531SOL    HW123600   7.994   9.868   8.148 -2.3683 -0.1194 -0.3375
40531SOL    HW223601   8.038   9.900   8.007  3.0750  0.3323  1.1956
40532SOL     OW23602   7.244   9.944   3.030  0.0698 -0.8780  0.7348
40532SOL    HW123603   7.211   9.903   2.950 -1.4978  3.3901 -1.1041
40532SOL    HW223604   7.333   9.970   3.009  0.0950 -0.8762  0.8418
40533SOL     OW23605  10.623   6.164   9.131 -0.1491  0.0946  0.2393
40533SOL    HW123606  10.573   6.086   9.154  0.6546 -0.5584 -0.1792
40533SOL    HW223607  10.683   6.135   9.062  1.1607  0.7064  1.0768
40534SOL     OW23608   4.922   6.620   2.031  0.5887  0.0499 -0.5910
40534SOL    HW123609   4.915   6.696   1.974 -2.5820 -0.3497 -0.9190
40534SOL    HW223610   4.970   6.555   1.979  0.9009  0.8758 -1.3621
40535SOL     OW23611   9.014   2.988  10.306 -0.0234  0.2099  0.0190
40535SOL    HW123612   9.074   3.035  10.249  1.6913  0.0875  1.6226
40535SOL    HW223613   8.935   2.977  10.254  1.7206 -0.6861 -2.6610
40536SOL     OW23614   0.034   1.636   4.775  0.0186  0.1933  0.2114
40536SOL    HW123615   0.012   1.705   4.712  0.2982  0.9008  0.8874
40536SOL    HW223616   0.109   1.591   4.736 -0.7308 -0.3364 -0.6720
40537SOL     OW23617   0.482  10.459   3.967  0.1411  0.4349  0.3377
40537SOL    HW123618   0.509  10.386   3.912 -0.8486  0.7114 -0.5465
40537SOL    HW223619   0.415  10.422   4.026  0.4961  0.3656  0.7038
40538SOL     OW23620   7.048   0.504   7.288 -0.1314 -0.5033 -0.4846
40538SOL    HW123621   7.054   0.585   7.340 -2.9765 -1.4627  1.6352
40538SOL    HW223622   7.008   0.531   7.206  0.2473  0.4300 -0.3729
40539SOL     OW23623   5.082   1.389   6.738 -0.1196  0.4528 -0.1384
40539SOL    HW123624   5.086   1.295   6.759  0.8934  0.0967 -1.7496
40539SOL    HW223625   5.133   1.431   6.807  1.3423 -0.4382 -0.6273
40540SOL     OW23626   6.001   5.329   6.779  0.3760  0.4279 -0.2442
40540SOL    HW123627   5.979   5.310   6.870 -1.0155  2.8053 -0.0093
40540SOL    HW223628   5.917   5.328   6.733  0.7586  1.4898 -1.0205
40541SOL     OW23629   6.058  10.442   4.741 -0.2437 -0.4371  0.5269
40541SOL    HW123630   5.996  10.511   4.716 -0.7725 -1.2280 -0.3934
40541SOL    HW223631   6.115  10.432   4.664  0.1386 -0.7006  0.8393
40542SOL     OW23632   4.773   9.428   8.694  0.4500  0.0389  0.0970
40542SOL    HW123633   4.686   9.391   8.677  0.6128 -0.7965  1.0121
40542SOL    HW223634   4.765   9.468   8.781  0.8326  0.4359 -0.0468
40543SOL     OW23635   6.932   0.172   1.178 -0.4185  0.1237 -0.3938
40543SOL    HW123636   6.911   0.263   1.160  0.0843  0.8862  2.3480
40543SOL    HW223637   7.026   0.172   1.195 -0.6943 -0.5074  1.3720
40544SOL     OW23638   4.686   4.637   5.345  0.2551 -0.0817  0.1542
40544SOL    HW123639   4.760   4.624   5.404 -0.7647  2.8587  2.2997
40544SOL    HW223640   4.617   4.674   5.400 -1.9495 -0.2658 -2.2673
40545SOL     OW23641   3.991   0.955   7.446  0.1407 -0.1388  0.2960
40545SOL    HW123642   4.047   0.903   7.388  0.3816  0.6166 -0.1593
40545SOL    HW223643   4.041   0.962   7.527  0.5557  0.2295  0.0134
40546SOL     OW23644  11.016   3.820   4.891  0.4659 -0.3110  0.3168
40546SOL    HW123645  10.957   3.830   4.817 -0.9345  1.8358  1.5790
40546SOL    HW223646  10.989   3.738   4.933 -0.9420  0.0804  0.2449
40547SOL     OW23647   3.041   5.666  10.365  0.7332 -0.6895 -0.8127
40547SOL    HW123648   3.025   5.601  10.434  0.3476 -1.1692 -1.3426
40547SOL    HW223649   2.966   5.658  10.307 -0.0596  1.2750 -0.1268
40548SOL     OW23650   3.015   2.873   6.969  0.1849 -0.2450  0.3963
40548SOL    HW123651   3.097   2.923   6.973  0.8920 -1.3489  0.0324
40548SOL    HW223652   2.971   2.905   6.890 -0.7769  1.8479  1.6653
40549SOL     OW23653   1.055   0.538   1.680 -0.5135  0.0766  0.6114
40549SOL    HW123654   0.984   0.530   1.616 -0.6163  1.1008  0.5937
40549SOL    HW223655   1.015   0.511   1.763 -0.5996 -0.4694  0.3971
40550SOL     OW23656   4.112  10.854   7.884 -0.4704 -0.5794  0.4686
40550SOL    HW123657   4.192  10.820   7.846  0.7358  0.8576  1.6084
40550SOL    HW223658   4.102  10.805   7.966 -1.3378 -1.4418 -0.1190
40551SOL     OW23659   9.608   1.738  10.938  0.2305  0.1416  0.1089
40551SOL    HW123660   9.631   1.771  10.851  0.0252 -0.0502 -0.0194
40551SOL    HW223661   9.529   1.786  10.962  0.5111  0.4804  0.3600
40552SOL     OW23662   5.121   8.441   2.105  0.0568  0.1695 -0.1341
40552SOL    HW123663   5.172   8.445   2.186  1.7694 -0.0048 -1.1448
40552SOL    HW223664   5.105   8.532   2.082  1.7453  0.3226 -0.8563
40553SOL     OW23665   0.357   1.268   6.828 -0.6148 -0.3312  0.2340
40553SOL    HW123666   0.367   1.324   6.905 -1.9761  1.8701 -1.0506
40553SOL    HW223667   0.390   1.322   6.756 -1.5449 -1.3749 -1.0145
40554SOL     OW23668   5.959   3.957   4.310 -0.8297 -0.4945 -0.8086
40554SOL    HW123669   5.892   3.991   4.369  0.2794  1.7581 -0.7192
40554SOL    HW223670   6.019   3.909   4.367 -0.9389 -0.2138 -0.4520
40555SOL     OW23671   7.206   1.222   4.633  0.6241  0.4286  0.4370
40555SOL    HW123672   7.150   1.238   4.557 -1.1373 -1.6144  1.2208
40555SOL    HW223673   7.258   1.145   4.608  1.0950  0.6287  0.7816
40556SOL     OW23674   3.162   7.005   5.024  0.2039 -0.1634  0.0550
40556SOL    HW123675   3.221   7.024   5.097 -0.8577  2.4551  0.3430
40556SOL    HW223676   3.084   6.967   5.065  0.5959 -1.1292 -0.0506
40557SOL     OW23677   9.803   3.084   5.638  0.1351 -1.2725  0.4988
40557SOL    HW123678   9.809   3.169   5.594 -1.2200 -0.0291  2.5519
40557SOL    HW223679   9.894   3.055   5.646  0.6158 -0.1095 -0.3974
40558SOL     OW23680   8.391   7.114  10.641  0.3912  0.1816  0.2020
40558SOL    HW123681   8.415   7.186  10.583  0.0442  0.0339 -0.1319
40558SOL    HW223682   8.318   7.070  10.596 -0.7999  0.8797  1.3822
40559SOL     OW23683   0.628   1.497  10.402  0.0392  0.0977 -0.4377
40559SOL    HW123684   0.585   1.415  10.425 -0.7559  0.3325 -1.0713
40559SOL    HW223685   0.563   1.564  10.419  0.7847  0.6347  0.3483
40560SOL     OW23686   7.921   0.803   2.743  0.0939  0.2452  0.0475
40560SOL    HW123687   7.963   0.837   2.664 -0.7854 -1.3258 -1.1260
40560SOL    HW223688   7.984   0.740   2.778  0.1589  0.3865  0.1867
40561SOL     OW23689   2.462  10.925   1.498  0.5262  0.1534 -0.5927
40561SOL    HW123690   2.431  10.841   1.465  2.0427  0.1449 -2.1189
40561SOL    HW223691   2.422  10.933   1.585 -1.4172 -1.0906 -1.3039
40562SOL     OW23692   4.373   8.250   5.268  0.0803  0.5041 -0.0963
40562SOL    HW123693   4.361   8.261   5.362 -1.6502  1.9021 -0.4172
40562SOL    HW223694   4.329   8.167   5.247  1.7374 -0.5585  0.5012
40563SOL     OW23695   0.212   9.656   4.869  0.4576  0.0792 -0.0097
40563SOL    HW123696   0.227   9.563   4.855  1.2300 -0.0054  1.1804
40563SOL    HW223697   0.238   9.697   4.787  1.7305 -0.6308  0.0014
40564SOL     OW23698  10.394   8.690   6.882  0.5085 -0.6915  0.0685
40564SOL    HW123699  10.357   8.749   6.817  0.1077  0.8173  1.6071
40564SOL    HW223700  10.376   8.602   6.848  1.9222 -0.0149 -2.7407
40565SOL     OW23701   3.136   4.773   1.057 -0.2941 -0.2715 -0.4094
40565SOL    HW123702   3.111   4.753   1.147 -0.1319 -1.0798 -0.5403
40565SOL    HW223703   3.070   4.729   1.003 -0.5178  0.3900 -0.6871
40566SOL     OW23704   9.013   9.656   9.969  0.8410 -0.6721  0.4513
40566SOL    HW123705   9.014   9.606  10.051  0.8025 -1.8775 -0.2716
40566SOL    HW223706   9.100   9.697   9.966  1.0665 -1.1087  0.7966
40567SOL     OW23707   7.037   8.333  10.210  0.2929  0.0562 -0.2761
40567SOL    HW123708   7.019   8.316  10.118 -1.1972 -2.6071  0.3951
40567SOL    HW223709   6.953   8.362  10.246  1.5444  4.3423 -0.2420
40568SOL     OW23710   7.527   1.315   2.770  0.1412 -0.6733 -0.4484
40568SOL    HW123711   7.448   1.360   2.799  1.0600  0.8842 -0.2654
40568SOL    HW223712   7.535   1.337   2.677 -0.4445 -2.0782 -0.8489
40569SOL     OW23713   1.769   8.957   9.898 -0.1443  0.3445  0.2640
40569SOL    HW123714   1.729   8.892   9.841 -0.3624 -2.3176  3.1800
40569SOL    HW223715   1.696   8.996   9.946  0.2484 -0.6440  1.7552
40570SOL     OW23716   1.616  10.245  10.069 -0.2755  0.7986 -0.2221
40570SOL    HW123717   1.627  10.151  10.084 -1.2368  0.3565 -2.0257
40570SOL    HW223718   1.635  10.285  10.154 -2.8731 -1.2660  1.5171
40571SOL     OW23719   0.079  10.068   4.345 -0.6878 -0.5670 -0.3348
40571SOL    HW123720   0.038  10.145   4.383  1.1250  0.1237  0.3350
40571SOL    HW223721   0.015   9.998   4.357 -1.8967  0.5814  0.1019
40572SOL     OW23722   4.678   2.254   8.061 -0.0196  0.0996  0.3726
40572SOL    HW123723   4.728   2.190   8.011 -0.7107 -0.5513  0.5123
40572SOL    HW223724   4.744   2.317   8.092  0.4073  0.5576 -1.3921
40573SOL     OW23725   1.098   1.739   8.112  0.0091 -0.1936  0.4159
40573SOL    HW123726   1.180   1.690   8.102  0.0889  0.0628 -0.2633
40573SOL    HW223727   1.087   1.747   8.207  0.8020 -0.1883  0.5202
40574SOL     OW23728   3.958  10.310   2.475  0.4852 -0.1463  0.0469
40574SOL    HW123729   3.863  10.301   2.480  0.0211  3.1250 -0.2680
40574SOL    HW223730   3.988  10.235   2.424 -2.0758 -0.5783 -0.9314
40575SOL     OW23731   6.371   5.216   3.295  0.5955  0.2457  0.4093
40575SOL    HW123732   6.333   5.297   3.330  0.8814  0.1669  0.9081
40575SOL    HW223733   6.330   5.147   3.347  0.4255  0.0720  0.0481
40576SOL     OW23734   0.368   2.700   9.985  0.4855  0.7801 -0.4318
40576SOL    HW123735   0.274   2.720   9.989  0.5190  1.4311 -2.1539
40576SOL    HW223736   0.406   2.754  10.055 -0.5388 -0.6048  1.2990
40577SOL     OW23737  10.434   9.279   3.959  0.3587  0.7723  0.3201
40577SOL    HW123738  10.368   9.295   3.891  0.4117 -1.2015 -0.2478
40577SOL    HW223739  10.498   9.221   3.917  1.2388  0.8034  1.5738
40578SOL     OW23740   4.152   3.163   5.512  0.1147  1.0017  0.2575
40578SOL    HW123741   4.206   3.155   5.433 -0.9950 -0.8792 -0.4014
40578SOL    HW223742   4.191   3.234   5.562  3.0948 -0.1552 -0.2373
40579SOL     OW23743   2.933   8.337   1.454 -0.2942 -0.2020  0.2019
40579SOL    HW123744   2.869   8.388   1.504 -0.9283  1.0247 -1.7571
40579SOL    HW223745   2.888   8.255   1.434 -0.0475 -0.6949  1.5388
40580SOL     OW23746   2.665   8.769   9.466 -0.3822  0.0640  0.0104
40580SOL    HW123747   2.599   8.809   9.410  0.3565 -1.3459 -1.9951
40580SOL    HW223748   2.629   8.684   9.490  1.6611 -2.0876 -3.5830
40581SOL     OW23749   8.656   8.760   9.417  0.5762  0.1589 -0.5785
40581SOL    HW123750   8.640   8.748   9.323  2.2174  0.7447 -0.9603
40581SOL    HW223751   8.575   8.729   9.459  0.2295 -1.1640 -2.1112
40582SOL     OW23752   4.404   7.122   3.919 -0.4151  0.3256  0.9482
40582SOL    HW123753   4.466   7.096   3.987  0.3081 -0.0934  0.1566
40582SOL    HW223754   4.359   7.199   3.955  2.2112  2.1268  0.6440
40583SOL     OW23755   0.654   2.016   5.534  0.2551 -0.2368  0.3690
40583SOL    HW123756   0.613   2.008   5.448 -2.9889  2.1837  1.4714
40583SOL    HW223757   0.649   1.929   5.572 -0.4820 -0.8242 -1.0072
40584SOL     OW23758   9.902   9.896   3.019  0.4281  0.2933  0.2980
40584SOL    HW123759   9.958   9.936   3.086  1.3212  1.7548 -1.2490
40584SOL    HW223760   9.853   9.969   2.982  0.2101 -0.4161 -0.8733
40585SOL     OW23761   4.297   0.416   7.954  0.5385  0.5198 -0.8936
40585SOL    HW123762   4.230   0.459   7.900  0.6777  0.5004 -1.0804
40585SOL    HW223763   4.346   0.489   7.993  2.2922  0.6005 -3.0385
40586SOL     OW23764   8.704  10.053   6.942  0.0425  0.1971 -0.6296
40586SOL    HW123765   8.708  10.146   6.920  1.3070  0.6477  1.2677
40586SOL    HW223766   8.611  10.033   6.942 -0.3109  1.6698 -0.3865
40587SOL     OW23767   6.013   6.672   6.439 -0.5173 -0.2841 -0.7970
40587SOL    HW123768   5.945   6.739   6.446 -1.6300 -1.3569 -0.9431
40587SOL    HW223769   6.058   6.693   6.357  0.3706  1.3416  0.0588
40588SOL     OW23770   7.800   0.548   2.817  0.3431  0.0684  0.1951
40588SOL    HW123771   7.747   0.603   2.758  0.0369 -0.0394  0.3716
40588SOL    HW223772   7.802   0.463   2.774 -0.9373 -0.3657  0.9593
40589SOL     OW23773   2.329   7.411   8.819 -0.2365 -0.6779  0.4311
40589SOL    HW123774   2.402   7.438   8.874  1.6085 -0.4015 -1.9640
40589SOL    HW223775   2.369   7.356   8.751 -2.2889 -0.7596 -0.7997
40590SOL     OW23776   1.695  10.319   6.258  0.1694 -0.0517 -0.0124
40590SOL    HW123777   1.690  10.389   6.323 -2.7966  1.2827 -1.4729
40590SOL    HW223778   1.709  10.365   6.175  0.2460 -1.3953 -0.7692
40591SOL     OW23779   5.452   6.793  10.240  0.4020 -0.1753 -0.0057
40591SOL    HW123780   5.493   6.806  10.326  0.4899 -1.1223  0.1111
40591SOL    HW223781   5.526   6.779  10.180  0.3867  1.3293 -0.4146
40592SOL     OW23782   8.338   5.895   3.792 -0.2543  0.2016 -0.1736
40592SOL    HW123783   8.278   5.870   3.722 -0.8110  0.5483  0.1616
40592SOL    HW223784   8.303   5.851   3.870 -1.6335  2.4342  0.5616
40593SOL     OW23785   6.240   6.679   0.416 -0.6885  0.2433  0.2935
40593SOL    HW123786   6.331   6.682   0.447 -0.8749 -0.4314  0.9365
40593SOL    HW223787   6.245   6.633   0.333 -0.6692 -1.6288  1.2886
40594SOL     OW23788   6.819  10.530   7.042 -0.5550  0.1256 -0.3799
40594SOL    HW123789   6.814  10.546   6.948  0.2725 -1.1951 -0.6788
40594SOL    HW223790   6.797  10.437   7.052  2.2396 -0.5674  0.3407
40595SOL     OW23791   1.011   7.258   0.059 -0.1314  0.4834  0.2693
40595SOL    HW123792   0.941   7.322   0.042  0.0618  0.6199 -0.0254
40595SOL    HW223793   0.986   7.216   0.141 -1.3815 -0.5824 -0.6211
40596SOL     OW23794   8.668   9.419   3.676  0.4420  0.0220  0.4899
40596SOL    HW123795   8.686   9.500   3.629 -0.2941 -0.3613 -0.4722
40596SOL    HW223796   8.640   9.448   3.763  0.5610  0.7796  0.2873
40597SOL     OW23797  10.664   7.592   5.839 -0.4272  0.3424  0.6127
40597SOL    HW123798  10.680   7.653   5.911 -0.2206 -1.6046  2.3165
40597SOL    HW223799  10.585   7.545   5.864 -0.8007  0.1554 -0.8349
40598SOL     OW23800   2.591   7.934   6.095  0.7947  0.3846  0.2044
40598SOL    HW123801   2.497   7.949   6.085  0.6585 -0.4803  0.0579
40598SOL    HW223802   2.632   8.010   6.054  0.1593  1.1031  0.8721
40599SOL     OW23803   5.491   8.008   7.446  0.7814 -0.5257 -0.2535
40599SOL    HW123804   5.555   8.078   7.455  0.2151 -0.0833  0.5036
40599SOL    HW223805   5.483   7.972   7.535 -0.5084 -0.1158 -0.1759
40600SOL     OW23806   9.795   1.828   5.976 -0.0512  0.0480  0.3288
40600SOL    HW123807   9.781   1.917   5.942 -0.1105  0.8201  2.2416
40600SOL    HW223808   9.890   1.822   5.986  0.0019 -0.3422 -0.3592
40601SOL     OW23809   0.675   0.002   9.295 -0.1164  0.2569  0.1150
40601SOL    HW123810   0.603  -0.052   9.261 -0.7080  1.7810 -1.1979
40601SOL    HW223811   0.737   0.008   9.222  0.5221  0.3727  0.6514
40602SOL     OW23812  10.315   0.755   1.515  0.5872 -0.5765  0.2442
40602SOL    HW123813  10.355   0.835   1.481  0.6185 -1.1422 -1.1369
40602SOL    HW223814  10.223   0.760   1.489  0.0346  0.0814  2.2165
40603SOL     OW23815   6.125   6.967  10.061 -0.5049  0.2578  0.6312
40603SOL    HW123816   6.132   6.877  10.094 -0.2459 -0.0848 -0.3198
40603SOL    HW223817   6.207   7.008  10.090 -0.3609  0.0172  0.5763
40604SOL     OW23818   1.631   3.979   5.086  0.2083  0.1136 -0.2961
40604SOL    HW123819   1.683   3.951   5.010 -2.4627  0.5866 -2.4571
40604SOL    HW223820   1.585   4.057   5.056  0.7947  1.7776  2.6875
40605SOL     OW23821   1.463  10.189   9.644  0.2441 -0.1878 -0.3958
40605SOL    HW123822   1.494  10.274   9.612 -0.4683 -0.1260 -0.9520
40605SOL    HW223823   1.415  10.210   9.725 -0.9735  0.1148 -1.1648
40606SOL     OW23824  10.948   2.031   4.913  0.3309 -0.0508  0.1751
40606SOL    HW123825  10.886   1.958   4.912  0.5970 -0.2708 -1.1895
40606SOL    HW223826  11.030   1.992   4.945 -0.1407  0.2095  1.8358
40607SOL     OW23827   4.348   9.837   8.060  0.2694 -0.0679 -0.0626
40607SOL    HW123828   4.315   9.922   8.032  0.7127  0.7915  1.8237
40607SOL    HW223829   4.420   9.818   7.999 -1.0306 -0.0233 -1.6663
40608SOL     OW23830   2.410   2.709   4.728 -0.5743 -0.4013 -0.2813
40608SOL    HW123831   2.314   2.705   4.724 -0.7492  2.3418 -0.7094
40608SOL    HW223832   2.438   2.679   4.641 -1.1768  0.5949 -0.8416
40609SOL     OW23833   4.690   7.402   9.941 -0.1810  0.0992 -0.3552
40609SOL    HW123834   4.730   7.484   9.969 -0.4620  0.4631 -0.9878
40609SOL    HW223835   4.617   7.389  10.000 -0.5665  0.6837 -0.6926
40610SOL     OW23836   9.765   6.700   6.771 -0.2958  0.3321 -0.2588
40610SOL    HW123837   9.833   6.713   6.837  1.0294  0.8517 -1.6487
40610SOL    HW223838   9.720   6.621   6.798  2.6868 -1.6858 -0.7127
40611SOL     OW23839   4.256   1.061   6.520  0.4520  0.6394 -0.2544
40611SOL    HW123840   4.268   1.038   6.427  1.8386  1.4458 -0.2982
40611SOL    HW223841   4.322   1.009   6.566 -1.2556 -0.9637  0.5084
40612SOL     OW23842  10.638   6.890   1.056 -0.0138 -0.1072 -0.3298
40612SOL    HW123843  10.653   6.898   0.962  1.3543  1.7146 -0.0237
40612SOL    HW223844  10.602   6.975   1.082 -0.2477 -0.5370  0.8153
40613SOL     OW23845   9.511   9.753   8.053  0.4167  0.5812  0.3656
40613SOL    HW123846   9.534   9.756   8.145 -0.2691  1.3175  0.5264
40613SOL    HW223847   9.420   9.783   8.050  0.7233  1.4719 -0.6433
40614SOL     OW23848   3.875   8.219   8.043 -0.4162 -0.7279 -0.1884
40614SOL    HW123849   3.796   8.174   8.075 -1.3186  1.3945  0.7379
40614SOL    HW223850   3.910   8.263   8.121  0.4819  0.0612 -1.0225
40615SOL     OW23851   1.906   7.712   7.178  0.3600 -0.0508  0.1088
40615SOL    HW123852   1.979   7.697   7.117  1.2332  1.0481  0.8447
40615SOL    HW223853   1.942   7.688   7.264  0.1217  1.2463  0.5848
40616SOL     OW23854   6.907   5.543   6.236 -0.1157  0.1193 -0.1818
40616SOL    HW123855   6.825   5.528   6.189  0.6991 -2.2618 -0.9614
40616SOL    HW223856   6.966   5.474   6.205  1.6604  0.7487  1.5880
40617SOL     OW23857   0.630   8.716   2.884 -0.0236  0.5440  0.5404
40617SOL    HW123858   0.615   8.626   2.913 -0.1986  0.4625  0.2123
40617SOL    HW223859   0.542   8.753   2.877 -0.1056  0.0850 -1.3529
40618SOL     OW23860   8.969   1.445  10.585  0.3139  0.6967  0.2974
40618SOL    HW123861   9.000   1.410  10.669 -2.8221 -1.3651  0.7675
40618SOL    HW223862   9.034   1.418  10.521  0.5364 -1.7186  1.4454
40619SOL     OW23863   9.653   6.972   1.655  0.5392 -0.7897  0.1808
40619SOL    HW123864   9.621   6.895   1.702  0.1211 -0.3665  0.6032
40619SOL    HW223865   9.608   7.046   1.697  2.3243 -0.1411  1.0177
40620SOL     OW23866   6.918   3.707   2.702 -0.8939  0.8193  0.1188
40620SOL    HW123867   6.877   3.748   2.626 -0.6096  1.5224  0.3334
40620SOL    HW223868   6.971   3.777   2.741 -0.2018  0.1747  0.3548
40621SOL     OW23869   2.351   0.235   4.692 -0.7349 -0.2355  0.0975
40621SOL    HW123870   2.311   0.291   4.758  0.1458 -0.2605  0.6599
40621SOL    HW223871   2.444   0.256   4.696 -0.3686 -1.8006  0.3916
40622SOL     OW23872  10.724   1.376   1.296  0.9266 -0.5440 -0.4488
40622SOL    HW123873  10.773   1.418   1.226  0.7924  0.2602 -0.0735
40622SOL    HW223874  10.655   1.327   1.251  1.3399 -0.7096 -0.9146
40623SOL     OW23875   0.194   4.531   6.831 -0.0325  0.5474  0.4767
40623SOL    HW123876   0.173   4.438   6.828  1.1136  0.3028 -0.4317
40623SOL    HW223877   0.114   4.575   6.801 -0.7867 -0.0877  1.5041
40624SOL     OW23878   4.202   3.831   6.831 -0.1756 -0.4024  0.2285
40624SOL    HW123879   4.155   3.871   6.904 -0.7375  0.8116 -0.7526
40624SOL    HW223880   4.133   3.790   6.778 -0.2318  1.3932 -1.2204
40625SOL     OW23881   5.787   5.286   0.382  0.7259  0.4431 -0.7151
40625SOL    HW123882   5.826   5.334   0.309  1.0229  4.1589  1.6198
40625SOL    HW223883   5.732   5.350   0.426 -1.3550 -2.2986  1.0300
40626SOL     OW23884   8.294   3.010   9.253 -0.0287  0.2868  0.0527
40626SOL    HW123885   8.266   3.068   9.324  1.1723  0.6100  0.2730
40626SOL    HW223886   8.236   2.934   9.260 -0.2009  0.5022  1.1070
40627SOL     OW23887   4.183   7.072   7.276  0.0427  1.0932 -0.0462
40627SOL    HW123888   4.191   7.058   7.181  1.6841  0.4466  0.1469
40627SOL    HW223889   4.274   7.079   7.307 -0.3931 -0.1052  1.6621
40628SOL     OW23890   2.474   1.649   1.848 -0.2105  0.4394 -0.0348
40628SOL    HW123891   2.388   1.617   1.820 -0.3402  2.1445 -1.8824
40628SOL    HW223892   2.455   1.728   1.898  0.2611  0.0953  0.7090
40629SOL     OW23893   5.257  10.249   3.457  0.1600 -0.0978 -0.2233
40629SOL    HW123894   5.266  10.155   3.445  2.3406  0.1489 -0.9981
40629SOL    HW223895   5.318  10.270   3.527 -0.6357  0.7020  0.2533
40630SOL     OW23896   8.565   0.406   0.374  0.6037  0.1834  0.6716
40630SOL    HW123897   8.599   0.398   0.285  1.5142  2.1528  0.7905
40630SOL    HW223898   8.644   0.406   0.429  0.0423 -1.1539  1.5127
40631SOL     OW23899   3.793   0.249   6.436  0.3189  0.3791 -0.3545
40631SOL    HW123900   3.815   0.157   6.417  0.7836  0.1817  1.0453
40631SOL    HW223901   3.878   0.292   6.448  0.0698  0.5406  0.9641
40632SOL     OW23902   5.350  11.010   3.021  0.1775  0.1207  0.2423
40632SOL    HW123903   5.355  10.984   3.113 -0.9809  0.6521  0.4680
40632SOL    HW223904   5.259  10.997   2.997  0.7506 -1.3662 -1.2618
40633SOL     OW23905   1.086   7.054  10.481  0.3614  0.3933 -0.1517
40633SOL    HW123906   1.097   7.019  10.393  3.3883  0.6679  0.0155
40633SOL    HW223907   1.046   7.140  10.468  0.1442  0.1437 -1.2033
40634SOL     OW23908   0.941   0.038   1.502  0.6587  1.0613  0.2911
40634SOL    HW123909   0.862   0.092   1.495  0.0946  0.3452  0.8793
40634SOL    HW223910   0.941   0.007   1.593  0.5442 -0.5174 -0.2095
40635SOL     OW23911   4.561  10.065   8.215 -0.1373  0.1753  0.1084
40635SOL    HW123912   4.570   9.970   8.226  1.0735  0.3553  0.7522
40635SOL    HW223913   4.650  10.097   8.205 -0.5796  1.1770 -0.8501
40636SOL     OW23914   9.999   0.310   4.751 -0.3905 -0.2493  0.4945
40636SOL    HW123915   9.946   0.378   4.793 -1.4273 -1.3978  1.1307
40636SOL    HW223916  10.088   0.326   4.782 -0.6935  0.5291  1.0000
40637SOL     OW23917   3.482   5.629   8.282 -0.0098  0.0747  0.6501
40637SOL    HW123918   3.435   5.593   8.357 -0.4089 -1.8611 -0.4671
40637SOL    HW223919   3.455   5.574   8.208 -0.0665  2.2583 -1.0389
40638SOL     OW23920   4.279   8.008   3.440 -0.3753 -0.2706  0.0310
40638SOL    HW123921   4.260   7.976   3.353  1.1578 -1.2516  0.0270
40638SOL    HW223922   4.263   7.933   3.498  0.7814 -0.3148  0.3158
40639SOL     OW23923   7.952   5.795   4.519 -0.8841  0.4838 -0.4709
40639SOL    HW123924   7.982   5.736   4.588 -1.0671  0.0421 -0.7666
40639SOL    HW223925   7.862   5.816   4.543  0.0596  2.9786  1.2163
40640SOL     OW23926   0.024   4.664   6.559 -0.0074  0.0420 -0.1833
40640SOL    HW123927  -0.051   4.647   6.504 -0.2221 -0.3254  0.2212
40640SOL    HW223928   0.093   4.690   6.498 -0.6197  0.9569 -0.5095
40641SOL     OW23929   8.698   4.040   0.763 -0.2538  0.2076 -0.1435
40641SOL    HW123930   8.673   4.105   0.829  0.7463  0.5487 -0.0900
40641SOL    HW223931   8.705   4.090   0.681 -0.8264 -0.0890 -0.3778
40642SOL     OW23932   4.754  10.774   2.273  0.0950  0.4015 -0.5992
40642SOL    HW123933   4.830  10.773   2.215  1.3880  0.1333  1.0201
40642SOL    HW223934   4.783  10.727   2.352 -2.1470 -0.7823 -0.3910
40643SOL     OW23935   8.226   3.238   5.518 -0.2176  0.3404 -0.4081
40643SOL    HW123936   8.212   3.276   5.431 -0.0348  0.1186 -0.5333
40643SOL    HW223937   8.179   3.297   5.578 -1.1958 -0.0603 -0.7601
40644SOL     OW23938   9.190   9.090   1.204  0.1946  0.7023 -0.0971
40644SOL    HW123939   9.216   9.114   1.293 -0.7050 -1.7161  0.8886
40644SOL    HW223940   9.272   9.068   1.160  0.7469  2.7786 -0.2206
40645SOL     OW23941   6.979   0.000   2.245 -0.3531  0.6527 -0.6095
40645SOL    HW123942   6.965   0.093   2.264  0.7508  0.5884  0.6484
40645SOL    HW223943   7.003  -0.038   2.329  2.4310 -0.1277 -1.6694
40646SOL     OW23944   5.127   2.216   0.261  0.6655  0.2323  0.1296
40646SOL    HW123945   5.192   2.185   0.323  0.4954  2.3008  1.4437
40646SOL    HW223946   5.045   2.177   0.290  0.8678 -0.1759  0.1522
40647SOL     OW23947   1.637  10.101  10.352 -0.5991  0.6596 -0.0635
40647SOL    HW123948   1.695  10.071  10.282 -2.0388  1.2736 -1.6096
40647SOL    HW223949   1.696  10.138  10.417  0.9136 -1.4991 -0.0976
40648SOL     OW23950   7.929   2.237  10.214  0.0697  0.2832  0.1551
40648SOL    HW123951   7.953   2.214  10.304 -0.1823 -0.3559  0.0615
40648SOL    HW223952   7.961   2.327  10.203  1.2773 -0.0923  0.4574
40649SOL     OW23953   1.861  10.260   9.556  0.1864 -0.2182 -0.0858
40649SOL    HW123954   1.815  10.260   9.640 -0.7344 -1.6010 -0.5543
40649SOL    HW223955   1.843  10.347   9.519 -0.0793  0.1013  0.7795
40650SOL     OW23956   1.112   4.816   1.257 -0.3219 -0.0921  0.2605
40650SOL    HW123957   1.144   4.765   1.330  0.8317  0.3115  0.0583
40650SOL    HW223958   1.024   4.843   1.283  0.0751  0.0618  1.5033
40651SOL     OW23959   5.549   5.040   8.540  0.3028  0.1858  0.2254
40651SOL    HW123960   5.549   5.083   8.455  1.4624 -0.3699 -0.0731
40651SOL    HW223961   5.493   4.963   8.529  0.9078 -0.1939 -0.1980
40652SOL     OW23962   7.385   8.346   8.032  0.1877 -0.3234 -0.3229
40652SOL    HW123963   7.453   8.278   8.032  1.0160  0.4816 -0.7591
40652SOL    HW223964   7.410   8.405   8.103 -0.9413 -0.8494  0.5467
40653SOL     OW23965   0.718   2.113   3.436  0.2206  0.0360 -0.0731
40653SOL    HW123966   0.748   2.198   3.405 -1.1836  0.8696  0.7594
40653SOL    HW223967   0.687   2.068   3.357  1.5190  0.0174 -0.6059
40654SOL     OW23968   2.806   4.735   8.855  0.7270  0.2157  0.1561
40654SOL    HW123969   2.820   4.698   8.768  0.2931 -0.2475  0.2765
40654SOL    HW223970   2.882   4.791   8.871  2.4345 -2.1397  0.7786
40655SOL     OW23971   6.609   2.204   3.102 -0.4291  0.1360 -0.6126
40655SOL    HW123972   6.630   2.227   3.193 -1.3882  1.4931 -0.7065
40655SOL    HW223973   6.695   2.196   3.060  0.0315 -0.6370  0.4337
40656SOL     OW23974   7.656   0.249   4.567 -0.3765 -0.4773  0.3251
40656SOL    HW123975   7.696   0.303   4.499 -0.4897  1.7269  1.9072
40656SOL    HW223976   7.573   0.293   4.587 -0.7328 -1.5415  1.3439
40657SOL     OW23977  10.775   6.990   0.140  0.2524  0.0052  0.2379
40657SOL    HW123978  10.685   6.999   0.110  0.0708  0.2668  0.8585
40657SOL    HW223979  10.780   6.901   0.174  0.8038 -0.7576 -1.6805
40658SOL     OW23980  10.055   9.299   0.553 -0.5381  0.2400  0.1644
40658SOL    HW123981  10.048   9.233   0.484  0.8345 -1.0903  1.2235
40658SOL    HW223982  10.114   9.365   0.517  0.0913 -0.3930  0.0256
40659SOL     OW23983   2.360   2.420   2.179 -0.0760  0.1061  0.1013
40659SOL    HW123984   2.405   2.433   2.263  0.5893 -0.7880 -0.0979
40659SOL    HW223985   2.299   2.348   2.195  1.9561 -1.9768 -0.8071
40660SOL     OW23986   1.539   7.606   0.906  0.8422 -0.3561 -0.0610
40660SOL    HW123987   1.512   7.542   0.972 -2.0441  0.5842 -0.1757
40660SOL    HW223988   1.469   7.605   0.841  2.1017  0.9295 -1.5465
40661SOL     OW23989   8.596   0.783   2.737  0.4439  0.4523 -0.9442
40661SOL    HW123990   8.650   0.708   2.713 -0.2113 -0.4113  0.1510
40661SOL    HW223991   8.610   0.793   2.831 -1.5441 -0.0554 -0.5437
40662SOL     OW23992   6.717   4.378   9.354 -0.0893 -0.4882  0.5158
40662SOL    HW123993   6.667   4.413   9.280 -0.0330 -1.2107  0.1346
40662SOL    HW223994   6.654   4.375   9.426  0.1651  1.4213  0.8816
40663SOL     OW23995   2.275   3.252   7.879  0.4895 -0.3197 -0.2151
40663SOL    HW123996   2.314   3.231   7.794 -0.2795  1.2819 -1.0126
40663SOL    HW223997   2.189   3.288   7.858  1.0083  1.9023  1.0635
40664SOL     OW23998   6.474   5.271   6.153  0.0651  0.6871  0.0604
40664SOL    HW123999   6.482   5.349   6.208  0.5919  0.2251  0.6437
40664SOL    HW224000   6.387   5.236   6.174  0.5668  0.0812  1.1789
40665SOL     OW24001   5.345   1.387   7.378 -0.2683 -0.3635 -0.1909
40665SOL    HW124002   5.262   1.403   7.332  0.2826 -0.6684 -1.3410
40665SOL    HW224003   5.408   1.370   7.307  0.6015 -0.9191  0.6984
40666SOL     OW24004   4.965   3.713   8.183 -0.0912 -0.1213 -0.3985
40666SOL    HW124005   4.968   3.731   8.277  0.2828 -0.4812 -0.3385
40666SOL    HW224006   5.057   3.710   8.156  0.1145 -4.2629  0.0653
40667SOL     OW24007   4.071   7.654   7.314 -0.1829 -0.5093 -0.1137
40667SOL    HW124008   4.122   7.588   7.362 -0.1737  0.0108  0.6088
40667SOL    HW224009   3.989   7.661   7.362 -0.5377 -0.6171 -0.6943
40668SOL     OW24010   1.409  10.089   8.376 -0.0249  0.1910  0.3616
40668SOL    HW124011   1.331  10.037   8.359 -1.2694  1.8084  0.9232
40668SOL    HW224012   1.410  10.101   8.471  0.6536  0.5648  0.3186
40669SOL     OW24013   1.875   0.739   6.095  0.5283  0.0440 -0.4188
40669SOL    HW124014   1.841   0.657   6.131 -1.5923  0.8593 -0.4360
40669SOL    HW224015   1.946   0.712   6.037 -1.4171 -1.9849 -2.0133
40670SOL     OW24016   6.646   6.001   8.868 -0.4353 -0.5486  0.7862
40670SOL    HW124017   6.729   6.045   8.889  0.2117 -1.1454 -0.4179
40670SOL    HW224018   6.579   6.068   8.886  0.2702 -0.1023  1.9142
40671SOL     OW24019   0.938   9.279  10.725  0.4870 -0.6717  0.1743
40671SOL    HW124020   1.027   9.313  10.723  1.0251 -1.8850  1.6805
40671SOL    HW224021   0.942   9.197  10.676 -0.1412 -0.0688 -0.9274
40672SOL     OW24022   4.070   0.494   8.170  0.4389  0.3718 -0.0676
40672SOL    HW124023   4.033   0.487   8.258 -1.3809 -0.9482 -0.8554
40672SOL    HW224024   4.082   0.403   8.142  1.1948  0.7688 -1.1065
40673SOL     OW24025   3.916   5.118   2.553  0.2517  0.3554  0.0000
40673SOL    HW124026   3.982   5.170   2.598 -0.0713  0.6142  0.1804
40673SOL    HW224027   3.855   5.182   2.518 -0.2796  0.0940  0.4281
40674SOL     OW24028   4.573   6.584   1.505  0.4243 -0.6632 -0.4595
40674SOL    HW124029   4.500   6.522   1.502  0.5995 -1.0004  1.4066
40674SOL    HW224030   4.599   6.587   1.597  2.0287  0.3276 -0.9009
40675SOL     OW24031   8.573   7.812   5.671 -0.0063 -0.1726  0.0397
40675SOL    HW124032   8.523   7.879   5.625  1.7042  0.0209 -1.6597
40675SOL    HW224033   8.589   7.745   5.605  1.3738 -0.5367  0.7076
40676SOL     OW24034   7.254   4.181   8.713 -0.2640 -0.3727 -0.2740
40676SOL    HW124035   7.174   4.219   8.677 -0.3378 -0.9310 -0.7201
40676SOL    HW224036   7.264   4.223   8.799 -1.6201 -1.0671  0.2611
40677SOL     OW24037   6.801   7.542   7.321 -0.9216  0.1098 -1.0037
40677SOL    HW124038   6.727   7.506   7.272 -0.2629  0.2897 -2.1761
40677SOL    HW224039   6.765   7.565   7.406 -2.6194  1.7230 -2.0940
40678SOL     OW24040   5.916   8.837   1.748 -0.0874  0.4816  0.2168
40678SOL    HW124041   5.868   8.851   1.830 -0.3035  0.1695  0.1409
40678SOL    HW224042   5.870   8.766   1.705 -0.3502  1.0557 -0.4710
40679SOL     OW24043  10.667   4.861   2.356  0.1685 -0.0686  0.5354
40679SOL    HW124044  10.578   4.869   2.390  0.6166 -0.9008  1.9842
40679SOL    HW224045  10.697   4.951   2.346 -0.7292  0.2177  0.2695
40680SOL     OW24046   1.063   3.770   8.016  0.2080  0.2705  0.4755
40680SOL    HW124047   1.073   3.791   8.109  0.6314  1.0071  0.2717
40680SOL    HW224048   1.013   3.844   7.981  1.6064  0.9175 -0.2383
40681SOL     OW24049   1.527  10.809   1.697  0.0081  0.0678  0.3438
40681SOL    HW124050   1.494  10.896   1.679  0.7186  0.3520  0.3725
40681SOL    HW224051   1.450  10.753   1.697 -0.4421  0.6834  0.2500
40682SOL     OW24052  11.026   3.684   7.872 -0.1123 -0.1527  0.4488
40682SOL    HW124053  11.086   3.613   7.893  1.1705  0.6800 -0.2247
40682SOL    HW224054  10.993   3.663   7.785  0.2277  0.0395  0.2713
40683SOL     OW24055   2.284   8.782   5.547  0.0095 -0.1199 -0.5791
40683SOL    HW124056   2.273   8.764   5.640 -2.1387 -2.1143 -1.1241
40683SOL    HW224057   2.258   8.873   5.537 -1.0358 -0.2588  0.5950
40684SOL     OW24058   2.368   1.255   3.498  0.5546  0.1385 -0.3923
40684SOL    HW124059   2.292   1.207   3.533 -0.0560  1.2987 -0.0962
40684SOL    HW224060   2.440   1.233   3.557  0.1100  0.1507  0.1526
40685SOL     OW24061   4.260   3.172   4.120 -0.0595  0.7260 -0.2036
40685SOL    HW124062   4.324   3.241   4.104 -0.5228  0.7737 -2.0989
40685SOL    HW224063   4.273   3.110   4.048  1.7253 -2.3440  2.4226
40686SOL     OW24064  10.661   0.824   1.038 -0.0634  0.4473 -0.5660
40686SOL    HW124065  10.755   0.819   1.054 -0.0053 -1.0126 -1.1476
40686SOL    HW224066  10.627   0.743   1.076 -0.9949  0.6702 -0.9080
40687SOL     OW24067   2.415   2.423   7.570 -0.0834 -0.6816  0.2304
40687SOL    HW124068   2.430   2.517   7.560 -0.6821 -0.5610  0.4220
40687SOL    HW224069   2.496   2.389   7.608  1.0342 -0.6152 -1.9182
40688SOL     OW24070   9.315   4.790  10.233  0.4485  0.5627 -0.1179
40688SOL    HW124071   9.339   4.870  10.187  2.5165  0.6186  0.9449
40688SOL    HW224072   9.302   4.725  10.164  0.3077  1.4189 -0.9143
40689SOL     OW24073   1.130   5.279   8.003  0.0286  0.0062  0.0242
40689SOL    HW124074   1.140   5.312   8.092 -2.7260 -0.1760  0.5028
40689SOL    HW224075   1.158   5.187   8.008  0.4781  0.1692  0.5483
40690SOL     OW24076   8.740   4.299   4.706  0.0621 -0.3863  0.2419
40690SOL    HW124077   8.771   4.270   4.792  0.0747 -0.3199  0.2601
40690SOL    HW224078   8.650   4.269   4.701  0.1577 -0.6616  0.1515
40691SOL     OW24079   3.610   7.976   2.872 -0.1524 -0.7094 -0.3271
40691SOL    HW124080   3.705   7.983   2.863  0.3017 -3.3215  1.2795
40691SOL    HW224081   3.589   8.033   2.947 -0.4098  2.2349 -2.4825
40692SOL     OW24082   9.489   6.334   0.600  0.0819 -0.5578  0.1356
40692SOL    HW124083   9.497   6.415   0.652  0.3264 -0.3126 -0.2774
40692SOL    HW224084   9.511   6.361   0.511 -0.6084 -0.9193 -0.1466
40693SOL     OW24085   3.444   4.964   8.868  0.1438  0.3255  0.3438
40693SOL    HW124086   3.395   4.969   8.951 -0.4060 -0.9976  0.1198
40693SOL    HW224087   3.472   4.873   8.862 -0.4152  0.2297 -1.2659
40694SOL     OW24088   2.697   7.563   1.158  0.3208 -0.6896 -0.1735
40694SOL    HW124089   2.683   7.645   1.204  0.1804 -0.8225  0.0201
40694SOL    HW224090   2.764   7.583   1.093  0.7441 -0.5815  0.2908
40695SOL     OW24091   4.670   6.529   5.670  0.3656 -0.5041 -0.0654
40695SOL    HW124092   4.628   6.580   5.739 -0.4194  0.4475 -1.2095
40695SOL    HW224093   4.757   6.568   5.661  0.1452 -0.0483 -0.2250
40696SOL     OW24094   5.838   4.090   2.144 -0.1632 -0.1178 -0.1961
40696SOL    HW124095   5.839   4.087   2.049  0.4033  2.7617 -0.3663
40696SOL    HW224096   5.766   4.150   2.165  0.8837  0.7628  1.0635
40697SOL     OW24097   2.385   5.397   8.205  0.4220  0.6970 -0.0118
40697SOL    HW124098   2.444   5.449   8.260  0.5943  0.2831  0.1973
40697SOL    HW224099   2.320   5.460   8.174  0.4467  0.9810  0.4919
40698SOL     OW24100   1.329   9.832   3.766  0.2525  0.0814  0.1207
40698SOL    HW124101   1.378   9.828   3.684  2.0215 -1.5393  1.1781
40698SOL    HW224102   1.393   9.812   3.834 -1.8182 -2.2309  1.6017
40699SOL     OW24103   6.417  10.291   8.753 -0.1183  0.4442 -0.2297
40699SOL    HW124104   6.378  10.366   8.798  1.0554  0.4012  0.9305
40699SOL    HW224105   6.360  10.217   8.775 -1.4521  0.9982 -1.6251
40700SOL     OW24106   3.618   4.322  10.523 -0.2358 -0.0229 -0.7743
40700SOL    HW124107   3.711   4.344  10.511 -0.1378  0.3719  0.5667
40700SOL    HW224108   3.577   4.405  10.545 -0.3510 -0.6485  1.6217
40701SOL     OW24109   6.962   2.192   8.709  0.0951  0.1032 -0.3574
40701SOL    HW124110   6.917   2.182   8.792  0.2634  0.0082 -0.2773
40701SOL    HW224111   6.994   2.283   8.710 -0.0922  0.1685 -0.4124
40702SOL     OW24112   4.663   6.720   3.145  0.0949 -0.2689  0.3581
40702SOL    HW124113   4.639   6.742   3.235 -1.5227  0.9283 -0.3106
40702SOL    HW224114   4.737   6.777   3.125 -1.1053  1.3131  0.1872
40703SOL     OW24115   7.351   5.382  10.096  0.2745  0.2373 -0.2442
40703SOL    HW124116   7.431   5.398  10.145 -1.4261  0.2170  2.7286
40703SOL    HW224117   7.369   5.301  10.048  1.7624 -0.2258  1.0133
40704SOL     OW24118   3.869   1.508   6.032 -0.2633 -0.1784  0.2482
40704SOL    HW124119   3.861   1.413   6.044  1.6036 -0.2231  1.5862
40704SOL    HW224120   3.943   1.518   5.972 -0.1773  0.4359  0.4533
40705SOL     OW24121   2.643   2.794   2.771 -0.2236  0.9551 -0.2868
40705SOL    HW124122   2.657   2.883   2.801  1.0245  1.1008 -1.2071
40705SOL    HW224123   2.653   2.799   2.676 -0.7057 -0.0650 -0.4067
40706SOL     OW24124   8.837   9.514   3.037  0.2026  0.5614  0.1019
40706SOL    HW124125   8.910   9.454   3.022  2.4286  3.0653  0.0213
40706SOL    HW224126   8.825   9.515   3.132 -0.1527 -0.3116  0.0693
40707SOL     OW24127   7.018   6.675   4.044 -0.1667 -0.2551  0.0771
40707SOL    HW124128   7.085   6.738   4.017  0.1159 -1.1787 -1.4655
40707SOL    HW224129   7.045   6.592   4.004 -2.3094 -0.6261 -0.6896
40708SOL     OW24130   5.230   0.684   2.637  0.2134  0.1733 -0.4124
40708SOL    HW124131   5.262   0.724   2.556 -1.2808  1.2266 -0.5275
40708SOL    HW224132   5.136   0.699   2.635  0.3297  2.2669  2.5496
40709SOL     OW24133   0.559   2.786   2.169  0.2917  0.2013  0.0974
40709SOL    HW124134   0.610   2.727   2.224  1.2362  0.1166 -0.8355
40709SOL    HW224135   0.511   2.728   2.110  0.5152  0.3288 -0.2144
40710SOL     OW24136   1.792   5.328   5.861 -0.6522 -0.0539 -0.4573
40710SOL    HW124137   1.774   5.360   5.772 -0.3865  0.3637 -0.3601
40710SOL    HW224138   1.735   5.251   5.870 -1.1020  0.2308 -0.7870
40711SOL     OW24139   2.395   3.697  10.060  0.2349  0.5760  0.0834
40711SOL    HW124140   2.454   3.772  10.067  0.3909  0.3341  1.6966
40711SOL    HW224141   2.452   3.621  10.072 -0.4197  0.3531  2.0520
40712SOL     OW24142   2.634   4.955   3.098 -0.1543 -0.4110 -0.5999
40712SOL    HW124143   2.657   4.931   3.188  0.8284  1.4484 -0.3042
40712SOL    HW224144   2.598   5.044   3.105  0.9853  0.2237 -2.1307
40713SOL     OW24145   5.017   7.994  10.279  0.1161 -0.7926 -0.0614
40713SOL    HW124146   5.088   7.954  10.231 -0.8461 -0.4239 -1.8740
40713SOL    HW224147   4.970   7.920  10.319 -0.2651 -1.2925 -1.4007
40714SOL     OW24148   7.203   8.799   8.814  0.2178 -0.3775  0.5803
40714SOL    HW124149   7.120   8.803   8.862  1.0645 -0.9131  2.1975
40714SOL    HW224150   7.261   8.749   8.872  1.6121 -0.1954 -0.5991
40715SOL     OW24151   2.923   9.985   4.067  0.3072  0.1976  0.3190
40715SOL    HW124152   2.855  10.025   4.014 -1.5225 -2.2957  0.5912
40715SOL    HW224153   2.879   9.962   4.149  1.9821  0.1990  1.2634
40716SOL     OW24154   9.664   2.237   4.044  0.1107  0.3272  0.1004
40716SOL    HW124155   9.748   2.270   4.076  0.0107  0.8348 -0.1498
40716SOL    HW224156   9.614   2.219   4.123  1.0866 -1.7156  0.3219
40717SOL     OW24157   0.755   2.670   2.413 -0.5497  0.2138 -0.1862
40717SOL    HW124158   0.706   2.628   2.483 -0.8792 -0.6754 -0.9202
40717SOL    HW224159   0.808   2.737   2.456 -3.0333  1.8372  0.5622
40718SOL     OW24160   7.714   3.762   0.615  0.0834 -0.0743  0.3599
40718SOL    HW124161   7.709   3.683   0.669 -3.5870  0.0469  0.4132
40718SOL    HW224162   7.729   3.833   0.677  1.6491 -0.4928  0.4986
40719SOL     OW24163   5.600   1.036   1.538  0.3101 -0.2597 -0.7901
40719SOL    HW124164   5.554   0.988   1.469 -2.3027 -1.2655  1.4505
40719SOL    HW224165   5.538   1.106   1.563  1.8137  0.9847 -0.3964
40720SOL     OW24166  10.641   7.036   2.806 -0.1539 -0.3029  0.6322
40720SOL    HW124167  10.646   7.079   2.891  3.3091 -0.9099  0.8929
40720SOL    HW224168  10.637   6.943   2.826  0.7770 -0.4556  0.1770
40721SOL     OW24169   2.968   4.706   7.373  0.2224  0.2096  0.0407
40721SOL    HW124170   2.966   4.759   7.293 -0.9048  0.0547 -0.0480
40721SOL    HW224171   3.047   4.735   7.419  0.8315  0.3641 -1.0744
40722SOL     OW24172  10.688   2.241   1.268 -0.8165 -0.6090  0.2272
40722SOL    HW124173  10.711   2.297   1.194 -1.1060  0.1968  0.7393
40722SOL    HW224174  10.674   2.155   1.228 -0.1163 -0.3884 -0.5312
40723SOL     OW24175   9.953   4.906  10.048 -0.2442  0.2798  0.1511
40723SOL    HW124176  10.047   4.916  10.065 -0.2782  1.0460 -0.0933
40723SOL    HW224177   9.918   4.875  10.132  0.4415 -1.5682 -0.1963
40724SOL     OW24178   2.316   4.964  10.684  0.5631  0.2632 -0.1031
40724SOL    HW124179   2.267   4.920  10.614 -0.9740  0.4782  0.7764
40724SOL    HW224180   2.308   5.057  10.664 -1.0865  0.4118  1.0469
40725SOL     OW24181   5.949   0.266   2.084 -0.4536 -0.6442 -0.3492
40725SOL    HW124182   5.908   0.291   2.167  0.2528 -0.5011 -0.0401
40725SOL    HW224183   5.948   0.171   2.085 -0.3395 -0.6459 -0.1139
40726SOL     OW24184   2.168   0.601   9.840  0.2576 -0.0783  0.0233
40726SOL    HW124185   2.122   0.607   9.923 -1.1237  1.0181 -0.7802
40726SOL    HW224186   2.213   0.686   9.831 -1.4519  0.7529 -1.3369
40727SOL     OW24187   6.184   1.221  10.612  0.4747 -0.3431  0.2321
40727SOL    HW124188   6.162   1.297  10.558 -2.2431 -0.8512  0.4542
40727SOL    HW224189   6.186   1.147  10.550  1.2332 -0.3874  0.2967
40728SOL     OW24190   7.597   7.843   2.309  0.2014  0.4997  0.2960
40728SOL    HW124191   7.649   7.848   2.389  0.8145  1.6387 -0.1531
40728SOL    HW224192   7.660   7.820   2.241 -0.5308 -1.7701  0.3080
40729SOL     OW24193  10.711   7.715   5.603 -0.0573 -0.1036 -0.1351
40729SOL    HW124194  10.725   7.686   5.693  1.8399 -0.3213 -0.4536
40729SOL    HW224195  10.617   7.733   5.598 -0.3972 -1.1434  1.5586
40730SOL     OW24196   0.850   6.341   7.118 -0.4101  0.5911 -0.0992
40730SOL    HW124197   0.806   6.269   7.073 -1.2953  0.4369  0.9532
40730SOL    HW224198   0.891   6.301   7.194  1.2575  0.8059 -0.8390
40731SOL     OW24199   1.540  10.882  10.201  0.1333 -0.0158  0.1822
40731SOL    HW124200   1.549  10.971  10.236  0.4068  0.5335 -1.2140
40731SOL    HW224201   1.451  10.856  10.224 -0.9855  1.7469 -1.7884
40732SOL     OW24202   0.837   5.215   3.365  0.1838 -0.2109 -0.1704
40732SOL    HW124203   0.812   5.222   3.273 -0.3857 -0.5270 -0.0467
40732SOL    HW224204   0.917   5.163   3.365  0.7182  0.5974 -0.5564
40733SOL     OW24205   8.553   9.324   6.639  0.3076 -0.2973  0.2767
40733SOL    HW124206   8.590   9.360   6.559 -1.8208 -2.8888 -2.0938
40733SOL    HW224207   8.480   9.383   6.660  0.1061 -0.2867 -0.4356
40734SOL     OW24208   7.799   9.481   0.520 -0.3584 -0.5776 -0.8010
40734SOL    HW124209   7.876   9.507   0.571  0.2107 -1.4117 -1.2216
40734SOL    HW224210   7.812   9.522   0.435 -1.4003  0.9682 -0.2654
40735SOL     OW24211  10.372   4.697   6.670  0.0179 -0.2213 -0.9258
40735SOL    HW124212  10.365   4.782   6.713  0.3597 -0.9130  0.5389
40735SOL    HW224213  10.464   4.673   6.678 -0.1970 -1.0166 -0.7447
40736SOL     OW24214  10.668   8.376   3.429  0.5728  0.2994  0.1626
40736SOL    HW124215  10.717   8.449   3.391  1.3200 -0.4042 -0.2464
40736SOL    HW224216  10.686   8.302   3.371 -0.4784 -0.1288  0.3607
40737SOL     OW24217   1.188   1.157   7.376 -0.1293  0.2281  0.1385
40737SOL    HW124218   1.214   1.101   7.303  0.9272  3.3675 -2.0914
40737SOL    HW224219   1.104   1.194   7.349  0.1207  1.1944  0.6355
40738SOL     OW24220   3.605   3.226   4.085  0.0568 -0.8458 -0.3218
40738SOL    HW124221   3.617   3.187   4.171 -1.0155  1.5304  1.0057
40738SOL    HW224222   3.667   3.299   4.083  0.1693 -0.9499 -1.6423
40739SOL     OW24223   5.691   7.087   0.724 -0.3363 -0.3535  1.0691
40739SOL    HW124224   5.778   7.096   0.762 -0.5029 -1.0080  1.6145
40739SOL    HW224225   5.698   7.012   0.665  0.7571  2.3533 -2.6450
40740SOL     OW24226   5.872   0.111   7.603 -0.0340 -0.0946 -0.4130
40740SOL    HW124227   5.815   0.156   7.666  1.2821  1.3927 -0.2191
40740SOL    HW224228   5.958   0.112   7.644  0.2960 -1.7283 -0.9847
40741SOL     OW24229   5.870   5.545   2.273 -0.0839  0.2930 -0.5909
40741SOL    HW124230   5.792   5.554   2.328  0.4233  0.5317  0.0886
40741SOL    HW224231   5.931   5.493   2.326  1.1165  2.0582 -0.1569
40742SOL     OW24232   6.730   8.784   8.182  0.6301 -0.4026 -0.3521
40742SOL    HW124233   6.669   8.722   8.223 -0.6583  1.0147 -0.0079
40742SOL    HW224234   6.774   8.733   8.115  1.3302 -2.2914  1.4177
40743SOL     OW24235  10.121   0.778   1.314  0.3825  0.0371  0.4597
40743SOL    HW124236  10.146   0.711   1.250  1.2825 -1.2454  2.0938
40743SOL    HW224237  10.056   0.832   1.268 -0.7769 -2.2503 -0.7700
40744SOL     OW24238   4.455   9.743  10.821  0.3117 -0.7020  0.4686
40744SOL    HW124239   4.360   9.745  10.813  0.2378  1.8498  1.2109
40744SOL    HW224240   4.478   9.650  10.810 -2.1813 -1.3154 -0.1977
40745SOL     OW24241   2.054   3.927   3.443  0.3369 -0.6621  0.2592
40745SOL    HW124242   2.009   3.921   3.527  0.9882  0.1964  0.6826
40745SOL    HW224243   1.990   3.968   3.384  0.6974  1.0434  0.9896
40746SOL     OW24244   9.865   8.338   9.899  0.3143 -0.0454 -0.2912
40746SOL    HW124245   9.795   8.331   9.834  1.7583  1.7485 -2.1643
40746SOL    HW224246   9.943   8.361   9.848  1.5129  1.5161  2.0867
40747SOL     OW24247   5.866   1.089   2.597 -0.2662 -0.0620  0.2692
40747SOL    HW124248   5.812   1.041   2.533  0.2101  0.8036 -0.8166
40747SOL    HW224249   5.883   1.025   2.666 -1.0050 -0.9586 -0.3402
40748SOL     OW24250   7.076   6.055   0.924 -0.0675  0.8368  0.8624
40748SOL    HW124251   7.022   6.118   0.876  0.1736 -1.7366 -3.2685
40748SOL    HW224252   7.025   5.974   0.921  3.3435 -1.5094 -2.5670
40749SOL     OW24253   8.331   0.048   0.523 -0.3701 -0.5442 -0.2070
40749SOL    HW124254   8.341   0.101   0.444 -0.6597  0.8188  0.6374
40749SOL    HW224255   8.420   0.037   0.557 -0.5192  3.6325  2.2303
40750SOL     OW24256   9.997   6.613   1.580 -0.2170  0.1192 -0.0235
40750SOL    HW124257   9.977   6.704   1.559  0.4636  0.4563  0.7023
40750SOL    HW224258   9.939   6.561   1.524 -0.2437  0.9903 -0.8244
40751SOL     OW24259  10.974   2.957   5.275 -0.1784 -0.1080  0.4541
40751SOL    HW124260  11.010   2.921   5.194  2.0042  0.3857  1.1563
40751SOL    HW224261  10.975   3.052   5.262 -1.0012 -0.0693  0.6021
40752SOL     OW24262   5.982   2.269   1.225  0.0339  0.0038  0.3173
40752SOL    HW124263   6.002   2.175   1.223 -0.5094 -0.2058  2.3627
40752SOL    HW224264   5.903   2.278   1.173  0.0649 -0.6775  0.1413
40753SOL     OW24265   9.816   2.478   5.205  0.0737 -0.0976  0.4949
40753SOL    HW124266   9.805   2.497   5.112  0.8713 -0.7536  0.2573
40753SOL    HW224267   9.829   2.564   5.246 -2.1014  0.3782  0.2921
40754SOL     OW24268   7.326   4.408   8.901  0.0399  0.0170  0.3187
40754SOL    HW124269   7.382   4.472   8.946 -0.5577  2.1290 -1.7181
40754SOL    HW224270   7.263   4.380   8.966 -1.1079  3.3150  0.8099
40755SOL     OW24271   7.127   6.394   3.634 -0.3236  0.5554 -0.2477
40755SOL    HW124272   7.179   6.462   3.591 -0.3325 -0.0726 -1.2986
40755SOL    HW224273   7.170   6.312   3.610 -0.9550  0.1183  0.0802
40756SOL     OW24274   0.202  10.298   3.033  0.1738  0.6345  0.3651
40756SOL    HW124275   0.239  10.215   3.063  0.0997  0.1161 -0.9518
40756SOL    HW224276   0.275  10.360   3.036  0.5074  0.2445  0.2254
40757SOL     OW24277   3.150   1.374   1.655  0.8265 -0.4096  0.2089
40757SOL    HW124278   3.172   1.369   1.748  0.4430 -1.6050  0.2500
40757SOL    HW224279   3.130   1.284   1.630  1.6650 -0.2348 -1.2191
40758SOL     OW24280   7.060   2.548  11.004  0.1459  0.3212  0.6374
40758SOL    HW124281   7.072   2.504  11.088 -2.3847  1.1547  1.5294
40758SOL    HW224282   6.983   2.603  11.017 -0.6825  0.0498 -2.4118
40759SOL     OW24283   9.234   5.305   3.258 -0.3765 -0.0538  0.0362
40759SOL    HW124284   9.325   5.333   3.266  0.1532 -2.0616  2.0855
40759SOL    HW224285   9.217   5.253   3.337 -3.4342  0.5377 -0.0957
40760SOL     OW24286   0.873   5.149   8.524 -0.1042 -0.1241 -0.6466
40760SOL    HW124287   0.936   5.219   8.544  0.8576 -0.5591 -2.0178
40760SOL    HW224288   0.902   5.075   8.578  0.2246 -0.1551 -0.8668
40761SOL     OW24289  10.492   7.659   2.864 -0.0325  0.6644 -0.5862
40761SOL    HW124290  10.448   7.593   2.811  0.1816  0.2737 -0.2835
40761SOL    HW224291  10.475   7.633   2.954  1.3451  0.1199 -0.4537
40762SOL     OW24292   6.623  10.566   4.438  0.4518 -0.0036  0.0812
40762SOL    HW124293   6.566  10.627   4.390  0.1366 -0.0314  0.4110
40762SOL    HW224294   6.573  10.545   4.517 -0.0714 -1.7990 -0.6862
40763SOL     OW24295  10.528   6.495   2.490 -0.0633 -0.4508  0.1100
40763SOL    HW124296  10.517   6.418   2.546 -0.5618  0.1506  0.8596
40763SOL    HW224297  10.515   6.570   2.549  0.7986  0.2179 -0.5221
40764SOL     OW24298   5.504   3.338   9.891  0.4095 -0.2110 -0.4398
40764SOL    HW124299   5.477   3.263   9.945  0.3530  0.2027  0.1160
40764SOL    HW224300   5.560   3.299   9.824  0.7346 -0.7054  0.1014
40765SOL     OW24301   9.248   3.043   6.119  0.1237 -0.3387  0.6137
40765SOL    HW124302   9.216   3.091   6.195 -2.4160  2.8550 -2.1659
40765SOL    HW224303   9.328   3.088   6.093  2.2429 -2.7683  2.4104
40766SOL     OW24304   7.412   0.670  10.410 -0.0369 -0.4318 -0.0392
40766SOL    HW124305   7.494   0.673  10.361 -0.7090 -2.3409 -1.4286
40766SOL    HW224306   7.433   0.619  10.488  0.1683 -0.7646 -0.3052
40767SOL     OW24307   2.117   5.684   2.386  0.1703  0.5564 -0.3431
40767SOL    HW124308   2.156   5.617   2.329 -0.4892  0.1418 -0.3129
40767SOL    HW224309   2.190   5.742   2.408  1.0248 -0.8238  0.6134
40768SOL     OW24310   2.613   7.042   8.463  0.1873 -0.2824  0.4590
40768SOL    HW124311   2.694   7.017   8.508  0.0922 -1.8856 -0.1940
40768SOL    HW224312   2.629   7.023   8.371 -0.2766  1.2019  0.0496
40769SOL     OW24313   3.167   4.190   9.648 -0.0429  0.4905  0.3547
40769SOL    HW124314   3.260   4.182   9.670 -0.1645  0.2874  0.8008
40769SOL    HW224315   3.143   4.104   9.613  0.1063  0.7581 -0.4202
40770SOL     OW24316   8.178  10.332   6.539 -0.2670 -0.7589  0.4577
40770SOL    HW124317   8.141  10.419   6.521 -1.3684 -1.7456 -2.6737
40770SOL    HW224318   8.236  10.315   6.465  0.8236 -2.2735  1.6021
40771SOL     OW24319  11.000   0.362   2.769  0.0360 -0.3155  0.3113
40771SOL    HW124320  11.012   0.454   2.793  0.1776 -1.0049  3.3145
40771SOL    HW224321  10.941   0.364   2.694  3.0960  2.3332 -2.3137
40772SOL     OW24322   6.796   3.933   2.211 -0.0513 -0.4348  0.1016
40772SOL    HW124323   6.809   3.868   2.142  0.9889 -0.5327  0.3796
40772SOL    HW224324   6.702   3.932   2.228 -0.4517  0.1264 -1.8276
40773SOL     OW24325   8.242   2.088   6.866  0.2003  0.0814 -0.7150
40773SOL    HW124326   8.211   2.022   6.929  2.3821 -0.5797 -0.2538
40773SOL    HW224327   8.216   2.171   6.905 -0.0522 -0.3942  0.1691
40774SOL     OW24328   0.836   9.187   9.596  0.2379  0.1010 -0.0089
40774SOL    HW124329   0.814   9.179   9.689 -0.2128  0.5276 -0.0740
40774SOL    HW224330   0.926   9.156   9.590  0.0341 -0.5993  0.4544
40775SOL     OW24331   0.888   3.791   7.741  0.5138  0.8548  0.3480
40775SOL    HW124332   0.834   3.743   7.678  2.1958  2.4953 -2.5406
40775SOL    HW224333   0.953   3.727   7.770  0.4750  0.3830 -0.5609
40776SOL     OW24334  10.914   9.905   8.717 -0.2871 -0.0758 -0.3081
40776SOL    HW124335  10.833   9.856   8.700  0.0472 -0.3490 -1.1807
40776SOL    HW224336  10.956   9.856   8.787 -0.5048 -0.3901 -0.3903
40777SOL     OW24337   3.229   9.272   6.842  0.1283  0.0230 -0.0656
40777SOL    HW124338   3.297   9.205   6.843  1.2758  1.0788  2.5209
40777SOL    HW224339   3.234   9.310   6.754 -0.5352 -3.1405 -1.5959
40778SOL     OW24340   2.047   0.113   1.096  0.3216 -0.1168 -0.2441
40778SOL    HW124341   2.068   0.039   1.040 -1.2840 -1.0807  0.3579
40778SOL    HW224342   2.063   0.082   1.185  0.7554  0.6754 -0.0271
40779SOL     OW24343   0.743   6.753   3.317  0.0556  0.4290 -0.4316
40779SOL    HW124344   0.725   6.772   3.225  1.9000  1.0186 -0.7178
40779SOL    HW224345   0.657   6.741   3.356 -0.8202  1.1571 -2.0214
40780SOL     OW24346   3.486   1.328  10.136  0.2421 -0.1747  0.3660
40780SOL    HW124347   3.543   1.343  10.211  0.7830  1.5695 -0.3590
40780SOL    HW224348   3.398   1.348  10.167  0.5316  1.0825  0.4022
40781SOL     OW24349   5.088   6.305   6.740  0.6347 -0.1073 -0.0552
40781SOL    HW124350   5.029   6.230   6.745  1.4972 -0.9102 -1.3432
40781SOL    HW224351   5.105   6.328   6.831 -1.4658  0.0163  0.3486
40782SOL     OW24352  10.678   5.117   9.707 -0.2818 -0.2849 -0.2675
40782SOL    HW124353  10.641   5.030   9.690  0.4416 -0.6282 -0.1234
40782SOL    HW224354  10.772   5.106   9.694 -0.2838  0.7309 -1.2469
40783SOL     OW24355   1.027   1.306   3.074 -0.4681  0.0274 -0.3506
40783SOL    HW124356   1.110   1.260   3.088 -1.3293 -1.7480 -0.7251
40783SOL    HW224357   1.031   1.335   2.983 -0.6781 -1.0272 -0.7125
40784SOL     OW24358   7.311   4.675   7.007  0.3881  0.6265  0.4674
40784SOL    HW124359   7.355   4.626   6.938 -0.6916  2.7836 -1.9130
40784SOL    HW224360   7.378   4.735   7.041  0.4944  0.7039  0.1212
40785SOL     OW24361   5.326   2.406   2.464 -0.0652 -0.6976 -0.8258
40785SOL    HW124362   5.307   2.450   2.381  1.4603  0.1871 -0.7515
40785SOL    HW224363   5.357   2.476   2.521  0.4122 -1.5522 -0.0196
40786SOL     OW24364   7.847   2.866   2.069  0.0084 -0.1377 -0.3366
40786SOL    HW124365   7.941   2.869   2.048  0.2429 -1.8702  0.3503
40786SOL    HW224366   7.832   2.778   2.102 -1.9164  0.0539 -0.5745
40787SOL     OW24367   2.219   2.610   7.247  0.1878 -0.3509 -0.2180
40787SOL    HW124368   2.186   2.539   7.303 -0.1797  0.1199  0.1739
40787SOL    HW224369   2.249   2.677   7.308 -1.0687  0.5644 -0.5588
40788SOL     OW24370   3.057   7.191   8.202  0.2181  0.4659  0.1578
40788SOL    HW124371   3.007   7.110   8.187  1.3916 -0.3309  0.4362
40788SOL    HW224372   3.016   7.230   8.279 -1.2399  0.8777 -0.7770
40789SOL     OW24373   3.570   5.743   7.917 -0.5043  0.6577  0.5205
40789SOL    HW124374   3.599   5.822   7.872 -1.9649  0.8049 -0.2337
40789SOL    HW224375   3.508   5.774   7.983 -2.8188  0.0587 -1.2413
40790SOL     OW24376   8.094   9.959   0.805 -0.0193 -0.4307 -0.3309
40790SOL    HW124377   8.036  10.034   0.819  0.5358 -0.1009  0.2023
40790SOL    HW224378   8.084   9.940   0.711  0.5819  0.9363 -0.7008
40791SOL     OW24379   6.733   2.293   4.895  0.2596  0.5200  0.0976
40791SOL    HW124380   6.705   2.221   4.839 -0.1767  1.1475 -0.4945
40791SOL    HW224381   6.809   2.331   4.851  0.1414  0.7858  0.1222
40792SOL     OW24382   6.599   9.683   5.499  0.0546 -0.0216 -0.0276
40792SOL    HW124383   6.592   9.749   5.568 -0.3587  1.1098 -1.0917
40792SOL    HW224384   6.688   9.695   5.464 -0.1143  0.1754 -0.3997
40793SOL     OW24385   9.437   1.397   8.717 -0.3604 -0.1657 -0.0646
40793SOL    HW124386   9.505   1.329   8.715 -0.0346  0.1673 -2.0624
40793SOL    HW224387   9.472   1.464   8.776  0.3462 -0.6845  0.1230
40794SOL     OW24388   8.864   7.770   5.928 -0.2462  0.0660 -0.5337
40794SOL    HW124389   8.928   7.772   5.857  2.7208  2.5333  1.9149
40794SOL    HW224390   8.797   7.832   5.900 -0.9242 -1.4276 -2.4921
40795SOL     OW24391  10.382   4.113   3.099  0.4418 -0.4481 -0.0981
40795SOL    HW124392  10.379   4.019   3.085 -0.7678 -0.5026  0.4024
40795SOL    HW224393  10.320   4.129   3.170  0.0445  0.7995 -0.6909
40796SOL     OW24394   7.166   4.648  11.026 -0.0144  0.3372 -0.1326
40796SOL    HW124395   7.257   4.626  11.006  0.1358  0.6493  0.1958
40796SOL    HW224396   7.124   4.656  10.941  0.3903  0.7156 -0.3015
40797SOL     OW24397   3.373   0.561   7.767  0.9264 -0.2936  0.1981
40797SOL    HW124398   3.358   0.552   7.861 -0.7073 -0.3863 -0.0338
40797SOL    HW224399   3.311   0.499   7.727  3.3245 -2.1387 -0.9136
40798SOL     OW24400   0.569   9.358   1.616 -0.3029 -0.2854  0.8960
40798SOL    HW124401   0.525   9.276   1.594 -1.7558  0.4056  1.0764
40798SOL    HW224402   0.592   9.349   1.709  1.1987 -1.1811  0.4637
40799SOL     OW24403   4.981   6.987   7.290 -0.3255  0.9116  0.2674
40799SOL    HW124404   4.914   6.972   7.223 -0.3479 -1.6009  0.7312
40799SOL    HW224405   5.057   6.938   7.258  0.2862  1.2634  1.1630
40800SOL     OW24406   7.909   9.220  10.601 -0.5820  0.0169  0.5849
40800SOL    HW124407   7.852   9.266  10.539 -0.5053  1.8253  1.7757
40800SOL    HW224408   7.879   9.129  10.598 -1.5165  0.3337 -1.0198
40801SOL     OW24409   2.799   7.168   1.719 -0.0019 -0.0898  0.6403
40801SOL    HW124410   2.708   7.178   1.691  0.1335  1.8397  0.7357
40801SOL    HW224411   2.798   7.193   1.812  0.4625 -1.1045  0.9297
40802SOL     OW24412  10.174   4.373   6.451 -0.1580 -0.1835 -0.2264
40802SOL    HW124413  10.167   4.399   6.543 -0.5980 -0.5236 -0.1672
40802SOL    HW224414  10.145   4.451   6.402 -2.1739 -0.7613 -0.0372
40803SOL     OW24415   3.812   7.806   4.491  0.1116  0.1487 -0.5976
40803SOL    HW124416   3.894   7.844   4.458  0.7259 -1.1062 -0.5649
40803SOL    HW224417   3.749   7.877   4.485  1.9917  2.4028  2.8259
40804SOL     OW24418   1.110  10.834  10.675 -0.4419 -0.5613  0.0541
40804SOL    HW124419   1.144  10.808  10.590  0.6152 -0.8546  0.5392
40804SOL    HW224420   1.045  10.767  10.696 -0.1716 -0.9088 -0.2023
40805SOL     OW24421  10.322   8.824   8.443  0.0526  0.1170 -0.5954
40805SOL    HW124422  10.325   8.756   8.375  1.0038  1.1659 -1.6478
40805SOL    HW224423  10.291   8.901   8.396 -1.5838  0.3000  0.7088
40806SOL     OW24424   8.284   1.611   6.927 -0.0557 -0.4284 -0.3920
40806SOL    HW124425   8.258   1.699   6.954  0.6815 -0.1875 -0.4356
40806SOL    HW224426   8.278   1.613   6.831  1.3870  0.0579 -0.4945
40807SOL     OW24427   9.808   0.092   1.172 -0.0458 -0.4179  0.3141
40807SOL    HW124428   9.714   0.107   1.188 -0.0645 -2.1230  2.2782
40807SOL    HW224429   9.821  -0.001   1.194  2.3698  0.1240  1.4712
40808SOL     OW24430   6.477   0.072   1.723  0.1590  0.4935  0.4540
40808SOL    HW124431   6.392   0.094   1.762  0.8289 -0.0821  2.4010
40808SOL    HW224432   6.471  -0.021   1.703 -0.6268  1.0419 -2.1785
40809SOL     OW24433   9.345   0.598  10.842  0.5576  0.1678  0.1216
40809SOL    HW124434   9.361   0.690  10.820  0.4574  0.3739  0.9038
40809SOL    HW224435   9.272   0.572  10.786  0.1870  0.7419  0.3368
40810SOL     OW24436   9.410   0.431   6.811  0.5448  0.1258  0.5715
40810SOL    HW124437   9.500   0.452   6.837  1.1405 -0.9591 -0.5454
40810SOL    HW224438   9.410   0.437   6.716  0.2172 -2.6632  0.3100
40811SOL     OW24439   9.996   1.714   5.753 -0.2365  0.1672  0.1216
40811SOL    HW124440   9.964   1.637   5.706  1.8308 -0.9107  0.3595
40811SOL    HW224441   9.943   1.786   5.720 -0.7530 -1.0068 -1.7531
40812SOL     OW24442   7.355   9.365   0.341  0.2101 -0.4727 -0.5850
40812SOL    HW124443   7.272   9.397   0.375 -0.2367 -1.2081 -0.9380
40812SOL    HW224444   7.401   9.330   0.417  0.0728 -0.3113 -0.4289
40813SOL     OW24445   2.867   8.998   7.684 -0.9418 -0.3460 -0.1746
40813SOL    HW124446   2.935   8.947   7.639 -0.7406  0.7577 -1.1987
40813SOL    HW224447   2.903   9.087   7.688 -0.5559 -0.5509  3.0772
40814SOL     OW24448  10.930   3.205   0.469 -0.3260 -0.0917  0.2510
40814SOL    HW124449  11.012   3.244   0.440 -0.5170 -0.0828 -0.2838
40814SOL    HW224450  10.907   3.142   0.401 -1.2040  0.5263 -0.0447
40815SOL     OW24451   5.154   6.095   2.662 -0.0643 -0.0047 -0.4062
40815SOL    HW124452   5.226   6.044   2.697 -1.6071 -3.3348 -1.5875
40815SOL    HW224453   5.187   6.184   2.656  3.3270 -1.0693  0.6042
40816SOL     OW24454   0.358   5.050   9.761 -0.2462 -0.4053  0.1710
40816SOL    HW124455   0.423   5.118   9.740  0.1515 -0.5199  0.9967
40816SOL    HW224456   0.375   4.980   9.697  1.3108 -0.9842  1.1500
40817SOL     OW24457   5.502   3.125   0.658 -0.4607  0.2495 -0.5791
40817SOL    HW124458   5.447   3.180   0.713 -1.4536  0.7058 -1.9433
40817SOL    HW224459   5.514   3.176   0.577  2.0202  0.1655 -0.3420
40818SOL     OW24460   5.667   0.468   3.988  0.1467 -0.5655  0.2974
40818SOL    HW124461   5.748   0.477   3.938 -0.3602 -0.2288 -0.4732
40818SOL    HW224462   5.676   0.531   4.060 -0.0571  0.5570 -0.6364
40819SOL     OW24463  10.919   6.961   2.679  0.0332 -0.0421  0.3271
40819SOL    HW124464  10.825   6.941   2.686  0.0506 -0.4737 -0.5835
40819SOL    HW224465  10.934   7.025   2.748 -1.4653  1.9422 -1.0473
40820SOL     OW24466   8.863   0.966   9.259 -0.4977 -0.1704  0.2152
40820SOL    HW124467   8.790   0.905   9.270 -0.4699 -0.0966  0.8430
40820SOL    HW224468   8.939   0.910   9.244 -0.6840 -0.2479 -0.4482
40821SOL     OW24469   6.219   2.254   7.719  0.2259  0.0205 -0.5918
40821SOL    HW124470   6.182   2.240   7.806  0.7996  0.1568 -0.3215
40821SOL    HW224471   6.312   2.270   7.735  0.5957 -1.2582 -1.3290
40822SOL     OW24472   4.508   1.592   8.365  0.3848  0.8977 -0.2355
40822SOL    HW124473   4.448   1.665   8.382  0.2374  0.6639  0.2597
40822SOL    HW224474   4.541   1.609   8.277 -0.0514  1.2827 -0.3317
40823SOL     OW24475   4.875   7.828   2.107 -0.0423  0.2827  0.3211
40823SOL    HW124476   4.837   7.758   2.160 -2.5123  1.9834  0.9623
40823SOL    HW224477   4.956   7.851   2.151  0.7313 -1.9826  0.1989
40824SOL     OW24478   1.262   0.447   7.443  0.3302 -0.1230 -0.4645
40824SOL    HW124479   1.185   0.397   7.417  0.5229 -1.6796  1.6407
40824SOL    HW224480   1.334   0.383   7.439  0.8044  0.2549  1.1635
40825SOL     OW24481   5.472   7.670   4.593 -0.0553 -0.1798  0.3267
40825SOL    HW124482   5.512   7.583   4.588  0.5441  0.0978  0.2238
40825SOL    HW224483   5.389   7.655   4.637 -1.7425 -1.4055 -2.9745
40826SOL     OW24484   6.549   0.611   6.535 -0.2362 -0.1153  0.2529
40826SOL    HW124485   6.622   0.673   6.525  0.9185 -0.7990  3.2963
40826SOL    HW224486   6.510   0.633   6.620 -1.9982 -1.3792 -0.1757
40827SOL     OW24487   9.791  10.494   6.477 -0.3745 -0.2829  0.6802
40827SOL    HW124488   9.739  10.510   6.398 -1.1884 -1.7572  0.8817
40827SOL    HW224489   9.727  10.462   6.541  0.6331 -1.2418  1.2309
40828SOL     OW24490   6.160  10.572   5.816  0.7819 -0.3374 -0.6650
40828SOL    HW124491   6.089  10.634   5.801  0.5196  0.2605  2.3642
40828SOL    HW224492   6.240  10.624   5.809  0.7956 -0.4690 -1.6150
40829SOL     OW24493   2.913   5.769   5.182 -0.4055 -0.0831 -0.2017
40829SOL    HW124494   2.832   5.812   5.208 -0.0636  0.2875  0.2754
40829SOL    HW224495   2.981   5.816   5.230 -0.0353 -1.3313  0.5288
40830SOL     OW24496   6.097   1.635   3.007 -0.1068  0.9185  0.5525
40830SOL    HW124497   6.154   1.649   3.083 -0.3928  1.9629  0.5933
40830SOL    HW224498   6.154   1.645   2.931  0.0619  0.4713  0.6215
40831SOL     OW24499   7.670   3.733   6.827  0.1156  0.0240  0.1625
40831SOL    HW124500   7.720   3.795   6.881 -0.5319 -1.6182  2.8108
40831SOL    HW224501   7.735   3.669   6.798  0.0795 -0.4623  1.1192
40832SOL     OW24502   1.482   1.687   9.330 -0.0155 -0.1117 -0.6214
40832SOL    HW124503   1.523   1.655   9.411  0.0855 -1.2574 -1.1051
40832SOL    HW224504   1.530   1.766   9.309  1.2933 -0.8749 -0.6245
40833SOL     OW24505   2.229   9.895   2.814  0.8038  0.1503  0.4485
40833SOL    HW124506   2.215   9.972   2.759  1.8044 -0.1120 -0.1990
40833SOL    HW224507   2.266   9.829   2.755  0.8563 -0.5115  1.1977
40834SOL     OW24508   7.192   9.391   0.570 -0.4423 -0.1453 -0.0096
40834SOL    HW124509   7.143   9.311   0.588  0.2118 -0.2427  1.4657
40834SOL    HW224510   7.199   9.435   0.655  1.0828  0.4010 -0.3747
40835SOL     OW24511   4.727   4.608   6.595  0.0950  0.1797  0.1354
40835SOL    HW124512   4.799   4.671   6.593  0.5943 -0.3314  1.0994
40835SOL    HW224513   4.658   4.652   6.644 -0.0620  0.4705 -0.3396
40836SOL     OW24514   3.931   1.024   7.823  0.5541  0.1028 -0.5191
40836SOL    HW124515   3.915   1.104   7.773 -2.6303  0.7716  1.3084
40836SOL    HW224516   3.969   1.054   7.905 -0.3503 -0.2771  0.0501
40837SOL     OW24517  10.254  10.257   0.182 -0.0314 -0.1054  0.2303
40837SOL    HW124518  10.339  10.215   0.188  1.3525  1.9298 -2.6710
40837SOL    HW224519  10.271  10.350   0.198 -1.0097  0.8372 -3.1804
40838SOL     OW24520   9.765   1.105   1.439  0.2665 -0.0298 -0.6455
40838SOL    HW124521   9.677   1.086   1.406 -0.7023  3.2118 -0.3238
40838SOL    HW224522   9.803   1.163   1.373  1.3330  0.2748  0.2108
40839SOL     OW24523   8.702   0.396   7.800 -0.2597 -0.2263  0.0547
40839SOL    HW124524   8.623   0.440   7.769  1.0851  0.6833 -2.3125
40839SOL    HW224525   8.722   0.438   7.884 -0.2860  2.1827 -1.0557
40840SOL     OW24526   9.023   5.215   7.909 -0.3466 -0.6070  0.1200
40840SOL    HW124527   8.939   5.174   7.930  0.5922 -1.8528  1.6884
40840SOL    HW224528   9.079   5.142   7.881  0.5798  0.0136  0.3070
40841SOL     OW24529   8.640   7.597   8.565 -0.8761 -0.4333 -0.0864
40841SOL    HW124530   8.619   7.684   8.533  0.0207 -1.0044 -2.4770
40841SOL    HW224531   8.728   7.605   8.603 -0.2723 -0.4843 -1.4096
40842SOL     OW24532   5.084   8.636   4.434 -0.3241  0.2093  0.1055
40842SOL    HW124533   5.077   8.725   4.399 -0.2455 -0.7622 -2.6296
40842SOL    HW224534   5.159   8.598   4.388 -0.1668 -1.2000  1.4393
40843SOL     OW24535   2.029   3.826   7.873  0.5155 -0.1856 -0.2640
40843SOL    HW124536   1.943   3.790   7.895 -0.0387  1.7725  1.0581
40843SOL    HW224537   2.092   3.770   7.918 -0.0852 -1.3653 -0.8695
40844SOL     OW24538  10.242   2.007   4.270 -0.6036 -0.2130 -0.0349
40844SOL    HW124539  10.224   1.916   4.296 -1.0152  0.0899  0.7661
40844SOL    HW224540  10.337   2.016   4.280 -0.7319 -0.1240  1.3576
40845SOL     OW24541   6.869   7.385   3.109 -0.4137  0.1063 -0.6564
40845SOL    HW124542   6.957   7.381   3.146  0.0416  0.7224 -1.6223
40845SOL    HW224543   6.817   7.325   3.163  0.5220 -0.0328  0.1142
40846SOL     OW24544   7.061  10.057   9.863  0.3576 -0.4435 -0.3961
40846SOL    HW124545   7.058  10.102   9.947 -0.0711 -3.2378  1.2369
40846SOL    HW224546   6.969  10.052   9.836  0.1970 -1.6681  0.2813
40847SOL     OW24547   6.693   6.833   6.678 -0.2521 -0.0568 -0.3718
40847SOL    HW124548   6.671   6.744   6.705 -0.1286 -0.3174 -1.1071
40847SOL    HW224549   6.744   6.822   6.598  2.2956  0.5304  1.0653
40848SOL     OW24550   5.887   4.429   1.743 -0.2481  0.2647 -0.4394
40848SOL    HW124551   5.848   4.417   1.657  0.1062  1.5821 -0.8052
40848SOL    HW224552   5.975   4.462   1.725 -0.2812  0.8626  0.4242
40849SOL     OW24553   9.004   0.385   6.622 -0.1563 -0.1490 -0.9044
40849SOL    HW124554   8.926   0.342   6.659 -0.5541 -0.3561 -1.9524
40849SOL    HW224555   9.002   0.361   6.529  1.3570 -0.4429 -0.8799
40850SOL     OW24556   1.399   0.357   4.063  0.1275 -0.5791 -0.1366
40850SOL    HW124557   1.365   0.294   4.127 -0.2801  0.2450  0.4733
40850SOL    HW224558   1.342   0.433   4.072  0.6315 -0.1073 -0.8470
40851SOL     OW24559   4.187   5.768   0.690 -0.2836  0.0875  0.7551
40851SOL    HW124560   4.282   5.783   0.697  0.0390 -1.1238 -0.7103
40851SOL    HW224561   4.149   5.833   0.750  1.4415  0.8480  1.1014
40852SOL     OW24562  10.584   7.145   3.359  0.2683 -0.1165  0.2739
40852SOL    HW124563  10.580   7.101   3.444  0.6692 -1.4954 -0.3955
40852SOL    HW224564  10.592   7.238   3.381 -0.6104 -0.3493  1.7344
40853SOL     OW24565   7.580   7.232   4.070  0.1205  0.1558  0.3288
40853SOL    HW124566   7.548   7.276   4.150 -1.2348  0.5765 -0.4073
40853SOL    HW224567   7.627   7.301   4.023  0.3408  0.0892  0.4519
40854SOL     OW24568   9.584   5.151   1.022  0.4028  0.0986 -0.3131
40854SOL    HW124569   9.536   5.069   1.015 -1.9755  1.3366  0.5175
40854SOL    HW224570   9.517   5.219   1.023  2.1713  1.9667  0.7986
40855SOL     OW24571   1.786   9.113   2.683  0.6183  1.0825  0.3688
40855SOL    HW124572   1.881   9.103   2.671  0.5159 -0.1426  0.4219
40855SOL    HW224573   1.749   9.036   2.640 -0.4862  2.3680 -1.0933
40856SOL     OW24574   0.402   3.451   3.744 -0.1548 -0.2847 -0.6851
40856SOL    HW124575   0.407   3.384   3.675 -0.6907  1.3899 -2.4573
40856SOL    HW224576   0.310   3.451   3.771  0.0062 -0.7762 -0.1182
40857SOL     OW24577   8.955   4.108   9.221  0.2761 -0.0546  0.6761
40857SOL    HW124578   8.972   4.048   9.148  0.2756  0.5799  0.1548
40857SOL    HW224579   8.866   4.086   9.248  0.5767 -0.8779  1.0556
40858SOL     OW24580   1.042  10.294   3.902  0.6998 -0.3886 -0.1778
40858SOL    HW124581   1.085  10.240   3.967 -1.4050  1.0776  2.6354
40858SOL    HW224582   0.949  10.270   3.906 -0.1426  2.5435  0.4225
40859SOL     OW24583   5.204   6.813   1.944  0.1284  0.0632  0.5416
40859SOL    HW124584   5.236   6.727   1.917  0.1952  0.2526  0.0055
40859SOL    HW224585   5.268   6.875   1.908 -2.1468  0.6688 -2.9516
40860SOL     OW24586   5.876   0.277   2.368 -0.5183  0.0666  0.0287
40860SOL    HW124587   5.888   0.187   2.400  0.0759 -0.4183 -1.4567
40860SOL    HW224588   5.858   0.328   2.446  0.3784 -1.1353  1.0582
40861SOL     OW24589   8.308   9.663   0.253  0.6136  0.1951 -0.2268
40861SOL    HW124590   8.253   9.651   0.330  0.2693 -1.7622 -0.7273
40861SOL    HW224591   8.343   9.575   0.234  3.7024  1.2724 -0.0928
40862SOL     OW24592   1.787   9.494   8.267 -0.3206  0.2367 -0.0814
40862SOL    HW124593   1.803   9.587   8.285 -0.6254  0.3123 -0.1972
40862SOL    HW224594   1.692   9.486   8.267 -0.2922 -0.1070  0.0840
40863SOL     OW24595  10.640   5.689   4.695  0.5113  0.3155 -0.1669
40863SOL    HW124596  10.659   5.607   4.741  0.5338  0.3693 -0.0804
40863SOL    HW224597  10.725   5.720   4.665  0.3077 -0.7633 -2.0253
40864SOL     OW24598   1.507  10.982   1.220 -0.1028 -0.0094  0.2719
40864SOL    HW124599   1.536  10.921   1.152  0.5783  1.6172 -0.9627
40864SOL    HW224600   1.412  10.969   1.224 -0.2421  0.2088 -1.3989
40865SOL     OW24601   7.922   8.706   4.478 -0.4548 -0.6989 -0.3850
40865SOL    HW124602   8.018   8.714   4.478 -0.5312  0.3771 -1.1738
40865SOL    HW224603   7.891   8.793   4.503 -1.2361 -0.7084 -1.2733
40866SOL     OW24604  10.450  10.930   5.771 -0.3627  0.5861  0.3146
40866SOL    HW124605  10.463  10.907   5.679  1.2491  1.8281  0.1839
40866SOL    HW224606  10.382  10.997   5.770 -2.0798 -1.0719  0.3083
40867SOL     OW24607   1.683   4.262   9.797  0.3100  0.2469 -0.1808
40867SOL    HW124608   1.706   4.175   9.831  0.0974  0.2847  0.0658
40867SOL    HW224609   1.615   4.245   9.733 -1.3243  0.3945  1.4279
40868SOL     OW24610   6.881   7.005   8.332  0.1669  0.3935 -0.2869
40868SOL    HW124611   6.976   7.007   8.329  0.3066 -0.1334  1.9758
40868SOL    HW224612   6.860   7.008   8.426 -2.1046  2.4071 -0.7592
40869SOL     OW24613   8.532   8.055   2.234 -0.0012 -0.2565  0.2804
40869SOL    HW124614   8.585   8.132   2.213  1.1072 -1.0869 -0.0704
40869SOL    HW224615   8.443   8.080   2.210  0.3986  0.7725 -0.2035
40870SOL     OW24616   6.383   4.843   3.196 -0.1437  0.2921 -0.6296
40870SOL    HW124617   6.355   4.875   3.283  0.5385 -1.8824  0.4573
40870SOL    HW224618   6.309   4.790   3.166  0.7007 -1.3050 -0.0296
40871SOL     OW24619   4.807   6.995   4.435 -0.0976 -0.0707  0.3125
40871SOL    HW124620   4.882   7.046   4.466 -0.6099  0.4386  0.7405
40871SOL    HW224621   4.846   6.918   4.394  0.7298  0.8977 -0.8096
40872SOL     OW24622   6.939   8.070   0.472 -0.3152  0.3243  0.7412
40872SOL    HW124623   7.008   8.113   0.422 -0.9639  1.2415  0.6120
40872SOL    HW224624   6.936   7.981   0.438  0.6518  0.3316  0.6038
40873SOL     OW24625   0.932   0.398   1.915 -0.0793 -0.1907  0.3985
40873SOL    HW124626   0.912   0.452   1.992 -0.6965 -0.2933  0.3191
40873SOL    HW224627   0.848   0.356   1.894  0.0402 -0.0151 -0.4436
40874SOL     OW24628   3.338   3.389   8.956  0.1272  0.0326 -0.2053
40874SOL    HW124629   3.350   3.403   8.862  3.0942 -1.3412 -0.1516
40874SOL    HW224630   3.355   3.295   8.968  1.4549  0.4843  1.8746
40875SOL     OW24631   7.190  10.760   8.568  0.2271 -0.3942  0.4381
40875SOL    HW124632   7.257  10.737   8.504  0.9285  0.3319  0.9028
40875SOL    HW224633   7.230  10.828   8.622 -0.8514 -0.0136  0.7805
40876SOL     OW24634   2.776   4.108   4.410 -0.6052  0.0225  0.1402
40876SOL    HW124635   2.701   4.067   4.367  0.1858 -3.5791  1.7885
40876SOL    HW224636   2.740   4.147   4.490 -0.9553 -0.3082  0.1445
40877SOL     OW24637   9.975  10.032   6.303  0.1209 -0.0562  0.0275
40877SOL    HW124638  10.068  10.009   6.303  0.5637  1.4533 -1.6767
40877SOL    HW224639   9.970  10.113   6.353 -0.1474  0.2612 -0.5052
40878SOL     OW24640   3.437   0.584   1.835  0.9670  0.5918  0.4692
40878SOL    HW124641   3.381   0.529   1.891 -1.6353  1.5456 -1.0260
40878SOL    HW224642   3.482   0.521   1.778 -0.1148 -0.1466  0.3900
40879SOL     OW24643  10.876   0.553   4.276  0.0994  0.2779  0.0031
40879SOL    HW124644  10.895   0.593   4.361 -0.8034  2.8186 -0.9146
40879SOL    HW224645  10.787   0.520   4.284 -1.4126  3.6832 -0.9013
40880SOL     OW24646   5.680   1.271  10.874  0.8605  0.5410  0.2790
40880SOL    HW124647   5.667   1.353  10.922 -2.3883  1.0132 -1.1809
40880SOL    HW224648   5.676   1.297  10.782 -0.7758 -1.2980 -0.2156
40881SOL     OW24649   6.212   9.178   6.826 -0.3656  0.0633 -0.2531
40881SOL    HW124650   6.197   9.124   6.903 -1.9510  0.6208 -0.1446
40881SOL    HW224651   6.143   9.153   6.764  0.1352  0.5041 -1.0177
40882SOL     OW24652   5.631   3.547   9.404  0.2157 -0.2172  0.0158
40882SOL    HW124653   5.628   3.474   9.343 -0.6325  1.5949 -2.2909
40882SOL    HW224654   5.539   3.572   9.416  0.4391  0.0514  1.3353
40883SOL     OW24655   3.296   1.838   3.387  0.7499 -0.8372 -0.3332
40883SOL    HW124656   3.201   1.832   3.375  0.6886 -0.3978 -0.1154
40883SOL    HW224657   3.333   1.793   3.311  0.3780  1.4406 -1.9958
40884SOL     OW24658   7.354   1.126   5.422  0.3695  0.4682 -0.5984
40884SOL    HW124659   7.385   1.211   5.391 -1.5030  0.7722 -1.7995
40884SOL    HW224660   7.312   1.144   5.505  2.2134  0.2512  0.4282
40885SOL     OW24661   1.621   0.902   7.725 -0.4130  0.2521 -0.1621
40885SOL    HW124662   1.602   0.987   7.764 -0.8386 -0.0821  0.3837
40885SOL    HW224663   1.622   0.917   7.631 -0.8228  0.7901 -0.0786
40886SOL     OW24664   1.598   1.763   6.227  0.3796 -0.1546 -0.6415
40886SOL    HW124665   1.637   1.773   6.314  0.4339  1.9130 -0.8559
40886SOL    HW224666   1.562   1.674   6.227  1.2357 -0.5429  1.1284
40887SOL     OW24667   1.059  10.922   2.233  0.4923 -0.9561 -0.1178
40887SOL    HW124668   1.123  10.986   2.203 -0.2958  0.1716  0.5313
40887SOL    HW224669   1.061  10.930   2.329 -0.2252 -1.2868 -0.0682
40888SOL     OW24670   1.223   6.899   5.480  0.5666 -0.1431 -0.4078
40888SOL    HW124671   1.136   6.883   5.443  0.4679 -0.9036  0.1356
40888SOL    HW224672   1.282   6.891   5.405  0.3467 -1.5074 -0.4589
40889SOL     OW24673   7.386   3.501   1.189 -0.0627  0.1344  0.4523
40889SOL    HW124674   7.314   3.483   1.250 -1.8164 -0.1300 -1.6082
40889SOL    HW224675   7.410   3.415   1.155  0.4020  0.3684  0.1744
40890SOL     OW24676   7.015   2.382   6.804  0.3003  0.1734  0.0362
40890SOL    HW124677   7.028   2.470   6.769  0.2491  0.2131  0.1170
40890SOL    HW224678   7.095   2.363   6.852 -0.5731  1.0977  2.0046
40891SOL     OW24679   1.508   0.877  10.557 -0.1558 -0.0239 -0.2824
40891SOL    HW124680   1.428   0.929  10.556  0.4615  0.9418 -0.6042
40891SOL    HW224681   1.578   0.940  10.547  0.6423 -0.8880 -0.3205
40892SOL     OW24682   8.856   8.028   6.596  0.0686  0.2809 -0.1505
40892SOL    HW124683   8.856   7.937   6.567  1.2276  0.1430  0.2129
40892SOL    HW224684   8.765   8.056   6.591 -0.4026 -1.1062  0.3374
40893SOL     OW24685   3.274   5.321   1.466 -0.3635  0.1913 -0.0765
40893SOL    HW124686   3.348   5.326   1.405  0.3228 -0.4612  0.6754
40893SOL    HW224687   3.293   5.244   1.520 -0.6681  1.0502  1.3147
40894SOL     OW24688   7.914   3.702   1.764  0.3653 -0.2759 -0.0415
40894SOL    HW124689   7.913   3.777   1.823  2.5874 -0.5594  0.4322
40894SOL    HW224690   7.994   3.711   1.713  1.7021 -3.1911  1.2835
40895SOL     OW24691   2.850   3.473   1.691 -0.0417 -0.0472 -0.1047
40895SOL    HW124692   2.946   3.479   1.692  0.1230 -1.9722 -0.4925
40895SOL    HW224693   2.825   3.502   1.603  0.0172  1.9178  0.4786
40896SOL     OW24694   3.658   5.880   5.935 -0.1881 -1.0373  0.2602
40896SOL    HW124695   3.684   5.864   6.026  2.7323  0.1474 -0.2609
40896SOL    HW224696   3.616   5.799   5.907  1.9752 -2.7538  1.6476
40897SOL     OW24697   1.314   0.615   1.819 -0.0250  0.0863  0.2747
40897SOL    HW124698   1.357   0.546   1.769  0.9971  1.3247 -0.6089
40897SOL    HW224699   1.226   0.620   1.782 -0.0560 -0.6103  0.2355
40898SOL     OW24700   5.547  10.767   6.597  0.0149  1.1628  0.1783
40898SOL    HW124701   5.559  10.802   6.509  1.1793 -0.2635 -0.2643
40898SOL    HW224702   5.633  10.733   6.621 -0.9900 -1.1893  0.6481
40899SOL     OW24703   0.794   9.481   6.548  0.0818 -0.2727 -0.3078
40899SOL    HW124704   0.828   9.530   6.473 -0.4796  0.5219 -0.0584
40899SOL    HW224705   0.871   9.445   6.591  0.6167  1.2249  0.0647
40900SOL     OW24706   0.205   6.623  10.249  0.4932 -0.1650 -0.4572
40900SOL    HW124707   0.129   6.639  10.306 -0.1727 -0.0930 -1.3365
40900SOL    HW224708   0.277   6.608  10.310 -0.3792 -1.0182  0.4183
40901SOL     OW24709   0.379   7.191   9.991 -0.0100 -0.5446 -0.3433
40901SOL    HW124710   0.412   7.111   9.951  0.3691 -0.4999 -0.1190
40901SOL    HW224711   0.361   7.168  10.082 -3.6190 -1.4755 -1.1095
40902SOL     OW24712   9.767   3.334   5.118 -0.0640  0.5473 -0.4245
40902SOL    HW124713   9.744   3.422   5.089  0.7415  1.0580  0.4261
40902SOL    HW224714   9.711   3.319   5.195  1.3128  1.2179  0.7642
40903SOL     OW24715   7.338   6.560   0.237  0.1187 -0.3067 -0.2569
40903SOL    HW124716   7.357   6.574   0.144 -2.7905 -2.4571 -1.3002
40903SOL    HW224717   7.310   6.469   0.242 -2.5732  0.5228  2.2046
40904SOL     OW24718   8.901   7.928   3.894 -0.1779 -0.4966 -0.3746
40904SOL    HW124719   8.874   7.897   3.980 -0.2019 -0.4727 -0.3736
40904SOL    HW224720   8.901   7.850   3.839  1.4579 -0.8225  0.0395
40905SOL     OW24721   6.602   0.215   1.124 -0.1759 -0.4138  0.2089
40905SOL    HW124722   6.664   0.245   1.057  1.9771 -1.5080  1.5842
40905SOL    HW224723   6.601   0.120   1.113  0.4280 -0.6342  1.8503
40906SOL     OW24724   7.474   9.437   7.278 -0.4828  0.0436 -0.5942
40906SOL    HW124725   7.415   9.396   7.214 -0.5691 -1.5010  0.4039
40906SOL    HW224726   7.439   9.409   7.363  1.5040 -0.6943  0.0406
40907SOL     OW24727  10.215   9.820   4.268  0.0664  0.2034  0.1648
40907SOL    HW124728  10.269   9.895   4.245  1.5202 -1.1176 -0.9986
40907SOL    HW224729  10.260   9.779   4.342  0.9041 -1.0557 -0.9790
40908SOL     OW24730  10.059  10.074   2.586  0.0297  0.0995  0.1492
40908SOL    HW124731  10.122  10.002   2.590 -0.1786 -0.0500  0.9988
40908SOL    HW224732  10.095  10.141   2.643 -1.0319 -0.3754  1.4375
40909SOL     OW24733   2.671   3.822   3.635 -0.3877  0.0743 -0.4820
40909SOL    HW124734   2.738   3.835   3.702 -0.7028  0.4211 -0.2262
40909SOL    HW224735   2.719   3.798   3.556 -0.0277 -0.5785 -0.0709
40910SOL     OW24736   2.647   8.387   0.913 -0.1710  0.3348  0.0046
40910SOL    HW124737   2.700   8.422   0.842  2.9864 -1.6416  1.1812
40910SOL    HW224738   2.672   8.440   0.989  0.1237 -0.5617  0.5559
40911SOL     OW24739  10.745   4.639   9.678  0.0264  0.4330  0.0174
40911SOL    HW124740  10.689   4.572   9.716  0.1838 -0.8871 -1.9349
40911SOL    HW224741  10.762   4.608   9.589  1.2572  2.3856 -0.4815
40912SOL     OW24742   7.870   1.164   7.191 -0.1863  0.0576  0.2542
40912SOL    HW124743   7.864   1.147   7.285  0.5577 -0.8191  0.1623
40912SOL    HW224744   7.963   1.185   7.177  0.1126 -1.6325 -0.5366
40913SOL     OW24745   5.423   8.409   1.242 -0.1749  0.3380 -0.1628
40913SOL    HW124746   5.455   8.411   1.333  0.6890 -2.4004 -0.3221
40913SOL    HW224747   5.501   8.427   1.189  0.3877 -2.5026 -0.4307
40914SOL     OW24748   5.051   5.774   3.757 -0.0717  0.2176 -0.4469
40914SOL    HW124749   5.059   5.683   3.731 -0.4918  0.3041 -0.9009
40914SOL    HW224750   5.050   5.772   3.853 -1.0863 -0.3480 -0.4580
40915SOL     OW24751   5.299   7.831   7.963  0.2722  0.3353  0.0644
40915SOL    HW124752   5.274   7.740   7.944  1.5837 -0.8833  3.3904
40915SOL    HW224753   5.277   7.879   7.883 -4.4828 -2.0483 -0.4387
40916SOL     OW24754   8.337   8.569   7.567  0.4633  0.2636 -0.4261
40916SOL    HW124755   8.262   8.516   7.542 -0.3714 -0.2931  2.7812
40916SOL    HW224756   8.409   8.507   7.575 -0.0966 -0.2169  1.6109
40917SOL     OW24757   5.052  10.903   7.822 -0.2435 -0.1857  0.0056
40917SOL    HW124758   4.993  10.897   7.747 -1.4518  1.8735  0.6752
40917SOL    HW224759   5.116  10.834   7.809 -1.4291 -0.9890 -2.0094
40918SOL     OW24760   9.164   3.283  10.889  0.0638  0.3693 -0.6235
40918SOL    HW124761   9.089   3.323  10.932  0.5042  0.1560  0.3507
40918SOL    HW224762   9.233   3.281  10.955  0.6039 -0.4052 -1.1844
40919SOL     OW24763   3.384   5.840   0.941  0.1179 -0.5500  0.0067
40919SOL    HW124764   3.341   5.911   0.892  0.1118  0.6314  1.6390
40919SOL    HW224765   3.476   5.865   0.941  0.0599 -0.3253  0.9305
40920SOL     OW24766   6.045   9.526   8.069 -0.2806 -0.0566  0.4608
40920SOL    HW124767   6.083   9.543   7.983 -1.9739  0.8219 -0.1733
40920SOL    HW224768   5.974   9.464   8.052 -0.3906 -0.1775  1.2980
40921SOL     OW24769   0.982   9.197   1.752  0.0003  0.2254 -0.2655
40921SOL    HW124770   0.981   9.148   1.670  0.4446  0.4433 -0.4050
40921SOL    HW224771   1.074   9.200   1.778 -0.2249 -0.4945  0.6475
40922SOL     OW24772   9.185   6.764   3.477 -0.2106  0.4488  0.4749
40922SOL    HW124773   9.212   6.845   3.521 -0.0426  0.3274  0.5971
40922SOL    HW224774   9.158   6.706   3.549  0.1680  0.2109  0.4247
40923SOL     OW24775   6.131  10.614   4.432  0.5490  0.1611 -1.0683
40923SOL    HW124776   6.137  10.645   4.523 -1.5960 -2.4537  0.0784
40923SOL    HW224777   6.037  10.613   4.413  0.8629 -0.8750 -2.7373
40924SOL     OW24778   4.901   8.902   6.345  0.2854 -0.0083 -0.1530
40924SOL    HW124779   4.961   8.901   6.420  0.2092  1.2674 -0.0467
40924SOL    HW224780   4.895   8.811   6.317 -0.1362 -0.5921  1.7429
40925SOL     OW24781  10.995   6.470   8.504 -0.6229 -0.3786  1.1834
40925SOL    HW124782  10.954   6.481   8.419  1.7810 -1.8069 -0.2761
40925SOL    HW224783  11.042   6.552   8.519  2.3825 -1.5529 -0.9815
40926SOL     OW24784   0.731  10.802   2.707  0.1160  0.0180 -0.9153
40926SOL    HW124785   0.695  10.808   2.618  0.1927 -0.0443 -0.9511
40926SOL    HW224786   0.693  10.722   2.743 -1.5352  1.1052 -0.1526
40927SOL     OW24787   9.247   7.962   9.161  0.4290 -0.0128 -0.2884
40927SOL    HW124788   9.285   7.894   9.217 -0.6157 -0.1550  0.2726
40927SOL    HW224789   9.171   7.993   9.210 -0.4408 -0.0532 -1.5861
40928SOL     OW24790   4.366   0.126   1.719  0.4211 -1.0567  0.2509
40928SOL    HW124791   4.384   0.034   1.698  1.0333 -0.9312  0.2122
40928SOL    HW224792   4.450   0.170   1.708  0.5335 -0.7921  1.9063
40929SOL     OW24793   1.160   2.759   2.799 -0.2032  0.5428  0.1370
40929SOL    HW124794   1.175   2.837   2.851 -0.1991  0.3961  0.3581
40929SOL    HW224795   1.226   2.762   2.730 -0.8129  1.2293 -0.4313
40930SOL     OW24796  10.021   2.156   4.314  0.1621  0.5843 -0.0814
40930SOL    HW124797  10.054   2.185   4.399  1.2906  0.6187 -0.5151
40930SOL    HW224798  10.089   2.098   4.280 -0.8197 -0.3874 -0.4461
40931SOL     OW24799   8.345  10.884   9.813 -0.7651  0.1089 -0.2087
40931SOL    HW124800   8.423  10.841   9.849 -1.2656 -1.1818 -0.6095
40931SOL    HW224801   8.311  10.936   9.886  0.5536  0.8302 -0.0761
40932SOL     OW24802  10.819   4.672   2.239 -0.3068  0.3819 -0.0385
40932SOL    HW124803  10.772   4.754   2.255  0.0527  0.6609 -0.3917
40932SOL    HW224804  10.750   4.608   2.223 -0.5820  1.3937 -3.5477
40933SOL     OW24805   4.210   7.816   7.645 -0.2491 -0.0148  0.2024
40933SOL    HW124806   4.133   7.842   7.696  0.6262  1.3321  0.9058
40933SOL    HW224807   4.284   7.850   7.695  0.8366 -1.4243 -0.3661
40934SOL     OW24808   2.642   7.862   3.436 -0.3140  0.7324 -0.3730
40934SOL    HW124809   2.566   7.829   3.389 -0.0684  1.5135 -1.3724
40934SOL    HW224810   2.658   7.798   3.505  0.0423 -1.1659 -2.0944
40935SOL     OW24811   6.495   2.874   5.656  0.5259  0.3547  0.1033
40935SOL    HW124812   6.564   2.878   5.722  1.1414 -2.3437 -0.2481
40935SOL    HW224813   6.542   2.884   5.573  0.3085 -0.1255 -0.0800
40936SOL     OW24814   8.401   5.095   2.550 -0.4100  0.2080  0.1230
40936SOL    HW124815   8.417   5.037   2.624  1.8708  0.0446 -0.4284
40936SOL    HW224816   8.312   5.074   2.521 -0.8819 -0.5933  2.0168
40937SOL     OW24817   1.121   5.656   0.783  0.5308  0.4933  0.2437
40937SOL    HW124818   1.050   5.628   0.841 -0.5473  3.1549  0.3572
40937SOL    HW224819   1.089   5.640   0.695  1.2505 -1.4557  0.2872
40938SOL     OW24820   3.996   0.214   5.839 -0.0092  0.0460  0.0790
40938SOL    HW124821   3.975   0.247   5.752  0.2971 -2.2239 -0.9239
40938SOL    HW224822   3.944   0.134   5.848  1.3665 -0.7701  1.2115
40939SOL     OW24823   2.010   1.437   6.834 -0.3712  0.0036  0.2318
40939SOL    HW124824   2.040   1.352   6.865 -0.2261 -0.1251 -0.2438
40939SOL    HW224825   1.989   1.486   6.913  0.2364 -0.2210  0.5403
40940SOL     OW24826   5.461   4.240   8.488  0.1710  0.1981 -0.0249
40940SOL    HW124827   5.432   4.184   8.560  1.2666 -1.1967 -0.6255
40940SOL    HW224828   5.466   4.328   8.526  1.7797 -0.6670  1.9110
40941SOL     OW24829   7.986   4.810   6.454 -0.0463 -0.0381  0.2178
40941SOL    HW124830   7.942   4.895   6.446  0.3019  0.1921  0.7501
40941SOL    HW224831   8.059   4.826   6.513  1.5443 -0.1103 -1.6178
40942SOL     OW24832   8.274   4.110   3.243 -0.1176 -0.9746  0.4197
40942SOL    HW124833   8.365   4.127   3.220 -0.5978 -0.1776 -1.0406
40942SOL    HW224834   8.247   4.188   3.292  0.4460 -1.9710  2.4060
40943SOL     OW24835   4.578   1.409   6.678 -0.7572  0.3904 -0.3814
40943SOL    HW124836   4.666   1.409   6.716 -1.0713 -2.8971  0.7263
40943SOL    HW224837   4.582   1.343   6.609 -2.0916  1.0312 -1.1071
40944SOL     OW24838   1.786   9.144   4.415 -0.7376 -0.1440  0.0345
40944SOL    HW124839   1.818   9.055   4.431 -0.2876 -0.1395 -0.7957
40944SOL    HW224840   1.864   9.198   4.413 -0.7522 -0.1354 -2.0186
40945SOL     OW24841   1.204   9.011   6.743 -0.3663 -0.7153  0.4796
40945SOL    HW124842   1.259   9.011   6.664 -0.0934  0.0711  0.6646
40945SOL    HW224843   1.217   8.924   6.780  0.9499 -0.4787  0.6412
40946SOL     OW24844   5.980   5.076   9.842 -0.3242  0.4110  0.0036
40946SOL    HW124845   5.921   5.062   9.768 -0.6470  1.7230 -0.0072
40946SOL    HW224846   5.922   5.094   9.916 -0.0864 -2.4715  1.0078
40947SOL     OW24847   5.363   4.481  10.861 -0.1920  0.2624  0.3928
40947SOL    HW124848   5.369   4.521  10.774 -1.2101 -1.7974 -0.6913
40947SOL    HW224849   5.270   4.466  10.874 -0.0310  0.2969  1.7637
40948SOL     OW24850   5.494   7.910   3.151  0.3891  0.1359 -0.0919
40948SOL    HW124851   5.559   7.871   3.093  1.6712  1.1036  0.6244
40948SOL    HW224852   5.504   7.863   3.234  1.4150  1.4180  0.5437
40949SOL     OW24853   0.534   5.700   8.963  0.6240  0.2003 -0.0951
40949SOL    HW124854   0.543   5.795   8.960  0.1868  0.2958  1.0112
40949SOL    HW224855   0.489   5.683   9.046 -2.2761 -0.7333 -1.7199
40950SOL     OW24856   5.083   7.541   5.054 -0.3551  0.6750 -0.3781
40950SOL    HW124857   5.043   7.467   5.009  0.9397  0.5007 -1.3282
40950SOL    HW224858   5.011   7.586   5.097 -1.3888 -0.2262 -1.1224
40951SOL     OW24859  10.251   1.293   9.920  0.3582 -0.2086  0.0684
40951SOL    HW124860  10.221   1.368   9.868  1.6892  0.3761  0.0951
40951SOL    HW224861  10.344   1.284   9.896 -0.1123 -2.7561 -1.0255
40952SOL     OW24862   6.761   1.885   6.394 -0.0597 -0.4656  0.2352
40952SOL    HW124863   6.851   1.912   6.414  0.5306 -1.8050 -0.4432
40952SOL    HW224864   6.760   1.876   6.298 -1.4728  1.3199  0.0409
40953SOL     OW24865   5.311  10.699   0.642  0.6793  0.1849  0.4886
40953SOL    HW124866   5.317  10.702   0.737  0.0884  0.9652  0.5206
40953SOL    HW224867   5.321  10.607   0.619  0.1772 -0.0960  1.3571
40954SOL     OW24868   7.830   4.516   4.481 -0.1534 -0.2988  0.3483
40954SOL    HW124869   7.781   4.444   4.519 -1.3544  0.4874  0.3255
40954SOL    HW224870   7.768   4.589   4.477  0.7479  0.4602 -0.5191
40955SOL     OW24871  10.523   4.339   3.035  0.0304  0.0600  0.0150
40955SOL    HW124872  10.455   4.405   3.049 -0.3945 -0.7036  1.7865
40955SOL    HW224873  10.475   4.257   3.023  0.6180 -0.3472  0.4100
40956SOL     OW24874   6.840   3.052   6.653  0.4054  0.6740 -0.2869
40956SOL    HW124875   6.820   3.081   6.564 -0.1755  0.9929 -0.0590
40956SOL    HW224876   6.760   3.071   6.703  0.3775 -0.3931  0.0960
40957SOL     OW24877   8.497   4.120   7.833  0.0184  0.2616 -0.4880
40957SOL    HW124878   8.479   4.089   7.921 -1.4624  0.2082 -0.7877
40957SOL    HW224879   8.547   4.049   7.792 -0.1151 -0.1161  0.0027
40958SOL     OW24880   0.975   1.449   1.040  0.3175 -0.2253 -0.0908
40958SOL    HW124881   0.968   1.398   0.959  0.0723 -2.4627  1.2815
40958SOL    HW224882   1.068   1.470   1.046  0.5783 -1.2890 -0.2432
40959SOL     OW24883   6.654   5.372   1.287 -0.7233  0.4942 -0.4494
40959SOL    HW124884   6.665   5.279   1.304  0.8981  0.3324 -2.0011
40959SOL    HW224885   6.661   5.413   1.373 -1.6563 -0.8126  0.2809
40960SOL     OW24886   7.077   6.854   9.368 -0.8646 -0.2043  0.2745
40960SOL    HW124887   7.170   6.875   9.358 -0.8473 -0.9211 -1.2785
40960SOL    HW224888   7.067   6.837   9.462  0.2418  1.3337  0.7099
40961SOL     OW24889   6.740   1.481   0.578 -0.1751 -0.1133  0.1846
40961SOL    HW124890   6.787   1.398   0.578  1.0182  0.5307 -1.0622
40961SOL    HW224891   6.679   1.474   0.652 -1.5109 -2.8694 -1.0276
40962SOL     OW24892   9.812  10.699  10.412 -0.3923 -0.4231 -0.3620
40962SOL    HW124893   9.747  10.706  10.482 -0.5354  1.8026 -0.6227
40962SOL    HW224894   9.884  10.650  10.451 -0.2812  1.1250  1.5708
40963SOL     OW24895   2.744   4.555   4.766  0.0753 -0.1794 -0.5045
40963SOL    HW124896   2.674   4.602   4.721 -0.5039  0.0745  0.6306
40963SOL    HW224897   2.710   4.466   4.778  0.2926 -0.2908 -0.6969
40964SOL     OW24898   6.229   0.472   4.264 -0.0444  0.0933 -0.9618
40964SOL    HW124899   6.222   0.473   4.360 -2.6502  2.5681 -1.0313
40964SOL    HW224900   6.323   0.467   4.247  0.4410 -1.7103  1.6583
40965SOL     OW24901  10.459   9.037  10.588  0.3347 -0.1108  0.1007
40965SOL    HW124902  10.514   9.042  10.666  0.4838 -0.4925  0.0247
40965SOL    HW224903  10.400   8.964  10.605 -0.4779  0.5945  0.3837
40966SOL     OW24904   6.656   2.840   5.895  0.3296  0.4681 -0.1300
40966SOL    HW124905   6.668   2.745   5.885  1.4941  0.5393  0.3659
40966SOL    HW224906   6.563   2.851   5.916  0.2154 -0.5775 -0.0439
40967SOL     OW24907   2.473   5.974   0.112  0.0685  0.4602  0.4047
40967SOL    HW124908   2.481   5.945   0.203  1.8827  1.5152  0.6364
40967SOL    HW224909   2.529   5.914   0.063 -0.0735  0.5400  0.1445
40968SOL     OW24910   0.899   6.022  10.849 -0.3191 -0.1112 -0.0065
40968SOL    HW124911   0.859   5.945  10.890 -0.4948  0.0522  0.1275
40968SOL    HW224912   0.873   6.017  10.757  0.9439 -1.0599 -0.3472
40969SOL     OW24913   4.792   7.125   2.006 -0.2220 -0.3398  0.5477
40969SOL    HW124914   4.737   7.047   2.012 -0.1145 -0.5933 -1.3613
40969SOL    HW224915   4.762   7.169   1.927  1.3660  0.2649  0.2611
40970SOL     OW24916   0.169   1.699   4.437 -0.0636  0.7554 -0.4779
40970SOL    HW124917   0.219   1.729   4.361  0.9280 -0.9700 -0.5626
40970SOL    HW224918   0.135   1.779   4.476  1.1032  1.8427 -1.5713
40971SOL     OW24919   1.768  10.693   2.881 -0.2904 -0.3414 -0.0117
40971SOL    HW124920   1.830  10.683   2.808  0.2168 -0.7929  0.4698
40971SOL    HW224921   1.821  10.726   2.953 -0.1658 -2.5430  0.9828
40972SOL     OW24922   6.390   7.431   9.302  0.4897 -0.1508  0.1841
40972SOL    HW124923   6.386   7.510   9.357  1.8912  1.2702 -1.6087
40972SOL    HW224924   6.300   7.400   9.298  0.0725  0.7060  1.8188
40973SOL     OW24925  10.345   4.262   7.509 -0.1150  0.0517 -0.2459
40973SOL    HW124926  10.437   4.280   7.531 -0.7424  2.3210  0.8288
40973SOL    HW224927  10.316   4.340   7.462 -1.4281 -0.7901 -0.8903
40974SOL     OW24928   0.911   7.211   7.933  0.3974 -0.5623  0.3801
40974SOL    HW124929   0.969   7.280   7.903  0.2523 -0.3098  0.6751
40974SOL    HW224930   0.898   7.229   8.027 -0.7198 -0.1899  0.1726
40975SOL     OW24931   9.127   9.256   4.634  0.2324 -0.6560 -0.6397
40975SOL    HW124932   9.098   9.304   4.557 -3.3485 -0.9878  0.3602
40975SOL    HW224933   9.177   9.320   4.686 -1.4157  0.9748 -0.9890
40976SOL     OW24934   0.493   4.555   6.176  0.4405  0.0163  0.0452
40976SOL    HW124935   0.432   4.609   6.225  1.1922  0.0524  0.9617
40976SOL    HW224936   0.501   4.599   6.091  1.0682  1.4063  0.7772
40977SOL     OW24937   2.095   5.335   7.809  0.3518 -0.8065 -0.0859
40977SOL    HW124938   2.165   5.382   7.854 -0.0547  0.5923 -0.8722
40977SOL    HW224939   2.016   5.385   7.830 -0.0609 -1.0105 -1.1105
40978SOL     OW24940   7.292   1.489   8.848 -0.0533  0.5861 -0.9474
40978SOL    HW124941   7.351   1.564   8.856 -0.4557  1.0295 -1.9321
40978SOL    HW224942   7.351   1.414   8.839  0.3527  0.7436  0.2906
40979SOL     OW24943   9.478   6.794   8.392 -0.4260  0.1809 -0.8105
40979SOL    HW124944   9.383   6.806   8.396 -0.2517  1.8213 -0.7875
40979SOL    HW224945   9.506   6.791   8.484 -0.3912  0.3348 -0.8157
40980SOL     OW24946   8.842   3.062   5.178 -0.1446 -0.0227 -0.2172
40980SOL    HW124947   8.793   3.074   5.097 -0.2889 -0.0735 -0.1371
40980SOL    HW224948   8.928   3.098   5.159  0.5134 -1.9207 -1.0970
40981SOL     OW24949   4.004   1.280  10.804  0.3552  0.4361 -0.1086
40981SOL    HW124950   3.938   1.307  10.740 -0.0060 -1.1569 -0.4365
40981SOL    HW224951   4.061   1.220  10.757  0.8386  0.2179  0.7316
40982SOL     OW24952   8.630   7.406   3.202  0.6860 -0.1480  0.3846
40982SOL    HW124953   8.699   7.470   3.220  0.1522  0.3087  0.8326
40982SOL    HW224954   8.663   7.356   3.128  1.5903 -0.0714  0.7220
40983SOL     OW24955   7.781   1.160   9.305 -0.4464  0.0941  0.4553
40983SOL    HW124956   7.710   1.103   9.335 -0.8854  0.7617  0.6980
40983SOL    HW224957   7.818   1.113   9.230 -0.8230 -0.4955  0.6259
40984SOL     OW24958   8.639   4.217  10.226  0.2057 -0.0911 -0.0474
40984SOL    HW124959   8.544   4.229  10.228  0.4102  2.3009 -1.0198
40984SOL    HW224960   8.653   4.128  10.260 -2.2645 -0.0399  1.3528
40985SOL     OW24961  10.386  10.393   3.404 -0.2497  0.5510 -0.5357
40985SOL    HW124962  10.326  10.453   3.360  0.0826  0.0520 -1.6989
40985SOL    HW224963  10.444  10.361   3.335  0.9137  0.4819  0.4388
40986SOL     OW24964  10.639   0.324   5.221 -0.1613  0.3078 -0.3059
40986SOL    HW124965  10.559   0.346   5.173  0.9656 -0.1972 -2.5764
40986SOL    HW224966  10.621   0.237   5.258 -1.2549  0.9398  0.7270
40987SOL     OW24967   7.833   7.245   1.776  0.4717 -0.4776  0.2120
40987SOL    HW124968   7.857   7.332   1.806 -0.5774 -0.0347 -0.2024
40987SOL    HW224969   7.818   7.254   1.682 -1.4657 -0.6594  0.4544
40988SOL     OW24970   8.889   2.438   1.982 -0.2528  0.0762 -0.0866
40988SOL    HW124971   8.900   2.434   1.887  1.2304 -0.0460  0.0708
40988SOL    HW224972   8.911   2.350   2.013  0.4683  0.4490  0.4757
40989SOL     OW24973   1.042   8.698   8.826  0.3974 -0.5446  0.0771
40989SOL    HW124974   1.071   8.789   8.833 -1.4958  0.0059  1.9169
40989SOL    HW224975   1.112   8.646   8.865  2.2625 -0.1245 -2.4915
40990SOL     OW24976   8.875   2.595   6.269  0.0855 -0.0408 -0.0913
40990SOL    HW124977   8.890   2.525   6.205 -0.0746 -0.8975  0.7712
40990SOL    HW224978   8.879   2.676   6.218  0.9219 -0.6345 -1.0186
40991SOL     OW24979  10.365   9.917   4.519 -0.4003  0.3790 -0.5146
40991SOL    HW124980  10.305   9.898   4.591 -0.3106  0.1079 -0.5123
40991SOL    HW224981  10.318   9.981   4.465 -0.3310  0.8507 -0.0284
40992SOL     OW24982   0.089   4.153   5.527  0.6559  0.0863  0.2455
40992SOL    HW124983   0.018   4.217   5.539 -0.7673 -1.3537 -0.1121
40992SOL    HW224984   0.095   4.108   5.611 -1.6809 -2.4642 -0.7671
40993SOL     OW24985   9.586   5.528   7.002 -0.1168  0.6330 -0.6360
40993SOL    HW124986   9.544   5.556   6.922  1.0433  0.1072 -1.4588
40993SOL    HW224987   9.614   5.610   7.044  0.8542  0.8737 -1.6827
40994SOL     OW24988   7.118   6.892   6.011 -0.7026  0.6732  0.2274
40994SOL    HW124989   7.028   6.911   6.038 -1.3473 -0.1421 -1.1814
40994SOL    HW224990   7.110   6.872   5.917  0.8935  0.1977  0.1721
40995SOL     OW24991   3.955   9.463   0.133 -0.6798  0.4645 -0.3443
40995SOL    HW124992   3.922   9.458   0.223 -1.7915  1.7413 -0.6436
40995SOL    HW224993   4.021   9.532   0.136  1.6859 -1.6338  0.1058
40996SOL     OW24994   3.723  10.280  10.893 -0.0726  0.4303 -0.0476
40996SOL    HW124995   3.669  10.346  10.936 -0.4004  1.0864 -1.3948
40996SOL    HW224996   3.661  10.222  10.850  0.2329 -0.5340  0.7945
40997SOL     OW24997   2.851   0.168   0.355  0.1685 -0.2411  0.3037
40997SOL    HW124998   2.788   0.123   0.298  0.6949 -0.6356  0.0201
40997SOL    HW224999   2.848   0.119   0.437  0.0807 -0.2377  0.3026
40998SOL     OW25000   9.869   7.849   7.109 -0.6501 -0.1926 -0.4022
40998SOL    HW125001   9.958   7.869   7.139 -0.6574 -0.6941 -0.0207
40998SOL    HW225002   9.878   7.766   7.062 -0.5792  0.7732 -2.1406
40999SOL     OW25003   0.205   3.614   4.862 -0.6239  0.3688 -0.0922
40999SOL    HW125004   0.237   3.597   4.773  3.6435  0.2526  1.2726
40999SOL    HW225005   0.150   3.692   4.852  1.3721  1.6089 -2.5864
41000SOL     OW25006   1.438   7.613   3.387  0.0711  0.0241  0.0681
41000SOL    HW125007   1.477   7.569   3.463 -1.3080 -0.5343  0.4740
41000SOL    HW225008   1.467   7.704   3.394 -0.6039  0.1469  1.6708
41001SOL     OW25009   2.788   4.056   5.808  0.0190 -0.4820  0.3482
41001SOL    HW125010   2.716   4.119   5.797  0.1650 -0.6176 -1.9183
41001SOL    HW225011   2.752   3.989   5.866 -1.2660  0.0641  0.2249
41002SOL     OW25012   1.069  10.683   1.770  0.2354 -0.6360 -0.0813
41002SOL    HW125013   1.159  10.666   1.740 -0.0954  0.8116 -2.1314
41002SOL    HW225014   1.031  10.596   1.782  1.3945 -1.2899 -0.9181
41003SOL     OW25015  10.516   5.308   9.442  0.4949 -0.2645 -0.3167
41003SOL    HW125016  10.556   5.222   9.435 -0.4627 -0.6338 -1.6477
41003SOL    HW225017  10.488   5.315   9.533  1.2197 -1.0628 -0.0262
41004SOL     OW25018   3.519   2.121   1.199 -0.4656 -0.6065 -0.4190
41004SOL    HW125019   3.571   2.077   1.132  1.4445  0.7467  0.0866
41004SOL    HW225020   3.442   2.152   1.153 -0.1104 -1.3390 -1.5592
41005SOL     OW25021   3.674   7.155   8.016 -0.2536  0.1006 -0.3666
41005SOL    HW125022   3.714   7.204   8.088 -0.3564  0.6366 -0.6709
41005SOL    HW225023   3.675   7.215   7.942 -0.8028 -0.1967 -0.6245
41006SOL     OW25024   9.171   4.541   9.315  0.3969  0.2545  0.9862
41006SOL    HW125025   9.107   4.485   9.270  0.5500  0.7512  0.1267
41006SOL    HW225026   9.118   4.602   9.366  0.2297 -0.9300  2.2910
41007SOL     OW25027   8.202   2.895   7.232 -0.3927 -0.2549 -0.2290
41007SOL    HW125028   8.205   2.976   7.283 -1.3548  0.2007 -0.8703
41007SOL    HW225029   8.292   2.862   7.235  0.0727  0.9536 -0.1352
41008SOL     OW25030  10.934   1.133  10.525 -0.1075 -0.2720 -0.4474
41008SOL    HW125031  10.846   1.162  10.502 -0.6663  0.4124  2.1517
41008SOL    HW225032  10.990   1.167  10.455 -1.8587 -0.6775 -2.1348
41009SOL     OW25033   3.356   7.550   3.778 -0.1537 -0.1221 -0.6221
41009SOL    HW125034   3.324   7.517   3.694  0.7114 -1.9794 -0.2613
41009SOL    HW225035   3.335   7.481   3.841  1.0589  0.3173  0.3100
41010SOL     OW25036   9.777   0.578   1.852 -0.2000  0.5908 -0.2526
41010SOL    HW125037   9.804   0.549   1.765 -0.6360 -0.1225 -0.1597
41010SOL    HW225038   9.838   0.533   1.912  1.4640  2.6819 -0.2570
41011SOL     OW25039   6.400   1.692   7.810 -0.1623 -0.2405  0.6847
41011SOL    HW125040   6.480   1.729   7.773  0.4007  0.5284  2.5563
41011SOL    HW225041   6.364   1.761   7.865 -2.0546 -0.6384  0.0209
41012SOL     OW25042   8.243   2.210   7.503 -0.2116  0.4008  0.2879
41012SOL    HW125043   8.236   2.150   7.578 -1.4649 -2.7456 -2.1498
41012SOL    HW225044   8.197   2.289   7.532 -0.1833 -0.4440  2.9862
41013SOL     OW25045   8.579   6.975   5.210  0.2822 -0.5515  0.6984
41013SOL    HW125046   8.612   7.064   5.201  1.2679 -1.0250 -0.6216
41013SOL    HW225047   8.488   6.980   5.179  0.0561  0.1451  1.4396
41014SOL     OW25048   4.357   5.976   1.050  0.3859  0.1880 -0.0570
41014SOL    HW125049   4.336   6.017   1.133  0.3707  3.3170 -1.4557
41014SOL    HW225050   4.429   6.029   1.014  0.1052 -0.7601 -2.2128
41015SOL     OW25051   9.486   7.259   4.570 -0.1308  0.2222  0.2109
41015SOL    HW125052   9.541   7.326   4.531  0.4576  0.4509  1.3921
41015SOL    HW225053   9.544   7.210   4.628 -1.2355  0.8271  1.9213
41016SOL     OW25054   7.318   7.833   9.594 -0.0186 -0.2979 -0.2134
41016SOL    HW125055   7.392   7.839   9.654  0.4090 -3.5784 -0.2226
41016SOL    HW225056   7.354   7.793   9.515 -1.0161  1.9506 -1.9220
41017SOL     OW25057   7.944  10.003   4.216  0.1403 -0.7067  0.3499
41017SOL    HW125058   7.903   9.946   4.151  1.5482  0.4268 -1.6571
41017SOL    HW225059   7.903  10.088   4.202  1.1352 -0.2319  0.2938
41018SOL     OW25060   8.820   7.522   0.062 -0.3140 -0.1552 -0.0039
41018SOL    HW125061   8.881   7.571   0.117  0.5112  0.2306 -1.2186
41018SOL    HW225062   8.847   7.431   0.072 -0.0609 -0.0690  0.1014
41019SOL     OW25063   5.358   7.184   1.433  0.2827 -0.5171  0.2184
41019SOL    HW125064   5.293   7.226   1.489  1.5981  1.0060  0.6788
41019SOL    HW225065   5.436   7.174   1.488  1.1665 -0.2522 -0.9346
41020SOL     OW25066   2.811   0.863   7.432 -0.2452 -0.0786 -0.6670
41020SOL    HW125067   2.805   0.831   7.522 -0.9541 -2.0941 -1.3696
41020SOL    HW225068   2.884   0.924   7.432 -0.0911 -0.2212  1.2115
41021SOL     OW25069   7.260   3.570   7.267 -0.7778 -0.0144  0.1116
41021SOL    HW125070   7.219   3.558   7.181 -2.1726  0.6040  0.6581
41021SOL    HW225071   7.301   3.657   7.263 -0.8851  0.0349  0.0920
41022SOL     OW25072   7.865  10.812   0.928 -0.7699 -0.7860 -0.2378
41022SOL    HW125073   7.842  10.719   0.923 -0.9855 -0.7312 -0.2750
41022SOL    HW225074   7.801  10.855   0.871 -0.3875 -0.6655 -0.5734
41023SOL     OW25075   8.357   9.934   4.600  0.5208 -0.0829  0.4599
41023SOL    HW125076   8.351   9.912   4.507 -1.5372 -0.4272  0.6285
41023SOL    HW225077   8.400   9.858   4.639 -0.5082 -0.8936  0.0660
41024SOL     OW25078   5.701   1.890   6.475  0.6516 -0.0349 -0.0555
41024SOL    HW125079   5.747   1.973   6.489 -0.2063  0.6092 -0.8809
41024SOL    HW225080   5.765   1.835   6.429  0.4066  1.1284 -1.9252
41025SOL     OW25081   7.304   9.038   3.676 -0.1720  1.1162 -0.0842
41025SOL    HW125082   7.317   9.062   3.768 -1.0209  0.7376  0.1395
41025SOL    HW225083   7.220   9.077   3.652 -0.7137 -0.0842 -0.2304
41026SOL     OW25084   2.815   0.569   4.957  0.2419  0.4874 -0.0034
41026SOL    HW125085   2.739   0.568   4.898  0.2552  1.6890 -0.0611
41026SOL    HW225086   2.876   0.506   4.918  0.1087  0.9967 -1.0969
41027SOL     OW25087   6.934   0.024   8.949  0.3352  0.2222 -0.1095
41027SOL    HW125088   6.997  -0.047   8.953 -2.2568 -2.2479  0.2473
41027SOL    HW225089   6.925   0.043   8.855 -0.3473 -1.3818 -0.4064
41028SOL     OW25090   8.367   6.908   9.318 -0.2311  0.0134  0.2294
41028SOL    HW125091   8.396   6.871   9.234  1.0774  0.2813  0.5395
41028SOL    HW225092   8.331   6.833   9.365 -0.8691 -0.1641 -0.5112
41029SOL     OW25093   8.424   8.647   9.508 -0.0520  0.6107  0.1193
41029SOL    HW125094   8.401   8.663   9.599 -1.0870  1.7570 -0.3195
41029SOL    HW225095   8.347   8.674   9.458  0.8190  0.8386 -1.1581
41030SOL     OW25096   9.509   6.670   7.616 -0.0978  0.7590 -0.1043
41030SOL    HW125097   9.522   6.645   7.524  1.5747 -0.6793  0.4526
41030SOL    HW225098   9.597   6.692   7.647 -0.3538 -0.3498  1.5507
41031SOL     OW25099   1.639   4.466   0.741 -0.2295  0.6482 -0.1199
41031SOL    HW125100   1.648   4.371   0.748 -0.6060  0.6099 -0.1599
41031SOL    HW225101   1.708   4.492   0.680 -1.3173  0.1883 -1.5759
41032SOL     OW25102   6.077   1.925   5.729 -0.0047  0.4089 -0.1964
41032SOL    HW125103   6.124   1.863   5.785 -1.7126 -0.2891  0.5511
41032SOL    HW225104   5.990   1.885   5.717 -0.3661  1.5349 -1.6648
41033SOL     OW25105   1.383   0.106   6.032  0.6503  0.2224  0.4163
41033SOL    HW125106   1.334   0.032   6.068  0.4613  0.5668  0.8764
41033SOL    HW225107   1.405   0.079   5.943 -0.2238 -0.0140  0.2624
41034SOL     OW25108   1.217   5.276   9.965  0.4672  0.1158 -0.1034
41034SOL    HW125109   1.149   5.328   9.921  1.4644  1.5417 -0.0549
41034SOL    HW225110   1.246   5.213   9.898  1.0041  1.3510 -1.0910
41035SOL     OW25111   1.904   9.301   7.394  1.0293  0.1800  0.3735
41035SOL    HW125112   1.903   9.260   7.308  2.4336  0.7036  0.0808
41035SOL    HW225113   1.986   9.272   7.434 -0.0625 -0.8942  1.9835
41036SOL     OW25114   8.613   1.024   3.868 -0.9748 -0.3640  0.1200
41036SOL    HW125115   8.581   1.072   3.945  0.4203 -1.8979  1.7331
41036SOL    HW225116   8.598   0.932   3.889  0.6645 -0.8867 -0.8623
41037SOL     OW25117   0.111   9.442   0.174 -0.1969  0.1859  0.3338
41037SOL    HW125118   0.085   9.519   0.224  1.0302  0.0728  1.2045
41037SOL    HW225119   0.175   9.398   0.230  1.7699  0.4106 -1.5853
41038SOL     OW25120   7.790   6.362   9.778 -0.3933 -0.7429  0.2170
41038SOL    HW125121   7.707   6.315   9.775 -0.3162 -0.8322 -0.9490
41038SOL    HW225122   7.770   6.441   9.830 -0.7410 -1.5945  1.4214
41039SOL     OW25123   0.083   4.006   1.688 -0.4358  0.3171  1.0045
41039SOL    HW125124   0.043   3.969   1.609 -0.5541 -0.7812  1.5604
41039SOL    HW225125   0.043   4.092   1.697  0.1053  0.7529 -0.5271
41040SOL     OW25126   9.690   2.147   7.729  0.1748 -0.6399  0.2193
41040SOL    HW125127   9.718   2.096   7.653  0.4093 -0.2691  0.0482
41040SOL    HW225128   9.721   2.236   7.710 -1.8162 -0.0346 -0.3434
41041SOL     OW25129   7.746   1.317   7.009  0.3090  0.5661  0.1337
41041SOL    HW125130   7.764   1.260   7.085 -0.6577  1.3301  0.9665
41041SOL    HW225131   7.827   1.367   6.997  1.1958 -0.9850 -0.6442
41042SOL     OW25132   8.665   4.153   9.193  0.3304  0.0635 -0.0502
41042SOL    HW125133   8.688   4.225   9.251 -0.5189  0.3809 -0.0964
41042SOL    HW225134   8.572   4.136   9.210  0.1912 -0.1541 -0.9675
41043SOL     OW25135   3.186   6.605  10.664  0.4881  0.3429  0.5204
41043SOL    HW125136   3.168   6.613  10.757 -0.7209  2.8063  0.1693
41043SOL    HW225137   3.154   6.518  10.640  0.7695 -0.3046  2.3446
41044SOL     OW25138   1.112   3.825   2.434 -0.0306  0.7094 -0.2049
41044SOL    HW125139   1.171   3.802   2.506 -1.7294  0.4345  1.1864
41044SOL    HW225140   1.154   3.899   2.391  2.0184 -0.3899 -0.2122
41045SOL     OW25141  10.908   5.464   9.714  0.5133 -0.0602  0.9671
41045SOL    HW125142  10.985   5.468   9.657  1.2287  0.8057  1.9503
41045SOL    HW225143  10.846   5.526   9.675  0.9184  0.3740  1.0118
41046SOL     OW25144   7.395   7.068   3.466  0.1163  0.2027  0.7003
41046SOL    HW125145   7.420   7.041   3.378 -2.0166 -0.5333  0.2671
41046SOL    HW225146   7.458   7.024   3.523  0.0109 -1.3761 -0.3268
41047SOL     OW25147   6.072   4.285   3.878 -0.0627  0.1530  0.6078
41047SOL    HW125148   6.164   4.273   3.856  0.1108 -1.2688  1.8901
41047SOL    HW225149   6.072   4.357   3.941 -0.1170  1.5696 -0.9347
41048SOL     OW25150  10.807   8.589   3.328  0.0277  0.0365  0.4187
41048SOL    HW125151  10.742   8.571   3.260 -0.3608 -1.9341  1.2321
41048SOL    HW225152  10.878   8.635   3.282 -0.4123 -0.8465 -1.2373
41049SOL     OW25153   3.146   5.467   4.285 -0.1187  0.0577  0.0591
41049SOL    HW125154   3.080   5.536   4.280 -1.1509 -0.8222  1.0530
41049SOL    HW225155   3.108   5.401   4.344  1.6346 -0.4886  0.6401
41050SOL     OW25156   8.596   6.899  10.269 -0.1291  0.2038 -0.2443
41050SOL    HW125157   8.601   6.990  10.300 -1.9648  0.6890 -1.1926
41050SOL    HW225158   8.503   6.878  10.272  0.2828 -1.7659  0.1817
41051SOL     OW25159   6.492   1.195   8.095 -0.0173 -0.1095 -0.3380
41051SOL    HW125160   6.489   1.194   8.190  1.9573  1.7304 -0.1773
41051SOL    HW225161   6.573   1.150   8.072 -0.2085 -0.0789 -1.1237
41052SOL     OW25162   9.522   6.610   2.479  0.0334 -0.4657  0.5073
41052SOL    HW125163   9.519   6.650   2.392 -3.0582  0.7570  1.0165
41052SOL    HW225164   9.444   6.554   2.482 -0.8612  0.7680  2.9522
41053SOL     OW25165   4.582   7.665   3.817  0.2766 -0.3285  0.0429
41053SOL    HW125166   4.560   7.758   3.807  0.1393 -0.5175 -1.8448
41053SOL    HW225167   4.574   7.630   3.728 -0.4886 -2.3354  0.8583
41054SOL     OW25168   1.346   6.557   6.357 -1.0282  0.1710 -0.5672
41054SOL    HW125169   1.404   6.630   6.381  2.9675 -2.6987 -0.5207
41054SOL    HW225170   1.364   6.543   6.264 -2.1484 -0.4501 -0.7023
41055SOL     OW25171  10.592   8.764   9.619  0.5041  0.2770 -0.1422
41055SOL    HW125172  10.661   8.700   9.599  1.2053  1.0626 -0.2880
41055SOL    HW225173  10.599   8.829   9.550 -0.3718  0.3914 -0.1310
41056SOL     OW25174   7.944   5.918   3.719 -0.4639 -0.1839  0.3824
41056SOL    HW125175   8.035   5.893   3.699  0.7901  2.3213  2.3302
41056SOL    HW225176   7.910   5.954   3.638  0.2559 -1.2046 -0.4006
41057SOL     OW25177   0.102   6.946   2.283  0.5068 -0.1998  0.4514
41057SOL    HW125178   0.023   6.929   2.232 -0.7135 -0.5007  2.3551
41057SOL    HW225179   0.174   6.924   2.224 -0.8171  0.0451 -1.3173
41058SOL     OW25180   1.502   5.554   7.698 -0.6984  0.4735 -0.0280
41058SOL    HW125181   1.495   5.486   7.765  0.4609  0.2190 -0.1429
41058SOL    HW225182   1.433   5.616   7.720  0.3871  1.0100  2.1231
41059SOL     OW25183   9.769   8.015   7.502 -0.1594 -0.0875  0.3528
41059SOL    HW125184   9.723   8.079   7.556  0.3643 -0.0035  0.7105
41059SOL    HW225185   9.849   7.995   7.552  1.6176  1.8483 -1.5279
41060SOL     OW25186   0.510   0.009   2.578  0.2762 -0.0560 -0.0459
41060SOL    HW125187   0.424   0.044   2.602  0.0460 -0.1383 -0.7382
41060SOL    HW225188   0.517   0.023   2.484  0.2162 -1.8083 -0.3441
41061SOL     OW25189   0.244   6.514   3.007 -0.3063 -0.3118  0.3223
41061SOL    HW125190   0.185   6.455   3.055 -0.1223 -0.3789  0.4667
41061SOL    HW225191   0.248   6.476   2.919 -0.6067 -0.2153  0.2658
41062SOL     OW25192   5.677   8.081   9.126  0.1997  0.1747  0.1830
41062SOL    HW125193   5.698   8.093   9.218  2.0124  0.0709 -0.1870
41062SOL    HW225194   5.745   8.129   9.079  0.4911 -1.4435 -1.1304
41063SOL     OW25195   1.138   3.950   7.302 -0.1533  0.5652  0.2491
41063SOL    HW125196   1.222   3.989   7.281 -0.0334  0.2541  0.1413
41063SOL    HW225197   1.092   4.016   7.354  0.3045  0.5873  0.6258
41064SOL     OW25198   3.327   3.122   5.896  0.3545 -0.0631 -0.3463
41064SOL    HW125199   3.300   3.034   5.872 -0.2179 -0.7824  2.6245
41064SOL    HW225200   3.414   3.111   5.934  0.0261  0.5174  0.6208
41065SOL     OW25201   7.118   5.925   7.277 -0.4347 -0.2404  0.3672
41065SOL    HW125202   7.151   5.932   7.188 -0.8127  0.5989  0.2884
41065SOL    HW225203   7.038   5.873   7.269  0.5535 -1.8645  0.4962
41066SOL     OW25204   7.521   4.354   2.171  0.0281 -0.0217 -0.2500
41066SOL    HW125205   7.511   4.278   2.113 -0.1928  0.1664 -0.4600
41066SOL    HW225206   7.541   4.316   2.256 -2.3011 -0.4460  0.1862
41067SOL     OW25207   0.781   1.559   4.217  0.1304 -0.2723  0.6493
41067SOL    HW125208   0.707   1.505   4.244  0.9741 -2.1456 -0.5326
41067SOL    HW225209   0.779   1.557   4.121  0.0997  2.0164  0.5533
41068SOL     OW25210   1.263   4.567   8.144 -0.8484  0.3906  0.1677
41068SOL    HW125211   1.337   4.626   8.152  1.2741 -2.2226  1.1020
41068SOL    HW225212   1.244   4.565   8.050 -1.0744  2.5197  0.1133
41069SOL     OW25213   3.784   3.360   6.585 -0.4948  0.7604 -0.4677
41069SOL    HW125214   3.769   3.281   6.533  0.0011  0.8150 -0.6886
41069SOL    HW225215   3.817   3.424   6.523  1.3501  0.4359  0.1319
41070SOL     OW25216   5.984   6.424   2.015  0.0608  0.4321 -0.4064
41070SOL    HW125217   5.988   6.512   2.051 -0.9865  0.5636 -0.5884
41070SOL    HW225218   5.906   6.424   1.960  0.8662 -0.1691 -1.5911
41071SOL     OW25219   5.138   1.933   8.306  0.1207  0.0403  0.2911
41071SOL    HW125220   5.219   1.964   8.266  0.3015 -0.9474 -0.1446
41071SOL    HW225221   5.070   1.950   8.241 -0.1284  1.3882  0.8845
41072SOL     OW25222   4.121   5.928   6.893  0.0213  0.3976 -0.8279
41072SOL    HW125223   4.079   5.928   6.806  0.0080  0.1842 -0.8224
41072SOL    HW225224   4.202   5.879   6.880 -0.3608 -0.3126 -0.5389
41073SOL     OW25225   6.040   9.537   2.655  0.0809  0.2485 -0.1221
41073SOL    HW125226   6.043   9.462   2.596 -1.3661 -1.4507  1.8154
41073SOL    HW225227   5.950   9.569   2.650  0.0770  0.4150  0.7133
41074SOL     OW25228   6.836   4.987   4.589 -0.6754 -0.3141  0.4233
41074SOL    HW125229   6.865   5.051   4.524 -1.2722 -2.7392 -2.4377
41074SOL    HW225230   6.917   4.955   4.630 -0.1123 -0.1104 -0.5170
41075SOL     OW25231   6.119   5.755   5.929 -1.0347  0.0499  0.0971
41075SOL    HW125232   6.029   5.730   5.949 -0.6972 -1.2275  0.0744
41075SOL    HW225233   6.168   5.738   6.009 -0.7387  0.3739 -0.0090
41076SOL     OW25234   9.907   9.618   5.599  0.1009  0.5646  0.6269
41076SOL    HW125235   9.917   9.692   5.540 -3.0345  0.0536 -0.7169
41076SOL    HW225236   9.827   9.637   5.648 -1.4874 -2.3739 -0.5867
41077SOL     OW25237   1.171   7.309   9.092  0.2074  0.1268  0.5753
41077SOL    HW125238   1.192   7.395   9.056  0.6975  0.9509  2.7264
41077SOL    HW225239   1.110   7.271   9.028  0.6539  1.6875 -0.8488
41078SOL     OW25240   8.664   6.736   1.544 -0.3363  0.4648  0.1022
41078SOL    HW125241   8.707   6.753   1.628  1.1617  0.1098 -0.5570
41078SOL    HW225242   8.668   6.820   1.498 -0.8489  0.5709  0.2471
41079SOL     OW25243   7.259   1.445   1.755 -0.1249  0.0225  0.0695
41079SOL    HW125244   7.205   1.431   1.833 -0.7984  2.8624  0.2317
41079SOL    HW225245   7.345   1.470   1.788 -0.0005 -0.1550 -0.1159
41080SOL     OW25246   7.087   2.366   5.186 -0.0281 -0.0332  0.0680
41080SOL    HW125247   7.154   2.340   5.249 -0.9187  0.9173  1.4697
41080SOL    HW225248   7.136   2.400   5.112  1.0639  0.4858  0.9886
41081SOL     OW25249   2.997   0.973   7.892  0.0783 -0.5797  0.3678
41081SOL    HW125250   3.074   0.933   7.931 -0.7997 -0.0114  2.8444
41081SOL    HW225251   3.024   1.061   7.869  1.1211 -1.4638 -2.2015
41082SOL     OW25252  10.301   1.373   3.950  0.1441  0.0016 -0.2143
41082SOL    HW125253  10.346   1.359   3.867  1.2179 -1.0351  0.5234
41082SOL    HW225254  10.314   1.292   3.999 -2.0684 -0.1275  0.2576
41083SOL     OW25255   3.202   4.265  10.225 -0.5047  0.0169  0.6840
41083SOL    HW125256   3.291   4.231  10.214 -0.4192  0.5097 -0.1688
41083SOL    HW225257   3.205   4.311  10.309  1.4565  4.2661 -1.3926
41084SOL     OW25258   4.139   4.188  10.256  0.1695 -0.0119 -0.5981
41084SOL    HW125259   4.128   4.132  10.179  0.2856  0.4629 -0.9640
41084SOL    HW225260   4.181   4.267  10.222 -0.6563  0.6053 -0.2078
41085SOL     OW25261   2.640   0.264   9.551  0.2141  0.7611  0.3837
41085SOL    HW125262   2.718   0.218   9.519 -1.8242 -1.0823 -2.4812
41085SOL    HW225263   2.622   0.224   9.636  0.8857 -0.7589 -0.1344
41086SOL     OW25264   1.664   6.349   6.043 -0.1370  0.0063 -0.3172
41086SOL    HW125265   1.688   6.312   5.958  1.8386  0.2943  0.0709
41086SOL    HW225266   1.702   6.290   6.108  1.2874  1.5068  0.3169
41087SOL     OW25267   8.589   6.614  10.596  0.5341  0.3082  0.2405
41087SOL    HW125268   8.661   6.645  10.541  1.9166 -1.9153  0.6708
41087SOL    HW225269   8.521   6.587  10.533  1.2758 -0.3032 -0.3250
41088SOL     OW25270  10.600   5.964  10.123  0.6072 -0.0738 -0.1081
41088SOL    HW125271  10.546   5.959  10.045  0.6062  0.2929 -0.1295
41088SOL    HW225272  10.545   5.928  10.193 -0.6542  2.5895  0.3974
41089SOL     OW25273  10.189   7.531   2.802 -0.1059  0.4899  0.5186
41089SOL    HW125274  10.142   7.591   2.860 -1.5062  1.1129 -1.1743
41089SOL    HW225275  10.172   7.444   2.839 -2.3602  0.7301  0.1834
41090SOL     OW25276   6.471   5.281   1.637  0.6744  0.3607 -0.8210
41090SOL    HW125277   6.445   5.250   1.550  1.0623 -1.6241 -0.2760
41090SOL    HW225278   6.562   5.309   1.626  0.1691  1.8983 -1.4286
41091SOL     OW25279   6.712   2.109   4.645 -0.0231 -0.2370  0.2365
41091SOL    HW125280   6.688   2.049   4.574 -0.5294  0.8542 -0.5285
41091SOL    HW225281   6.728   2.051   4.720 -1.4160 -1.2739 -0.2257
41092SOL     OW25282   2.427   7.130   0.341 -0.0963  1.1923 -0.0963
41092SOL    HW125283   2.471   7.050   0.371  0.7416  1.2612 -1.0741
41092SOL    HW225284   2.432   7.126   0.246  0.5182  2.6938 -0.1592
41093SOL     OW25285   7.725   8.243   7.479  0.0449 -0.3279  0.3510
41093SOL    HW125286   7.797   8.304   7.466  0.0928 -0.5083 -0.2678
41093SOL    HW225287   7.650   8.286   7.438  0.1979 -0.9075 -0.5679
41094SOL     OW25288   6.485   3.294   2.980 -0.3081  0.0529  0.3758
41094SOL    HW125289   6.512   3.299   3.072 -1.0795 -0.6899  0.6623
41094SOL    HW225290   6.445   3.379   2.963 -0.8850 -0.0851  0.9808
41095SOL     OW25291   3.698   1.248   5.566  0.1208  0.1429  0.3781
41095SOL    HW125292   3.716   1.314   5.499 -0.4397 -0.7853 -0.7050
41095SOL    HW225293   3.741   1.169   5.534 -0.8690 -0.5368  0.6751
41096SOL     OW25294   6.366   6.791   6.988 -0.3367  0.1319 -0.1574
41096SOL    HW125295   6.381   6.698   6.970 -0.5986  0.1458 -0.4595
41096SOL    HW225296   6.289   6.793   7.045  0.4077  0.0963  0.8652
41097SOL     OW25297   4.036   6.049   3.879  0.0582  0.3835  0.0514
41097SOL    HW125298   4.057   6.127   3.828 -2.6980  1.0080 -0.3108
41097SOL    HW225299   4.093   5.981   3.844  1.7960  1.9497 -0.3460
41098SOL     OW25300   3.320   4.088   3.738  0.2531  0.3169  0.4119
41098SOL    HW125301   3.252   4.072   3.803 -0.5504 -0.5366 -0.6057
41098SOL    HW225302   3.305   4.179   3.710 -1.7848 -0.4355 -1.2160
41099SOL     OW25303   9.533   6.469   1.789  0.2203  0.3813  0.0344
41099SOL    HW125304   9.437   6.475   1.787  0.3101  3.0338 -1.0748
41099SOL    HW225305   9.552   6.379   1.762 -1.9534  0.1285 -0.8775
41100SOL     OW25306   7.042   5.193   9.370 -0.6381  0.5222 -0.1675
41100SOL    HW125307   7.049   5.098   9.361  1.8637  0.5110  1.0118
41100SOL    HW225308   7.019   5.207   9.461  1.0585  1.0387  0.2167
41101SOL     OW25309   0.420   1.261   9.899 -0.3343  0.2738 -0.1879
41101SOL    HW125310   0.401   1.249   9.806  2.1708 -0.5719 -0.6868
41101SOL    HW225311   0.460   1.348   9.904  2.2764 -0.7910 -0.5297
41102SOL     OW25312   6.238   7.017   3.755  0.4178 -0.3375  0.6848
41102SOL    HW125313   6.184   6.942   3.727  0.8148  0.1709 -1.6658
41102SOL    HW225314   6.320   7.006   3.707 -0.0440  2.3277 -0.8954
41103SOL     OW25315  10.275   7.066   8.552 -0.3500  0.0331 -0.1149
41103SOL    HW125316  10.327   7.022   8.485 -0.6703  1.4195 -1.3091
41103SOL    HW225317  10.314   7.036   8.635  2.0870  0.6411 -0.9365
41104SOL     OW25318  10.463   1.528   9.194 -0.3898 -0.1628  0.2988
41104SOL    HW125319  10.378   1.547   9.235  0.8817  1.3792  2.4008
41104SOL    HW225320  10.456   1.565   9.106 -0.9764  2.6176  1.4095
41105SOL     OW25321   6.044   6.480  10.988 -0.3689 -0.7938 -0.3099
41105SOL    HW125322   6.029   6.570  10.959 -0.7253 -1.2870 -1.7156
41105SOL    HW225323   6.038   6.427  10.909 -0.1663 -2.0723  0.4893
41106SOL     OW25324   6.755   9.001   3.549 -0.2062  0.0917 -0.4269
41106SOL    HW125325   6.771   9.065   3.480 -0.6590 -0.3355 -0.9382
41106SOL    HW225326   6.674   9.031   3.591  0.8442  1.1859  0.9164
41107SOL     OW25327   1.535   6.124   4.858 -0.2491  0.3218 -0.2715
41107SOL    HW125328   1.541   6.194   4.794 -1.3811  1.5951  0.9593
41107SOL    HW225329   1.463   6.069   4.828  0.1591  0.0788 -0.8351
41108SOL     OW25330   1.602   4.501   8.126  0.2218 -0.1034  0.1147
41108SOL    HW125331   1.551   4.582   8.125 -1.4317 -1.0898  0.5743
41108SOL    HW225332   1.686   4.526   8.164 -0.7932  1.1265  1.7013
41109SOL     OW25333   3.247   7.151   7.801  0.0871 -0.0990 -0.8340
41109SOL    HW125334   3.203   7.229   7.768  1.5987  1.1870  0.0940
41109SOL    HW225335   3.308   7.183   7.867 -2.2051 -2.4249  2.7897
41110SOL     OW25336   8.676   6.465   5.284 -0.3680 -0.0266 -0.4041
41110SOL    HW125337   8.758   6.471   5.333 -0.7709  2.7571  0.0732
41110SOL    HW225338   8.698   6.496   5.196 -1.2286  2.9638  0.3082
41111SOL     OW25339   2.534   5.207   6.264  0.5422  0.2274  0.5771
41111SOL    HW125340   2.595   5.262   6.313  0.7473  1.6684 -1.1843
41111SOL    HW225341   2.588   5.168   6.195 -0.3175  0.7094 -0.3862
41112SOL     OW25342   7.761   5.027   6.286  0.2783  0.5052  0.2125
41112SOL    HW125343   7.786   5.008   6.196  0.7862 -0.1205  0.4839
41112SOL    HW225344   7.666   5.041   6.282  0.6212  3.1104 -0.8654
41113SOL     OW25345   5.195   1.656   8.287 -0.1253  0.2553 -0.1524
41113SOL    HW125346   5.186   1.710   8.365 -1.4205 -0.3937  0.1665
41113SOL    HW225347   5.237   1.713   8.223  2.9668  0.1889  1.6158
41114SOL     OW25348   9.225   2.014   3.467 -0.0715 -0.4564  0.3715
41114SOL    HW125349   9.271   2.087   3.425 -0.1744  0.1692  1.3123
41114SOL    HW225350   9.157   1.990   3.405  1.7248 -1.6520 -1.2251
41115SOL     OW25351   1.944   9.688   1.413  0.2532 -0.6038  0.8301
41115SOL    HW125352   2.012   9.622   1.424 -1.3667 -2.1032  2.2387
41115SOL    HW225353   1.877   9.666   1.477 -0.6705  2.0361  0.9150
41116SOL     OW25354   9.336   8.299   5.241  0.1208  0.3788 -0.2357
41116SOL    HW125355   9.392   8.222   5.232  2.3504  1.7298  1.2900
41116SOL    HW225356   9.258   8.266   5.288  1.7449 -0.7225  1.8783
41117SOL     OW25357   1.031   5.371   5.847 -0.2009  0.5646 -0.2405
41117SOL    HW125358   1.053   5.460   5.874 -2.8098  1.0109  0.7533
41117SOL    HW225359   0.943   5.379   5.810  0.6924 -1.1604 -2.9860
41118SOL     OW25360   6.326  10.195   5.369 -0.1706  0.4769 -0.7425
41118SOL    HW125361   6.288  10.115   5.406  0.3414  0.5263 -0.0854
41118SOL    HW225362   6.336  10.177   5.276  0.9335 -0.6283 -0.4248
41119SOL     OW25363   0.927   5.364   6.739  0.2187 -0.0197 -0.0501
41119SOL    HW125364   0.921   5.281   6.691  1.2686  0.2993 -0.7542
41119SOL    HW225365   0.855   5.360   6.802  1.6624 -2.5619  1.6307
41120SOL     OW25366   0.942   3.821   1.246 -0.1859 -0.1636 -0.1670
41120SOL    HW125367   1.029   3.859   1.232 -0.0410 -0.3099  0.3412
41120SOL    HW225368   0.930   3.821   1.341 -0.4782 -0.7357 -0.1987
41121SOL     OW25369   3.000   6.415   2.914 -0.4977 -0.0950 -0.2058
41121SOL    HW125370   3.070   6.477   2.892 -0.2877 -0.2237  0.0905
41121SOL    HW225371   2.971   6.381   2.830 -0.0344 -0.2201 -0.3219
41122SOL     OW25372   4.933   8.862   5.231  0.5373 -0.0486 -0.3309
41122SOL    HW125373   5.007   8.802   5.221 -0.3994 -1.2296 -0.4554
41122SOL    HW225374   4.927   8.907   5.147  1.5379  0.5640 -0.0794
41123SOL     OW25375   4.560   5.215   5.371 -0.2153  0.2646  0.0818
41123SOL    HW125376   4.503   5.291   5.361  0.6705  1.0235  0.6879
41123SOL    HW225377   4.639   5.236   5.322  0.1363 -0.1599  0.4503
41124SOL     OW25378   1.887   1.978   6.192 -0.3254  0.5479  0.3624
41124SOL    HW125379   1.882   1.948   6.101  0.1643  0.5916  0.3200
41124SOL    HW225380   1.927   1.905   6.239 -1.5623  0.0869  0.7543
41125SOL     OW25381   4.791   3.738   9.766  0.0481 -0.3456 -0.4143
41125SOL    HW125382   4.870   3.747   9.820  0.7751 -1.1849 -1.2956
41125SOL    HW225383   4.758   3.650   9.787 -0.3286 -0.2176 -0.4685
41126SOL     OW25384   4.427   3.128   8.439  0.2435  0.6463  0.0939
41126SOL    HW125385   4.352   3.084   8.480  1.0524  1.2541  2.4291
41126SOL    HW225386   4.501   3.069   8.456  0.5020  0.5529 -1.2578
41127SOL     OW25387   4.945   0.501   4.360  0.5653 -0.0863  0.0806
41127SOL    HW125388   5.002   0.572   4.330  0.2366 -1.1151 -3.4095
41127SOL    HW225389   4.856   0.536   4.349  0.4131  0.2530  2.0821
41128SOL     OW25390   1.313   6.221   0.038  0.1292 -0.0657  0.1948
41128SOL    HW125391   1.317   6.134   0.078  0.2604 -0.6745 -1.1039
41128SOL    HW225392   1.224   6.227   0.004 -0.5117  1.0974  1.9353
41129SOL     OW25393   8.571  10.930   7.807  0.4063 -0.3913  0.0562
41129SOL    HW125394   8.477  10.914   7.808  0.3404 -0.1181  2.0304
41129SOL    HW225395   8.580  11.023   7.828  1.1250 -0.7726  1.5874
41130SOL     OW25396  10.479   6.116   2.886  0.7491  0.2272 -0.3623
41130SOL    HW125397  10.551   6.152   2.938  0.0468 -0.1562  0.9345
41130SOL    HW225398  10.402   6.122   2.944  0.1105 -1.0440 -1.0236
41131SOL     OW25399   1.195   6.155   6.502  0.2338  0.1912  0.0621
41131SOL    HW125400   1.137   6.116   6.437  0.1713  1.0535 -0.4246
41131SOL    HW225401   1.252   6.212   6.451  0.3742  0.6655  0.7349
41132SOL     OW25402   3.839   0.123   4.439 -0.4693 -0.4292  0.3623
41132SOL    HW125403   3.850   0.173   4.520  1.3928  0.5982 -0.4525
41132SOL    HW225404   3.911   0.060   4.439 -1.0143 -1.0731 -0.0582
41133SOL     OW25405   2.759   8.522   1.121 -0.9901  0.1451  0.1389
41133SOL    HW125406   2.787   8.612   1.107 -1.2059  0.0460 -1.0581
41133SOL    HW225407   2.669   8.529   1.151 -1.3190  0.3206 -0.8398
41134SOL     OW25408   8.234   6.644   8.968  0.5073  0.3928 -0.1096
41134SOL    HW125409   8.205   6.734   8.981 -0.6392  0.3150 -1.7893
41134SOL    HW225410   8.317   6.638   9.016  1.1454  2.6409 -0.7824
41135SOL     OW25411   1.538   6.244   9.240  0.6556  0.7794 -0.3369
41135SOL    HW125412   1.602   6.244   9.312 -0.7237  0.3298  0.9269
41135SOL    HW225413   1.495   6.159   9.246  1.2110  0.3114 -2.3749
41136SOL     OW25414   2.318   5.073   8.164 -0.1929 -0.4875  0.2425
41136SOL    HW125415   2.313   5.062   8.259 -0.0234  1.7032  0.5630
41136SOL    HW225416   2.236   5.117   8.140  0.1690 -0.1753 -0.4752
41137SOL     OW25417   2.823   8.508   8.999  0.5241 -0.2744 -0.3410
41137SOL    HW125418   2.850   8.416   9.008 -1.0063 -0.7555 -0.3919
41137SOL    HW225419   2.826   8.542   9.088 -0.1081 -0.7404 -0.1334
41138SOL     OW25420   2.430   7.580   9.697  0.7552  0.4522 -0.3755
41138SOL    HW125421   2.442   7.485   9.705 -0.9669  0.2382 -0.0482
41138SOL    HW225422   2.431   7.612   9.787  3.9606  1.1768 -0.5362
41139SOL     OW25423   8.943   4.043   3.225  0.0151 -0.0106  0.4541
41139SOL    HW125424   8.900   4.012   3.304 -0.3246 -0.7128  0.0098
41139SOL    HW225425   8.871   4.058   3.163  0.1960  1.3732  0.5380
41140SOL     OW25426   6.977   5.203   4.415  0.7895 -0.2768  0.1777
41140SOL    HW125427   7.058   5.188   4.367  0.3678  1.0185 -1.0182
41140SOL    HW225428   6.908   5.192   4.350 -0.0373 -1.5318  1.2224
41141SOL     OW25429   0.313   4.438   6.378  0.1071  0.2162  0.3437
41141SOL    HW125430   0.263   4.506   6.422  1.2560  1.6925 -0.5458
41141SOL    HW225431   0.404   4.470   6.380  0.6561 -1.2131 -0.2479
41142SOL     OW25432   1.909   7.339   1.425 -0.3304  0.8398  0.3250
41142SOL    HW125433   1.952   7.419   1.457  1.5987 -0.1043  0.2387
41142SOL    HW225434   1.822   7.368   1.397  0.6050  3.0731 -0.4964
41143SOL     OW25435  10.751   2.368   3.822 -0.4436  0.3977 -0.1138
41143SOL    HW125436  10.675   2.375   3.764 -0.9656 -1.8001  0.1970
41143SOL    HW225437  10.730   2.294   3.880  0.9154  1.2567  1.5653
41144SOL     OW25438  10.144   3.396  10.699  0.2505 -0.2397 -0.4011
41144SOL    HW125439  10.064   3.363  10.742 -0.9054  1.0047 -1.4902
41144SOL    HW225440  10.187   3.449  10.767 -0.4694  0.0267 -0.1361
41145SOL     OW25441   9.561   0.145   5.923  0.1034 -0.2118 -0.2441
41145SOL    HW125442   9.502   0.178   5.991 -1.2559  1.0962 -1.9657
41145SOL    HW225443   9.541   0.197   5.846  0.9941 -2.1941 -1.9243
41146SOL     OW25444   6.351   9.384   1.596  0.5766  0.5031  0.0437
41146SOL    HW125445   6.425   9.326   1.612  1.7153  1.5070 -1.2494
41146SOL    HW225446   6.331   9.372   1.503 -0.3400  0.8558  0.1834
41147SOL     OW25447   5.210   7.299   3.628  0.0860  0.1028  0.0881
41147SOL    HW125448   5.300   7.302   3.594  0.0029  0.8093 -0.0828
41147SOL    HW225449   5.169   7.225   3.582 -0.2316  1.4497 -1.8921
41148SOL     OW25450   4.109  10.276   1.543  0.2207  0.2236  0.0672
41148SOL    HW125451   4.106  10.252   1.450 -1.3121  0.1267  0.1106
41148SOL    HW225452   4.085  10.369   1.544  0.5863  0.3150  0.3427
41149SOL     OW25453   9.554   0.352   8.581  0.1435  0.4281 -0.0031
41149SOL    HW125454   9.493   0.309   8.521  1.0943 -2.0715  0.7028
41149SOL    HW225455   9.604   0.412   8.525 -0.3032 -0.4088 -1.3407
41150SOL     OW25456   4.541   9.490  10.389  0.3235  0.0815 -0.4164
41150SOL    HW125457   4.542   9.395  10.399 -1.8966 -0.0274 -0.6240
41150SOL    HW225458   4.501   9.504  10.303  1.4792  1.2078 -0.7903
41151SOL     OW25459   7.245   0.939   4.138 -0.0592 -0.4097 -0.4948
41151SOL    HW125460   7.301   0.884   4.192  2.0630  0.0485 -2.1023
41151SOL    HW225461   7.282   0.933   4.050 -3.7581 -1.6932 -2.1799
41152SOL     OW25462   4.601   1.146   4.938 -0.4662  0.0196 -0.5722
41152SOL    HW125463   4.660   1.203   4.988  0.6302 -2.2727  0.9351
41152SOL    HW225464   4.585   1.193   4.856  0.4747  2.3768  0.5166
41153SOL     OW25465   4.509   2.406   7.932 -0.2006  0.3758 -0.4324
41153SOL    HW125466   4.563   2.346   7.982 -0.5628  0.0466 -0.4369
41153SOL    HW225467   4.419   2.380   7.951 -0.3458  0.2757 -1.2048
41154SOL     OW25468   6.938   5.559   8.987  0.3901 -0.5599  0.0125
41154SOL    HW125469   7.013   5.568   8.928 -0.0637 -0.4705 -0.5537
41154SOL    HW225470   6.872   5.618   8.951 -0.1662 -1.0753  0.1680
41155SOL     OW25471  10.803   4.854   0.624 -0.6018  0.4466  0.0650
41155SOL    HW125472  10.872   4.791   0.646 -2.1557 -0.8697  1.4541
41155SOL    HW225473  10.762   4.874   0.708 -1.6927  1.4762 -0.6817
41156SOL     OW25474   1.971   0.607   5.782 -0.8568  0.0088  0.5221
41156SOL    HW125475   1.975   0.568   5.695 -0.0734  2.0408 -0.4294
41156SOL    HW225476   1.886   0.652   5.784 -0.7914  0.1253  0.7160
41157SOL     OW25477   5.572  10.740   1.331  0.1624  0.0148 -0.2636
41157SOL    HW125478   5.520  10.722   1.253 -0.6622 -0.4764  0.3763
41157SOL    HW225479   5.632  10.665   1.338  1.4532  0.9086 -1.3761
41158SOL     OW25480   7.073   4.017   1.993 -0.0319  0.0917 -0.9051
41158SOL    HW125481   7.065   4.082   2.063  0.1147  0.1721 -0.9624
41158SOL    HW225482   7.034   4.060   1.917 -2.7392 -0.9921 -0.2509
41159SOL     OW25483   7.791  10.994   5.780 -0.0103  0.0158 -0.2242
41159SOL    HW125484   7.880  11.002   5.813  0.5786  2.6260 -2.1082
41159SOL    HW225485   7.737  10.978   5.858  1.6121  2.8092  1.6419
41160SOL     OW25486   6.918   3.089   7.230  0.6502 -0.3725 -0.2659
41160SOL    HW125487   6.883   3.177   7.247  2.4458  0.3291  0.0570
41160SOL    HW225488   6.854   3.049   7.171 -1.3329  0.3273  1.3001
41161SOL     OW25489   6.452   0.028   6.865  0.0889  0.0876 -0.2920
41161SOL    HW125490   6.415  -0.021   6.939 -0.5873  1.4702  0.3143
41161SOL    HW225491   6.546   0.014   6.871 -0.0667 -0.9113  0.0143
41162SOL     OW25492   0.964   2.051   4.159  0.1484 -0.1644 -0.2316
41162SOL    HW125493   1.044   2.046   4.106 -1.9249 -0.9710 -3.5286
41162SOL    HW225494   0.978   2.127   4.216  3.1388 -0.1625 -0.7840
41163SOL     OW25495   4.479   7.409   6.994 -0.8373 -0.2617 -0.0891
41163SOL    HW125496   4.554   7.355   7.019 -0.5194  0.1500 -0.1406
41163SOL    HW225497   4.500   7.440   6.906 -0.0993  1.5238  0.6622
41164SOL     OW25498   0.236   3.146   1.403 -0.7642 -0.5821 -0.3473
41164SOL    HW125499   0.331   3.145   1.409 -0.8323 -0.0162  1.2628
41164SOL    HW225500   0.215   3.077   1.340  0.8080  1.0807 -2.8772
41165SOL     OW25501   3.560   1.520   2.490  0.0472 -0.4516  0.5459
41165SOL    HW125502   3.468   1.497   2.487  0.1639 -0.8994 -2.6114
41165SOL    HW225503   3.573   1.559   2.577 -3.1041 -0.2213  0.9994
41166SOL     OW25504   7.935   9.178   9.736  0.1990  0.2696  0.2562
41166SOL    HW125505   7.892   9.251   9.692 -1.3653 -0.3895  0.6486
41166SOL    HW225506   8.024   9.178   9.701  0.1031  2.0932 -0.0561
41167SOL     OW25507   4.641   3.939   1.434  0.2246  0.1271 -0.0469
41167SOL    HW125508   4.693   4.019   1.441 -1.0416  0.9804 -0.0596
41167SOL    HW225509   4.632   3.908   1.524  0.5572  0.1094 -0.0209
41168SOL     OW25510   6.769   6.393  10.422  0.3123 -0.0327  0.7999
41168SOL    HW125511   6.764   6.483  10.389  0.7655 -0.4476 -0.4308
41168SOL    HW225512   6.722   6.396  10.506 -1.7449  0.8458 -0.3088
41169SOL     OW25513   5.980   0.797   6.401 -0.0430  0.1520 -0.1150
41169SOL    HW125514   5.936   0.771   6.482 -0.2853  1.4699  0.1925
41169SOL    HW225515   6.065   0.754   6.405 -0.3398 -0.3994  0.4694
41170SOL     OW25516   9.974   9.325   3.381  0.2957  0.0762  0.5819
41170SOL    HW125517  10.045   9.270   3.416  1.5143  1.1363 -0.1423
41170SOL    HW225518   9.969   9.399   3.442  0.2978  0.3511  0.2515
41171SOL     OW25519   2.533   4.171   6.804  0.3136  0.0027  0.2215
41171SOL    HW125520   2.558   4.200   6.717 -2.1451 -0.1321 -0.5989
41171SOL    HW225521   2.556   4.244   6.861  0.2761  0.8507 -0.8192
41172SOL     OW25522   4.165   4.883   3.416  0.5455 -0.2086 -0.0198
41172SOL    HW125523   4.078   4.869   3.454  0.6550 -0.3190  0.1954
41172SOL    HW225524   4.177   4.978   3.418 -0.1175 -0.0795 -1.2999
41173SOL     OW25525   0.011   1.220   8.388  0.4385 -0.5895  0.1525
41173SOL    HW125526   0.083   1.161   8.365 -0.7301 -1.5166 -1.2665
41173SOL    HW225527   0.054   1.299   8.421  2.0657 -1.8868  1.3228
41174SOL     OW25528   8.651  10.487   4.706  0.2724  0.1170 -0.4110
41174SOL    HW125529   8.568  10.531   4.721 -0.0075  0.0566 -1.6251
41174SOL    HW225530   8.627  10.396   4.688  0.5068  0.2648 -1.5661
41175SOL     OW25531   3.767   1.145  10.917 -0.3849  0.1393  0.2706
41175SOL    HW125532   3.846   1.178  10.874 -0.2867 -1.2661 -0.7211
41175SOL    HW225533   3.765   1.189  11.002  0.6796  1.2686 -0.2604
41176SOL     OW25534   3.380   0.792  10.586 -0.6788 -0.4519  0.4874
41176SOL    HW125535   3.455   0.775  10.642 -0.8082 -2.3707  0.1371
41176SOL    HW225536   3.418   0.813  10.501 -0.5141 -0.9365  0.4369
41177SOL     OW25537   8.954   7.141   6.213  0.2287  0.4113  0.2734
41177SOL    HW125538   8.888   7.210   6.207 -0.3645 -0.1997 -0.3406
41177SOL    HW225539   8.927   7.075   6.150  0.8210 -0.3644  0.7993
41178SOL     OW25540  10.698   5.920   6.500 -0.1832  0.5219 -0.1648
41178SOL    HW125541  10.709   5.844   6.556  0.0306  0.1728 -0.6726
41178SOL    HW225542  10.605   5.919   6.477 -0.2514  0.6131  0.1028
41179SOL     OW25543   5.613   5.261   8.679  0.0308 -0.1994  0.3348
41179SOL    HW125544   5.635   5.175   8.643  1.0454 -0.1780  0.8701
41179SOL    HW225545   5.548   5.243   8.747 -0.2594 -0.4632 -0.0063
41180SOL     OW25546   0.766   6.782   4.790 -0.2993 -0.7300 -0.5335
41180SOL    HW125547   0.807   6.829   4.718  1.0327 -1.9291 -0.6111
41180SOL    HW225548   0.722   6.708   4.747  1.0759 -1.8381 -0.1066
41181SOL     OW25549   6.229   1.722   4.058  0.4181 -0.0092 -0.2902
41181SOL    HW125550   6.240   1.816   4.046 -1.6705  0.3177  0.0302
41181SOL    HW225551   6.223   1.710   4.153 -0.7643 -0.2540 -0.3836
41182SOL     OW25552   8.780   4.024  10.373 -0.1569 -0.6506 -0.6262
41182SOL    HW125553   8.782   3.931  10.350  1.1226 -0.1535 -2.8257
41182SOL    HW225554   8.864   4.039  10.418 -0.9454 -0.7809  0.9754
41183SOL     OW25555   7.574   0.110   8.991 -0.5187 -0.6576 -0.1162
41183SOL    HW125556   7.645   0.074   9.043  1.0067 -1.0472 -2.2956
41183SOL    HW225557   7.562   0.199   9.024  1.4302 -0.3759 -0.0468
41184SOL     OW25558   1.073  10.584   5.271  0.0694  0.0828 -0.1786
41184SOL    HW125559   1.155  10.633   5.274  0.3962 -0.4521 -0.1386
41184SOL    HW225560   1.056  10.560   5.362 -0.2547  0.3891 -0.1570
41185SOL     OW25561   0.615   9.460   1.373 -0.2842 -0.2709 -0.1282
41185SOL    HW125562   0.583   9.393   1.313 -0.9176  0.1353 -0.2507
41185SOL    HW225563   0.605   9.422   1.460  1.0901 -1.0568 -0.2813
41186SOL     OW25564   7.855   6.032   3.483  0.0417  0.3113  0.3929
41186SOL    HW125565   7.768   6.007   3.514  0.6963 -1.2520  1.0472
41186SOL    HW225566   7.850   6.024   3.388 -0.4341 -0.1180  0.4510
41187SOL     OW25567   8.007   1.853   2.578  0.4398  0.0572  0.0546
41187SOL    HW125568   7.942   1.791   2.609 -0.9197  0.4844 -1.7544
41187SOL    HW225569   8.073   1.798   2.534  0.5743 -0.2704  0.6554
41188SOL     OW25570   7.460   7.923   5.851  0.0826  0.4441 -0.1019
41188SOL    HW125571   7.495   8.002   5.808 -0.6276  0.8450  0.0458
41188SOL    HW225572   7.454   7.947   5.943  0.5782 -0.0501  0.0633
41189SOL     OW25573   5.883   8.243   4.120  0.4955  0.2859  0.3165
41189SOL    HW125574   5.835   8.323   4.138  0.0988  0.5835 -1.7997
41189SOL    HW225575   5.818   8.183   4.083  1.1731 -0.3024  0.0387
41190SOL     OW25576   3.313   7.957   7.984  0.0829  0.6182 -0.5352
41190SOL    HW125577   3.296   8.040   7.938 -0.1749  0.5167 -0.6264
41190SOL    HW225578   3.226   7.926   8.009  0.1491  0.1644 -0.8682
41191SOL     OW25579   3.106   9.325   0.962  0.2532 -0.4931 -0.1946
41191SOL    HW125580   3.067   9.264   1.024  0.8384 -0.4834  0.1947
41191SOL    HW225581   3.194   9.342   0.997  0.7920 -0.8952 -1.3069
41192SOL     OW25582   9.790   9.899   0.076 -0.0123  0.6243 -0.1729
41192SOL    HW125583   9.792   9.825   0.138 -2.0301  0.2880 -0.4278
41192SOL    HW225584   9.821   9.862  -0.006 -0.0147  0.3198 -0.0381
41193SOL     OW25585   8.743   8.917   0.068  0.1798  0.1408 -0.0040
41193SOL    HW125586   8.705   8.860   0.001  1.3279  0.6547 -1.1321
41193SOL    HW225587   8.691   8.997   0.064  1.0862  0.7032 -1.2915
41194SOL     OW25588   2.018   5.621   8.699  0.4086  0.0752 -0.3773
41194SOL    HW125589   2.104   5.596   8.733  0.0384 -0.0252  0.5009
41194SOL    HW225590   1.965   5.639   8.777 -0.5893 -0.5848 -0.8818
41195SOL     OW25591   4.471   2.092   2.826  0.3714  0.3000  0.2216
41195SOL    HW125592   4.482   1.997   2.822 -0.4570  0.2380 -1.1686
41195SOL    HW225593   4.423   2.114   2.746  0.7403  1.9238  0.4180
41196SOL     OW25594  10.534   8.513   4.371 -0.2402  0.3607  0.5641
41196SOL    HW125595  10.557   8.424   4.342 -0.2586  0.4064  0.4053
41196SOL    HW225596  10.606   8.568   4.339  0.5666  0.1816  2.0159
41197SOL     OW25597   6.147   5.797   9.207 -0.3294 -0.3067  0.1408
41197SOL    HW125598   6.073   5.813   9.264 -0.6355 -0.4256 -0.2199
41197SOL    HW225599   6.210   5.749   9.261 -0.3320  0.1730  0.5719
41198SOL     OW25600  10.176   1.879   8.992 -0.2952  0.1855  0.1552
41198SOL    HW125601  10.200   1.788   8.976 -1.9792 -0.6440  1.8466
41198SOL    HW225602  10.157   1.916   8.905  2.3857 -0.4119 -0.7543
41199SOL     OW25603   5.761  10.543   0.381 -0.1397  0.6568 -0.6271
41199SOL    HW125604   5.796  10.600   0.312  0.6833  0.7906 -0.1099
41199SOL    HW225605   5.766  10.455   0.344  1.9518  0.5227 -0.1122
41200SOL     OW25606   0.347   0.298   0.386  0.0159 -0.2549 -0.5712
41200SOL    HW125607   0.432   0.328   0.355 -0.2635  0.2353 -0.8769
41200SOL    HW225608   0.363   0.209   0.418  0.9318  0.3008  0.6263
41201SOL     OW25609   9.657   7.077   3.198 -0.4672  0.1996  0.5744
41201SOL    HW125610   9.727   7.131   3.234  0.9536 -1.3191  0.2199
41201SOL    HW225611   9.578   7.130   3.208  0.7702  2.1464  0.6227
41202SOL     OW25612   3.295   7.433   9.012  0.5143  0.2251  0.0656
41202SOL    HW125613   3.203   7.433   8.986  0.0666 -1.4384  1.3990
41202SOL    HW225614   3.342   7.469   8.937 -1.1130  0.0008 -1.1128
41203SOL     OW25615  10.842  10.684   2.710 -0.0732 -0.0027  0.1307
41203SOL    HW125616  10.748  10.688   2.698 -0.0754 -1.4160 -0.5474
41203SOL    HW225617  10.877  10.750   2.650 -0.6474  1.3249  1.1946
41204SOL     OW25618   0.005   0.653   6.261 -0.1493 -0.4022 -0.0837
41204SOL    HW125619   0.077   0.591   6.273  0.6552  0.8559  1.9634
41204SOL    HW225620  -0.050   0.641   6.338 -1.1951 -0.1045 -0.7707
41205SOL     OW25621   2.261   7.230   3.830 -0.2447 -0.1054 -0.0538
41205SOL    HW125622   2.278   7.308   3.882  0.4096 -1.2008  1.4211
41205SOL    HW225623   2.286   7.255   3.741  0.1942  1.2719  0.4348
41206SOL     OW25624   4.976   4.253  10.372  0.4549 -0.5615 -0.6159
41206SOL    HW125625   4.957   4.170  10.416 -0.5175  0.5678  1.2689
41206SOL    HW225626   5.057   4.238  10.324  0.9447 -2.2535  0.6601
41207SOL     OW25627   1.551   8.746   1.135 -0.2142  0.3906 -0.3170
41207SOL    HW125628   1.551   8.738   1.231  1.2922 -0.7949 -0.3611
41207SOL    HW225629   1.573   8.838   1.119  0.0544  0.4845  0.4968
41208SOL     OW25630   1.574   4.081   0.046  0.3791  0.2979  0.1648
41208SOL    HW125631   1.491   4.112   0.083 -1.0443 -1.9419 -0.9639
41208SOL    HW225632   1.590   4.138  -0.028 -0.5342  0.3376 -0.0169
41209SOL     OW25633   9.568   9.128   7.474 -0.0406 -0.2941  0.2069
41209SOL    HW125634   9.493   9.085   7.516  0.1751 -0.0495  0.8630
41209SOL    HW225635   9.530   9.205   7.432 -0.1052  0.0557  0.8887
41210SOL     OW25636   9.564   9.319   3.434 -0.6261  0.4217 -0.2400
41210SOL    HW125637   9.630   9.254   3.407 -2.3745 -1.0356 -1.2100
41210SOL    HW225638   9.567   9.386   3.366 -0.6444 -0.0063 -0.6657
41211SOL     OW25639   5.470   8.616   9.580 -0.0062 -0.3288 -0.7591
41211SOL    HW125640   5.489   8.661   9.498  0.1781  0.5479 -0.2494
41211SOL    HW225641   5.476   8.684   9.647 -0.8066 -0.8898 -0.0898
41212SOL     OW25642  10.466   2.139   0.510 -0.0823 -0.3771 -0.4202
41212SOL    HW125643  10.393   2.200   0.524  1.6811  1.4844  1.1649
41212SOL    HW225644  10.517   2.179   0.439  1.6702  0.7004  1.3427
41213SOL     OW25645   8.050   6.801  10.189 -0.0064 -0.1356  0.1800
41213SOL    HW125646   8.028   6.710  10.171 -0.3588  0.4043 -2.5384
41213SOL    HW225647   7.975   6.836  10.237  0.9364 -1.6560  3.0090
41214SOL     OW25648   7.763   1.900   9.596  0.4589 -0.3816  0.2177
41214SOL    HW125649   7.821   1.825   9.609 -0.0706 -1.0666 -1.2788
41214SOL    HW225650   7.760   1.942   9.682  0.1406 -2.5164  1.3174
41215SOL     OW25651   7.741   8.853   4.851  0.1668  0.1726  0.9839
41215SOL    HW125652   7.674   8.785   4.858  0.5304 -0.2603  0.3390
41215SOL    HW225653   7.741   8.895   4.937  0.0920 -0.7915  1.4707
41216SOL     OW25654   4.376   6.620  10.254 -0.3632 -0.6731  0.7777
41216SOL    HW125655   4.451   6.566  10.229  0.5214  1.4222 -1.6635
41216SOL    HW225656   4.415   6.704  10.280 -1.6761  1.6972 -3.7702
41217SOL     OW25657   2.737   9.175   2.032 -0.0460 -0.1436 -0.1138
41217SOL    HW125658   2.734   9.246   2.096  0.3832 -1.4586  1.4509
41217SOL    HW225659   2.750   9.096   2.085 -0.0761 -1.3469 -1.8152
41218SOL     OW25660   1.900   3.508   1.146  0.1082  0.2474  0.1657
41218SOL    HW125661   1.854   3.552   1.217 -0.6035  0.3814 -0.3661
41218SOL    HW225662   1.843   3.435   1.122  1.9306 -1.9772  2.0345
41219SOL     OW25663   4.690   9.287   6.816 -0.0204  0.5593 -0.1256
41219SOL    HW125664   4.781   9.274   6.842  0.4525  2.1266 -0.8362
41219SOL    HW225665   4.647   9.203   6.832  1.7787 -0.5156 -0.7496
41220SOL     OW25666   0.888   7.570  10.633  0.4281 -0.3518 -0.1659
41220SOL    HW125667   0.882   7.642  10.570  1.2411  1.3777  1.6244
41220SOL    HW225668   0.855   7.494  10.585 -1.5243  1.4028 -1.8236
41221SOL     OW25669   5.977   8.323   2.065  0.3299 -0.0686  0.5068
41221SOL    HW125670   6.014   8.385   2.003  2.4938 -1.3763  0.4061
41221SOL    HW225671   5.890   8.304   2.031  0.5777  1.0229 -0.8132
41222SOL     OW25672   5.045   4.653   1.710 -0.8020  0.1095 -0.7578
41222SOL    HW125673   4.983   4.652   1.638 -1.2871 -0.3359 -0.3389
41222SOL    HW225674   5.069   4.561   1.722 -1.8704 -0.0134  0.6188
41223SOL     OW25675   6.534   2.305  10.554 -0.2730  0.2070 -0.5852
41223SOL    HW125676   6.464   2.250  10.517 -0.7966  0.1825  0.4152
41223SOL    HW225677   6.610   2.285  10.500 -0.3148 -1.8947  0.0555
41224SOL     OW25678   6.780   2.965   2.228 -0.2430 -0.0647  0.2206
41224SOL    HW125679   6.777   3.022   2.305  0.7749  0.9633 -0.4633
41224SOL    HW225680   6.713   3.000   2.169  2.3238  2.4998 -1.4923
41225SOL     OW25681   1.555   2.756   7.002 -0.0135  0.5693 -0.0124
41225SOL    HW125682   1.525   2.666   7.015 -1.6000  0.9471 -0.8069
41225SOL    HW225683   1.631   2.748   6.944 -0.4395 -0.2322 -0.4780
41226SOL     OW25684   1.120   3.527   9.292  0.8441 -0.0376 -0.0894
41226SOL    HW125685   1.145   3.469   9.364  1.8367  0.0909 -0.3175
41226SOL    HW225686   1.099   3.610   9.334  0.2504 -0.3121  0.1603
41227SOL     OW25687  10.862   3.077   0.936 -0.5379 -0.4787 -0.3925
41227SOL    HW125688  10.768   3.068   0.921 -0.8600 -3.3560  2.2251
41227SOL    HW225689  10.869   3.146   1.002 -0.4895  1.4563 -2.3209
41228SOL     OW25690   2.943   3.604   6.831  0.1368 -0.6053 -0.4941
41228SOL    HW125691   2.936   3.689   6.875  2.6453 -0.5722  0.0213
41228SOL    HW225692   3.017   3.561   6.875 -1.2603 -3.2228 -0.5311
41229SOL     OW25693  10.919   3.557   9.801  0.2542 -0.0464  0.3921
41229SOL    HW125694  10.941   3.591   9.887  2.1433  1.1051 -0.4831
41229SOL    HW225695  10.888   3.634   9.752 -0.6498 -0.6561 -0.0211
41230SOL     OW25696   9.593   9.499   3.217 -1.0359 -0.3158 -0.1606
41230SOL    HW125697   9.621   9.450   3.140  1.5532 -0.8315  1.0112
41230SOL    HW225698   9.658   9.568   3.228 -2.7345  1.3117  0.2064
41231SOL     OW25699   9.237   2.716   6.151  0.4298  0.3502 -0.3185
41231SOL    HW125700   9.287   2.793   6.179 -0.8863  0.9309  0.5240
41231SOL    HW225701   9.230   2.725   6.056  1.5578  0.4509 -0.4154
41232SOL     OW25702   6.806   4.911   3.636  0.4532  0.0437  0.4897
41232SOL    HW125703   6.760   4.911   3.552  0.3412 -1.0766  0.5279
41232SOL    HW225704   6.839   4.821   3.645  2.3093  0.7045  0.6592
41233SOL     OW25705   4.840   6.972   1.593 -0.3141 -0.1700 -0.0151
41233SOL    HW125706   4.887   7.015   1.664 -1.1074  1.5170 -0.4685
41233SOL    HW225707   4.825   6.883   1.625  2.1743 -0.4477  0.5779
41234SOL     OW25708   7.753   5.566   5.759 -0.1944 -0.1528 -0.0344
41234SOL    HW125709   7.768   5.629   5.689 -2.1750 -0.7938 -1.1042
41234SOL    HW225710   7.683   5.604   5.812  0.0800 -0.4858  0.5858
41235SOL     OW25711   3.736   6.098  10.981  0.0960 -0.5547  0.1185
41235SOL    HW125712   3.813   6.043  10.968  1.3649  0.7718  1.5882
41235SOL    HW225713   3.771   6.186  10.994 -1.5422 -0.1014  2.0685
41236SOL     OW25714   4.858   5.650   5.297  0.0951 -0.2489 -0.4847
41236SOL    HW125715   4.803   5.603   5.235  1.1697 -1.4426 -0.5699
41236SOL    HW225716   4.806   5.654   5.377  0.1387 -2.0457 -0.3163
41237SOL     OW25717   9.530   0.437   1.429 -0.6942  0.2328  0.7652
41237SOL    HW125718   9.549   0.371   1.496 -3.2904  0.4883  1.8945
41237SOL    HW225719   9.544   0.391   1.346  0.8091 -0.6749  1.4817
41238SOL     OW25720   3.159   6.921   6.168 -0.1931 -0.4658  1.0269
41238SOL    HW125721   3.194   6.833   6.158  0.3330 -0.0590 -1.5005
41238SOL    HW225722   3.073   6.917   6.126  0.1866  0.3881  0.1280
41239SOL     OW25723   1.853   8.798  10.603  0.7022  0.0892  0.3136
41239SOL    HW125724   1.895   8.794  10.690 -0.8644 -0.1748  1.0912
41239SOL    HW225725   1.760   8.800  10.622  0.2752 -1.4250 -1.4403
41240SOL     OW25726   7.069   2.098  10.846  0.4107  0.5004  0.0623
41240SOL    HW125727   7.032   2.104  10.758  1.7285  0.5483 -0.4996
41240SOL    HW225728   7.153   2.142  10.840  1.2022 -0.8356  0.9720
41241SOL     OW25729   7.921   3.686   2.446  0.2965 -0.3570 -0.1107
41241SOL    HW125730   7.903   3.603   2.489 -0.4104  0.2373  0.7933
41241SOL    HW225731   7.991   3.726   2.499 -0.5764  0.3751  0.5356
41242SOL     OW25732   6.489   7.564  10.339 -0.1467 -0.4359  0.1084
41242SOL    HW125733   6.567   7.575  10.284 -0.2859  2.0655  0.2795
41242SOL    HW225734   6.419   7.541  10.277  0.1028  0.4135 -0.5118
41243SOL     OW25735   1.007   8.118   1.668 -0.3370  0.2175 -0.4809
41243SOL    HW125736   1.095   8.111   1.630  1.4550 -3.0899  3.5113
41243SOL    HW225737   0.960   8.044   1.631 -0.4865  0.2976 -0.4505
41244SOL     OW25738   0.990   7.707   4.780 -0.3702 -0.1667 -0.3612
41244SOL    HW125739   1.071   7.702   4.831 -0.7016  1.5624  0.4236
41244SOL    HW225740   0.921   7.692   4.844 -0.7067 -1.2686 -0.9599
41245SOL     OW25741  10.899   7.855   7.654  0.3778  0.2561  0.4455
41245SOL    HW125742  10.807   7.876   7.666  0.7185  1.1593  1.7240
41245SOL    HW225743  10.936   7.932   7.611  0.2887 -0.6628 -1.3367
41246SOL     OW25744   2.550   4.950   9.651 -0.1792 -0.1778 -0.4896
41246SOL    HW125745   2.518   4.968   9.740 -0.4526  2.9983 -1.1243
41246SOL    HW225746   2.645   4.945   9.661 -0.2388 -0.3854  0.0361
41247SOL     OW25747   1.288   7.262   8.281  0.2332  0.3281 -0.0927
41247SOL    HW125748   1.208   7.313   8.276 -0.0252 -0.0718 -0.1006
41247SOL    HW225749   1.258   7.172   8.296  0.7047  0.3068  0.7602
41248SOL     OW25750   9.092   8.968   0.769 -0.1007 -0.0685 -0.3577
41248SOL    HW125751   9.178   9.001   0.793  0.3576 -0.7674 -0.9779
41248SOL    HW225752   9.061   8.922   0.847 -0.9890  2.2005  0.7159
41249SOL     OW25753   6.513   2.275   0.973 -0.2881 -0.7586 -0.3982
41249SOL    HW125754   6.546   2.194   1.011  0.2783  0.8482  2.9502
41249SOL    HW225755   6.434   2.295   1.024 -1.6861 -0.2573 -2.6269
41250SOL     OW25756   8.848  10.118   5.161  0.3356  0.3714  0.1137
41250SOL    HW125757   8.776  10.105   5.222  0.8556 -0.6016  0.5369
41250SOL    HW225758   8.926  10.090   5.209  0.6726 -1.1395 -1.2289
41251SOL     OW25759   0.719   3.638   0.312  0.1787 -0.3275 -0.4087
41251SOL    HW125760   0.724   3.612   0.404 -1.2237 -0.1023 -0.2510
41251SOL    HW225761   0.625   3.645   0.294  0.4439  1.3862 -1.3521
41252SOL     OW25762   5.974   2.846   0.097  0.3612 -1.0067  0.3583
41252SOL    HW125763   5.970   2.934   0.135 -2.7547 -0.5828 -0.6972
41252SOL    HW225764   5.973   2.787   0.172  0.0300 -0.1484  1.0474
41253SOL     OW25765   5.401   9.052   0.540 -0.3763  0.3608 -0.4158
41253SOL    HW125766   5.496   9.049   0.550 -0.4249  2.4136  1.7459
41253SOL    HW225767   5.385   9.025   0.450  2.0877 -1.6624 -0.3751
41254SOL     OW25768   4.385   1.893   3.947 -0.2789 -0.3177  0.3731
41254SOL    HW125769   4.347   1.836   4.014  0.6734 -2.1230 -0.5411
41254SOL    HW225770   4.436   1.958   3.996 -0.1304 -1.2053  1.4318
41255SOL     OW25771   0.207   6.522   0.680  0.3657  0.2596  0.0736
41255SOL    HW125772   0.227   6.538   0.587 -0.6958 -1.2566 -0.4572
41255SOL    HW225773   0.285   6.479   0.714  0.1623 -0.6592 -0.5687
41256SOL     OW25774   6.710   5.488   6.462 -0.1176 -0.0838 -0.2854
41256SOL    HW125775   6.804   5.508   6.459  0.0591 -0.9574 -1.0722
41256SOL    HW225776   6.703   5.415   6.523 -0.4316  0.6781  0.6041
41257SOL     OW25777   5.482   0.409   7.113 -0.0383 -0.2006  0.4388
41257SOL    HW125778   5.575   0.424   7.131 -0.2184  2.6486 -0.5798
41257SOL    HW225779   5.442   0.399   7.199  0.9649  0.0874  0.9558
41258SOL     OW25780   8.715   1.325   5.054  0.4034 -0.0233 -0.5021
41258SOL    HW125781   8.643   1.383   5.081  0.3498 -0.0647 -0.5555
41258SOL    HW225782   8.673   1.241   5.038  0.4434 -0.0116 -0.6670
41259SOL     OW25783   7.348   6.087   5.918 -0.0873 -0.5061  0.2324
41259SOL    HW125784   7.395   6.167   5.941 -1.8005 -0.0590  2.5744
41259SOL    HW225785   7.416   6.025   5.893  1.4090  1.1693 -0.0446
41260SOL     OW25786   7.406   1.897   0.066 -0.2097 -0.3675  0.1755
41260SOL    HW125787   7.380   1.989   0.073  1.0995  0.0407 -0.1292
41260SOL    HW225788   7.351   1.861  -0.003 -1.5329 -0.1266  1.0655
41261SOL     OW25789  10.150   4.362   4.971 -0.1325 -0.3219 -0.2724
41261SOL    HW125790  10.062   4.353   4.934 -0.5242  1.8806 -0.0241
41261SOL    HW225791  10.208   4.364   4.895 -0.2879 -1.4492 -0.4498
41262SOL     OW25792   3.163   8.206   0.798 -0.5800  0.8597 -0.2745
41262SOL    HW125793   3.199   8.117   0.795  1.0180  1.3607  1.6027
41262SOL    HW225794   3.166   8.236   0.707  0.5107 -0.3910 -0.6909
41263SOL     OW25795   0.298   8.786   7.767 -0.7346 -0.5545  0.2047
41263SOL    HW125796   0.379   8.754   7.807 -0.6774 -2.4305 -1.2623
41263SOL    HW225797   0.326   8.858   7.711 -0.1921 -0.7022  0.2769
41264SOL     OW25798   1.205   5.774   5.520 -0.0253  0.7487  0.0740
41264SOL    HW125799   1.285   5.811   5.482  1.1978  0.0507  1.8222
41264SOL    HW225800   1.208   5.681   5.496 -1.5257  1.0940 -1.7297
41265SOL     OW25801   4.769   6.965   6.282  0.0956 -0.3177  0.3175
41265SOL    HW125802   4.863   6.964   6.263  0.0283  0.1374 -0.0777
41265SOL    HW225803   4.745   7.058   6.279 -0.4876 -0.4724 -0.2351
41266SOL     OW25804   1.630  10.486   6.510  0.1501 -0.6649 -0.1537
41266SOL    HW125805   1.599  10.477   6.600  0.5628  0.2335  0.0867
41266SOL    HW225806   1.725  10.482   6.516  0.3847  2.2778 -0.1306
41267SOL     OW25807   0.695   4.104   2.147  0.2857 -0.4224 -0.5902
41267SOL    HW125808   0.698   4.009   2.138 -0.7831 -0.4492 -0.8280
41267SOL    HW225809   0.637   4.133   2.076  0.6020  0.4031 -0.5194
41268SOL     OW25810   7.231   0.139   2.162 -0.1858 -0.2013  0.1950
41268SOL    HW125811   7.155   0.089   2.192 -0.3677  0.0377  0.1373
41268SOL    HW225812   7.268   0.086   2.092 -1.1389  0.3445 -0.7520
41269SOL     OW25813   2.377   1.225   2.985 -0.2866  0.2501  0.4447
41269SOL    HW125814   2.433   1.288   2.940  1.2958 -1.3367  0.0810
41269SOL    HW225815   2.429   1.196   3.060  0.0558 -2.2344 -0.6294
41270SOL     OW25816  10.565   6.546   4.149  0.0682  0.6538 -0.0881
41270SOL    HW125817  10.528   6.465   4.113 -0.2946  1.5834 -1.9241
41270SOL    HW225818  10.495   6.581   4.205  0.5802 -0.7327  1.5023
41271SOL     OW25819   1.600   7.456  10.214 -0.4517 -0.1993  0.0102
41271SOL    HW125820   1.544   7.510  10.159  0.5142 -0.6997 -1.5093
41271SOL    HW225821   1.541   7.422  10.282 -1.4784  1.1422 -0.1671
41272SOL     OW25822  10.072  10.375   5.392 -0.0758 -0.6946 -0.1359
41272SOL    HW125823  10.042  10.441   5.455  3.0741  3.4209 -2.4692
41272SOL    HW225824  10.161  10.354   5.419 -0.2206 -2.2894 -0.7861
41273SOL     OW25825   0.424   1.681  10.469 -0.1856 -0.2107 -0.5604
41273SOL    HW125826   0.413   1.756  10.528 -0.5757 -1.0886  0.5116
41273SOL    HW225827   0.362   1.698  10.398 -0.2420  0.5055 -0.3521
41274SOL     OW25828   1.386   9.062   2.247  0.5175  0.1988 -0.0162
41274SOL    HW125829   1.311   9.080   2.189  0.8567  0.0051 -0.5251
41274SOL    HW225830   1.439   9.142   2.243  1.2085 -0.2791 -1.0212
41275SOL     OW25831   3.041  10.640   7.779  0.1277 -0.0231  0.7823
41275SOL    HW125832   2.946  10.642   7.769  0.2404 -0.9450 -0.7246
41275SOL    HW225833   3.059  10.552   7.814  0.4289  0.1747  1.1301
41276SOL     OW25834   2.422   9.602   6.862 -0.1037  0.0965  0.1559
41276SOL    HW125835   2.343   9.616   6.810 -0.2994 -0.7470  0.2193
41276SOL    HW225836   2.390   9.588   6.951  0.1521  0.2306  0.2709
41277SOL     OW25837   7.409   8.151   5.126 -0.1854  0.2998  0.2609
41277SOL    HW125838   7.361   8.226   5.089  0.7384  0.7814  0.0116
41277SOL    HW225839   7.486   8.142   5.070  0.5456  0.1875  1.2677
41278SOL     OW25840   4.916  10.021   8.241  1.3782  0.1335 -0.3073
41278SOL    HW125841   4.913   9.944   8.185  0.5443 -0.2166  0.2006
41278SOL    HW225842   4.888   9.989   8.327  3.0166  0.5615  0.4315
41279SOL     OW25843   5.532   6.386   8.760  0.0602 -0.2016 -0.5929
41279SOL    HW125844   5.616   6.347   8.734  0.0603 -1.2713  0.8984
41279SOL    HW225845   5.482   6.313   8.796 -0.4606  0.9379  1.0847
41280SOL     OW25846   6.183   5.403  10.316  0.1724  0.1060  0.4058
41280SOL    HW125847   6.127   5.429  10.243  0.0875  1.6215  0.9743
41280SOL    HW225848   6.123   5.368  10.382 -0.0211  0.8360  0.6297
41281SOL     OW25849   6.549   0.716  10.343 -0.2423 -0.1988 -0.3710
41281SOL    HW125850   6.481   0.661  10.382  0.3928 -0.8108 -0.0895
41281SOL    HW225851   6.623   0.708  10.404  0.2304  0.0977 -0.8996
41282SOL     OW25852   1.169   1.974  10.964 -0.2390 -0.4020  0.1484
41282SOL    HW125853   1.155   1.882  10.941 -1.1006 -0.2022 -0.1810
41282SOL    HW225854   1.104   1.992  11.032  0.8673 -0.4031  1.2272
41283SOL     OW25855   4.645   0.095   0.421  0.2719  0.2399  0.0072
41283SOL    HW125856   4.555   0.127   0.420 -0.0926 -0.6215  1.7864
41283SOL    HW225857   4.684   0.136   0.498  1.1946  0.0659 -0.3574
41284SOL     OW25858   4.730   6.288   3.477 -0.6057 -0.5036 -0.2031
41284SOL    HW125859   4.716   6.256   3.566 -1.5879 -0.6351 -0.3932
41284SOL    HW225860   4.642   6.294   3.440 -0.1418 -1.4504 -1.5228
41285SOL     OW25861   9.219   6.147   8.431  0.0919  0.6813 -0.2764
41285SOL    HW125862   9.153   6.114   8.371 -0.7739 -0.2401  1.1180
41285SOL    HW225863   9.245   6.232   8.395  1.5366 -0.9104 -3.3465
41286SOL     OW25864   9.587   7.031   2.121 -0.3539 -0.3374  0.2910
41286SOL    HW125865   9.598   7.005   2.213  2.2959 -1.8687 -0.3307
41286SOL    HW225866   9.665   7.083   2.102 -1.2067  0.5344 -0.9342
41287SOL     OW25867   5.713   7.280   7.435  0.2753  0.4306 -0.4906
41287SOL    HW125868   5.675   7.352   7.385  0.7842  1.7650  0.9527
41287SOL    HW225869   5.770   7.323   7.500  1.5378 -1.3310 -0.3543
41288SOL     OW25870   8.057   3.419   1.776  0.1226 -0.7464  0.0862
41288SOL    HW125871   7.986   3.392   1.718  0.0914 -1.6678  0.5383
41288SOL    HW225872   8.014   3.464   1.848  0.0359 -0.8513  0.0998
41289SOL     OW25873   5.721   8.681   3.851  0.3128 -0.3312  0.3798
41289SOL    HW125874   5.667   8.692   3.773 -0.4445 -0.7840  0.8255
41289SOL    HW225875   5.797   8.631   3.820  0.3499  0.0698 -0.1966
41290SOL     OW25876   6.266   1.214   7.934  0.6226  0.4924  0.6306
41290SOL    HW125877   6.231   1.237   8.019  2.2119 -0.9452  1.7463
41290SOL    HW225878   6.360   1.203   7.949  0.8201 -0.6294 -1.0952
41291SOL     OW25879   0.258   4.143   1.103  0.2156 -0.3230 -0.1911
41291SOL    HW125880   0.201   4.116   1.175 -0.2472 -0.3712 -0.5807
41291SOL    HW225881   0.206   4.134   1.024  0.9194 -0.8390 -0.6096
41292SOL     OW25882   5.475   0.044  11.016 -0.5254 -0.1944 -0.2464
41292SOL    HW125883   5.533   0.110  11.053 -1.3772  0.6935 -0.4465
41292SOL    HW225884   5.451   0.079  10.930 -2.3092  0.0794  0.3136
41293SOL     OW25885   7.201  10.700   6.831 -0.3601 -0.1626 -0.3551
41293SOL    HW125886   7.229  10.792   6.831  0.7746 -0.4991 -0.2430
41293SOL    HW225887   7.149  10.692   6.911 -0.2248  0.3165 -0.2118
41294SOL     OW25888   0.512   8.758   9.003  0.0395 -0.0800  0.6172
41294SOL    HW125889   0.488   8.819   9.073 -1.0183  2.0533 -1.4636
41294SOL    HW225890   0.591   8.795   8.964  0.3363 -0.9711  0.3307
41295SOL     OW25891   7.623  10.074   4.088 -0.0505 -0.6147  0.2422
41295SOL    HW125892   7.710  10.112   4.073  0.6865 -1.2810  2.4950
41295SOL    HW225893   7.568  10.149   4.113 -0.2964 -0.1306 -1.5562
41296SOL     OW25894   0.079   5.925   0.045 -0.5785 -0.3799  0.6465
41296SOL    HW125895   0.148   5.912   0.110 -0.6413 -0.9737  0.5943
41296SOL    HW225896   0.094   6.014   0.013  0.7946 -0.8529 -0.0990
41297SOL     OW25897   7.982   0.911   1.786  0.4007  0.0134  0.0350
41297SOL    HW125898   7.957   0.821   1.804  1.2494 -0.2639 -0.1495
41297SOL    HW225899   8.024   0.908   1.700 -1.3288  0.9028 -0.9018
41298SOL     OW25900   7.884   4.602   6.268  0.3213  0.2941 -0.2444
41298SOL    HW125901   7.951   4.534   6.264  0.6384  0.5969 -0.1090
41298SOL    HW225902   7.924   4.672   6.321  0.0149  0.6028 -0.4195
41299SOL     OW25903   5.329   3.524   9.475 -0.5692 -0.7192 -0.0927
41299SOL    HW125904   5.323   3.493   9.566 -0.0804 -0.4861  0.0214
41299SOL    HW225905   5.255   3.585   9.466 -0.3034 -0.3234  0.3195
41300SOL     OW25906  10.194   0.265   3.990  0.7185 -0.8718 -0.2603
41300SOL    HW125907  10.262   0.289   3.927 -0.6346  2.7062 -0.6219
41300SOL    HW225908  10.114   0.302   3.953 -0.4684 -0.2849  2.6106
41301SOL     OW25909   7.921   8.735   1.353  0.0358 -0.3313 -0.0157
41301SOL    HW125910   7.932   8.681   1.432  1.8756 -0.3659 -0.2355
41301SOL    HW225911   7.835   8.711   1.319  0.1724 -2.0259  0.7204
41302SOL     OW25912   9.092   0.004   4.262  0.6641  0.2194 -0.0980
41302SOL    HW125913   9.116  -0.030   4.348  1.7757 -2.3273 -1.2942
41302SOL    HW225914   9.016  -0.049   4.236  0.5037  0.7811 -0.7931
41303SOL     OW25915   1.571   9.886   0.649 -0.0012 -0.5093  0.0282
41303SOL    HW125916   1.559   9.809   0.704  0.2529 -0.3433  0.3206
41303SOL    HW225917   1.564   9.960   0.709  1.2865 -0.3627  0.0204
41304SOL     OW25918   5.885  10.186  10.454 -1.0693  0.4400 -0.3729
41304SOL    HW125919   5.970  10.194  10.495 -0.4171  0.2786 -1.6366
41304SOL    HW225920   5.854  10.098  10.478 -1.2406  0.7860  0.7115
41305SOL     OW25921  10.210   1.797   2.105  0.2384 -0.2055 -0.7555
41305SOL    HW125922  10.142   1.856   2.071  0.1097  0.5420  0.7451
41305SOL    HW225923  10.266   1.853   2.158  0.4036 -1.3425  0.3045
41306SOL     OW25924   7.233   7.345   0.593 -0.0868  0.1567  0.3609
41306SOL    HW125925   7.239   7.372   0.684  0.5737  0.3351  0.2713
41306SOL    HW225926   7.191   7.259   0.596 -2.2669  1.1515  0.6461
41307SOL     OW25927   7.588   7.452   0.809 -0.1634  0.3096 -0.2956
41307SOL    HW125928   7.619   7.413   0.891  1.0008  1.4037 -0.1921
41307SOL    HW225929   7.564   7.376   0.755 -0.4876 -0.4466  0.8668
41308SOL     OW25930   4.613   0.226   6.206  0.0479  0.5063 -0.2046
41308SOL    HW125931   4.689   0.207   6.262 -1.2166 -2.1420  0.7782
41308SOL    HW225932   4.645   0.211   6.117  1.1959  1.4708  0.0164
41309SOL     OW25933   6.002   7.520   7.370 -0.1190  0.5101  0.2651
41309SOL    HW125934   5.970   7.575   7.298 -2.3421 -3.1020 -1.7888
41309SOL    HW225935   6.073   7.469   7.331  0.5745  0.4703  1.5379
41310SOL     OW25936   4.630   5.008   7.991  0.0512 -0.3174 -0.4643
41310SOL    HW125937   4.637   5.101   7.971 -0.5495 -0.1189  0.1992
41310SOL    HW225938   4.535   4.992   7.994  0.1060 -0.5546  1.1103
41311SOL     OW25939   5.012   5.568   1.770 -0.0338 -1.0265 -0.5739
41311SOL    HW125940   4.931   5.549   1.817  0.2944 -0.6082  0.1821
41311SOL    HW225941   5.001   5.658   1.739  0.5434 -0.5994  0.4166
41312SOL     OW25942   8.617  10.621   1.512 -0.6709  0.0085 -0.4687
41312SOL    HW125943   8.606  10.619   1.417 -2.2504 -0.6663 -0.2953
41312SOL    HW225944   8.539  10.579   1.546  0.6164 -1.2378  1.0922
41313SOL     OW25945   8.262   1.814  10.055 -0.1126 -0.2556 -0.0932
41313SOL    HW125946   8.345   1.781  10.020  0.3111  0.9928 -0.2985
41313SOL    HW225947   8.209   1.834   9.978  0.7171  2.2320 -0.0918
41314SOL     OW25948   7.228  10.470   8.581  0.2004 -0.1254  0.0035
41314SOL    HW125949   7.166  10.512   8.641  1.1437  1.4144 -0.0481
41314SOL    HW225950   7.297  10.437   8.639 -0.1611 -0.9722 -0.0297
41315SOL     OW25951   3.765   1.078   9.124  0.0339  0.1634 -0.2421
41315SOL    HW125952   3.817   1.005   9.090 -0.7038  0.1471 -1.3813
41315SOL    HW225953   3.798   1.154   9.075 -1.5349  0.0259 -1.6036
41316SOL     OW25954  10.858   7.265  10.028  0.2077  0.0107 -0.0794
41316SOL    HW125955  10.920   7.333  10.054 -1.5850  1.7898 -0.2109
41316SOL    HW225956  10.812   7.301   9.952 -2.9855  0.1072  1.7100
41317SOL     OW25957   5.009   5.577   0.102  0.0393  0.3096  0.1286
41317SOL    HW125958   5.067   5.586   0.027  1.2979  2.1696  1.2381
41317SOL    HW225959   4.959   5.497   0.085 -0.6668  1.3542 -3.2692
41318SOL     OW25960   1.676   4.697   4.782  0.6924  0.3750  0.0893
41318SOL    HW125961   1.765   4.733   4.778  1.3107 -1.1327 -0.2494
41318SOL    HW225962   1.655   4.675   4.692  0.8449 -1.2647  0.4218
41319SOL     OW25963   1.922   2.470   7.705  0.1519  0.1131  0.0795
41319SOL    HW125964   1.915   2.427   7.791 -0.4760 -1.6318 -0.8103
41319SOL    HW225965   2.012   2.453   7.678 -0.3212 -1.4315 -0.6308
41320SOL     OW25966   7.328   0.524   5.727  0.0687  0.0977  0.2633
41320SOL    HW125967   7.377   0.512   5.645 -0.4342  2.6962 -0.5231
41320SOL    HW225968   7.392   0.562   5.787  0.1618 -0.7867  0.7213
41321SOL     OW25969  10.846   4.118   6.333  0.0178 -0.8793  0.4025
41321SOL    HW125970  10.853   4.120   6.429 -2.0447  0.2860  0.5879
41321SOL    HW225971  10.937   4.117   6.303  0.7929  0.8345  2.3888
41322SOL     OW25972   3.815   8.906   7.524 -0.4157  0.2696  1.0086
41322SOL    HW125973   3.809   8.812   7.505 -0.7456  0.3845  0.5258
41322SOL    HW225974   3.724   8.938   7.517 -0.3456  0.5731  1.4442
41323SOL     OW25975   0.824   0.099   8.467  0.0091 -0.0134  0.1190
41323SOL    HW125976   0.816   0.101   8.372  3.1734 -1.6569 -0.2984
41323SOL    HW225977   0.799   0.010   8.492 -0.6951  0.3753  0.8523
41324SOL     OW25978   3.549   7.766   2.224 -0.5641 -0.1213  0.2497
41324SOL    HW125979   3.472   7.756   2.169  1.0213 -1.4760 -1.8585
41324SOL    HW225980   3.621   7.783   2.163  1.4354 -2.5017  1.7618
41325SOL     OW25981  10.379   6.629   9.616 -0.5930 -0.3585  0.2176
41325SOL    HW125982  10.463   6.613   9.573 -0.7906 -0.0367 -0.2996
41325SOL    HW225983  10.314   6.608   9.549 -0.9445 -1.0846  0.7717
41326SOL     OW25984   7.186   5.222   2.421 -0.4468 -0.7514 -0.1880
41326SOL    HW125985   7.218   5.133   2.433  1.4639 -0.2643 -1.2176
41326SOL    HW225986   7.212   5.268   2.501  0.5587 -0.6239 -0.5689
41327SOL     OW25987   0.339  10.670   2.904 -0.8488 -0.4724 -0.1441
41327SOL    HW125988   0.356  10.746   2.848 -2.1066  0.1604  0.2929
41327SOL    HW225989   0.245  10.676   2.924 -0.8317 -1.7921  0.4193
41328SOL     OW25990   3.410  10.652   9.819 -0.3073  0.5223  0.2818
41328SOL    HW125991   3.403  10.630   9.726  0.6495  2.9238 -0.4447
41328SOL    HW225992   3.485  10.711   9.824  1.4775 -1.7384  3.0771
41329SOL     OW25993   8.423   1.444   4.445  0.3318  0.1009 -0.3193
41329SOL    HW125994   8.359   1.515   4.443 -2.0159 -1.8852 -0.6689
41329SOL    HW225995   8.388   1.379   4.384  0.4932 -2.8299  2.4820
41330SOL     OW25996   0.856   4.011   5.673  0.4697  0.9909  0.0436
41330SOL    HW125997   0.817   3.989   5.757  0.5690  0.5439 -0.0246
41330SOL    HW225998   0.927   3.948   5.662 -0.3592  0.1987 -0.9643
41331SOL     OW25999   4.013   3.991   9.174 -0.3862 -0.2559 -0.0612
41331SOL    HW126000   3.974   3.916   9.218  1.4104 -1.8737 -1.0769
41331SOL    HW226001   3.989   3.981   9.082  0.8667 -0.2987 -0.4110
41332SOL     OW26002   7.714  10.699   8.027 -0.2575  0.2136  0.4307
41332SOL    HW126003   7.674  10.786   8.029 -3.3079 -1.0830 -0.1031
41332SOL    HW226004   7.685  10.661   7.944  0.9938 -1.3799  0.6650
41333SOL     OW26005   5.310   3.506   7.177 -0.0947  0.2990  0.0863
41333SOL    HW126006   5.341   3.594   7.200  0.9113  0.1272 -0.5390
41333SOL    HW226007   5.259   3.519   7.097 -1.3069  0.5188  0.8691
41334SOL     OW26008   0.198   0.851   5.947 -0.6295  0.5051  0.1720
41334SOL    HW126009   0.135   0.780   5.949 -0.6919  0.4928 -1.2060
41334SOL    HW226010   0.180   0.902   6.026 -1.2998 -0.3840  0.6065
41335SOL     OW26011   2.548  10.895   7.779 -0.0900  0.0197  0.4364
41335SOL    HW126012   2.558  10.964   7.714 -0.2849 -0.2403  0.1234
41335SOL    HW226013   2.457  10.902   7.807  0.1099  0.4004  0.9924
41336SOL     OW26014  10.359   9.172   5.156  0.0281 -0.1079 -0.1012
41336SOL    HW126015  10.275   9.130   5.173 -1.4420  2.3739 -0.6441
41336SOL    HW226016  10.355   9.199   5.064  0.8786  1.1047  0.1827
41337SOL     OW26017   5.866   8.812   8.502  0.3157  0.4124 -0.2149
41337SOL    HW126018   5.941   8.862   8.535  1.0335  0.7287 -2.1667
41337SOL    HW226019   5.894   8.783   8.415 -1.4528 -0.3495 -0.5596
41338SOL     OW26020   9.640   5.640   5.175 -0.6186  0.1499 -0.5810
41338SOL    HW126021   9.723   5.604   5.207  0.9252  2.3529 -1.8481
41338SOL    HW226022   9.576   5.570   5.190  1.5895 -1.9114 -0.2185
41339SOL     OW26023   3.655   1.896   3.718  0.5576 -0.8198 -0.1415
41339SOL    HW126024   3.564   1.913   3.692 -0.1364 -2.1254  1.2571
41339SOL    HW226025   3.648   1.825   3.782  2.3764  0.5170  1.6320
41340SOL     OW26026   8.672   3.372   0.781  0.3710  0.6613  0.3668
41340SOL    HW126027   8.588   3.375   0.736 -0.3270 -1.4151  1.4029
41340SOL    HW226028   8.653   3.405   0.869  0.6987  0.4809  0.5088
41341SOL     OW26029   5.443   6.623   9.095  0.0852 -0.0825  0.5289
41341SOL    HW126030   5.368   6.632   9.036  0.3059  1.4373  0.4236
41341SOL    HW226031   5.516   6.600   9.038 -0.1689 -0.9551  0.5464
41342SOL     OW26032  10.551   3.819   5.412  0.3628  0.9373 -0.0112
41342SOL    HW126033  10.469   3.847   5.371 -0.2897 -2.2135 -1.1456
41342SOL    HW226034  10.609   3.797   5.339  1.0041  0.0093  0.7499
41343SOL     OW26035   0.111   0.969   5.522 -0.2980 -0.2865 -0.4455
41343SOL    HW126036   0.055   0.997   5.596  1.5102 -0.3974  1.0448
41343SOL    HW226037   0.106   1.042   5.460 -1.4568  0.0521  0.0155
41344SOL     OW26038   2.816   4.912   5.873  0.7931 -0.3947 -0.0725
41344SOL    HW126039   2.902   4.878   5.848  0.9815 -0.0188  0.0538
41344SOL    HW226040   2.760   4.894   5.798  1.8463  2.6556 -1.7608
41345SOL     OW26041   5.524   4.254   3.247  0.4993 -0.0540 -0.0835
41345SOL    HW126042   5.449   4.202   3.277  1.7392 -1.3916  0.8953
41345SOL    HW226043   5.487   4.320   3.190 -1.8266  1.3302  2.7763
41346SOL     OW26044   5.900   0.722   7.685 -0.0180  0.0818  0.2800
41346SOL    HW126045   5.855   0.804   7.707  1.3065  0.7098  0.7746
41346SOL    HW226046   5.904   0.722   7.589 -3.6090 -1.4424 -0.0249
41347SOL     OW26047   9.349   8.629   2.566  0.4189 -0.0127  0.5204
41347SOL    HW126048   9.351   8.666   2.655 -2.8759  0.5248  0.4640
41347SOL    HW226049   9.368   8.536   2.579  1.4464  0.2991  1.5511
41348SOL     OW26050   9.371   9.154   3.799  0.1723 -0.0303 -0.2948
41348SOL    HW126051   9.345   9.163   3.891 -0.2940  0.1657 -0.4421
41348SOL    HW226052   9.301   9.103   3.759  0.9495 -1.1449 -0.2956
41349SOL     OW26053   2.853   8.290   6.581  0.5114  0.8842  0.2591
41349SOL    HW126054   2.860   8.311   6.488 -0.0058 -0.5885 -0.1285
41349SOL    HW226055   2.910   8.354   6.624  2.0706  0.5632 -1.2208
41350SOL     OW26056   4.321   9.808   2.483 -0.6923  0.1100  0.0399
41350SOL    HW126057   4.283   9.886   2.442 -0.4453  0.7646  1.0108
41350SOL    HW226058   4.334   9.833   2.575  0.9895 -0.4888  0.0033
41351SOL     OW26059   0.807   3.078   7.447 -0.2723 -0.2126 -0.0470
41351SOL    HW126060   0.829   3.072   7.354 -1.0881  0.2765 -0.2803
41351SOL    HW226061   0.892   3.087   7.491  0.0400  2.6321 -1.0056
41352SOL     OW26062   7.631   3.928   9.550  0.1416  0.3085 -0.0377
41352SOL    HW126063   7.601   3.898   9.636  1.1061 -2.4211 -0.5558
41352SOL    HW226064   7.594   3.865   9.488  0.0247  1.8192 -1.5715
41353SOL     OW26065   3.761   7.218   9.382  0.0198  0.3714  0.2973
41353SOL    HW126066   3.753   7.240   9.475 -0.0212  0.1399  0.3484
41353SOL    HW226067   3.763   7.303   9.338 -0.0407  0.4811  0.5031
41354SOL     OW26068   6.823  10.409   1.054  0.2637 -0.1875 -0.8246
41354SOL    HW126069   6.834  10.359   1.135 -0.3233  0.1908 -0.5122
41354SOL    HW226070   6.736  10.447   1.060  0.8184  1.1519 -0.9015
41355SOL     OW26071   7.265   2.031   5.239  0.2357 -0.5097  0.2577
41355SOL    HW126072   7.276   2.044   5.334  1.3482 -0.0520  0.0761
41355SOL    HW226073   7.230   2.114   5.208 -1.1557 -1.0165  0.4090
41356SOL     OW26074   3.509   7.561   2.405  0.0826  0.2758 -0.0347
41356SOL    HW126075   3.590   7.588   2.449 -0.8056 -0.2513  2.0811
41356SOL    HW226076   3.494   7.628   2.338 -0.6710  3.7741  3.2592
41357SOL     OW26077   3.424   2.020  10.475 -0.1730  0.5408 -0.7176
41357SOL    HW126078   3.490   1.981  10.419 -2.1095 -0.3878 -2.4695
41357SOL    HW226079   3.415   2.110  10.444  0.5588  0.8029 -0.1834
41358SOL     OW26080   4.677   8.213   0.526  0.1952  0.1656  0.3836
41358SOL    HW126081   4.725   8.282   0.480 -0.7212  2.7353  3.0263
41358SOL    HW226082   4.745   8.154   0.558  1.3423  1.7970  1.0757
41359SOL     OW26083   0.324   2.410   5.557  0.0998  0.6076 -0.3497
41359SOL    HW126084   0.345   2.488   5.506 -1.8617  1.5484  0.1701
41359SOL    HW226085   0.240   2.431   5.599  0.1768 -1.2787  0.8662
41360SOL     OW26086   6.351   7.553   3.571  0.3127 -0.4948 -0.3757
41360SOL    HW126087   6.410   7.572   3.644  0.9920 -1.1459 -0.7390
41360SOL    HW226088   6.263   7.552   3.610  0.5172  0.6593  0.1376
41361SOL     OW26089   3.183   5.983  10.489 -0.4193  0.7140 -0.1270
41361SOL    HW126090   3.210   5.944  10.573  0.2339  2.3147  0.4418
41361SOL    HW226091   3.264   5.985  10.437 -0.3681  1.5638 -0.0310
41362SOL     OW26092   2.190   7.627   5.080 -0.2591  0.0981  0.5666
41362SOL    HW126093   2.159   7.709   5.119 -2.7463 -1.6765  2.7772
41362SOL    HW226094   2.136   7.616   5.002  1.4259  1.3798 -0.8629
41363SOL     OW26095  10.531   6.388   8.474 -0.1015  0.2767 -0.1816
41363SOL    HW126096  10.624   6.372   8.488 -0.3849 -0.4931  0.9073
41363SOL    HW226097  10.522   6.483   8.482  0.4782  0.2822  0.4648
41364SOL     OW26098   4.723   5.128   2.427  0.1781 -0.1448  0.1220
41364SOL    HW126099   4.798   5.174   2.388  0.5078 -0.4108  0.4367
41364SOL    HW226100   4.652   5.192   2.424  0.7029  0.4866  0.8066
41365SOL     OW26101   7.627   5.687   4.865  0.1637  0.1099  0.7547
41365SOL    HW126102   7.544   5.731   4.849 -0.0430 -0.5866 -0.1678
41365SOL    HW226103   7.608   5.594   4.853  1.4241  0.0270 -1.1446
41366SOL     OW26104   2.042   2.298   6.612 -0.1211  0.4198 -0.4521
41366SOL    HW126105   2.015   2.351   6.538  2.1256  0.8332 -1.0560
41366SOL    HW226106   2.089   2.359   6.669  0.5132 -0.4526 -0.0275
41367SOL     OW26107   2.499   3.583   6.076  0.1075  0.0228  0.0153
41367SOL    HW126108   2.415   3.564   6.034  0.1591 -0.4207  0.1054
41367SOL    HW226109   2.483   3.664   6.125  0.0236  0.4951 -0.7763
41368SOL     OW26110   9.984   0.830  10.364  0.4944  0.3211 -0.1825
41368SOL    HW126111  10.019   0.840  10.275  0.8360 -1.5122 -0.2908
41368SOL    HW226112   9.893   0.800  10.350  0.8892 -1.0632  0.0414
41369SOL     OW26113   4.389   2.403   1.563  0.7095 -0.3381 -0.0734
41369SOL    HW126114   4.296   2.424   1.571  0.3204 -1.7309 -0.6246
41369SOL    HW226115   4.419   2.453   1.487  0.5966  0.6154  0.4842
41370SOL     OW26116   8.453   2.325   8.761  0.2460 -0.4704 -0.0050
41370SOL    HW126117   8.543   2.323   8.726  0.0348 -2.3646 -0.5281
41370SOL    HW226118   8.448   2.409   8.807  1.3454  1.0532 -2.4306
41371SOL     OW26119   2.763   7.177   8.042 -0.4609  0.1610 -0.0595
41371SOL    HW126120   2.816   7.153   7.966 -1.0948 -0.8167 -0.2130
41371SOL    HW226121   2.737   7.267   8.025  2.0145  1.0421  0.5445
41372SOL     OW26122  10.635   2.223   9.876 -0.7388  0.1440  0.0059
41372SOL    HW126123  10.629   2.130   9.896 -0.8483  0.4061  1.2391
41372SOL    HW226124  10.591   2.232   9.791  0.4268 -1.1105 -0.7877
41373SOL     OW26125   2.152  10.446   3.426 -0.0349 -0.0986  0.1756
41373SOL    HW126126   2.156  10.471   3.519  1.0679 -1.8071  0.6429
41373SOL    HW226127   2.093  10.370   3.425 -2.2072  1.4947 -0.9840
41374SOL     OW26128  10.969   3.740   8.940 -0.4239 -0.0723  0.2627
41374SOL    HW126129  10.968   3.655   8.897  2.5529 -0.8107  1.4028
41374SOL    HW226130  10.882   3.776   8.925 -0.9787 -2.2130 -2.3968
41375SOL     OW26131   5.352   8.764   7.477  0.4654 -0.6967 -0.4870
41375SOL    HW126132   5.420   8.779   7.542 -1.1118 -0.4393  1.1987
41375SOL    HW226133   5.320   8.676   7.496 -1.8488  0.3614  0.9868
41376SOL     OW26134   8.824   8.440   2.450 -0.3489 -0.1665 -0.0189
41376SOL    HW126135   8.798   8.358   2.492 -1.1594  0.1689  0.1554
41376SOL    HW226136   8.773   8.507   2.495 -1.0369  0.2374 -1.3476
41377SOL     OW26137   8.264   0.218   9.792  0.4481 -0.5974 -0.4196
41377SOL    HW126138   8.296   0.263   9.870  1.9152 -0.7698 -0.8853
41377SOL    HW226139   8.341   0.172   9.758 -0.0013 -0.0163 -2.3169
41378SOL     OW26140   1.895   4.955   1.555 -0.2002 -0.1040 -0.2749
41378SOL    HW126141   1.911   4.871   1.599 -0.6480 -1.5672 -2.7258
41378SOL    HW226142   1.835   4.934   1.484 -0.5545  2.3856 -0.8079
41379SOL     OW26143   2.255   5.345   1.019  0.6639  0.6924 -0.4430
41379SOL    HW126144   2.200   5.291   1.074  0.6665 -0.7763 -1.8091
41379SOL    HW226145   2.336   5.295   1.009  0.1492  0.1962 -2.8675
41380SOL     OW26146   3.531   6.156   3.311  0.2098 -0.0189  0.3970
41380SOL    HW126147   3.515   6.233   3.366  1.1757 -0.4111  1.2655
41380SOL    HW226148   3.551   6.086   3.373  0.0336 -0.8067 -0.4116
41381SOL     OW26149   2.891   4.992   1.200 -0.6338  0.4233  0.2423
41381SOL    HW126150   2.933   4.945   1.128  1.0247  1.6925  0.3287
41381SOL    HW226151   2.915   4.943   1.279 -0.9866  0.0311  0.1105
41382SOL     OW26152   9.360   0.120   0.287  0.8182 -0.6439  0.1244
41382SOL    HW126153   9.401   0.200   0.255 -0.0118  0.0131  0.6766
41382SOL    HW226154   9.423   0.051   0.266  1.8904  0.2457  0.3334
41383SOL     OW26155   2.461   9.921  10.351 -0.1055 -0.2642  0.0767
41383SOL    HW126156   2.516   9.928  10.272  0.6222 -0.7825  0.5188
41383SOL    HW226157   2.434   9.829  10.352 -0.8707 -0.0428 -0.0547
41384SOL     OW26158   2.054   8.452  11.020  0.1704 -0.6289 -0.2658
41384SOL    HW126159   2.058   8.397  11.098  1.3798  0.8971  0.8234
41384SOL    HW226160   1.998   8.525  11.045  0.0140 -0.4576 -1.0787
41385SOL     OW26161   9.904   1.968   7.349 -0.7525 -0.1808 -0.1967
41385SOL    HW126162   9.970   1.928   7.406 -1.6618 -1.1522  0.2110
41385SOL    HW226163   9.852   1.894   7.317 -0.4743  0.3659 -2.0645
41386SOL     OW26164   8.726   2.941   4.908 -0.7049  0.1236  0.3419
41386SOL    HW126165   8.768   2.871   4.958 -0.8405 -0.8564 -0.8874
41386SOL    HW226166   8.632   2.926   4.919 -0.7531 -0.9001 -1.2595
41387SOL     OW26167   9.991   5.250   5.865 -0.1885 -0.7065  0.3431
41387SOL    HW126168   9.936   5.187   5.912 -0.2218 -0.3702  0.7566
41387SOL    HW226169  10.080   5.228   5.890 -0.1699 -0.8650  0.1446
41388SOL     OW26170   7.008   2.157   6.432  0.2348  0.0323  0.2648
41388SOL    HW126171   7.020   2.139   6.339 -1.9173 -0.7746  0.1077
41388SOL    HW226172   7.047   2.081   6.477 -2.2106 -1.5635 -0.1586
41389SOL     OW26173   1.421  10.247   9.198  0.0713  0.0899  0.1091
41389SOL    HW126174   1.429  10.329   9.248  1.6348  1.0315 -1.5934
41389SOL    HW226175   1.327  10.239   9.183 -0.2354  0.9046  1.3571
41390SOL     OW26176   6.475   4.745   2.081 -0.0309 -0.4954 -0.2176
41390SOL    HW126177   6.426   4.662   2.087 -0.6027 -0.0640  2.6077
41390SOL    HW226178   6.521   4.751   2.165  1.2456  1.3402 -0.9888
41391SOL     OW26179  10.010   8.075   8.781 -0.1144  0.3906 -0.8083
41391SOL    HW126180   9.977   7.987   8.768 -2.3296  1.3267 -2.0764
41391SOL    HW226181   9.977   8.101   8.867  0.6169 -0.0043 -0.3938
41392SOL     OW26182   1.288   7.901   9.019  0.1633 -0.0202  0.0954
41392SOL    HW126183   1.285   7.952   9.100 -1.3426 -0.1842  0.1729
41392SOL    HW226184   1.303   7.965   8.950 -1.8961  0.6216  0.1699
41393SOL     OW26185  10.564   7.557   9.618  0.7890 -0.1421 -0.4237
41393SOL    HW126186  10.507   7.511   9.556 -0.7727 -0.5217  1.2081
41393SOL    HW226187  10.506   7.582   9.690  2.0904  2.1824 -0.0698
41394SOL     OW26188   6.472   2.070   4.415 -0.2515 -0.3939  0.3142
41394SOL    HW126189   6.497   2.162   4.425 -1.9093  0.0971  0.2628
41394SOL    HW226190   6.410   2.055   4.486 -1.9991 -0.6919 -1.2202
41395SOL     OW26191   9.216   2.909   1.447  0.4987 -0.4571 -0.1580
41395SOL    HW126192   9.126   2.919   1.475  0.4644  2.0529 -0.9559
41395SOL    HW226193   9.263   2.980   1.489  1.9448 -1.2033 -0.4412
41396SOL     OW26194  10.823   1.058   2.785 -0.2844  0.2881  0.2603
41396SOL    HW126195  10.770   0.989   2.825  0.1376  0.2984  0.8433
41396SOL    HW226196  10.772   1.086   2.709 -1.2084  0.4094  0.8995
41397SOL     OW26197   1.251   3.914   0.176  0.3798  0.0182 -0.0679
41397SOL    HW126198   1.200   3.995   0.179 -0.9517 -0.7986  0.1684
41397SOL    HW226199   1.201   3.856   0.118 -0.3483 -1.6925  2.1139
41398SOL     OW26200   2.715   7.696   2.254  0.3729 -0.0148  0.0582
41398SOL    HW126201   2.698   7.778   2.208 -0.3930  0.0372  0.4278
41398SOL    HW226202   2.695   7.716   2.346 -2.1968 -1.2603 -0.1488
41399SOL     OW26203  10.401   9.500   6.351  0.3928 -0.2071  0.0529
41399SOL    HW126204  10.383   9.421   6.300 -1.5404  0.4882 -0.4422
41399SOL    HW226205  10.495   9.497   6.369  0.6232 -1.8418 -1.2311
41400SOL     OW26206   2.227   8.962   2.125  0.0345 -0.2813 -0.6234
41400SOL    HW126207   2.148   8.914   2.149 -2.3232  2.3541 -2.5341
41400SOL    HW226208   2.213   8.990   2.035  1.7095  2.9570 -0.0466
41401SOL     OW26209   8.971   8.136   3.223  0.7213  0.1536 -0.2698
41401SOL    HW126210   8.984   8.061   3.164 -0.7151 -0.2291 -0.1395
41401SOL    HW226211   8.965   8.097   3.310  1.1738  0.5581 -0.0498
41402SOL     OW26212   8.232   9.160   0.378  0.7718  0.0084 -0.4616
41402SOL    HW126213   8.322   9.186   0.398  0.2453  0.5906  1.3307
41402SOL    HW226214   8.219   9.079   0.427  0.9387 -1.2582 -2.3892
41403SOL     OW26215   4.744  10.220   1.420  0.5611 -0.2644  0.0565
41403SOL    HW126216   4.747  10.295   1.361  1.6308 -1.1032 -0.9912
41403SOL    HW226217   4.663  10.174   1.396 -1.1922  1.5372  2.0444
41404SOL     OW26218   5.652   9.075   0.854  0.1237 -0.5226 -0.4692
41404SOL    HW126219   5.624   9.096   0.764  0.0182 -1.7300 -0.7293
41404SOL    HW226220   5.615   8.989   0.871 -0.5954  0.0535  1.0666
41405SOL     OW26221   3.319   0.673   6.819 -0.3748  0.5924 -0.0032
41405SOL    HW126222   3.404   0.665   6.777  0.2032  1.7251  0.9208
41405SOL    HW226223   3.337   0.714   6.904 -1.8790  1.2518  0.0286
41406SOL     OW26224   9.828   4.715   9.687 -0.3818 -0.3551  0.5550
41406SOL    HW126225   9.869   4.644   9.638  0.2403 -0.4606  1.2195
41406SOL    HW226226   9.856   4.702   9.777  0.4221  1.2059  0.5590
41407SOL     OW26227   0.665   5.836   7.692  0.3967  0.6414 -0.1761
41407SOL    HW126228   0.731   5.800   7.752  0.8002 -1.0651 -1.5499
41407SOL    HW226229   0.594   5.864   7.749  1.5286  0.8033  1.2214
41408SOL     OW26230   0.735   3.249   5.307  0.2712 -0.3698  0.2183
41408SOL    HW126231   0.734   3.320   5.243 -0.5210  0.3142  0.9586
41408SOL    HW226232   0.658   3.265   5.361  1.1980 -0.6102  1.6789
41409SOL     OW26233   4.771   8.850   1.914  0.2051 -0.6005  0.1967
41409SOL    HW126234   4.820   8.870   1.835 -0.5054 -0.0207 -0.1081
41409SOL    HW226235   4.687   8.816   1.883 -0.6356  0.9650  0.6569
41410SOL     OW26236   8.987   0.681   7.637 -0.0024  0.4003 -0.0196
41410SOL    HW126237   8.897   0.677   7.672  0.1991 -1.1178  0.4352
41410SOL    HW226238   9.029   0.602   7.672  0.4983 -0.7784 -2.9660
41411SOL     OW26239   6.704   2.687   2.983  0.0533 -0.1187 -0.4140
41411SOL    HW126240   6.608   2.690   2.978  0.0564 -0.3493 -0.6250
41411SOL    HW226241   6.726   2.595   2.969  0.1824 -0.4865  1.8107
41412SOL     OW26242   2.605   0.327   0.191 -0.1255  0.8845 -0.4606
41412SOL    HW126243   2.590   0.260   0.124 -0.0982 -1.1107  1.4424
41412SOL    HW226244   2.684   0.373   0.162  1.8434 -2.0982 -0.2118
41413SOL     OW26245   7.767   2.493   3.392  0.3336  0.2387 -0.1269
41413SOL    HW126246   7.764   2.412   3.444 -0.4779 -0.7263 -1.5927
41413SOL    HW226247   7.730   2.560   3.449  0.6552 -0.5029  0.9814
41414SOL     OW26248   0.011   1.145   0.970  0.6906  0.2671 -1.1330
41414SOL    HW126249   0.040   1.172   0.883 -0.5964  0.5860 -1.4789
41414SOL    HW226250  -0.001   1.226   1.019  0.0038  0.1714 -1.1294
41415SOL     OW26251   4.712   8.940   0.619  0.3151  0.0017 -0.2125
41415SOL    HW126252   4.795   8.925   0.574 -0.0305 -2.3473 -0.1853
41415SOL    HW226253   4.645   8.916   0.555 -0.3667  1.7889 -0.2051
41416SOL     OW26254   2.619   2.823   6.637  0.4910 -0.0122  0.2140
41416SOL    HW126255   2.622   2.878   6.715  0.5553  0.2945 -0.0000
41416SOL    HW226256   2.591   2.882   6.567 -0.9538 -0.6016  0.2666
41417SOL     OW26257  10.756   6.397   6.806 -0.1448 -0.7743 -0.0167
41417SOL    HW126258  10.717   6.448   6.734  0.4466 -1.7284 -1.0490
41417SOL    HW226259  10.848   6.387   6.780 -0.2681 -2.4447  0.0835
41418SOL     OW26260   9.153   5.339   4.238  0.4930  0.2860 -0.8103
41418SOL    HW126261   9.217   5.386   4.185  1.1693  0.5116  0.1719
41418SOL    HW226262   9.089   5.406   4.263 -0.1418  0.0636 -1.7795
41419SOL     OW26263   5.699   2.006   1.342  0.4620  0.1092 -0.2846
41419SOL    HW126264   5.653   2.068   1.400  0.7738 -0.0132  0.1012
41419SOL    HW226265   5.655   2.015   1.258 -0.8612 -0.6479  0.2880
41420SOL     OW26266   5.689   5.295   0.664  0.1672 -0.2469  0.1924
41420SOL    HW126267   5.654   5.281   0.752 -0.5839  0.7871  0.0719
41420SOL    HW226268   5.722   5.385   0.664  1.5042 -0.7088 -0.1586
41421SOL     OW26269   5.153   1.305   3.128 -0.0796  0.5517  0.1031
41421SOL    HW126270   5.058   1.299   3.122 -0.0919 -1.1360  1.3478
41421SOL    HW226271   5.170   1.334   3.217  0.5730 -1.2360  0.6117
41422SOL     OW26272   7.603   3.191   2.661  0.0474  0.0231  0.0165
41422SOL    HW126273   7.517   3.197   2.619 -0.2684  2.4102  0.9007
41422SOL    HW226274   7.639   3.108   2.627 -3.6254 -2.5405  1.6583
41423SOL     OW26275   6.808   9.363   5.588 -0.2581  0.5829 -0.6583
41423SOL    HW126276   6.866   9.338   5.516  1.5199 -2.7843  1.6898
41423SOL    HW226277   6.720   9.349   5.553  0.5071 -0.1196 -2.4511
41424SOL     OW26278   1.514   3.804   9.674  0.1937 -0.7189 -0.0664
41424SOL    HW126279   1.475   3.757   9.600  0.4337 -1.5196  0.3032
41424SOL    HW226280   1.455   3.787   9.747  0.1389 -0.2170  0.0073
41425SOL     OW26281   9.954   4.103  10.156 -0.4730  0.3095 -0.1566
41425SOL    HW126282   9.945   4.096  10.060  0.7568 -2.8386 -0.1485
41425SOL    HW226283  10.048   4.102  10.171 -0.5778 -3.2216  1.1437
41426SOL     OW26284   4.238   5.844  10.327 -0.3359 -0.6936  0.2222
41426SOL    HW126285   4.214   5.935  10.344 -0.9391 -1.0041  1.0795
41426SOL    HW226286   4.155   5.799  10.312  0.0766 -0.6949 -2.4399
41427SOL     OW26287   2.463   4.425   4.432 -0.0699  0.3175  0.1297
41427SOL    HW126288   2.536   4.437   4.372  0.1962  0.3318  0.4521
41427SOL    HW226289   2.435   4.514   4.453 -0.2008  0.3115 -0.0155
41428SOL     OW26290   7.819   9.012  10.949 -0.1151 -0.4900 -0.4758
41428SOL    HW126291   7.758   9.068  10.997 -1.0802 -0.6152 -1.5427
41428SOL    HW226292   7.804   8.924  10.985  1.1229 -0.1806  0.9186
41429SOL     OW26293   3.042   5.485   8.317  0.1304 -0.2969 -0.2549
41429SOL    HW126294   3.088   5.508   8.237 -0.9142  0.5218 -0.6495
41429SOL    HW226295   2.950   5.482   8.292 -0.7045  3.4419  1.5359
41430SOL     OW26296   0.791   8.090   6.811  0.8096  0.0736 -0.0961
41430SOL    HW126297   0.726   8.065   6.876  0.3987  1.4465  0.0652
41430SOL    HW226298   0.868   8.113   6.861  0.5627  0.9246 -0.0876
41431SOL     OW26299   3.613   5.751   0.559 -0.3962 -0.0624 -0.6680
41431SOL    HW126300   3.602   5.840   0.591  0.2110  0.1429 -1.0045
41431SOL    HW226301   3.570   5.696   0.625 -2.1793  0.5701 -1.2656
41432SOL     OW26302   3.688   4.997  10.605 -0.2568  0.7029  0.0127
41432SOL    HW126303   3.659   5.008  10.696 -2.6950 -1.2919 -0.3961
41432SOL    HW226304   3.690   5.086  10.570  0.8850  1.5308  2.0114
41433SOL     OW26305   9.409   7.445   7.759  0.1847 -0.2467  0.1439
41433SOL    HW126306   9.392   7.412   7.847 -0.7330 -0.3327 -0.0554
41433SOL    HW226307   9.355   7.391   7.702 -1.0594  1.3236 -0.2309
41434SOL     OW26308   4.845   8.174  10.130  0.6752 -0.0169  0.1506
41434SOL    HW126309   4.776   8.117  10.096  0.5650  0.1812  0.0430
41434SOL    HW226310   4.901   8.116  10.181 -0.5408  0.1069  1.6990
41435SOL     OW26311   0.112   9.986   1.000  0.6509 -0.0934  0.4234
41435SOL    HW126312   0.133  10.047   0.929 -0.0039 -0.2134  0.1221
41435SOL    HW226313   0.181   9.920   0.996  1.0773  0.3479  0.4270
41436SOL     OW26314   0.895   4.220   9.322  0.3738  0.0128 -0.0618
41436SOL    HW126315   0.946   4.235   9.401  3.2249 -2.3182 -1.2323
41436SOL    HW226316   0.832   4.152   9.346  1.0191 -0.4625  0.3269
41437SOL     OW26317   0.158   1.523   6.181 -0.2434  0.4852  0.4697
41437SOL    HW126318   0.113   1.601   6.149 -0.4712  0.3217  0.3886
41437SOL    HW226319   0.105   1.450   6.149  0.3381  0.2718 -0.0232
41438SOL     OW26320   7.710   7.517   1.397 -0.4217 -0.0680 -0.5159
41438SOL    HW126321   7.667   7.568   1.329 -0.4180  0.8191  0.1358
41438SOL    HW226322   7.647   7.448   1.419 -1.5794  1.2726  0.5021
41439SOL     OW26323   6.220   1.896   6.387  0.6991 -0.5738  0.2316
41439SOL    HW126324   6.175   1.981   6.392  0.0431 -0.9327  0.5328
41439SOL    HW226325   6.313   1.917   6.400  0.4470  0.0035  1.2189
41440SOL     OW26326   8.870   0.845   1.886 -0.2905  0.3252 -0.2963
41440SOL    HW126327   8.928   0.857   1.961  0.3382  1.8643 -0.9830
41440SOL    HW226328   8.806   0.916   1.892  0.1734  0.8925 -1.5477
41441SOL     OW26329   3.765   2.201   6.190 -0.0026 -0.1499 -0.3144
41441SOL    HW126330   3.721   2.129   6.144 -2.1028  0.0920  1.1629
41441SOL    HW226331   3.795   2.163   6.272  0.3531  0.2929 -0.2329
41442SOL     OW26332  10.005   2.494   8.467 -0.2791  0.3170 -0.5318
41442SOL    HW126333  10.075   2.457   8.520 -0.4303 -0.3781 -0.8069
41442SOL    HW226334   9.928   2.441   8.489  0.2073 -1.8927 -3.4287
41443SOL     OW26335   1.532   3.647  10.200  0.3458  0.3244  0.4182
41443SOL    HW126336   1.530   3.689  10.286  0.2579 -2.0922  1.6877
41443SOL    HW226337   1.523   3.719  10.137 -0.2319  2.0961  2.4305
41444SOL     OW26338   8.199   3.514   0.633  0.4400  0.1364 -0.1935
41444SOL    HW126339   8.158   3.502   0.719  3.1046  0.1331  1.1859
41444SOL    HW226340   8.230   3.605   0.635  3.0394 -0.6748  0.1194
41445SOL     OW26341   7.686   5.496   0.131  0.3242 -0.9636 -0.5058
41445SOL    HW126342   7.620   5.514   0.063  0.1482  0.7927  0.0602
41445SOL    HW226343   7.763   5.466   0.083 -0.4737 -1.8286 -1.2878
41446SOL     OW26344   6.886   3.776   5.511 -0.7104  0.0148 -0.1387
41446SOL    HW126345   6.945   3.715   5.467  0.2442  0.2546  0.7578
41446SOL    HW226346   6.931   3.860   5.505 -1.4422  0.3947 -0.3066
41447SOL     OW26347   4.350  10.082   8.678  0.0849 -0.0801 -0.1435
41447SOL    HW126348   4.405  10.032   8.618  0.4620 -0.1899  0.2824
41447SOL    HW226349   4.372  10.047   8.765 -2.7886 -2.2379 -0.1389
41448SOL     OW26350   6.117   8.643   5.955 -0.0261 -0.2290 -0.6059
41448SOL    HW126351   6.046   8.631   6.017 -0.8686  0.5287 -1.4042
41448SOL    HW226352   6.077   8.634   5.869  0.6803  0.9187 -1.0943
41449SOL     OW26353   1.967   0.289   0.147  0.3209  0.3451 -0.4435
41449SOL    HW126354   1.875   0.293   0.172  0.1409 -0.2391 -0.9743
41449SOL    HW226355   1.966   0.257   0.057  1.1405 -2.7050  0.5165
41450SOL     OW26356   4.646   6.480   5.212  0.0241  0.3357  0.4959
41450SOL    HW126357   4.556   6.496   5.240  0.2001  0.0905  1.2139
41450SOL    HW226358   4.650   6.386   5.194  0.4097  0.1340  1.5314
41451SOL     OW26359   4.323   0.843  10.644  0.2360  0.0384 -0.4408
41451SOL    HW126360   4.312   0.825  10.551  2.0417  2.5850 -1.2586
41451SOL    HW226361   4.417   0.835  10.659 -0.0023 -0.1321  1.1463
41452SOL     OW26362   1.361   7.455   4.459 -0.2099 -0.2769  0.0644
41452SOL    HW126363   1.424   7.524   4.440 -0.0692 -0.2421  0.6407
41452SOL    HW226364   1.297   7.497   4.517  0.9779 -1.1322  2.1090
41453SOL     OW26365  10.183   0.801   7.133 -0.4890 -0.0812  0.2868
41453SOL    HW126366  10.131   0.758   7.201  0.1442 -1.4540 -0.0682
41453SOL    HW226367  10.202   0.732   7.070 -1.8586  1.3790 -1.8103
41454SOL     OW26368   8.152   3.161   8.462  0.4570 -0.1031 -0.3266
41454SOL    HW126369   8.149   3.225   8.391 -0.3167  0.5528  0.2905
41454SOL    HW226370   8.061   3.137   8.478  0.6815 -0.8180 -0.0542
41455SOL     OW26371   8.968  10.795   7.401  0.3662  0.0240  0.2386
41455SOL    HW126372   8.984  10.724   7.464 -0.5216 -1.0369 -0.6878
41455SOL    HW226373   8.948  10.871   7.456  0.0072 -0.7722  1.2538
41456SOL     OW26374   1.134   3.893   4.090 -0.0979  0.5938 -0.0751
41456SOL    HW126375   1.185   3.813   4.103  0.3641  1.0718  1.2538
41456SOL    HW226376   1.089   3.880   4.007 -0.4542 -1.2561  0.3762
41457SOL     OW26377   0.401   0.038   0.418 -0.0520  0.4579 -0.3754
41457SOL    HW126378   0.308   0.024   0.401 -0.2775  1.4410 -0.0660
41457SOL    HW226379   0.409   0.034   0.514  0.2844  0.0526 -0.4189
41458SOL     OW26380   7.829   1.671   2.963  0.2875 -0.0190 -0.2106
41458SOL    HW126381   7.844   1.614   3.039 -0.2501  0.0474 -0.0480
41458SOL    HW226382   7.776   1.743   2.998  0.2210  0.1238 -0.6075
41459SOL     OW26383   8.016   3.992   6.799  0.0940  0.0648  0.1534
41459SOL    HW126384   7.998   3.921   6.860 -1.0437 -0.6926 -1.0013
41459SOL    HW226385   7.930   4.030   6.780  0.2444 -0.4278 -1.7622
41460SOL     OW26386   3.382  10.412   7.009 -0.1680  0.1508 -1.3808
41460SOL    HW126387   3.422  10.344   7.062 -1.8006  0.3058  0.1742
41460SOL    HW226388   3.297  10.429   7.052 -0.4694  2.0772 -2.5899
41461SOL     OW26389   3.693   1.727   8.265  0.2820 -0.3752 -0.7794
41461SOL    HW126390   3.740   1.807   8.287 -0.7889  0.1965 -0.4822
41461SOL    HW226391   3.757   1.657   8.277  1.0449  0.3736 -0.3928
41462SOL     OW26392   8.592   1.189   1.233 -0.3568  1.0672 -0.4609
41462SOL    HW126393   8.581   1.221   1.323  0.4171 -0.2562  0.1403
41462SOL    HW226394   8.686   1.175   1.224 -0.6272 -1.0856 -0.6061
41463SOL     OW26395  10.308   6.990  10.239 -0.2193  0.0914  0.2703
41463SOL    HW126396  10.275   6.921  10.296  0.4444 -1.5212 -1.1768
41463SOL    HW226397  10.387   6.952  10.200 -0.3458  1.3221 -1.2777
41464SOL     OW26398   8.248   6.345   1.669  0.1272  0.4076 -0.1632
41464SOL    HW126399   8.311   6.278   1.643  0.1355  0.6582 -0.7910
41464SOL    HW226400   8.268   6.362   1.761  1.9211  1.5065 -0.7210
41465SOL     OW26401   5.931   0.421   5.656 -0.1736 -0.9051  0.0459
41465SOL    HW126402   5.999   0.397   5.719  1.6374 -2.4893 -2.3261
41465SOL    HW226403   5.950   0.513   5.636 -1.0369 -0.2483  2.0259
41466SOL     OW26404   1.947   2.079  10.349  0.8078 -0.2589  0.0455
41466SOL    HW126405   1.976   2.052  10.262  0.9328 -3.5784  0.9959
41466SOL    HW226406   1.854   2.058  10.351  0.5793  0.7409  0.4012
41467SOL     OW26407   2.800   7.153   3.034  0.3898  0.3937  0.0682
41467SOL    HW126408   2.782   7.059   3.031  2.0941  0.0181  0.5798
41467SOL    HW226409   2.834   7.174   2.947 -0.9517  0.8009 -0.4014
41468SOL     OW26410   2.213   1.661   3.776  0.6430  0.3841 -0.0074
41468SOL    HW126411   2.278   1.591   3.783  0.0565 -0.2391 -0.6290
41468SOL    HW226412   2.254   1.736   3.819  0.8931 -0.6027  1.5752
41469SOL     OW26413   9.527   3.355  10.773  0.1466 -0.0956 -0.5595
41469SOL    HW126414   9.490   3.400  10.849 -1.7065 -0.1153 -1.4085
41469SOL    HW226415   9.541   3.265  10.802 -0.1208  0.0032 -0.1157
41470SOL     OW26416   5.327   3.474   6.779  0.0948 -0.1395 -0.1882
41470SOL    HW126417   5.234   3.460   6.799  0.0287  1.7364  1.0001
41470SOL    HW226418   5.330   3.561   6.739  1.5154  0.5081  1.2597
41471SOL     OW26419   2.699   9.951   6.162 -0.5968 -0.1417 -0.0924
41471SOL    HW126420   2.733   9.951   6.252  1.8384  1.9431 -0.8808
41471SOL    HW226421   2.642  10.028   6.158  0.0271  0.3148 -0.5187
41472SOL     OW26422   1.036   5.196   5.245 -0.5128  0.8417 -0.2302
41472SOL    HW126423   1.102   5.168   5.181 -1.6834  0.7470 -1.4516
41472SOL    HW226424   1.000   5.277   5.208 -0.0103  1.7844  1.2242
41473SOL     OW26425   1.491   4.844   4.946  0.3441  0.4228 -0.2521
41473SOL    HW126426   1.540   4.780   4.894  1.2495 -1.7466  2.9892
41473SOL    HW226427   1.550   4.920   4.951  1.1090 -0.1229 -0.6733
41474SOL     OW26428   9.965   2.480  10.451 -1.0267  0.6028 -0.1562
41474SOL    HW126429  10.051   2.517  10.467 -0.5917 -0.7898  0.9022
41474SOL    HW226430   9.936   2.447  10.536 -0.7276 -2.7862 -1.2392
41475SOL     OW26431   3.955   9.381   2.872 -0.0220 -0.2635 -0.2722
41475SOL    HW126432   3.980   9.412   2.784  0.6337 -2.9799 -1.1395
41475SOL    HW226433   3.865   9.350   2.862  0.0484 -0.5638  0.0191
41476SOL     OW26434   3.430   6.040   2.907  0.2184  0.2336  0.3963
41476SOL    HW126435   3.433   5.945   2.896  0.9386  0.2096  0.7419
41476SOL    HW226436   3.522   6.067   2.902 -0.1135  1.2050 -2.2202
41477SOL     OW26437   8.108   6.480   8.810  0.2787 -0.0818 -0.5672
41477SOL    HW126438   8.171   6.542   8.845 -0.4332 -0.1910  0.9845
41477SOL    HW226439   8.114   6.491   8.715  0.8410  1.6838 -0.3668
41478SOL     OW26440   4.358   2.945   4.269  0.0208 -0.2253 -0.0074
41478SOL    HW126441   4.356   2.940   4.174  2.3660 -3.1787 -0.0377
41478SOL    HW226442   4.279   2.898   4.298 -0.3359  0.0917 -0.4497
41479SOL     OW26443   7.844   4.774   7.878 -0.1288 -0.2275 -0.1504
41479SOL    HW126444   7.936   4.785   7.903  0.1595 -2.4566 -0.0544
41479SOL    HW226445   7.812   4.864   7.868  1.8107  0.6299  0.6539
41480SOL     OW26446   7.347   9.644   1.841  0.3867 -0.5747  0.5486
41480SOL    HW126447   7.398   9.575   1.884 -0.0661 -0.7284  0.8483
41480SOL    HW226448   7.359   9.628   1.748  2.1195  0.3112  0.5825
41481SOL     OW26449   9.256   2.215   7.326  0.0410 -0.0697 -0.3087
41481SOL    HW126450   9.187   2.227   7.261  0.7638  1.0034 -0.9033
41481SOL    HW226451   9.217   2.247   7.408 -0.9631 -1.6794 -0.1174
41482SOL     OW26452   2.756   2.816  10.420 -0.2212  0.3701  0.2151
41482SOL    HW126453   2.827   2.808  10.356  2.5928  0.6381  3.0752
41482SOL    HW226454   2.736   2.910  10.422 -0.6264  0.3108 -0.4898
41483SOL     OW26455   5.166   5.080  10.782  0.8028  0.3370  0.1748
41483SOL    HW126456   5.133   5.023  10.851  1.4613 -0.2501  0.0092
41483SOL    HW226457   5.131   5.167  10.805 -2.3946 -0.5020 -0.9741
41484SOL     OW26458  11.005   7.570   7.557 -0.4914  0.0117 -0.6173
41484SOL    HW126459  10.985   7.636   7.490 -1.1935  0.3328 -0.1006
41484SOL    HW226460  11.041   7.496   7.508 -0.4582  0.4668 -1.2888
41485SOL     OW26461   3.266   7.129   0.992 -0.7192  0.8284  0.1069
41485SOL    HW126462   3.325   7.065   1.032  2.3155  2.1677 -1.8329
41485SOL    HW226463   3.184   7.082   0.981 -0.2910 -1.0506  3.3616
41486SOL     OW26464   4.870   0.078   9.223  0.3363  0.4196 -0.1298
41486SOL    HW126465   4.903   0.039   9.304 -2.9611  0.2812  1.3282
41486SOL    HW226466   4.826   0.158   9.250 -1.6334 -0.0673 -1.5609
41487SOL     OW26467   6.891   6.124   6.811  0.5513  0.1417  0.3843
41487SOL    HW126468   6.862   6.172   6.734  1.5898  0.2106  0.0335
41487SOL    HW226469   6.959   6.178   6.850  0.3495 -0.1063  1.1012
41488SOL     OW26470  10.645   3.192   9.340 -0.0100  0.5546 -0.7065
41488SOL    HW126471  10.625   3.266   9.284  1.6137 -0.7435 -3.1688
41488SOL    HW226472  10.725   3.218   9.386 -0.2588  0.8606 -0.4378
41489SOL     OW26473   3.920   6.314   8.862 -0.3072 -0.4455  0.0148
41489SOL    HW126474   3.966   6.231   8.862 -0.0961 -0.4250 -2.6696
41489SOL    HW226475   3.827   6.290   8.866 -0.2196 -0.6093  2.3679
41490SOL     OW26476  10.329   6.684   4.262  0.1447  0.4206 -0.7044
41490SOL    HW126477  10.299   6.711   4.348  0.1478 -0.1461 -0.5216
41490SOL    HW226478  10.373   6.761   4.226  0.8278  0.4271  0.1139
41491SOL     OW26479   2.097  10.362   2.695 -0.0741  0.3376 -0.5030
41491SOL    HW126480   2.111  10.318   2.611 -0.4965  1.1699 -1.0259
41491SOL    HW226481   2.102  10.292   2.760  0.7321 -0.2541 -1.1749
41492SOL     OW26482   9.667   8.571   0.970 -0.2541  0.3082  0.7985
41492SOL    HW126483   9.617   8.643   1.008  0.1392  1.4260 -0.7201
41492SOL    HW226484   9.615   8.493   0.989 -1.5136  1.1916  1.0798
41493SOL     OW26485  10.949   1.631   7.346  0.3945 -0.0329  0.7042
41493SOL    HW126486  10.869   1.662   7.388 -0.3547  0.4522 -0.9822
41493SOL    HW226487  10.958   1.540   7.374 -1.2374 -0.3578  0.2669
41494SOL     OW26488   8.023   3.827   6.217 -0.2638 -0.5019  0.2770
41494SOL    HW126489   8.025   3.908   6.167  0.1084 -1.4243 -1.2554
41494SOL    HW226490   7.930   3.808   6.228 -0.3569  0.1701  0.7529
41495SOL     OW26491   6.680  10.899   8.786  0.1102 -0.0009 -0.0598
41495SOL    HW126492   6.734  10.962   8.738 -0.9550 -0.0541 -1.3777
41495SOL    HW226493   6.742  10.831   8.813  0.9982  0.8104  0.0202
41496SOL     OW26494   7.977   6.549   9.680 -0.4085 -0.0640  0.0018
41496SOL    HW126495   7.905   6.486   9.687 -0.0596 -0.5534 -0.6991
41496SOL    HW226496   8.025   6.522   9.602 -0.2094  1.0397 -0.2725
41497SOL     OW26497   1.198   4.988   7.058  0.2648  0.2098 -0.1584
41497SOL    HW126498   1.111   4.979   7.095  0.5029 -1.6566  0.0691
41497SOL    HW226499   1.235   5.066   7.098 -1.4662  1.3053 -0.6355
41498SOL     OW26500   1.703   0.834   9.016  0.8232  0.1690  0.0042
41498SOL    HW126501   1.628   0.818   8.959  0.7316  1.7215 -0.3484
41498SOL    HW226502   1.741   0.747   9.030 -0.7297 -0.5882 -0.2065
41499SOL     OW26503   1.685   9.873   6.566  0.3446  0.1155  0.3125
41499SOL    HW126504   1.738   9.798   6.539  0.6856  0.2516  0.5947
41499SOL    HW226505   1.607   9.834   6.605  0.6173 -0.1011  0.6533
41500SOL     OW26506   1.772   1.365   5.523 -0.1710 -0.5658  0.5127
41500SOL    HW126507   1.810   1.382   5.609  1.2324 -1.4114  0.1093
41500SOL    HW226508   1.746   1.451   5.490  1.4228  0.0824  0.8391
41501SOL     OW26509   7.425   1.045   3.018  0.3357 -0.3415 -0.0680
41501SOL    HW126510   7.490   1.114   3.033  0.4990 -0.6085  0.4699
41501SOL    HW226511   7.461   0.967   3.060  0.3731 -0.8913 -1.0857
41502SOL     OW26512   9.846   4.785   5.269 -0.3007 -0.2291 -0.2263
41502SOL    HW126513   9.767   4.732   5.255 -0.5161  0.0007  0.0922
41502SOL    HW226514   9.915   4.739   5.221 -0.4716 -0.8275  0.0950
41503SOL     OW26515   6.379   3.930   9.901 -1.0631 -0.5076  0.1859
41503SOL    HW126516   6.424   3.901   9.821  1.7868  2.3597  0.5481
41503SOL    HW226517   6.446   3.923   9.969 -1.7643  1.9932  1.2161
41504SOL     OW26518   1.626  10.148   5.639  0.3964 -0.8695  0.4062
41504SOL    HW126519   1.692  10.180   5.700  0.1388 -0.3598  0.4148
41504SOL    HW226520   1.617  10.218   5.574 -0.0169 -1.0100  0.3111
41505SOL     OW26521   0.320   4.941   2.571 -0.7213 -0.4310 -0.3547
41505SOL    HW126522   0.271   5.018   2.541  0.3822  0.0243 -1.0656
41505SOL    HW226523   0.357   4.904   2.491 -1.5214 -1.9252 -0.0660
41506SOL     OW26524   1.968   6.526   1.080  0.1773 -0.2741  0.1433
41506SOL    HW126525   1.911   6.555   1.151  1.3208 -0.1562  1.0383
41506SOL    HW226526   2.056   6.539   1.113  0.8362  1.7602 -2.0449
41507SOL     OW26527  10.974   1.429   6.429  0.6607  0.2204 -0.1239
41507SOL    HW126528  11.063   1.394   6.435  0.2139 -1.1794 -1.2204
41507SOL    HW226529  10.930   1.374   6.364 -0.8608  1.2199 -0.0027
41508SOL     OW26530   5.166   0.038   1.524  0.2324 -0.6192  0.1293
41508SOL    HW126531   5.225  -0.008   1.584 -1.3201 -0.5205  1.7945
41508SOL    HW226532   5.178   0.130   1.544  0.1095 -0.5499 -0.1100
41509SOL     OW26533   8.466   4.582   3.112  0.3622 -0.3342  0.5281
41509SOL    HW126534   8.417   4.664   3.123 -0.5769 -1.0775  2.3935
41509SOL    HW226535   8.489   4.580   3.019  0.4677  2.0568  0.4324
41510SOL     OW26536  10.642   8.409   1.790 -0.0374  0.0750  0.2820
41510SOL    HW126537  10.689   8.392   1.872  0.6861 -0.1637 -0.1650
41510SOL    HW226538  10.710   8.438   1.729 -0.5435  0.1436 -0.2628
41511SOL     OW26539   2.297   4.395   0.623 -0.3635  0.6037  0.2608
41511SOL    HW126540   2.363   4.433   0.565 -0.8224 -0.1585 -0.7944
41511SOL    HW226541   2.213   4.417   0.582 -0.7876  1.3465  1.4521
41512SOL     OW26542   5.148   2.016   4.280  0.5084  0.2941 -0.3099
41512SOL    HW126543   5.143   2.097   4.332  0.6708 -1.0938  1.9816
41512SOL    HW226544   5.173   1.949   4.343  0.3869 -1.5654 -2.1636
41513SOL     OW26545  10.962   1.142   4.047  0.6627  0.3396  0.3452
41513SOL    HW126546  10.912   1.128   4.127 -1.4426 -0.3039 -0.9980
41513SOL    HW226547  10.956   1.236   4.032  3.4282  0.9584  2.2996
41514SOL     OW26548   6.476   5.763   0.631 -0.1248  0.6923 -0.3648
41514SOL    HW126549   6.415   5.725   0.694 -0.7068  1.0688 -0.6885
41514SOL    HW226550   6.559   5.769   0.678 -0.2863 -0.0065  0.0226
41515SOL     OW26551   2.099   1.154  10.906 -0.4083  0.1007  0.0512
41515SOL    HW126552   2.034   1.222  10.926 -1.6667 -1.3935  1.3445
41515SOL    HW226553   2.180   1.202  10.890 -1.2810  1.9163  0.7505
41516SOL     OW26554   4.260   5.152   8.066 -0.3723 -0.1397 -0.3995
41516SOL    HW126555   4.302   5.145   8.152  0.7186  1.9304 -0.7070
41516SOL    HW226556   4.168   5.168   8.086 -0.0959  0.5228  0.4214
41517SOL     OW26557   9.694  10.003   0.659 -0.0390 -0.3056 -0.8735
41517SOL    HW126558   9.646  10.039   0.584 -0.6218 -2.1255 -1.4356
41517SOL    HW226559   9.671   9.910   0.660 -0.4952 -0.2515  1.9145
41518SOL     OW26560   5.293   4.580   5.315  0.2224 -0.3515  0.1519
41518SOL    HW126561   5.265   4.657   5.363  0.7198 -1.6985  2.7827
41518SOL    HW226562   5.212   4.543   5.279 -0.1225  0.8544 -0.3442
41519SOL     OW26563   5.095   9.177   9.837  0.9394 -0.2974 -0.0607
41519SOL    HW126564   5.079   9.134   9.921 -0.6721 -0.3654 -0.3677
41519SOL    HW226565   5.030   9.138   9.778  1.5121  0.3331 -1.1293
41520SOL     OW26566  10.517   7.881   0.744  0.1663  0.0031 -0.1791
41520SOL    HW126567  10.604   7.849   0.719  0.9916  1.8563  0.1282
41520SOL    HW226568  10.530   7.921   0.830 -1.3145 -0.8921  0.4958
41521SOL     OW26569   6.344   7.515   6.333  0.0066  0.0880  0.0978
41521SOL    HW126570   6.277   7.558   6.386  0.6336  1.8771 -0.4876
41521SOL    HW226571   6.406   7.481   6.398 -0.6621 -0.2120  0.5937
41522SOL     OW26572  10.578   1.533   9.955 -0.5203 -0.2483  0.1738
41522SOL    HW126573  10.526   1.563   9.880 -1.5793  2.3944  1.8362
41522SOL    HW226574  10.513   1.504  10.019  0.0728  1.2964  1.5454
41523SOL     OW26575  10.153  10.398   7.887 -0.0223 -0.3682 -0.9741
41523SOL    HW126576  10.160  10.421   7.795  0.4004 -0.8455 -1.0659
41523SOL    HW226577  10.243  10.392   7.918 -0.1517 -0.6027 -0.6318
41524SOL     OW26578   6.455   5.389   7.193 -0.1300 -0.2551 -0.3642
41524SOL    HW126579   6.374   5.440   7.192 -1.0404 -1.4847  2.4490
41524SOL    HW226580   6.437   5.315   7.135 -0.5052  0.1621 -0.7952
41525SOL     OW26581   8.550   7.152   9.631 -0.1025 -0.1163  0.0873
41525SOL    HW126582   8.582   7.236   9.664  0.0639  0.3697 -1.2663
41525SOL    HW226583   8.524   7.169   9.540  0.8869 -1.7498 -0.5534
41526SOL     OW26584   4.423   3.729   6.609 -0.0499 -0.2086  0.1623
41526SOL    HW126585   4.355   3.715   6.544 -0.4498 -1.0938  0.7572
41526SOL    HW226586   4.380   3.775   6.681  0.7246  2.1019 -0.7848
41527SOL     OW26587   7.870   8.393   0.563 -0.2112  0.1296 -0.0201
41527SOL    HW126588   7.934   8.458   0.534 -0.5357  0.5348  0.1712
41527SOL    HW226589   7.886   8.317   0.507 -2.0889  1.5312 -2.6737
41528SOL     OW26590   2.134   5.558   7.321 -0.6612  0.1464 -0.2792
41528SOL    HW126591   2.226   5.582   7.325 -0.0205 -1.6628 -2.3330
41528SOL    HW226592   2.104   5.562   7.412  1.2965  1.2335  0.3671
41529SOL     OW26593   1.039   1.866   9.170 -0.6780 -0.1482 -0.0607
41529SOL    HW126594   1.095   1.833   9.240 -0.9641 -1.0794 -0.2579
41529SOL    HW226595   1.032   1.793   9.108 -0.5447  0.6165 -0.9927
41530SOL     OW26596   3.239   5.890   8.328 -0.2769 -0.1548 -0.0982
41530SOL    HW126597   3.171   5.933   8.380 -1.4401 -0.1047 -1.5956
41530SOL    HW226598   3.317   5.944   8.342 -1.1647  1.2398 -0.2776
41531SOL     OW26599   4.178   6.567   8.401 -0.7540 -0.4765 -0.8181
41531SOL    HW126600   4.223   6.649   8.383  0.2064 -0.9420 -0.5927
41531SOL    HW226601   4.203   6.544   8.490 -0.1105 -1.5581 -1.2481
41532SOL     OW26602   0.078   7.129   0.613  0.2129 -0.1706  0.0379
41532SOL    HW126603   0.173   7.143   0.610  0.1991 -0.1180 -0.1717
41532SOL    HW226604   0.041   7.212   0.583  0.0738  0.1979  1.1731
41533SOL     OW26605   9.041   1.023   3.362 -0.5332  0.2786  0.7854
41533SOL    HW126606   8.965   1.080   3.369 -0.3796  0.6479 -0.3090
41533SOL    HW226607   9.089   1.056   3.286  0.1347 -0.6331  0.7885
41534SOL     OW26608   8.192   3.319   0.876 -0.1245 -0.3585  0.0494
41534SOL    HW126609   8.273   3.338   0.922 -0.7778 -0.4019  1.2689
41534SOL    HW226610   8.214   3.250   0.814  0.5456 -1.1142  1.1053
41535SOL     OW26611   3.086   1.116   9.665 -0.2519  0.5446 -0.1984
41535SOL    HW126612   3.172   1.148   9.692 -0.4524 -0.0900  1.3065
41535SOL    HW226613   3.086   1.024   9.690 -1.7404  0.7824  0.8147
41536SOL     OW26614   7.224   3.964   9.403 -0.6761 -0.8355 -0.0978
41536SOL    HW126615   7.258   3.877   9.383 -0.1520 -0.2347 -2.0883
41536SOL    HW226616   7.286   4.024   9.363 -0.9112  0.4940  1.4250
41537SOL     OW26617  10.426   1.370   6.878 -0.2177 -0.4140 -0.3279
41537SOL    HW126618  10.455   1.356   6.788 -2.2451  0.1609 -1.1327
41537SOL    HW226619  10.478   1.308   6.930  1.4760 -0.2787 -1.7711
41538SOL     OW26620   3.173   9.117   5.324  0.3541 -0.4048  0.1539
41538SOL    HW126621   3.109   9.083   5.386 -1.2150  0.3459 -1.0022
41538SOL    HW226622   3.249   9.059   5.334  0.1540 -0.3732  2.6819
41539SOL     OW26623   7.688   3.649   1.478 -0.6772 -0.2666 -0.3483
41539SOL    HW126624   7.657   3.603   1.399  0.2031 -0.1503 -0.7685
41539SOL    HW226625   7.780   3.666   1.461 -0.9165  1.4264 -0.0775
41540SOL     OW26626   6.316   2.939   9.858  0.1025  0.1238  0.2348
41540SOL    HW126627   6.227   2.935   9.822 -0.0583  0.3548  0.5977
41540SOL    HW226628   6.360   3.006   9.806 -0.9258  2.4451  2.1337
41541SOL     OW26629  10.493   9.455   7.087  0.1969 -0.3428 -0.1217
41541SOL    HW126630  10.470   9.529   7.032 -1.2049 -0.3423  0.4267
41541SOL    HW226631  10.453   9.379   7.045  1.2909 -0.7500 -0.4692
41542SOL     OW26632   3.332  10.604   7.408  0.2738 -0.2432 -0.1273
41542SOL    HW126633   3.262  10.593   7.344 -0.2568  1.1657  0.1710
41542SOL    HW226634   3.357  10.515   7.432 -0.5647 -0.7799 -1.1522
41543SOL     OW26635   9.736   3.449   3.288  0.2629  0.6291 -0.0152
41543SOL    HW126636   9.801   3.455   3.218  0.8906 -2.6731  0.1499
41543SOL    HW226637   9.787   3.463   3.369  0.0497  1.6163 -0.0353
41544SOL     OW26638   8.579   3.814   7.435  0.3392  0.2326 -0.1152
41544SOL    HW126639   8.552   3.744   7.376  1.9262 -1.0560  0.5861
41544SOL    HW226640   8.598   3.769   7.518  2.6109  1.2502  0.0012
41545SOL     OW26641   5.756   2.203  10.002 -0.2522 -0.2778  0.0779
41545SOL    HW126642   5.780   2.128   9.946  1.5181  1.6206 -1.9208
41545SOL    HW226643   5.784   2.177  10.090  0.5628 -1.8578 -0.5933
41546SOL     OW26644   3.510   3.896   3.445 -0.1733  0.2251 -0.1844
41546SOL    HW126645   3.558   3.978   3.445 -0.3616  0.3343  0.7406
41546SOL    HW226646   3.522   3.862   3.356  2.2692 -0.1357  0.1975
41547SOL     OW26647   1.450   3.879   3.155  0.2889 -0.1937 -0.7114
41547SOL    HW126648   1.446   3.909   3.246 -0.6857  0.2844 -0.8984
41547SOL    HW226649   1.416   3.790   3.157 -1.2053  0.3473 -0.8111
41548SOL     OW26650   4.230  10.517   0.818 -0.6612 -0.2740 -0.7742
41548SOL    HW126651   4.205  10.428   0.845 -0.4407 -0.5939 -1.5809
41548SOL    HW226652   4.300  10.542   0.877 -0.2084 -0.9434 -1.0150
41549SOL     OW26653   8.603   8.829   5.069 -0.1427 -0.1344 -0.1287
41549SOL    HW126654   8.663   8.884   5.020  0.1860 -0.5176 -0.1633
41549SOL    HW226655   8.617   8.741   5.034 -1.8663 -0.0101 -1.2769
41550SOL     OW26656   4.090   7.682   1.859  0.2888 -0.2729  0.3000
41550SOL    HW126657   4.040   7.699   1.779  0.0099  0.2153  0.5723
41550SOL    HW226658   4.175   7.724   1.844  1.6054 -3.2098 -1.1817
41551SOL     OW26659   9.315  10.605   5.573  0.4036  0.0171  0.2540
41551SOL    HW126660   9.254  10.536   5.599 -0.7879  1.2307  0.8065
41551SOL    HW226661   9.290  10.627   5.483 -1.5224  2.0287  1.1979
41552SOL     OW26662   8.955   3.611   8.965  0.1415  0.5145  0.2097
41552SOL    HW126663   8.905   3.531   8.983 -0.8932  1.0904 -0.0488
41552SOL    HW226664   9.011   3.588   8.890  1.1259 -0.4776  1.1939
41553SOL     OW26665   6.425   4.384   5.011  0.5100  0.0586  0.2883
41553SOL    HW126666   6.502   4.440   5.013  0.1456  0.5427  1.5371
41553SOL    HW226667   6.363   4.427   5.070 -0.3778 -0.8036  0.0021
41554SOL     OW26668   3.339   3.614   0.698 -0.1985  0.5566  0.3034
41554SOL    HW126669   3.319   3.559   0.623 -1.0977  0.3974  0.6485
41554SOL    HW226670   3.295   3.571   0.772 -2.9363  2.9247  0.2246
41555SOL     OW26671   2.205  10.674   3.125  0.0848  0.4809 -0.1963
41555SOL    HW126672   2.174  10.608   3.063  0.3824  1.0742 -1.0061
41555SOL    HW226673   2.263  10.730   3.072 -0.2458  1.4470  0.4471
41556SOL     OW26674   1.133   3.917   4.907  0.2180 -0.2639  0.3160
41556SOL    HW126675   1.195   3.851   4.875  0.0584  0.2305 -1.0863
41556SOL    HW226676   1.162   3.937   4.996  1.8482 -0.2981 -0.1851
41557SOL     OW26677  10.963   2.829   6.169  0.3418 -0.1393  0.3521
41557SOL    HW126678  10.973   2.829   6.074  2.5833  0.1823  0.5356
41557SOL    HW226679  10.925   2.915   6.189 -2.6231 -1.1466 -0.3632
41558SOL     OW26680   1.992   0.725   8.402  0.2028 -0.7128 -0.4961
41558SOL    HW126681   2.041   0.755   8.325  0.6279 -2.0496 -0.7622
41558SOL    HW226682   1.901   0.721   8.371 -0.3987  2.8748  0.3136
41559SOL     OW26683   6.131   9.395   3.809  0.0869  0.0631 -0.4522
41559SOL    HW126684   6.038   9.409   3.792 -0.3065 -1.9649 -0.1937
41559SOL    HW226685   6.175   9.460   3.754 -1.4611  1.0669 -0.5728
41560SOL     OW26686   6.863   8.697   0.501  0.2648 -0.3207  0.1170
41560SOL    HW126687   6.773   8.677   0.475 -0.1717  0.1325  1.2095
41560SOL    HW226688   6.902   8.737   0.423 -1.1052  1.3343  0.2022
41561SOL     OW26689   4.467   9.483   3.656  0.4855 -0.3535 -0.0486
41561SOL    HW126690   4.478   9.388   3.650  0.1483 -0.4919  1.1563
41561SOL    HW226691   4.498   9.504   3.745 -0.7111  0.4618  0.1849
41562SOL     OW26692   1.962   8.015   8.918  0.0538 -0.5304  0.4987
41562SOL    HW126693   1.963   8.055   8.831  0.5581  1.6792  1.4658
41562SOL    HW226694   1.980   7.922   8.902  0.7403 -0.0605 -1.6979
41563SOL     OW26695   7.096  10.859   2.810 -0.1447  0.7799 -0.2040
41563SOL    HW126696   7.190  10.851   2.797 -0.3759 -0.7472 -1.2795
41563SOL    HW226697   7.086  10.905   2.893  1.5338  1.0488 -0.1258
41564SOL     OW26698   2.196   7.099   4.419  0.4624 -0.4057  0.2449
41564SOL    HW126699   2.214   7.153   4.341  1.2506  0.8898  1.2873
41564SOL    HW226700   2.278   7.052   4.434 -0.2154 -1.9410 -0.6467
41565SOL     OW26701   9.486  10.643   2.631 -0.0846  0.0969 -0.2199
41565SOL    HW126702   9.481  10.729   2.672  0.0498 -0.7832  1.8270
41565SOL    HW226703   9.396  10.610   2.634 -0.9581  1.5239 -4.4669
41566SOL     OW26704   4.873   8.237   5.127  0.1483  0.4950 -0.4595
41566SOL    HW126705   4.791   8.268   5.089  0.1487 -0.2524 -1.0844
41566SOL    HW226706   4.934   8.310   5.113 -0.0505  0.5289 -1.2402
41567SOL     OW26707   3.398   5.023   7.506 -0.3876  0.6276  0.2827
41567SOL    HW126708   3.445   5.103   7.529  0.5295  0.2290 -0.1383
41567SOL    HW226709   3.425   5.004   7.417 -0.9404  0.0851  0.2212
41568SOL     OW26710   2.228  10.292   8.434 -0.6407 -0.9175 -0.8037
41568SOL    HW126711   2.221  10.386   8.450  1.0862 -0.9101  0.0353
41568SOL    HW226712   2.195  10.251   8.514 -0.5556 -1.0234 -0.8225
41569SOL     OW26713   8.243   0.613   9.810  0.0845 -0.2424  0.2861
41569SOL    HW126714   8.178   0.626   9.878  0.9117 -0.1075  1.0680
41569SOL    HW226715   8.320   0.579   9.856  1.6625  2.5431 -0.1030
41570SOL     OW26716   5.705   0.402   8.064  0.0650  0.5051 -0.2244
41570SOL    HW126717   5.651   0.469   8.021  0.1371 -0.2462 -1.5402
41570SOL    HW226718   5.651   0.323   8.060  1.6342 -0.5479 -2.5874
41571SOL     OW26719   1.457   4.445  10.431  0.0442  0.3931  0.4907
41571SOL    HW126720   1.515   4.521  10.419  0.1346  0.5479  1.7881
41571SOL    HW226721   1.376   4.482  10.466  0.1545 -0.1212  1.2999
41572SOL     OW26722   3.392   5.223   3.782  0.0559  0.1672 -0.3123
41572SOL    HW126723   3.306   5.210   3.821 -0.0518 -0.4352 -0.7554
41572SOL    HW226724   3.448   5.159   3.826  0.2271  0.3775 -0.2174
41573SOL     OW26725   4.355   6.072   4.549 -0.1714 -0.1549  0.0497
41573SOL    HW126726   4.335   6.141   4.613 -1.6504 -0.9399  0.4716
41573SOL    HW226727   4.278   6.016   4.550  0.7426 -1.4635 -0.7712
41574SOL     OW26728   7.432   9.881   7.541  0.6435  0.3789  0.1065
41574SOL    HW126729   7.478   9.815   7.489 -0.1170  0.9017 -1.3103
41574SOL    HW226730   7.340   9.870   7.517  0.2306  0.4820  1.5698
41575SOL     OW26731   8.794  10.200   3.384  0.6607  0.0942  0.7693
41575SOL    HW126732   8.764  10.110   3.396  0.6690  0.2011  1.6481
41575SOL    HW226733   8.869  10.209   3.443  1.8256  0.1307 -0.6548
41576SOL     OW26734   4.240   7.081  11.030  0.5344  0.2859  0.6145
41576SOL    HW126735   4.219   7.158  10.977  1.6633 -0.0400 -0.3486
41576SOL    HW226736   4.155   7.048  11.059 -0.0929  0.6943 -0.6900
41577SOL     OW26737   4.293   2.925   1.401  0.6091 -0.5148 -0.2253
41577SOL    HW126738   4.226   2.931   1.469  1.7852  1.1745  0.8496
41577SOL    HW226739   4.368   2.973   1.437  0.8565  1.5506 -3.2097
41578SOL     OW26740   5.504   1.118   3.758  0.1810 -0.0695  0.0405
41578SOL    HW126741   5.599   1.119   3.770  0.2278 -0.3335 -0.2932
41578SOL    HW226742   5.490   1.153   3.670  0.0498 -1.0858 -0.3599
41579SOL     OW26743   9.875   7.780   6.682  0.2214  0.1625 -0.2118
41579SOL    HW126744   9.970   7.778   6.689  0.3015  0.5408 -1.1324
41579SOL    HW226745   9.856   7.756   6.591 -0.5528  0.2684 -0.0887
41580SOL     OW26746   5.367  10.492   7.992 -0.0094 -0.5233  0.3350
41580SOL    HW126747   5.294  10.446   7.950 -0.2172 -0.5455  0.7250
41580SOL    HW226748   5.334  10.518   8.077 -0.0291  0.7251 -0.0414
41581SOL     OW26749   2.876  10.580   4.005  0.3556  0.4164  0.5499
41581SOL    HW126750   2.935  10.541   4.070  0.3476 -2.0312 -0.8015
41581SOL    HW226751   2.932  10.633   3.949  0.7984  0.3474  0.9287
41582SOL     OW26752   6.558   6.888   6.224 -0.3167 -0.0456  0.0804
41582SOL    HW126753   6.530   6.809   6.178 -0.0896  0.8031 -1.5864
41582SOL    HW226754   6.492   6.954   6.202 -0.3925  0.2972  1.2784
41583SOL     OW26755   3.636  10.487   2.715  0.3119  0.3116 -0.0891
41583SOL    HW126756   3.691  10.566   2.710 -0.2224  0.6603 -0.7232
41583SOL    HW226757   3.648  10.455   2.804 -0.9569  2.2124  0.8239
41584SOL     OW26758   9.477   5.750   4.229 -0.1500 -0.6364  0.5802
41584SOL    HW126759   9.389   5.742   4.267 -0.2759  0.9779  0.7244
41584SOL    HW226760   9.462   5.756   4.135 -0.1242 -1.1694  0.5408
41585SOL     OW26761   8.635  10.971   4.303  0.2276 -0.2970  0.5125
41585SOL    HW126762   8.665  11.002   4.389 -0.0807  1.3049  0.0718
41585SOL    HW226763   8.688  11.019   4.240 -0.2467 -0.7032 -0.2134
41586SOL     OW26764   1.877   5.340   7.399  0.1527 -0.2597  0.5209
41586SOL    HW126765   1.812   5.298   7.343  0.3047 -0.2391  0.3281
41586SOL    HW226766   1.835   5.421   7.428  0.4995  0.2963 -0.4983
41587SOL     OW26767   6.534   5.738   3.220  0.5536  0.0621  0.3725
41587SOL    HW126768   6.552   5.724   3.313 -0.9734  0.9849  0.8407
41587SOL    HW226769   6.443   5.711   3.208  1.2000 -1.6630 -1.2623
41588SOL     OW26770   2.544   1.500   4.841  0.2243  0.4055 -0.6495
41588SOL    HW126771   2.534   1.456   4.756  1.3709 -0.7190 -0.2196
41588SOL    HW226772   2.605   1.572   4.824 -2.1789  2.4031 -1.5119
41589SOL     OW26773   0.597   8.002   9.489  0.4540  0.0530  0.5823
41589SOL    HW126774   0.653   7.928   9.466  0.2208 -0.2061  0.8324
41589SOL    HW226775   0.509   7.964   9.493  0.1632  0.5819 -0.4283
41590SOL     OW26776   8.632   6.054   8.516 -0.0473 -0.5463 -0.0125
41590SOL    HW126777   8.539   6.034   8.503 -0.4773 -0.4366  2.4311
41590SOL    HW226778   8.673   5.969   8.532 -0.1635 -0.4179  1.0677
41591SOL     OW26779   0.861   8.807   9.304 -0.2829 -0.5862 -0.3813
41591SOL    HW126780   0.928   8.741   9.285 -0.9944 -1.9411  1.5752
41591SOL    HW226781   0.867   8.821   9.398 -1.4879  0.7189 -0.4694
41592SOL     OW26782   4.280   8.333   0.499  0.1827 -0.2880  0.5962
41592SOL    HW126783   4.373   8.312   0.496  0.6561  1.4579  1.7659
41592SOL    HW226784   4.243   8.270   0.561  0.8612 -0.1075  1.2015
41593SOL     OW26785   2.170   6.390   7.071 -0.8774 -0.0950 -0.3848
41593SOL    HW126786   2.113   6.313   7.062 -2.0835  0.8092 -0.7280
41593SOL    HW226787   2.126   6.459   7.021 -0.6780  1.2878  1.2622
41594SOL     OW26788  10.273   6.195   9.605 -0.4976  0.0552 -0.2061
41594SOL    HW126789  10.231   6.139   9.540 -0.8279  1.9739 -1.7373
41594SOL    HW226790  10.200   6.235   9.653 -0.5776  2.5528 -2.1534
41595SOL     OW26791   5.494   2.970   8.899  0.9072  0.3971  0.1200
41595SOL    HW126792   5.458   3.051   8.862  1.1098  0.1730 -0.5788
41595SOL    HW226793   5.548   2.934   8.829  0.5953 -0.4895  0.3281
41596SOL     OW26794   7.481   7.133   7.086 -0.0409  0.0552 -0.0258
41596SOL    HW126795   7.416   7.126   7.017  0.7484  2.1970 -1.0469
41596SOL    HW226796   7.452   7.070   7.152 -1.4972 -1.1472 -1.7249
41597SOL     OW26797   2.702   9.687   8.712 -0.1161 -0.2295 -0.1320
41597SOL    HW126798   2.636   9.721   8.652 -1.1042  1.8040  1.9575
41597SOL    HW226799   2.654   9.664   8.791  1.4456 -0.1875  0.8871
41598SOL     OW26800   5.235   3.424   7.787  0.0276  0.0649 -0.0658
41598SOL    HW126801   5.173   3.436   7.715 -0.0422 -0.6442 -0.1292
41598SOL    HW226802   5.281   3.507   7.793  0.2679  0.0243 -1.1611
41599SOL     OW26803   8.435   2.200   2.231 -0.1773  0.0558  0.1699
41599SOL    HW126804   8.393   2.145   2.165  1.4267 -0.3330 -0.5603
41599SOL    HW226805   8.417   2.156   2.314 -3.3677  1.2542  0.2463
41600SOL     OW26806   3.946   7.155   1.614 -0.5551 -0.5398 -0.0758
41600SOL    HW126807   4.003   7.109   1.675  2.0596  0.4757 -1.5866
41600SOL    HW226808   3.936   7.243   1.652 -1.5124 -0.8339  0.3873
41601SOL     OW26809   3.278   0.513   8.032  0.1288  0.3011 -0.0479
41601SOL    HW126810   3.228   0.475   8.105  3.3859 -0.0793  2.1955
41601SOL    HW226811   3.296   0.603   8.060  2.1125 -0.0969  0.0956
41602SOL     OW26812   9.665  10.951   0.870  0.4621  0.0364 -0.0420
41602SOL    HW126813   9.582  10.938   0.915  1.7458 -0.2903  2.4641
41602SOL    HW226814   9.651  11.027   0.815 -1.4587  0.0592  0.4141
41603SOL     OW26815   2.136   9.507   7.499  0.3326  0.1469  0.4776
41603SOL    HW126816   2.133   9.442   7.569 -0.7411 -0.7786 -0.3907
41603SOL    HW226817   2.207   9.478   7.442  0.4395  0.2568  0.5507
41604SOL     OW26818   2.452   9.947   6.517 -0.4376 -0.2793  0.7596
41604SOL    HW126819   2.402   9.876   6.475 -1.3477  1.2412 -0.9096
41604SOL    HW226820   2.389   9.988   6.576 -0.3851  0.0693  0.5735
41605SOL     OW26821   1.904   8.279   1.273 -0.0612 -0.0926  0.2023
41605SOL    HW126822   1.999   8.285   1.280 -0.1480  1.1960  0.5065
41605SOL    HW226823   1.884   8.303   1.183 -0.1507  0.7603  0.4313
41606SOL     OW26824   0.490   6.146   0.039  0.5338  0.7974 -0.3152
41606SOL    HW126825   0.582   6.142   0.066  0.6559  1.6910 -0.5792
41606SOL    HW226826   0.449   6.206   0.102  0.4556  1.5694 -1.0914
41607SOL     OW26827   9.415   3.757   9.307  0.5163  0.5453 -0.1325
41607SOL    HW126828   9.498   3.805   9.304  0.2620  1.0415  0.4597
41607SOL    HW226829   9.349   3.825   9.323  0.0928  0.0574  0.2065
41608SOL     OW26830   9.985   7.153   9.236 -0.4185 -0.1967 -0.0251
41608SOL    HW126831  10.028   7.073   9.205 -0.0949 -0.6600  1.5265
41608SOL    HW226832   9.893   7.129   9.242 -0.2850 -0.5592  0.6970
41609SOL     OW26833   5.344   3.700   3.023  0.6771 -0.0595 -0.8264
41609SOL    HW126834   5.342   3.626   2.963  2.0828 -0.3522 -0.5400
41609SOL    HW226835   5.398   3.671   3.096 -0.5084  0.5100  0.3089
41610SOL     OW26836   4.123  10.763   1.749  0.3279  0.0326 -0.3184
41610SOL    HW126837   4.043  10.815   1.751  0.1685 -0.2113 -0.1708
41610SOL    HW226838   4.136  10.735   1.840 -0.3003 -1.2309 -0.5830
41611SOL     OW26839   2.932   4.382   0.989 -0.6977  0.2519  0.3078
41611SOL    HW126840   2.911   4.379   1.082  0.1207  0.0821  0.4873
41611SOL    HW226841   2.954   4.474   0.972 -0.5777  0.2290  0.3403
41612SOL     OW26842   2.780   8.026  10.141 -0.1865 -0.1535  0.4046
41612SOL    HW126843   2.695   8.029  10.098  0.5261  1.2169 -1.0546
41612SOL    HW226844   2.840   7.996  10.072  0.7732  0.7351  0.8270
41613SOL     OW26845   9.566   6.977   0.778 -0.3057  0.1416 -0.3169
41613SOL    HW126846   9.616   6.935   0.848  0.2691 -1.1877 -1.4672
41613SOL    HW226847   9.629   6.986   0.706 -0.8582  1.5617 -0.6540
41614SOL     OW26848   7.056   7.883   8.855 -0.0094 -0.0245 -0.0058
41614SOL    HW126849   6.963   7.886   8.880 -0.0133  0.9567 -0.0900
41614SOL    HW226850   7.074   7.791   8.840 -1.0328 -0.2042 -0.2016
41615SOL     OW26851   6.887   0.981   4.097 -0.1727 -0.8440 -0.6576
41615SOL    HW126852   6.912   0.894   4.067  0.3831 -0.5931 -0.9353
41615SOL    HW226853   6.963   1.036   4.078 -1.0203 -0.0079 -1.7728
41616SOL     OW26854   0.067  10.021   8.393  0.1985  0.6923  0.4799
41616SOL    HW126855   0.087  10.055   8.306  2.0706  0.1241  0.6485
41616SOL    HW226856   0.066   9.926   8.383  0.4084  0.6226  1.0801
41617SOL     OW26857   6.940   7.229   8.039  0.1878  0.0545 -0.0944
41617SOL    HW126858   6.934   7.311   7.991  0.0287 -0.8208 -1.6438
41617SOL    HW226859   7.033   7.221   8.061  0.4190  0.0905 -0.9988
41618SOL     OW26860   2.302   4.630   0.233 -0.0371 -0.1686  0.0917
41618SOL    HW126861   2.304   4.545   0.278  2.0165 -0.9707 -1.3342
41618SOL    HW226862   2.218   4.668   0.257 -1.0759 -2.6498  0.7189
41619SOL     OW26863   0.485   0.291   8.173  0.0557  0.5243  0.0534
41619SOL    HW126864   0.548   0.289   8.101 -0.3217 -1.5283 -0.2913
41619SOL    HW226865   0.448   0.380   8.170  0.8515  0.8414 -1.5575
41620SOL     OW26866   9.344  10.288   7.511  1.0005  0.0043 -0.6236
41620SOL    HW126867   9.349  10.224   7.582 -0.9742  0.3529 -0.1254
41620SOL    HW226868   9.281  10.353   7.541  2.2171  1.6977 -1.5391
41621SOL     OW26869   6.186   4.408   2.048 -0.4377  0.3420 -0.0754
41621SOL    HW126870   6.267   4.445   2.084 -0.3056  0.2724 -0.3003
41621SOL    HW226871   6.133   4.485   2.026 -0.4847  0.3853  0.1928
41622SOL     OW26872   0.624   4.438   2.134  0.1962 -0.5695  0.2574
41622SOL    HW126873   0.671   4.471   2.211 -3.2968  0.9038  1.9846
41622SOL    HW226874   0.559   4.377   2.170 -2.3313  1.0458 -1.2365
41623SOL     OW26875   9.300   1.154   7.627 -0.3024 -0.5122  0.1771
41623SOL    HW126876   9.363   1.226   7.618 -0.2042 -0.7816 -1.9475
41623SOL    HW226877   9.242   1.181   7.699  1.8542  0.0054  1.8149
41624SOL     OW26878   0.327   6.790   9.211  0.1803 -0.1868 -0.1523
41624SOL    HW126879   0.324   6.695   9.213  0.6429 -0.2777 -2.0634
41624SOL    HW226880   0.412   6.812   9.249 -0.0536 -0.5021  0.5741
41625SOL     OW26881   6.544   6.203   8.667 -0.0275 -0.1711  0.0236
41625SOL    HW126882   6.627   6.199   8.620 -0.1105  0.5762 -0.1976
41625SOL    HW226883   6.509   6.114   8.662 -0.1926 -0.0374 -1.6221
41626SOL     OW26884   9.972   6.834   6.086 -0.5528  0.1518  0.2789
41626SOL    HW126885  10.030   6.840   6.009  0.8593  0.4810  1.3356
41626SOL    HW226886   9.910   6.906   6.074  0.7322  1.3180  0.2716
41627SOL     OW26887   6.306   9.422   0.737  0.8872  0.8015  0.1541
41627SOL    HW126888   6.257   9.491   0.693 -1.8753 -0.9981  0.1620
41627SOL    HW226889   6.280   9.341   0.693  0.8194 -0.6773  2.6716
41628SOL     OW26890   0.558   4.856   6.063  0.1441  0.3378  0.0555
41628SOL    HW126891   0.580   4.933   6.010 -1.5303  1.0159  0.2907
41628SOL    HW226892   0.561   4.783   6.002  3.9358  0.1434  0.2498
41629SOL     OW26893   4.625   9.973   5.252  0.4625 -0.3372  0.0167
41629SOL    HW126894   4.603   9.984   5.159 -0.7306  0.7259  0.3928
41629SOL    HW226895   4.575   9.895   5.278 -1.2173  0.7863  0.3252
41630SOL     OW26896   0.551   3.405   7.335  0.1627 -0.1486 -0.0118
41630SOL    HW126897   0.542   3.314   7.365  0.4765  0.2071  1.2312
41630SOL    HW226898   0.645   3.417   7.324  0.1546  0.1530  0.2443
41631SOL     OW26899  10.188   4.783   2.837  0.3608 -0.3077  0.2065
41631SOL    HW126900  10.172   4.845   2.766 -0.0901  0.6503  1.1119
41631SOL    HW226901  10.241   4.831   2.900  2.3819 -1.7651 -0.3130
41632SOL     OW26902  10.448   9.966  10.681  0.3122 -1.0738  0.1495
41632SOL    HW126903  10.495  10.007  10.754  2.2596  0.8249 -1.9924
41632SOL    HW226904  10.357   9.991  10.694  0.9026  0.8856  0.9644
41633SOL     OW26905   9.117   0.999   0.992  0.0495 -0.3416 -0.4628
41633SOL    HW126906   9.138   0.986   0.899 -2.0833  0.4696 -1.1148
41633SOL    HW226907   9.176   1.069   1.020  0.9856 -0.8605 -1.0939
41634SOL     OW26908   9.241   3.223   9.698 -0.0103  0.0063  0.1198
41634SOL    HW126909   9.292   3.223   9.779  1.0877 -2.7768 -0.4718
41634SOL    HW226910   9.164   3.170   9.719 -1.4780  2.0800  0.2554
41635SOL     OW26911   9.792   7.146   1.131 -0.2915  0.2177 -0.1186
41635SOL    HW126912   9.753   7.159   1.217  0.2621 -1.7123  0.4928
41635SOL    HW226913   9.808   7.052   1.126  0.3492  0.3723 -2.0589
41636SOL     OW26914   1.196   1.078   9.418  0.2957  0.3195  0.3829
41636SOL    HW126915   1.111   1.034   9.419  0.8364 -0.7601  1.0801
41636SOL    HW226916   1.225   1.077   9.510  0.8638  1.0865  0.2299
41637SOL     OW26917   5.947   6.507   2.991 -0.2741  0.6620  0.1677
41637SOL    HW126918   5.991   6.423   3.000 -0.1712  0.6545 -0.3645
41637SOL    HW226919   5.932   6.536   3.081 -0.0951  0.1896  0.3530
41638SOL     OW26920   8.133   0.163  10.561  0.4169 -0.1367 -0.5395
41638SOL    HW126921   8.154   0.084  10.610  1.9099  0.5517 -0.0268
41638SOL    HW226922   8.065   0.207  10.612  1.7189  0.4068  0.7946
41639SOL     OW26923   6.584   9.790   4.174  0.2425  0.2534  0.0928
41639SOL    HW126924   6.518   9.805   4.107  0.7749 -0.1944 -0.5449
41639SOL    HW226925   6.611   9.878   4.201 -1.1282  0.4495  0.9043
41640SOL     OW26926   7.720   0.470   5.687 -0.1593  0.1485 -0.7703
41640SOL    HW126927   7.735   0.542   5.747 -0.0626 -1.6447  1.4881
41640SOL    HW226928   7.627   0.477   5.665 -0.2347  0.7300 -0.2896
41641SOL     OW26929   3.817   7.802   3.694  1.0599 -0.3630 -0.0374
41641SOL    HW126930   3.740   7.746   3.692  1.1321 -0.6002  1.9562
41641SOL    HW226931   3.825   7.834   3.605 -1.7901  0.2717 -0.1767
41642SOL     OW26932   0.724   9.708   0.083  0.6711  0.1087  0.2878
41642SOL    HW126933   0.730   9.756   0.001  0.6031  0.7000  0.6210
41642SOL    HW226934   0.672   9.631   0.062 -1.9232  1.7235  0.4163
41643SOL     OW26935   8.220   7.040   3.566  0.9473 -0.0841  0.0458
41643SOL    HW126936   8.296   7.073   3.614  1.0791 -0.4804  0.1166
41643SOL    HW226937   8.230   7.076   3.478  0.5295  0.9130  0.3892
41644SOL     OW26938   6.393  10.638   9.877  0.2285 -0.1270  0.0506
41644SOL    HW126939   6.318  10.615   9.821  0.7122 -1.7023  0.0095
41644SOL    HW226940   6.466  10.647   9.816 -0.0083  2.0292  0.0172
41645SOL     OW26941   6.736   0.020  10.321 -0.2241  0.2812 -0.2942
41645SOL    HW126942   6.824  -0.010  10.298  0.2130 -0.2625  1.9319
41645SOL    HW226943   6.678  -0.051  10.293  0.0826  0.3721 -1.1972
41646SOL     OW26944  10.400   3.951   9.633  0.3484  0.1099  0.0257
41646SOL    HW126945  10.478   3.918   9.677  0.2927  0.2943  0.2644
41646SOL    HW226946  10.409   3.921   9.542  1.4366  1.3976 -0.3186
41647SOL     OW26947   8.622   6.836   6.930 -0.3963  0.3014 -0.6732
41647SOL    HW126948   8.652   6.817   6.842  1.6359  0.4940 -0.0730
41647SOL    HW226949   8.616   6.750   6.972  1.2711  0.3544 -0.2449
41648SOL     OW26950   7.256   2.920   1.220  0.5914  0.4137 -0.3974
41648SOL    HW126951   7.190   2.902   1.153  0.8934 -0.3467 -0.5090
41648SOL    HW226952   7.279   2.833   1.254  0.0309  0.8207  1.1011
41649SOL     OW26953   9.230   2.303   8.070  0.0783  0.1018 -0.9159
41649SOL    HW126954   9.144   2.291   8.110  0.4877  1.7867  0.5861
41649SOL    HW226955   9.213   2.352   7.990 -0.3499  0.5638 -0.5443
41650SOL     OW26956   1.077   5.635   2.411 -0.0574  0.3176  0.7436
41650SOL    HW126957   1.024   5.561   2.383 -0.4706  1.6488 -2.4123
41650SOL    HW226958   1.152   5.595   2.456 -0.4406 -1.9837 -0.5206
41651SOL     OW26959   3.212   3.985   0.009  0.1996 -0.0647 -0.0465
41651SOL    HW126960   3.128   3.997   0.054 -0.4711  1.4226 -1.5831
41651SOL    HW226961   3.256   3.916   0.059 -1.1897  0.3236  1.8379
41652SOL     OW26962   4.185   7.831   8.004 -0.4481  0.3857  0.1209
41652SOL    HW126963   4.155   7.865   7.919  0.3306  0.6206 -0.0708
41652SOL    HW226964   4.120   7.863   8.067 -0.4645  1.1045 -0.2505
41653SOL     OW26965   6.599   4.801   7.921 -0.2582  0.2209  0.0534
41653SOL    HW126966   6.654   4.806   7.998 -1.4263  0.1257  0.9243
41653SOL    HW226967   6.586   4.707   7.906 -0.4206  0.2481  0.0219
41654SOL     OW26968   9.704   8.841   4.354  0.2994  0.0698 -0.4046
41654SOL    HW126969   9.663   8.781   4.416 -0.3277 -1.4276 -2.1321
41654SOL    HW226970   9.739   8.783   4.286  0.2594  1.6517 -1.8342
41655SOL     OW26971   0.333   0.574   3.108  0.1205 -0.1123  0.0136
41655SOL    HW126972   0.277   0.508   3.149 -1.5935  0.4459 -1.2735
41655SOL    HW226973   0.342   0.643   3.174  0.4084 -0.8002  0.7057
41656SOL     OW26974   8.190   8.619   6.238  0.4989 -0.2635  0.8441
41656SOL    HW126975   8.259   8.587   6.295  1.2045 -0.8820 -0.3184
41656SOL    HW226976   8.175   8.548   6.176  1.2554  1.1438 -1.0473
41657SOL     OW26977  11.017   9.097   3.216 -0.0709 -0.2805  0.1341
41657SOL    HW126978  10.972   9.110   3.133 -0.7321  0.1179  0.5526
41657SOL    HW226979  11.053   9.183   3.238  0.2619 -0.4271  0.1684
41658SOL     OW26980   9.867   5.355   4.566  0.2951  0.2340  0.8517
41658SOL    HW126981   9.873   5.354   4.471  1.4050  3.7260  0.7203
41658SOL    HW226982   9.777   5.331   4.585  0.3230 -1.5555 -0.9679
41659SOL     OW26983   5.322   0.897   3.450 -0.1591 -0.3673 -0.5384
41659SOL    HW126984   5.298   0.989   3.434 -2.2153 -0.7673 -0.0805
41659SOL    HW226985   5.314   0.886   3.545  0.7564 -0.8632 -0.5068
41660SOL     OW26986   3.328   6.809   6.484  0.3109  0.2734 -0.5305
41660SOL    HW126987   3.284   6.804   6.399  2.4104  0.0810 -1.6801
41660SOL    HW226988   3.326   6.720   6.518  0.1764  0.1929 -0.7461
41661SOL     OW26989   4.150   8.669   9.333  0.2375  0.4472 -0.5807
41661SOL    HW126990   4.224   8.728   9.352 -1.2681  1.5717  2.6247
41661SOL    HW226991   4.074   8.727   9.326 -0.6709 -0.8224 -1.8515
41662SOL     OW26992   9.862   2.016   5.272  0.0036  0.1346  0.3238
41662SOL    HW126993   9.906   2.101   5.263 -0.0726 -0.0485 -2.6693
41662SOL    HW226994   9.929   1.952   5.248 -1.0715 -0.3136 -1.6637
41663SOL     OW26995   8.870   1.247   1.117  0.3836  0.4509 -0.7150
41663SOL    HW126996   8.907   1.252   1.029  1.7060  1.0060 -0.1467
41663SOL    HW226997   8.877   1.154   1.140 -1.2806  0.0211 -1.6950
41664SOL     OW26998   9.313   8.684   9.291 -0.3326 -0.3104 -0.2978
41664SOL    HW126999   9.238   8.709   9.345  1.4058  0.2156  1.9978
41664SOL    HW227000   9.302   8.734   9.210 -1.6346  0.9768  0.6246
41665SOL     OW27001   6.469   7.750   1.106  0.8224 -0.2269  0.5333
41665SOL    HW127002   6.501   7.825   1.156 -0.7177 -0.9908  2.8166
41665SOL    HW227003   6.523   7.749   1.027  3.0588  1.3739  1.9229
41666SOL     OW27004   5.884   1.908   8.774 -0.5022 -0.1688  0.5738
41666SOL    HW127005   5.977   1.931   8.765 -0.5221  0.2037  1.1819
41666SOL    HW227006   5.849   1.976   8.832 -0.9999 -0.7000  0.9084
41667SOL     OW27007   6.051   6.883   5.841  0.0268 -0.4845  0.0154
41667SOL    HW127008   6.020   6.797   5.868 -0.7771  0.2194  1.4253
41667SOL    HW227009   5.976   6.923   5.797 -0.4942  0.4896  1.7235
41668SOL     OW27010   6.791   6.428   9.971  0.0991 -0.1287  0.2978
41668SOL    HW127011   6.717   6.386  10.016  0.4560  0.7009  1.7354
41668SOL    HW227012   6.837   6.356   9.928 -0.8061 -0.8349  0.4716
41669SOL     OW27013  10.950   5.682   1.313  0.8027 -0.4558  0.0923
41669SOL    HW127014  11.020   5.699   1.376  3.5483 -1.0789 -2.5692
41669SOL    HW227015  10.959   5.590   1.291 -1.2816 -0.6953  0.0596
41670SOL     OW27016   9.333   5.664   1.354 -0.0909  0.1483  0.0561
41670SOL    HW127017   9.371   5.591   1.402 -0.5747  0.6392  1.2332
41670SOL    HW227018   9.403   5.729   1.349  0.0127  0.0290 -0.0558
41671SOL     OW27019   9.424   0.400   9.796 -0.2241  0.1173  0.6579
41671SOL    HW127020   9.464   0.313   9.794  1.7484  0.9483  1.0251
41671SOL    HW227021   9.499   0.460   9.793 -1.5221  1.8011  0.6526
41672SOL     OW27022   3.952   6.934   0.344 -0.6897 -0.3799  0.0216
41672SOL    HW127023   3.934   6.977   0.428 -2.2425  0.4964 -0.7070
41672SOL    HW227024   3.959   6.841   0.365 -0.0249 -0.0769  1.2501
41673SOL     OW27025   6.466   9.177   3.361  0.7303 -0.2933 -0.1499
41673SOL    HW127026   6.541   9.125   3.333  0.4850  0.5160 -2.5925
41673SOL    HW227027   6.430   9.212   3.280 -1.7874  0.0571  1.0234
41674SOL     OW27028  10.391   4.769   5.915  0.3093  0.0864  0.0887
41674SOL    HW127029  10.462   4.794   5.856  0.3986 -0.7509 -0.1806
41674SOL    HW227030  10.311   4.785   5.865  0.3157  0.6727  0.2545
41675SOL     OW27031   3.873   6.855   2.741  0.6502 -0.0975 -0.7454
41675SOL    HW127032   3.911   6.862   2.829 -0.1020 -1.9309 -0.2356
41675SOL    HW227033   3.840   6.943   2.723 -0.9520 -0.0818  1.6900
41676SOL     OW27034   6.214   6.784   2.195  0.2959 -0.8426 -0.0097
41676SOL    HW127035   6.247   6.696   2.213  1.7548 -0.1349  0.9378
41676SOL    HW227036   6.219   6.829   2.279  0.6860  0.5127 -0.7354
41677SOL     OW27037   1.934   4.684   1.682  0.2325 -0.0794  0.1725
41677SOL    HW127038   1.962   4.714   1.769  0.3483 -1.9571  0.8207
41677SOL    HW227039   1.869   4.616   1.700 -1.1194  0.7730 -1.2677
41678SOL     OW27040   7.846   2.624   5.719 -0.1527  0.1095 -0.3545
41678SOL    HW127041   7.831   2.693   5.784  1.0530  0.3771 -0.3349
41678SOL    HW227042   7.897   2.667   5.650 -2.9160  0.3219 -2.4259
41679SOL     OW27043   7.365   9.015   4.275 -0.5199 -0.5234 -0.3295
41679SOL    HW127044   7.380   8.968   4.357 -1.0566 -0.2897 -0.0955
41679SOL    HW227045   7.273   9.041   4.279 -0.2259  0.5637 -0.4456
41680SOL     OW27046   5.673   2.023   9.338 -0.1064  0.4543  0.3045
41680SOL    HW127047   5.590   1.979   9.356 -0.3146  1.2430  1.3671
41680SOL    HW227048   5.694   1.998   9.247  0.6574 -3.2100  1.3025
41681SOL     OW27049   1.608   8.356   5.942  0.3364 -0.3933 -0.2470
41681SOL    HW127050   1.636   8.286   6.001 -0.0889  0.0775  0.5355
41681SOL    HW227051   1.682   8.416   5.938  0.1544 -0.1302  0.2806
41682SOL     OW27052   1.116   2.925   0.705 -0.3440 -0.7624  0.3538
41682SOL    HW127053   1.145   2.839   0.674  0.8087  0.0249 -0.8624
41682SOL    HW227054   1.121   2.919   0.800  0.2034 -1.8783  0.2699
41683SOL     OW27055   2.147   4.053   2.390 -0.2632 -0.4163  0.6291
41683SOL    HW127056   2.168   4.103   2.469 -1.3074  0.8638  0.1269
41683SOL    HW227057   2.091   4.111   2.338 -0.0133 -1.4208 -0.8323
41684SOL     OW27058   3.622   9.355  10.785 -0.2300  0.0232  0.3008
41684SOL    HW127059   3.684   9.400  10.843 -0.7597 -0.9417  1.6768
41684SOL    HW227060   3.645   9.263  10.793 -0.0656 -0.1105 -1.3819
41685SOL     OW27061   3.675   4.139  10.286 -0.0218  0.1928  0.1480
41685SOL    HW127062   3.713   4.214  10.332  0.0528  0.9796 -1.1321
41685SOL    HW227063   3.692   4.064  10.343  0.3115  1.0760  1.2460
41686SOL     OW27064   8.611   8.731   1.801  0.1214  0.1598  0.2155
41686SOL    HW127065   8.682   8.676   1.835 -0.1019 -0.5329 -0.3974
41686SOL    HW227066   8.635   8.746   1.710 -0.2917  0.2971  0.1303
41687SOL     OW27067   4.143  10.634   9.335 -0.8599  0.1984  0.3790
41687SOL    HW127068   4.141  10.680   9.251  0.4340 -0.9985 -0.3406
41687SOL    HW227069   4.100  10.695   9.396 -1.2939  1.3438 -1.0040
41688SOL     OW27070   7.953   6.975   3.377 -0.9975  0.5922 -0.5153
41688SOL    HW127071   7.937   6.881   3.370 -0.8656  0.6193 -1.2424
41688SOL    HW227072   8.035   6.982   3.425 -1.5747  0.3738  0.5276
41689SOL     OW27073   0.570   0.049   1.567  0.1813 -0.0301  0.1240
41689SOL    HW127074   0.512   0.123   1.586 -0.6823 -1.0801  1.7900
41689SOL    HW227075   0.657   0.089   1.560 -0.1227  1.0817  1.8869
41690SOL     OW27076   4.517   8.937   4.353  0.2580  0.3692  0.2177
41690SOL    HW127077   4.519   8.980   4.267  1.7543 -1.1105 -0.5408
41690SOL    HW227078   4.465   8.996   4.408 -0.0007  1.7905 -1.4580
41691SOL     OW27079   2.220   6.313   2.193  0.2321 -0.0808 -0.8173
41691SOL    HW127080   2.156   6.370   2.150 -0.1150 -2.1939 -3.3539
41691SOL    HW227081   2.238   6.245   2.129  1.9346 -1.8782  1.4043
41692SOL     OW27082   9.342   4.843   2.540 -0.2946 -0.1504  0.5940
41692SOL    HW127083   9.357   4.932   2.506  0.1551 -0.6063 -0.4527
41692SOL    HW227084   9.250   4.826   2.522 -0.1569 -0.2345 -0.0518
41693SOL     OW27085   4.155   1.349   3.968  0.0887  0.8242  0.1822
41693SOL    HW127086   4.133   1.336   4.060 -0.0321  0.9413  0.1701
41693SOL    HW227087   4.208   1.273   3.944 -1.2391 -0.0460 -0.1039
41694SOL     OW27088   8.107   8.187   4.600 -0.8563 -0.1032 -0.2597
41694SOL    HW127089   8.110   8.145   4.687  0.7562 -1.1339 -0.7658
41694SOL    HW227090   8.106   8.281   4.619 -0.8645 -0.3142  0.8805
41695SOL     OW27091   2.606   2.064   8.149  0.2970 -0.4373  0.0372
41695SOL    HW127092   2.699   2.052   8.166  0.3401 -1.2896 -0.7050
41695SOL    HW227093   2.563   2.035   8.230  0.6621 -0.2226  0.3110
41696SOL     OW27094   1.983  10.651   2.708  0.2041 -0.4492 -0.0933
41696SOL    HW127095   2.011  10.559   2.713  2.1120  0.0546 -0.8430
41696SOL    HW227096   1.957  10.663   2.617  0.2023 -0.1718 -0.0565
41697SOL     OW27097  10.579   4.787   3.756 -0.4132 -0.4847 -0.2659
41697SOL    HW127098  10.549   4.709   3.710 -0.5644 -0.7795  0.3199
41697SOL    HW227099  10.673   4.774   3.767 -0.8954 -2.2615  2.8586
41698SOL     OW27100   3.489  10.918   4.501  0.5701 -0.2217 -0.2252
41698SOL    HW127101   3.533  10.999   4.527  0.6914 -0.4754  0.3823
41698SOL    HW227102   3.397  10.933   4.522  0.9229 -1.1905  2.4567
41699SOL     OW27103   5.432   9.539   5.252 -0.0627  0.2691  0.2353
41699SOL    HW127104   5.399   9.523   5.340  1.7518 -0.0698  0.8955
41699SOL    HW227105   5.417   9.632   5.238 -2.0725 -0.0284  0.1218
41700SOL     OW27106   2.555   2.619  10.350  0.4733 -0.2335  0.7915
41700SOL    HW127107   2.517   2.588  10.433  1.5522 -2.5942  0.4959
41700SOL    HW227108   2.619   2.686  10.376  0.8427 -0.9896  1.9127
41701SOL     OW27109  10.051  10.952   5.257 -0.1943 -0.1279  0.4618
41701SOL    HW127110  10.103  10.996   5.189 -1.3681  0.9376  0.2068
41701SOL    HW227111   9.960  10.973   5.235 -0.7102 -1.3767  1.2769
41702SOL     OW27112   4.584   2.709   1.190 -0.7274 -0.2219 -0.1354
41702SOL    HW127113   4.616   2.784   1.140 -0.4047  0.9048  1.6772
41702SOL    HW227114   4.630   2.634   1.153  1.1596  0.8612 -0.0877
41703SOL     OW27115   5.218   0.372   8.209  0.4241 -0.3080  0.0357
41703SOL    HW127116   5.259   0.286   8.205  1.8519  0.3441  0.0058
41703SOL    HW227117   5.278   0.425   8.262 -0.3360  0.7133 -0.0885
41704SOL     OW27118   1.336   3.956  10.849 -0.0756  0.2521  0.9322
41704SOL    HW127119   1.310   3.869  10.820 -0.3302  0.9978 -1.3121
41704SOL    HW227120   1.379   3.942  10.933  1.3387 -2.2533 -0.0932
41705SOL     OW27121   9.067   5.848   4.573  0.5695  0.2189  0.0693
41705SOL    HW127122   8.975   5.851   4.599  0.4204  1.3764 -0.5520
41705SOL    HW227123   9.072   5.776   4.510 -0.0247  0.5196 -0.3272
41706SOL     OW27124   8.774   7.596   5.157 -0.2089 -0.0811 -0.0063
41706SOL    HW127125   8.839   7.659   5.126 -1.4014  0.6571 -1.1107
41706SOL    HW227126   8.721   7.576   5.080 -0.7623 -1.3319  0.6653
41707SOL     OW27127   5.418   4.667   9.309  0.2418 -0.1766 -0.5760
41707SOL    HW127128   5.394   4.612   9.383  0.7250  0.9831  0.4828
41707SOL    HW227129   5.477   4.733   9.346  0.2078  0.6508 -1.9181
41708SOL     OW27130   5.540  10.155   1.718  0.0699  0.1881 -0.3068
41708SOL    HW127131   5.481  10.081   1.699 -0.2244  0.5623 -0.9021
41708SOL    HW227132   5.552  10.198   1.633  0.2068  0.8488  0.0401
41709SOL     OW27133   1.586   9.754   4.935  0.1263 -0.2627  0.5028
41709SOL    HW127134   1.610   9.672   4.978 -1.1925  0.0238  1.8591
41709SOL    HW227135   1.650   9.817   4.967 -0.5671 -0.1556  1.7503
41710SOL     OW27136   4.632   8.457   8.077  0.1930  0.4603  0.6720
41710SOL    HW127137   4.650   8.429   7.988  1.4432  2.3799  0.2498
41710SOL    HW227138   4.609   8.376   8.124 -0.9869 -0.5080 -1.4635
41711SOL     OW27139   2.163   3.192   4.738  0.0102  0.3347 -0.0762
41711SOL    HW127140   2.186   3.284   4.757  0.1681  0.1067  0.8805
41711SOL    HW227141   2.190   3.180   4.647  1.4113  0.8119  0.2393
41712SOL     OW27142   8.688   2.989   6.203  0.0412  0.1471 -0.1969
41712SOL    HW127143   8.606   3.019   6.243  1.2333  0.4609  2.2155
41712SOL    HW227144   8.715   3.061   6.147  0.0255  1.2221  1.1363
41713SOL     OW27145   6.158   0.073   3.403  0.0886 -0.4877  0.2886
41713SOL    HW127146   6.147  -0.022   3.411  0.8135 -0.8071 -1.8733
41713SOL    HW227147   6.250   0.084   3.378  0.3054  0.8812  1.6014
41714SOL     OW27148   4.934  10.296   8.945  0.1545  0.3429 -0.2712
41714SOL    HW127149   4.852  10.258   8.914  0.9634 -3.7600  1.8555
41714SOL    HW227150   4.918  10.316   9.037  1.1040  1.0327 -0.2324
41715SOL     OW27151   9.698   8.889   2.490  0.8810 -0.2418  0.4043
41715SOL    HW127152   9.650   8.809   2.510  2.1927 -0.9222  0.9727
41715SOL    HW227153   9.790   8.864   2.498  1.3457  1.9086  3.0872
41716SOL     OW27154   8.548   1.250   5.615  0.1299 -0.5949 -0.1440
41716SOL    HW127155   8.577   1.290   5.533 -0.9574 -0.5070 -0.5146
41716SOL    HW227156   8.453   1.240   5.603 -0.3913  1.2416  1.8885
41717SOL     OW27157   7.844   2.757   1.791 -0.4658  0.5717 -0.0885
41717SOL    HW127158   7.922   2.791   1.834 -0.3046 -1.5662  1.5035
41717SOL    HW227159   7.788   2.729   1.863 -0.6977 -2.1329 -1.1994
41718SOL     OW27160   7.361   3.587   2.793 -0.3677  0.1563 -0.0831
41718SOL    HW127161   7.380   3.652   2.725  1.4685  1.1873  1.3426
41718SOL    HW227162   7.272   3.557   2.772 -0.3562  1.3445 -2.1797
41719SOL     OW27163   9.055  10.451   8.226  0.0212  0.2671  0.1674
41719SOL    HW127164   8.993  10.432   8.296 -0.5392  1.4908  0.0191
41719SOL    HW227165   9.133  10.399   8.248 -0.0505  0.8140  1.8343
41720SOL     OW27166   5.466   9.585   2.309  0.1122  0.3834 -0.6247
41720SOL    HW127167   5.490   9.574   2.401 -0.0959  1.9619 -0.3521
41720SOL    HW227168   5.399   9.518   2.294  2.9679 -2.6789 -0.8178
41721SOL     OW27169   7.762   2.495   2.985 -0.0362 -0.1233  0.7516
41721SOL    HW127170   7.831   2.496   3.051 -0.5718 -1.3150  1.3680
41721SOL    HW227171   7.746   2.402   2.969 -0.4299  0.1463 -0.5274
41722SOL     OW27172   5.612   4.703   4.056  0.0585 -0.4636  0.4738
41722SOL    HW127173   5.527   4.667   4.082 -0.0559 -1.2661 -0.9010
41722SOL    HW227174   5.660   4.628   4.022  0.0364  0.5225 -1.9482
41723SOL     OW27175   0.252   6.320   7.650  0.0734  0.0276  0.1654
41723SOL    HW127176   0.198   6.295   7.726 -1.2462  1.8372 -0.1072
41723SOL    HW227177   0.337   6.342   7.688 -1.2371  3.2910  1.6099
41724SOL     OW27178   8.152   0.926  10.019  0.4710 -0.4850  0.2773
41724SOL    HW127179   8.248   0.927  10.022  0.5093 -0.8276 -0.5049
41724SOL    HW227180   8.126   0.893  10.105  1.0692 -0.7445  0.3670
41725SOL     OW27181   1.617   5.913   6.160  0.1366 -0.0488  0.1122
41725SOL    HW127182   1.526   5.939   6.144  0.3726  0.0312 -1.2112
41725SOL    HW227183   1.655   5.905   6.073  0.7729 -2.4015  0.5529
41726SOL     OW27184   8.402   7.512   0.552  0.2223 -0.4236  0.4831
41726SOL    HW127185   8.316   7.498   0.511  0.2868 -0.2059  0.2731
41726SOL    HW227186   8.396   7.600   0.590  1.2809  0.7635 -1.8936
41727SOL     OW27187   9.970   4.972   7.902  0.7365 -0.5325 -0.0630
41727SOL    HW127188   9.961   4.992   7.809  0.1735 -0.7583 -0.0624
41727SOL    HW227189   9.909   4.900   7.917 -2.0728  1.9424  1.2498
41728SOL     OW27190   2.538   8.934   2.701 -0.1268  0.0394  0.1683
41728SOL    HW127191   2.598   8.873   2.656  1.1265  0.6382  0.9654
41728SOL    HW227192   2.461   8.937   2.645  0.6648 -0.6153 -1.0081
41729SOL     OW27193   8.266   6.299  10.268 -0.2836  0.5468 -0.4014
41729SOL    HW127194   8.199   6.250  10.221 -1.9691  1.3353  1.0577
41729SOL    HW227195   8.311   6.350  10.200 -0.0766 -1.1535 -1.6081
41730SOL     OW27196   6.456   9.060   0.751  0.0661  0.3966  0.3560
41730SOL    HW127197   6.409   8.990   0.796 -0.4917  1.1169  0.9330
41730SOL    HW227198   6.494   9.113   0.822  0.6753  0.5561 -0.0731
41731SOL     OW27199   5.381  10.251   6.992 -0.2182  0.2170  0.0501
41731SOL    HW127200   5.383  10.178   6.930 -1.5546  0.0526  0.1761
41731SOL    HW227201   5.473  10.275   7.003  0.5058 -2.7379  1.5260
41732SOL     OW27202   7.518   5.608   9.297 -0.4888  0.1099 -0.2587
41732SOL    HW127203   7.554   5.560   9.223  1.4962  0.5757  0.3323
41732SOL    HW227204   7.551   5.698   9.286  0.0337  0.1419  1.2551
41733SOL     OW27205   3.026   9.301   9.793  0.0081 -0.2771 -0.2073
41733SOL    HW127206   3.056   9.392   9.794 -2.2281  0.5008 -0.0348
41733SOL    HW227207   3.005   9.282   9.885 -4.8173  0.9837 -0.8285
41734SOL     OW27208  10.618   2.830  10.383 -0.0455 -0.1971 -0.0547
41734SOL    HW127209  10.612   2.740  10.413 -1.8792 -0.1864 -0.2567
41734SOL    HW227210  10.550   2.876  10.432  0.6533  1.0131 -0.1789
41735SOL     OW27211   3.880   8.313   9.701  0.5503  0.4039  0.1194
41735SOL    HW127212   3.953   8.372   9.717 -0.9524  2.1026  1.0141
41735SOL    HW227213   3.839   8.300   9.786 -0.3080 -0.3690 -0.3842
41736SOL     OW27214   1.610   1.527   9.499 -0.8826 -0.3286 -0.5897
41736SOL    HW127215   1.656   1.457   9.453 -0.6339 -0.8265  0.4040
41736SOL    HW227216   1.628   1.512   9.592 -0.0102  1.6311 -0.3933
41737SOL     OW27217   2.399   9.845   8.953  0.0455 -0.0713  0.1031
41737SOL    HW127218   2.473   9.785   8.958  1.0579  0.2421 -5.1840
41737SOL    HW227219   2.326   9.790   8.924  0.1929  0.6426 -1.7599
41738SOL     OW27220   4.817  10.627   1.790 -0.2819 -0.4072 -0.0503
41738SOL    HW127221   4.862  10.711   1.778 -1.6569  0.5579  1.2556
41738SOL    HW227222   4.739  10.633   1.734  0.1581 -1.2779 -0.7865
41739SOL     OW27223   2.804   7.300   1.230 -0.5736 -0.4177  0.2888
41739SOL    HW127224   2.850   7.340   1.303  0.5356  0.4185 -0.8214
41739SOL    HW227225   2.755   7.373   1.190  0.3269 -0.4318 -0.9017
41740SOL     OW27226   6.637   4.211   2.796 -0.4258 -0.1136 -0.1501
41740SOL    HW127227   6.722   4.241   2.827 -1.3579  0.4211  2.1116
41740SOL    HW227228   6.596   4.288   2.758  0.0101 -0.3453 -1.1360
41741SOL     OW27229   2.916  10.882   9.425 -0.2636 -0.0902 -0.3504
41741SOL    HW127230   2.893  10.944   9.356  1.0923  0.2729 -0.4997
41741SOL    HW227231   2.900  10.929   9.506  1.7082  0.8710 -0.4632
41742SOL     OW27232   8.774   0.497   7.277 -0.3011 -0.1982  0.5346
41742SOL    HW127233   8.861   0.529   7.256 -0.3136 -0.4733  0.0545
41742SOL    HW227234   8.720   0.521   7.202 -0.3846 -1.0115  0.3172
41743SOL     OW27235   6.435   3.859   2.073 -0.1612 -0.5884  0.3381
41743SOL    HW127236   6.504   3.792   2.079 -1.6635 -2.3019 -0.4218
41743SOL    HW227237   6.480   3.941   2.093  1.8345 -1.7682  1.0571
41744SOL     OW27238   2.580   9.925   2.291  0.2935 -0.0879  0.4777
41744SOL    HW127239   2.484   9.929   2.298  0.1860 -0.4217 -0.5942
41744SOL    HW227240   2.596   9.918   2.197  1.3419 -0.8283  0.7003
41745SOL     OW27241   2.899   9.998   1.799 -0.2453  1.1185 -0.4252
41745SOL    HW127242   2.971   9.995   1.862 -0.9529 -0.5784  0.3794
41745SOL    HW227243   2.936   9.962   1.719 -0.5371 -1.2101  0.4224
41746SOL     OW27244  10.006   8.309   8.626  0.6896 -0.6840  0.4351
41746SOL    HW127245   9.996   8.220   8.658 -0.0617 -0.1848  1.6503
41746SOL    HW227246   9.968   8.364   8.694  1.3453  0.5892 -0.1781
41747SOL     OW27247   7.301   3.305   0.325 -0.9210 -0.1084 -0.2934
41747SOL    HW127248   7.321   3.287   0.233 -0.8753  0.8870 -0.4872
41747SOL    HW227249   7.259   3.391   0.325 -0.1412  0.3044  0.6984
41748SOL     OW27250   2.839   6.976   8.584  0.1713 -0.1507 -0.1340
41748SOL    HW127251   2.811   6.992   8.675 -0.0142 -0.5059 -0.1267
41748SOL    HW227252   2.880   6.890   8.587  1.3382  0.3814 -0.1371
41749SOL     OW27253   6.611   5.262   9.512  0.5635 -0.3105  1.0654
41749SOL    HW127254   6.601   5.202   9.438  0.4916  0.6304  0.2885
41749SOL    HW227255   6.704   5.284   9.513  0.1923  1.5793 -0.3241
41750SOL     OW27256   9.286   8.160   1.250  0.3768 -0.2159 -0.4090
41750SOL    HW127257   9.282   8.185   1.342 -1.2294  1.9341 -0.9800
41750SOL    HW227258   9.368   8.110   1.242  0.9802  0.2732  1.9869
41751SOL     OW27259   9.320   0.767   1.390  0.4043  0.4236  0.3630
41751SOL    HW127260   9.365   0.749   1.473  0.1385 -3.3476 -0.1364
41751SOL    HW227261   9.390   0.771   1.325  0.4173  0.4159  0.3766
41752SOL     OW27262   1.065   3.810   5.613  0.2505  0.4806  0.5076
41752SOL    HW127263   1.089   3.844   5.527 -0.9287  1.0375  0.3808
41752SOL    HW227264   1.108   3.724   5.618 -0.5846 -0.0794 -1.1120
41753SOL     OW27265   7.560  10.075   9.071 -0.1041 -0.8421  0.5718
41753SOL    HW127266   7.532  10.033   8.989 -0.9037 -1.3977  1.1189
41753SOL    HW227267   7.507  10.154   9.077  1.4580  0.3766 -0.4990
41754SOL     OW27268   0.794   6.869   9.517 -0.2766 -0.2359  0.4960
41754SOL    HW127269   0.818   6.961   9.524  0.0398 -0.3471  0.9408
41754SOL    HW227270   0.866   6.828   9.469  0.5381 -0.5953  1.9538
41755SOL     OW27271   6.089   4.769   2.428 -0.2548  0.0453  0.2624
41755SOL    HW127272   6.128   4.720   2.500 -2.7642 -0.0043  1.6946
41755SOL    HW227273   6.108   4.860   2.447  0.9583 -0.0857 -0.2353
41756SOL     OW27274   8.532  10.350   0.465  0.2136 -0.5020 -0.5263
41756SOL    HW127275   8.576  10.305   0.393  0.9752  0.2908 -0.5648
41756SOL    HW227276   8.441  10.357   0.437  0.4762 -0.3060 -1.3587
41757SOL     OW27277   5.887   2.471   6.378 -0.3300  0.2687  0.1076
41757SOL    HW127278   5.895   2.397   6.438  2.0558 -1.1233 -1.7251
41757SOL    HW227279   5.868   2.546   6.434 -0.7604 -1.3725  2.2703
41758SOL     OW27280   5.241   4.440  10.578  0.0916  0.2359 -0.1749
41758SOL    HW127281   5.238   4.443  10.482  1.9128 -1.4842 -0.3659
41758SOL    HW227282   5.204   4.354  10.600 -1.4585  1.1159  0.7866
41759SOL     OW27283   2.877   1.156   1.130  0.4815 -0.0514  0.0095
41759SOL    HW127284   2.972   1.150   1.117  0.5408  1.7137 -0.7293
41759SOL    HW227285   2.867   1.216   1.204 -0.0443  0.5978 -0.5676
41760SOL     OW27286   0.499   3.400   2.794  0.1608  0.1791  0.1420
41760SOL    HW127287   0.461   3.443   2.718  1.8099  1.1140 -0.2227
41760SOL    HW227288   0.468   3.452   2.869 -0.7180 -0.1765  0.0257
41761SOL     OW27289   7.709   4.815  10.548 -0.4119  0.3087 -0.0577
41761SOL    HW127290   7.745   4.848  10.630 -3.0547 -0.0556  1.3764
41761SOL    HW227291   7.703   4.720  10.561 -1.7528  0.3447 -0.2213
41762SOL     OW27292   6.774   2.046   5.162 -0.1911  0.3690 -0.1121
41762SOL    HW127293   6.698   2.102   5.171 -1.2221 -0.6771 -1.8227
41762SOL    HW227294   6.796   2.021   5.252 -1.3170  1.3753  0.4647
41763SOL     OW27295   8.844   7.399   8.094  0.8636 -0.6784 -0.6112
41763SOL    HW127296   8.833   7.465   8.026  1.3792 -1.0730 -1.0823
41763SOL    HW227297   8.839   7.448   8.176  0.6859 -0.1378 -0.9402
41764SOL     OW27298   2.210  10.495  10.626  0.3451 -0.8669  0.0207
41764SOL    HW127299   2.164  10.507  10.543 -0.0524  1.2563  0.4705
41764SOL    HW227300   2.292  10.452  10.603 -0.0112 -0.8262 -1.4025
41765SOL     OW27301   5.581   2.366  10.137 -0.5964  0.7533 -0.6320
41765SOL    HW127302   5.556   2.445  10.088  1.7726  2.1417  0.2244
41765SOL    HW227303   5.653   2.328  10.087 -1.5245 -0.7628 -0.8758
41766SOL     OW27304   5.351   0.994   2.287  0.5049  0.2469 -0.0936
41766SOL    HW127305   5.400   0.951   2.216  0.0929  0.5667 -0.5752
41766SOL    HW227306   5.319   1.075   2.249  2.7969  1.9391  1.3209
41767SOL     OW27307   7.737   1.741   4.765 -0.1161 -0.1795  0.1213
41767SOL    HW127308   7.777   1.828   4.759 -0.6013  0.1617  1.4936
41767SOL    HW227309   7.643   1.757   4.754 -0.0304 -0.8222 -1.8381
41768SOL     OW27310   9.850   0.710   2.615  0.4133  0.4622  0.1545
41768SOL    HW127311   9.823   0.801   2.626 -0.7555  0.5189 -2.4981
41768SOL    HW227312   9.941   0.715   2.586  0.4207  0.7756  0.2303
41769SOL     OW27313   1.859   7.469   8.961  0.2811 -0.3855 -0.6643
41769SOL    HW127314   1.952   7.453   8.979  0.4497 -0.5492 -1.6350
41769SOL    HW227315   1.841   7.553   9.003  0.9491 -0.1977 -0.7366
41770SOL     OW27316   3.889   7.215   0.696 -0.1398 -0.5999 -0.2859
41770SOL    HW127317   3.852   7.204   0.783 -1.1311  1.4369 -0.3863
41770SOL    HW227318   3.845   7.293   0.661  0.0203 -1.5041 -2.7130
41771SOL     OW27319   4.534   5.380   3.489 -0.2927  0.7299  0.1329
41771SOL    HW127320   4.447   5.413   3.512 -0.6723  1.1828 -1.7890
41771SOL    HW227321   4.518   5.307   3.429  0.6381 -0.7582  1.5966
41772SOL     OW27322   4.742   8.949   5.745  0.2571 -0.8944 -0.7672
41772SOL    HW127323   4.733   8.863   5.786  1.0009 -0.7074 -0.1792
41772SOL    HW227324   4.682   8.946   5.670 -0.4489 -1.5692 -0.1963
41773SOL     OW27325   4.373   9.626   8.218 -0.3447  0.3021 -0.2036
41773SOL    HW127326   4.360   9.549   8.162  1.0013  0.1165 -0.2891
41773SOL    HW227327   4.362   9.701   8.159 -1.7283  0.1958 -0.1057
41774SOL     OW27328   9.496   2.625   8.678 -0.1199 -0.1380 -0.1155
41774SOL    HW127329   9.517   2.534   8.696  1.8924  0.6041  1.6422
41774SOL    HW227330   9.577   2.662   8.644  0.3175  1.7994  2.6738
41775SOL     OW27331   3.867   4.420   0.196 -0.2870 -0.1289 -0.1147
41775SOL    HW127332   3.862   4.501   0.247  1.0577  0.4199 -0.7955
41775SOL    HW227333   3.959   4.395   0.200 -0.7482 -1.8566  0.3913
41776SOL     OW27334   9.795   5.993  10.702  0.2647 -0.3597  0.0967
41776SOL    HW127335   9.790   5.903  10.733 -0.8420 -0.2796  0.1975
41776SOL    HW227336   9.831   6.042  10.776 -0.6228 -0.4725  0.6185
41777SOL     OW27337   8.655   5.032   4.059 -0.6089 -0.1747 -0.1296
41777SOL    HW127338   8.675   5.122   4.084 -0.9029 -0.4684  1.2590
41777SOL    HW227339   8.611   5.039   3.974 -1.1545  1.0411  0.2360
41778SOL     OW27340   4.716   9.450   9.298  0.3602  0.1225 -0.2713
41778SOL    HW127341   4.637   9.504   9.283  0.4189  0.3229  0.1294
41778SOL    HW227342   4.708   9.421   9.388 -0.1655 -1.3678 -0.7637
41779SOL     OW27343   3.784   0.763   4.486  0.3933  0.6612  0.1834
41779SOL    HW127344   3.875   0.758   4.455 -0.0613 -2.4312 -1.1153
41779SOL    HW227345   3.785   0.714   4.568 -0.6311 -3.3087 -1.9019
41780SOL     OW27346   1.251   7.392   1.602  0.1772 -0.3043 -0.4511
41780SOL    HW127347   1.275   7.435   1.684 -0.0788 -0.5134 -0.2651
41780SOL    HW227348   1.181   7.446   1.566  1.6344  0.9465 -1.5526
41781SOL     OW27349   9.218   2.617   0.832 -0.0885 -0.1910  0.4012
41781SOL    HW127350   9.170   2.694   0.803 -0.5205 -0.5069  0.2660
41781SOL    HW227351   9.307   2.630   0.799 -0.5382 -0.4956 -1.0069
41782SOL     OW27352   2.906  10.647   2.319 -0.3716  0.0515 -0.1138
41782SOL    HW127353   2.847  10.600   2.378 -0.8625 -2.2274 -2.2526
41782SOL    HW227354   2.918  10.733   2.360 -3.3894 -0.1809  1.5476
41783SOL     OW27355   6.248   2.891   7.157  0.0200  0.1674  0.2419
41783SOL    HW127356   6.271   2.798   7.153 -0.7658 -0.0161 -0.3841
41783SOL    HW227357   6.249   2.912   7.250 -1.0469 -0.8139  0.4977
41784SOL     OW27358  10.710   0.437   7.346  0.5219  0.1354  0.1539
41784SOL    HW127359  10.626   0.409   7.310  0.1208 -1.3059  2.0673
41784SOL    HW227360  10.771   0.368   7.322  1.7566  2.1112 -2.9745
41785SOL     OW27361  10.544   7.102   9.819 -0.7394 -0.1669 -0.4158
41785SOL    HW127362  10.479   7.156   9.863  0.0376  1.7750 -1.5095
41785SOL    HW227363  10.619   7.161   9.806  0.8488 -2.0051 -0.1565
41786SOL     OW27364  10.975  10.682   6.375  0.2267 -0.4584 -0.1717
41786SOL    HW127365  11.070  10.685   6.387  0.2951  0.4104 -0.8208
41786SOL    HW227366  10.940  10.741   6.442  0.1502 -0.6604 -0.0317
41787SOL     OW27367   7.526   4.692   2.464 -0.0572 -0.5151 -0.2099
41787SOL    HW127368   7.477   4.610   2.473 -1.6240  0.4638  0.8895
41787SOL    HW227369   7.535   4.704   2.370 -0.4708 -1.5758 -0.4044
41788SOL     OW27370   2.967   5.109   6.155  0.0646 -0.0900  0.1250
41788SOL    HW127371   2.891   5.161   6.128  1.5276  2.3684  0.4052
41788SOL    HW227372   2.944   5.077   6.242 -0.5509  0.8917  0.3473
41789SOL     OW27373   1.350   9.337   7.188  0.1080 -0.3760 -0.2448
41789SOL    HW127374   1.275   9.365   7.135  0.9695 -0.6866 -1.6960
41789SOL    HW227375   1.334   9.244   7.204 -0.4442 -0.1544  0.5884
41790SOL     OW27376   6.631   7.644   6.434  0.1091 -0.0726  0.7826
41790SOL    HW127377   6.697   7.678   6.494 -0.6372  1.1630  0.9269
41790SOL    HW227378   6.574   7.718   6.415  0.3767 -0.3724 -1.5612
41791SOL     OW27379   0.695   1.679   8.866  0.5389  0.1341 -0.3808
41791SOL    HW127380   0.709   1.701   8.958 -1.2008  0.4938 -0.1611
41791SOL    HW227381   0.675   1.586   8.866 -1.5756  0.5245 -0.0634
41792SOL     OW27382   6.484   9.807   3.061  0.2075  0.0218  0.1395
41792SOL    HW127383   6.555   9.822   2.998  0.3059 -0.0474  0.2309
41792SOL    HW227384   6.429   9.884   3.055  0.4041  0.1702  0.2125
41793SOL     OW27385   0.377   2.939  10.639 -0.4781 -0.5887 -0.0241
41793SOL    HW127386   0.394   3.033  10.643  1.3133 -0.7190 -2.2954
41793SOL    HW227387   0.305   2.925  10.701 -0.3162  2.1251  0.9296
41794SOL     OW27388  10.208   7.485   3.678 -0.2455 -0.1302 -0.6398
41794SOL    HW127389  10.116   7.486   3.650 -1.0766 -1.3793  1.7853
41794SOL    HW227390  10.238   7.396   3.660  0.1800 -0.0248 -0.4571
41795SOL     OW27391   9.829   2.607   7.526 -0.5481 -0.1842 -0.5933
41795SOL    HW127392   9.737   2.618   7.550 -0.5974 -2.2144  0.4180
41795SOL    HW227393   9.866   2.695   7.528 -2.2138  0.5354  0.0674
41796SOL     OW27394  10.640   4.008   7.724  0.1296 -0.5062  0.7874
41796SOL    HW127395  10.599   4.009   7.811  0.7182 -0.7219  1.0717
41796SOL    HW227396  10.732   3.990   7.741  0.5255  0.8571  0.2323
41797SOL     OW27397   0.554  10.146   9.626 -0.3229 -0.0896  0.3896
41797SOL    HW127398   0.486  10.099   9.577 -0.1199 -1.4675  1.3702
41797SOL    HW227399   0.635  10.122   9.582 -0.2937 -0.0336  0.4135
41798SOL     OW27400   6.721   8.348   0.317 -0.7807 -0.3915 -0.0391
41798SOL    HW127401   6.638   8.352   0.269  0.6425 -1.2936 -2.8477
41798SOL    HW227402   6.699   8.305   0.399 -3.1823 -0.0235 -0.4047
41799SOL     OW27403   9.185   1.524   4.888 -0.0376 -0.5458  0.3481
41799SOL    HW127404   9.135   1.551   4.811 -0.4217 -0.2713  0.6875
41799SOL    HW227405   9.182   1.429   4.886 -2.9254 -0.5920  1.8171
41800SOL     OW27406   5.231   5.572   9.513 -0.2224  0.0851  0.1932
41800SOL    HW127407   5.217   5.637   9.444  0.3369  0.9034  0.8263
41800SOL    HW227408   5.276   5.620   9.583 -1.1359 -0.6203  1.3038
41801SOL     OW27409   3.163   5.063   0.321 -0.0252 -0.1921 -0.0940
41801SOL    HW127410   3.147   5.026   0.408 -0.5017 -1.4812 -0.7136
41801SOL    HW227411   3.086   5.038   0.270  0.6824 -0.2664 -1.1499
41802SOL     OW27412   4.795   6.670   0.049  0.0654 -0.4579 -0.0118
41802SOL    HW127413   4.870   6.621   0.082  1.7636  1.6742 -0.4438
41802SOL    HW227414   4.800   6.754   0.094 -1.4512  0.0997 -0.8272
41803SOL     OW27415   6.819   9.805   3.496 -0.4330 -0.6728  0.1447
41803SOL    HW127416   6.798   9.789   3.588 -0.2679 -2.1193 -0.0509
41803SOL    HW227417   6.757   9.752   3.447  1.4295 -2.3824 -0.4995
41804SOL     OW27418   3.975   8.643   9.664 -0.5640  0.6729  0.6375
41804SOL    HW127419   4.012   8.590   9.734 -0.4235  0.3156  0.2948
41804SOL    HW227420   4.006   8.602   9.584 -0.7821  1.0387  0.3637
41805SOL     OW27421   3.691   9.308   1.132  0.3427  0.2440  0.7120
41805SOL    HW127422   3.598   9.328   1.124  0.7221  2.0558  0.4195
41805SOL    HW227423   3.727   9.323   1.045  1.1404  0.9517  1.1486
41806SOL     OW27424   3.781  10.150   0.180  0.1193  0.2469 -0.2534
41806SOL    HW127425   3.727  10.087   0.131  0.0638 -0.4438  0.6651
41806SOL    HW227426   3.840  10.187   0.115 -0.1987 -0.3802 -0.9115
41807SOL     OW27427   0.645   7.298  10.891 -0.2614 -0.1558 -0.1849
41807SOL    HW127428   0.602   7.349  10.822 -1.1580  0.6452  0.9399
41807SOL    HW227429   0.656   7.211  10.853 -2.4078 -0.2490 -0.7069
41808SOL     OW27430   8.679  10.969   8.479 -0.1414  0.5346  0.1596
41808SOL    HW127431   8.663  11.006   8.393 -0.3514 -1.0926 -0.5365
41808SOL    HW227432   8.610  10.904   8.491  1.1328 -0.8081  0.5850
41809SOL     OW27433  10.325   5.888  10.918 -0.2262  0.0244  0.2633
41809SOL    HW127434  10.346   5.893  11.011 -0.7741 -0.7990  0.4416
41809SOL    HW227435  10.242   5.840  10.915  0.6234 -1.4748 -0.7356
41810SOL     OW27436   0.303   9.631   9.027  0.3831 -0.3775  0.0634
41810SOL    HW127437   0.289   9.596   8.939  1.6953  2.1512 -1.2846
41810SOL    HW227438   0.396   9.655   9.029  0.4576 -0.6319  2.2761
41811SOL     OW27439   0.920   3.879   1.843  0.1284 -0.1475 -0.2277
41811SOL    HW127440   1.015   3.880   1.833  0.2931 -0.9244  1.0226
41811SOL    HW227441   0.891   3.963   1.809  1.3534  0.4328  0.1142
41812SOL     OW27442   8.914   3.988  10.840 -0.4898 -0.6732  0.4086
41812SOL    HW127443   8.995   4.018  10.799 -0.9839  0.6779  0.3596
41812SOL    HW227444   8.866   3.945  10.770  0.0410 -1.1815  0.3563
41813SOL     OW27445   5.265   2.590   4.365 -0.1368  0.0378  1.0193
41813SOL    HW127446   5.214   2.513   4.340  0.2457  0.1788 -0.2512
41813SOL    HW227447   5.264   2.589   4.461 -2.7496  0.1914  1.0528
41814SOL     OW27448   9.952   0.639   9.438  0.1846 -0.4532 -0.1984
41814SOL    HW127449   9.976   0.722   9.478  0.8114 -0.5787 -0.3140
41814SOL    HW227450   9.901   0.663   9.361  1.4378 -0.1346 -0.9510
41815SOL     OW27451   0.463   5.580   5.467  0.4648  0.3870 -0.7316
41815SOL    HW127452   0.411   5.608   5.542  1.4622  2.4063 -0.7284
41815SOL    HW227453   0.413   5.507   5.429 -0.5757 -0.0077  1.2554
41816SOL     OW27454   1.016   8.367   8.717 -0.0224 -0.1318 -0.2039
41816SOL    HW127455   1.111   8.376   8.728 -0.0236 -1.8646  1.6860
41816SOL    HW227456   0.980   8.383   8.804 -1.5637  1.1832 -1.0394
41817SOL     OW27457   4.865   7.637   5.188  0.1774  0.1507 -0.0072
41817SOL    HW127458   4.838   7.681   5.108  0.5536  1.7779  0.7157
41817SOL    HW227459   4.902   7.706   5.242 -0.9126 -0.7265  1.9664
41818SOL     OW27460   3.379   2.916   6.146  0.0532 -0.3464 -0.0925
41818SOL    HW127461   3.416   3.003   6.132  1.2699 -0.7695  0.3662
41818SOL    HW227462   3.341   2.920   6.234  0.3115 -0.3498  0.0186
41819SOL     OW27463   7.898   8.548   7.739  0.0550  0.5041 -0.4608
41819SOL    HW127464   7.883   8.638   7.767 -0.7801 -0.1733  1.3760
41819SOL    HW227465   7.901   8.497   7.819  1.0316 -1.0653 -1.4328
41820SOL     OW27466   2.572   6.778  10.786 -0.3517  0.0787  0.1380
41820SOL    HW127467   2.491   6.828  10.786 -0.4381 -0.0605  0.1272
41820SOL    HW227468   2.550   6.696  10.830  0.4573  1.1345  2.7534
41821SOL     OW27469   8.910   9.448   5.734 -0.6933 -0.3250  0.3206
41821SOL    HW127470   8.971   9.477   5.667 -0.7868 -0.5748  0.1238
41821SOL    HW227471   8.832   9.502   5.722 -0.2880  0.4197  0.9707
41822SOL     OW27472   1.640   6.949   7.843  0.0925  0.0507 -0.5796
41822SOL    HW127473   1.571   6.944   7.776 -0.2732 -1.7985 -0.1384
41822SOL    HW227474   1.698   6.875   7.822  2.5065  2.0690 -1.4741
41823SOL     OW27475   2.871   0.983  10.957  0.1311  0.3224 -0.3585
41823SOL    HW127476   2.880   1.021  10.870 -1.0441 -0.8718 -1.0356
41823SOL    HW227477   2.896   1.053  11.017 -0.1179  1.5096 -1.6177
41824SOL     OW27478  10.287   0.569   8.219  1.0482  0.1335  0.3440
41824SOL    HW127479  10.293   0.594   8.311 -0.3736  1.1626  0.1900
41824SOL    HW227480  10.208   0.612   8.187  1.5084 -0.1900 -1.3702
41825SOL     OW27481   4.126   6.747   5.394  0.3864  0.3860 -0.0543
41825SOL    HW127482   4.144   6.653   5.403  1.2107  0.3791 -1.5161
41825SOL    HW227483   4.143   6.783   5.481  2.3618 -0.4661 -0.0320
41826SOL     OW27484   4.161   2.022   0.597 -0.2901 -0.3607  0.3989
41826SOL    HW127485   4.189   2.037   0.687 -0.1118  0.5467  0.1979
41826SOL    HW227486   4.193   1.934   0.576 -2.3282 -1.5814  1.9861
41827SOL     OW27487   4.713   9.012  10.969 -0.2349  0.2028  0.1836
41827SOL    HW127488   4.625   9.027  11.002  0.0691  0.0487  1.0983
41827SOL    HW227489   4.770   9.061  11.028  0.5920 -2.5468  1.8902
41828SOL     OW27490   7.877   8.989   6.437 -0.9704 -0.3430 -0.3593
41828SOL    HW127491   7.870   8.964   6.530 -1.0246 -0.7086 -0.4588
41828SOL    HW227492   7.971   9.002   6.424 -0.8076 -1.6434 -0.5886
41829SOL     OW27493   5.940   0.034   5.534 -0.3780 -0.5421 -0.5544
41829SOL    HW127494   5.898  -0.052   5.535  1.0781 -1.2720  0.8234
41829SOL    HW227495   5.973   0.046   5.623  3.1766 -0.4700 -1.7221
41830SOL     OW27496   1.554   8.119   6.251  0.4438  0.3351  0.0557
41830SOL    HW127497   1.600   8.094   6.332  0.9598 -2.3349 -0.9651
41830SOL    HW227498   1.609   8.085   6.181 -0.5704  1.6085 -1.4145
41831SOL     OW27499   1.689   2.759   2.131  0.0392 -1.0527  0.2968
41831SOL    HW127500   1.615   2.789   2.184  0.0784 -1.2577  0.4677
41831SOL    HW227501   1.649   2.718   2.055 -0.0206  0.9737 -0.8289
41832SOL     OW27502   7.256   2.740   3.682  0.5695  0.5489 -0.3673
41832SOL    HW127503   7.229   2.802   3.614 -1.0864 -0.3080 -0.5486
41832SOL    HW227504   7.270   2.658   3.635 -0.9826 -0.1599  0.3146
41833SOL     OW27505   3.708   5.615   6.056 -0.5216  0.1962  0.0057
41833SOL    HW127506   3.764   5.581   5.987 -0.2947  0.9386 -0.1788
41833SOL    HW227507   3.660   5.538   6.087  1.9156 -0.8587  1.4492
41834SOL     OW27508   4.047   4.237   2.238  0.3827  0.7194 -0.0646
41834SOL    HW127509   3.981   4.242   2.169 -1.7580 -0.9298  1.7300
41834SOL    HW227510   4.129   4.218   2.192 -0.8685  0.1225 -2.1765
41835SOL     OW27511  10.312   7.367   2.460  0.1007 -0.4069 -0.4700
41835SOL    HW127512  10.343   7.316   2.385  0.0279 -1.5892  0.2905
41835SOL    HW227513  10.381   7.359   2.525  0.7571  1.6896 -0.8461
41836SOL     OW27514   4.085   8.831   1.734 -0.5883 -0.7041 -0.3245
41836SOL    HW127515   4.009   8.874   1.696  1.0692  1.1797 -1.7394
41836SOL    HW227516   4.159   8.885   1.707  1.2110 -2.0798  1.5338
41837SOL     OW27517   7.801   0.275   9.190 -0.1287 -0.0314 -0.6337
41837SOL    HW127518   7.878   0.278   9.246  2.6983  1.4150 -4.2091
41837SOL    HW227519   7.785   0.181   9.177  1.3921 -0.3660 -0.2671
41838SOL     OW27520   6.791   6.748   8.272 -0.1806 -0.2421 -0.4745
41838SOL    HW127521   6.804   6.832   8.317  1.8074 -1.5316  1.5295
41838SOL    HW227522   6.855   6.750   8.201 -2.7701  1.4470 -2.9966
41839SOL     OW27523   6.853   2.872   8.954 -0.4307  0.2679  0.1201
41839SOL    HW127524   6.866   2.892   9.047 -1.6926  1.6627  0.0293
41839SOL    HW227525   6.908   2.936   8.908 -1.3894  0.9330 -0.1164
41840SOL     OW27526   7.497   7.770   5.052  0.8479 -0.1875 -0.6841
41840SOL    HW127527   7.545   7.833   5.105  0.2492 -0.5708  0.3329
41840SOL    HW227528   7.564   7.710   5.020  1.1160 -0.4651  0.3687
41841SOL     OW27529  10.146   1.016   3.632  0.2847 -0.0374 -0.3468
41841SOL    HW127530  10.137   1.049   3.722 -1.4986 -1.7988  0.1885
41841SOL    HW227531  10.111   1.086   3.577 -0.1857  0.3785  0.4642
41842SOL     OW27532   3.184   3.034   9.353 -0.2930 -0.3811  0.1878
41842SOL    HW127533   3.265   3.005   9.311 -0.2894  0.4027 -0.3648
41842SOL    HW227534   3.115   3.008   9.293 -0.2152  1.7258 -0.9282
41843SOL     OW27535   0.880   7.193   8.255  0.3532  0.1901 -0.1451
41843SOL    HW127536   0.934   7.270   8.271 -0.9295  0.9470  0.8112
41843SOL    HW227537   0.798   7.212   8.301 -0.8534 -0.7598 -1.8131
41844SOL     OW27538   2.147   5.454   8.409  0.5548 -0.2788 -0.5517
41844SOL    HW127539   2.067   5.412   8.440  0.0569 -0.3037 -1.8146
41844SOL    HW227540   2.213   5.385   8.411  0.4043 -0.4113 -0.0488
41845SOL     OW27541   3.265   3.913   3.521 -0.0740 -0.3388 -0.1477
41845SOL    HW127542   3.350   3.898   3.479 -0.2475  0.3835 -0.7674
41845SOL    HW227543   3.284   3.974   3.592 -0.3200  1.1465 -1.3129
41846SOL     OW27544   5.862   5.027   7.283  0.1089  0.1655  0.2175
41846SOL    HW127545   5.928   5.049   7.348  0.0366  1.0758  0.0036
41846SOL    HW227546   5.833   5.112   7.249  0.1891 -0.2936 -1.0401
41847SOL     OW27547   7.568   8.403   8.725  0.3193  0.1790 -0.3270
41847SOL    HW127548   7.558   8.379   8.818 -1.0206  0.7225 -0.3103
41847SOL    HW227549   7.525   8.332   8.678  2.2968 -0.8741 -0.6495
41848SOL     OW27550   9.078   5.804   6.491 -0.0857 -0.8677  0.1558
41848SOL    HW127551   8.983   5.813   6.481  0.2030  0.7372 -1.9656
41848SOL    HW227552   9.112   5.822   6.403  2.2135 -0.9899  0.9735
41849SOL     OW27553   3.130   9.064   5.012  0.2948 -0.1285  0.0429
41849SOL    HW127554   3.161   9.023   4.931 -1.4363 -1.2566 -0.0945
41849SOL    HW227555   3.210   9.081   5.062  1.4724  1.2493 -2.1515
41850SOL     OW27556   4.033  10.813   9.514  0.4339  0.1484 -0.1855
41850SOL    HW127557   3.988  10.789   9.594  0.7515 -1.3659 -0.4345
41850SOL    HW227558   4.115  10.853   9.543  0.6602 -0.6265  0.2364
41851SOL     OW27559   9.143   3.021   9.156 -0.1369 -0.4788  0.7195
41851SOL    HW127560   9.149   3.018   9.252  1.9444 -0.1472  0.6507
41851SOL    HW227561   9.151   2.930   9.129 -1.0378 -0.6062  0.8562
41852SOL     OW27562  10.237  10.178  10.821  0.1184 -0.0490 -0.1247
41852SOL    HW127563  10.221  10.198  10.913  1.6731 -1.1238  0.4189
41852SOL    HW227564  10.310  10.234  10.796 -0.2374  0.1733 -0.6921
41853SOL     OW27565   5.103   1.874   9.935  0.1049  0.4496  0.3818
41853SOL    HW127566   5.083   1.946   9.994  0.3366 -0.1774  1.2506
41853SOL    HW227567   5.023   1.820   9.935 -0.6012  1.4017 -1.3621
41854SOL     OW27568   3.103   6.046   8.882 -0.0300 -0.4170 -0.1895
41854SOL    HW127569   3.043   6.074   8.813  0.1344  1.3169  0.3232
41854SOL    HW227570   3.109   5.951   8.871 -0.0428 -0.2068 -2.4969
41855SOL     OW27571   3.016   7.251  10.432  0.0223 -0.0646 -0.1056
41855SOL    HW127572   3.072   7.184  10.472 -1.0103 -0.7072  0.2981
41855SOL    HW227573   3.064   7.333  10.445  0.6495 -0.5335  0.6410
41856SOL     OW27574   6.072   4.544   8.385 -0.3642 -0.0646  0.1643
41856SOL    HW127575   6.016   4.621   8.369 -1.2705 -0.6854  0.2805
41856SOL    HW227576   6.048   4.514   8.472 -0.4560 -0.8373 -0.1205
41857SOL     OW27577   5.050   0.219   2.968  0.2540  0.1009  0.1579
41857SOL    HW127578   4.990   0.213   2.893  1.1473  1.7808 -0.7408
41857SOL    HW227579   5.058   0.129   2.998  1.3300 -0.9958 -2.9736
41858SOL     OW27580   8.777   4.588   4.986 -0.2017 -0.2603  0.0562
41858SOL    HW127581   8.857   4.535   4.986 -1.3038 -2.0673  1.8317
41858SOL    HW227582   8.806   4.675   5.013  1.4062 -0.3266 -1.2292
41859SOL     OW27583   3.132   2.891  10.580 -0.0473 -0.3479  0.5424
41859SOL    HW127584   3.152   2.896  10.486 -2.4501 -3.9265 -0.3739
41859SOL    HW227585   3.039   2.913  10.586 -0.1472 -1.0471  1.9609
41860SOL     OW27586   6.222   7.055   3.315  0.5049 -0.2528 -0.1375
41860SOL    HW127587   6.147   7.006   3.283  0.0444  0.2651  0.1363
41860SOL    HW227588   6.279   6.989   3.354  1.0130 -0.8915 -1.8457
41861SOL     OW27589   5.463   1.256   1.674  0.2416 -0.1285  0.2322
41861SOL    HW127590   5.378   1.213   1.664 -0.8571  2.3673 -2.6972
41861SOL    HW227591   5.448   1.325   1.738  0.5391 -0.6644  0.8947
41862SOL     OW27592   4.261   1.601   3.910 -0.0020  0.0216  0.5345
41862SOL    HW127593   4.250   1.662   3.983  2.4644 -1.7528  2.5501
41862SOL    HW227594   4.221   1.519   3.941  1.1114 -0.7673 -0.0625
41863SOL     OW27595   3.912   3.882   6.648  0.4129  0.4784  0.5426
41863SOL    HW127596   3.962   3.802   6.662 -1.0444 -0.2477  1.9713
41863SOL    HW227597   3.897   3.916   6.736 -0.4564  1.3926  0.0561
41864SOL     OW27598   5.931   2.407   7.012 -0.2914 -0.2253  0.0501
41864SOL    HW127599   5.883   2.399   7.094 -2.3665  0.6837 -0.9882
41864SOL    HW227600   5.927   2.501   6.992  0.9895 -0.3010 -0.6350
41865SOL     OW27601   6.973   1.904   6.989 -0.0546 -0.1309 -0.2439
41865SOL    HW127602   6.940   1.825   6.947 -1.6722  1.0681 -1.3510
41865SOL    HW227603   6.968   1.886   7.083 -0.1671 -1.4097 -0.4901
41866SOL     OW27604   1.681   7.442  10.637  0.6608 -0.2067 -0.1623
41866SOL    HW127605   1.653   7.519  10.686  1.7397 -0.2335  0.5178
41866SOL    HW227606   1.604   7.385  10.636  0.4655  0.0176  1.0542
41867SOL     OW27607   8.696   6.108   5.057  0.0426 -0.6382  0.5978
41867SOL    HW127608   8.689   6.032   4.999 -1.0106 -0.4500  0.4641
41867SOL    HW227609   8.728   6.178   5.000  0.3272 -0.7965  0.5610
41868SOL     OW27610   3.385   2.180   2.707 -0.1032 -0.1581 -0.4332
41868SOL    HW127611   3.364   2.233   2.630  1.3868 -0.0975 -0.8229
41868SOL    HW227612   3.369   2.239   2.781 -1.2689 -0.1260 -0.6902
41869SOL     OW27613   8.911   1.565  10.184 -0.0380 -0.1702  0.3776
41869SOL    HW127614   8.964   1.511  10.125 -0.3288 -1.0838  0.9404
41869SOL    HW227615   8.859   1.620  10.125  2.1283  1.3823 -0.1943
41870SOL     OW27616   3.346   7.321   2.357 -0.0362 -0.1140  0.2909
41870SOL    HW127617   3.409   7.392   2.370 -0.0485 -0.4026  2.2198
41870SOL    HW227618   3.398   7.247   2.329  0.2081  0.1899 -0.0697
41871SOL     OW27619   7.162   3.111   8.795  0.4133 -0.2084  0.4063
41871SOL    HW127620   7.230   3.091   8.861  0.8514 -0.5021 -0.1228
41871SOL    HW227621   7.080   3.112   8.845  0.6796 -0.9242  0.8776
41872SOL     OW27622   8.000   4.369   7.721 -0.2293 -0.4621 -0.6714
41872SOL    HW127623   8.086   4.409   7.709 -0.4434  0.5373  0.8831
41872SOL    HW227624   8.017   4.294   7.779 -0.6814  1.1575  1.6826
41873SOL     OW27625   6.120   2.395   7.968  0.2000 -0.2038  0.1023
41873SOL    HW127626   6.124   2.430   7.878  1.0099 -0.0853  0.1746
41873SOL    HW227627   6.033   2.419   7.999 -0.1702 -0.4362 -0.7287
41874SOL     OW27628   7.814   2.943   2.598  0.1766  0.1774 -0.8940
41874SOL    HW127629   7.854   3.027   2.621  1.5609 -0.7402  0.2371
41874SOL    HW227630   7.852   2.920   2.513  1.2463 -0.1826 -0.3233
41875SOL     OW27631  10.704   0.851   0.222  0.2428  0.0272 -0.3374
41875SOL    HW127632  10.698   0.930   0.168  1.7202 -0.8101 -1.7803
41875SOL    HW227633  10.670   0.781   0.167 -2.5332 -0.2184  1.4592
41876SOL     OW27634   2.470   8.371   9.353 -0.7275  0.1395 -0.0262
41876SOL    HW127635   2.475   8.399   9.262  0.3475 -0.4775 -0.1802
41876SOL    HW227636   2.398   8.308   9.355 -1.5914  1.1014 -0.1657
41877SOL     OW27637   7.640   1.888   3.010  0.2372  0.0194  0.0918
41877SOL    HW127638   7.636   1.883   3.105  1.1116 -0.3545  0.1179
41877SOL    HW227639   7.552   1.917   2.983  0.4237  1.6485  1.1093
41878SOL     OW27640   3.994   7.458   5.851 -0.3594 -0.5448  0.3978
41878SOL    HW127641   3.947   7.516   5.910  2.1891  2.8412 -0.5760
41878SOL    HW227642   4.020   7.383   5.906 -1.4271  0.5369  2.4890
41879SOL     OW27643   5.410  10.939   0.545 -0.2873  0.7176  0.3996
41879SOL    HW127644   5.376  10.857   0.581 -0.7970  0.9229  0.3859
41879SOL    HW227645   5.500  10.918   0.521 -0.8694 -0.3257 -1.0957
41880SOL     OW27646   7.362   8.618   8.949  0.2764  0.1048  0.8675
41880SOL    HW127647   7.404   8.551   9.003  1.8883 -1.0323 -1.6160
41880SOL    HW227648   7.435   8.659   8.901 -1.0696  0.9174 -0.5935
41881SOL     OW27649   3.175   1.054  10.908 -0.1073  0.4689  0.5043
41881SOL    HW127650   3.195   0.997  10.982  1.0494 -0.2841 -0.3541
41881SOL    HW227651   3.097   1.015  10.868  0.7859 -0.6909 -0.1957
41882SOL     OW27652   1.458  11.014   9.522  0.1369  0.1010 -0.2903
41882SOL    HW127653   1.507  11.012   9.439  0.4418  2.6301 -0.2419
41882SOL    HW227654   1.522  11.039   9.588 -0.9575  2.7020 -0.0969
41883SOL     OW27655   8.412   7.472   1.120  0.6847 -0.3799  0.1168
41883SOL    HW127656   8.477   7.420   1.167  0.9013 -0.2561 -0.0414
41883SOL    HW227657   8.412   7.437   1.031  0.4464 -0.4583  0.1469
41884SOL     OW27658   9.633   0.359  10.376 -0.2744  0.1677  0.8092
41884SOL    HW127659   9.571   0.408  10.429 -1.8962 -0.4710 -0.4039
41884SOL    HW227660   9.634   0.404  10.292  1.5279  0.6134  1.0357
41885SOL     OW27661   5.108   5.712   8.236  0.0112  0.2056 -0.0060
41885SOL    HW127662   5.054   5.662   8.175  0.2852 -1.1483  0.8110
41885SOL    HW227663   5.170   5.648   8.272  0.4715  1.1621  0.9734
41886SOL     OW27664  10.865  10.445   6.333  0.3182 -1.0641  0.2692
41886SOL    HW127665  10.780  10.441   6.377  0.5955 -0.5828  0.8634
41886SOL    HW227666  10.898  10.533   6.354  0.3728 -0.7509 -1.0533
41887SOL     OW27667   0.011   2.651   8.943 -0.2149 -0.3357  0.0957
41887SOL    HW127668  -0.072   2.675   8.900 -0.3645  1.2588  1.1984
41887SOL    HW227669   0.050   2.586   8.884 -1.1272  0.6362 -1.6641
41888SOL     OW27670   2.100   7.241   5.277 -0.5862 -0.4835 -0.6534
41888SOL    HW127671   2.035   7.246   5.207 -1.4308  0.7098  0.1737
41888SOL    HW227672   2.079   7.159   5.323  0.4553 -1.6750 -2.1922
41889SOL     OW27673   7.574   2.317   5.119  0.1374  0.5135 -0.5186
41889SOL    HW127674   7.609   2.303   5.031  0.3721  0.4622 -0.4150
41889SOL    HW227675   7.528   2.401   5.113  1.2941  1.1731 -0.3318
41890SOL     OW27676   1.633   5.310   8.371  0.2512 -0.1790 -0.1661
41890SOL    HW127677   1.600   5.249   8.437  0.2655 -0.8925 -0.7972
41890SOL    HW227678   1.690   5.257   8.316  1.3105  0.7193  0.0441
41891SOL     OW27679   1.723   7.088   1.350 -0.5482 -0.1608  0.0676
41891SOL    HW127680   1.724   7.178   1.381  0.1870 -0.0909 -0.1338
41891SOL    HW227681   1.708   7.095   1.256  0.1789 -0.2097 -0.0545
41892SOL     OW27682   2.594   2.427   6.791 -0.0377 -0.4033 -0.1468
41892SOL    HW127683   2.591   2.357   6.855 -0.8794  0.9822  1.4069
41892SOL    HW227684   2.540   2.395   6.718 -3.6677  0.0067  2.0961
41893SOL     OW27685   4.194  10.053   7.179  0.6222 -0.6739 -0.0912
41893SOL    HW127686   4.146   9.974   7.153  0.9838 -0.9491  0.0719
41893SOL    HW227687   4.162  10.121   7.120  0.8721 -1.1194 -0.7490
41894SOL     OW27688   4.873   9.120   9.656  0.3659  0.8127  0.5647
41894SOL    HW127689   4.846   9.210   9.638  0.4267  0.6368 -0.5172
41894SOL    HW227690   4.947   9.106   9.598  0.2133 -0.0055  0.5574
41895SOL     OW27691   3.885   4.318   6.100 -0.1056 -0.0806 -0.5225
41895SOL    HW127692   3.967   4.327   6.148 -0.9789 -3.1157  1.8590
41895SOL    HW227693   3.822   4.372   6.149 -0.0094  0.6071 -1.1360
41896SOL     OW27694   9.436   7.092   5.337 -0.0441  0.4639 -0.3793
41896SOL    HW127695   9.473   7.149   5.270  1.7610 -0.0757  0.1015
41896SOL    HW227696   9.434   7.146   5.416  2.4994 -0.3184  0.2954
41897SOL     OW27697   0.408   6.482   4.168 -0.3450 -0.0870 -0.5808
41897SOL    HW127698   0.333   6.474   4.109 -1.2699 -0.6542  0.6505
41897SOL    HW227699   0.449   6.395   4.166 -0.2957 -0.0655 -0.4886
41898SOL     OW27700   7.423   4.228  10.658  0.6860 -0.0362 -0.1517
41898SOL    HW127701   7.342   4.188  10.691 -0.6889  1.6782 -1.2477
41898SOL    HW227702   7.447   4.175  10.582  0.3956 -0.3527 -0.0256
41899SOL     OW27703  10.756   7.510   8.287  0.0850 -0.1388  0.1718
41899SOL    HW127704  10.756   7.520   8.192 -0.5121 -1.4879  0.0077
41899SOL    HW227705  10.698   7.436   8.303  2.4153 -1.8160  1.3926
41900SOL     OW27706   2.620  10.711   2.210  0.1704  0.0475 -0.1190
41900SOL    HW127707   2.547  10.768   2.187 -0.1054 -0.6354 -1.0030
41900SOL    HW227708   2.676  10.765   2.266 -0.1245  1.1444 -0.8492
41901SOL     OW27709   4.191   5.649   4.709  0.2981  0.7486 -0.3133
41901SOL    HW127710   4.274   5.657   4.662  0.0537 -1.3186 -1.2264
41901SOL    HW227711   4.124   5.659   4.642 -0.0532 -2.3182 -0.5902
41902SOL     OW27712   6.678   0.765   9.530  0.6283  0.3615 -0.2986
41902SOL    HW127713   6.748   0.771   9.465 -0.9076  0.3111 -2.0232
41902SOL    HW227714   6.614   0.831   9.502 -1.5160 -1.7623 -0.7105
41903SOL     OW27715   5.202   5.774   4.511  0.2187 -0.3149  0.1370
41903SOL    HW127716   5.193   5.780   4.606 -0.6290 -2.2400  0.2123
41903SOL    HW227717   5.252   5.852   4.487  2.5644 -0.9519  2.4344
41904SOL     OW27718   1.310   1.372  10.954  0.3740 -0.0584  0.1048
41904SOL    HW127719   1.380   1.369  10.888 -1.1754 -2.0209 -1.6092
41904SOL    HW227720   1.351   1.339  11.034  1.7408  0.1186 -0.4863
41905SOL     OW27721   6.986   3.523   1.548  0.0244  0.7081  0.0192
41905SOL    HW127722   6.988   3.474   1.630 -0.6003  2.2259  0.9727
41905SOL    HW227723   6.926   3.596   1.564 -1.2694  0.2531 -2.2581
41906SOL     OW27724   1.951   0.503   2.352  0.1467 -0.1946  0.0532
41906SOL    HW127725   1.928   0.411   2.358 -0.6436 -0.0208 -0.0911
41906SOL    HW227726   2.032   0.512   2.401 -0.5444 -0.7002  1.3333
41907SOL     OW27727   9.306   2.468   6.120 -0.4685  0.5308  0.2332
41907SOL    HW127728   9.396   2.452   6.147 -0.3033  1.4628  0.2693
41907SOL    HW227729   9.286   2.556   6.152 -0.7617  1.0970 -1.3938
41908SOL     OW27730   3.052   0.264   8.009  0.4462  0.1252 -0.5893
41908SOL    HW127731   3.096   0.179   8.009  1.5338  0.6585  0.5279
41908SOL    HW227732   2.999   0.264   8.088  0.1327  0.3380 -0.7971
41909SOL     OW27733   7.626  10.115  10.545 -0.0365 -0.2698  0.0907
41909SOL    HW127734   7.556  10.167  10.584  0.6517 -0.5958  1.8132
41909SOL    HW227735   7.680  10.087  10.619  0.9814 -1.4088 -1.0381
41910SOL     OW27736   2.274   0.378   3.779  0.3495 -0.0594 -0.1764
41910SOL    HW127737   2.196   0.434   3.780  1.0504  0.9549 -1.0354
41910SOL    HW227738   2.325   0.409   3.705  1.1101 -1.3789 -0.2375
41911SOL     OW27739   5.415   6.982   1.892  0.5062 -0.0962 -0.3839
41911SOL    HW127740   5.370   7.047   1.838 -0.2140  0.2241  0.5587
41911SOL    HW227741   5.417   7.021   1.979 -0.0297 -1.3626  0.2217
41912SOL     OW27742   4.260   9.647  10.419  0.2706 -0.5822 -0.4208
41912SOL    HW127743   4.228   9.688  10.338 -0.3928  0.1071  0.1833
41912SOL    HW227744   4.244   9.554  10.406 -1.7134 -0.3003 -0.2746
41913SOL     OW27745   2.905   6.399   7.706 -0.0056  0.5004  0.1416
41913SOL    HW127746   2.937   6.329   7.649  0.3084  1.1975 -0.5636
41913SOL    HW227747   2.981   6.425   7.757 -0.6183 -1.1171  1.9953
41914SOL     OW27748   5.877   6.767   2.257  0.3920 -0.1759 -0.1921
41914SOL    HW127749   5.913   6.729   2.177 -1.0383  0.9888 -1.4584
41914SOL    HW227750   5.881   6.696   2.321  1.2768 -1.2492 -1.3836
41915SOL     OW27751   6.989   2.169   0.150 -0.2448  0.6891  0.0756
41915SOL    HW127752   6.915   2.201   0.201  0.2293  1.4808  0.2790
41915SOL    HW227753   7.042   2.247   0.132 -1.9859  1.1565 -4.3829
41916SOL     OW27754   2.695   4.855   5.591  0.2924 -0.7572  0.6132
41916SOL    HW127755   2.675   4.875   5.500 -0.8034 -0.5485  0.8761
41916SOL    HW227756   2.757   4.782   5.587  0.0001 -0.9711 -0.2989
41917SOL     OW27757   5.951   9.676   0.142  0.3541 -0.7535  0.2937
41917SOL    HW127758   5.947   9.712   0.053  0.6335 -2.3000 -0.3772
41917SOL    HW227759   5.874   9.619   0.148 -1.2283  1.4131  2.0427
41918SOL     OW27760   2.482   4.246   0.971  0.4582  0.4160 -0.0225
41918SOL    HW127761   2.574   4.233   0.949  0.3853  0.6786 -0.5039
41918SOL    HW227762   2.480   4.253   1.066  0.8076 -0.6019  0.0693
41919SOL     OW27763  10.319   5.870   4.476  0.2058  0.2962  0.1866
41919SOL    HW127764  10.235   5.910   4.451 -0.1325  0.8868  2.0661
41919SOL    HW227765  10.295   5.802   4.539  1.0577 -0.5191 -0.3455
41920SOL     OW27766   1.723   7.465   0.426 -0.5134  0.1683 -0.0532
41920SOL    HW127767   1.809   7.506   0.414 -1.0585  1.3276 -0.1058
41920SOL    HW227768   1.696   7.493   0.514 -0.2754 -1.2851  0.5131
41921SOL     OW27769   7.602  10.567   2.284  0.0862  0.2056  0.0555
41921SOL    HW127770   7.667  10.587   2.351  0.6264  0.6359 -0.5821
41921SOL    HW227771   7.640  10.496   2.232 -0.5069 -0.4084  0.4492
41922SOL     OW27772   7.479   1.460   0.389 -0.2664  0.6700  0.3329
41922SOL    HW127773   7.570   1.455   0.418  0.6596  2.0302 -2.0207
41922SOL    HW227774   7.435   1.509   0.458  0.4095 -1.1186  2.1469
41923SOL     OW27775   2.944  10.446   4.499  0.0064 -0.1002  0.0065
41923SOL    HW127776   2.985  10.361   4.484  0.0442  0.0288 -0.6600
41923SOL    HW227777   2.861  10.425   4.542  0.6934 -0.3724  1.2704
41924SOL     OW27778   8.296   0.569   3.485  0.4196 -0.2047  0.2444
41924SOL    HW127779   8.269   0.492   3.435  1.3647 -0.5426  0.2358
41924SOL    HW227780   8.302   0.639   3.419  2.6220 -0.8738 -0.3529
41925SOL     OW27781   5.441   7.882   7.689  0.0625  0.7222 -0.4834
41925SOL    HW127782   5.515   7.849   7.741 -2.1727 -0.9397  1.9466
41925SOL    HW227783   5.431   7.819   7.618 -0.4838 -0.5788  0.6781
41926SOL     OW27784   4.879   9.365  10.886  0.4064 -0.1527  0.6517
41926SOL    HW127785   4.830   9.302  10.832 -0.3313  0.8671  0.1033
41926SOL    HW227786   4.881   9.325  10.973  0.0695 -1.0009  0.2809
41927SOL     OW27787   6.291   0.342   9.055  0.1322  0.2127  0.0467
41927SOL    HW127788   6.379   0.351   9.019 -0.6879 -0.6049 -2.3508
41927SOL    HW227789   6.235   0.387   8.992 -1.3228 -0.4500  0.8261
41928SOL     OW27790   5.157   5.149   7.193 -0.0455  0.3115 -0.1820
41928SOL    HW127791   5.094   5.185   7.255  0.8122  2.7931 -0.6420
41928SOL    HW227792   5.234   5.129   7.247  0.3505  1.5633 -0.2353
41929SOL     OW27793   7.255   2.902   4.282 -0.0994 -0.3075 -0.6253
41929SOL    HW127794   7.226   2.813   4.302  0.3555 -0.1980  0.5997
41929SOL    HW227795   7.326   2.891   4.220  2.6816 -1.1451  2.4262
41930SOL     OW27796   1.993   8.001   0.808  0.8175  0.1811  0.2266
41930SOL    HW127797   1.954   7.987   0.894  1.9000  0.6918  0.8222
41930SOL    HW227798   1.994   7.914   0.768 -1.8066  0.2723 -0.2529
41931SOL     OW27799   1.581   5.548   3.165 -0.0503 -0.2848  0.4515
41931SOL    HW127800   1.552   5.546   3.074 -0.0994 -0.3156  0.4679
41931SOL    HW227801   1.533   5.620   3.205  0.0563 -0.1989  0.4241
41932SOL     OW27802   0.692   5.702   3.382  0.0289 -1.2237 -0.3025
41932SOL    HW127803   0.766   5.643   3.368  0.4475 -0.6800 -0.4201
41932SOL    HW227804   0.732   5.785   3.408 -0.4913 -0.6717 -1.2045
41933SOL     OW27805   0.779   2.905   0.675  0.4790 -0.0387  0.3122
41933SOL    HW127806   0.770   2.945   0.762  1.6899  0.3964  0.2514
41933SOL    HW227807   0.693   2.865   0.659 -0.2187  1.0466  1.1208
41934SOL     OW27808   0.262   5.822   3.068 -0.0264 -0.1623  0.2075
41934SOL    HW127809   0.352   5.819   3.099 -0.0192  0.9480  0.3162
41934SOL    HW227810   0.210   5.849   3.144 -0.5836 -1.6713  0.3918
41935SOL     OW27811  10.829   4.687   7.988 -0.2760 -0.0664  0.2542
41935SOL    HW127812  10.812   4.749   7.918 -2.1453  0.1666  0.8599
41935SOL    HW227813  10.865   4.740   8.059  1.6126 -0.3021 -0.4668
41936SOL     OW27814   1.825   5.139   2.394  0.5633  0.6173  0.1059
41936SOL    HW127815   1.761   5.183   2.338 -0.3055 -1.5760 -0.7431
41936SOL    HW227816   1.909   5.152   2.350  0.2484  1.0302 -0.3790
41937SOL     OW27817   2.935   3.128   9.463 -0.1281 -0.0801 -0.6051
41937SOL    HW127818   3.030   3.137   9.473 -0.0427  0.3935 -1.6541
41937SOL    HW227819   2.898   3.168   9.541  0.5411 -0.5739 -0.0251
41938SOL     OW27820   2.178   7.129   2.144  0.0175 -0.1786 -0.0458
41938SOL    HW127821   2.086   7.151   2.132 -0.1309  0.6661  2.1947
41938SOL    HW227822   2.223   7.173   2.072 -1.4098 -1.7259 -1.9919
41939SOL     OW27823   0.199  10.641   5.630 -0.1922  0.3075 -0.1845
41939SOL    HW127824   0.222  10.685   5.548 -2.4631  1.2277 -0.3922
41939SOL    HW227825   0.146  10.566   5.602 -0.2624  0.1394  0.3965
41940SOL     OW27826   3.940   1.677   5.654  0.0393  0.7602 -0.0140
41940SOL    HW127827   3.874   1.617   5.689 -0.1487  0.6112 -0.6246
41940SOL    HW227828   3.999   1.693   5.728 -0.8658  1.1555  0.6385
41941SOL     OW27829   9.106   5.975  10.395  0.0915 -0.3039  0.0963
41941SOL    HW127830   9.108   5.979  10.300 -1.5984 -1.0396  0.0095
41941SOL    HW227831   9.081   5.885  10.416  0.3148 -0.1227  1.2353
41942SOL     OW27832   7.328   9.336   6.680 -0.1320 -0.4519 -0.3879
41942SOL    HW127833   7.317   9.309   6.771 -0.4906  0.5314 -0.1294
41942SOL    HW227834   7.239   9.342   6.646 -0.0396 -0.0311 -0.5626
41943SOL     OW27835   2.205  10.507   2.919 -0.1303 -0.5860 -0.0571
41943SOL    HW127836   2.270  10.478   2.854  0.9605  1.7381 -0.0902
41943SOL    HW227837   2.121  10.481   2.883  0.5858 -0.9395 -1.5276
41944SOL     OW27838   1.019   6.800   7.067 -0.3191 -0.5004 -0.7854
41944SOL    HW127839   1.018   6.802   7.163  0.9109  0.4992 -0.7548
41944SOL    HW227840   1.026   6.708   7.045  0.2081 -0.6930  0.1286
41945SOL     OW27841   4.344   8.382   3.772  0.0645 -0.1656 -0.1319
41945SOL    HW127842   4.275   8.378   3.705 -0.9122 -0.8418  0.8772
41945SOL    HW227843   4.297   8.391   3.854  1.2308  0.1646  0.5174
41946SOL     OW27844   4.255   4.827   8.987  0.2463  0.1890  0.2369
41946SOL    HW127845   4.343   4.805   9.019  0.1459  0.2785  0.5802
41946SOL    HW227846   4.270   4.871   8.903  0.5708  0.9099  0.6663
41947SOL     OW27847   1.906   4.735   3.287  0.5675  0.1813 -0.1385
41947SOL    HW127848   1.905   4.809   3.347  0.2181 -0.4037  0.5942
41947SOL    HW227849   1.818   4.698   3.293  0.4378  0.2641 -1.2212
41948SOL     OW27850   5.630  10.222  10.660 -0.1159  0.0616  0.7387
41948SOL    HW127851   5.697  10.240  10.725 -0.5047 -1.5854  1.6439
41948SOL    HW227852   5.551  10.203  10.711  0.1342 -3.6693  0.0311
41949SOL     OW27853   8.915  10.909   3.248  0.3138 -0.1271 -0.1727
41949SOL    HW127854   8.888  10.820   3.226  0.9261 -0.5257  0.6302
41949SOL    HW227855   9.009  10.911   3.231  0.2816  0.4112 -0.3173
41950SOL     OW27856   1.392   7.843   4.377  0.4259 -0.5410 -0.1294
41950SOL    HW127857   1.368   7.919   4.323  4.1588  1.4014  0.5659
41950SOL    HW227858   1.338   7.850   4.455  1.1674  1.9441  0.2443
41951SOL     OW27859  10.658   4.098  10.309 -0.0432  0.1406 -0.6080
41951SOL    HW127860  10.716   4.168  10.280  0.9191 -0.4384 -0.1389
41951SOL    HW227861  10.679   4.085  10.402 -0.4769 -0.4936 -0.5876
41952SOL     OW27862  10.236   4.302   6.786 -0.0955 -0.6740  0.1622
41952SOL    HW127863  10.189   4.223   6.759 -1.2143 -0.2853  0.8821
41952SOL    HW227864  10.209   4.315   6.878  2.3420 -1.0859  1.0026
41953SOL     OW27865   0.636   8.646   4.380 -0.5586 -0.4784  0.4551
41953SOL    HW127866   0.646   8.595   4.460 -1.3077  0.0488  0.9004
41953SOL    HW227867   0.566   8.708   4.400 -0.0259  0.3746 -0.2461
41954SOL     OW27868   4.664   9.385   6.536 -0.7598  0.4327  0.7259
41954SOL    HW127869   4.669   9.382   6.632 -0.8189  0.0487  0.7210
41954SOL    HW227870   4.703   9.302   6.508  1.5791  1.5638  0.3129
41955SOL     OW27871   7.449   6.902   8.823 -0.0819 -0.6462  0.0440
41955SOL    HW127872   7.409   6.962   8.886  0.3304 -0.1822 -0.1361
41955SOL    HW227873   7.379   6.841   8.801 -0.6210  0.0040 -0.0701
41956SOL     OW27874   1.108   0.231   7.261  0.1167  0.3391 -0.1576
41956SOL    HW127875   1.105   0.241   7.356  2.4859 -2.0856  0.2995
41956SOL    HW227876   1.067   0.146   7.245  2.5446 -0.8110 -0.8352
41957SOL     OW27877   4.440   1.011   1.220  0.0515  0.5653 -0.5480
41957SOL    HW127878   4.386   1.044   1.148 -1.1873  0.2798  0.2205
41957SOL    HW227879   4.530   1.023   1.189 -0.4211  1.4936 -1.6753
41958SOL     OW27880   6.384   4.572   4.090 -0.5935  0.0480 -0.4005
41958SOL    HW127881   6.359   4.488   4.129 -2.4937 -0.4481 -2.4444
41958SOL    HW227882   6.308   4.629   4.106 -0.9085  0.1880 -2.2632
41959SOL     OW27883   4.555   7.873   6.913  0.3994 -0.3810  0.7329
41959SOL    HW127884   4.604   7.943   6.870  0.3632  0.1012  1.4616
41959SOL    HW227885   4.589   7.872   7.002 -1.5023  0.5379  1.5077
41960SOL     OW27886   1.344   7.859   1.042 -0.3153  0.5568 -0.3368
41960SOL    HW127887   1.330   7.889   1.131 -0.8380 -1.2792  0.2542
41960SOL    HW227888   1.316   7.767   1.043  0.7623  0.1518 -2.0921
41961SOL     OW27889   3.254   3.573   6.502 -0.5385 -0.0028 -0.4124
41961SOL    HW127890   3.312   3.649   6.495 -1.2376  0.8096  1.6958
41961SOL    HW227891   3.185   3.602   6.562 -0.2876 -2.6232  1.3024
41962SOL     OW27892   9.515  10.452   8.106  0.6104  0.1764 -0.0270
41962SOL    HW127893   9.576  10.480   8.037  1.7198  0.2023  0.9338
41962SOL    HW227894   9.471  10.533   8.132  0.9410  0.3530 -0.0029
41963SOL     OW27895   9.192   3.805   7.404 -0.0458  0.0801 -0.5890
41963SOL    HW127896   9.114   3.764   7.364 -0.5200 -0.0418  0.4341
41963SOL    HW227897   9.158   3.883   7.448  0.3924 -0.0444 -0.0238
41964SOL     OW27898   4.628   3.217   4.781  0.0430 -0.0187 -0.2416
41964SOL    HW127899   4.565   3.222   4.709 -0.3746  1.3622  0.1925
41964SOL    HW227900   4.581   3.251   4.857  0.8989 -0.2109  0.3906
41965SOL     OW27901   8.280  10.460   1.116 -0.2975 -0.1111  0.2028
41965SOL    HW127902   8.325  10.470   1.032  0.3893 -0.3307  0.5392
41965SOL    HW227903   8.192  10.430   1.093  0.0797 -0.7608 -0.4107
41966SOL     OW27904   7.571   7.434   3.862  0.2875 -0.4605 -0.4312
41966SOL    HW127905   7.664   7.450   3.844  0.3084 -0.6002 -0.4494
41966SOL    HW227906   7.530   7.428   3.776 -0.0233  1.2104 -0.4294
41967SOL     OW27907   1.112   6.110   5.198 -0.0707  0.4597  1.0460
41967SOL    HW127908   1.186   6.134   5.254 -0.1938 -0.9815  1.8565
41967SOL    HW227909   1.152   6.071   5.120  0.0915  2.2585  0.1750
41968SOL     OW27910   6.280   9.187   5.330 -0.3058  0.5820 -0.4014
41968SOL    HW127911   6.288   9.233   5.247  3.8041  0.9073 -0.0831
41968SOL    HW227912   6.198   9.219   5.368 -0.9994  2.4138 -3.1470
41969SOL     OW27913   4.827   1.455   2.783 -0.7537  0.4376  0.0981
41969SOL    HW127914   4.806   1.541   2.820 -1.3905  0.8656 -1.2108
41969SOL    HW227915   4.905   1.471   2.729 -0.1723 -0.0693  0.7608
41970SOL     OW27916   4.637   6.328   1.337  0.1063  0.6890  0.3526
41970SOL    HW127917   4.692   6.314   1.261  0.3954  0.8730  0.5269
41970SOL    HW227918   4.621   6.423   1.338  0.5384  0.7620  0.8172
41971SOL     OW27919   4.402   1.171   4.303  0.3028 -0.0260  0.0964
41971SOL    HW127920   4.474   1.152   4.364 -0.2190  1.7276  1.3688
41971SOL    HW227921   4.428   1.253   4.261  0.3753 -0.9128 -1.6892
41972SOL     OW27922  10.872   0.208   9.823 -0.1962  0.3238  0.0823
41972SOL    HW127923  10.860   0.203   9.728 -0.4013 -2.5076  0.1877
41972SOL    HW227924  10.962   0.178   9.837  0.3721  2.2101  0.7224
41973SOL     OW27925   1.359  10.488   8.621 -0.2873  0.2612 -0.2642
41973SOL    HW127926   1.304  10.422   8.578  1.5666 -0.9288 -0.9015
41973SOL    HW227927   1.448  10.469   8.592  0.4261  2.5944  0.1382
41974SOL     OW27928   7.531   5.186   1.440  0.6805  0.0658 -0.0302
41974SOL    HW127929   7.615   5.206   1.398  0.6980  2.0159  0.8404
41974SOL    HW227930   7.466   5.201   1.371  0.9331 -0.0488 -0.2967
41975SOL     OW27931  11.018   8.627   9.460  0.2007 -0.4633  0.1028
41975SOL    HW127932  11.046   8.706   9.508  0.2664 -0.1901 -0.3763
41975SOL    HW227933  10.975   8.573   9.526  0.3108 -0.1005  0.4773
41976SOL     OW27934   1.019   6.020   5.976 -0.3276  0.1192 -0.5893
41976SOL    HW127935   1.008   6.001   6.069  0.3281  1.9151 -0.1012
41976SOL    HW227936   1.071   5.946   5.943  1.3798  0.5331  0.9867
41977SOL     OW27937   2.009   5.220   8.561  0.3237 -0.3030  0.3847
41977SOL    HW127938   1.948   5.293   8.551  1.9594  1.2035  0.9428
41977SOL    HW227939   1.954   5.142   8.553 -1.2050  0.8984 -2.1623
41978SOL     OW27940   3.840   4.061   7.988 -0.1598 -0.1625  0.0790
41978SOL    HW127941   3.869   4.130   7.928  1.5592  0.2341  1.2686
41978SOL    HW227942   3.893   3.985   7.965 -1.6753 -0.9706 -0.8815
41979SOL     OW27943   6.228   8.384   8.709  0.0955  0.1383 -0.3462
41979SOL    HW127944   6.152   8.417   8.758  0.6673 -1.3136  1.6538
41979SOL    HW227945   6.302   8.430   8.749  0.5091 -0.5584 -0.3019
41980SOL     OW27946   9.300   7.565  10.044 -0.1370  0.2273  0.5454
41980SOL    HW127947   9.325   7.633  10.106  1.8204 -0.6847  0.8378
41980SOL    HW227948   9.332   7.484  10.083  0.2532 -0.4956 -1.1678
41981SOL     OW27949   2.558   4.427   6.313 -0.3799  0.8371  0.2966
41981SOL    HW127950   2.511   4.345   6.300  1.1692 -0.0777  0.1729
41981SOL    HW227951   2.540   4.452   6.403  1.4774 -1.2543  1.3345
41982SOL     OW27952   4.598   7.860   7.232  0.2836  0.3484 -0.4752
41982SOL    HW127953   4.581   7.768   7.209  0.0405  0.1832  0.3351
41982SOL    HW227954   4.517   7.891   7.270  0.5794  0.7076 -0.1311
41983SOL     OW27955   9.429  10.602  10.234  0.2015 -0.3682  0.0018
41983SOL    HW127956   9.361  10.582  10.170  1.0087 -0.5273 -0.8297
41983SOL    HW227957   9.471  10.518  10.251  2.9728  0.3161 -2.7585
41984SOL     OW27958   2.018   3.066   3.706  0.0381  0.1141 -0.3869
41984SOL    HW127959   1.935   3.103   3.735  0.3432  0.3683  0.1709
41984SOL    HW227960   2.031   2.989   3.762 -0.0503 -0.1921 -0.7866
41985SOL     OW27961   0.837   5.916   7.095 -0.7270 -0.5961  0.1234
41985SOL    HW127962   0.833   5.900   7.189  0.3196  0.5269  0.3776
41985SOL    HW227963   0.928   5.897   7.071 -0.0823  2.2362 -0.0260
41986SOL     OW27964  10.133   2.479   8.903 -0.3800  0.7074  0.1411
41986SOL    HW127965  10.093   2.515   8.981 -0.0347  0.0098  0.6550
41986SOL    HW227966  10.227   2.494   8.915 -0.4897  3.4198 -1.6018
41987SOL     OW27967   3.398   3.082   4.599 -0.3446  0.2283  0.0570
41987SOL    HW127968   3.326   3.031   4.561 -0.6316  0.0231  0.8569
41987SOL    HW227969   3.356   3.139   4.663  0.1502  0.4808  0.1633
41988SOL     OW27970   3.216   4.177   1.236  0.2885  0.5614 -0.3423
41988SOL    HW127971   3.229   4.271   1.234  0.7537  0.5590  1.4639
41988SOL    HW227972   3.199   4.156   1.328 -0.0488 -1.0901 -0.7361
41989SOL     OW27973   8.597   5.992   3.884  0.8153  0.0286 -0.0865
41989SOL    HW127974   8.506   5.983   3.859  0.0887 -0.3024  2.3823
41989SOL    HW227975   8.638   6.040   3.812 -0.9503 -1.0150 -1.8887
41990SOL     OW27976   3.853   0.656   5.372  0.1126  0.0119 -0.1136
41990SOL    HW127977   3.929   0.703   5.405 -0.3241 -0.3901  1.5199
41990SOL    HW227978   3.784   0.672   5.436 -0.9119 -0.4480 -1.0510
41991SOL     OW27979   0.165   5.037   1.817  0.3868 -0.7008 -0.0064
41991SOL    HW127980   0.096   4.985   1.860  0.0621 -0.5120 -0.2985
41991SOL    HW227981   0.155   5.017   1.724  1.3576 -1.4380  0.0252
41992SOL     OW27982   2.018   5.322   1.885  0.1983 -0.1736  0.3440
41992SOL    HW127983   1.969   5.241   1.874  0.3406 -0.2012 -0.1033
41992SOL    HW227984   2.073   5.328   1.807 -0.9803  1.1642 -0.4214
41993SOL     OW27985  10.511   2.756   9.319  0.2037  0.1073  0.3723
41993SOL    HW127986  10.502   2.735   9.412 -0.8021  2.9275  1.0173
41993SOL    HW227987  10.426   2.794   9.296  1.4896  2.4835 -0.7826
41994SOL     OW27988   2.246  10.229   0.188 -0.1421  0.1876  0.7858
41994SOL    HW127989   2.237  10.314   0.232  0.6979 -0.4215  2.2050
41994SOL    HW227990   2.336  10.229   0.156 -0.5828  0.3995 -0.5189
41995SOL     OW27991   6.218   4.708   8.235  0.2226 -0.0274  0.0901
41995SOL    HW127992   6.262   4.649   8.173  0.7861  0.3586  0.1132
41995SOL    HW227993   6.165   4.650   8.289 -0.4318 -0.3530 -0.8784
41996SOL     OW27994   9.757   7.531   8.990  0.3784  0.4220  0.1251
41996SOL    HW127995   9.731   7.504   9.078 -0.9829  2.3031  0.3763
41996SOL    HW227996   9.778   7.624   9.000  1.1825  0.4246 -1.3556
41997SOL     OW27997   3.813   0.527   5.762  0.3375  0.3863  0.0601
41997SOL    HW127998   3.793   0.465   5.832 -1.6778 -0.1620 -0.9194
41997SOL    HW227999   3.774   0.609   5.790  0.2071  0.3706 -0.0732
41998SOL     OW28000   0.226  10.431   2.416 -0.1080  0.1837 -0.2201
41998SOL    HW128001   0.301  10.464   2.466 -0.2854 -0.6243  0.6043
41998SOL    HW228002   0.173  10.509   2.398  0.5842  0.6663 -0.2236
41999SOL     OW28003   4.792   9.158   6.443  0.1467  0.3382 -0.1311
41999SOL    HW128004   4.832   9.113   6.369 -1.3634  1.3894 -1.6673
41999SOL    HW228005   4.722   9.099   6.472  1.1549 -0.3724  0.9327
42000SOL     OW28006   4.796   7.278  10.886  0.4800  0.3706 -0.2113
42000SOL    HW128007   4.741   7.253  10.812 -0.0663  1.3378 -0.1430
42000SOL    HW228008   4.870   7.325  10.846  1.9510 -1.9537 -0.4192
42001SOL     OW28009   5.200   6.664  10.767 -0.3350  0.1038  0.2399
42001SOL    HW128010   5.289   6.674  10.800 -0.4416  1.6350  0.1296
42001SOL    HW228011   5.210   6.654  10.672 -0.2051 -1.3819  0.3874
42002SOL     OW28012   2.041  10.120   5.691  0.3797 -0.3987  0.0612
42002SOL    HW128013   2.121  10.074   5.717 -0.1883 -0.3095  2.1200
42002SOL    HW228014   2.004  10.067   5.620  1.9609 -0.7320 -0.5588
42003SOL     OW28015   0.785   4.100   6.668 -0.2627  0.1657 -0.0794
42003SOL    HW128016   0.822   4.174   6.620 -1.9170  1.2820  0.3064
42003SOL    HW228017   0.823   4.107   6.756 -1.6589  1.5957  0.4613
42004SOL     OW28018   2.143   7.021   6.056  0.1668  0.0051 -0.0875
42004SOL    HW128019   2.109   7.049   5.971  2.2574 -1.4763 -1.4863
42004SOL    HW228020   2.229   7.062   6.062  0.3100 -0.4415  1.0378
42005SOL     OW28021   5.072  10.735   8.241 -0.8298  0.1695 -0.3443
42005SOL    HW128022   5.149  10.778   8.278  0.4280  0.9037 -3.4920
42005SOL    HW228023   5.032  10.690   8.315  1.8402  0.8751  1.6960
42006SOL     OW28024   9.556   5.667   3.413  0.0163  0.0183  0.1585
42006SOL    HW128025   9.646   5.681   3.442  1.1382 -0.3026 -2.8262
42006SOL    HW228026   9.505   5.730   3.462  2.2436  1.8589  0.2685
42007SOL     OW28027   1.024   9.058   1.536  0.8911 -1.1271  0.3503
42007SOL    HW128028   1.011   9.027   1.446  1.3074 -0.1111 -0.0653
42007SOL    HW228029   1.119   9.063   1.547  0.8637  1.3695 -0.0982
42008SOL     OW28030  10.264   7.588   7.365  0.3668  0.4219  0.2025
42008SOL    HW128031  10.257   7.631   7.279  1.3912  0.8341  0.3119
42008SOL    HW228032  10.226   7.501   7.352  2.8478 -0.5245 -1.3976
42009SOL     OW28033   2.711   7.072   0.569  0.3994  0.0845 -0.4338
42009SOL    HW128034   2.648   7.036   0.632  0.0230 -0.6541 -1.2179
42009SOL    HW228035   2.726   7.162   0.600 -1.4668  0.4699 -0.5121
42010SOL     OW28036   0.877   2.331   5.009  0.4944 -0.0718  0.5070
42010SOL    HW128037   0.796   2.316   4.961  0.3866 -0.5431  0.8196
42010SOL    HW228038   0.848   2.371   5.092  0.5951 -0.0693  0.5409
42011SOL     OW28039   0.519   2.667   7.820 -0.0071 -0.5307  0.3703
42011SOL    HW128040   0.484   2.747   7.779  0.7028 -0.6376 -0.4703
42011SOL    HW228041   0.613   2.670   7.802  0.2014 -1.0091  1.2994
42012SOL     OW28042   3.689   2.758   1.405 -0.0670  0.4473 -0.1226
42012SOL    HW128043   3.712   2.806   1.326  0.3904  1.3566  0.5573
42012SOL    HW228044   3.621   2.811   1.447 -1.6207 -0.9114 -0.7835
42013SOL     OW28045  10.794   2.836   3.840  0.0475  0.0116  0.1737
42013SOL    HW128046  10.859   2.903   3.822 -0.0380 -0.0961 -0.5468
42013SOL    HW228047  10.751   2.866   3.921  0.2168  0.6639  0.0286
42014SOL     OW28048   9.617   2.949   8.743 -0.2673 -0.3869 -0.0276
42014SOL    HW128049   9.557   2.948   8.668  0.9656 -2.3739 -1.0656
42014SOL    HW228050   9.700   2.978   8.705  0.1495 -0.5478  0.7611
42015SOL     OW28051   4.062   6.831   2.519 -0.3993 -0.1559 -0.5156
42015SOL    HW128052   3.998   6.830   2.591  1.0074  0.0099  0.7989
42015SOL    HW228053   4.122   6.759   2.540  1.5266  1.4912 -0.0626
42016SOL     OW28054   1.857   0.245   1.440 -0.2596  0.3888  0.8493
42016SOL    HW128055   1.828   0.169   1.490  0.1251 -0.5870 -0.3832
42016SOL    HW228056   1.947   0.225   1.416 -0.5711  0.6489 -0.6003
42017SOL     OW28057   9.312   4.241   9.380 -0.1768 -0.4067  0.1539
42017SOL    HW128058   9.403   4.234   9.410  0.5540  0.4379 -1.6935
42017SOL    HW228059   9.290   4.333   9.393 -0.6571 -0.5388  0.2689
42018SOL     OW28060   3.530   6.102   2.345  0.0682  0.0658 -0.7532
42018SOL    HW128061   3.569   6.120   2.260 -0.6265  0.7470 -0.9433
42018SOL    HW228062   3.436   6.103   2.329 -0.1154  1.3062  0.2143
42019SOL     OW28063   0.807   4.189   0.706 -0.3176 -0.2414  0.4034
42019SOL    HW128064   0.741   4.258   0.705 -0.1154 -0.0412  0.6919
42019SOL    HW228065   0.859   4.207   0.784 -0.4447 -0.8893  0.6468
42020SOL     OW28066   9.564   9.264   0.559 -0.1248 -0.0168 -0.0482
42020SOL    HW128067   9.582   9.357   0.574 -1.6759  0.8689 -2.9218
42020SOL    HW228068   9.475   9.251   0.591 -0.3694 -0.1927 -0.7847
42021SOL     OW28069   9.234   5.029   7.828 -0.1540 -0.2186 -0.0246
42021SOL    HW128070   9.232   4.965   7.898  2.0830 -0.4932 -0.1323
42021SOL    HW228071   9.326   5.033   7.801 -0.6197  1.2847 -1.6407
42022SOL     OW28072   1.850   7.870   2.952 -0.0917 -0.3378 -0.3314
42022SOL    HW128073   1.856   7.794   2.894 -0.3846 -1.6877  1.3304
42022SOL    HW228074   1.883   7.839   3.036 -0.6330  1.2598  0.5160
42023SOL     OW28075   6.502   3.452   0.959  0.2631 -0.9285 -0.5194
42023SOL    HW128076   6.449   3.378   0.929 -2.7620  0.0626  1.8732
42023SOL    HW228077   6.451   3.529   0.937  2.6513  0.4334 -1.6292
42024SOL     OW28078   4.279   0.602   7.388 -0.0654  0.0987  0.2647
42024SOL    HW128079   4.277   0.646   7.473 -0.8723  3.0386 -1.1203
42024SOL    HW228080   4.371   0.606   7.361 -0.2026  1.6372 -0.0905
42025SOL     OW28081   1.149   4.360   4.454 -0.3032  0.0570 -0.5540
42025SOL    HW128082   1.058   4.342   4.429 -0.4352 -0.5666  0.3247
42025SOL    HW228083   1.165   4.449   4.423 -1.1401  0.0900 -0.9206
42026SOL     OW28084   1.204   7.063   0.549 -0.0001  0.5059 -0.1844
42026SOL    HW128085   1.213   7.140   0.492  0.6741  0.5645 -0.0143
42026SOL    HW228086   1.147   7.004   0.500  2.4059 -0.4474 -2.0597
42027SOL     OW28087   7.435   7.501   1.066 -0.3660  0.8282  0.6150
42027SOL    HW128088   7.471   7.485   0.979 -0.7323  0.7128  0.4807
42027SOL    HW228089   7.469   7.587   1.091 -0.2839  0.8760  0.3447
42028SOL     OW28090   9.885   2.330   6.112  0.2391 -0.4225  0.3703
42028SOL    HW128091   9.849   2.326   6.200 -1.8058  0.6128 -0.3285
42028SOL    HW228092   9.895   2.424   6.095 -0.8435 -0.5059 -0.9701
42029SOL     OW28093   8.142   1.990   2.079 -0.2868  0.1930 -0.7233
42029SOL    HW128094   8.118   1.898   2.090 -2.4007  0.6398 -1.2200
42029SOL    HW228095   8.130   2.006   1.985  0.8323  0.7957 -0.7808
42030SOL     OW28096   9.620   4.811  10.084  0.0142  0.4679 -0.1782
42030SOL    HW128097   9.564   4.884  10.112  0.2110  1.3940 -2.0305
42030SOL    HW228098   9.613   4.811   9.988  2.7586  0.2732 -0.4426
42031SOL     OW28099  10.931   4.200   7.811  0.0812  0.7289 -0.9284
42031SOL    HW128100  10.992   4.271   7.831  0.3250  0.2966 -0.1159
42031SOL    HW228101  10.980   4.142   7.752  0.7470 -0.0132  0.3191
42032SOL     OW28102   1.201   4.459   3.971 -0.1842  0.9953  0.0628
42032SOL    HW128103   1.138   4.398   4.011 -0.8342  2.0169  0.6495
42032SOL    HW228104   1.283   4.409   3.967 -0.3860  0.4581  1.6157
42033SOL     OW28105  10.704   7.073   3.089 -0.2065 -0.3637 -0.3369
42033SOL    HW128106  10.770   7.140   3.070 -0.8169  0.4527  0.3373
42033SOL    HW228107  10.664   7.102   3.171 -0.4720 -1.5753 -0.0190
42034SOL     OW28108   1.842   3.211   3.857 -0.3178 -0.0858  0.5776
42034SOL    HW128109   1.808   3.138   3.910 -0.8322 -0.0025  0.3676
42034SOL    HW228110   1.776   3.224   3.789 -0.6706  1.1476  1.1203
42035SOL     OW28111  10.346   7.275   1.076  0.1720  0.2788 -0.2882
42035SOL    HW128112  10.263   7.269   1.124 -0.1546 -2.5455 -1.0418
42035SOL    HW228113  10.375   7.185   1.066  1.4696  0.9027 -3.2853
42036SOL     OW28114   2.998   7.209   2.440 -0.4703  0.1930  0.2264
42036SOL    HW128115   3.009   7.267   2.365 -1.3556  0.3183  0.1796
42036SOL    HW228116   2.953   7.263   2.505  0.6483  0.2072  1.0052
42037SOL     OW28117   9.954   1.868   1.457  0.5174 -0.3955  1.0805
42037SOL    HW128118   9.933   1.961   1.448 -3.5579 -0.9140  2.8444
42037SOL    HW228119  10.025   1.865   1.520  1.8228  1.5179 -0.2021
42038SOL     OW28120  10.552   4.695   3.316  0.2476  0.4899  0.6494
42038SOL    HW128121  10.536   4.789   3.318  2.8225  1.0151  0.1336
42038SOL    HW228122  10.560   4.674   3.223 -0.3137 -0.2411  0.7628
42039SOL     OW28123   7.726   2.004   5.064  0.2103 -0.9383  0.3147
42039SOL    HW128124   7.723   2.034   5.155 -0.7802  0.0423 -0.0223
42039SOL    HW228125   7.818   1.985   5.049  1.1492  2.8378  0.3075
42040SOL     OW28126   5.781   8.539   4.270 -0.6629  0.3177 -0.1235
42040SOL    HW128127   5.854   8.558   4.211 -0.5230 -0.5618 -0.2468
42040SOL    HW228128   5.823   8.503   4.348 -0.9403  0.1836 -0.0379
42041SOL     OW28129   0.541   0.111   5.156 -0.6012  0.0702 -0.1782
42041SOL    HW128130   0.558   0.126   5.249 -0.0604 -0.3811 -0.2056
42041SOL    HW228131   0.453   0.074   5.154 -1.1496  1.2987  0.0492
42042SOL     OW28132   9.998  10.469  10.802 -0.1474  0.0905 -0.4729
42042SOL    HW128133  10.000  10.406  10.873 -0.2566  1.7306  1.0696
42042SOL    HW228134  10.080  10.519  10.812 -0.8651  1.3161 -0.5490
42043SOL     OW28135   1.529   3.061   6.081 -0.0732  0.0548 -0.5067
42043SOL    HW128136   1.559   3.001   6.150  2.5036  1.1900 -0.5295
42043SOL    HW228137   1.528   3.008   6.001  1.0789 -0.2492 -0.3284
42044SOL     OW28138   1.447   9.017   0.434 -0.2413 -0.2585 -0.1636
42044SOL    HW128139   1.481   9.100   0.399  0.1983 -0.9603 -1.4469
42044SOL    HW228140   1.354   9.018   0.412 -0.0450 -0.5218 -1.0230
42045SOL     OW28141   0.061   6.082   8.492  0.0920 -0.4419  0.2501
42045SOL    HW128142   0.052   6.035   8.409  2.3333 -0.9640  0.2257
42045SOL    HW228143   0.082   6.172   8.467 -1.1552 -0.1254  0.2871
42046SOL     OW28144  10.022   1.043   0.373  0.4469  0.0099 -0.3995
42046SOL    HW128145  10.107   1.082   0.352  0.6507  0.3162  0.9143
42046SOL    HW228146  10.044   0.960   0.415  0.1761  0.8802  1.5318
42047SOL     OW28147   9.234   2.336   1.275  0.4424  0.0396  0.2406
42047SOL    HW128148   9.309   2.289   1.312 -0.1000 -0.6620  0.4758
42047SOL    HW228149   9.266   2.370   1.191  0.7359 -1.1075 -0.1363
42048SOL     OW28150   5.638   4.123   7.757 -0.1640  0.2571 -0.2252
42048SOL    HW128151   5.557   4.144   7.805 -1.4887 -2.7232 -0.9300
42048SOL    HW228152   5.685   4.062   7.814  0.2530 -0.1367 -0.9782
42049SOL     OW28153   1.263  10.213  10.773  0.0212  0.5060 -0.0174
42049SOL    HW128154   1.311  10.290  10.803  1.1117 -0.4744  0.8681
42049SOL    HW228155   1.315  10.179  10.701 -0.4679  0.6036 -0.4190
42050SOL     OW28156   9.870   6.800   6.540  0.1955  0.7277 -0.1862
42050SOL    HW128157   9.849   6.753   6.621  2.6797 -0.7369 -0.2674
42050SOL    HW228158   9.893   6.730   6.478 -1.1846  1.8425 -2.0426
42051SOL     OW28159   1.119   6.582   2.072  0.1500  0.2434  0.6871
42051SOL    HW128160   1.031   6.558   2.101  0.5652  0.0033  1.8125
42051SOL    HW228161   1.106   6.624   1.987 -1.1769  1.2735  1.3633
42052SOL     OW28162   7.319   1.281  10.602  0.2941  0.1071 -0.3109
42052SOL    HW128163   7.289   1.203  10.554  1.0716 -0.1509 -0.3920
42052SOL    HW228164   7.399   1.308  10.556 -0.2402  1.2596 -0.5915
42053SOL     OW28165   8.310   3.691   6.865 -0.4460 -0.2227  0.0800
42053SOL    HW128166   8.296   3.720   6.955 -1.6950  3.3614 -1.0781
42053SOL    HW228167   8.351   3.766   6.822 -2.3831 -0.6783 -2.9137
42054SOL     OW28168   6.183   7.840   6.788 -0.2934  0.2493  1.0858
42054SOL    HW128169   6.230   7.919   6.815  0.2449  0.0826  0.6488
42054SOL    HW228170   6.091   7.858   6.808 -0.1008  0.7617  1.5153
42055SOL     OW28171   5.182   6.226   4.678  0.3543 -0.3180  0.2991
42055SOL    HW128172   5.135   6.158   4.630  0.4824  0.0742 -0.3946
42055SOL    HW228173   5.116   6.294   4.693  0.8898  0.6809 -1.5499
42056SOL     OW28174   3.981   8.243   5.221  0.1724 -0.1896  0.3067
42056SOL    HW128175   3.974   8.327   5.265 -0.3031  0.3396 -0.7529
42056SOL    HW228176   4.025   8.186   5.285  1.2367  1.0672  0.7215
42057SOL     OW28177   8.178   6.249   7.207  0.1124 -0.2718 -0.0463
42057SOL    HW128178   8.195   6.328   7.258 -0.8712 -0.8697  1.2696
42057SOL    HW228179   8.114   6.277   7.141  0.6225  0.2732 -0.3219
42058SOL     OW28180   6.676   5.083   9.871 -0.2215 -0.5180 -0.1986
42058SOL    HW128181   6.647   5.109   9.959 -0.5386 -1.8094  0.1026
42058SOL    HW228182   6.754   5.136   9.855 -0.2423 -0.1579  0.8009
42059SOL     OW28183   8.007   0.037   3.141  0.3881 -0.1558  0.0718
42059SOL    HW128184   7.980  -0.053   3.122  1.4634 -0.3798 -0.4811
42059SOL    HW228185   8.103   0.034   3.138  0.4394  0.9764  0.2268
42060SOL     OW28186   3.475   6.134   6.733 -0.3191 -0.2761  0.1150
42060SOL    HW128187   3.431   6.164   6.653 -1.4529 -0.6680  0.5753
42060SOL    HW228188   3.489   6.214   6.784 -1.1626 -0.2249  0.2778
42061SOL     OW28189   5.519   0.704   0.121 -0.4325 -0.2853  0.0152
42061SOL    HW128190   5.516   0.636   0.189 -1.5022  1.4361  1.8070
42061SOL    HW228191   5.435   0.695   0.075 -1.0445  0.4658  0.9552
42062SOL     OW28192   3.066   3.147   1.344  0.0915  0.3613 -0.0282
42062SOL    HW128193   3.149   3.166   1.389 -0.2305  0.2871  0.6058
42062SOL    HW228194   3.002   3.203   1.387 -0.5172 -0.8024  0.6462
42063SOL     OW28195   0.538   9.670   5.976 -0.6942  0.5194  0.8848
42063SOL    HW128196   0.528   9.598   5.915  0.5514 -0.0491  1.3161
42063SOL    HW228197   0.497   9.640   6.057  1.0882 -0.3300  1.5176
42064SOL     OW28198   9.537   7.457   4.886 -0.1753 -0.1990 -0.0996
42064SOL    HW128199   9.630   7.440   4.872 -0.4030 -1.5302 -0.2061
42064SOL    HW228200   9.532   7.548   4.912  1.2857 -0.4413  1.1330
42065SOL     OW28201   9.124   6.449   8.030 -0.2211 -0.0270 -0.0522
42065SOL    HW128202   9.214   6.434   8.001  0.0307 -0.2349  0.8245
42065SOL    HW228203   9.091   6.518   7.971  0.8240  0.7414  0.2390
42066SOL     OW28204   6.801   5.128   1.823  0.2786 -0.2085  0.4286
42066SOL    HW128205   6.810   5.205   1.767 -0.8494  0.8142  1.5919
42066SOL    HW228206   6.837   5.056   1.770  0.0518  0.8433 -1.2516
42067SOL     OW28207   9.650   0.089  10.613 -0.0354 -0.0885  0.3852
42067SOL    HW128208   9.645   0.183  10.628  1.1654 -0.3399  2.9885
42067SOL    HW228209   9.730   0.077  10.561  1.2493  0.2157  2.1987
42068SOL     OW28210   5.887   1.833   8.489 -0.2325  0.0795  0.1201
42068SOL    HW128211   5.888   1.876   8.575  0.5466 -0.9220  0.6468
42068SOL    HW228212   5.972   1.855   8.451 -1.8372  3.3565 -1.9415
42069SOL     OW28213   8.896   9.619   6.950 -0.0369  0.2870  0.0713
42069SOL    HW128214   8.937   9.580   6.872 -0.4323  0.7871 -0.3893
42069SOL    HW228215   8.835   9.684   6.916  0.4861  1.2031  0.8235
42070SOL     OW28216   7.376   3.871   5.899  0.5441 -0.1849  0.6010
42070SOL    HW128217   7.363   3.877   5.805 -0.1529 -2.6620  0.4613
42070SOL    HW228218   7.466   3.842   5.910  1.2714  1.9667  0.8575
42071SOL     OW28219   6.395   0.950   3.004 -0.0384 -0.1825 -0.0504
42071SOL    HW128220   6.434   0.891   2.939  1.5514 -0.1721  0.8482
42071SOL    HW228221   6.468   0.975   3.061 -1.0677  1.1156  0.7599
42072SOL     OW28222   0.575   4.118   9.514 -0.2074  0.1228  0.5087
42072SOL    HW128223   0.495   4.160   9.483 -0.1780  1.4126  2.0610
42072SOL    HW228224   0.544   4.041   9.563 -0.5946  1.1237  1.8894
42073SOL     OW28225   0.375   4.697   6.547  0.5157 -0.3928  0.4518
42073SOL    HW128226   0.344   4.776   6.504  0.9348  1.1469  2.7463
42073SOL    HW228227   0.469   4.712   6.560  0.7461 -1.5958  0.2867
42074SOL     OW28228   5.608   8.237   8.850  0.5965  0.0646 -0.6722
42074SOL    HW128229   5.658   8.156   8.839 -0.9544 -0.8851 -1.1096
42074SOL    HW228230   5.588   8.265   8.761 -0.5787 -0.1920 -0.4989
42075SOL     OW28231   3.674   1.123   3.556  0.1639  0.0025  0.1559
42075SOL    HW128232   3.740   1.161   3.498 -1.1524 -0.2266 -1.6052
42075SOL    HW228233   3.591   1.158   3.523 -0.7570 -1.3386  0.9647
42076SOL     OW28234   7.341   0.918   2.233 -0.1289 -0.0513 -0.0147
42076SOL    HW128235   7.265   0.962   2.271 -0.6662 -1.0344  0.0778
42076SOL    HW228236   7.332   0.933   2.139 -0.9449 -0.9157 -0.0918
42077SOL     OW28237   1.986   3.650   6.118  0.0365  0.5183  0.9859
42077SOL    HW128238   1.974   3.681   6.028  1.1837 -0.3952  0.5015
42077SOL    HW228239   2.048   3.577   6.111  1.5035  1.5142  2.7100
42078SOL     OW28240   1.784  10.597   9.701  0.6007 -0.3071  0.0194
42078SOL    HW128241   1.838  10.666   9.740 -0.5499  0.2222  0.7231
42078SOL    HW228242   1.715  10.581   9.766 -1.4088  0.6182 -1.7678
42079SOL     OW28243   6.155   2.914   9.279 -0.0690 -0.2906 -0.7678
42079SOL    HW128244   6.227   2.975   9.261 -1.1796  2.0119  1.8502
42079SOL    HW228245   6.195   2.844   9.331  0.1301  1.9348  2.3305
42080SOL     OW28246   8.319   7.993   7.544 -0.2956  0.4058  0.6147
42080SOL    HW128247   8.371   8.016   7.468 -1.2323  1.7157  0.3455
42080SOL    HW228248   8.329   7.898   7.552 -1.0780  0.0718 -1.8082
42081SOL     OW28249   0.892  10.637   2.351  0.3524 -0.3811 -0.0897
42081SOL    HW128250   0.928  10.711   2.303 -1.5789  0.3569 -0.4933
42081SOL    HW228251   0.819  10.674   2.401  0.1053 -1.7985  0.6524
42082SOL     OW28252   5.696   2.136   2.106  0.1794  0.2510 -0.4638
42082SOL    HW128253   5.780   2.183   2.103 -0.0537  0.7060  0.0954
42082SOL    HW228254   5.676   2.128   2.199  0.8310 -2.1058 -0.4580
42083SOL     OW28255  10.403   9.186   2.912  0.1848 -0.2930  0.2537
42083SOL    HW128256  10.344   9.157   2.843 -0.4514  0.1705  0.5955
42083SOL    HW228257  10.365   9.267   2.945  1.4200  0.4249 -0.0224
42084SOL     OW28258   2.538   7.516   9.434 -0.4875 -0.4140 -0.6584
42084SOL    HW128259   2.588   7.438   9.459  0.9420 -0.0640 -2.2610
42084SOL    HW228260   2.504   7.550   9.517 -0.2946 -2.1576  0.1795
42085SOL     OW28261   8.431   8.397   5.206 -0.3257  0.2656  0.0503
42085SOL    HW128262   8.431   8.351   5.122  1.2947  0.8862 -0.3421
42085SOL    HW228263   8.375   8.345   5.263 -0.5899 -0.7570 -1.1190
42086SOL     OW28264   6.283   3.014   9.011  0.1286  0.2080 -0.9431
42086SOL    HW128265   6.214   3.075   8.983  1.1901  1.3406 -1.1885
42086SOL    HW228266   6.364   3.063   8.999  1.1524 -1.6858 -2.3764
42087SOL     OW28267   2.658   0.284   4.942 -0.0253  0.4921 -0.2269
42087SOL    HW128268   2.642   0.191   4.956 -1.1702  0.2006 -2.8191
42087SOL    HW228269   2.588   0.328   4.990 -0.7441 -0.1181 -0.6942
42088SOL     OW28270   9.087   1.866   3.993  0.1536 -0.0624  0.2447
42088SOL    HW128271   9.011   1.878   3.936 -1.8546  2.1348  3.1032
42088SOL    HW228272   9.157   1.916   3.950 -1.1194  1.0625 -0.5880
42089SOL     OW28273   6.269   0.294   9.995  0.2912  0.1919  0.0484
42089SOL    HW128274   6.178   0.322   9.997 -0.7189 -2.5484  3.5694
42089SOL    HW228275   6.312   0.346  10.064  0.9319  0.2155 -0.3617
42090SOL     OW28276   3.640  10.232  10.229  0.0273 -0.3424 -0.1256
42090SOL    HW128277   3.626  10.167  10.160  0.4521  0.6374 -1.1712
42090SOL    HW228278   3.656  10.314  10.182  0.3893  0.3461  1.1453
42091SOL     OW28279   5.052   7.955   7.764 -0.2419  0.0720  0.1636
42091SOL    HW128280   4.997   7.936   7.688 -1.3623  0.1372  0.9283
42091SOL    HW228281   5.008   8.027   7.808 -0.8854 -1.4071  2.0917
42092SOL     OW28282   3.831   5.117   4.904  0.6316  0.1001  0.0040
42092SOL    HW128283   3.756   5.145   4.852 -0.0527 -0.3015  0.7424
42092SOL    HW228284   3.868   5.043   4.855 -0.2640 -0.5500  0.2785
42093SOL     OW28285   4.431   1.176   1.477 -0.2807 -0.2334  0.1200
42093SOL    HW128286   4.373   1.179   1.401  0.1204 -0.6572 -0.2032
42093SOL    HW228287   4.408   1.094   1.521 -0.7661  0.1874  0.6583
42094SOL     OW28288   9.865   1.987   9.667  0.1691 -0.0948 -0.2142
42094SOL    HW128289   9.816   1.997   9.748 -1.8605  0.6332 -1.4650
42094SOL    HW228290   9.800   1.964   9.601  1.3860  1.3789 -2.0685
42095SOL     OW28291   3.109  10.428   4.929  0.3830  0.0080  0.7940
42095SOL    HW128292   3.060  10.510   4.937  1.5312  0.8646 -0.3725
42095SOL    HW228293   3.043  10.359   4.935 -0.4006  0.8866  3.8702
42096SOL     OW28294  10.570   9.273   7.945  0.2157 -0.3027 -1.1675
42096SOL    HW128295  10.561   9.366   7.923 -1.3448 -0.6828 -2.3043
42096SOL    HW228296  10.512   9.261   8.021  1.4516 -0.0997 -0.1632
42097SOL     OW28297   9.950  10.561   0.692 -0.1960 -0.1443  0.2757
42097SOL    HW128298   9.975  10.644   0.652 -0.4406 -0.3908 -0.4110
42097SOL    HW228299   9.941  10.501   0.618 -0.9943 -0.5316  0.6796
42098SOL     OW28300   2.561   9.915   4.637 -0.5776 -0.1498  0.0275
42098SOL    HW128301   2.583   9.822   4.630  1.9281  0.0830  2.6417
42098SOL    HW228302   2.469   9.917   4.664 -2.0517 -1.5552 -4.1043
42099SOL     OW28303   1.435   2.132   5.668  0.0287 -0.0066 -0.1589
42099SOL    HW128304   1.449   2.226   5.680 -1.0386  0.2455 -0.8141
42099SOL    HW228305   1.474   2.113   5.583  0.2018 -0.1558 -0.0478
42100SOL     OW28306  10.300   0.216   4.601  0.3375 -0.8025 -0.2285
42100SOL    HW128307  10.354   0.231   4.523 -0.5985  0.6516 -0.6233
42100SOL    HW228308  10.210   0.221   4.570 -0.1378 -3.8144  0.3023
42101SOL     OW28309   4.932   8.064   8.280 -0.0878  0.5273  0.0916
42101SOL    HW128310   4.992   7.999   8.244  0.0718  2.7930 -4.4935
42101SOL    HW228311   4.846   8.021   8.276  0.3293 -0.3080 -0.2177
42102SOL     OW28312   9.777  10.539  11.024  0.2915 -0.1461  0.4730
42102SOL    HW128313   9.760  10.453  10.986  1.1258 -0.5471  0.9764
42102SOL    HW228314   9.695  10.587  11.014 -0.2214 -1.0442  0.3011
42103SOL     OW28315   5.693   3.035   1.735 -0.0584 -0.3518 -0.3306
42103SOL    HW128316   5.657   2.981   1.806 -2.1187  1.2626 -0.0662
42103SOL    HW228317   5.766   3.082   1.776 -0.4669 -0.3335  0.3850
42104SOL     OW28318   9.089  10.427   7.644 -0.4198  0.1726 -0.3567
42104SOL    HW128319   9.083  10.520   7.621  0.5193  0.7069  1.4216
42104SOL    HW228320   9.160  10.422   7.708 -0.0930 -1.8623 -0.8057
42105SOL     OW28321   2.927   7.530   6.089 -0.2364 -0.1377  0.3347
42105SOL    HW128322   2.956   7.604   6.144  0.2745 -0.0479 -0.0456
42105SOL    HW228323   2.967   7.453   6.130 -1.4428 -0.3192  1.2158
42106SOL     OW28324   9.866   7.685   2.142  0.0688  0.0630 -0.9042
42106SOL    HW128325   9.791   7.743   2.135 -0.1206 -0.3389 -2.4522
42106SOL    HW228326   9.942   7.743   2.137 -0.0901  0.4754  0.7200
42107SOL     OW28327   6.310   1.694   1.306 -0.0726  0.2096  0.2124
42107SOL    HW128328   6.238   1.645   1.345 -0.4643  0.9501  0.4424
42107SOL    HW228329   6.363   1.723   1.381  0.6405 -0.5734  0.0316
42108SOL     OW28330   3.053   4.780   3.308  0.0859 -0.2654 -0.5171
42108SOL    HW128331   2.983   4.792   3.243  0.6279 -0.1255 -1.0907
42108SOL    HW228332   3.123   4.735   3.259  1.1503  1.2813 -0.4960
42109SOL     OW28333   8.557   2.457   7.369  0.2459 -0.5659  0.5354
42109SOL    HW128334   8.491   2.400   7.329  0.8210 -0.7176 -0.2238
42109SOL    HW228335   8.640   2.410   7.357  0.7368  0.4462 -0.1491
42110SOL     OW28336   0.968   0.492   5.086 -0.2589 -0.5000  0.4709
42110SOL    HW128337   0.980   0.402   5.055 -1.5441 -0.7179  0.5426
42110SOL    HW228338   0.918   0.483   5.167  2.1401  0.1367  2.1350
42111SOL     OW28339   2.217   5.742   8.323 -0.3673  0.0442 -0.1579
42111SOL    HW128340   2.181   5.656   8.347 -1.7037  0.9086  1.0890
42111SOL    HW228341   2.204   5.748   8.229 -0.0387 -1.2157 -0.3028
42112SOL     OW28342   1.206   2.897  10.278 -0.4063  0.1294 -0.6714
42112SOL    HW128343   1.294   2.894  10.241 -0.0691  0.8974  0.0263
42112SOL    HW228344   1.152   2.931  10.207  0.2262  1.5410 -0.5223
42113SOL     OW28345   6.797   7.625   4.019 -0.0731  0.8706  0.2965
42113SOL    HW128346   6.769   7.555   4.078 -0.3026  0.6626 -0.0584
42113SOL    HW228347   6.799   7.584   3.932 -0.7639  1.4547 -0.0005
42114SOL     OW28348   2.899   0.498   9.110 -0.0710  0.1942  0.1162
42114SOL    HW128349   2.884   0.592   9.115 -0.1342  0.1649  0.4469
42114SOL    HW228350   2.994   0.489   9.106 -0.0865  0.3180 -0.8550
42115SOL     OW28351   7.498   1.817   9.516 -0.2359  0.0414 -0.5968
42115SOL    HW128352   7.580   1.860   9.542  0.5183 -1.5265 -0.3023
42115SOL    HW228353   7.501   1.815   9.420 -0.2232  0.5170 -0.6092
42116SOL     OW28354   6.565  10.264   4.780 -0.6519  0.1292 -0.0591
42116SOL    HW128355   6.531  10.175   4.770 -1.8419  0.6536 -0.9413
42116SOL    HW228356   6.659  10.257   4.762 -0.8876 -0.8064 -0.9953
42117SOL     OW28357   1.694   7.875   5.233  0.3923 -0.0096 -0.3749
42117SOL    HW128358   1.609   7.919   5.224 -0.3581 -1.4257 -0.5375
42117SOL    HW228359   1.717   7.848   5.144 -0.4265 -2.1513  0.0076
42118SOL     OW28360   5.171   8.001   8.978 -0.0926 -0.0361 -0.1356
42118SOL    HW128361   5.188   8.080   9.029 -0.0341 -0.3820  0.3894
42118SOL    HW228362   5.218   8.015   8.896 -0.0790  0.4699 -0.0460
42119SOL     OW28363  10.475   5.295   7.796 -0.1391 -0.0181  0.0033
42119SOL    HW128364  10.546   5.256   7.846 -0.7858 -1.7513 -0.3734
42119SOL    HW228365  10.398   5.287   7.854 -0.7783 -1.5409 -1.0055
42120SOL     OW28366   1.843   3.724  10.323  0.4154 -0.2631 -0.0970
42120SOL    HW128367   1.938   3.711  10.321  0.7892  2.0356  0.0424
42120SOL    HW228368   1.809   3.643  10.361  2.0802 -2.1202 -2.2573
42121SOL     OW28369   8.727   7.247   5.685 -0.1831 -0.1517  0.0745
42121SOL    HW128370   8.735   7.166   5.735 -0.6949  0.2210  0.7819
42121SOL    HW228371   8.693   7.310   5.748  0.5801  0.7146 -0.3631
42122SOL     OW28372   4.925   3.467   5.415  0.6776  0.1956  0.2860
42122SOL    HW128373   5.010   3.476   5.457 -0.2217  0.5244  2.1407
42122SOL    HW228374   4.907   3.554   5.378  0.3871  0.6423  1.4443
42123SOL     OW28375   0.237   4.419   8.793  0.1176 -0.5496  0.5599
42123SOL    HW128376   0.321   4.392   8.757  0.1342 -0.0784  0.2265
42123SOL    HW228377   0.193   4.462   8.720  1.5034  3.4774  1.8211
42124SOL     OW28378   3.499   9.755   2.741  0.5998  0.2166 -0.0914
42124SOL    HW128379   3.516   9.836   2.692  0.7990 -0.3695 -1.0226
42124SOL    HW228380   3.560   9.757   2.814 -0.0584  1.3646  0.4610
42125SOL     OW28381   3.140   2.786   7.981  0.2174  0.0990 -0.1125
42125SOL    HW128382   3.133   2.848   7.909 -0.7645  0.2809  0.1217
42125SOL    HW228383   3.103   2.705   7.948 -0.4341  0.2438  0.2494
42126SOL     OW28384   2.769   8.482   0.695  0.5180 -0.2984 -0.1055
42126SOL    HW128385   2.722   8.554   0.653 -1.4164 -1.6377 -0.4039
42126SOL    HW228386   2.861   8.497   0.674 -0.0155  1.0681 -1.6724
42127SOL     OW28387   4.902   9.684   6.127 -0.3652  0.5344 -0.6728
42127SOL    HW128388   4.876   9.774   6.146  0.4780  0.9081 -1.2323
42127SOL    HW228389   4.859   9.632   6.196 -1.7443  1.2194 -0.9802
42128SOL     OW28390   7.625   6.259   5.138  0.1666  0.1642  0.5349
42128SOL    HW128391   7.576   6.338   5.115  0.8718  0.4514 -0.0534
42128SOL    HW228392   7.659   6.228   5.054 -2.7895 -2.6633  0.2062
42129SOL     OW28393   7.906   9.873   2.870  0.6752 -0.6683 -0.1598
42129SOL    HW128394   7.892   9.778   2.871 -1.6554 -0.4228 -1.4887
42129SOL    HW228395   7.891   9.898   2.779 -0.2410  1.1382  0.4426
42130SOL     OW28396   6.090   4.497   2.739 -0.4203 -0.0289  0.1936
42130SOL    HW128397   6.152   4.425   2.752  0.0691  0.1140 -1.1296
42130SOL    HW228398   6.036   4.497   2.818 -0.2659 -1.6763  0.3494
42131SOL     OW28399   6.953   0.392  10.714 -0.4365  0.0048  0.8698
42131SOL    HW128400   6.960   0.420  10.623 -0.6993 -1.9642  0.2084
42131SOL    HW228401   6.872   0.433  10.746 -0.9442 -0.1993 -0.1331
42132SOL     OW28402   8.816   7.928  10.859 -0.4024  0.0429  0.3738
42132SOL    HW128403   8.772   7.956  10.778  2.5969 -1.4046 -2.0014
42132SOL    HW228404   8.816   7.832  10.854  1.2962 -0.0307  1.2121
42133SOL     OW28405   9.718   1.522   2.537  0.1300 -0.1029 -0.3684
42133SOL    HW128406   9.762   1.596   2.496  2.9448 -0.3561  1.9117
42133SOL    HW228407   9.693   1.554   2.624 -0.8348 -1.1430 -0.2418
42134SOL     OW28408   2.227   6.676   0.272  0.6188 -0.3147 -0.3122
42134SOL    HW128409   2.147   6.629   0.293 -0.2210  0.6429 -1.2420
42134SOL    HW228410   2.286   6.610   0.237  0.2838 -1.0462  0.4665
42135SOL     OW28411   5.763  10.637   9.476 -0.1572  0.3002 -0.3695
42135SOL    HW128412   5.826  10.672   9.413 -0.4403  0.5290 -0.5270
42135SOL    HW228413   5.744  10.549   9.445  1.5044 -0.4942  0.7099
42136SOL     OW28414   5.065   4.938  11.024  0.0415  0.2920  0.2475
42136SOL    HW128415   5.037   4.861  10.975  1.9506 -1.7499  2.0865
42136SOL    HW228416   4.987   4.993  11.030 -1.0136 -0.7717 -2.3852
42137SOL     OW28417   9.694   2.124   9.332  0.2837 -0.0231  0.5281
42137SOL    HW128418   9.612   2.115   9.382  0.0055 -0.0991  0.0693
42137SOL    HW228419   9.689   2.054   9.267  0.5672  0.1746  0.2957
42138SOL     OW28420   3.427   5.318   7.295 -0.0406 -0.2009  0.0840
42138SOL    HW128421   3.455   5.361   7.214  1.1132  0.8904  1.0120
42138SOL    HW228422   3.494   5.252   7.311 -1.3884 -1.9016 -0.9160
42139SOL     OW28423   6.653   4.182   0.245 -0.6262  0.4553 -0.2363
42139SOL    HW128424   6.677   4.220   0.160 -0.9362  2.2969  0.4688
42139SOL    HW228425   6.677   4.249   0.309 -3.3663  0.4897  0.8708
42140SOL     OW28426   0.584   8.029   4.962 -0.0866 -0.1365 -0.4202
42140SOL    HW128427   0.592   7.949   5.012 -0.3691 -1.0611 -1.7974
42140SOL    HW228428   0.505   8.071   4.995  0.1402 -0.3325  0.3969
42141SOL     OW28429   3.420   1.794   0.872 -0.3586 -0.3202  0.0787
42141SOL    HW128430   3.327   1.802   0.854 -0.3349  1.2380  0.4870
42141SOL    HW228431   3.462   1.856   0.813  0.3521 -0.4135  0.4652
42142SOL     OW28432   7.224   8.196   6.165  0.0082  0.5215 -0.1059
42142SOL    HW128433   7.200   8.185   6.073  0.3281  1.7847 -0.3551
42142SOL    HW228434   7.143   8.223   6.208  0.1520  1.2589 -0.2811
42143SOL     OW28435   0.481   4.394   4.836 -0.1615  0.3671 -0.3032
42143SOL    HW128436   0.406   4.454   4.841 -0.0867  0.7943 -2.7795
42143SOL    HW228437   0.446   4.316   4.792  0.4403 -0.2087  0.2190
42144SOL     OW28438   3.164  10.224   5.388 -0.4629 -0.2408  0.4292
42144SOL    HW128439   3.166  10.263   5.300  0.9531  1.7469  1.2718
42144SOL    HW228440   3.255  10.216   5.413 -0.7927 -2.3157  1.1441
42145SOL     OW28441   0.868   8.385   4.587 -0.0674  0.0305  0.0730
42145SOL    HW128442   0.952   8.358   4.624  0.1575 -0.6638 -0.8937
42145SOL    HW228443   0.842   8.311   4.532 -0.1827  1.1654 -1.4658
42146SOL     OW28444   4.800   5.488   6.147 -0.3257 -0.1921  0.6154
42146SOL    HW128445   4.846   5.522   6.070 -1.1410  1.7057  0.9130
42146SOL    HW228446   4.720   5.540   6.152 -1.6181 -2.1415  1.1994
42147SOL     OW28447   1.076  10.798   0.779  0.2900 -0.1159  0.1190
42147SOL    HW128448   1.152  10.855   0.787 -0.4297  1.1959 -1.6734
42147SOL    HW228449   1.083  10.738   0.853  4.0648 -1.3172 -0.9986
42148SOL     OW28450   9.017   7.169  10.365 -0.4042  0.4144 -0.0029
42148SOL    HW128451   8.983   7.108  10.300 -2.2909 -0.1772  1.4453
42148SOL    HW228452   9.028   7.251  10.318 -0.0244 -0.4452 -1.4585
42149SOL     OW28453   4.507   1.560   2.859 -0.2105  0.1041  0.0133
42149SOL    HW128454   4.417   1.537   2.838 -0.3709 -0.4346  1.1983
42149SOL    HW228455   4.540   1.485   2.908  1.0924  0.0282 -0.9275
42150SOL     OW28456   8.146   0.882   6.682  0.2075  0.0272 -0.5005
42150SOL    HW128457   8.080   0.855   6.618 -0.0632  0.6259 -0.4810
42150SOL    HW228458   8.096   0.901   6.762  0.5342 -0.6571 -0.1219
42151SOL     OW28459  10.977   7.706   3.547  0.5789  0.0452 -0.3675
42151SOL    HW128460  10.972   7.795   3.581  2.1226 -0.5106  1.4953
42151SOL    HW228461  11.062   7.703   3.502  0.7955 -0.6273  0.0754
42152SOL     OW28462   7.072   4.243   7.633 -0.2667  0.6145  0.3058
42152SOL    HW128463   6.988   4.283   7.655 -0.2446  0.4184  0.7446
42152SOL    HW228464   7.133   4.275   7.699 -0.1778  0.1209  0.4676
42153SOL     OW28465   5.993   1.109   0.097  0.3095  0.5365 -0.6066
42153SOL    HW128466   6.020   1.136   0.009  1.3429  1.8877  0.0756
42153SOL    HW228467   5.967   1.191   0.140 -1.5959 -0.2920 -0.0911
42154SOL     OW28468   6.305   0.487   2.896 -0.6265 -0.5466 -0.1759
42154SOL    HW128469   6.367   0.431   2.942  2.5044  1.9791 -0.9087
42154SOL    HW228470   6.336   0.487   2.805 -0.3532  2.3043 -0.1926
42155SOL     OW28471   4.109   9.487   6.785  0.0803 -0.2132 -0.7873
42155SOL    HW128472   4.205   9.483   6.782  0.1279  0.1331 -0.0211
42155SOL    HW228473   4.089   9.580   6.775 -0.2508 -0.4082 -2.2171
42156SOL     OW28474   3.382   3.704   9.850 -0.0024 -0.0492 -0.3860
42156SOL    HW128475   3.458   3.673   9.801 -0.7518  1.5882 -2.7555
42156SOL    HW228476   3.415   3.780   9.899  0.3598 -0.6900  0.3926
42157SOL     OW28477   2.340   4.417   6.898  0.0037 -0.3152 -0.2121
42157SOL    HW128478   2.429   4.428   6.933  1.4508 -0.7081 -3.3880
42157SOL    HW228479   2.320   4.500   6.856  0.2130 -1.1775 -2.1311
42158SOL     OW28480   8.021   7.261   0.844 -0.0447  0.3312 -0.1081
42158SOL    HW128481   7.997   7.350   0.872 -0.3592  0.1233  0.2799
42158SOL    HW228482   8.055   7.273   0.755  2.6534  1.2438  0.9599
42159SOL     OW28483   5.288   9.665   6.905  0.5599  0.1557 -0.2034
42159SOL    HW128484   5.262   9.594   6.847 -0.1396  1.1295 -1.1224
42159SOL    HW228485   5.220   9.732   6.893  1.6721  1.3498 -0.0796
42160SOL     OW28486   9.266  10.610   1.658  0.4332  0.2271 -0.3546
42160SOL    HW128487   9.240  10.521   1.682  0.6213 -0.3322 -2.0684
42160SOL    HW228488   9.347  10.625   1.706 -0.6640  0.2995  1.5804
42161SOL     OW28489   8.775   2.726   9.769  0.7653 -0.1546 -0.2555
42161SOL    HW128490   8.684   2.710   9.745  0.7615 -1.9314  0.8033
42161SOL    HW228491   8.770   2.794   9.836  0.4273  1.3797 -1.7696
42162SOL     OW28492   1.140   9.620   3.747 -0.5632  0.1322  0.5693
42162SOL    HW128493   1.131   9.620   3.651  0.7731 -1.9748  0.3752
42162SOL    HW228494   1.189   9.699   3.766 -0.8796  0.6083 -0.4814
42163SOL     OW28495   1.395   4.371   1.594 -0.0737 -0.0213 -0.1413
42163SOL    HW128496   1.475   4.320   1.590  0.1290  0.2754  0.0410
42163SOL    HW228497   1.324   4.307   1.594  0.1232 -0.2620 -1.3170
42164SOL     OW28498   7.699   5.896   6.078 -0.2365 -0.9376 -0.7478
42164SOL    HW128499   7.789   5.874   6.100  0.0208  1.1697  0.5743
42164SOL    HW228500   7.647   5.822   6.109  1.0341 -2.4981 -2.1435
42165SOL     OW28501   8.116   8.974  10.972 -0.0488 -0.1238 -0.6277
42165SOL    HW128502   8.124   8.917  11.049 -1.0116 -0.0315 -0.4488
42165SOL    HW228503   8.026   9.006  10.975  0.6722  2.0902 -0.2517
42166SOL     OW28504   6.402   8.055   3.983  0.4508  0.2339 -0.4855
42166SOL    HW128505   6.321   8.102   3.966  0.4009 -0.0132 -0.9570
42166SOL    HW228506   6.415   8.061   4.077  1.0793  2.2008 -0.6577
42167SOL     OW28507   4.956   9.881   5.603  0.5417  0.4139 -0.0589
42167SOL    HW128508   4.924   9.923   5.682  0.5875  0.5896 -0.1328
42167SOL    HW228509   4.995   9.799   5.633 -0.9468 -0.3474 -0.0734
42168SOL     OW28510   6.076   4.491   9.670 -0.0056  0.2379  0.5413
42168SOL    HW128511   6.125   4.571   9.687  1.6336 -0.9237  1.6119
42168SOL    HW228512   6.118   4.425   9.726 -0.8657 -1.5192 -0.7972
42169SOL     OW28513   7.470   8.831   9.690  0.2521 -0.3382 -0.0796
42169SOL    HW128514   7.496   8.839   9.782 -0.4908 -0.7558  0.1810
42169SOL    HW228515   7.551   8.808   9.644  0.9320  1.3263  0.2290
42170SOL     OW28516   5.462   7.708   9.084 -0.1570 -0.0804  0.6607
42170SOL    HW128517   5.452   7.752   8.999  1.7635 -1.4372 -0.3601
42170SOL    HW228518   5.539   7.747   9.123 -0.1205 -0.5381  1.0577
42171SOL     OW28519   3.250   1.468   6.978 -0.2865  0.5676  0.3961
42171SOL    HW128520   3.314   1.525   7.021  0.5375  1.1171 -1.4263
42171SOL    HW228521   3.165   1.505   7.000  0.0952  0.7783  1.5641
42172SOL     OW28522   4.059   1.826   3.460 -0.0276  0.5300  0.5502
42172SOL    HW128523   4.064   1.732   3.443 -2.4689 -0.2234  3.1404
42172SOL    HW228524   3.976   1.854   3.421  0.9647  1.8252 -0.7570
42173SOL     OW28525   8.024   0.499   1.422  0.5267 -0.2080 -0.0246
42173SOL    HW128526   8.114   0.487   1.392  0.0205  0.3580 -1.8980
42173SOL    HW228527   7.994   0.577   1.376 -1.9027 -2.0989 -1.9137
42174SOL     OW28528   5.205   1.424   0.592 -0.0362  0.5519 -0.0467
42174SOL    HW128529   5.269   1.360   0.560 -0.4060 -0.0028  0.2918
42174SOL    HW228530   5.218   1.425   0.687 -0.8031  0.1239  0.0685
42175SOL     OW28531   4.343   6.514   9.228 -0.2651  0.1360  0.2329
42175SOL    HW128532   4.292   6.573   9.284 -1.5083 -0.0701 -0.6237
42175SOL    HW228533   4.321   6.426   9.259 -0.5475  0.0415 -0.2150
42176SOL     OW28534   8.698   4.758  10.716  0.2244  0.1154  0.3884
42176SOL    HW128535   8.763   4.772  10.785 -0.0423  1.5395  0.3927
42176SOL    HW228536   8.749   4.731  10.640  0.7700  0.5833  0.5793
42177SOL     OW28537   1.901   8.645   3.417  0.3993  0.9070 -0.3519
42177SOL    HW128538   1.851   8.678   3.342 -1.6607  1.2861  1.1024
42177SOL    HW228539   1.894   8.715   3.483 -0.7526 -0.7700  1.4111
42178SOL     OW28540   4.477  10.259   4.032 -0.3068  0.3175 -0.0229
42178SOL    HW128541   4.465  10.312   3.953 -0.7163 -0.2740 -0.3602
42178SOL    HW228542   4.556  10.295   4.073 -0.7017  1.3487 -0.1188
42179SOL     OW28543   5.811   4.906   1.609  0.0837 -0.4593 -0.0343
42179SOL    HW128544   5.792   4.906   1.703  0.6835  1.3766  0.1303
42179SOL    HW228545   5.774   4.824   1.577 -0.4701 -0.9440  1.7354
42180SOL     OW28546   0.066   3.249   3.677 -0.2939  0.0257 -0.6630
42180SOL    HW128547   0.123   3.234   3.602  1.3603 -0.4693  0.6304
42180SOL    HW228548   0.102   3.327   3.720  1.1319 -1.7634  1.6289
42181SOL     OW28549   8.497   6.989   6.476  0.3381 -0.4306 -0.2564
42181SOL    HW128550   8.476   7.012   6.386  1.1467  0.4384 -0.2345
42181SOL    HW228551   8.555   6.914   6.470  1.0864  0.1526 -0.5114
42182SOL     OW28552   6.546   1.001   3.426 -0.1329 -0.1030 -0.0863
42182SOL    HW128553   6.508   1.089   3.434  1.5619  0.5115  2.5462
42182SOL    HW228554   6.572   0.978   3.515  2.9970 -1.6572 -1.2597
42183SOL     OW28555   4.751   2.905   6.891  0.0206  0.0589  0.8379
42183SOL    HW128556   4.737   2.949   6.975 -0.0505  3.2675 -0.6755
42183SOL    HW228557   4.789   2.973   6.835  0.0047 -1.9141 -1.7675
42184SOL     OW28558   1.761   0.162   6.967 -0.4182  0.2860  0.0342
42184SOL    HW128559   1.698   0.212   6.913  1.7524  3.0973 -0.1306
42184SOL    HW228560   1.829   0.135   6.905 -0.5920 -1.2775  0.4904
42185SOL     OW28561   7.503   6.100  10.891 -0.3644 -0.0612  0.2186
42185SOL    HW128562   7.485   6.182  10.846  0.8132 -1.0554 -2.1838
42185SOL    HW228563   7.416   6.062  10.905 -0.8000  0.6473 -0.4774
42186SOL     OW28564   3.137   4.105   1.514 -0.0777  0.0566 -0.7981
42186SOL    HW128565   3.173   4.141   1.595  1.1761 -0.0850 -1.2586
42186SOL    HW228566   3.118   4.013   1.534 -0.9117  0.3204 -0.3356
42187SOL     OW28567   9.699   9.013   5.494  0.3286  0.7493  0.8356
42187SOL    HW128568   9.622   9.020   5.437  0.9750 -0.0495 -0.1550
42187SOL    HW228569   9.665   9.033   5.581 -0.9100  0.8919  0.3456
42188SOL     OW28570   6.652   2.411   7.903 -0.2160  0.2651  0.0790
42188SOL    HW128571   6.743   2.429   7.877 -0.2654  0.5495  0.0968
42188SOL    HW228572   6.659   2.339   7.966 -0.2054 -1.3811 -1.7280
42189SOL     OW28573   9.455   3.952   2.458  0.0249 -0.4547  0.5411
42189SOL    HW128574   9.530   3.969   2.401 -0.5787 -0.4283 -0.2523
42189SOL    HW228575   9.494   3.911   2.535  0.7880 -1.0914 -0.1563
42190SOL     OW28576   0.422   7.529   0.412 -0.7024 -0.2047  0.0881
42190SOL    HW128577   0.413   7.623   0.427  0.6711  0.1098 -0.8016
42190SOL    HW228578   0.360   7.511   0.341 -1.2933 -0.0748  0.5607
42191SOL     OW28579   3.912  10.939   2.619 -0.1106 -0.2936 -0.1070
42191SOL    HW128580   3.872  11.018   2.655  0.9282  0.6791 -0.9935
42191SOL    HW228581   3.978  10.914   2.683 -0.0243 -0.0724 -0.1076
42192SOL     OW28582   1.633   0.555   1.983  0.1027 -0.1012 -0.8006
42192SOL    HW128583   1.643   0.609   2.061  1.5798  1.5698 -2.0742
42192SOL    HW228584   1.669   0.470   2.008 -0.8799 -0.0806  0.7885
42193SOL     OW28585   9.207   2.261   9.670 -0.1014 -0.7845 -0.5576
42193SOL    HW128586   9.158   2.179   9.676 -0.7141 -0.3571  0.4857
42193SOL    HW228587   9.140   2.330   9.673  0.5616 -0.1419  2.0879
42194SOL     OW28588   9.141   2.162   3.675 -0.7386 -0.3178  0.5801
42194SOL    HW128589   9.189   2.082   3.655 -1.9123 -1.7950  3.1562
42194SOL    HW228590   9.056   2.151   3.631 -1.1609 -0.8641  1.4991
42195SOL     OW28591   4.038   8.128   3.917 -0.2296 -0.1660  0.3218
42195SOL    HW128592   4.008   8.039   3.897  0.2481  0.1052 -1.9099
42195SOL    HW228593   4.118   8.115   3.968  0.2471 -1.0709 -0.6107
42196SOL     OW28594   4.327   0.720   7.613 -0.0705  0.1297 -0.1647
42196SOL    HW128595   4.252   0.733   7.670  0.0076  1.5822 -0.3705
42196SOL    HW228596   4.392   0.675   7.668 -0.9360 -0.8347  0.1079
42197SOL     OW28597   8.733   4.374   9.376 -0.1947 -0.1615 -0.3075
42197SOL    HW128598   8.661   4.330   9.422 -0.0046 -2.4017 -1.9730
42197SOL    HW228599   8.790   4.407   9.446 -2.3894  0.9884  1.0365
42198SOL     OW28600   9.212   7.803   2.741  0.6348  0.1874  0.0010
42198SOL    HW128601   9.241   7.713   2.728 -1.3016 -0.6840  1.1712
42198SOL    HW228602   9.243   7.827   2.828 -0.5647 -0.1400  0.5490
42199SOL     OW28603   0.628   2.017   6.957 -0.1247  1.0574  0.4852
42199SOL    HW128604   0.587   1.963   6.890 -0.0976  0.2170  1.1246
42199SOL    HW228605   0.558   2.072   6.990 -0.4241  0.6115  0.6030
42200SOL     OW28606   4.194   6.994   2.894 -0.1285 -0.1329 -0.1965
42200SOL    HW128607   4.280   7.035   2.898  0.4237 -1.2196 -0.6637
42200SOL    HW228608   4.160   7.000   2.984  0.1167  0.9314 -0.1648
42201SOL     OW28609   9.749   9.202   2.703 -0.2588  0.2569  0.3524
42201SOL    HW128610   9.826   9.159   2.739  0.6124  0.6549 -0.9626
42201SOL    HW228611   9.752   9.290   2.740 -0.5230  0.0464  0.8938
42202SOL     OW28612   4.603   3.506   3.371 -0.1332  0.8051  0.0149
42202SOL    HW128613   4.574   3.478   3.458  1.4295  0.9684  0.6143
42202SOL    HW228614   4.529   3.557   3.337 -0.8516  0.5600  1.1519
42203SOL     OW28615   5.334   3.747   7.259 -0.1552 -0.4853  0.2144
42203SOL    HW128616   5.339   3.842   7.268  3.9574 -0.1729 -2.5601
42203SOL    HW228617   5.357   3.713   7.345  2.2281  1.2346  0.3505
42204SOL     OW28618   9.933   0.137   7.302 -0.4934 -0.1894 -0.2388
42204SOL    HW128619   9.873   0.071   7.267 -0.2363 -0.1589 -0.7463
42204SOL    HW228620  10.016   0.091   7.312 -0.8755 -0.5544  1.5942
42205SOL     OW28621   4.876   6.000   0.046 -0.1796  0.3590  0.2502
42205SOL    HW128622   4.827   6.065  -0.004  0.0359  0.0391 -0.3840
42205SOL    HW228623   4.810   5.936   0.073 -0.5094  1.1702  1.4473
42206SOL     OW28624   9.016  10.904   6.736 -0.3065 -0.7658  0.2453
42206SOL    HW128625   9.101  10.945   6.722 -0.9821  0.3681 -0.6486
42206SOL    HW228626   9.032  10.810   6.722  0.6528 -0.4908 -0.6119
42207SOL     OW28627   1.945   8.482   9.086  0.0904 -0.2146  0.1449
42207SOL    HW128628   1.956   8.576   9.076 -0.5808 -0.0509  0.8689
42207SOL    HW228629   1.929   8.450   8.997  2.2785  0.0538 -0.3952
42208SOL     OW28630   3.548   3.524  10.542 -0.1846 -0.2309 -0.6014
42208SOL    HW128631   3.630   3.540  10.589 -0.7472  0.9952 -0.0004
42208SOL    HW228632   3.554   3.432  10.514  2.0469  0.2488 -1.9326
42209SOL     OW28633   1.738   1.502  10.382  0.5112  0.1435 -0.2814
42209SOL    HW128634   1.701   1.540  10.303  0.6284 -0.2755 -0.5456
42209SOL    HW228635   1.825   1.473  10.356  0.0588 -1.2149 -0.3765
42210SOL     OW28636  10.095   5.544   1.763  0.4282 -0.1920 -0.2804
42210SOL    HW128637  10.139   5.467   1.728  2.7453  1.1552 -0.5444
42210SOL    HW228638  10.036   5.572   1.693  0.5060 -0.9925 -0.6695
42211SOL     OW28639   6.997   2.482   3.598  0.1597  0.0331  0.4499
42211SOL    HW128640   7.049   2.457   3.521 -0.6284  1.1831 -0.4927
42211SOL    HW228641   6.991   2.577   3.593 -0.9315  0.0249  1.2750
42212SOL     OW28642   3.329   5.852   7.422  0.2511 -0.4944 -0.1224
42212SOL    HW128643   3.262   5.853   7.354 -0.5962 -0.4008  0.6915
42212SOL    HW228644   3.378   5.771   7.407  1.0767  0.2703 -1.7709
42213SOL     OW28645   2.736   1.667   3.253 -0.3697  0.8819  0.5004
42213SOL    HW128646   2.757   1.688   3.163 -1.3158 -0.4208 -0.0567
42213SOL    HW228647   2.800   1.600   3.279 -2.3514 -1.6295 -0.5551
42214SOL     OW28648   5.687   2.298   9.209 -0.2028  0.2632  0.0386
42214SOL    HW128649   5.692   2.240   9.285 -0.4036  1.6872  1.1778
42214SOL    HW228650   5.593   2.311   9.195 -0.1516  0.7544  0.1389
42215SOL     OW28651   6.141   1.343  10.303  0.6378  0.3061  0.3414
42215SOL    HW128652   6.105   1.255  10.312  2.8007 -0.6647  0.1195
42215SOL    HW228653   6.111   1.373  10.217 -1.4115  0.4798  1.0687
42216SOL     OW28654   2.836   0.184   5.951 -0.0823 -0.0946  0.3324
42216SOL    HW128655   2.843   0.101   5.997  0.7360  0.3513  1.0308
42216SOL    HW228656   2.747   0.184   5.914 -0.1883 -1.1370  0.5708
42217SOL     OW28657   1.912   2.144   0.490  0.8937  0.7824 -0.9766
42217SOL    HW128658   1.956   2.059   0.495 -1.5885 -0.5760  0.0594
42217SOL    HW228659   1.909   2.174   0.581  0.6023  1.3485 -1.1711
42218SOL     OW28660   2.174   8.403   5.223  0.3975  0.1539 -0.1649
42218SOL    HW128661   2.079   8.412   5.220  0.3269 -0.2912  0.5427
42218SOL    HW228662   2.204   8.442   5.141 -0.4956 -0.8909 -1.0317
42219SOL     OW28663   9.823   7.768   9.098 -0.3100 -0.0471  0.2910
42219SOL    HW128664   9.829   7.860   9.124 -0.2620 -0.0828  0.4069
42219SOL    HW228665   9.835   7.719   9.179  0.4503 -0.1741  0.1053
42220SOL     OW28666   9.152   4.138   2.968 -0.1387 -0.6775 -0.3623
42220SOL    HW128667   9.194   4.118   2.884 -2.3071 -1.2942 -1.3794
42220SOL    HW228668   9.063   4.165   2.945 -0.5239  0.0296  1.7043
42221SOL     OW28669   0.680   3.176   9.269 -0.2953 -0.5508  0.5094
42221SOL    HW128670   0.635   3.093   9.284  1.6701 -1.3470  2.6124
42221SOL    HW228671   0.747   3.155   9.203 -0.7297 -0.2655 -0.0238
42222SOL     OW28672   0.574   6.669   1.151  0.0994  0.4366  0.3663
42222SOL    HW128673   0.668   6.691   1.154 -0.0990  1.5071 -0.4840
42222SOL    HW228674   0.571   6.574   1.151  1.1710  0.3904  0.9429
42223SOL     OW28675  10.006   8.919   5.935  0.7999  0.5242  0.2606
42223SOL    HW128676  10.000   9.009   5.901 -0.2828  0.6964  0.8690
42223SOL    HW228677  10.079   8.921   5.996  2.0722  0.4838 -1.1837
42224SOL     OW28678   4.851   7.419   1.388 -0.4657  0.4016 -0.5764
42224SOL    HW128679   4.825   7.441   1.299 -1.3329  0.0182 -0.4359
42224SOL    HW228680   4.768   7.407   1.435 -0.0363  1.1854  0.4381
42225SOL     OW28681   8.794   8.158   7.946  0.1853 -0.3999  0.5406
42225SOL    HW128682   8.833   8.075   7.973 -0.3947  0.0583  2.9837
42225SOL    HW228683   8.869   8.217   7.934  0.8075 -1.6994 -3.3665
42226SOL     OW28684   0.636  10.118   5.680  0.4376 -0.1578  0.1262
42226SOL    HW128685   0.543  10.120   5.655 -0.3879 -0.7038  2.7917
42226SOL    HW228686   0.665  10.209   5.668 -0.6038  0.1549 -0.1620
42227SOL     OW28687   7.389   5.811   3.453 -0.5214 -0.2389 -0.0066
42227SOL    HW128688   7.483   5.830   3.441 -0.5448 -1.0411 -1.7895
42227SOL    HW228689   7.386   5.754   3.529  0.4941 -0.4898 -0.1374
42228SOL     OW28690   9.313   8.702   8.724 -0.3838  0.5707 -0.0142
42228SOL    HW128691   9.386   8.662   8.772 -0.4184  0.1438 -0.3139
42228SOL    HW228692   9.319   8.795   8.745  0.8720  0.6993 -0.8549
42229SOL     OW28693   0.058   0.092   4.372 -0.4405  0.1739  0.9525
42229SOL    HW128694   0.013   0.150   4.310 -1.8188  0.3159  2.0280
42229SOL    HW228695   0.103   0.028   4.317 -1.2309  0.5770 -0.2034
42230SOL     OW28696   3.356   5.074  10.756 -0.1903  0.1125  0.0274
42230SOL    HW128697   3.317   4.988  10.746  2.5623 -1.1047 -1.2041
42230SOL    HW228698   3.437   5.058  10.804  1.1270  1.7630 -1.5178
42231SOL     OW28699   6.241   8.078   5.470  0.5386 -0.5619 -0.1672
42231SOL    HW128700   6.215   8.101   5.380  0.9729  1.7141  0.2252
42231SOL    HW228701   6.329   8.041   5.461 -0.0274 -1.8040 -0.8053
42232SOL     OW28702   0.451   6.015   8.539  0.5890 -0.0656 -0.3464
42232SOL    HW128703   0.378   5.969   8.498  0.1810 -0.1163  0.4160
42232SOL    HW228704   0.521   5.950   8.546  0.7321 -0.0041 -1.1232
42233SOL     OW28705   5.933  10.746   3.689 -0.1035  0.2262  0.7731
42233SOL    HW128706   5.870  10.674   3.678 -0.3110  0.5631 -0.3228
42233SOL    HW228707   6.012  10.703   3.720 -0.8977 -0.1871  2.3490
42234SOL     OW28708   5.518   0.430   9.785  0.7771 -0.3322 -0.3936
42234SOL    HW128709   5.495   0.422   9.877 -1.4590  0.1970 -0.8550
42234SOL    HW228710   5.523   0.525   9.770 -0.9838 -0.3283 -1.2376
42235SOL     OW28711   2.866   8.371   9.438  0.0459 -0.3116  0.5117
42235SOL    HW128712   2.873   8.466   9.437  2.7011 -0.4376 -0.6934
42235SOL    HW228713   2.880   8.347   9.530 -0.3511  0.4242  0.7746
42236SOL     OW28714   5.540   7.684   9.685  1.0430  0.2073  0.2077
42236SOL    HW128715   5.548   7.592   9.662 -1.8259  0.1882 -1.1383
42236SOL    HW228716   5.588   7.730   9.617  2.0965 -0.2554  0.6248
42237SOL     OW28717   5.350  10.568   6.893  0.3207  0.0556 -0.3027
42237SOL    HW128718   5.382  10.609   6.973 -1.5113 -0.6987  0.8912
42237SOL    HW228719   5.323  10.641   6.837  0.7018  0.5689  0.1845
42238SOL     OW28720   5.862   8.743   9.280  0.2751 -0.3966  0.1336
42238SOL    HW128721   5.866   8.785   9.194  0.7242 -2.0362 -0.6839
42238SOL    HW228722   5.803   8.670   9.268  0.2573 -0.5842  1.2654
42239SOL     OW28723   9.199   4.760   7.248 -0.2306  0.0603  1.2989
42239SOL    HW128724   9.266   4.693   7.239 -1.4558 -1.2342  1.4653
42239SOL    HW228725   9.179   4.786   7.158 -1.7771 -1.9386  0.9920
42240SOL     OW28726   2.999   4.145   5.955 -0.4168 -0.2552  0.2210
42240SOL    HW128727   2.930   4.111   5.899 -0.6959 -0.3457  0.6101
42240SOL    HW228728   3.054   4.070   5.975 -0.2222 -0.1879 -0.0715
42241SOL     OW28729   3.648   4.613  10.660 -0.3013 -0.6437  0.3699
42241SOL    HW128730   3.735   4.653  10.659  0.2047 -1.6245  1.5345
42241SOL    HW228731   3.629   4.599  10.753 -2.7611  1.6615  0.3314
42242SOL     OW28732   6.789   9.196   5.211 -0.0115 -0.2346 -0.1043
42242SOL    HW128733   6.822   9.109   5.234  1.1491  0.3737  0.6647
42242SOL    HW228734   6.867   9.245   5.186 -0.5567  0.7603  0.0846
42243SOL     OW28735   1.381  10.476   0.211 -0.4783 -0.0422 -0.1291
42243SOL    HW128736   1.286  10.475   0.199 -0.1842 -1.5971 -3.6825
42243SOL    HW228737   1.408  10.565   0.187 -0.8643 -0.4900 -2.5079
42244SOL     OW28738   5.829   2.836   9.265 -0.1782 -0.3000  0.2049
42244SOL    HW128739   5.864   2.750   9.290  0.3766 -0.0974  0.1293
42244SOL    HW228740   5.893   2.870   9.202  0.0432  0.5325  0.8747
42245SOL     OW28741  10.085   4.593  10.332  0.1198 -0.3574  0.2947
42245SOL    HW128742  10.009   4.543  10.362  0.3319 -0.4235  0.7294
42245SOL    HW228743  10.093   4.571  10.240 -1.3347  0.8596 -0.1661
42246SOL     OW28744   0.727   0.362   2.786 -0.2089  0.0514  0.0798
42246SOL    HW128745   0.786   0.287   2.797 -0.1985  0.0483  0.0026
42246SOL    HW228746   0.669   0.358   2.862 -0.5771 -0.3639 -0.2216
42247SOL     OW28747   8.630  10.257   1.191 -0.1518  0.3018 -0.5650
42247SOL    HW128748   8.679  10.293   1.117  1.3634  1.1176  0.7630
42247SOL    HW228749   8.671  10.296   1.268 -0.8277 -1.4875  0.7855
42248SOL     OW28750   9.994  10.529   7.595  0.9382  0.1258 -0.5783
42248SOL    HW128751   9.929  10.481   7.543  0.2572  0.0857  0.2699
42248SOL    HW228752  10.078  10.492   7.568  0.4583 -1.3207 -0.2157
42249SOL     OW28753   8.371   7.294   3.540 -0.3394  0.1043 -0.3928
42249SOL    HW128754   8.297   7.313   3.597  0.6844 -0.3282  1.1604
42249SOL    HW228755   8.433   7.248   3.597  1.9221  2.1091 -1.0739
42250SOL     OW28756   9.982   9.811   4.125  0.2952 -0.0249  0.3370
42250SOL    HW128757  10.073   9.832   4.147 -0.0443  0.4681  1.3263
42250SOL    HW228758   9.947   9.771   4.204  0.1606 -1.9364 -0.6426
42251SOL     OW28759   4.998   5.059   6.238  0.5130 -0.5354  0.2785
42251SOL    HW128760   5.013   5.023   6.150  0.6631 -1.9262  0.8503
42251SOL    HW228761   4.919   5.112   6.229  1.5004  0.8275 -1.0904
42252SOL     OW28762  10.633   1.929   9.564  0.5682  0.6183 -0.3408
42252SOL    HW128763  10.545   1.958   9.540  0.8754  0.6349 -1.5375
42252SOL    HW228764  10.680   2.010   9.584  0.0640  0.5422  1.2745
42253SOL     OW28765  10.701   6.776   2.822 -0.4073  0.1484 -0.2449
42253SOL    HW128766  10.790   6.795   2.851 -0.6575 -0.3469  0.8918
42253SOL    HW228767  10.695   6.681   2.823 -0.9672  0.1792 -0.2753
42254SOL     OW28768   4.020   2.106   6.928 -0.0832  0.1489 -0.1164
42254SOL    HW128769   4.051   2.115   6.838 -1.0164 -2.1862 -0.7559
42254SOL    HW228770   3.935   2.064   6.920 -0.6159  0.7398  1.8482
42255SOL     OW28771   4.069   6.514   9.068 -0.0987 -0.2920  0.3961
42255SOL    HW128772   4.050   6.478   8.981  3.0305 -1.0008 -0.1167
42255SOL    HW228773   4.012   6.466   9.127 -0.6975 -1.3980 -1.0141
42256SOL     OW28774   9.210   1.351   8.043  0.0725  0.0922 -0.1189
42256SOL    HW128775   9.154   1.274   8.055  1.7790 -1.2281 -0.2218
42256SOL    HW228776   9.173   1.396   7.968 -0.3374 -1.2485 -0.7589
42257SOL     OW28777  10.830   2.637   5.437 -1.2646  0.3289 -0.5692
42257SOL    HW128778  10.796   2.650   5.348 -1.3102 -0.1079 -0.6161
42257SOL    HW228779  10.861   2.547   5.438 -0.8330  0.4806 -0.2810
42258SOL     OW28780   1.090   3.280   4.795 -0.3619 -0.1310  0.0658
42258SOL    HW128781   1.165   3.223   4.807  0.0993  0.3329 -0.4936
42258SOL    HW228782   1.102   3.350   4.859  0.4979  0.7363 -0.9892
42259SOL     OW28783   4.360   6.677   1.946 -0.1080  0.0366 -0.0451
42259SOL    HW128784   4.330   6.762   1.976 -1.3417 -0.2053 -0.5296
42259SOL    HW228785   4.356   6.621   2.024 -3.0610 -0.5312 -0.4943
42260SOL     OW28786   7.160   7.585   5.720  0.1275  0.0881 -0.4294
42260SOL    HW128787   7.246   7.548   5.700 -0.1904  0.2214 -2.2032
42260SOL    HW228788   7.098   7.524   5.680 -0.5175  0.9573 -0.7872
42261SOL     OW28789   6.916   0.261   8.490 -0.3156 -0.0150 -0.0254
42261SOL    HW128790   6.836   0.282   8.443 -1.4109 -2.0945  0.7783
42261SOL    HW228791   6.971   0.217   8.425  0.6458  2.2461 -0.8358
42262SOL     OW28792   3.063   6.703   9.248 -0.2040 -0.1486  0.2835
42262SOL    HW128793   3.150   6.662   9.242 -0.1060 -0.1645  1.5535
42262SOL    HW228794   3.026   6.668   9.329  0.3914  3.1891  2.1747
42263SOL     OW28795   7.997  10.392   3.856 -0.4159 -0.1198  0.7323
42263SOL    HW128796   7.948  10.451   3.799  0.2382  0.6479  0.9460
42263SOL    HW228797   8.013  10.444   3.935  0.8210 -0.3107  0.6245
42264SOL     OW28798  10.055   1.933   0.222 -0.5860 -0.4059  0.0650
42264SOL    HW128799  10.045   1.838   0.217 -1.5457 -0.5127  2.4292
42264SOL    HW228800   9.995   1.968   0.156 -1.5827 -1.4424  0.3884
42265SOL     OW28801   4.539   0.603   7.748  0.1197 -0.1067  0.0521
42265SOL    HW128802   4.629   0.636   7.744  0.5745 -1.3590 -0.6361
42265SOL    HW228803   4.548   0.518   7.791 -1.0454  0.7027  2.0262
42266SOL     OW28804   6.782  10.667   1.894 -0.1149 -0.0227  0.0144
42266SOL    HW128805   6.778  10.660   1.989 -2.0571 -1.6094 -0.1372
42266SOL    HW228806   6.761  10.759   1.876  0.5434  0.3620  1.1017
42267SOL     OW28807   1.027   4.462   1.244 -0.6750 -0.2667  0.0269
42267SOL    HW128808   0.985   4.490   1.163  0.4139  0.7534 -0.2133
42267SOL    HW228809   0.955   4.429   1.298 -1.4215 -0.9061 -1.3226
42268SOL     OW28810  10.768   6.117   3.449 -0.3721  0.0657 -0.3177
42268SOL    HW128811  10.794   6.054   3.382  1.4063  0.6081 -0.1812
42268SOL    HW228812  10.825   6.192   3.435 -2.2978  1.6162 -0.3380
42269SOL     OW28813   7.253  10.592   5.083  0.5677  0.1835  0.1561
42269SOL    HW128814   7.185  10.525   5.087  0.2949  0.1765 -2.4682
42269SOL    HW228815   7.262  10.624   5.173 -4.1617  1.4232  0.4358
42270SOL     OW28816   0.306   1.867   4.700  0.0047 -0.0306  0.0906
42270SOL    HW128817   0.342   1.878   4.612 -0.1870  0.5177  0.0806
42270SOL    HW228818   0.215   1.895   4.692  0.0355  0.1854  0.5029
42271SOL     OW28819   5.877   3.721   9.401  0.1852 -0.7169  0.0794
42271SOL    HW128820   5.863   3.742   9.309 -0.0213  0.3898  0.3556
42271SOL    HW228821   5.801   3.667   9.425 -0.7163  0.4904  0.0581
42272SOL     OW28822  10.039   8.317   1.476 -0.5598 -0.3779  0.1150
42272SOL    HW128823  10.053   8.410   1.489 -0.7355 -0.3673  0.2379
42272SOL    HW228824   9.944   8.307   1.470 -0.6010 -0.6928  1.2141
42273SOL     OW28825   2.813   3.164   2.447  0.2312  1.0214 -0.4771
42273SOL    HW128826   2.803   3.147   2.353 -1.0110  1.4369 -0.4457
42273SOL    HW228827   2.745   3.229   2.466 -0.0531  0.3533  0.8670
42274SOL     OW28828   8.980   5.543   4.364 -0.2982 -0.3757 -0.3527
42274SOL    HW128829   8.898   5.566   4.319 -0.4450 -0.5862 -0.1979
42274SOL    HW228830   8.953   5.521   4.453  0.2826  2.3537  0.5669
42275SOL     OW28831   7.452   1.147   9.825  0.1883  0.4591  0.2944
42275SOL    HW128832   7.381   1.210   9.833 -0.7600 -0.2560 -1.8460
42275SOL    HW228833   7.412   1.069   9.785  2.0083 -0.2294 -0.3245
42276SOL     OW28834   5.220   1.706   0.837  0.2357  0.1014  0.2028
42276SOL    HW128835   5.254   1.618   0.821  1.1029  0.5551 -0.5213
42276SOL    HW228836   5.142   1.711   0.782  0.9734  0.2558 -0.8758
42277SOL     OW28837   6.428   5.123   6.956 -0.4966  0.4145  0.0434
42277SOL    HW128838   6.496   5.058   6.936 -1.9829 -1.0029 -0.7521
42277SOL    HW228839   6.346   5.077   6.937 -1.6676  2.1612  0.6494
42278SOL     OW28840   0.624  10.179  10.531  0.3220  0.5148  0.0647
42278SOL    HW128841   0.549  10.237  10.539  0.2141  0.4052 -0.1381
42278SOL    HW228842   0.599  10.117  10.462  0.7375  0.6978 -0.2557
42279SOL     OW28843   9.282  10.183   1.221 -0.0364 -0.2443  0.7918
42279SOL    HW128844   9.375  10.194   1.241  0.0136 -1.0679  1.0693
42279SOL    HW228845   9.275  10.093   1.188 -0.8450 -0.4729  1.5228
42280SOL     OW28846   7.246   6.421   2.536 -0.4130 -0.6604  0.1126
42280SOL    HW128847   7.315   6.434   2.471 -0.1362  0.0621  0.5486
42280SOL    HW228848   7.278   6.464   2.615 -0.9276 -1.1876  0.6162
42281SOL     OW28849   9.924   5.101   0.083 -0.5698  0.2167  0.3247
42281SOL    HW128850   9.932   5.022   0.030 -1.2029 -0.2862  0.9612
42281SOL    HW228851   9.965   5.169   0.030 -2.1555 -0.0291 -1.3311
42282SOL     OW28852   4.703  10.431   4.295 -0.8775 -0.5807 -0.5143
42282SOL    HW128853   4.690  10.441   4.389  2.5353  1.0281 -0.0445
42282SOL    HW228854   4.712  10.336   4.282  0.2532 -0.7376  1.1132
42283SOL     OW28855   2.724   1.794   5.541 -0.5913  0.0244  0.7228
42283SOL    HW128856   2.726   1.771   5.449  2.3100 -0.0483  0.7397
42283SOL    HW228857   2.724   1.710   5.587 -0.0516  0.0495  0.7750
42284SOL     OW28858   0.979  10.941   8.164  0.1080 -0.3364  0.6106
42284SOL    HW128859   0.899  10.992   8.179  0.6111  0.1526  1.7971
42284SOL    HW228860   0.952  10.850   8.176 -0.9679 -0.5011 -2.2630
42285SOL     OW28861   1.438   0.190   1.357 -0.2899  0.3858 -0.2893
42285SOL    HW128862   1.354   0.172   1.399  0.0318  1.8797  1.0766
42285SOL    HW228863   1.474   0.103   1.340 -1.0335 -0.2926  1.3472
42286SOL     OW28864   4.050   1.464  10.447  0.2921 -0.1281  0.2948
42286SOL    HW128865   4.005   1.451  10.531  1.6811  1.5933  1.3639
42286SOL    HW228866   4.142   1.446  10.466  0.8624  1.7826 -0.4533
42287SOL     OW28867   0.382   3.635   4.659 -0.2266  0.5024  0.0873
42287SOL    HW128868   0.406   3.608   4.571 -1.3414  0.1156 -0.1129
42287SOL    HW228869   0.466   3.651   4.703  0.4276 -1.2312 -0.4339
42288SOL     OW28870   8.170   3.639   6.609  0.0614 -0.1589  0.5961
42288SOL    HW128871   8.252   3.647   6.658  0.5536  1.1738 -0.4003
42288SOL    HW228872   8.158   3.724   6.567 -1.4068 -0.6064  0.0448
42289SOL     OW28873   5.566   4.607   4.791  0.3876 -0.3081 -0.1713
42289SOL    HW128874   5.536   4.550   4.720  3.2530 -1.7162 -0.3947
42289SOL    HW228875   5.626   4.552   4.841  0.0760  1.3242  2.1032
42290SOL     OW28876   5.314   5.238   8.671 -0.1660  0.0018 -0.0214
42290SOL    HW128877   5.226   5.270   8.690  0.2710  1.7335 -0.6643
42290SOL    HW228878   5.301   5.158   8.620 -1.4153  0.8401 -1.0810
42291SOL     OW28879   9.662   3.009   9.646  0.4402  0.1580  0.2376
42291SOL    HW128880   9.669   3.040   9.736  1.5685  1.1353 -0.1480
42291SOL    HW228881   9.738   2.952   9.634 -1.1564 -2.2240  0.6733
42292SOL     OW28882   2.757   6.544   0.969  0.1767 -0.2861  0.3751
42292SOL    HW128883   2.697   6.582   0.904  0.7551  0.9526  0.5411
42292SOL    HW228884   2.841   6.540   0.925  0.1025 -1.5400  0.3199
42293SOL     OW28885   8.889   1.467   7.903 -0.0896  0.2059  0.2056
42293SOL    HW128886   8.955   1.401   7.883  1.4923  1.0634  2.1895
42293SOL    HW228887   8.839   1.430   7.976 -2.5354 -0.8427 -1.8788
42294SOL     OW28888   4.858   4.656   6.908  0.0335  0.2400 -0.0034
42294SOL    HW128889   4.870   4.736   6.960  0.7945  1.4548 -1.9351
42294SOL    HW228890   4.917   4.593   6.950 -0.1094  0.8562  1.1936
42295SOL     OW28891   2.755   8.178   7.125  0.1737  0.4269 -0.2040
42295SOL    HW128892   2.700   8.252   7.100  0.7117  0.3666 -1.6623
42295SOL    HW228893   2.830   8.217   7.169 -1.1253  0.4909  2.1089
42296SOL     OW28894   9.388   1.338   4.493  0.1151 -0.5794  0.8573
42296SOL    HW128895   9.364   1.308   4.405  1.3949 -0.4806  0.4538
42296SOL    HW228896   9.340   1.280   4.552 -0.6587 -0.7286  0.0972
42297SOL     OW28897   6.826   5.705   0.368  0.1987 -0.2310 -0.4233
42297SOL    HW128898   6.805   5.795   0.392  0.7195 -0.4237  0.8927
42297SOL    HW228899   6.747   5.656   0.389  0.9782 -0.5686  2.1519
42298SOL     OW28900   6.634   6.431  10.690  0.2302 -0.0306  0.6018
42298SOL    HW128901   6.723   6.459  10.711  0.7263 -0.1189 -1.2664
42298SOL    HW228902   6.578   6.501  10.723  1.0877  0.7263  0.4683
42299SOL     OW28903   8.630   6.069   5.546 -0.6049 -0.1880 -0.6245
42299SOL    HW128904   8.591   6.155   5.564 -3.5987 -1.6707  0.7270
42299SOL    HW228905   8.695   6.059   5.615 -0.2553  0.9499 -0.7600
42300SOL     OW28906   2.069   5.183   8.102 -0.1472 -0.1264  0.4382
42300SOL    HW128907   1.986   5.188   8.147 -1.0576 -1.7836 -0.9298
42300SOL    HW228908   2.079   5.269   8.060 -0.8464  0.2939  1.1143
42301SOL     OW28909   0.700   7.890   8.438 -0.1040  0.1007  0.4880
42301SOL    HW128910   0.686   7.822   8.372 -0.8521 -0.4060  1.1579
42301SOL    HW228911   0.795   7.901   8.440  0.0469 -1.0671  0.4984
42302SOL     OW28912   8.144   8.682   9.497 -0.1556  0.3889 -0.2165
42302SOL    HW128913   8.062   8.719   9.464 -0.7022  0.1492  0.8196
42302SOL    HW228914   8.116   8.614   9.559  0.8311  0.3303  0.1792
42303SOL     OW28915   4.793   0.366  10.041  0.4926  0.3640  0.1570
42303SOL    HW128916   4.758   0.397   9.957  0.8485 -1.4563 -0.7109
42303SOL    HW228917   4.874   0.416  10.052 -0.1747  1.5142  0.0597
42304SOL     OW28918   5.122   6.188   3.915  0.1998 -0.5543 -0.1030
42304SOL    HW128919   5.158   6.157   3.832  0.1142  1.9518 -1.1437
42304SOL    HW228920   5.041   6.233   3.891  1.2354  2.1073  0.9881
42305SOL     OW28921   7.512   9.231   0.589 -0.3367  0.0655  0.2173
42305SOL    HW128922   7.478   9.155   0.635 -1.6527  0.5477  0.0852
42305SOL    HW228923   7.591   9.200   0.545  0.4109 -0.6410  1.9888
42306SOL     OW28924   8.053   6.122   7.788 -0.1174 -0.2059  0.0602
42306SOL    HW128925   8.041   6.033   7.755  0.3576  0.1983 -1.2824
42306SOL    HW228926   8.034   6.179   7.713 -0.1239  0.8123  0.8067
42307SOL     OW28927   9.595  10.697   8.515 -0.0774  0.2193  0.2869
42307SOL    HW128928   9.690  10.695   8.503  0.0528 -2.0680  1.2283
42307SOL    HW228929   9.562  10.621   8.467 -1.3922  0.6736  0.4117
42308SOL     OW28930  10.497   1.901   5.288 -0.5697  0.1240  0.0045
42308SOL    HW128931  10.485   1.864   5.375 -1.3160  0.1574 -0.0750
42308SOL    HW228932  10.574   1.857   5.253 -1.0089 -0.8190  0.1967
42309SOL     OW28933  10.591   8.787   1.865  0.5505  0.3188 -0.0737
42309SOL    HW128934  10.663   8.849   1.853  0.4809  0.3063 -0.5796
42309SOL    HW228935  10.515   8.830   1.825  1.0330 -1.1254 -2.7939
42310SOL     OW28936  10.113   6.749   7.813 -0.2209  0.0560  0.1189
42310SOL    HW128937  10.158   6.705   7.885  0.1500 -0.3687 -0.3694
42310SOL    HW228938  10.040   6.794   7.855 -0.8393 -1.3220  0.5828
42311SOL     OW28939   5.673  10.144   1.468 -0.1333 -0.1683  0.2729
42311SOL    HW128940   5.765  10.162   1.447  0.2133  0.4132  2.0954
42311SOL    HW228941   5.624  10.185   1.397  1.0080 -1.0344 -1.0747
42312SOL     OW28942   6.142   1.851   0.941  0.3532 -0.0900  0.2733
42312SOL    HW128943   6.161   1.783   0.876 -1.1175  0.7771 -1.1477
42312SOL    HW228944   6.059   1.823   0.981  0.5837  0.0491  0.8506
42313SOL     OW28945   5.823   9.166   7.567 -0.1507 -0.4577  0.2959
42313SOL    HW128946   5.828   9.140   7.474  0.1428 -1.9253  0.6981
42313SOL    HW228947   5.860   9.254   7.569  0.6126 -0.7275 -0.8648
42314SOL     OW28948   6.751   0.564  10.797 -0.3020  0.2152 -0.4711
42314SOL    HW128949   6.678   0.528  10.848  1.6003 -0.8812  1.6242
42314SOL    HW228950   6.791   0.629  10.854  0.6323  0.4893 -1.4067
42315SOL     OW28951   5.835   6.834  10.251  0.2079 -0.2764 -0.5022
42315SOL    HW128952   5.860   6.747  10.280 -0.5606 -0.2390  0.2840
42315SOL    HW228953   5.774   6.819  10.179 -1.5581 -0.4431  0.9682
42316SOL     OW28954   0.386   1.862   9.974 -0.2360  0.7489  0.6277
42316SOL    HW128955   0.441   1.883  10.050 -1.9739  0.0266  2.1403
42316SOL    HW228956   0.312   1.922   9.980 -0.3150  0.8096 -0.6391
42317SOL     OW28957   8.880   4.951   6.647  0.0743 -0.1532  0.4765
42317SOL    HW128958   8.801   4.903   6.622  0.1360  0.4862 -1.0055
42317SOL    HW228959   8.848   5.030   6.689 -0.1372  0.7770 -1.3579
42318SOL     OW28960   9.700   9.168   4.991 -0.0430  0.1345  0.6771
42318SOL    HW128961   9.683   9.097   5.053 -0.5040 -0.6002 -0.2641
42318SOL    HW228962   9.614   9.207   4.975 -0.4675 -1.5205 -1.6295
42319SOL     OW28963   5.400   7.539   8.500 -0.5446  0.1700  0.1400
42319SOL    HW128964   5.408   7.529   8.595 -0.2825  2.0684  0.3590
42319SOL    HW228965   5.490   7.548   8.469 -0.6075 -0.8002 -0.3472
42320SOL     OW28966   1.127   3.899   0.448 -0.1930 -0.0375 -0.7697
42320SOL    HW128967   1.090   3.877   0.534  3.3331 -1.3650  0.5739
42320SOL    HW228968   1.124   3.817   0.399 -0.3100  0.2162 -1.1918
42321SOL     OW28969   1.851   6.508   6.596  0.1319  0.6875 -0.3936
42321SOL    HW128970   1.912   6.559   6.650 -0.5658  0.8435  0.2639
42321SOL    HW228971   1.770   6.559   6.597 -0.2994  0.0099 -0.4787
42322SOL     OW28972   4.655   4.982  10.520 -0.5103 -0.2515 -0.0348
42322SOL    HW128973   4.746   4.970  10.550  0.3944  0.8350 -2.0900
42322SOL    HW228974   4.625   4.894  10.497  0.3027 -0.5451 -0.0042
42323SOL     OW28975   4.890   9.758   8.109  0.1706 -0.4712 -0.2049
42323SOL    HW128976   4.885   9.673   8.064 -0.1495 -0.6783  0.2239
42323SOL    HW228977   4.955   9.807   8.058  1.5646 -1.5450  0.4784
42324SOL     OW28978   8.738   1.640  10.839  0.4939 -0.3850  0.3514
42324SOL    HW128979   8.788   1.689  10.905  2.1765 -0.4157 -0.8472
42324SOL    HW228980   8.679   1.585  10.891  0.4367  0.9455  1.7794
42325SOL     OW28981   7.334   8.488   3.787  0.1825  0.5319 -0.1161
42325SOL    HW128982   7.376   8.426   3.845  1.4217  1.4685  0.0172
42325SOL    HW228983   7.406   8.528   3.738 -0.6196  1.5379 -0.5113
42326SOL     OW28984   4.983   1.529   2.301 -0.0108  0.0629 -0.4124
42326SOL    HW128985   5.031   1.454   2.266  0.2151  0.5256 -1.1279
42326SOL    HW228986   4.972   1.588   2.226  0.1750  0.9293  0.2141
42327SOL     OW28987   1.449   8.668   8.472  0.8029  0.3198 -0.4433
42327SOL    HW128988   1.421   8.668   8.564  0.3333  2.2528 -0.5348
42327SOL    HW228989   1.381   8.619   8.426  1.2002 -0.9243  0.2592
42328SOL     OW28990   7.974   6.993   1.394  0.3935 -0.3039  0.2826
42328SOL    HW128991   8.046   6.930   1.390  1.0809  0.2482  2.3905
42328SOL    HW228992   8.001   7.056   1.461 -1.3517  0.8517 -0.0188
42329SOL     OW28993   4.077   4.546   0.514 -0.3167 -0.3269  0.1291
42329SOL    HW128994   4.036   4.475   0.564 -1.6623  0.3212 -0.0296
42329SOL    HW228995   4.031   4.625   0.541  1.6647  0.6420  0.8541
42330SOL     OW28996  10.110   9.095   7.682 -0.4433 -0.1187  0.1098
42330SOL    HW128997  10.079   9.129   7.766 -0.2102  0.1930  0.0740
42330SOL    HW228998  10.198   9.131   7.673 -1.1107  1.3693 -1.0966
42331SOL     OW28999   1.667   3.751   3.346 -0.0058 -0.4521  0.1275
42331SOL    HW129000   1.691   3.749   3.438  0.1215 -0.1280  0.1028
42331SOL    HW229001   1.664   3.844   3.324 -2.7441 -0.3699  0.5026
42332SOL     OW29002   9.852   6.316   9.806 -0.0752 -0.5959 -0.7066
42332SOL    HW129003   9.781   6.278   9.753  0.9994  0.4693 -3.0504
42332SOL    HW229004   9.807   6.355   9.881 -1.6143 -2.6725 -0.4612
42333SOL     OW29005   4.589   2.063   4.878  0.7882  0.4655 -0.0489
42333SOL    HW129006   4.537   2.018   4.810  0.4026  0.4540  0.2492
42333SOL    HW229007   4.675   2.076   4.838  1.1565 -1.2181  0.1278
42334SOL     OW29008   1.970   2.974   0.263 -0.3558  0.0791  0.6534
42334SOL    HW129009   2.003   3.008   0.346  1.1914 -0.7419  0.4006
42334SOL    HW229010   1.966   2.880   0.275 -0.8609  0.0148  0.0422
42335SOL     OW29011   4.968  10.321   2.851 -0.3008  0.1468  0.2497
42335SOL    HW129012   4.922  10.282   2.776 -0.5611 -0.0700  0.5217
42335SOL    HW229013   4.929  10.408   2.861 -0.4901  0.0535  0.3322
42336SOL     OW29014   7.155   7.027   7.780  0.3313  0.2780 -0.0843
42336SOL    HW129015   7.245   7.045   7.808  0.3911 -0.9348  0.5974
42336SOL    HW229016   7.130   7.103   7.728  2.3651 -0.1104 -1.7468
42337SOL     OW29017   2.761   4.530   5.925 -0.0558 -0.0655 -0.4990
42337SOL    HW129018   2.726   4.606   5.972 -0.9959  0.0726 -1.3902
42337SOL    HW229019   2.770   4.463   5.993 -0.7846  0.3219  0.0022
42338SOL     OW29020   7.790   2.162  10.730 -0.1683 -0.3528  0.0834
42338SOL    HW129021   7.877   2.194  10.709 -0.1572  0.0547  0.7035
42338SOL    HW229022   7.732   2.237  10.713 -0.4626 -0.7629 -0.7677
42339SOL     OW29023  10.077   8.798   4.026  0.1051 -0.5814 -0.2210
42339SOL    HW129024  10.164   8.760   4.015 -0.2562 -0.8302 -2.9556
42339SOL    HW229025  10.089   8.891   4.006  0.1798 -0.0519  2.0700
42340SOL     OW29026   1.415   8.957   4.491 -0.1277 -0.0961  0.2203
42340SOL    HW129027   1.358   8.952   4.415  1.6454  1.4851 -1.3129
42340SOL    HW229028   1.366   9.008   4.556 -1.4516 -1.0289 -0.0216
42341SOL     OW29029   1.904   5.397   4.666 -0.9402 -0.1102  0.0035
42341SOL    HW129030   1.926   5.305   4.651 -0.9893 -0.0702 -0.3061
42341SOL    HW229031   1.922   5.440   4.583 -1.1794  0.1121  0.0675
42342SOL     OW29032   0.827   7.600   4.981 -0.0286 -0.2301  0.3117
42342SOL    HW129033   0.799   7.580   5.070  1.6895 -0.9048  0.7453
42342SOL    HW229034   0.907   7.548   4.969  0.1508  0.3711 -1.3803
42343SOL     OW29035   1.090   7.942   2.687 -0.3669 -0.1022 -0.3675
42343SOL    HW129036   1.138   8.024   2.700 -0.2093  0.0899 -1.9405
42343SOL    HW229037   1.033   7.935   2.763  0.8923  0.5665  0.6714
42344SOL     OW29038   3.884   5.463   3.094  0.0714 -0.2186 -0.0560
42344SOL    HW129039   3.918   5.551   3.081 -0.7096  0.0047 -0.6542
42344SOL    HW229040   3.800   5.462   3.047 -0.7304 -0.7549  1.3130
42345SOL     OW29041   8.894   6.551   5.447 -0.1190  0.3401  0.5741
42345SOL    HW129042   8.944   6.473   5.472 -0.6033 -0.2506 -0.2511
42345SOL    HW229043   8.860   6.584   5.530 -0.8591 -1.0013  0.8473
42346SOL     OW29044   5.566   8.986   4.441  0.0899 -0.4426 -0.5572
42346SOL    HW129045   5.513   8.906   4.434 -1.4619  0.4319  0.5518
42346SOL    HW229046   5.518   9.051   4.390  2.6024 -0.6962 -3.5752
42347SOL     OW29047   1.665   2.904  11.014 -0.0917  0.3414 -0.5171
42347SOL    HW129048   1.723   2.974  11.046  1.2946 -0.5098 -1.0725
42347SOL    HW229049   1.582   2.920  11.058  0.7135  1.3067  0.7326
42348SOL     OW29050   2.199   2.805   8.898 -0.0153  0.0178 -0.0315
42348SOL    HW129051   2.198   2.719   8.856 -0.3459 -0.9181  1.7675
42348SOL    HW229052   2.113   2.813   8.939 -0.2850  1.5777 -0.8258
42349SOL     OW29053   7.019   4.654   3.350  0.5685 -0.2303 -0.2253
42349SOL    HW129054   6.934   4.686   3.318  0.6700 -1.3317 -1.7179
42349SOL    HW229055   7.073   4.733   3.357 -0.4467  0.4381  0.3740
42350SOL     OW29056   8.716  10.077   7.283  0.5355  0.6420  0.0223
42350SOL    HW129057   8.675  10.027   7.213  1.9721  0.1337 -0.5001
42350SOL    HW229058   8.765  10.146   7.237  0.9416  0.7245  0.5646
42351SOL     OW29059   6.700   9.894   7.730 -0.1129 -0.0856  0.2305
42351SOL    HW129060   6.772   9.958   7.727 -2.7299  3.1107 -1.8232
42351SOL    HW229061   6.627   9.942   7.768 -2.6215 -1.2612 -2.6705
42352SOL     OW29062   0.521   3.935   9.933 -0.0942  0.3578  0.9032
42352SOL    HW129063   0.545   3.928  10.025  0.4532 -0.2528  0.7191
42352SOL    HW229064   0.604   3.942   9.886 -0.2985 -0.5421  0.3638
42353SOL     OW29065  10.888   9.991   0.037  0.2341 -0.2207 -0.0019
42353SOL    HW129066  10.835   9.958  -0.036  1.1413  0.7801 -1.1587
42353SOL    HW229067  10.956   9.925   0.049  0.0785 -0.3909 -0.0505
42354SOL     OW29068   8.400   9.420   0.225 -0.2120 -0.5421  0.1105
42354SOL    HW129069   8.373   9.356   0.159  1.8043 -0.1548 -1.1591
42354SOL    HW229070   8.443   9.368   0.292 -0.2475 -0.7057  0.0086
42355SOL     OW29071   0.615   8.222   4.647 -0.6510  0.5702  0.0420
42355SOL    HW129072   0.684   8.159   4.667 -1.0295 -0.5248 -1.8157
42355SOL    HW229073   0.544   8.169   4.611 -1.7965  1.8596  0.3212
42356SOL     OW29074   4.774   2.015   9.785  0.7501  1.1063  0.2794
42356SOL    HW129075   4.725   1.981   9.860  0.4887 -1.2645 -0.8444
42356SOL    HW229076   4.852   1.959   9.781  1.1541  1.7213 -0.7185
42357SOL     OW29077   1.682   6.026   1.723 -0.4554 -0.4866  0.0240
42357SOL    HW129078   1.645   6.003   1.639 -1.2155  0.9658 -0.0719
42357SOL    HW229079   1.756   6.084   1.702 -1.7854  1.4226  0.3524
42358SOL     OW29080  10.836   4.028   8.193  0.2818  0.4194 -0.1650
42358SOL    HW129081  10.853   3.948   8.143 -1.9671 -0.6536  0.6361
42358SOL    HW229082  10.797   4.088   8.129 -2.0380 -0.7387  0.0469
42359SOL     OW29083   2.805  10.485   0.642  0.7604 -0.0863 -0.3743
42359SOL    HW129084   2.803  10.471   0.737 -0.4631  2.1421 -0.0001
42359SOL    HW229085   2.797  10.397   0.605 -1.0628 -0.8713  1.6135
42360SOL     OW29086   8.524   1.608   0.378  0.4495 -0.4162 -0.5278
42360SOL    HW129087   8.567   1.634   0.296  0.4109 -0.6090 -0.6100
42360SOL    HW229088   8.574   1.532   0.408  0.8378  0.0203 -0.0555
42361SOL     OW29089   2.497   4.494   2.713 -0.3626 -0.1057  0.1642
42361SOL    HW129090   2.470   4.430   2.647 -2.5873  0.3589  0.5689
42361SOL    HW229091   2.504   4.577   2.665 -0.4077 -0.0721  0.2165
42362SOL     OW29092   4.579   9.866   7.357  0.1864  0.5847  0.3296
42362SOL    HW129093   4.630   9.929   7.408 -1.9360  1.5830  1.3684
42362SOL    HW229094   4.574   9.789   7.412 -1.1557  1.2587  1.2044
42363SOL     OW29095  11.000   7.688   5.730 -0.2221  0.0571  0.5478
42363SOL    HW129096  10.948   7.625   5.681  0.7759 -1.3832  1.2726
42363SOL    HW229097  11.078   7.702   5.676  0.1352 -0.3044  0.9598
42364SOL     OW29098   2.814   3.461   5.098 -0.3468 -0.7419  0.1181
42364SOL    HW129099   2.886   3.460   5.035  0.6654 -2.0497  1.2151
42364SOL    HW229100   2.777   3.373   5.093 -0.0317 -0.9813  1.5495
42365SOL     OW29101   5.460   6.877   7.631 -0.8237  0.0587 -0.1858
42365SOL    HW129102   5.435   6.852   7.543  0.5974 -1.6423 -0.1572
42365SOL    HW229103   5.526   6.946   7.619 -0.6800 -0.1243 -0.4484
42366SOL     OW29104   1.925   7.703   7.905 -0.0989 -0.1195  0.1786
42366SOL    HW129105   1.844   7.691   7.955 -1.2692 -1.0031 -1.8171
42366SOL    HW229106   1.907   7.661   7.821  2.6343 -0.7891 -0.1456
42367SOL     OW29107   6.619   6.640   7.969 -0.2435 -0.3526  0.2232
42367SOL    HW129108   6.711   6.665   7.961 -0.1636 -0.6868  0.0905
42367SOL    HW229109   6.573   6.724   7.976  0.0614 -0.1801  0.2181
42368SOL     OW29110   1.157   7.251   0.943  0.3092  0.3652 -0.3035
42368SOL    HW129111   1.251   7.233   0.934  0.3167  0.9168 -1.6197
42368SOL    HW229112   1.136   7.306   0.867 -1.1118  0.1490 -0.0955
42369SOL     OW29113   4.961   6.364   4.731 -0.3859  0.0844 -0.4770
42369SOL    HW129114   4.953   6.392   4.823  1.1187  1.2875 -0.6627
42369SOL    HW229115   4.908   6.428   4.683 -2.2036 -1.2856 -0.3823
42370SOL     OW29116   8.065   9.765   8.437  0.5698 -0.4766 -0.1787
42370SOL    HW129117   8.013   9.836   8.400 -1.3047  0.5377  3.8467
42370SOL    HW229118   8.003   9.713   8.488  2.7136 -2.1210  0.9385
42371SOL     OW29119   7.872   6.418   3.393 -0.2072 -0.5615 -0.0175
42371SOL    HW129120   7.792   6.388   3.350 -0.5084  0.4907 -0.2105
42371SOL    HW229121   7.942   6.393   3.333 -0.7156  2.0890 -1.8466
42372SOL     OW29122   0.707   1.520   0.903 -0.5382 -0.2528 -0.1696
42372SOL    HW129123   0.760   1.483   0.973  0.7129  0.9303 -0.4421
42372SOL    HW229124   0.692   1.447   0.843  1.4622 -0.4715 -0.4692
42373SOL     OW29125   4.023   8.969   5.198 -0.3624  0.0221  0.6701
42373SOL    HW129126   4.071   8.962   5.116 -0.0113  0.4357  0.8348
42373SOL    HW229127   3.933   8.943   5.176  0.1132 -1.6279  0.5582
42374SOL     OW29128   5.605   7.489   9.019  0.2904  0.4118  1.1811
42374SOL    HW129129   5.692   7.531   9.021 -0.2119  1.5183  0.4947
42374SOL    HW229130   5.544   7.560   9.040 -0.5632 -0.0333  0.2762
42375SOL     OW29131   5.458   3.574   1.501 -0.2625 -0.1659  0.3844
42375SOL    HW129132   5.478   3.480   1.496  1.8258  0.1847  1.1117
42375SOL    HW229133   5.508   3.613   1.429  0.3920  0.6039  1.2502
42376SOL     OW29134   8.949  10.462   2.583 -0.3592 -0.4995  0.2414
42376SOL    HW129135   8.977  10.374   2.558  0.8861 -0.1710  0.4035
42376SOL    HW229136   8.925  10.504   2.501  0.8158 -0.3998 -0.0615
42377SOL     OW29137   3.841   2.222   4.640  0.5773 -0.0861  0.0895
42377SOL    HW129138   3.846   2.315   4.617 -0.3379 -0.1769 -0.5357
42377SOL    HW229139   3.786   2.183   4.572  0.7007 -1.0320  0.5132
42378SOL     OW29140   0.623   2.590   3.006 -0.6829 -0.0985 -0.4128
42378SOL    HW129141   0.620   2.523   2.937  0.7519 -0.0281 -0.5704
42378SOL    HW229142   0.660   2.667   2.963  0.8131 -0.2448  0.5613
42379SOL     OW29143   5.588   1.485   4.085  0.3799 -0.1673  0.1860
42379SOL    HW129144   5.495   1.468   4.067  0.3549 -1.1158  1.0966
42379SOL    HW229145   5.632   1.470   4.002 -0.4907  2.2910 -0.7984
42380SOL     OW29146   0.503  10.014   1.995 -0.4280  0.0111 -0.4973
42380SOL    HW129147   0.506   9.944   2.059  1.4225 -1.1093 -1.7297
42380SOL    HW229148   0.582  10.066   2.011 -0.1800 -0.0118 -1.5374
42381SOL     OW29149   6.609   4.480   4.639 -0.3424 -0.0277  0.7035
42381SOL    HW129150   6.640   4.430   4.562  2.0818 -1.8574  2.6755
42381SOL    HW229151   6.522   4.445   4.656  0.4700 -2.2152  0.7868
42382SOL     OW29152   7.766   2.721   5.311  0.3960  0.5270 -0.0321
42382SOL    HW129153   7.820   2.792   5.275  1.3203 -0.1259  0.0271
42382SOL    HW229154   7.740   2.670   5.235 -1.4758  1.6908 -0.2488
42383SOL     OW29155   8.844   6.088   1.891 -0.0104 -0.0340  0.1424
42383SOL    HW129156   8.937   6.073   1.903  0.7379  2.6292 -1.4860
42383SOL    HW229157   8.824   6.161   1.951 -0.9120 -0.2179  0.0749
42384SOL     OW29158   8.382   4.481   4.853 -0.3416 -0.2278 -0.2365
42384SOL    HW129159   8.307   4.423   4.865 -1.7043  1.0760 -2.0832
42384SOL    HW229160   8.434   4.440   4.784  0.0133 -0.4830  0.1728
42385SOL     OW29161   8.517   3.544  10.208  0.4862  0.2867 -0.0655
42385SOL    HW129162   8.509   3.620  10.150 -0.6709  1.3764  1.4642
42385SOL    HW229163   8.491   3.576  10.294 -0.0768 -1.8708  0.6226
42386SOL     OW29164   9.813   8.059   1.846  0.3061 -0.5921 -0.8100
42386SOL    HW129165   9.754   7.984   1.851 -0.3577 -0.0710 -0.6009
42386SOL    HW229166   9.762   8.126   1.801  0.5177  0.0730 -0.0806
42387SOL     OW29167   7.822  10.453  10.615  0.0604 -0.3112  0.2147
42387SOL    HW129168   7.881  10.512  10.568  0.7374 -0.2305  1.1165
42387SOL    HW229169   7.746  10.443  10.558 -0.3046  1.8252  0.2487
42388SOL     OW29170   1.414   7.677   7.848 -0.7870  0.5465 -0.2868
42388SOL    HW129171   1.493   7.716   7.811 -1.5546  1.3048 -1.1830
42388SOL    HW229172   1.440   7.649   7.936  1.2397 -1.7882 -1.5004
42389SOL     OW29173   1.004   7.442   8.304 -1.1722  0.2991  0.4141
42389SOL    HW129174   0.937   7.489   8.354 -0.6985  0.2755  1.0917
42389SOL    HW229175   1.070   7.508   8.284  0.4422 -0.3798  3.0214
42390SOL     OW29176   2.808   5.379  10.583  0.0829 -0.2883  0.0959
42390SOL    HW129177   2.769   5.384  10.670  0.8931  1.9065  0.4016
42390SOL    HW229178   2.741   5.335  10.529 -0.3960 -1.7781  1.7846
42391SOL     OW29179   3.328   6.077   2.659  0.2515  0.1596  0.0225
42391SOL    HW129180   3.344   6.057   2.752  0.8648  1.5562  0.2327
42391SOL    HW229181   3.304   6.169   2.658  1.7277  0.5609 -1.3566
42392SOL     OW29182   9.182  10.466   9.002  0.3443 -0.1044  0.8854
42392SOL    HW129183   9.144  10.475   8.915  0.4963 -0.4788  0.7744
42392SOL    HW229184   9.139  10.389   9.039 -1.1253  1.1404  1.9032
42393SOL     OW29185   5.217   8.199   1.262 -0.1975 -0.4714 -0.6068
42393SOL    HW129186   5.260   8.118   1.234 -0.9163 -1.3708  0.8288
42393SOL    HW229187   5.281   8.268   1.241 -0.5878 -1.0075 -4.3044
42394SOL     OW29188   9.074  10.633   6.566  0.0918  0.8108  0.4072
42394SOL    HW129189   9.030  10.634   6.651 -1.2547  0.0664 -0.2495
42394SOL    HW229190   9.004  10.620   6.503  1.1674  0.4867 -0.7633
42395SOL     OW29191   5.437   5.065   4.921 -0.1031  0.3343 -0.0377
42395SOL    HW129192   5.456   4.973   4.942 -1.0061  0.5008  1.7037
42395SOL    HW229193   5.341   5.068   4.914  0.0279  0.5708 -3.2646
42396SOL     OW29194   6.995   8.337   7.240  0.1130  0.2300  0.5512
42396SOL    HW129195   7.038   8.254   7.221 -1.2972 -0.0110 -2.2152
42396SOL    HW229196   7.046   8.402   7.192  0.6559  0.8362  1.9203
42397SOL     OW29197  10.308  10.727   8.422  0.1981 -0.4350 -0.6659
42397SOL    HW129198  10.302  10.703   8.330 -0.1350 -0.3328 -0.6699
42397SOL    HW229199  10.402  10.738   8.438  0.4155 -2.1815 -0.5578
42398SOL     OW29200   8.240   7.788   0.174  0.8706  0.0672  0.3218
42398SOL    HW129201   8.260   7.849   0.244  0.3758  1.2303 -0.5026
42398SOL    HW229202   8.323   7.777   0.127  0.4402  2.3411 -1.1675
42399SOL     OW29203   6.096   1.739  10.008  0.2459  0.0297 -0.4102
42399SOL    HW129204   6.085   1.697  10.093  2.0345  0.6411  0.1781
42399SOL    HW229205   6.152   1.815  10.025  0.4492  0.3160 -2.0847
42400SOL     OW29206   7.845   6.002  10.013 -0.4453 -0.5665 -0.1391
42400SOL    HW129207   7.895   6.009  10.094  0.6454 -1.7369 -0.6660
42400SOL    HW229208   7.895   6.053   9.950 -2.8993  2.9930  0.5317
42401SOL     OW29209   2.709   6.194   3.121  0.3454  0.0708 -0.2985
42401SOL    HW129210   2.743   6.105   3.125 -0.1171 -0.0882  0.2930
42401SOL    HW229211   2.632   6.189   3.065  0.0782  0.0091  0.0670
42402SOL     OW29212   0.696   0.447   9.119 -0.1274 -0.0502  0.0393
42402SOL    HW129213   0.699   0.402   9.035 -0.6767 -0.8466  0.4267
42402SOL    HW229214   0.664   0.534   9.099  2.0784  0.6049 -0.8848
42403SOL     OW29215   7.548   5.356   6.801  0.1598 -0.6877 -0.8863
42403SOL    HW129216   7.497   5.285   6.761 -0.0590 -0.7137 -0.5587
42403SOL    HW229217   7.483   5.412   6.844  0.4257 -0.8597 -0.2537
42404SOL     OW29218   9.599   0.972   4.192 -0.1582  0.1986  0.1352
42404SOL    HW129219   9.668   0.953   4.127 -0.4392 -2.1114  0.4310
42404SOL    HW229220   9.647   1.007   4.267  0.5238  0.0610 -0.2212
42405SOL     OW29221   3.019   2.815  10.320  0.3235  0.0622 -0.1055
42405SOL    HW129222   3.106   2.775  10.312  0.3649 -0.0513  0.8757
42405SOL    HW229223   3.014   2.875  10.245  1.2764  0.1255 -0.1319
42406SOL     OW29224   8.638   0.172   5.109  0.0318 -0.5890 -0.0986
42406SOL    HW129225   8.626   0.167   5.203  0.3283  3.1228  0.2877
42406SOL    HW229226   8.560   0.219   5.078 -0.4313 -2.3885 -1.8671
42407SOL     OW29227   7.353   6.519  10.046 -0.3539 -0.2421  0.4748
42407SOL    HW129228   7.292   6.567  10.102 -2.3840  1.1238 -2.6076
42407SOL    HW229229   7.385   6.585   9.984 -0.9581 -2.2109 -2.1015
42408SOL     OW29230   0.400   8.068   2.600 -0.1697 -0.2237 -0.4374
42408SOL    HW129231   0.409   8.131   2.529 -1.5530 -0.3136 -0.7288
42408SOL    HW229232   0.406   7.983   2.557  1.7783 -0.3242 -0.0334
42409SOL     OW29233   4.652   3.735   0.007 -0.2551  0.5264 -0.6562
42409SOL    HW129234   4.582   3.740   0.071  1.4304  2.2513  1.2176
42409SOL    HW229235   4.644   3.816  -0.044  2.3850  2.7574  2.0487
42410SOL     OW29236   9.240   4.890   9.822 -0.0141 -0.9656  0.4814
42410SOL    HW129237   9.167   4.896   9.883 -0.5703  0.0924 -0.2653
42410SOL    HW229238   9.300   4.958   9.851 -1.0809  0.7525 -1.1556
42411SOL     OW29239   3.306  10.073   0.075  0.0572 -0.1720  0.0347
42411SOL    HW129240   3.321  10.166   0.054 -0.0082 -0.1917 -0.1038
42411SOL    HW229241   3.273  10.074   0.165 -0.6033 -0.0013 -0.1980
42412SOL     OW29242   1.998   4.148   3.971 -0.1319  0.0483 -0.9378
42412SOL    HW129243   2.057   4.115   3.903  0.9165 -1.9507  0.8235
42412SOL    HW229244   1.912   4.117   3.945  0.4935 -2.1247 -0.5611
42413SOL     OW29245   9.204   1.142   6.519  0.6204 -0.1985 -0.4697
42413SOL    HW129246   9.217   1.073   6.585  1.0067  0.9289  0.6973
42413SOL    HW229247   9.202   1.096   6.436  2.1504 -1.5053  0.1597
42414SOL     OW29248   3.063   4.387   6.058  0.4339 -0.0286  0.2338
42414SOL    HW129249   3.051   4.301   6.018  1.9605 -0.2360  0.1843
42414SOL    HW229250   2.977   4.409   6.094  0.2438 -1.9839  1.0858
42415SOL     OW29251  10.707   7.539   7.519 -0.0304  0.1552  0.0057
42415SOL    HW129252  10.624   7.528   7.566  1.0710  0.0172  2.0334
42415SOL    HW229253  10.772   7.499   7.576  1.4195 -0.0627 -1.7059
42416SOL     OW29254   4.499   8.064   2.587  0.2852  0.4636  0.4763
42416SOL    HW129255   4.501   8.081   2.493 -1.2596  2.9353  0.7887
42416SOL    HW229256   4.575   8.111   2.622 -0.2851  1.3054  0.6324
42417SOL     OW29257   4.192   8.805   9.756  0.3364  0.1347  0.4037
42417SOL    HW129258   4.106   8.769   9.733 -0.6693  1.2285  2.2302
42417SOL    HW229259   4.178   8.900   9.759  1.4150  0.2779  1.5109
42418SOL     OW29260   5.073  10.087   9.633 -0.0294 -0.0280  0.2308
42418SOL    HW129261   5.157  10.105   9.676 -0.5571 -0.4340  1.4688
42418SOL    HW229262   5.057   9.994   9.649 -1.2553  0.2937  0.9862
42419SOL     OW29263   0.895   6.906   4.264 -0.1116  0.1356 -0.1078
42419SOL    HW129264   0.972   6.909   4.320  0.9594 -0.1186 -1.5177
42419SOL    HW229265   0.927   6.873   4.180 -1.9012 -0.7492 -0.5077
42420SOL     OW29266   6.807   6.838   0.752 -0.1383 -0.1923  0.2901
42420SOL    HW129267   6.743   6.909   0.748 -0.8112 -0.7943  0.0307
42420SOL    HW229268   6.755   6.762   0.779  0.2775 -0.8982 -0.8379
42421SOL     OW29269   3.681   1.741   6.058  0.4936  0.7265 -0.0769
42421SOL    HW129270   3.610   1.719   6.119 -0.9994  0.4607 -1.8348
42421SOL    HW229271   3.736   1.663   6.056  1.4086  1.2433  1.9608
42422SOL     OW29272   9.570   7.041   5.697 -0.1775 -0.2160  0.2623
42422SOL    HW129273   9.569   6.953   5.659 -1.1690  0.3327 -1.0696
42422SOL    HW229274   9.479   7.056   5.724 -0.0448  0.4648  0.3372
42423SOL     OW29275   1.229   9.800   4.486 -0.0383  0.1360  0.3164
42423SOL    HW129276   1.315   9.842   4.486 -0.2756  0.7394 -1.6588
42423SOL    HW229277   1.248   9.706   4.491  0.6635  0.3130  1.1579
42424SOL     OW29278   6.096   3.494   1.336 -0.2566  0.8008  0.0749
42424SOL    HW129279   6.120   3.564   1.397  0.3079  0.9652 -0.3277
42424SOL    HW229280   6.177   3.476   1.288 -0.8368  1.0867 -1.0483
42425SOL     OW29281   0.977   0.925   9.052  0.1076 -0.1625  0.0473
42425SOL    HW129282   1.031   0.857   9.093 -0.1266 -0.8085 -0.6926
42425SOL    HW229283   1.040   0.985   9.012  0.3039 -0.1544  0.3636
42426SOL     OW29284   2.063   6.009   5.578  0.3432 -0.1312  0.0624
42426SOL    HW129285   2.152   6.044   5.576  0.3082 -0.0693 -0.5402
42426SOL    HW229286   2.007   6.085   5.595  0.4394 -0.2488  0.9543
42427SOL     OW29287   6.557   6.404   2.980  0.0677  0.1651  0.3905
42427SOL    HW129288   6.529   6.341   3.047 -0.5617 -0.4401 -0.4196
42427SOL    HW229289   6.613   6.353   2.922 -1.0550  0.1274 -0.7013
42428SOL     OW29290   9.151  10.122   4.593  0.2296 -0.0868 -0.1026
42428SOL    HW129291   9.128  10.191   4.531 -1.2600  0.0147  0.5127
42428SOL    HW229292   9.222  10.159   4.645  0.9056  0.1501 -1.1580
42429SOL     OW29293   8.886  10.661   1.581  0.4118 -0.0345  0.0303
42429SOL    HW129294   8.909  10.568   1.586 -0.3291 -0.1681  1.4480
42429SOL    HW229295   8.794  10.661   1.554  0.7173  0.3453 -1.0618
42430SOL     OW29296   5.154   8.579   3.810  0.1087 -0.0939 -0.5723
42430SOL    HW129297   5.110   8.664   3.810 -1.5036 -0.8533  0.5949
42430SOL    HW229298   5.247   8.599   3.805 -0.0402  1.9028  2.3996
42431SOL     OW29299  10.897   4.434   5.897 -0.2208  0.2123  0.1667
42431SOL    HW129300  10.964   4.478   5.950  0.6741  0.3790 -1.0638
42431SOL    HW229301  10.814   4.462   5.936  0.3514  2.0085  0.2177
42432SOL     OW29302   5.581   2.900   9.359  0.4549 -0.4022 -0.0663
42432SOL    HW129303   5.670   2.876   9.335 -0.0891 -1.6037 -1.0429
42432SOL    HW229304   5.590   2.957   9.435  2.0206 -0.9587  0.1923
42433SOL     OW29305   6.838   6.322   7.371 -0.2816  0.5415 -0.2522
42433SOL    HW129306   6.853   6.228   7.382  1.4973  1.0189  2.3448
42433SOL    HW229307   6.761   6.341   7.424  0.9938  0.9080  1.5636
42434SOL     OW29308   4.717   0.565   0.110 -0.1157  0.3544 -0.3233
42434SOL    HW129309   4.650   0.604   0.053 -1.3816  0.9389  1.4545
42434SOL    HW229310   4.762   0.641   0.147  1.3095 -0.0350 -1.1975
42435SOL     OW29311   5.505   4.601   2.059 -0.9692  0.6048  0.3194
42435SOL    HW129312   5.586   4.557   2.034 -1.9395 -0.6683 -0.7689
42435SOL    HW229313   5.522   4.694   2.040 -0.1350  0.2272 -0.9906
42436SOL     OW29314   9.650   5.242   0.465 -0.4297  0.7494  0.0645
42436SOL    HW129315   9.721   5.179   0.454  0.9284  2.3091 -0.4052
42436SOL    HW229316   9.601   5.210   0.541  0.0938 -0.9597 -0.2807
42437SOL     OW29317   4.333  10.189   6.310  0.1433  0.0640  0.4243
42437SOL    HW129318   4.413  10.242   6.319 -0.0769  0.4273  0.2523
42437SOL    HW229319   4.318  10.155   6.398  0.4314  0.0762  0.4814
42438SOL     OW29320   4.119   6.787   2.070 -0.3764 -0.3063  0.1913
42438SOL    HW129321   4.089   6.726   2.136  0.5360 -0.9329  0.0422
42438SOL    HW229322   4.144   6.866   2.118 -2.0002  0.1594  0.3391
42439SOL     OW29323   5.092   8.096   6.213  0.0295  0.1169  0.5935
42439SOL    HW129324   5.096   8.068   6.121 -1.4276  1.5216  0.0427
42439SOL    HW229325   5.148   8.173   6.216  0.9817 -0.5800  1.1826
42440SOL     OW29326   3.062   0.223   4.623  0.5610  0.6750  0.4725
42440SOL    HW129327   3.100   0.149   4.669 -0.4339 -0.6825 -0.7651
42440SOL    HW229328   3.132   0.255   4.566  0.4686 -0.5500 -0.3659
42441SOL     OW29329   8.591   6.943   0.181  0.2585  0.0774 -0.0812
42441SOL    HW129330   8.568   6.852   0.198 -0.8608  0.5221  1.0851
42441SOL    HW229331   8.622   6.945   0.091 -0.6276 -1.2968 -0.4467
42442SOL     OW29332  10.687   9.235   1.275  0.4851  0.0048 -0.0351
42442SOL    HW129333  10.700   9.144   1.247  1.4423  0.2732 -0.5022
42442SOL    HW229334  10.592   9.247   1.272  0.3900 -0.7753 -0.6217
42443SOL     OW29335   2.578   8.259   2.090  0.1563 -0.0187  0.2334
42443SOL    HW129336   2.631   8.288   2.164  0.0761 -2.8471  1.5459
42443SOL    HW229337   2.546   8.340   2.049  3.5642  1.7482  0.7297
42444SOL     OW29338   3.734   6.944   7.154 -0.3553 -0.2499  0.1098
42444SOL    HW129339   3.712   7.019   7.098 -0.7928 -0.8591 -0.5410
42444SOL    HW229340   3.715   6.974   7.243  1.3366  1.1070  0.0699
42445SOL     OW29341   1.135   9.515   2.194  0.3225 -0.4266  0.2412
42445SOL    HW129342   1.055   9.491   2.241  0.9080 -0.0370  1.4911
42445SOL    HW229343   1.117   9.602   2.159  0.8529  0.5599  2.2463
42446SOL     OW29344   3.209  10.128   7.414 -0.0222  0.1167  0.3026
42446SOL    HW129345   3.247  10.107   7.329  0.0349  0.2605  0.2922
42446SOL    HW229346   3.117  10.148   7.395 -0.4664 -1.6005  0.5104
42447SOL     OW29347   9.063   2.104   9.077  0.3663  0.2544 -0.3890
42447SOL    HW129348   9.155   2.112   9.104  0.3240 -0.1578 -0.1144
42447SOL    HW229349   9.020   2.062   9.152  0.2519 -0.9589 -1.1152
42448SOL     OW29350   6.231   3.741  10.418  0.3966 -0.5168 -0.2708
42448SOL    HW129351   6.204   3.650  10.428  0.6308 -0.6015 -0.3929
42448SOL    HW229352   6.257   3.748  10.326  0.9214 -0.4748 -0.1200
42449SOL     OW29353   2.597   0.563   6.052  0.5843  0.0607 -0.2940
42449SOL    HW129354   2.609   0.641   6.106 -1.3981 -0.0044  0.3130
42449SOL    HW229355   2.686   0.537   6.028  1.6161  0.0266  3.0247
42450SOL     OW29356   6.602   4.796   2.771 -0.2684 -0.2321 -0.5298
42450SOL    HW129357   6.519   4.827   2.808  0.3358  1.8614 -0.7847
42450SOL    HW229358   6.588   4.798   2.677  0.0590  0.1348 -0.5732
42451SOL     OW29359   7.416   7.780   5.586  0.6897 -0.0100  0.1893
42451SOL    HW129360   7.423   7.821   5.672  0.8219  0.3674  0.0007
42451SOL    HW229361   7.376   7.848   5.531  0.5354 -0.2762 -0.0298
42452SOL     OW29362   7.082   8.060   0.067  0.1919 -0.1948 -0.1527
42452SOL    HW129363   7.041   8.146   0.077  1.6509  0.3656  1.3616
42452SOL    HW229364   7.122   8.063  -0.020  1.5766  1.2952  0.4912
42453SOL     OW29365   3.107   9.384   5.267  0.7752 -0.2171  0.3828
42453SOL    HW129366   3.138   9.294   5.279 -0.2221 -0.5229  0.7608
42453SOL    HW229367   3.083   9.413   5.355  0.5041  0.2044  0.1691
42454SOL     OW29368  10.666   1.654   5.587 -0.4357 -0.2830 -0.5661
42454SOL    HW129369  10.589   1.648   5.642  1.0438  1.8487  1.9719
42454SOL    HW229370  10.692   1.746   5.591  3.1405 -1.1690  0.1054
42455SOL     OW29371  10.268   3.656   6.320  0.0627  0.5247 -0.1358
42455SOL    HW129372  10.212   3.694   6.389  0.1882 -0.9986  0.8361
42455SOL    HW229373  10.246   3.563   6.320 -1.0651  0.7017 -3.2513
42456SOL     OW29374   2.697  10.182   1.831  0.0984  0.3188 -0.2726
42456SOL    HW129375   2.767  10.116   1.837  1.1036  1.4185  0.3967
42456SOL    HW229376   2.666  10.193   1.921  0.3552  1.1975 -0.2849
42457SOL     OW29377   4.341   2.125   2.305  0.8676 -0.1434 -0.1566
42457SOL    HW129378   4.281   2.161   2.240 -0.3435  0.7721  1.3846
42457SOL    HW229379   4.419   2.181   2.299  0.1754  0.8783  0.1699
42458SOL     OW29380   8.253   8.572   5.769  0.4212 -0.0483 -0.2993
42458SOL    HW129381   8.347   8.559   5.772  0.5717  1.1196  0.6205
42458SOL    HW229382   8.238   8.621   5.688  0.5273 -0.7276 -0.7360
42459SOL     OW29383  10.648   7.608   8.825 -0.7116  0.2230 -0.1722
42459SOL    HW129384  10.626   7.530   8.875  0.6886 -0.0585  0.0377
42459SOL    HW229385  10.709   7.656   8.880  0.4894  0.1393 -1.3728
42460SOL     OW29386   2.132   7.205   7.917 -0.2914 -0.6258  0.2226
42460SOL    HW129387   2.090   7.126   7.950 -1.0994 -0.5881 -0.6573
42460SOL    HW229388   2.185   7.237   7.990 -5.0152  1.7038  3.1161
42461SOL     OW29389  10.451   0.439   8.814  0.3317  0.4563  0.8179
42461SOL    HW129390  10.357   0.426   8.803  0.5224  0.3230 -0.9672
42461SOL    HW229391  10.486   0.434   8.725  1.8783  1.6699  1.3221
42462SOL     OW29392   6.263   4.568   5.160  0.1055  0.2820 -0.4165
42462SOL    HW129393   6.254   4.635   5.092 -0.2393  0.9393  0.2579
42462SOL    HW229394   6.173   4.543   5.180  0.0849  1.4030  1.0478
42463SOL     OW29395   8.242   7.602   3.963 -0.2786  0.0870 -0.0588
42463SOL    HW129396   8.209   7.632   3.879  0.3278  1.5794  0.2062
42463SOL    HW229397   8.328   7.565   3.944 -1.2452 -2.0799 -0.4672
42464SOL     OW29398   0.648   0.520  10.681  0.0370  0.1708 -0.4153
42464SOL    HW129399   0.651   0.445  10.622  0.6814 -1.4500  1.5449
42464SOL    HW229400   0.574   0.501  10.739  0.7325  0.5955  0.6392
42465SOL     OW29401   8.377  10.214   5.581  0.0369  0.0339 -0.3021
42465SOL    HW129402   8.283  10.211   5.597 -0.1678 -1.1842 -1.5358
42465SOL    HW229403   8.388  10.286   5.519  0.0696  0.7915  0.5515
42466SOL     OW29404   2.585   6.031   1.320  0.5163 -0.1068 -0.2919
42466SOL    HW129405   2.540   5.971   1.379  1.0198  1.3593  1.6986
42466SOL    HW229406   2.652   5.978   1.278 -0.6717 -1.4809 -0.5586
42467SOL     OW29407  10.675   3.573  11.008  0.1248 -0.0417  0.0228
42467SOL    HW129408  10.584   3.581  11.036 -0.1197 -0.5973 -0.5725
42467SOL    HW229409  10.719   3.649  11.045 -0.5896  0.2498  0.2856
42468SOL     OW29410   6.379   9.281   0.314  0.2267  0.1662  0.5655
42468SOL    HW129411   6.435   9.207   0.337 -0.8755 -0.3412  1.7156
42468SOL    HW229412   6.333   9.303   0.395 -0.6156  1.1112 -0.1444
42469SOL     OW29413   9.230   7.435   6.441 -0.7075 -0.1110 -0.0540
42469SOL    HW129414   9.185   7.483   6.372  0.2216 -1.1758 -1.4467
42469SOL    HW229415   9.182   7.352   6.448 -0.2167 -0.3962 -0.0793
42470SOL     OW29416   6.925   7.939   9.636  0.4229  0.2714  0.1057
42470SOL    HW129417   6.914   7.891   9.718 -0.9915  0.8113  0.2614
42470SOL    HW229418   6.958   7.873   9.574 -0.6498 -0.7021  0.5345
42471SOL     OW29419   8.777   9.699   9.876 -0.2539  0.1354 -0.4563
42471SOL    HW129420   8.758   9.661   9.790  0.3621 -1.5445  0.1004
42471SOL    HW229421   8.869   9.678   9.891  0.2421  2.2214 -0.2317
42472SOL     OW29422   2.120  10.085   8.277 -0.4799 -0.1755  0.2389
42472SOL    HW129423   2.139  10.163   8.330 -0.8868 -1.8182  3.0004
42472SOL    HW229424   2.205  10.058   8.242 -0.2989  1.3121 -0.5552
42473SOL     OW29425   2.010   8.061   4.972 -0.3962  0.6248  0.1242
42473SOL    HW129426   1.995   8.044   5.065  1.6591  0.7161  0.5093
42473SOL    HW229427   2.034   8.153   4.968  0.2516  0.4374 -0.3930
42474SOL     OW29428   5.369   8.803   4.429 -0.2130 -0.5946  0.3055
42474SOL    HW129429   5.322   8.722   4.451  0.5363 -1.1777 -0.1958
42474SOL    HW229430   5.302   8.859   4.390 -0.3441 -1.7348 -1.1824
42475SOL     OW29431   3.083  10.655   6.963  0.1178  0.2046  0.4151
42475SOL    HW129432   2.994  10.627   6.942 -0.3690  1.8774  0.0648
42475SOL    HW229433   3.087  10.651   7.059  0.6765 -2.6605  0.3397
42476SOL     OW29434   2.382   6.105   9.929  0.6731  0.1429  0.0886
42476SOL    HW129435   2.353   6.019   9.898 -0.2309  0.4363  0.0925
42476SOL    HW229436   2.474   6.109   9.905  0.4713 -0.4183 -0.8323
42477SOL     OW29437   0.803   9.189  10.374 -0.0765  0.0236 -0.6476
42477SOL    HW129438   0.839   9.128  10.438 -1.2598 -1.6199 -1.4724
42477SOL    HW229439   0.712   9.200  10.400 -0.5245 -0.5233 -1.9081
42478SOL     OW29440   4.185  10.032   4.700 -0.3377 -0.0443 -0.7216
42478SOL    HW129441   4.160   9.985   4.780 -0.0059  2.5363  1.0234
42478SOL    HW229442   4.114  10.015   4.639 -1.6511 -0.4597  0.8568
42479SOL     OW29443   2.507   0.326   6.848  0.6793  0.2216 -0.0234
42479SOL    HW129444   2.551   0.336   6.932  1.1168  0.0251 -0.2249
42479SOL    HW229445   2.563   0.373   6.786  0.4288  0.2574 -0.2256
42480SOL     OW29446   1.622   7.774   3.653  0.6110 -0.1694  0.3959
42480SOL    HW129447   1.564   7.711   3.695 -0.3921  0.6805  0.3234
42480SOL    HW229448   1.564   7.831   3.603  1.1413  2.5126  2.5688
42481SOL     OW29449   4.369   0.342   9.432  1.2753 -0.2604 -0.0117
42481SOL    HW129450   4.358   0.338   9.337  0.5929  0.4566  0.0307
42481SOL    HW229451   4.427   0.417   9.446  1.6934 -0.5992  0.1268
42482SOL     OW29452   4.969   4.956   8.240  0.0212  0.4457  0.3744
42482SOL    HW129453   5.034   4.886   8.238 -1.1673 -0.6765 -0.8177
42482SOL    HW229454   5.009   5.027   8.189  1.1760  0.6192  1.4721
42483SOL     OW29455   0.456   2.451   6.483 -0.0580 -0.3237 -0.0656
42483SOL    HW129456   0.377   2.444   6.537 -1.2391  3.4452 -0.9936
42483SOL    HW229457   0.442   2.390   6.411 -2.3656  0.4794 -0.3773
42484SOL     OW29458   0.456   7.906   1.442  0.2834 -0.1717 -0.2137
42484SOL    HW129459   0.513   7.844   1.396 -1.3360 -0.7237 -1.5693
42484SOL    HW229460   0.384   7.922   1.382 -1.9217 -0.8281  2.0696
42485SOL     OW29461   9.791   1.639   7.350  0.5189  0.1476 -0.4908
42485SOL    HW129462   9.860   1.659   7.288  1.3651  0.6559  0.5773
42485SOL    HW229463   9.757   1.554   7.322  0.5723  0.5604 -1.8818
42486SOL     OW29464   3.746   9.503   1.771 -0.6408 -0.3719 -0.4136
42486SOL    HW129465   3.709   9.514   1.858 -0.1962 -2.1900  0.0633
42486SOL    HW229466   3.695   9.561   1.715 -3.1870 -1.5832  0.4887
42487SOL     OW29467  10.357   5.594   2.016 -0.1018  0.4172 -0.0833
42487SOL    HW129468  10.315   5.672   1.980 -1.6647  0.0803  0.9159
42487SOL    HW229469  10.287   5.548   2.061  1.1657 -0.6597  0.8698
42488SOL     OW29470   3.007   4.359   1.484 -0.1842 -0.4923  0.0410
42488SOL    HW129471   3.037   4.397   1.567  1.9281  0.1328 -0.9226
42488SOL    HW229472   3.036   4.268   1.488 -1.1109 -0.7790  0.4406
42489SOL     OW29473   7.901   1.754   7.002  0.5495 -0.0441  0.0129
42489SOL    HW129474   7.926   1.723   6.915 -0.6232  0.0467 -0.3758
42489SOL    HW229475   7.829   1.696   7.028 -0.1694  0.9252  0.2337
42490SOL     OW29476   7.751   5.992  10.450  0.2791 -0.0720  0.0809
42490SOL    HW129477   7.700   6.012  10.372  0.0230 -0.6246  0.1014
42490SOL    HW229478   7.816   6.062  10.455  1.5430 -1.0550 -1.6962
42491SOL     OW29479   9.196   4.144   5.591 -0.9487  0.7408 -0.1191
42491SOL    HW129480   9.242   4.073   5.637  1.0876  0.4891 -2.3262
42491SOL    HW229481   9.235   4.224   5.627 -0.2120  0.5810 -0.5264
42492SOL     OW29482   6.670   0.134   0.596  0.2314 -0.2853  0.3035
42492SOL    HW129483   6.741   0.142   0.532  0.7308 -1.3850  0.6879
42492SOL    HW229484   6.639   0.044   0.586 -0.1032 -0.2771  1.1764
42493SOL     OW29485   2.758   2.604   1.753  0.1822 -0.5122 -0.4447
42493SOL    HW129486   2.782   2.644   1.669 -1.4956 -0.7716 -1.0737
42493SOL    HW229487   2.779   2.671   1.818  0.4279  0.1391 -1.1752
42494SOL     OW29488   5.281   1.337   4.565 -0.7240 -0.3998 -0.3536
42494SOL    HW129489   5.205   1.280   4.550 -0.4296 -1.0858  0.6388
42494SOL    HW229490   5.357   1.279   4.556 -0.3710  0.0407 -0.2400
42495SOL     OW29491   9.061   2.456   2.524  0.1962  0.2923  0.0121
42495SOL    HW129492   9.155   2.454   2.540  0.4340  1.0554 -1.2062
42495SOL    HW229493   9.036   2.548   2.533 -0.4255  0.1095  0.2465
42496SOL     OW29494   7.198   2.881   9.712  0.3405  0.4666  0.4810
42496SOL    HW129495   7.187   2.967   9.752 -0.3571  0.8016 -0.4006
42496SOL    HW229496   7.154   2.888   9.628 -0.8545 -1.1344  0.9279
42497SOL     OW29497   1.704   2.548   2.483 -0.0113 -0.0675 -0.2349
42497SOL    HW129498   1.732   2.457   2.471  0.0161  0.1251 -1.8190
42497SOL    HW229499   1.783   2.594   2.509 -0.6090 -1.0009  4.0146
42498SOL     OW29500   3.329   4.389   9.173 -0.9061  0.5508  0.6764
42498SOL    HW129501   3.361   4.367   9.261  2.2297 -0.8141 -0.6244
42498SOL    HW229502   3.378   4.467   9.149  0.4200 -0.6698 -0.8116
42499SOL     OW29503   4.520   1.405   3.657  0.1037 -0.0268 -0.5116
42499SOL    HW129504   4.459   1.474   3.632 -0.0572 -0.3301 -0.9510
42499SOL    HW229505   4.545   1.427   3.747  2.1713  2.1717 -1.4965
42500SOL     OW29506   6.768   3.329   6.102 -0.1884  0.0444 -0.1590
42500SOL    HW129507   6.743   3.419   6.081  0.6020  0.2626 -0.1776
42500SOL    HW229508   6.711   3.275   6.047 -0.9887  0.5144  0.1854
42501SOL     OW29509   0.022   0.012   3.032  0.5058  0.0676 -0.4039
42501SOL    HW129510   0.114   0.032   3.022  0.0683  4.0162  1.5302
42501SOL    HW229511  -0.021   0.055   2.958 -0.0101  1.5699  0.7179
42502SOL     OW29512   3.114   6.666  10.932 -0.0046 -0.2518  0.5516
42502SOL    HW129513   3.037   6.720  10.919 -0.2793 -0.8241 -0.3200
42502SOL    HW229514   3.185   6.727  10.952 -0.6567  0.2818  1.2574
42503SOL     OW29515   1.338   4.063   2.998 -0.7256  0.4682 -0.0797
42503SOL    HW129516   1.401   4.077   2.926 -2.8698 -2.7504 -2.9209
42503SOL    HW229517   1.385   4.008   3.061  0.1124  0.1935 -0.9180
42504SOL     OW29518   6.252   4.065   2.321 -0.0800  0.2479 -0.2909
42504SOL    HW129519   6.332   4.013   2.318  0.2297  0.7408 -0.8410
42504SOL    HW229520   6.263   4.121   2.398  0.1994  0.4610 -0.4846
42505SOL     OW29521   5.701   4.656   2.422 -0.2073  0.5167  0.2417
42505SOL    HW129522   5.638   4.597   2.380 -2.5518  0.8489  3.0009
42505SOL    HW229523   5.656   4.686   2.501  2.7079  2.3999  1.3151
42506SOL     OW29524   2.254   0.727   9.270 -0.1946 -0.1410 -0.4503
42506SOL    HW129525   2.299   0.658   9.318  0.6010 -0.8014 -2.0413
42506SOL    HW229526   2.322   0.791   9.251  0.2561 -1.2164 -3.0032
42507SOL     OW29527   7.057   2.192   2.688  0.5636  0.6881  0.5073
42507SOL    HW129528   7.126   2.204   2.622  0.1861  0.5761  0.0913
42507SOL    HW229529   7.039   2.280   2.719 -0.2738  0.9135 -0.5814
42508SOL     OW29530   7.564   9.619   2.878 -0.4295 -0.4651 -0.0222
42508SOL    HW129531   7.647   9.632   2.832 -0.7161  0.6538 -0.2643
42508SOL    HW229532   7.510   9.569   2.818 -0.0297 -0.9569  0.0239
42509SOL     OW29533   5.657   0.512   1.863 -0.6336  0.3605 -0.6409
42509SOL    HW129534   5.588   0.447   1.871  1.0935 -1.4298  0.8345
42509SOL    HW229535   5.699   0.493   1.779  0.5323 -1.1946  0.2577
42510SOL     OW29536   4.730   3.940   7.169 -0.1876 -0.4115  0.6629
42510SOL    HW129537   4.815   3.968   7.134 -0.3484  1.7888  1.8957
42510SOL    HW229538   4.685   3.902   7.094  1.4742 -0.6662 -0.2613
42511SOL     OW29539   2.743   6.061   4.758 -0.1916 -0.3830  0.0318
42511SOL    HW129540   2.817   6.006   4.734 -0.4332  0.2435 -2.3649
42511SOL    HW229541   2.678   6.001   4.794  0.2367 -1.3883 -0.8571
42512SOL     OW29542   9.783   4.604   3.103  0.1859 -0.4520 -0.2381
42512SOL    HW129543   9.692   4.634   3.100  0.0006 -1.0656 -0.8370
42512SOL    HW229544   9.799   4.565   3.018  1.0814 -0.1788 -0.2118
42513SOL     OW29545   7.458   0.633   0.349 -0.7392  0.0621  0.4077
42513SOL    HW129546   7.440   0.597   0.435 -0.6643 -0.8251  0.0684
42513SOL    HW229547   7.372   0.652   0.312 -0.7773  3.5423  1.8723
42514SOL     OW29548   8.832   4.504   5.989 -0.3224  0.5023  0.4743
42514SOL    HW129549   8.740   4.513   5.962 -0.4696  0.0426  0.7908
42514SOL    HW229550   8.872   4.452   5.919 -0.5117 -0.0074  0.7320
42515SOL     OW29551   0.111   7.213   6.567  0.1595 -0.5824  0.1313
42515SOL    HW129552   0.024   7.176   6.551 -0.2892  0.7368 -0.7614
42515SOL    HW229553   0.137   7.178   6.652 -0.8872 -1.6524  0.0425
42516SOL     OW29554   9.111  10.899  10.453  0.0104 -0.2951  0.8806
42516SOL    HW129555   9.056  10.967  10.491  1.1849  1.0418  0.2862
42516SOL    HW229556   9.164  10.867  10.526 -0.2944 -0.3218  1.0897
42517SOL     OW29557   8.607  11.023   1.383 -1.0410  0.1046  0.6854
42517SOL    HW129558   8.636  11.111   1.360 -2.0930  0.1913 -0.3980
42517SOL    HW229559   8.640  10.968   1.313  1.9915 -0.9102  2.6952
42518SOL     OW29560   6.456   6.145   1.524  0.1203 -0.1687 -0.2239
42518SOL    HW129561   6.365   6.116   1.516  0.2908 -0.9708  0.6081
42518SOL    HW229562   6.463   6.181   1.612  0.0626  1.9979 -1.0336
42519SOL     OW29563   0.760   1.594   1.474 -0.0234 -0.8832  0.0865
42519SOL    HW129564   0.806   1.670   1.511  0.3723 -0.7466 -0.6783
42519SOL    HW229565   0.751   1.614   1.381  1.1424 -2.2692 -0.3705
42520SOL     OW29566   7.513   1.451   7.839  0.1533  0.2865 -0.5730
42520SOL    HW129567   7.439   1.405   7.800 -1.3175  1.2451  0.9287
42520SOL    HW229568   7.489   1.544   7.834 -0.3525  0.4778  2.8185
42521SOL     OW29569   6.347   5.545   2.527  0.3113 -0.6244  0.1402
42521SOL    HW129570   6.275   5.605   2.509 -0.4379 -1.8775 -1.2043
42521SOL    HW229571   6.426   5.599   2.519 -0.3958  0.4353  0.1810
42522SOL     OW29572   0.772   0.247   1.550 -0.4764 -0.2135 -0.5565
42522SOL    HW129573   0.697   0.273   1.496  0.7006 -0.7911 -2.5956
42522SOL    HW229574   0.818   0.329   1.568 -0.5970 -0.0690 -0.8998
42523SOL     OW29575   3.714   9.862   4.306  0.3735  0.1665  0.1269
42523SOL    HW129576   3.753   9.941   4.271  1.1187  0.5546  1.7294
42523SOL    HW229577   3.687   9.812   4.229 -0.1875  1.9886 -0.9148
42524SOL     OW29578   6.786   7.903   8.984  0.4700 -0.1084 -0.3934
42524SOL    HW129579   6.733   7.979   8.962 -0.9436 -1.1905 -0.8264
42524SOL    HW229580   6.797   7.908   9.079 -2.7251 -1.2404  0.1537
42525SOL     OW29581   6.047   6.045   6.930  0.0101 -0.3945 -0.5574
42525SOL    HW129582   5.965   6.012   6.968 -0.7389  3.4568  1.7314
42525SOL    HW229583   6.114   5.986   6.964 -1.1813  0.2289  3.3890
42526SOL     OW29584   5.073   4.902   3.333 -0.1231  0.2237 -0.4738
42526SOL    HW129585   5.034   4.907   3.246  1.9474  0.9563 -1.4198
42526SOL    HW229586   5.030   4.972   3.383 -1.3647 -0.2420 -0.8505
42527SOL     OW29587   3.459   7.844   1.410  0.2288 -0.5420  0.1024
42527SOL    HW129588   3.396   7.777   1.385 -1.3626  0.8052  0.2692
42527SOL    HW229589   3.405   7.916   1.444  1.8238  0.9121 -0.2673
42528SOL     OW29590   0.327  10.538   8.572 -0.1261  0.0259 -0.2718
42528SOL    HW129591   0.380  10.477   8.624  1.1451  1.1146 -0.2199
42528SOL    HW229592   0.257  10.484   8.535  0.7856 -1.4049  0.0049
42529SOL     OW29593   5.696   1.834   5.257 -0.2829 -0.0987 -0.7620
42529SOL    HW129594   5.619   1.865   5.306  0.0875 -0.5954  0.1590
42529SOL    HW229595   5.673   1.744   5.234 -0.7721  0.3679 -2.2010
42530SOL     OW29596   7.186  10.498  10.679 -0.2701  0.2716  0.4560
42530SOL    HW129597   7.111  10.465  10.629 -0.5186  0.0319  0.9732
42530SOL    HW229598   7.196  10.435  10.751 -0.8826  1.3915  1.5874
42531SOL     OW29599  10.037   6.838   3.179  0.1507  0.0995 -0.8058
42531SOL    HW129600  10.109   6.829   3.115  1.0780 -1.8197  0.4204
42531SOL    HW229601  10.068   6.905   3.240 -0.5966  1.6978 -2.0919
42532SOL     OW29602   7.932   1.810   4.253 -0.2810  0.3852  0.4026
42532SOL    HW129603   7.883   1.789   4.173 -0.8551  1.1007  0.5578
42532SOL    HW229604   7.923   1.905   4.262  0.4883  0.4212  0.8668
42533SOL     OW29605   4.318   5.473   7.772 -0.2797  0.3302  0.1045
42533SOL    HW129606   4.239   5.432   7.807 -0.0964 -1.5447 -1.4852
42533SOL    HW229607   4.374   5.399   7.747  0.6908  1.5615 -1.5689
42534SOL     OW29608   7.340   5.615   1.711  0.0350 -0.1436 -0.4265
42534SOL    HW129609   7.282   5.689   1.690 -0.0848 -0.1165 -0.0090
42534SOL    HW229610   7.405   5.652   1.771  0.3953 -0.2122 -0.7667
42535SOL     OW29611   6.454   2.682   9.886  0.2480 -0.5895 -0.3679
42535SOL    HW129612   6.403   2.763   9.888  1.1765  0.0184 -0.3044
42535SOL    HW229613   6.495   2.681   9.800 -0.8871 -1.7450 -0.9225
42536SOL     OW29614   7.525  10.140  10.913  0.4157 -0.1734 -0.1590
42536SOL    HW129615   7.574  10.217  10.940  0.6412 -0.3514 -0.0563
42536SOL    HW229616   7.481  10.167  10.832 -0.8922  0.6074  0.7896
42537SOL     OW29617  10.121   8.182   3.067  1.0285  0.4742 -0.0263
42537SOL    HW129618  10.188   8.170   3.001  0.3696 -1.5803 -0.3725
42537SOL    HW229619  10.040   8.194   3.018  0.2607 -2.6637  0.3062
42538SOL     OW29620   7.160   7.565   9.717 -0.4975  0.5158 -0.2693
42538SOL    HW129621   7.190   7.641   9.766 -1.4523  0.4932  0.3730
42538SOL    HW229622   7.075   7.543   9.756 -0.6683 -0.3016 -1.0687
42539SOL     OW29623   6.479   6.864   0.284 -0.2971  0.4761 -0.5190
42539SOL    HW129624   6.410   6.896   0.226 -0.4435  1.7258  0.2925
42539SOL    HW229625   6.514   6.787   0.240 -2.0963 -0.0901 -1.0258
42540SOL     OW29626  10.747   6.552   3.329  0.2698  0.4528  0.8066
42540SOL    HW129627  10.682   6.582   3.266 -0.0162 -0.3918  0.6783
42540SOL    HW229628  10.703   6.559   3.414 -0.6105 -1.6010  0.5846
42541SOL     OW29629   5.654   1.037   5.951 -0.7131  0.1049  0.7267
42541SOL    HW129630   5.653   1.131   5.933  0.7092 -0.2479 -1.6795
42541SOL    HW229631   5.747   1.013   5.945 -1.2274 -1.7503 -0.6242
42542SOL     OW29632   0.839   8.689   8.053  0.5676 -0.2359 -0.0839
42542SOL    HW129633   0.890   8.686   8.134  0.7342  1.0138 -0.1282
42542SOL    HW229634   0.753   8.721   8.080  1.1064  1.7672 -0.5975
42543SOL     OW29635   6.518   4.971   1.677 -0.1427 -0.3496  0.2238
42543SOL    HW129636   6.508   5.024   1.757 -0.6929 -0.5400  0.2877
42543SOL    HW229637   6.455   5.008   1.616  1.2002  0.6595 -0.6075
42544SOL     OW29638   0.072   8.913   1.510  0.2817  0.1721 -0.3258
42544SOL    HW129639  -0.002   8.943   1.457 -2.7648 -0.8324  2.9258
42544SOL    HW229640   0.078   8.819   1.491  0.0702  0.0725  0.0847
42545SOL     OW29641   1.026   1.576   9.315 -0.3689 -0.2121  0.5041
42545SOL    HW129642   0.997   1.551   9.227 -3.2519 -1.1075  1.5849
42545SOL    HW229643   1.071   1.498   9.348  0.7393  0.1328 -0.1203
42546SOL     OW29644   0.961   4.461  10.119  0.2525  0.4379  0.2111
42546SOL    HW129645   0.965   4.514  10.198  0.4174 -2.2728  2.1393
42546SOL    HW229646   0.869   4.435  10.112 -0.1236  1.9743 -1.5197
42547SOL     OW29647   5.377   4.883   3.850 -0.7332 -0.2559 -0.5574
42547SOL    HW129648   5.313   4.816   3.874 -3.3633  1.5540 -1.9214
42547SOL    HW229649   5.410   4.855   3.765  1.2947 -1.7725  0.6395
42548SOL     OW29650   1.351   4.055   3.758 -0.6900  0.3141  0.0727
42548SOL    HW129651   1.308   4.118   3.700  0.4796 -0.0530 -1.2574
42548SOL    HW229652   1.418   4.015   3.703  0.7455  0.2268  1.8095
42549SOL     OW29653   7.040   1.294   4.432  0.2787 -0.2934  0.4146
42549SOL    HW129654   7.044   1.277   4.338 -0.6610  0.7506  0.1669
42549SOL    HW229655   7.018   1.387   4.439 -0.0379 -0.4446  1.6637
42550SOL     OW29656   7.649   8.741   4.374 -0.1985  0.3103 -0.0043
42550SOL    HW129657   7.719   8.683   4.405 -0.4549 -0.0375 -0.0746
42550SOL    HW229658   7.592   8.685   4.323  0.9336  1.1187 -2.2832
42551SOL     OW29659   5.035   3.249   2.755  0.0427  0.4649 -0.0697
42551SOL    HW129660   5.005   3.262   2.845 -0.1440 -0.6364  0.0439
42551SOL    HW229661   5.128   3.270   2.757  0.9987 -3.1270  1.3052
42552SOL     OW29662   4.162  10.566   5.561  0.0530  0.7058  0.2855
42552SOL    HW129663   4.121  10.652   5.557 -1.3142  0.1193  1.1404
42552SOL    HW229664   4.238  10.579   5.618  0.6260  1.6191 -0.6504
42553SOL     OW29665   7.181   2.975   3.451  0.3432  0.3836 -0.2578
42553SOL    HW129666   7.155   3.027   3.375  0.5740 -0.3902 -0.8826
42553SOL    HW229667   7.119   3.000   3.519  0.1009  1.0583 -0.7086
42554SOL     OW29668   0.443   5.065   7.334  0.0110 -0.1832  0.0643
42554SOL    HW129669   0.376   5.013   7.380 -1.9344  1.4285 -0.7583
42554SOL    HW229670   0.454   5.020   7.250  0.3781 -0.7550  0.4109
42555SOL     OW29671   0.736   5.709   0.561  0.6693 -0.0071  0.1159
42555SOL    HW129672   0.645   5.737   0.555  0.6363  0.1164  1.0587
42555SOL    HW229673   0.735   5.635   0.622  0.9059 -1.4375 -1.5317
42556SOL     OW29674   2.741   8.171   5.966  0.4108  0.1336 -0.2593
42556SOL    HW129675   2.721   8.226   5.891 -0.3216  1.1071  0.6131
42556SOL    HW229676   2.817   8.214   6.007  0.9940 -0.5578 -0.5894
42557SOL     OW29677   1.185   3.574   4.635 -0.4108 -0.3624 -0.1614
42557SOL    HW129678   1.135   3.642   4.589 -0.4395  0.2163  0.6979
42557SOL    HW229679   1.238   3.623   4.698  0.6182 -1.0358 -0.4753
42558SOL     OW29680  10.558   9.678   8.432 -0.2854  0.1651 -0.6267
42558SOL    HW129681  10.530   9.759   8.390 -1.2236  0.6671  0.8933
42558SOL    HW229682  10.524   9.608   8.376  0.1252  0.7908 -1.6931
42559SOL     OW29683   5.240  10.045   0.622  0.4422 -0.1079  0.5568
42559SOL    HW129684   5.166  10.094   0.586  0.0094 -1.8303 -1.0075
42559SOL    HW229685   5.304  10.113   0.643 -0.8365  1.2821  0.2159
42560SOL     OW29686   3.989   7.016   6.340 -0.0306 -0.1140  0.4999
42560SOL    HW129687   4.069   7.013   6.393  0.1368  2.1237  0.4448
42560SOL    HW229688   4.004   7.085   6.276 -1.8733  0.1306  0.2659
42561SOL     OW29689   2.929   0.172  10.985 -0.1879  0.0287 -0.2675
42561SOL    HW129690   2.988   0.102  11.013 -1.4885 -0.9598  0.1149
42561SOL    HW229691   2.922   0.228  11.062 -0.5926 -0.4547  0.0532
42562SOL     OW29692   6.040   9.367   7.067 -0.6518  0.5659  0.3663
42562SOL    HW129693   5.962   9.312   7.065  0.5660 -1.2506  0.1366
42562SOL    HW229694   6.054   9.392   6.976  2.0650 -3.8301 -0.7390
42563SOL     OW29695   6.269   2.909   0.930 -0.0766 -0.3100  0.0617
42563SOL    HW129696   6.347   2.921   0.874 -0.0691  0.8342  0.2954
42563SOL    HW229697   6.216   2.988   0.914 -0.7226 -0.6197  0.6430
42564SOL     OW29698   5.487   7.384  10.222  0.6249 -0.0353 -0.2020
42564SOL    HW129699   5.496   7.428  10.138 -0.5869  2.5222  0.9172
42564SOL    HW229700   5.564   7.413  10.272  0.9983 -1.0363 -0.1588
42565SOL     OW29701   0.473   8.611   8.759  0.2884  0.3591  0.3349
42565SOL    HW129702   0.506   8.522   8.746 -0.2186 -0.0319  1.6150
42565SOL    HW229703   0.485   8.628   8.853 -0.8330  1.1439  0.3543
42566SOL     OW29704   6.080   2.951   9.758 -0.0108  0.0388  0.3823
42566SOL    HW129705   6.027   2.939   9.679 -0.8159 -0.4714  0.9793
42566SOL    HW229706   6.043   3.028   9.800  1.0959  0.9436 -0.2504
42567SOL     OW29707   3.419   1.230   0.047 -0.2265  0.3424 -0.0776
42567SOL    HW129708   3.439   1.156  -0.011  0.7155  0.7492 -0.2863
42567SOL    HW229709   3.384   1.297  -0.011  1.2444  0.9573 -0.2911
42568SOL     OW29710  10.177   2.283  10.032  0.5414 -0.6656  0.0736
42568SOL    HW129711  10.260   2.294  10.078  0.7919  0.6294 -0.6389
42568SOL    HW229712  10.110   2.285  10.101  1.0680 -1.5733  0.6345
42569SOL     OW29713   4.833   4.321   6.968 -0.1299 -0.2635 -0.1205
42569SOL    HW129714   4.826   4.232   6.935  1.9803  0.0433 -1.5939
42569SOL    HW229715   4.911   4.321   7.024 -0.7756  0.4121  0.8201
42570SOL     OW29716   8.914  10.367   6.964  0.5374  0.4678 -0.4062
42570SOL    HW129717   8.859  10.407   7.031 -0.0629 -0.8211 -0.0978
42570SOL    HW229718   8.976  10.313   7.013  1.1354  0.7553 -0.8299
42571SOL     OW29719   3.115   3.518   2.530  0.1076  0.3153  0.4216
42571SOL    HW129720   3.166   3.538   2.609 -0.5096 -0.1919  0.9650
42571SOL    HW229721   3.173   3.540   2.458  0.5503  1.1633  1.0093
42572SOL     OW29722   2.928   0.141   9.701 -0.3425 -0.0960 -0.3467
42572SOL    HW129723   2.888   0.058   9.677  0.9756 -0.6585 -0.6385
42572SOL    HW229724   2.992   0.158   9.632 -0.4352  1.0503 -0.1697
42573SOL     OW29725   5.095   4.541  11.003  0.0495 -0.1701  0.2979
42573SOL    HW129726   5.025   4.497  11.051  0.3055 -0.6048  0.2689
42573SOL    HW229727   5.062   4.631  10.991 -0.3661 -0.2844  0.5598
42574SOL     OW29728   4.931   9.351   1.657 -0.8099  0.2277  0.5267
42574SOL    HW129729   4.984   9.364   1.579  0.0762  1.7636  1.3324
42574SOL    HW229730   4.863   9.418   1.652 -0.6772  0.4170  1.1072
42575SOL     OW29731   9.978   6.221   6.420  0.5986  0.1236 -0.7148
42575SOL    HW129732   9.922   6.292   6.390  2.0186  0.7090 -2.0701
42575SOL    HW229733  10.065   6.260   6.429  1.1703 -1.1670 -0.3568
42576SOL     OW29734   5.144   4.955   2.586 -0.8334  0.2985 -0.0723
42576SOL    HW129735   5.168   5.023   2.523  0.4258 -0.8398 -0.8858
42576SOL    HW229736   5.106   4.885   2.532 -1.1190 -0.0760  0.6114
42577SOL     OW29737   8.794   9.024  10.589 -0.5457 -0.6247 -0.1531
42577SOL    HW129738   8.783   8.996  10.498  0.3421 -0.6000 -0.2732
42577SOL    HW229739   8.842   9.107  10.583 -0.0098 -0.8911  0.3538
42578SOL     OW29740   6.035   7.899   2.543  0.2040  0.1885 -0.1499
42578SOL    HW129741   6.002   7.987   2.526 -1.2897 -0.1467  0.8721
42578SOL    HW229742   6.077   7.873   2.460 -1.0796  1.0956 -1.1254
42579SOL     OW29743   0.711   4.397  10.348 -0.0429  0.0852  0.3206
42579SOL    HW129744   0.792   4.446  10.362 -0.7351  0.8071  2.0552
42579SOL    HW229745   0.649   4.434  10.411 -2.3011  0.7763 -2.1728
42580SOL     OW29746   3.818   1.114   2.763 -0.1010 -0.0448 -0.2397
42580SOL    HW129747   3.884   1.066   2.713  1.2767  1.9212 -0.4116
42580SOL    HW229748   3.850   1.113   2.853  1.1287  2.2656 -0.5611
42581SOL     OW29749   1.266   5.356   3.617 -0.4224 -0.0304  0.1574
42581SOL    HW129750   1.175   5.382   3.603 -0.3013 -0.7762 -2.4909
42581SOL    HW229751   1.282   5.374   3.710 -2.5511  2.2436  0.1857
42582SOL     OW29752   2.446   3.444   9.266  0.0456 -0.1715  0.1084
42582SOL    HW129753   2.510   3.504   9.305 -0.8509  2.1613 -1.7444
42582SOL    HW229754   2.363   3.469   9.306 -0.0510 -1.9317  1.1252
42583SOL     OW29755  10.721   6.565   1.452 -0.4575 -0.0046 -0.4579
42583SOL    HW129756  10.644   6.584   1.507 -1.6530  0.0362 -2.0729
42583SOL    HW229757  10.725   6.638   1.391  1.1234  0.1727 -0.1861
42584SOL     OW29758   8.613   6.592   7.282 -0.1980  0.0116 -0.2360
42584SOL    HW129759   8.634   6.560   7.194 -0.0375 -1.0510  0.1674
42584SOL    HW229760   8.679   6.551   7.338 -1.0520 -0.3179  0.5483
42585SOL     OW29761   3.266   8.057   0.115 -0.2172 -0.0466 -0.1200
42585SOL    HW129762   3.230   8.041   0.028  0.9403  0.3061 -0.6901
42585SOL    HW229763   3.359   8.077   0.099 -0.5684  3.0042  0.8541
42586SOL     OW29764   6.178   0.724   4.508  0.5099 -0.0695  0.0486
42586SOL    HW129765   6.260   0.676   4.513  0.8491  0.3878 -0.9409
42586SOL    HW229766   6.153   0.739   4.600  1.1519 -0.8305  0.3560
42587SOL     OW29767   4.919   7.214   6.352  0.3515  0.0149  0.1035
42587SOL    HW129768   4.891   7.231   6.442  0.0668  1.0739 -0.1607
42587SOL    HW229769   4.916   7.300   6.310  0.0225 -0.5380 -1.0484
42588SOL     OW29770   5.206   6.485   9.593 -0.3253 -0.0709  0.5577
42588SOL    HW129771   5.289   6.449   9.626 -0.1607 -0.6637 -0.4602
42588SOL    HW229772   5.167   6.529   9.669  0.9565  0.2886  1.0300
42589SOL     OW29773   3.357   3.808   4.881 -0.3097 -0.4535 -0.1634
42589SOL    HW129774   3.412   3.853   4.945 -0.5736 -0.7286  0.2621
42589SOL    HW229775   3.268   3.813   4.918 -0.6502  0.3838 -1.0644
42590SOL     OW29776   3.542   7.286   8.580 -0.4560  0.2150 -0.8193
42590SOL    HW129777   3.562   7.312   8.670 -0.0456 -0.0587 -0.8269
42590SOL    HW229778   3.612   7.325   8.528 -0.0372 -0.5958 -0.8736
42591SOL     OW29779   4.362   8.669   1.542 -0.3761  0.0769  0.6520
42591SOL    HW129780   4.386   8.716   1.622  0.4941  0.0044  0.4542
42591SOL    HW229781   4.437   8.683   1.484 -0.6062 -0.6173  0.1769
42592SOL     OW29782   9.060   5.068  10.668 -0.1944 -0.7924 -0.0794
42592SOL    HW129783   8.976   5.051  10.711  0.7875 -3.6167  0.9283
42592SOL    HW229784   9.103   5.132  10.725 -1.1537 -0.2248  0.0356
42593SOL     OW29785   8.729   8.528   7.131 -0.6528 -0.1561 -0.7845
42593SOL    HW129786   8.729   8.589   7.057  1.1061  0.9381  0.0512
42593SOL    HW229787   8.665   8.564   7.191 -1.6747 -0.7357 -1.4963
42594SOL     OW29788   9.881   9.404   7.201  0.6336 -0.4624  0.1946
42594SOL    HW129789   9.812   9.437   7.142 -0.3753 -0.9993  1.0320
42594SOL    HW229790   9.900   9.316   7.168  1.7364  0.0831 -0.6995
42595SOL     OW29791   4.206   8.659   8.836  0.4501 -0.0167 -0.3367
42595SOL    HW129792   4.300   8.672   8.846  0.2686  0.2851  1.1784
42595SOL    HW229793   4.178   8.620   8.918 -0.8933  0.6810 -0.4341
42596SOL     OW29794   0.266   3.683  10.420 -0.2224  0.1067  0.2442
42596SOL    HW129795   0.172   3.668  10.416 -0.0687 -0.8374 -0.2630
42596SOL    HW229796   0.298   3.615  10.480  0.2151 -0.0374 -0.1410
42597SOL     OW29797   7.850   6.876   6.282  0.4189 -0.8511 -0.6010
42597SOL    HW129798   7.769   6.911   6.243  0.9791  1.6478  0.2336
42597SOL    HW229799   7.820   6.830   6.360 -0.2205  2.1287  1.1083
42598SOL     OW29800   8.582   3.974   5.523  0.8458  0.3792 -0.4476
42598SOL    HW129801   8.490   3.956   5.502  1.0035 -0.0634 -0.7794
42598SOL    HW229802   8.628   3.894   5.497  1.6196  1.3592 -2.2925
42599SOL     OW29803  10.982   0.399   6.464 -0.4166  0.4062 -0.1513
42599SOL    HW129804  11.058   0.362   6.507 -0.4323  1.9872  1.3314
42599SOL    HW229805  11.004   0.397   6.371  0.4542 -1.2550  0.0615
42600SOL     OW29806   8.453  10.306   1.947 -0.4777  0.1588 -0.3523
42600SOL    HW129807   8.462  10.210   1.947  0.1813  0.2113  0.4050
42600SOL    HW229808   8.495  10.333   1.866  1.4680 -0.0383  0.5378
42601SOL     OW29809   1.245   5.441   8.879 -0.1196  0.2038  0.6533
42601SOL    HW129810   1.184   5.512   8.900  1.0557  1.1572  0.9343
42601SOL    HW229811   1.314   5.448   8.945  0.5573 -0.5378  0.0514
42602SOL     OW29812   8.995   7.697   5.427 -0.1155  0.4704 -0.2894
42602SOL    HW129813   9.033   7.762   5.369  2.1271 -0.7971 -0.3494
42602SOL    HW229814   8.963   7.628   5.369 -2.1049  1.2460 -0.2025
42603SOL     OW29815  10.780  10.455   2.346 -0.3156  0.2400  0.5045
42603SOL    HW129816  10.826  10.505   2.413  2.3029 -3.2220  1.6061
42603SOL    HW229817  10.841  10.452   2.272 -0.4580 -1.0693  0.4116
42604SOL     OW29818   5.899   0.423   2.625 -0.2056  0.5834 -0.4298
42604SOL    HW129819   5.912   0.347   2.682 -1.9389  0.0868 -0.6369
42604SOL    HW229820   5.806   0.445   2.635 -0.1527  1.5337 -1.7797
42605SOL     OW29821  10.682   3.777   1.892 -0.3838 -0.3381 -0.3442
42605SOL    HW129822  10.708   3.845   1.830 -1.3412  0.4708  0.1198
42605SOL    HW229823  10.679   3.697   1.839 -2.6505  0.5891 -1.7654
42606SOL     OW29824   0.613   9.438   0.680 -0.5484  0.5757 -0.3078
42606SOL    HW129825   0.678   9.486   0.629 -1.6738  0.2765 -2.1367
42606SOL    HW229826   0.657   9.358   0.707  0.8395  1.8378  1.3596
42607SOL     OW29827   6.546   0.100  10.710  0.3841  0.0274  0.4027
42607SOL    HW129828   6.565   0.006  10.718 -1.3909 -0.4064  0.0414
42607SOL    HW229829   6.610   0.132  10.647  1.5595 -0.7530  1.1651
42608SOL     OW29830   6.962   4.321   5.105 -0.2087 -0.6546 -0.2089
42608SOL    HW129831   6.878   4.306   5.061 -0.7062  0.6030  0.2716
42608SOL    HW229832   7.020   4.254   5.068 -1.8502 -2.6992  0.6857
42609SOL     OW29833  10.973   2.085  10.614  0.1473 -0.4516  0.1409
42609SOL    HW129834  10.896   2.031  10.593 -0.9096  0.0960  2.2924
42609SOL    HW229835  10.957   2.168  10.571 -0.3588 -0.4256  0.3704
42610SOL     OW29836   2.119   3.611  10.243 -0.2700 -0.1783 -0.5987
42610SOL    HW129837   2.076   3.557  10.176 -0.4408  0.2833 -0.8694
42610SOL    HW229838   2.182   3.664  10.194 -0.5817  0.3515 -0.4306
42611SOL     OW29839   2.230   9.365   6.722 -0.2136 -0.0291  0.1282
42611SOL    HW129840   2.291   9.318   6.665  2.2857  1.9862  0.9412
42611SOL    HW229841   2.219   9.450   6.680  0.4162  0.9060  1.7620
42612SOL     OW29842   6.709   8.348   1.342 -0.3787 -0.3433  0.5497
42612SOL    HW129843   6.761   8.284   1.294 -0.5396 -0.3954  0.4437
42612SOL    HW229844   6.760   8.366   1.421  0.1457  0.1268  0.1188
42613SOL     OW29845   6.569  10.983   3.715 -0.6234 -0.4066  0.1597
42613SOL    HW129846   6.588  11.020   3.802  0.3624  0.0017 -0.2140
42613SOL    HW229847   6.655  10.965   3.677 -1.0550 -1.2959 -0.4436
42614SOL     OW29848   5.837   0.438   7.733  0.4676 -0.5988  0.5499
42614SOL    HW129849   5.791   0.518   7.706  1.3033 -0.7270 -1.3984
42614SOL    HW229850   5.767   0.381   7.766 -0.9973 -0.9738 -2.7631
42615SOL     OW29851   9.298   9.120   9.976  0.1437 -0.9707 -0.2650
42615SOL    HW129852   9.339   9.048   9.928 -0.5782 -1.8592  0.4194
42615SOL    HW229853   9.352   9.196   9.956  1.2450 -1.8129 -0.5661
42616SOL     OW29854   8.771  10.338   5.836 -0.4150  1.0384 -0.0705
42616SOL    HW129855   8.843  10.391   5.802  0.5527  1.7949  2.8848
42616SOL    HW229856   8.711  10.402   5.875 -0.3666  0.1236  1.5524
42617SOL     OW29857   9.571   0.154   9.935 -0.5921  0.1434 -0.4348
42617SOL    HW129858   9.666   0.163   9.945 -0.4198  0.2630 -1.8599
42617SOL    HW229859   9.542   0.115  10.017  0.8789 -1.1853 -0.4827
42618SOL     OW29860   1.352   1.434   6.720  0.2714 -0.3342 -0.2467
42618SOL    HW129861   1.299   1.424   6.641  0.1418 -1.3029 -0.0511
42618SOL    HW229862   1.354   1.346   6.759 -0.4822  0.3049  1.3355
42619SOL     OW29863   1.485   1.695   6.711  0.0332  0.1029 -0.1515
42619SOL    HW129864   1.440   1.610   6.714  0.6320 -0.3081 -1.8881
42619SOL    HW229865   1.562   1.683   6.767  0.7121 -0.8947 -1.2521
42620SOL     OW29866   8.014   4.244  10.766 -0.4766 -0.1206  0.1833
42620SOL    HW129867   8.004   4.302  10.842 -1.5273 -0.4853  0.3352
42620SOL    HW229868   8.040   4.160  10.805  1.3735  0.2856 -0.0594
42621SOL     OW29869   3.631   0.117  10.701 -0.1084  0.1043  0.2115
42621SOL    HW129870   3.566   0.108  10.771  0.1574 -1.9363  0.2599
42621SOL    HW229871   3.669   0.030  10.693  2.0141  1.0232 -0.4180
42622SOL     OW29872  10.249   1.324   0.959 -0.0109 -0.0392  0.1621
42622SOL    HW129873  10.336   1.285   0.946 -0.8370 -3.0914  2.6403
42622SOL    HW229874  10.258   1.376   1.038 -0.4200 -0.2569  0.3509
42623SOL     OW29875   6.692   7.675   9.523 -0.0474  0.0054 -0.2020
42623SOL    HW129876   6.657   7.757   9.558 -0.3027 -0.6221  1.0976
42623SOL    HW229877   6.627   7.609   9.548  0.9075 -0.8195  0.1914
42624SOL     OW29878   1.101   0.098  10.065 -0.0932 -0.2810 -0.2631
42624SOL    HW129879   1.141   0.100   9.978 -0.4261  2.4975 -0.4391
42624SOL    HW229880   1.168   0.136  10.123 -1.2480  1.5356 -0.0434
42625SOL     OW29881   7.997   3.301   1.459 -0.0058 -0.6226  0.2356
42625SOL    HW129882   7.991   3.396   1.452 -0.9297 -0.7326 -0.9415
42625SOL    HW229883   7.943   3.268   1.386  1.8829 -2.0354 -0.6297
42626SOL     OW29884   3.524   0.026   6.770 -0.2543  0.3195  0.2490
42626SOL    HW129885   3.509  -0.061   6.734  0.3774  0.8089 -1.2393
42626SOL    HW229886   3.537   0.082   6.694  0.1135  1.5803  1.2131
42627SOL     OW29887   5.164  10.781   6.802 -0.1288  0.0248 -0.7214
42627SOL    HW129888   5.211  10.854   6.842  1.8839 -1.1109 -0.9137
42627SOL    HW229889   5.117  10.740   6.875  0.5860  0.1405 -0.1883
42628SOL     OW29890   5.261   1.528   3.300 -0.3366 -0.5096 -0.1588
42628SOL    HW129891   5.226   1.603   3.349  1.0765  0.7179 -0.9744
42628SOL    HW229892   5.252   1.553   3.208  2.7083 -0.0742 -0.4193
42629SOL     OW29893   6.037   0.920   8.791 -0.4553 -0.2100 -0.3067
42629SOL    HW129894   6.100   0.850   8.810 -0.6690 -0.1002  0.8963
42629SOL    HW229895   6.088   1.001   8.795 -0.5351 -0.1731 -0.0101
42630SOL     OW29896   2.056   7.107   3.127 -0.1057  0.1968  0.3436
42630SOL    HW129897   2.088   7.019   3.109 -0.5977 -0.3181  1.8463
42630SOL    HW229898   2.133   7.155   3.159  0.1325  0.2986 -0.3560
42631SOL     OW29899  10.904   9.839   1.111  0.0965  0.8161 -0.6788
42631SOL    HW129900  10.900   9.761   1.055 -0.5046  0.8533 -0.6971
42631SOL    HW229901  10.997   9.861   1.116  0.6839 -1.6524  1.7358
42632SOL     OW29902   6.841   1.799   7.805  0.1654 -0.0944  0.0948
42632SOL    HW129903   6.810   1.769   7.890 -0.4922  0.9173  0.2282
42632SOL    HW229904   6.936   1.807   7.814  0.1396 -0.3698  0.6055
42633SOL     OW29905  10.559   5.306   0.181  0.6932  0.5625 -0.1840
42633SOL    HW129906  10.561   5.357   0.262 -0.1901 -2.4776  1.9367
42633SOL    HW229907  10.467   5.280   0.171  1.1307 -0.8462 -0.9183
42634SOL     OW29908   9.845   6.487   5.017  0.1751  0.6435  0.3394
42634SOL    HW129909   9.798   6.523   5.091 -0.0200 -0.3343  0.7092
42634SOL    HW229910   9.788   6.502   4.942 -0.7067 -0.4380  0.7690
42635SOL     OW29911   6.338   7.913  10.189 -0.3397 -0.2366 -0.4622
42635SOL    HW129912   6.334   7.893  10.282  0.4511 -0.8685 -0.5559
42635SOL    HW229913   6.270   7.859  10.149  1.0208 -1.9724 -0.5626
42636SOL     OW29914   8.803   8.261   8.741 -0.1253  0.2750  0.1454
42636SOL    HW129915   8.726   8.315   8.722 -0.1168  0.1750 -0.1759
42636SOL    HW229916   8.770   8.192   8.799 -0.7445 -0.9951 -1.6449
42637SOL     OW29917   7.795   0.288   2.726 -0.4455 -0.0569 -0.1282
42637SOL    HW129918   7.703   0.268   2.739 -0.6780  0.5231 -0.8162
42637SOL    HW229919   7.823   0.225   2.659  0.3327 -1.9461  1.8623
42638SOL     OW29920   2.354  10.263   8.837  0.4725  0.1008  0.2397
42638SOL    HW129921   2.286  10.330   8.837  1.2652  0.9216  0.2303
42638SOL    HW229922   2.306  10.180   8.848 -0.6986  0.4600 -1.7078
42639SOL     OW29923   7.531   1.243   8.347 -0.5466 -0.1547  0.3361
42639SOL    HW129924   7.591   1.218   8.418 -0.7639  1.1873  1.0108
42639SOL    HW229925   7.465   1.298   8.389  1.0687  3.4025 -1.3557
42640SOL     OW29926   1.605   9.470   2.037  0.2629  0.8344 -0.1347
42640SOL    HW129927   1.550   9.425   1.973  0.7586  1.4792 -1.0370
42640SOL    HW229928   1.545   9.496   2.107 -0.1946 -0.3487 -0.0683
42641SOL     OW29929   5.111   8.529   7.416 -0.8041  0.4315  0.0839
42641SOL    HW129930   5.071   8.461   7.363 -1.5304  2.5452 -2.2836
42641SOL    HW229931   5.042   8.558   7.475 -1.1028  0.4396 -0.2663
42642SOL     OW29932   0.442   6.921   7.588  0.5247  0.4179  0.0511
42642SOL    HW129933   0.468   6.844   7.638  0.6517  0.3749 -0.0820
42642SOL    HW229934   0.430   6.890   7.498 -0.4372  0.3406  0.1909
42643SOL     OW29935  10.815   1.989   8.441  0.2540 -0.4936  0.2327
42643SOL    HW129936  10.824   2.066   8.498  0.6397 -1.1212  1.0372
42643SOL    HW229937  10.852   1.917   8.492  1.0381 -0.9973 -1.0084
42644SOL     OW29938   5.506   4.053   4.310  0.7363 -0.1057  0.9285
42644SOL    HW129939   5.465   3.994   4.374  0.3152  0.5801  1.3037
42644SOL    HW229940   5.438   4.069   4.245 -0.4787  2.8180  2.7105
42645SOL     OW29941   9.625   1.982   8.349  0.6193 -0.6025 -0.1258
42645SOL    HW129942   9.705   1.931   8.337 -0.3345 -2.2682  0.2829
42645SOL    HW229943   9.554   1.918   8.343 -0.8387  1.0183 -2.0297
42646SOL     OW29944   9.608   7.524   3.462 -0.1643  0.4379 -0.4273
42646SOL    HW129945   9.617   7.560   3.550  0.2403  0.5237 -0.5009
42646SOL    HW229946   9.550   7.448   3.473 -0.6165  0.8107 -0.1938
42647SOL     OW29947   2.617  10.173   4.520 -0.5163  0.1620 -0.3228
42647SOL    HW129948   2.690  10.151   4.463 -1.1281 -0.8193 -0.7578
42647SOL    HW229949   2.596  10.091   4.565 -1.7760  0.2494 -0.7117
42648SOL     OW29950   7.205   8.715   9.680 -0.2224  0.5489  0.0231
42648SOL    HW129951   7.296   8.745   9.684 -0.3129  0.7153  2.3984
42648SOL    HW229952   7.198   8.671   9.595  2.0022  0.7432 -0.3306
42649SOL     OW29953   0.508  10.711   6.109  0.4480 -0.4757  0.4677
42649SOL    HW129954   0.481  10.801   6.126 -0.7817 -0.6888 -0.2735
42649SOL    HW229955   0.593  10.703   6.153  1.0695  1.3364 -0.3156
42650SOL     OW29956   1.976   3.496  10.824 -0.5716  0.3217 -0.0184
42650SOL    HW129957   1.904   3.490  10.887 -0.5306  0.2502  0.0205
42650SOL    HW229958   2.007   3.406  10.814 -0.3250  0.3886  0.1486
42651SOL     OW29959   9.865   1.026   3.924  0.1542  0.1013 -0.0449
42651SOL    HW129960   9.901   1.005   4.010 -1.7204  4.5307  2.1461
42651SOL    HW229961   9.925   1.092   3.888 -0.6159  0.4477 -0.7287
42652SOL     OW29962   7.978   5.409   9.123 -0.1147  0.4231  0.2087
42652SOL    HW129963   8.052   5.353   9.097 -1.5749 -0.8843 -1.3341
42652SOL    HW229964   8.008   5.497   9.101  1.5188  0.1047  0.9501
42653SOL     OW29965   5.701   8.333   1.481 -0.2792  0.1556 -0.9425
42653SOL    HW129966   5.783   8.294   1.510  0.3827  0.4926 -2.3104
42653SOL    HW229967   5.638   8.261   1.482 -0.5750  0.2891  2.1265
42654SOL     OW29968   7.758   2.939   1.609  0.3753  0.6994 -0.2334
42654SOL    HW129969   7.821   2.943   1.537 -0.6949 -0.0558 -1.2734
42654SOL    HW229970   7.795   2.875   1.670  0.5241  0.0941 -0.9394
42655SOL     OW29971   3.562   5.558   4.786  0.5786  0.2472  0.1307
42655SOL    HW129972   3.621   5.633   4.782  2.2883 -1.0357  0.1096
42655SOL    HW229973   3.617   5.483   4.762 -0.6990 -1.2106  1.5530
42656SOL     OW29974   4.486  10.096  10.810 -0.4205 -0.1243  0.1889
42656SOL    HW129975   4.516  10.089  10.901 -1.0565  0.1145  0.4193
42656SOL    HW229976   4.563  10.072  10.758 -0.2478 -0.9595  0.7974
42657SOL     OW29977   2.252   4.200   8.311  0.0288  0.6621 -0.3752
42657SOL    HW129978   2.171   4.149   8.302 -0.2203  0.3586  2.5121
42657SOL    HW229979   2.226   4.290   8.288 -0.6782  0.2802 -1.1336
42658SOL     OW29980  10.466   6.910   5.871 -0.0022 -0.2157  0.0286
42658SOL    HW129981  10.484   6.998   5.903  1.8130 -0.4146 -0.3444
42658SOL    HW229982  10.462   6.919   5.776  1.6142 -0.7183 -0.1216
42659SOL     OW29983   0.968   5.247   7.634 -0.4303 -0.7430 -0.9089
42659SOL    HW129984   0.958   5.301   7.712 -0.3669 -1.7247 -0.2163
42659SOL    HW229985   0.968   5.310   7.562  2.5133  0.4970  0.0256
42660SOL     OW29986   4.326   5.398   8.574 -0.1095  0.0526  0.2029
42660SOL    HW129987   4.397   5.417   8.636  1.4694 -1.0396 -1.1742
42660SOL    HW229988   4.333   5.466   8.508 -1.1450  0.6326  0.6705
42661SOL     OW29989   9.983   6.836   9.560  0.1150 -0.2303 -0.4678
42661SOL    HW129990  10.051   6.783   9.518  0.2261 -1.9690  1.7518
42661SOL    HW229991  10.031   6.896   9.617 -0.1865 -0.6420  0.2137
42662SOL     OW29992   3.903   1.678   7.486 -0.4740  0.4078 -0.0994
42662SOL    HW129993   3.864   1.720   7.563  0.5128  1.6789 -0.2490
42662SOL    HW229994   3.943   1.598   7.521 -3.2845 -1.0474  0.0079
42663SOL     OW29995   8.298   0.087   5.106 -0.1184  0.1571  0.2353
42663SOL    HW129996   8.316   0.047   5.021  2.1213  0.5084  0.4714
42663SOL    HW229997   8.338   0.028   5.169 -0.2835  0.7447  0.9087
42664SOL     OW29998   4.599   5.283   7.154 -0.2323 -0.2027  0.0986
42664SOL    HW129999   4.572   5.203   7.108  2.7604 -1.9476  1.1586
42664SOL    HW230000   4.523   5.305   7.208 -1.5322 -1.6778 -0.9985
42665SOL     OW30001   8.660   8.626   4.033  0.1693 -0.2987  0.1190
42665SOL    HW130002   8.589   8.667   3.984  1.3897  0.8011 -0.7919
42665SOL    HW230003   8.652   8.532   4.013 -0.4983 -0.0880 -0.6488
42666SOL     OW30004   7.660   5.177   0.048 -0.5191 -0.3154  0.1635
42666SOL    HW130005   7.583   5.138   0.089  0.3538 -1.4940  0.7318
42666SOL    HW230006   7.626   5.219  -0.031 -1.8141 -0.3829  0.6639
42667SOL     OW30007   2.611   3.997   2.809  0.2851 -0.1638  0.1341
42667SOL    HW130008   2.588   3.917   2.857  0.2635  1.5210  3.1422
42667SOL    HW230009   2.687   4.032   2.855 -0.9014  2.5631  0.2162
42668SOL     OW30010   1.184   6.549   9.308  0.2108 -0.5290  0.1943
42668SOL    HW130011   1.242   6.483   9.346  1.1198  0.0332 -0.1614
42668SOL    HW230012   1.236   6.588   9.238 -0.9116 -0.5529 -0.6693
42669SOL     OW30013   5.213   1.684   4.176 -0.0538  0.5941 -0.2886
42669SOL    HW130014   5.249   1.701   4.263  0.2583 -0.2155 -0.2535
42669SOL    HW230015   5.133   1.736   4.173  0.5047  1.4905  0.0709
42670SOL     OW30016   3.976   9.544   8.701  0.5500 -0.1636 -0.4780
42670SOL    HW130017   3.904   9.517   8.644 -0.2335  0.2474  0.2984
42670SOL    HW230018   3.954   9.634   8.725 -0.1027 -0.9086  1.9397
42671SOL     OW30019   8.757   0.026   6.472 -0.2462 -0.8486  0.1331
42671SOL    HW130020   8.766  -0.041   6.405 -2.3246 -0.9978 -0.0623
42671SOL    HW230021   8.845   0.062   6.482  0.2866 -1.4065 -2.0539
42672SOL     OW30022  10.189   3.101   7.471 -0.3702  0.5523 -1.1764
42672SOL    HW130023  10.123   3.043   7.434 -1.5194  0.4123  0.9536
42672SOL    HW230024  10.165   3.189   7.441 -0.6338  0.3318 -1.6128
42673SOL     OW30025   4.821   0.912   5.772 -0.2763 -0.0697 -0.2349
42673SOL    HW130026   4.841   0.825   5.737 -0.8101 -0.8540  1.3134
42673SOL    HW230027   4.726   0.920   5.762 -0.2708  0.1904 -0.0842
42674SOL     OW30028   7.805   2.083   1.516 -0.3099  0.9034  0.0293
42674SOL    HW130029   7.807   2.020   1.588  0.5538 -0.6061 -1.2624
42674SOL    HW230030   7.885   2.136   1.528 -0.0133  0.4607  0.0193
42675SOL     OW30031   3.394   3.332   9.658  0.1667  0.2580  0.0956
42675SOL    HW130032   3.321   3.367   9.710  0.3598  2.7724 -1.1818
42675SOL    HW230033   3.455   3.405   9.650  0.6474 -0.3578 -2.7141
42676SOL     OW30034   0.523  10.386   4.759 -0.0910  0.1688  0.1092
42676SOL    HW130035   0.432  10.409   4.777 -0.1148  0.0004  0.2039
42676SOL    HW230036   0.561  10.467   4.725 -0.9915 -0.4644 -2.6344
42677SOL     OW30037   5.735   0.487   5.081  0.2737 -0.1146  0.2460
42677SOL    HW130038   5.679   0.509   5.156 -1.8182  1.8801 -1.7167
42677SOL    HW230039   5.787   0.566   5.066  2.2380 -1.2346  0.7791
42678SOL     OW30040   0.998   0.131   4.233 -0.3064 -0.4911 -0.0778
42678SOL    HW130041   0.966   0.213   4.197  2.4180  0.6817 -0.0478
42678SOL    HW230042   0.928   0.101   4.291 -2.1415  0.7853 -1.5264
42679SOL     OW30043   5.424   4.132   4.794 -0.3413 -0.2880  0.0522
42679SOL    HW130044   5.445   4.129   4.887 -2.4831  1.4019  0.6724
42679SOL    HW230045   5.427   4.040   4.766  1.0001 -0.7674  1.5814
42680SOL     OW30046   1.489   9.980  10.052 -0.0986 -0.1668  0.1122
42680SOL    HW130047   1.429   9.973   9.978 -1.0853  0.3650  0.8554
42680SOL    HW230048   1.537   9.897  10.051  0.1729 -0.0228 -1.3341
42681SOL     OW30049   4.256   5.133  10.206  0.2018  0.1359 -0.1822
42681SOL    HW130050   4.214   5.199  10.152 -0.4163  1.0653  1.3654
42681SOL    HW230051   4.265   5.175  10.292 -1.0290 -2.0637  1.1098
42682SOL     OW30052   2.111   7.394   9.020  0.0791 -0.0662 -0.7024
42682SOL    HW130053   2.198   7.391   8.979 -0.0175  0.9958 -1.0167
42682SOL    HW230054   2.088   7.302   9.034  2.4954 -0.4360  2.0540
42683SOL     OW30055   5.326   3.159   6.392 -1.0281 -0.2431  0.1462
42683SOL    HW130056   5.395   3.185   6.331 -1.2333 -0.2486 -0.0870
42683SOL    HW230057   5.343   3.210   6.471 -0.2998 -0.7981  0.3618
42684SOL     OW30058   9.522   4.622   9.364 -0.0957 -0.2038 -0.6780
42684SOL    HW130059   9.460   4.606   9.293 -0.9301  1.2777 -0.3271
42684SOL    HW230060   9.562   4.707   9.343  0.8115 -0.4945 -0.1826
42685SOL     OW30061   2.232   9.988   6.676  0.2658  0.0518 -0.0823
42685SOL    HW130062   2.207  10.006   6.767 -0.4809 -0.3539 -0.1956
42685SOL    HW230063   2.148   9.980   6.630  0.6023 -1.5223 -0.4582
42686SOL     OW30064   0.353  10.298   0.769  0.1800 -0.7914 -0.0733
42686SOL    HW130065   0.259  10.318   0.773  0.5364  0.7935  2.2257
42686SOL    HW230066   0.396  10.374   0.808  2.2338 -2.5586  1.3740
42687SOL     OW30067   4.998   5.910   6.104 -0.0063 -0.0761  0.2853
42687SOL    HW130068   4.968   5.877   6.189  0.3377  0.0125  0.4420
42687SOL    HW230069   5.093   5.897   6.105  0.2150  1.4173  0.5808
42688SOL     OW30070   3.759  10.381   2.930  0.0611  0.1522  0.1257
42688SOL    HW130071   3.809  10.300   2.926  0.6542  0.4498  1.1778
42688SOL    HW230072   3.692  10.364   2.996 -0.9565 -0.0746 -0.9267
42689SOL     OW30073   4.870   7.685   1.780 -0.1756 -0.4690  0.1182
42689SOL    HW130074   4.880   7.780   1.774 -2.4786 -0.0849  1.1665
42689SOL    HW230075   4.903   7.652   1.697  0.0361  1.3200 -0.5527
42690SOL     OW30076   1.242   4.410   6.474  0.3887 -0.1228 -0.1746
42690SOL    HW130077   1.185   4.335   6.489  0.2287 -0.1336 -0.8294
42690SOL    HW230078   1.210   4.477   6.534  0.6445 -0.6229  0.5507
42691SOL     OW30079   4.288   0.960   8.536 -0.2209 -0.0416 -0.0234
42691SOL    HW130080   4.365   0.908   8.514 -0.7765 -0.8263 -0.1377
42691SOL    HW230081   4.323   1.037   8.581  0.6655 -0.1195 -0.5696
42692SOL     OW30082   0.290   5.294   3.271 -0.2461 -0.0146 -0.6232
42692SOL    HW130083   0.307   5.245   3.191  2.0818  0.7797 -0.6912
42692SOL    HW230084   0.199   5.273   3.293 -0.8534 -0.4978 -3.2677
42693SOL     OW30085   3.062   8.330   5.181  0.2716  0.4176  0.7390
42693SOL    HW130086   3.034   8.383   5.255  0.9469 -0.2931  1.5127
42693SOL    HW230087   3.098   8.250   5.219  1.0410  0.2262 -0.3269
42694SOL     OW30088   8.810   1.427   4.838 -0.5428  0.0104  0.0634
42694SOL    HW130089   8.777   1.390   4.920 -0.9303  2.3577  1.0412
42694SOL    HW230090   8.736   1.476   4.802 -0.4489 -1.1268 -1.8594
42695SOL     OW30091  10.754   9.237   6.348 -0.2625 -0.6111 -0.2833
42695SOL    HW130092  10.799   9.189   6.278  0.8935  0.3305 -0.2153
42695SOL    HW230093  10.666   9.200   6.349  0.3777 -2.2671 -0.6698
42696SOL     OW30094   5.738   5.674   8.415 -0.2009  0.3434  0.2018
42696SOL    HW130095   5.819   5.678   8.466 -0.1311 -0.5996  0.1821
42696SOL    HW230096   5.715   5.581   8.414  0.5024  0.1229 -2.5660
42697SOL     OW30097   1.401   5.420   9.103 -1.1769  0.3300 -0.1579
42697SOL    HW130098   1.402   5.389   9.193 -1.3308 -0.9161 -0.5677
42697SOL    HW230099   1.437   5.509   9.107  2.8844 -1.1128  0.6208
42698SOL     OW30100   8.315   9.496   1.872 -0.6087  0.0891 -0.3355
42698SOL    HW130101   8.396   9.531   1.835 -1.0569  1.0544 -0.4368
42698SOL    HW230102   8.258   9.481   1.796 -0.4878 -0.7099 -0.2778
42699SOL     OW30103  10.739   1.976  10.498 -0.3596  0.4360  0.5913
42699SOL    HW130104  10.649   2.006  10.513 -0.9996  0.0471 -2.0142
42699SOL    HW230105  10.747   1.896  10.549 -1.1356  0.9909  1.6217
42700SOL     OW30106   2.718   3.223   5.855 -0.0905  0.0866  0.1511
42700SOL    HW130107   2.720   3.296   5.917 -0.4744  1.9846 -1.9453
42700SOL    HW230108   2.810   3.196   5.846  0.3561  1.7804 -0.6499
42701SOL     OW30109   0.467   0.068   3.824  0.0209  0.2017  0.9484
42701SOL    HW130110   0.395   0.040   3.768  1.0172 -2.0225  0.6924
42701SOL    HW230111   0.429   0.137   3.879 -1.5643  0.9204 -0.9224
42702SOL     OW30112   2.352   8.834   7.982 -0.5765  0.3498  0.3873
42702SOL    HW130113   2.295   8.874   8.048 -1.9191 -1.5894  0.5016
42702SOL    HW230114   2.374   8.906   7.923 -0.8890  1.7356  1.8787
42703SOL     OW30115   0.673   5.520   2.345  0.2582  0.0816 -0.1321
42703SOL    HW130116   0.713   5.436   2.327 -1.8908 -0.8292 -1.0757
42703SOL    HW230117   0.743   5.584   2.335  1.4641 -1.4008 -1.5580
42704SOL     OW30118   9.770   5.936   2.867 -0.2972  0.2654 -0.5080
42704SOL    HW130119   9.773   5.877   2.943 -0.3127  0.4191 -0.3881
42704SOL    HW230120   9.690   5.986   2.879 -0.3623  0.2056 -0.6899
42705SOL     OW30121   8.574   8.444   8.671 -0.0448  0.0966  0.5096
42705SOL    HW130122   8.543   8.492   8.748 -1.2408  0.0267  0.0948
42705SOL    HW230123   8.646   8.497   8.638 -0.6479  1.0583  0.6722
42706SOL     OW30124   3.088   7.095   0.727 -0.0955 -0.0109 -0.0765
42706SOL    HW130125   3.039   7.136   0.799  0.5723 -0.0637  0.4194
42706SOL    HW230126   3.100   7.165   0.663  1.5808  0.7903  1.0379
42707SOL     OW30127   5.220   7.682   7.215 -0.2592 -0.0989  0.1841
42707SOL    HW130128   5.258   7.595   7.225 -0.5065 -0.0070  2.2722
42707SOL    HW230129   5.284   7.730   7.161  0.6262 -1.0990  0.3107
42708SOL     OW30130   7.495   8.901   2.289  0.1723 -0.8276 -0.5801
42708SOL    HW130131   7.579   8.878   2.250  0.7462 -1.8989  1.1671
42708SOL    HW230132   7.488   8.845   2.367 -0.8006  1.3056  0.9760
42709SOL     OW30133   8.295   1.329   4.226 -0.2315  0.1384 -0.6190
42709SOL    HW130134   8.372   1.294   4.181 -0.2399 -1.4768  0.5575
42709SOL    HW230135   8.264   1.399   4.168  2.6229  1.4935 -0.6953
42710SOL     OW30136   8.483   3.414   3.340 -0.7098  0.4412 -0.9568
42710SOL    HW130137   8.406   3.456   3.301 -1.9521 -0.9325 -0.0973
42710SOL    HW230138   8.516   3.478   3.402 -1.9918  0.5742 -0.3688
42711SOL     OW30139   0.230   6.822   3.091  0.4603 -0.0670  0.2978
42711SOL    HW130140   0.239   6.728   3.106  0.9236  0.0955  1.1010
42711SOL    HW230141   0.265   6.836   3.003  2.7699 -0.3075  1.1159
42712SOL     OW30142   1.647   1.135   3.944  0.3676 -0.2872  0.1041
42712SOL    HW130143   1.705   1.070   3.984  0.3229 -0.0693  0.5301
42712SOL    HW230144   1.697   1.170   3.871  0.7379 -0.1632  0.4174
42713SOL     OW30145   2.178   6.943   0.225  0.1193  0.0506 -0.8693
42713SOL    HW130146   2.186   6.850   0.248  1.5149  0.0435 -1.3062
42713SOL    HW230147   2.263   6.966   0.187 -0.5225  1.2751 -1.6311
42714SOL     OW30148   9.912   7.120  10.000  0.0749  0.1070 -0.0648
42714SOL    HW130149   9.917   7.136  10.094  0.5147 -2.0380  0.3253
42714SOL    HW230150   9.968   7.044   9.986  1.3156  1.3231 -2.3313
42715SOL     OW30151   8.865   5.442   8.549 -0.2537 -0.5777  0.0710
42715SOL    HW130152   8.785   5.391   8.538 -0.7009 -0.1544  1.1836
42715SOL    HW230153   8.893   5.423   8.639 -0.3747  1.0482  0.4697
42716SOL     OW30154  10.844   1.259  10.942  0.3728  0.0151 -0.6254
42716SOL    HW130155  10.893   1.306  10.874  1.3510 -0.7192 -0.4472
42716SOL    HW230156  10.763   1.231  10.899 -1.2793  3.6201 -0.2053
42717SOL     OW30157   7.735   0.801  10.548 -0.2383 -0.3343  0.6281
42717SOL    HW130158   7.690   0.756  10.476  0.0115  0.9822 -0.3852
42717SOL    HW230159   7.666   0.853  10.590  0.1309  1.0533 -0.4199
42718SOL     OW30160   1.206   9.625   4.139 -0.2849 -0.2616  0.3702
42718SOL    HW130161   1.192   9.669   4.055  0.4890  0.1507  0.4465
42718SOL    HW230162   1.128   9.645   4.190 -0.9827 -0.9300 -0.4290
42719SOL     OW30163   0.702   5.629  10.301  0.4668 -0.0003  0.0173
42719SOL    HW130164   0.670   5.556  10.354 -1.3822  0.6122 -0.1797
42719SOL    HW230165   0.628   5.652  10.245  0.0777  3.5473  1.7021
42720SOL     OW30166   9.854   7.558  10.622  0.1094 -0.2230  0.3630
42720SOL    HW130167   9.902   7.616  10.564  0.1845  1.2624  1.8390
42720SOL    HW230168   9.900   7.564  10.706 -0.4330 -1.7147  0.8076
42721SOL     OW30169   2.765   2.483   2.759  0.0922 -0.1295  0.1166
42721SOL    HW130170   2.707   2.558   2.755 -2.2295 -1.7706  0.6145
42721SOL    HW230171   2.758   2.441   2.673  1.2299  0.0865 -0.1051
42722SOL     OW30172   7.637   1.260   3.202 -0.0838 -0.1401 -0.0919
42722SOL    HW130173   7.663   1.251   3.110 -0.3313 -1.7595 -0.0284
42722SOL    HW230174   7.642   1.171   3.237 -0.3865  0.3960  1.3641
42723SOL     OW30175   7.534  10.011   5.992 -0.1324 -0.0092 -0.6710
42723SOL    HW130176   7.445   9.997   5.959 -0.5349 -0.4106  0.5470
42723SOL    HW230177   7.562   9.924   6.021 -0.0339  0.4458  0.6257
42724SOL     OW30178   0.536   7.697  10.756  0.0891 -0.3659 -0.2101
42724SOL    HW130179   0.504   7.783  10.784  2.2695  0.2498  0.5455
42724SOL    HW230180   0.621   7.688  10.798  0.2022 -2.6349 -0.8158
42725SOL     OW30181   7.406   3.481   2.397  0.0336 -0.1395 -0.1689
42725SOL    HW130182   7.482   3.468   2.340  0.3416  2.6684 -0.5583
42725SOL    HW230183   7.441   3.523   2.475 -0.8393 -0.9969  0.7138
42726SOL     OW30184   1.807   0.971   5.642 -0.0664 -0.2561  0.0734
42726SOL    HW130185   1.792   1.023   5.721  0.2976  1.0614 -0.6957
42726SOL    HW230186   1.752   1.012   5.575 -0.4626 -1.4279 -0.3519
42727SOL     OW30187   6.656   0.765   7.575 -0.0721  0.6961  0.3005
42727SOL    HW130188   6.628   0.856   7.590 -0.5876  0.5767  0.0769
42727SOL    HW230189   6.751   0.771   7.562 -0.1332  1.2297  0.0822
42728SOL     OW30190   2.041   0.691   7.879  0.0450  0.1817 -0.2034
42728SOL    HW130191   2.065   0.629   7.810  0.3181 -0.2888  0.2994
42728SOL    HW230192   1.950   0.669   7.900 -0.0889  0.4329 -0.5272
42729SOL     OW30193   6.666   3.479   8.628  0.1571 -0.6512  0.2138
42729SOL    HW130194   6.593   3.427   8.595 -0.4419  0.0446  0.4094
42729SOL    HW230195   6.733   3.472   8.560  0.2684 -2.0442  0.4495
42730SOL     OW30196   4.103  10.474   7.325  0.4025  1.2799 -0.5888
42730SOL    HW130197   4.056  10.514   7.253 -1.0257 -2.1702 -1.8123
42730SOL    HW230198   4.190  10.453   7.289 -0.1283  0.0450 -1.2344
42731SOL     OW30199   0.837   5.021   7.621 -0.1186  0.4839  0.4572
42731SOL    HW130200   0.746   5.050   7.631  0.0833  1.0530  0.6925
42731SOL    HW230201   0.889   5.102   7.625  0.5363  0.0305  2.0606
42732SOL     OW30202   8.208   1.084  10.506 -0.2474 -0.0433  0.1366
42732SOL    HW130203   8.145   1.014  10.524 -0.0416 -0.4406 -0.6335
42732SOL    HW230204   8.200   1.143  10.581 -0.0651 -1.1457  1.0508
42733SOL     OW30205   5.189   3.238   0.001 -0.1851  0.0967 -0.2609
42733SOL    HW130206   5.242   3.170  -0.041 -0.0741 -0.5119  0.8254
42733SOL    HW230207   5.226   3.247   0.089 -1.3499  0.2579  0.2406
42734SOL     OW30208   5.802   6.050   4.723  0.1193  0.1559  0.1655
42734SOL    HW130209   5.740   5.976   4.718  2.1289 -1.6405  0.4702
42734SOL    HW230210   5.871   6.019   4.782  2.1624  1.4210 -1.4559
42735SOL     OW30211   3.239   7.287   0.321 -0.2101  0.1219  0.2085
42735SOL    HW130212   3.152   7.248   0.333 -0.6153  0.9286 -0.0676
42735SOL    HW230213   3.296   7.234   0.378 -0.7432 -0.8496 -0.1279
42736SOL     OW30214   0.437   5.707   4.717 -0.0928  0.2721  0.0479
42736SOL    HW130215   0.393   5.623   4.700 -0.8928  0.4069  1.2861
42736SOL    HW230216   0.399   5.767   4.653  0.7219 -0.3692 -1.0649
42737SOL     OW30217   6.302   5.564   5.298 -0.0624 -0.0355 -0.5256
42737SOL    HW130218   6.207   5.563   5.308 -0.1144 -0.3981 -1.0241
42737SOL    HW230219   6.335   5.589   5.385 -0.5858 -0.4833 -0.1923
42738SOL     OW30220   7.466   7.692   8.162  0.4136  0.5999 -0.4636
42738SOL    HW130221   7.502   7.618   8.211 -1.6243  0.3359  0.7622
42738SOL    HW230222   7.468   7.664   8.071  0.2716 -0.7132 -0.0823
42739SOL     OW30223   1.294   2.231   6.298  0.3548  0.0003 -0.0483
42739SOL    HW130224   1.348   2.238   6.219  1.3132 -0.5307  0.5525
42739SOL    HW230225   1.349   2.187   6.362 -0.0052  1.4461  1.3138
42740SOL     OW30226   6.569   0.336   8.953  0.0511  0.4287 -0.0983
42740SOL    HW130227   6.604   0.398   9.018 -1.1247 -0.8053  1.8200
42740SOL    HW230228   6.637   0.269   8.946  0.7395  1.2155 -1.1543
42741SOL     OW30229   1.043   6.406   3.113 -0.4821 -0.2601  0.3797
42741SOL    HW130230   1.101   6.469   3.156  0.2060 -1.0042  0.5768
42741SOL    HW230231   0.988   6.371   3.184  0.2781 -1.0852  0.5823
42742SOL     OW30232   0.194   4.208   1.958 -0.7599 -0.2864  0.3838
42742SOL    HW130233   0.165   4.126   1.996 -1.8992 -0.3445 -0.5562
42742SOL    HW230234   0.176   4.274   2.026  2.0934 -0.9843  2.0118
42743SOL     OW30235   6.954   5.114   6.977  0.2650 -0.5540 -0.2391
42743SOL    HW130236   6.907   5.045   6.930  0.3942 -0.5874 -0.3196
42743SOL    HW230237   6.926   5.104   7.068  0.3093 -0.7340 -0.2454
42744SOL     OW30238   5.300   3.542   6.077 -0.0791 -0.3441 -0.3052
42744SOL    HW130239   5.387   3.511   6.053  0.4710  0.7372  0.2153
42744SOL    HW230240   5.240   3.481   6.035  0.9190 -0.7031 -1.2467
42745SOL     OW30241   4.644   5.163   8.519  0.0154  0.3803  0.3446
42745SOL    HW130242   4.632   5.092   8.581  0.9244  0.4054  0.5653
42745SOL    HW230243   4.736   5.156   8.492  0.8095  2.8566  2.0999
42746SOL     OW30244   4.711   0.442   7.046 -0.3883 -0.4820 -0.0693
42746SOL    HW130245   4.643   0.408   6.988 -0.3389 -2.9470  1.1781
42746SOL    HW230246   4.696   0.536   7.049 -1.4044 -0.4911 -2.7134
42747SOL     OW30247   9.372   2.182   3.292  0.2581 -0.3614 -0.3437
42747SOL    HW130248   9.342   2.269   3.266  0.9464 -0.3610 -1.1588
42747SOL    HW230249   9.450   2.199   3.345  1.5576 -0.5193 -2.1072
42748SOL     OW30250   1.983   0.283   5.861  0.4425  0.0483  0.0088
42748SOL    HW130251   1.928   0.266   5.784 -1.2506  0.0521  1.1666
42748SOL    HW230252   2.053   0.219   5.855  0.9451  0.6948 -2.0587
42749SOL     OW30253   6.955   9.219  10.231  0.3971 -0.5670  0.1052
42749SOL    HW130254   6.957   9.130  10.267  2.5148 -0.8041 -0.4943
42749SOL    HW230255   6.897   9.267  10.291  1.9984 -1.4949  2.5437
42750SOL     OW30256   7.286   4.936  10.662 -0.8224 -0.4642 -0.2298
42750SOL    HW130257   7.353   4.882  10.702 -1.2170 -2.1389 -1.6866
42750SOL    HW230258   7.252   4.990  10.733 -0.3931 -2.1352  1.3107
42751SOL     OW30259   0.587   6.253   9.783 -0.4368 -0.2789 -0.9927
42751SOL    HW130260   0.645   6.264   9.707  2.0528 -1.0168  0.6947
42751SOL    HW230261   0.592   6.159   9.802 -0.8748 -0.0638  0.2173
42752SOL     OW30262  10.512   8.195   2.592  0.1549 -0.0840 -0.2541
42752SOL    HW130263  10.448   8.167   2.658  0.7421 -0.1162  0.3088
42752SOL    HW230264  10.524   8.118   2.537 -0.4097 -0.0281 -0.4626
42753SOL     OW30265   0.749   2.418   0.714 -0.6036  0.4502  0.7102
42753SOL    HW130266   0.811   2.467   0.660 -1.9655  1.6147  0.1655
42753SOL    HW230267   0.667   2.466   0.708 -1.1744 -0.1546  2.7291
42754SOL     OW30268   1.154   9.800   5.014 -0.5831 -0.1393  0.4694
42754SOL    HW130269   1.115   9.886   5.033 -1.8638 -0.6481  0.2625
42754SOL    HW230270   1.177   9.804   4.921  2.1985  1.0186  1.1061
42755SOL     OW30271   6.609   4.867   4.429  0.3382 -0.1212  0.1082
42755SOL    HW130272   6.687   4.857   4.484 -1.3207 -0.3696  2.5514
42755SOL    HW230273   6.582   4.778   4.409  1.1852 -0.0380 -1.6085
42756SOL     OW30274   0.887   4.844   0.552  0.2633  0.2704 -0.1474
42756SOL    HW130275   0.837   4.891   0.619  1.0326  1.5423 -0.4359
42756SOL    HW230276   0.821   4.815   0.489 -0.5323 -1.3368  1.3325
42757SOL     OW30277   7.262   2.621  10.137  0.1449 -0.1958 -0.1933
42757SOL    HW130278   7.322   2.680  10.093  0.9120 -0.2573  0.7364
42757SOL    HW230279   7.268   2.539  10.088  2.2698 -0.7973  0.9617
42758SOL     OW30280   7.900   0.738   4.730 -0.2388  0.1960  0.1431
42758SOL    HW130281   7.991   0.719   4.752 -0.1166 -0.8634 -1.1645
42758SOL    HW230282   7.856   0.744   4.815  0.6356 -1.4896  0.7610
42759SOL     OW30283   9.791  11.006   5.258  0.1491  0.4600  0.3647
42759SOL    HW130284   9.732  10.967   5.322 -0.8056  1.0433 -0.1385
42759SOL    HW230285   9.733  11.047   5.194  1.0354 -0.8498 -1.3558
42760SOL     OW30286   4.466   7.241  10.371  0.1411 -0.0699 -0.6389
42760SOL    HW130287   4.523   7.165  10.380  0.5660  0.3448  0.3648
42760SOL    HW230288   4.378   7.209  10.392  0.6468  0.1659  2.1796
42761SOL     OW30289   4.373   0.025   8.708 -0.1104 -0.5299  0.5573
42761SOL    HW130290   4.415  -0.054   8.740  0.5793 -1.2889 -1.9873
42761SOL    HW230291   4.438   0.066   8.651 -0.6751  1.5667  1.3450
42762SOL     OW30292  10.451   1.004   1.089 -0.3515 -0.0263  0.5813
42762SOL    HW130293  10.385   0.978   1.025  1.6080  1.3586 -2.1708
42762SOL    HW230294  10.514   0.931   1.090  0.3814  0.5726 -0.2373
42763SOL     OW30295   2.859   0.823   7.694  0.2807 -0.1367  0.4461
42763SOL    HW130296   2.868   0.738   7.739 -0.8269 -0.5226 -0.0307
42763SOL    HW230297   2.929   0.877   7.732 -0.0798 -0.7094  2.0296
42764SOL     OW30298   0.732   2.984   4.062  0.8691  0.1668  0.2048
42764SOL    HW130299   0.734   3.055   4.125  1.6663 -0.6435  1.1457
42764SOL    HW230300   0.749   3.026   3.978  1.9968  1.0275  0.8224
42765SOL     OW30301   0.539   9.114  10.160  0.1598  0.3655 -0.1489
42765SOL    HW130302   0.475   9.058  10.204 -0.1386 -0.1218 -1.1850
42765SOL    HW230303   0.563   9.179  10.226  0.2296 -0.7444  0.9672
42766SOL     OW30304   0.201   2.493   8.801 -0.4827  0.1539 -0.4396
42766SOL    HW130305   0.225   2.586   8.805  0.3419 -0.0739  0.3655
42766SOL    HW230306   0.270   2.449   8.850 -1.2572 -0.8125 -0.1876
42767SOL     OW30307   1.698   5.842   0.386  0.0904  0.2790  0.3251
42767SOL    HW130308   1.670   5.924   0.428 -1.2518  0.1798 -0.3333
42767SOL    HW230309   1.621   5.785   0.390  0.8363 -0.7603  0.2638
42768SOL     OW30310   5.334   1.739   7.563 -0.2867 -0.3961 -0.1375
42768SOL    HW130311   5.259   1.757   7.620  0.7423 -1.6304  1.7213
42768SOL    HW230312   5.344   1.644   7.566 -1.0041 -0.6928 -3.5913
42769SOL     OW30313   9.244   5.284   8.576 -0.5382  0.1021  0.3532
42769SOL    HW130314   9.333   5.315   8.561  0.2395 -2.2385 -0.1619
42769SOL    HW230315   9.191   5.335   8.515  0.5570  0.8780  0.0116
42770SOL     OW30316   5.416   1.944   9.246  0.2389 -0.1446 -0.0166
42770SOL    HW130317   5.366   1.887   9.304  1.2179 -1.0162 -0.0024
42770SOL    HW230318   5.448   1.886   9.177  1.7887  0.2430  0.3379
42771SOL     OW30319   9.374   7.082   1.959 -0.0513 -0.0630  0.1151
42771SOL    HW130320   9.311   7.019   1.994 -0.5420 -0.3753 -1.2532
42771SOL    HW230321   9.439   7.091   2.027 -0.5571 -1.2244  0.7872
42772SOL     OW30322   4.724   1.644   4.160 -0.4107 -0.1448  0.4862
42772SOL    HW130323   4.713   1.660   4.066  0.4391 -1.1974  0.1896
42772SOL    HW230324   4.702   1.728   4.201 -0.4585  0.4306 -0.6761
42773SOL     OW30325   0.405   4.027   7.709  0.0322 -0.1393 -0.2310
42773SOL    HW130326   0.350   4.106   7.714 -1.0659 -0.8898 -0.1446
42773SOL    HW230327   0.445   4.031   7.623 -1.4584 -0.4037 -0.9606
42774SOL     OW30328   4.665   8.187   7.323  0.2727  0.1203 -0.0608
42774SOL    HW130329   4.695   8.137   7.247 -1.5319 -1.8876  0.4364
42774SOL    HW230330   4.668   8.124   7.396 -0.7582  1.1401  0.9087
42775SOL     OW30331   7.523   1.749   1.531  0.2454 -0.2128 -0.0497
42775SOL    HW130332   7.610   1.730   1.495 -0.3738 -3.1718 -0.2042
42775SOL    HW230333   7.489   1.819   1.475  1.7812 -0.2901 -1.1544
42776SOL     OW30334   3.602   3.447   3.265 -0.2064  0.7038  0.0097
42776SOL    HW130335   3.646   3.503   3.201 -0.0993  1.0011  0.3367
42776SOL    HW230336   3.508   3.459   3.247 -0.2307  1.8571  0.7794
42777SOL     OW30337   0.507   9.102   9.431  0.0701 -0.2299  0.1602
42777SOL    HW130338   0.588   9.103   9.481  0.6657  0.4868 -0.7884
42777SOL    HW230339   0.502   9.189   9.391 -1.0783 -0.3195  0.0697
42778SOL     OW30340  10.962   7.493   8.076 -0.7261 -0.2751  0.0270
42778SOL    HW130341  10.943   7.585   8.058 -3.3378 -0.3855  1.7574
42778SOL    HW230342  11.000   7.461   7.994  0.5453  2.3434 -0.5407
42779SOL     OW30343  10.895   5.089   5.450 -0.3710 -0.0298  0.6737
42779SOL    HW130344  10.830   5.151   5.418 -1.8524 -1.5526  0.5660
42779SOL    HW230345  10.884   5.012   5.395 -0.8244 -1.5650  2.7526
42780SOL     OW30346   6.144   9.553   6.183 -0.1711 -0.0341 -0.1360
42780SOL    HW130347   6.132   9.495   6.108  0.6148 -0.9050  0.3740
42780SOL    HW230348   6.239   9.564   6.190 -0.1475 -0.8711  1.3656
42781SOL     OW30349   3.008   1.553   9.816 -0.0802 -0.0988  0.1709
42781SOL    HW130350   3.055   1.611   9.757 -0.4114  0.1078  0.1050
42781SOL    HW230351   2.985   1.477   9.762  1.0456 -0.6602  0.4631
42782SOL     OW30352   5.368   9.909   4.801  0.2596 -0.1672 -0.3771
42782SOL    HW130353   5.364   9.855   4.722 -2.2534  1.0709 -1.2041
42782SOL    HW230354   5.352   9.848   4.873  0.7576 -1.0268 -0.9866
42783SOL     OW30355   0.336   5.981   8.807 -0.2572  0.0595  0.7235
42783SOL    HW130356   0.241   5.966   8.807 -0.6414  2.1594  0.0825
42783SOL    HW230357   0.360   5.978   8.714  0.3823 -0.7258  0.9020
42784SOL     OW30358   2.281   2.103   7.236 -0.7757  0.0562  0.3241
42784SOL    HW130359   2.365   2.146   7.250 -0.6270  0.0090 -0.3543
42784SOL    HW230360   2.228   2.167   7.188 -1.2282  0.1880  0.9856
42785SOL     OW30361   6.903  10.332   5.871 -0.8448  0.5133  0.4044
42785SOL    HW130362   6.898  10.388   5.794  0.5459  0.3166  0.1458
42785SOL    HW230363   6.941  10.250   5.839 -0.1417  0.4716  1.3045
42786SOL     OW30364   4.567   1.924   3.111  0.0870 -0.3178  0.3287
42786SOL    HW130365   4.493   1.946   3.169 -1.4996 -1.7219 -1.0529
42786SOL    HW230366   4.567   1.993   3.045 -0.1895 -0.4548  0.1804
42787SOL     OW30367   9.153  10.658  10.870 -0.1742  0.0212 -0.7217
42787SOL    HW130368   9.237  10.702  10.881 -0.3292  0.0655  0.3775
42787SOL    HW230369   9.176  10.565  10.862 -0.0183  0.0318 -0.4141
42788SOL     OW30370   5.722   8.790   5.656 -0.3240 -0.0862  0.2485
42788SOL    HW130371   5.669   8.869   5.664 -1.8370 -0.9756 -0.5091
42788SOL    HW230372   5.776   8.805   5.579  0.1660  0.6084  0.7109
42789SOL     OW30373   1.165   7.557   8.988 -1.0188  0.5532 -0.2941
42789SOL    HW130374   1.073   7.580   8.999 -1.7399 -0.6533 -2.9192
42789SOL    HW230375   1.176   7.550   8.893  1.4172 -0.7293  0.0145
42790SOL     OW30376   7.615   0.317   4.000  0.2537 -0.0790  0.0369
42790SOL    HW130377   7.606   0.294   4.092  0.4163 -0.4015 -0.0246
42790SOL    HW230378   7.684   0.259   3.967  3.0265  2.6172  0.6283
42791SOL     OW30379   2.743   4.695   2.094  0.0192 -0.2593 -0.3347
42791SOL    HW130380   2.754   4.614   2.143 -1.1656  0.1324  0.6486
42791SOL    HW230381   2.803   4.757   2.136 -0.4685 -0.1235  0.1860
42792SOL     OW30382   0.837   9.849   6.820  0.6569  0.1829  0.1140
42792SOL    HW130383   0.821   9.943   6.834 -0.8044 -0.2021  1.2547
42792SOL    HW230384   0.911   9.829   6.878  0.6524  0.5217  0.2428
42793SOL     OW30385   1.639   5.043   4.591 -0.2497  0.5113  0.3342
42793SOL    HW130386   1.595   4.982   4.532 -0.4815  1.0772 -0.0886
42793SOL    HW230387   1.732   5.022   4.581 -0.3471  0.0015  0.4568
42794SOL     OW30388   6.882   4.394   1.880 -0.0306  0.0010 -0.2768
42794SOL    HW130389   6.956   4.433   1.927 -0.3015  0.7100 -0.4218
42794SOL    HW230390   6.915   4.309   1.850  1.7829  1.4403 -2.8459
42795SOL     OW30391   8.050   8.868   4.130 -0.2106 -0.0368  0.3096
42795SOL    HW130392   8.061   8.940   4.068  2.0181 -0.0541  0.6308
42795SOL    HW230393   7.955   8.853   4.132 -0.4285  0.4279 -2.5336
42796SOL     OW30394   6.251   9.266   0.086 -0.0111  0.7752 -0.6735
42796SOL    HW130395   6.210   9.352   0.079 -2.0755  0.2969  2.9508
42796SOL    HW230396   6.281   9.262   0.177  1.7000 -1.6699 -1.2752
42797SOL     OW30397   2.450   4.583   7.857 -0.1467  0.0140  0.1750
42797SOL    HW130398   2.477   4.583   7.765  0.6742 -0.9156  0.4065
42797SOL    HW230399   2.519   4.632   7.902 -0.4306  0.2701  0.3338
42798SOL     OW30400   1.029  10.159   3.625 -0.1803  0.2905  0.1799
42798SOL    HW130401   1.058  10.186   3.712 -0.3559  0.7607  0.0973
42798SOL    HW230402   0.964  10.225   3.600 -1.0875 -0.5548  0.2258
42799SOL     OW30403   5.615   6.065  10.121 -0.1968 -0.3144  0.2501
42799SOL    HW130404   5.626   6.097  10.031 -1.8971 -0.8777 -0.2027
42799SOL    HW230405   5.549   6.123  10.159  0.1724 -0.3671  0.9925
42800SOL     OW30406   1.676   8.207   2.027 -0.4211  0.3279  0.4517
42800SOL    HW130407   1.645   8.213   1.937 -1.7930 -0.4209  0.8516
42800SOL    HW230408   1.684   8.113   2.044  2.0828  0.4694  0.3990
42801SOL     OW30409   6.138   5.556   1.285  0.0011 -0.6629 -0.1082
42801SOL    HW130410   6.228   5.573   1.312  0.0590 -1.7315  0.4368
42801SOL    HW230411   6.085   5.619   1.334  0.3870 -0.5544  0.1719
42802SOL     OW30412   1.709  10.747   5.544 -0.2546 -0.1976  0.4118
42802SOL    HW130413   1.792  10.768   5.586 -0.9373  0.8271  1.3183
42802SOL    HW230414   1.732  10.725   5.454  1.0488 -0.5257  0.8062
42803SOL     OW30415   4.706   5.636   7.376 -0.4005  0.4987  0.1318
42803SOL    HW130416   4.632   5.673   7.423 -1.5743  0.1691 -1.3925
42803SOL    HW230417   4.755   5.713   7.346  0.5279  0.7180  2.0286
42804SOL     OW30418   8.374  10.397  10.073 -0.2361 -0.0482  0.0932
42804SOL    HW130419   8.418  10.373   9.992  0.1970 -3.0187  1.0832
42804SOL    HW230420   8.442  10.437  10.127  0.6157 -1.9350  0.5090
42805SOL     OW30421   1.444   3.151   6.433 -0.2752 -0.2164  0.1396
42805SOL    HW130422   1.420   3.203   6.356 -2.0555  0.2694  0.9655
42805SOL    HW230423   1.376   3.172   6.497  0.5490 -1.4626  1.4605
42806SOL     OW30424   5.874   7.976   1.519  0.2547 -0.2239 -0.2371
42806SOL    HW130425   5.939   7.908   1.540  1.0301  0.7061  0.4671
42806SOL    HW230426   5.839   7.950   1.434  0.5546 -1.4930  0.0126
42807SOL     OW30427   2.196   5.217   4.859 -0.2259 -0.1585  0.1768
42807SOL    HW130428   2.173   5.279   4.928  0.8595 -0.0176  0.4397
42807SOL    HW230429   2.277   5.253   4.821 -1.1487  0.1129 -1.6133
42808SOL     OW30430   5.883   9.640   3.811  0.0722  0.1514  0.5801
42808SOL    HW130431   5.873   9.616   3.719 -0.9263  0.6703  0.5414
42808SOL    HW230432   5.972   9.612   3.833  1.6840  3.0574 -1.4810
42809SOL     OW30433   7.948   4.806   3.864 -0.5033 -0.1017 -0.0430
42809SOL    HW130434   7.919   4.883   3.816 -1.8846 -0.3898  0.2863
42809SOL    HW230435   7.911   4.732   3.816  0.5231 -0.5576 -0.1612
42810SOL     OW30436   1.410   2.982   1.248  0.3984  0.0648  0.1584
42810SOL    HW130437   1.452   2.929   1.316 -0.2372 -1.8541 -0.8803
42810SOL    HW230438   1.317   2.978   1.268  0.2130 -0.4409 -0.7607
42811SOL     OW30439   8.698   0.386   1.891 -0.3023  0.1963 -0.1317
42811SOL    HW130440   8.761   0.319   1.918 -0.9583 -0.2685  0.3165
42811SOL    HW230441   8.614   0.354   1.927 -1.3805 -0.7845 -3.1749
42812SOL     OW30442   9.401   3.907   8.549 -0.4485  0.8942  0.6333
42812SOL    HW130443   9.321   3.945   8.583 -0.1188  1.3913  0.8605
42812SOL    HW230444   9.465   3.917   8.619 -0.9179 -2.2008  1.6777
42813SOL     OW30445  10.323   0.178   6.208 -0.1215  0.1163  0.1903
42813SOL    HW130446  10.287   0.183   6.297 -1.2611  0.1599 -0.2571
42813SOL    HW230447  10.417   0.188   6.220 -0.1063 -1.2115  1.5259
42814SOL     OW30448   0.215   0.188   0.857  0.4865  0.1447  0.6496
42814SOL    HW130449   0.171   0.215   0.938 -1.3228 -0.7823  0.0365
42814SOL    HW230450   0.258   0.268   0.826 -1.6199  1.4215  0.8058
42815SOL     OW30451  10.151   6.432   0.840 -0.2742  0.0680 -0.2876
42815SOL    HW130452  10.196   6.499   0.891 -0.2808  0.5396 -0.8992
42815SOL    HW230453  10.059   6.442   0.865 -0.3751  0.7728 -0.9159
42816SOL     OW30454   3.078   7.922   5.997  0.1083  0.1984  0.1970
42816SOL    HW130455   3.126   7.899   5.917  0.5818  0.1626  0.4898
42816SOL    HW230456   2.986   7.906   5.975  0.2860 -0.3697 -0.1553
42817SOL     OW30457   5.110   9.521   7.270 -0.3037 -0.2635  0.1641
42817SOL    HW130458   5.116   9.446   7.328  2.2522 -0.4826 -0.2518
42817SOL    HW230459   5.160   9.495   7.192 -0.6481  1.3012 -0.6177
42818SOL     OW30460   4.392   5.412   5.311 -0.0064  0.1459  0.1862
42818SOL    HW130461   4.299   5.414   5.291 -0.0953 -0.9859  0.4505
42818SOL    HW230462   4.434   5.439   5.229 -0.4823 -1.8225 -0.7664
42819SOL     OW30463   5.367   9.127   5.253 -0.7581 -0.4134  0.1052
42819SOL    HW130464   5.396   9.192   5.189  1.8833 -1.3408  0.2094
42819SOL    HW230465   5.332   9.179   5.326  1.1963  0.9763  0.1548
42820SOL     OW30466   4.392   4.772   1.121  0.1755  0.0406  0.2792
42820SOL    HW130467   4.415   4.704   1.185 -0.1631 -0.8015 -0.4596
42820SOL    HW230468   4.408   4.730   1.036 -2.2715  0.0314 -0.2555
42821SOL     OW30469   4.789   7.244   6.604 -0.5031  0.2189 -0.4218
42821SOL    HW130470   4.716   7.183   6.603 -1.8341  1.7532 -0.5290
42821SOL    HW230471   4.830   7.232   6.690  0.3692 -2.0155 -1.0878
42822SOL     OW30472   1.221  10.329   5.691  0.1689  0.3008 -0.2082
42822SOL    HW130473   1.171  10.277   5.628  1.1428 -0.7453 -0.1532
42822SOL    HW230474   1.238  10.411   5.645 -0.5897  0.2156 -0.6641
42823SOL     OW30475   6.752   7.238   2.714 -0.1882 -0.4447  0.1370
42823SOL    HW130476   6.780   7.242   2.622 -1.8218 -4.0135 -0.6939
42823SOL    HW230477   6.661   7.209   2.709 -0.6019  0.1366  2.9328
42824SOL     OW30478   5.322   3.816   8.431  0.3394 -0.1091 -0.1215
42824SOL    HW130479   5.416   3.809   8.418  0.4636  0.5470  0.3971
42824SOL    HW230480   5.286   3.810   8.342  0.8552 -0.4884 -0.3118
42825SOL     OW30481   0.412   9.251   0.234  0.5858  0.4160 -0.3406
42825SOL    HW130482   0.435   9.240   0.326 -1.0819 -0.4879  0.0220
42825SOL    HW230483   0.494   9.242   0.187  1.2032 -1.1682  0.9263
42826SOL     OW30484   5.552   9.898   5.426  0.1766  0.4554  0.0598
42826SOL    HW130485   5.646   9.880   5.430 -0.3041 -2.5651  0.1951
42826SOL    HW230486   5.533   9.942   5.509  1.4949  1.3797 -0.0981
42827SOL     OW30487   9.723   8.415   4.722 -1.2247 -0.0983  0.6850
42827SOL    HW130488   9.768   8.351   4.667 -0.3971  0.4906  0.6527
42827SOL    HW230489   9.631   8.406   4.699 -0.9449 -0.1693 -0.4841
42828SOL     OW30490   6.088   3.631   1.592  0.0183  0.2414  0.3168
42828SOL    HW130491   6.019   3.592   1.646  2.1099 -1.9895  1.5982
42828SOL    HW230492   6.165   3.577   1.610  1.0344 -0.2868 -4.5022
42829SOL     OW30493   7.995   7.632   3.439 -0.1940  0.5353 -0.4437
42829SOL    HW130494   7.998   7.639   3.344  0.4020  1.9717 -0.3427
42829SOL    HW230495   7.919   7.576   3.457 -0.5820  0.6242 -1.7380
42830SOL     OW30496   9.538   9.989   8.926 -0.1050 -0.4095 -0.1024
42830SOL    HW130497   9.455  10.021   8.890 -0.2751 -0.3837  0.2967
42830SOL    HW230498   9.605  10.026   8.870 -0.2978  0.5830  0.2996
42831SOL     OW30499   7.898   8.576   6.485 -0.2460  0.0308 -0.1585
42831SOL    HW130500   7.929   8.662   6.512  1.0351 -0.7677  1.0703
42831SOL    HW230501   7.819   8.562   6.538 -0.1841  0.2364 -0.0105
42832SOL     OW30502   0.029   2.036   7.950 -0.1990 -0.1241  0.0729
42832SOL    HW130503  -0.053   2.000   7.982  1.5476 -2.3143  2.5394
42832SOL    HW230504   0.044   2.114   8.003  0.4986 -1.1857  1.4854
42833SOL     OW30505   5.581   6.391  10.546 -0.5744 -0.0366  0.0086
42833SOL    HW130506   5.557   6.417  10.457 -1.5627  0.2287  0.3377
42833SOL    HW230507   5.545   6.303  10.556 -1.2723  0.2970  0.4534
42834SOL     OW30508   0.291  10.087   3.200  0.0486 -0.1320  0.1565
42834SOL    HW130509   0.329  10.001   3.184  1.4649  0.3275  0.7940
42834SOL    HW230510   0.285  10.093   3.295 -1.0107  0.0822  0.0784
42835SOL     OW30511   5.788   4.279   0.591  0.0444  0.3239  0.2115
42835SOL    HW130512   5.739   4.328   0.657 -1.1568 -1.1292  0.4738
42835SOL    HW230513   5.735   4.287   0.511 -1.0544 -1.7920  0.6588
42836SOL     OW30514   8.536   8.159   8.331 -0.6128 -0.6416 -0.2653
42836SOL    HW130515   8.490   8.241   8.349 -1.4774 -1.2768  0.5117
42836SOL    HW230516   8.577   8.173   8.245  1.1776  1.4216  0.8257
42837SOL     OW30517   1.393   4.734   3.710  0.2645 -0.0616 -0.5507
42837SOL    HW130518   1.340   4.772   3.640 -0.9981  0.3807  0.5928
42837SOL    HW230519   1.341   4.660   3.742 -0.1956  0.9813  1.2513
42838SOL     OW30520   5.482   7.280   6.430  0.1706  0.5107 -0.2252
42838SOL    HW130521   5.490   7.373   6.452 -1.8717  1.0615 -1.5266
42838SOL    HW230522   5.389   7.260   6.443 -0.4452 -0.0823 -4.1918
42839SOL     OW30523   6.123   8.801   4.242  0.7476 -0.5041 -0.1195
42839SOL    HW130524   6.044   8.769   4.198  0.3994 -0.3549  0.3908
42839SOL    HW230525   6.139   8.738   4.312 -0.2404  0.6782  1.2183
42840SOL     OW30526   9.173   9.157   2.392  0.3682  0.4740 -0.1154
42840SOL    HW130527   9.180   9.064   2.413  2.7948  0.8650  1.1508
42840SOL    HW230528   9.115   9.192   2.460  0.5031  0.1262  0.1822
42841SOL     OW30529  10.663   9.356   1.541 -0.0743 -0.5353 -0.2097
42841SOL    HW130530  10.660   9.296   1.467 -0.0270  0.7463 -1.2890
42841SOL    HW230531  10.730   9.420   1.517 -1.5784  1.1637 -0.0598
42842SOL     OW30532   1.243   9.271   3.734 -0.2406  0.0112  0.3626
42842SOL    HW130533   1.281   9.208   3.795  1.1986 -0.4017 -0.8828
42842SOL    HW230534   1.166   9.227   3.698 -0.6240 -0.0635  1.2652
42843SOL     OW30535   8.005   2.904   4.940 -0.0952 -0.0183 -0.0106
42843SOL    HW130536   7.922   2.936   4.903 -1.2517 -0.9025  1.7206
42843SOL    HW230537   8.023   2.824   4.891  0.5953  0.9843 -1.4624
42844SOL     OW30538   3.828  10.504   2.021 -0.3454  0.1508 -0.2012
42844SOL    HW130539   3.822  10.534   2.111 -0.8852 -1.5147  0.3468
42844SOL    HW230540   3.804  10.581   1.969 -0.1248  1.1065  1.0581
42845SOL     OW30541   9.184   3.136   5.590 -0.2246  0.0662 -0.4968
42845SOL    HW130542   9.170   3.042   5.589 -1.2047  0.2038 -1.5121
42845SOL    HW230543   9.199   3.160   5.499 -2.9538  1.2697 -0.7394
42846SOL     OW30544   0.710   9.289   9.048 -0.3811 -0.3884  0.4454
42846SOL    HW130545   0.762   9.215   9.079  1.3360 -0.0708 -1.4752
42846SOL    HW230546   0.768   9.365   9.055 -1.7149  0.6051  1.2866
42847SOL     OW30547   0.173   5.126   9.465  0.2819 -0.6023 -0.2506
42847SOL    HW130548   0.091   5.101   9.422  0.3263 -0.3808 -0.4696
42847SOL    HW230549   0.222   5.044   9.473 -0.0596 -0.7725  0.0947
42848SOL     OW30550   5.851   3.877   1.440 -0.0076  0.3391  0.4855
42848SOL    HW130551   5.787   3.944   1.464  1.8009  2.0220  0.8954
42848SOL    HW230552   5.895   3.913   1.362  2.1428  0.5137  1.6884
42849SOL     OW30553   8.467   5.624   7.093  0.6850  0.2291  0.3264
42849SOL    HW130554   8.548   5.662   7.059  1.2970 -0.7327  0.6456
42849SOL    HW230555   8.411   5.613   7.015  1.6349 -0.9193 -0.2323
42850SOL     OW30556   7.424   6.917   5.677  0.1698  0.0642 -0.3864
42850SOL    HW130557   7.518   6.933   5.674  0.1715  0.1664  0.1444
42850SOL    HW230558   7.402   6.889   5.588  0.7266 -0.1148 -0.4731
42851SOL     OW30559   6.920   7.612   6.551 -0.1761  0.3845  0.2497
42851SOL    HW130560   6.872   7.599   6.632 -1.0712  0.6298 -0.2281
42851SOL    HW230561   6.911   7.705   6.533 -1.0968  0.1170 -0.7943
42852SOL     OW30562   7.620   7.400   9.877  0.4477  0.3023 -0.2398
42852SOL    HW130563   7.550   7.432   9.819  0.3949  1.1906  0.3084
42852SOL    HW230564   7.589   7.421   9.965  1.7798  1.4643 -0.0267
42853SOL     OW30565   1.356   2.952   6.726 -0.7211 -1.1109  0.4443
42853SOL    HW130566   1.404   2.878   6.689 -0.0552 -0.4547 -0.0125
42853SOL    HW230567   1.415   2.990   6.790  0.5358  1.3379 -1.9890
42854SOL     OW30568   5.553   1.827   2.757  0.4959  0.2882 -0.4984
42854SOL    HW130569   5.470   1.789   2.786  0.5251  0.8026  0.2768
42854SOL    HW230570   5.554   1.812   2.662 -1.4243  2.0474 -0.8715
42855SOL     OW30571   8.546   0.601   1.073 -0.7782 -0.1870 -0.2433
42855SOL    HW130572   8.581   0.513   1.087 -0.1987  0.0952  0.1508
42855SOL    HW230573   8.554   0.615   0.979  0.1035 -0.1720 -0.1764
42856SOL     OW30574   6.995   4.770   8.823 -0.7548  0.6920  0.4158
42856SOL    HW130575   6.942   4.704   8.779 -0.3164  0.9648 -0.5647
42856SOL    HW230576   6.944   4.851   8.817 -1.0954  0.5412  1.2232
42857SOL     OW30577   2.016   2.498  10.913  0.4463  0.4063  0.3905
42857SOL    HW130578   2.016   2.523  11.005  1.9966  2.5129 -0.1007
42857SOL    HW230579   2.107   2.474  10.895  0.2698  0.5103 -0.6918
42858SOL     OW30580   9.520   0.328   5.494  0.0330  0.1243  0.0629
42858SOL    HW130581   9.482   0.416   5.493 -2.0091 -0.6980  0.4420
42858SOL    HW230582   9.583   0.328   5.422 -1.4366  1.2820 -1.2870
42859SOL     OW30583   8.824   0.303   9.176 -0.1343  0.3196 -0.1262
42859SOL    HW130584   8.867   0.384   9.205 -1.2060  0.6761  0.5119
42859SOL    HW230585   8.781   0.327   9.093 -0.2122  0.3286 -0.0836
42860SOL     OW30586   0.623   9.726   4.319  0.7160 -0.3922 -0.3918
42860SOL    HW130587   0.569   9.703   4.243  0.7547 -0.3308 -0.4368
42860SOL    HW230588   0.601   9.817   4.337 -0.2819 -0.7733  0.4778
42861SOL     OW30589   8.509   1.652   5.362  0.5001  0.0856 -0.1111
42861SOL    HW130590   8.520   1.747   5.356 -0.3386  0.1179 -2.0928
42861SOL    HW230591   8.438   1.641   5.425 -0.3648  0.8881 -0.8982
42862SOL     OW30592   1.663   0.655   4.965 -0.0325 -0.1254 -0.1451
42862SOL    HW130593   1.671   0.577   5.020 -0.9275  0.6776  1.1692
42862SOL    HW230594   1.705   0.725   5.015 -0.2952  0.5009 -0.7758
42863SOL     OW30595   2.231   9.211   8.749 -0.4684  0.1086 -0.0572
42863SOL    HW130596   2.231   9.122   8.714 -0.5234 -0.5622  1.5635
42863SOL    HW230597   2.145   9.246   8.728 -0.4770 -0.2320 -0.6187
42864SOL     OW30598   2.898   1.923   1.134 -0.6113 -0.1546  0.1555
42864SOL    HW130599   2.926   2.006   1.174  0.3126 -0.3372 -0.0988
42864SOL    HW230600   2.817   1.946   1.087  0.6374  1.0802 -1.5192
42865SOL     OW30601   6.801   2.111   2.697  0.0429 -0.2545  0.5383
42865SOL    HW130602   6.802   2.016   2.710  0.8021 -0.3991 -0.4379
42865SOL    HW230603   6.894   2.135   2.690 -0.1801  0.3706 -0.4722
42866SOL     OW30604   0.309   5.582   7.976  0.1896  0.0911 -0.4678
42866SOL    HW130605   0.293   5.670   8.007  0.5928  0.4702 -1.2855
42866SOL    HW230606   0.373   5.546   8.037  1.8723  1.2382 -1.4514
42867SOL     OW30607   9.012   6.869   8.095  0.7476  0.0419  0.3765
42867SOL    HW130608   9.053   6.841   8.176 -0.3177 -1.4720  0.4304
42867SOL    HW230609   8.990   6.961   8.110  2.4449  0.3816  0.9926
42868SOL     OW30610   7.813   6.241   1.860  0.1258  0.0095 -0.2928
42868SOL    HW130611   7.828   6.203   1.773  1.7176 -0.0113 -0.0362
42868SOL    HW230612   7.899   6.272   1.888 -0.5743  1.0668  0.8010
42869SOL     OW30613   8.845   2.379   9.494 -0.2541  0.1883 -0.1802
42869SOL    HW130614   8.807   2.360   9.408 -2.7222 -0.0326  0.8625
42869SOL    HW230615   8.864   2.473   9.492  1.3717 -0.1365 -1.5266
42870SOL     OW30616   0.009   6.140   1.808 -0.1115  0.1748  0.9702
42870SOL    HW130617   0.035   6.098   1.726  1.2908  0.0356  1.4526
42870SOL    HW230618   0.041   6.230   1.800 -1.3742  0.6145  0.7363
42871SOL     OW30619   2.305   8.612   7.856 -0.1763 -0.5171 -0.0710
42871SOL    HW130620   2.356   8.545   7.900 -0.0490 -0.0750  0.4703
42871SOL    HW230621   2.307   8.687   7.916  0.2548  0.2086 -0.9591
42872SOL     OW30622   6.514   1.935   9.236 -0.4223 -0.6007 -0.0328
42872SOL    HW130623   6.515   1.973   9.324 -0.9831 -0.6363 -0.0071
42872SOL    HW230624   6.425   1.899   9.227 -0.0973 -1.3590 -0.2852
42873SOL     OW30625   3.603   4.047   3.807 -0.0029 -0.0934  0.0165
42873SOL    HW130626   3.509   4.052   3.789 -0.1218 -0.6550  0.4348
42873SOL    HW230627   3.631   4.138   3.813 -0.0364  0.1323 -2.3991
42874SOL     OW30628   4.852   6.576   5.372 -0.2886  0.5753  0.6740
42874SOL    HW130629   4.778   6.530   5.333  0.7306 -1.6538  1.1740
42874SOL    HW230630   4.848   6.664   5.335 -2.1399 -0.0030 -0.6608
42875SOL     OW30631   6.193  10.995   7.399  0.1366 -0.4123  0.9149
42875SOL    HW130632   6.191  10.941   7.479  0.0981  0.1324  1.2856
42875SOL    HW230633   6.281  11.033   7.398 -0.1261  0.2144  1.1260
42876SOL     OW30634   5.188   8.102   9.305 -0.2927 -0.7314  0.1802
42876SOL    HW130635   5.228   8.095   9.391 -0.8542 -0.4614  0.4648
42876SOL    HW230636   5.262   8.114   9.245  0.0563 -0.2786  0.6962
42877SOL     OW30637   2.526   1.541   2.078  0.4317 -0.1869 -0.2745
42877SOL    HW130638   2.519   1.567   1.986  0.1869  1.8179  0.2568
42877SOL    HW230639   2.588   1.468   2.078  0.9840  0.2371 -1.9484
42878SOL     OW30640   5.715   3.251   7.063  0.7005  0.2485  0.3909
42878SOL    HW130641   5.627   3.245   7.026  1.5345 -1.4801 -1.4601
42878SOL    HW230642   5.706   3.212   7.150 -0.3019 -0.1681  0.1181
42879SOL     OW30643   5.953   0.293   9.285 -0.1875 -0.0539 -0.3496
42879SOL    HW130644   5.973   0.366   9.226  0.3593  0.4179  0.3813
42879SOL    HW230645   6.032   0.239   9.283 -0.5015 -0.4976 -0.7080
42880SOL     OW30646  10.576  10.732   0.392  0.4843 -0.3743 -0.1656
42880SOL    HW130647  10.616  10.731   0.479 -0.3788  0.7297  0.2651
42880SOL    HW230648  10.623  10.801   0.344  0.0300 -0.0198 -0.1080
42881SOL     OW30649   2.259  10.621   4.011  0.3394  0.1849 -0.7502
42881SOL    HW130650   2.267  10.572   4.093  0.8937 -1.1386 -1.5482
42881SOL    HW230651   2.346  10.659   3.998 -0.2701  2.0004  0.1978
42882SOL     OW30652  10.421  10.871   3.944  0.7091 -0.0641 -0.0073
42882SOL    HW130653  10.416  10.795   3.886  1.1547  1.1827 -1.7748
42882SOL    HW230654  10.379  10.942   3.894  1.3495  1.1424  1.0929
42883SOL     OW30655   2.373   8.821   9.357 -0.3561  0.4996 -0.2998
42883SOL    HW130656   2.311   8.767   9.309  1.4475 -3.2467  1.2262
42883SOL    HW230657   2.446   8.833   9.297 -0.1278 -0.0159 -0.1212
42884SOL     OW30658   4.072   7.601   2.772 -0.2549 -0.3417  0.3123
42884SOL    HW130659   4.110   7.652   2.701 -1.8358 -1.0825 -1.1345
42884SOL    HW230660   4.106   7.512   2.759  0.1333 -0.3043  1.0238
42885SOL     OW30661   8.865   5.575   5.114  0.9599 -0.2774 -0.0721
42885SOL    HW130662   8.928   5.634   5.073  0.4711 -0.4935 -1.1962
42885SOL    HW230663   8.874   5.590   5.208  2.3784 -0.0111 -0.2390
42886SOL     OW30664   2.109   5.114   1.398 -0.5905  0.2552  0.4413
42886SOL    HW130665   2.047   5.060   1.448 -0.7139 -0.1199 -0.1089
42886SOL    HW230666   2.166   5.153   1.464 -1.2767  0.4281  0.9417
42887SOL     OW30667   5.709   7.144   8.129  0.5577  0.3756 -0.3153
42887SOL    HW130668   5.729   7.191   8.048 -0.7727  0.1572 -0.7889
42887SOL    HW230669   5.620   7.172   8.152  1.1004  0.8631  1.3811
42888SOL     OW30670   4.563   8.717   7.890 -0.4096  0.0985  0.1879
42888SOL    HW130671   4.500   8.786   7.908 -1.6856 -0.1424 -2.7022
42888SOL    HW230672   4.530   8.641   7.937 -0.5830  0.7335  1.1061
42889SOL     OW30673   5.892   0.035   9.020  0.1218  0.2294 -0.9514
42889SOL    HW130674   5.822   0.100   9.015  0.9806  1.3937  0.8619
42889SOL    HW230675   5.857  -0.032   9.079  0.1084  0.2731 -0.9090
42890SOL     OW30676   4.219   8.403   3.123  0.0214  0.2687  0.2586
42890SOL    HW130677   4.185   8.422   3.210  1.5453 -0.8211  1.1519
42890SOL    HW230678   4.255   8.314   3.130  0.8191  0.4334 -1.2707
42891SOL     OW30679   4.018   5.909   7.795 -0.1681 -0.0009 -0.0326
42891SOL    HW130680   3.985   5.928   7.883 -0.8379  0.1729 -0.3116
42891SOL    HW230681   4.102   5.866   7.809 -0.0943  0.3640  0.6827
42892SOL     OW30682   8.304   0.934   3.513 -0.4321 -0.0903  0.0271
42892SOL    HW130683   8.363   0.938   3.438 -3.6565 -0.2933 -2.8168
42892SOL    HW230684   8.292   0.840   3.529 -0.9607 -0.0857 -0.3118
42893SOL     OW30685   2.271   2.871   0.564 -0.0662 -0.1321  0.0438
42893SOL    HW130686   2.327   2.949   0.563 -1.3175  0.8100  1.0808
42893SOL    HW230687   2.297   2.823   0.485  0.9393  1.1847 -0.4727
42894SOL     OW30688   9.650  10.796   6.897 -0.1169  0.3205  0.5118
42894SOL    HW130689   9.671  10.763   6.985 -0.7256  1.0104  0.9269
42894SOL    HW230690   9.717  10.757   6.841  1.3062  1.1488  1.5431
42895SOL     OW30691   8.248   5.009   4.000 -0.1809 -0.0268  0.2018
42895SOL    HW130692   8.272   5.102   3.991 -0.4558  0.0892  0.6176
42895SOL    HW230693   8.202   4.989   3.918  2.1057 -0.5235 -1.0464
42896SOL     OW30694   0.619  10.822   5.497 -0.2198 -0.2458  0.0041
42896SOL    HW130695   0.667  10.849   5.418  0.3630 -0.3097  0.3288
42896SOL    HW230696   0.685  10.821   5.566 -0.9752  1.0165  0.7687
42897SOL     OW30697   3.973   7.081   1.278  0.2241 -0.1035  0.0480
42897SOL    HW130698   4.053   7.097   1.328 -0.3737  1.2291  0.6458
42897SOL    HW230699   3.907   7.063   1.345 -0.5004  1.2993 -0.2539
42898SOL     OW30700   8.589   6.332   1.674  0.4935  0.2583  0.3263
42898SOL    HW130701   8.682   6.351   1.687  0.1708  2.2039  0.1363
42898SOL    HW230702   8.544   6.407   1.714 -0.9101  0.3435 -1.3162
42899SOL     OW30703   5.632   9.053   6.816 -0.2639  0.4422  0.4719
42899SOL    HW130704   5.678   8.971   6.836  0.0155  0.4835  0.0235
42899SOL    HW230705   5.701   9.114   6.792 -0.5895  0.2623 -1.0456
42900SOL     OW30706   2.124   2.070   5.559 -0.4967 -0.5193 -0.1375
42900SOL    HW130707   2.032   2.093   5.550 -0.3369  0.1988  0.0118
42900SOL    HW230708   2.123   1.981   5.596 -1.1202 -0.9017 -1.0323
42901SOL     OW30709   7.717  10.733  10.278  0.0046  0.2006  0.3139
42901SOL    HW130710   7.655  10.691  10.219 -1.0769 -0.4312  1.8591
42901SOL    HW230711   7.783  10.771  10.219 -1.0580 -0.3288 -1.2937
42902SOL     OW30712  10.240  10.568   9.260  0.4992 -0.0113  0.0773
42902SOL    HW130713  10.247  10.529   9.173 -1.1050 -1.8139  0.6747
42902SOL    HW230714  10.275  10.656   9.250  0.3362 -0.1626 -2.3829
42903SOL     OW30715  10.076   8.896   7.967  1.1463  0.2776 -0.3783
42903SOL    HW130716  10.003   8.871   7.910 -0.6262  3.5530  0.2078
42903SOL    HW230717  10.054   8.858   8.052  0.1418  1.0819 -0.2517
42904SOL     OW30718   3.376   0.064   8.579  0.1505 -0.2173 -0.0655
42904SOL    HW130719   3.409   0.090   8.494  1.7361 -0.9829  0.2776
42904SOL    HW230720   3.290   0.105   8.586  1.1974  2.2296 -0.8192
42905SOL     OW30721   0.277   9.882   6.696  0.5184 -0.1512  0.4078
42905SOL    HW130722   0.284   9.926   6.780  0.3014  0.4389  0.1266
42905SOL    HW230723   0.368   9.876   6.664  0.4458  1.1675 -0.0824
42906SOL     OW30724   9.946   8.524   7.478 -0.5466  0.6285  0.4406
42906SOL    HW130725   9.891   8.449   7.460  0.4804  0.3339 -1.7602
42906SOL    HW230726   9.920   8.590   7.414  0.0752  1.3186  0.8725
42907SOL     OW30727  10.506   2.661   2.871 -0.5507 -0.4506 -0.0295
42907SOL    HW130728  10.425   2.626   2.909 -1.5684 -0.0755 -1.7314
42907SOL    HW230729  10.538   2.591   2.815 -1.3544  0.4189 -1.6642
42908SOL     OW30730   2.678   0.734   8.720  0.7410  1.0045  0.4446
42908SOL    HW130731   2.751   0.688   8.679  0.7877  1.1347  0.3798
42908SOL    HW230732   2.626   0.665   8.762  0.4719  0.8249 -0.1783
42909SOL     OW30733   8.289   4.801   4.151  0.1415 -0.2452  0.2704
42909SOL    HW130734   8.203   4.758   4.157  0.6373 -1.0439  2.2645
42909SOL    HW230735   8.273   4.877   4.094 -2.0670  0.0320  1.1494
42910SOL     OW30736   3.567   7.464   9.286  0.2440  0.0457 -0.1399
42910SOL    HW130737   3.550   7.462   9.380  1.5949 -1.1243  0.1179
42910SOL    HW230738   3.483   7.441   9.246 -0.4501  0.9546  0.7403
42911SOL     OW30739   5.329   5.969   9.055 -0.0715 -0.6483  0.3613
42911SOL    HW130740   5.249   5.954   9.005 -0.4073  3.1499 -0.5898
42911SOL    HW230741   5.301   6.026   9.128  1.5721 -0.0402  0.5617
42912SOL     OW30742   3.093   0.382   4.095  0.1629 -0.1135  0.5547
42912SOL    HW130743   3.165   0.441   4.119  0.9248 -1.4151  1.6125
42912SOL    HW230744   3.039   0.433   4.035 -0.1935  2.2871  2.7518
42913SOL     OW30745   6.039   0.787   3.139 -0.3788 -0.8362  0.3051
42913SOL    HW130746   6.048   0.850   3.211  0.2970  0.0938 -0.5593
42913SOL    HW230747   5.948   0.795   3.112 -0.2243  0.0391 -0.0050
42914SOL     OW30748   1.333   0.942   0.889 -0.1924 -0.3548 -0.3013
42914SOL    HW130749   1.362   0.920   0.978  0.0513  0.2776 -0.2249
42914SOL    HW230750   1.409   0.923   0.834  0.1915  0.7424 -0.1735
42915SOL     OW30751   3.427   5.619   1.206 -0.3477 -0.6743 -0.0620
42915SOL    HW130752   3.352   5.662   1.165 -0.4531  0.0189  0.8237
42915SOL    HW230753   3.502   5.642   1.150 -0.3819  0.7823  0.4618
42916SOL     OW30754   2.707  10.153   5.050  0.5606 -0.2213  0.1387
42916SOL    HW130755   2.700  10.058   5.037  0.8397 -0.5014  1.8297
42916SOL    HW230756   2.668  10.168   5.137  3.1978  0.7742  1.2445
42917SOL     OW30757   3.654  10.747   8.353  0.1927 -0.5824  0.3080
42917SOL    HW130758   3.744  10.778   8.348  0.3661 -0.9254  1.1179
42917SOL    HW230759   3.661  10.658   8.387 -0.4910 -0.3284  1.1420
42918SOL     OW30760   3.753  10.472   6.252 -0.1789 -0.0071 -0.4536
42918SOL    HW130761   3.829  10.415   6.247 -0.0627  0.1025  0.0201
42918SOL    HW230762   3.701  10.437   6.325 -1.3985 -1.0608 -1.7828
42919SOL     OW30763   4.649   5.152   6.752  0.1301  0.2985  0.4055
42919SOL    HW130764   4.725   5.109   6.791  0.9914  1.4387  0.0175
42919SOL    HW230765   4.617   5.090   6.686  1.1714  0.1241  0.0535
42920SOL     OW30766  10.880   4.457   0.079  0.2657 -0.1953 -0.0637
42920SOL    HW130767  10.897   4.386   0.141 -0.6273 -0.3879 -0.0242
42920SOL    HW230768  10.785   4.459   0.071  0.2663  1.0828  0.0304
42921SOL     OW30769   3.555   6.625   5.627 -0.0373 -0.0417 -0.5600
42921SOL    HW130770   3.560   6.575   5.545 -0.8121 -1.0291 -0.0202
42921SOL    HW230771   3.629   6.686   5.622 -0.1036 -0.0474 -2.0137
42922SOL     OW30772   6.779   3.639  10.654  0.1970 -0.0935 -0.1405
42922SOL    HW130773   6.733   3.715  10.617 -0.3248 -0.2246  0.2209
42922SOL    HW230774   6.736   3.563  10.614  0.1078 -0.2179  0.1886
42923SOL     OW30775   6.280   8.306   7.852 -0.5529 -0.5413 -0.5206
42923SOL    HW130776   6.252   8.233   7.796 -1.7669 -0.4182 -0.1060
42923SOL    HW230777   6.374   8.312   7.839 -0.5284 -1.7973 -1.0255
42924SOL     OW30778  10.940   5.113   8.453 -0.1048  0.4723 -0.0880
42924SOL    HW130779  11.017   5.164   8.477 -0.8499  1.9958 -0.8090
42924SOL    HW230780  10.865   5.165   8.484 -0.9990  1.1943 -3.0717
42925SOL     OW30781   1.517   9.125   0.764 -0.1104  0.9231 -0.2687
42925SOL    HW130782   1.518   9.218   0.787 -0.9975  0.5629  1.4239
42925SOL    HW230783   1.483   9.122   0.675  1.3899  2.3036 -0.9436
42926SOL     OW30784   1.589   7.112   0.484 -0.2025  0.8826 -0.1704
42926SOL    HW130785   1.589   7.062   0.402  0.5101 -0.0317  0.3593
42926SOL    HW230786   1.682   7.122   0.505 -0.3936  0.5857  0.8318
42927SOL     OW30787   6.807   4.816  10.211  0.1884 -0.6420  0.2417
42927SOL    HW130788   6.713   4.824  10.194  0.1058 -1.4307  0.3229
42927SOL    HW230789   6.815   4.816  10.306  0.2066 -1.3023  0.2409
42928SOL     OW30790   5.284  10.496   4.381 -0.2951  0.1305 -0.0631
42928SOL    HW130791   5.259  10.540   4.300 -1.1178 -0.3456 -0.0733
42928SOL    HW230792   5.211  10.437   4.401 -0.5117  0.8429  1.4615
42929SOL     OW30793   6.897   9.981   4.454 -0.1919  0.0909  0.2226
42929SOL    HW130794   6.937   9.903   4.495 -0.5784 -0.4377 -0.3875
42929SOL    HW230795   6.940  10.055   4.497  0.3212 -0.4609  0.6827
42930SOL     OW30796   9.600   6.088   1.104 -0.1433  0.9408 -0.0252
42930SOL    HW130797   9.645   6.004   1.112 -0.8958  0.4800 -0.4745
42930SOL    HW230798   9.594   6.121   1.194 -1.0781 -0.1636  0.3498
42931SOL     OW30799   6.246   7.995   9.290 -0.5794  0.3307  0.2477
42931SOL    HW130800   6.210   8.058   9.228 -1.3704 -0.7067 -0.3913
42931SOL    HW230801   6.339   7.991   9.270 -1.0129 -0.9522 -1.8249
42932SOL     OW30802   2.038   3.284   9.885  0.0093  0.1249  0.0048
42932SOL    HW130803   1.983   3.213   9.917  0.4888  0.9108  2.8887
42932SOL    HW230804   2.120   3.242   9.860 -0.4086 -0.5344 -0.3038
42933SOL     OW30805   6.644   6.538   2.170 -0.1367  0.2524 -0.3297
42933SOL    HW130806   6.693   6.484   2.231  0.0060  1.7001  0.8966
42933SOL    HW230807   6.658   6.628   2.201 -0.7097  0.9678 -2.0262
42934SOL     OW30808   9.680   2.410  10.493 -0.3803  0.0681  0.4783
42934SOL    HW130809   9.719   2.453  10.569 -0.3425  3.0117 -1.0169
42934SOL    HW230810   9.586   2.420  10.505 -0.3688  0.8159  0.0716
42935SOL     OW30811   3.619   3.803   9.330 -0.3261 -0.2094 -0.1023
42935SOL    HW130812   3.711   3.781   9.319 -0.1760  0.2666  0.1516
42935SOL    HW230813   3.604   3.801   9.424 -0.3143  0.6899 -0.0712
42936SOL     OW30814   7.280   5.513   7.383 -0.5619 -0.0867  0.0207
42936SOL    HW130815   7.226   5.457   7.438 -2.3055  2.4980  1.1066
42936SOL    HW230816   7.344   5.453   7.344 -0.3693 -2.3441  3.3798
42937SOL     OW30817   8.219  10.834   1.458 -0.0005 -0.2825  0.1197
42937SOL    HW130818   8.144  10.816   1.515  0.8004  1.9253  2.0035
42937SOL    HW230819   8.296  10.824   1.514  1.0317 -0.8251 -1.3311
42938SOL     OW30820   6.213   7.966   9.559 -1.0554  0.1294  0.0531
42938SOL    HW130821   6.228   7.956   9.465 -1.5023 -2.2447  0.1639
42938SOL    HW230822   6.276   8.032   9.587 -0.2861  0.2076 -1.7650
42939SOL     OW30823  11.010   0.252   9.109  0.5720  0.5221 -0.4977
42939SOL    HW130824  11.025   0.271   9.201  0.7184 -0.4484 -0.3160
42939SOL    HW230825  11.065   0.315   9.062 -0.0158  1.4739  0.0471
42940SOL     OW30826   5.072   5.256   7.430 -0.3862 -0.2335  0.9267
42940SOL    HW130827   5.090   5.348   7.412 -2.3406  0.0504  0.1726
42940SOL    HW230828   5.106   5.242   7.519  1.2229  0.7958  0.5213
42941SOL     OW30829   5.268   0.992   8.595  0.2884 -0.0783 -0.3652
42941SOL    HW130830   5.332   0.922   8.582  1.1789  0.4074  1.1500
42941SOL    HW230831   5.254   0.994   8.690 -2.9608 -0.9971 -0.6737
42942SOL     OW30832   1.836   4.556   1.120  0.2994 -0.2864  0.4389
42942SOL    HW130833   1.916   4.608   1.126  1.4918 -2.1636  2.1209
42942SOL    HW230834   1.785   4.598   1.051  1.7985  2.2087  0.7336
42943SOL     OW30835   3.905   1.690   2.080  0.1532  0.8837  0.4087
42943SOL    HW130836   3.927   1.597   2.075  0.9905  1.0366  0.9415
42943SOL    HW230837   3.936   1.717   2.167  0.3916  1.7723  0.0570
42944SOL     OW30838   1.033   6.631   4.580  0.2213  0.6920  0.6409
42944SOL    HW130839   1.120   6.637   4.539  1.0056  0.5201  2.2054
42944SOL    HW230840   0.990   6.559   4.534  0.3159  1.7008 -1.1490
42945SOL     OW30841   6.186   4.060   4.020  0.1318  0.1315  0.1845
42945SOL    HW130842   6.268   4.047   3.972 -0.4337  0.9053 -1.0218
42945SOL    HW230843   6.118   4.056   3.953 -0.9799 -1.8358  1.3181
42946SOL     OW30844   8.093   7.304  10.822  0.0429 -0.0311  0.2715
42946SOL    HW130845   8.035   7.372  10.856  0.6717  0.4628  0.3965
42946SOL    HW230846   8.130   7.342  10.742  0.8183  0.0112  0.6361
42947SOL     OW30847   4.956   3.903   7.682  0.1908  0.4537 -0.5909
42947SOL    HW130848   5.000   3.926   7.764  1.3602 -1.3861 -0.6491
42947SOL    HW230849   4.876   3.859   7.710  1.1063 -1.1436 -0.3735
42948SOL     OW30850   2.200   3.529   5.984  0.5102  0.1815  0.3447
42948SOL    HW130851   2.224   3.587   5.911  2.4668 -3.3794 -2.1343
42948SOL    HW230852   2.146   3.461   5.944  0.0594 -0.8875  2.6395
42949SOL     OW30853  10.883   8.992   4.158 -0.0291 -0.3952  0.1111
42949SOL    HW130854  10.887   8.911   4.107 -1.5935  0.6521 -1.8075
42949SOL    HW230855  10.905   9.061   4.096 -0.9337  0.8530  1.1269
42950SOL     OW30856   0.160   1.140   8.055 -0.3473 -0.9426  0.2828
42950SOL    HW130857   0.215   1.151   8.132  0.9869 -0.6254 -0.6697
42950SOL    HW230858   0.125   1.052   8.061  1.5769 -1.7595  0.1315
42951SOL     OW30859   1.623   7.199   4.029 -0.2144 -0.2080  0.0091
42951SOL    HW130860   1.549   7.213   3.971 -0.1535  1.2240  0.2467
42951SOL    HW230861   1.636   7.283   4.073  1.5776 -0.3876 -0.0724
42952SOL     OW30862   8.165   3.667  10.275 -0.7980 -0.9137  0.5027
42952SOL    HW130863   8.236   3.670  10.339  0.6194 -1.2349 -0.9877
42952SOL    HW230864   8.153   3.574  10.257 -2.2994 -0.9275  1.4576
42953SOL     OW30865   4.720   9.768  10.901 -0.7987  0.1618  0.6026
42953SOL    HW130866   4.757   9.693  10.854 -1.1325 -0.3154  1.0913
42953SOL    HW230867   4.637   9.785  10.856 -0.7129  0.2603  0.4778
42954SOL     OW30868  10.761   3.439   0.459 -0.0476 -0.2902 -0.1479
42954SOL    HW130869  10.831   3.477   0.406  0.2005 -0.8444 -0.2256
42954SOL    HW230870  10.796   3.355   0.489 -0.4992 -0.3563  0.2096
42955SOL     OW30871   0.883   9.389   8.582 -0.0417 -0.1016  0.0005
42955SOL    HW130872   0.867   9.310   8.633  0.9315  0.3080  0.9626
42955SOL    HW230873   0.867   9.362   8.491  1.1686 -1.6504  0.2142
42956SOL     OW30874   7.479   0.678   2.862  0.5564 -0.4182 -0.7520
42956SOL    HW130875   7.493   0.639   2.775  0.1643 -0.7741 -0.6564
42956SOL    HW230876   7.470   0.772   2.844 -1.9183 -0.7007 -1.4024
42957SOL     OW30877   7.381   1.358   7.429  0.2892  0.2477 -0.0174
42957SOL    HW130878   7.465   1.362   7.475 -0.1918 -1.5322  1.1331
42957SOL    HW230879   7.368   1.264   7.411 -1.7210  0.4028  0.4083
42958SOL     OW30880   9.724  10.161  10.052 -0.2630  0.0768  0.0724
42958SOL    HW130881   9.766  10.246  10.040 -2.2567  1.2090  0.7082
42958SOL    HW230882   9.732  10.118   9.967  3.0689 -0.2754  0.4234
42959SOL     OW30883   9.115   7.498   1.346  0.3861  0.6540 -0.1164
42959SOL    HW130884   9.119   7.407   1.374 -0.7939  0.9131  0.9312
42959SOL    HW230885   9.132   7.549   1.425 -0.8167  1.3626 -0.2926
42960SOL     OW30886   9.136  10.875   5.196 -1.1536  0.1938 -0.0327
42960SOL    HW130887   9.116  10.794   5.242 -0.2391  0.6773  1.2717
42960SOL    HW230888   9.186  10.927   5.259  3.3379 -0.4721 -2.6463
42961SOL     OW30889   0.584   2.216  10.261 -0.3254 -0.6521 -0.2828
42961SOL    HW130890   0.654   2.265  10.303 -0.4245 -2.7286  2.6132
42961SOL    HW230891   0.505   2.237  10.312 -0.7697 -2.1273 -0.2977
42962SOL     OW30892   4.745   1.090   8.850 -0.3038 -0.1932 -0.8285
42962SOL    HW130893   4.806   1.149   8.805  0.3677 -0.6339 -0.5181
42962SOL    HW230894   4.662   1.103   8.806 -0.6195  2.2526  0.3004
42963SOL     OW30895   0.788   8.333   4.119  0.1399  0.3853  1.0519
42963SOL    HW130896   0.862   8.273   4.105 -0.2114 -0.1893  1.6212
42963SOL    HW230897   0.757   8.353   4.030 -1.4678 -2.4727  0.8355
42964SOL     OW30898   7.774   2.190   8.875  0.2300 -0.0063 -0.1971
42964SOL    HW130899   7.717   2.129   8.829  0.0534 -0.9384  1.1872
42964SOL    HW230900   7.714   2.244   8.928  0.2287  2.4233 -2.4484
42965SOL     OW30901  10.047   5.580   6.026 -0.2812  0.3195  0.2273
42965SOL    HW130902   9.998   5.658   6.049  1.3991  1.9719 -1.5018
42965SOL    HW230903  10.034   5.521   6.101 -1.1730  2.4163  1.8197
42966SOL     OW30904   5.622   8.922   3.658 -0.0283 -1.0103  0.0247
42966SOL    HW130905   5.713   8.951   3.665 -0.2855 -0.3659  0.8088
42966SOL    HW230906   5.586   8.972   3.585  0.7379 -2.6271 -1.5249
42967SOL     OW30907   7.550   9.320  10.253  0.0776 -0.6963  0.1002
42967SOL    HW130908   7.457   9.330  10.272  0.5035 -1.0589  2.8286
42967SOL    HW230909   7.555   9.248  10.190 -1.5077  0.0731 -0.9608
42968SOL     OW30910   4.758   7.879   2.846 -0.0376 -0.1125 -0.7019
42968SOL    HW130911   4.703   7.805   2.819  0.0705 -0.6990  0.6019
42968SOL    HW230912   4.821   7.889   2.774 -0.0396 -1.3101 -0.8954
42969SOL     OW30913   8.306   8.728   4.093 -0.3471  0.0236 -0.2577
42969SOL    HW130914   8.317   8.728   3.998  0.4342 -0.2233 -0.1823
42969SOL    HW230915   8.214   8.749   4.108 -0.9998 -1.9346 -1.1280
42970SOL     OW30916   4.376   4.722   6.283  0.1607 -0.2749  0.4058
42970SOL    HW130917   4.422   4.791   6.235 -1.5374  1.8159  1.5797
42970SOL    HW230918   4.445   4.661   6.309  1.7369  0.9087 -0.7916
42971SOL     OW30919   6.446  10.618   6.181  0.1894  0.1686 -0.2762
42971SOL    HW130920   6.455  10.674   6.259  1.7761  1.1108 -1.0645
42971SOL    HW230921   6.360  10.639   6.146  0.1665  1.0437  0.2650
42972SOL     OW30922   4.257   0.471   4.954 -0.0201 -0.0157 -0.4442
42972SOL    HW130923   4.293   0.538   5.012  0.8772 -0.9379  0.1115
42972SOL    HW230924   4.327   0.406   4.947  0.3976  0.6175 -3.5472
42973SOL     OW30925   0.756   4.998   9.781  0.2811  0.2091  0.6793
42973SOL    HW130926   0.683   4.959   9.830 -1.1024  0.7072 -0.8725
42973SOL    HW230927   0.713   5.055   9.716  1.8823 -1.5621 -2.1414
42974SOL     OW30928   0.051   7.832   2.467 -0.0194 -0.5435 -0.2411
42974SOL    HW130929  -0.014   7.874   2.524 -0.3654 -0.6580 -0.5488
42974SOL    HW230930   0.005   7.757   2.430  0.2982 -0.6389 -0.4437
42975SOL     OW30931   1.636   1.579   6.937 -0.5466  0.5189  0.4976
42975SOL    HW130932   1.574   1.611   7.002 -0.2935  2.1019  0.0243
42975SOL    HW230933   1.715   1.632   6.951  0.0119 -0.0994 -0.1750
42976SOL     OW30934   5.079   3.300   4.203 -0.0386 -0.4080 -0.2192
42976SOL    HW130935   4.999   3.290   4.151  0.9996 -3.0187 -1.5131
42976SOL    HW230936   5.067   3.242   4.278 -0.3219  1.1078  0.9518
42977SOL     OW30937   0.658   5.659   5.268  0.0825  0.0271 -0.5198
42977SOL    HW130938   0.572   5.666   5.228  0.0572 -1.9612 -0.9193
42977SOL    HW230939   0.644   5.604   5.346  0.8469  0.3774 -0.1248
42978SOL     OW30940   4.462   2.810   8.498 -0.0181 -0.7603  0.2688
42978SOL    HW130941   4.399   2.864   8.545 -0.6893 -0.4233 -0.9773
42978SOL    HW230942   4.546   2.832   8.538 -0.3823  0.6141  0.3501
42979SOL     OW30943   8.496   5.411   3.176  0.3019  0.6239 -0.0928
42979SOL    HW130944   8.491   5.317   3.194  0.0765  0.7653  0.6214
42979SOL    HW230945   8.496   5.417   3.080  0.9802 -0.1304 -0.1514
42980SOL     OW30946   9.373   6.904   4.704  0.3844 -0.0634 -0.1451
42980SOL    HW130947   9.358   6.967   4.774  2.3530  0.5557 -0.2108
42980SOL    HW230948   9.465   6.879   4.714  0.1543 -1.5004 -1.2804
42981SOL     OW30949   8.286   1.096   8.077  0.2670 -0.0881 -0.2617
42981SOL    HW130950   8.192   1.110   8.074 -0.2680 -2.5495  1.8057
42981SOL    HW230951   8.299   1.010   8.036  1.9504  1.1086 -2.4754
42982SOL     OW30952   4.138   9.789   8.528 -0.5132  0.1962  0.4285
42982SOL    HW130953   4.169   9.869   8.484 -1.0570 -0.4459 -1.1955
42982SOL    HW230954   4.055   9.815   8.569 -0.8768  0.4022 -0.4045
42983SOL     OW30955  10.232   3.508   5.344 -0.4194  0.2126 -0.5294
42983SOL    HW130956  10.176   3.448   5.296  1.1362 -2.1957  0.4917
42983SOL    HW230957  10.319   3.497   5.305  0.4177 -0.1395  1.3149
42984SOL     OW30958   8.324   0.380   8.868 -0.1565  0.0738 -0.1878
42984SOL    HW130959   8.321   0.396   8.774  1.6631  0.2721 -0.2519
42984SOL    HW230960   8.412   0.408   8.894 -0.5244 -0.2544  1.5228
42985SOL     OW30961  10.932  10.747   8.858 -0.2058  0.4269 -0.3599
42985SOL    HW130962  10.890  10.826   8.826  1.1387  1.7477  0.9924
42985SOL    HW230963  10.986  10.717   8.785 -0.3306  1.0203 -0.6986
42986SOL     OW30964   6.310   8.821   2.327  0.5821  0.5150  0.0123
42986SOL    HW130965   6.346   8.818   2.239  0.8842  1.8056  0.0675
42986SOL    HW230966   6.233   8.878   2.320 -1.0019 -1.5140  0.0688
42987SOL     OW30967   8.643   7.139   4.501 -0.2649  0.2073  0.2410
42987SOL    HW130968   8.550   7.157   4.491 -0.0790  0.9500 -0.1740
42987SOL    HW230969   8.685   7.181   4.425  0.2415 -1.5250 -0.5167
42988SOL     OW30970   9.443   9.840   5.659  0.3700 -0.5680 -0.1073
42988SOL    HW130971   9.423   9.749   5.636 -1.7741 -0.4702  1.0586
42988SOL    HW230972   9.408   9.850   5.748  0.2333  1.4930 -0.3473
42989SOL     OW30973   5.872   3.353   9.363 -1.0538  0.1784  0.5408
42989SOL    HW130974   5.845   3.304   9.440 -2.2753 -1.8317 -1.0643
42989SOL    HW230975   5.795   3.353   9.306  0.1578  0.5118 -1.1844
42990SOL     OW30976   4.946   5.218   1.457  0.1722  0.4866  0.3418
42990SOL    HW130977   4.898   5.233   1.377  0.4984  0.9642  0.2319
42990SOL    HW230978   4.939   5.124   1.472  0.7186  0.2761 -0.6419
42991SOL     OW30979   5.473   5.862   0.860  0.6745  0.2529 -0.3807
42991SOL    HW130980   5.428   5.851   0.776  1.4303  0.6229 -0.8485
42991SOL    HW230981   5.444   5.788   0.913 -2.0988  1.5514  0.0982
42992SOL     OW30982   5.203   2.900   4.486 -0.4808  0.3215  0.4460
42992SOL    HW130983   5.258   2.822   4.479 -0.7191  0.1054  0.9269
42992SOL    HW230984   5.222   2.951   4.407 -0.3837 -0.2639  0.0887
42993SOL     OW30985   6.624   5.279   7.366 -0.0687 -0.1556 -0.0188
42993SOL    HW130986   6.669   5.239   7.291  1.9370  2.2202 -0.2278
42993SOL    HW230987   6.562   5.340   7.327 -2.4219 -2.2035  0.3038
42994SOL     OW30988   6.030   8.268   4.710  0.0855 -0.2256 -0.1510
42994SOL    HW130989   6.055   8.243   4.798  0.8613 -0.4398 -0.4224
42994SOL    HW230990   5.934   8.268   4.711  0.0881  0.0237  0.7508
42995SOL     OW30991   0.009   6.864   8.857 -0.0100 -0.3328  0.5241
42995SOL    HW130992   0.069   6.937   8.873 -0.9830  0.8899 -1.0367
42995SOL    HW230993   0.066   6.791   8.835  0.9651  0.4846  0.2162
42996SOL     OW30994   9.583   4.484   6.592 -0.1772 -0.4308 -0.2660
42996SOL    HW130995   9.501   4.528   6.570 -0.0169  0.7312  1.2948
42996SOL    HW230996   9.651   4.535   6.547 -0.1045  0.1800  0.5167
42997SOL     OW30997   6.284   5.616   3.779 -0.1594 -0.2708  0.4130
42997SOL    HW130998   6.349   5.645   3.843 -0.2343 -0.8085  0.7363
42997SOL    HW230999   6.333   5.607   3.697 -0.4566  2.4944 -0.1778
42998SOL     OW31000   5.893   2.864   5.939 -0.4806  0.0693 -0.3532
42998SOL    HW131001   5.954   2.931   5.969  0.3097  0.1995 -2.1483
42998SOL    HW231002   5.838   2.909   5.875 -0.5273 -0.7598 -0.9144
42999SOL     OW31003   4.157   9.971   0.230  0.1376  0.2097  0.0091
42999SOL    HW131004   4.222   9.983   0.161 -1.5754 -0.6701 -1.8396
42999SOL    HW231005   4.143  10.058   0.266  1.5419  0.5734 -0.2839
43000SOL     OW31006   8.059   9.341   4.555  0.0716 -0.2886  0.0195
43000SOL    HW131007   8.077   9.264   4.501 -3.4180 -1.5675  0.4236
43000SOL    HW231008   8.099   9.322   4.639  0.3806 -1.0517 -0.2930
43001SOL     OW31009   3.751   4.485   0.752 -0.0813  0.0402  0.1349
43001SOL    HW131010   3.730   4.484   0.846 -0.9427  0.3079 -0.0555
43001SOL    HW231011   3.828   4.427   0.745 -1.2124 -1.6233  0.7252
43002SOL     OW31012   1.721   9.827   1.308 -0.1419 -0.1918 -0.4054
43002SOL    HW131013   1.807   9.788   1.327  0.9796  1.2422 -2.1593
43002SOL    HW231014   1.712   9.897   1.373 -0.6063 -1.1476  0.5913
43003SOL     OW31015   1.494   5.580   6.230 -0.3450  0.0510 -1.1354
43003SOL    HW131016   1.581   5.584   6.191 -0.7874  1.1914 -2.0723
43003SOL    HW231017   1.472   5.671   6.251 -0.2634 -0.4651  1.5672
43004SOL     OW31018   8.342   8.645   9.145 -0.2345  0.2519  0.3575
43004SOL    HW131019   8.275   8.670   9.082 -0.1232 -1.8881 -0.6917
43004SOL    HW231020   8.422   8.688   9.114 -0.4614  0.2751 -0.1942
43005SOL     OW31021  10.287   9.680   8.098  0.4594 -0.2879 -0.2430
43005SOL    HW131022  10.323   9.633   8.174  1.5746  0.7835 -0.0762
43005SOL    HW231023  10.215   9.732   8.134  1.3032  0.5988  0.1920
43006SOL     OW31024   7.947   1.560   4.887  0.2284 -0.7065  0.9143
43006SOL    HW131025   7.936   1.611   4.807 -0.0462  0.2740  1.5714
43006SOL    HW231026   8.033   1.584   4.920 -0.7438  1.0038  2.3643
43007SOL     OW31027   4.979   9.878  10.803  0.0798 -0.1754  0.1729
43007SOL    HW131028   4.897   9.926  10.790  0.4905  0.3895 -0.3785
43007SOL    HW231029   4.955   9.786  10.795 -0.5360 -0.0234  0.2384
43008SOL     OW31030   3.271   0.098  10.665 -0.1899 -0.4242  0.4394
43008SOL    HW131031   3.326   0.143  10.600 -1.9859  1.6214  0.2348
43008SOL    HW231032   3.314   0.117  10.748 -0.8746  1.8114  0.3658
43009SOL     OW31033  10.951   1.572   4.464 -0.2997 -0.0599  0.5326
43009SOL    HW131034  10.936   1.620   4.382  1.8483  0.4830  0.3976
43009SOL    HW231035  11.045   1.580   4.479 -0.4630 -1.2150  2.4204
43010SOL     OW31036   7.772   6.351   3.826  0.4655  0.5687  0.4176
43010SOL    HW131037   7.717   6.306   3.762  1.1830  0.0028  0.1810
43010SOL    HW231038   7.852   6.373   3.777  0.4468  1.4092  0.7427
43011SOL     OW31039   9.915   7.932   3.902 -0.0292 -0.6548 -0.2905
43011SOL    HW131040   9.990   7.990   3.890 -0.9202  0.4343 -0.8173
43011SOL    HW231041   9.869   7.934   3.818 -0.3013 -1.8271 -0.1924
43012SOL     OW31042   7.532   6.092   1.024  0.4359  0.1459  0.2056
43012SOL    HW131043   7.444   6.060   1.044 -0.8541  2.1485 -1.8111
43012SOL    HW231044   7.542   6.170   1.079  0.4499  0.6076 -0.4439
43013SOL     OW31045   4.321   4.384   6.365  0.1367 -0.5335  0.3071
43013SOL    HW131046   4.395   4.431   6.328 -0.3648 -0.8711 -1.1871
43013SOL    HW231047   4.329   4.396   6.459 -0.0458  2.6486  0.0163
43014SOL     OW31048   2.829   8.978   5.040  0.0202 -0.1411  0.5429
43014SOL    HW131049   2.909   9.020   5.071  1.9081 -1.9693 -1.5309
43014SOL    HW231050   2.844   8.885   5.052 -1.1139 -0.6207 -1.3414
43015SOL     OW31051  10.021   4.014   4.873 -0.6824  0.5422  0.0071
43015SOL    HW131052  10.113   4.041   4.868 -0.2932 -0.8407 -0.7163
43015SOL    HW231053   9.991   4.048   4.957  0.2681  1.6529 -0.0767
43016SOL     OW31054   0.787   5.378   8.414 -0.1186  0.2350  0.3781
43016SOL    HW131055   0.773   5.360   8.321  0.6268 -0.7821  0.4454
43016SOL    HW231056   0.800   5.292   8.454 -1.3411  0.5759  1.6063
43017SOL     OW31057   7.007   2.454   8.763 -0.0977 -0.4944  0.0046
43017SOL    HW131058   6.965   2.532   8.800 -1.1707 -1.0508  0.0136
43017SOL    HW231059   7.100   2.476   8.760 -0.3667  0.7584  0.0733
43018SOL     OW31060   9.138   1.259   4.226  0.2227  0.2170 -0.3426
43018SOL    HW131061   9.095   1.213   4.154 -0.3109  0.9331 -0.4975
43018SOL    HW231062   9.072   1.323   4.256  1.4073  1.8112 -1.0192
43019SOL     OW31063   4.420   3.164   4.629 -0.7735  0.0610  0.2527
43019SOL    HW131064   4.392   3.086   4.677 -1.8543  0.5003  0.3771
43019SOL    HW231065   4.343   3.189   4.577  0.1154  0.0482 -1.1108
43020SOL     OW31066   7.441   6.311   0.437  0.0206 -0.5554  0.0673
43020SOL    HW131067   7.476   6.319   0.348  1.6959  0.9965  0.8067
43020SOL    HW231068   7.480   6.231   0.471  0.0090 -0.7251 -0.3115
43021SOL     OW31069   4.670   6.777   4.770  0.2171  0.4391  0.1856
43021SOL    HW131070   4.600   6.752   4.831 -0.9794 -0.6304 -1.5340
43021SOL    HW231071   4.623   6.814   4.695  1.6386  1.6345 -0.1469
43022SOL     OW31072   6.195   9.599   5.728  1.1580  0.6062 -0.6055
43022SOL    HW131073   6.260   9.605   5.799 -0.9524 -0.5531  1.5950
43022SOL    HW231074   6.242   9.554   5.657  2.7706 -0.2541  0.9005
43023SOL     OW31075   2.213   1.691   4.437  0.6552 -0.0450 -0.1652
43023SOL    HW131076   2.230   1.621   4.500 -2.0569  1.0748  2.0698
43023SOL    HW231077   2.151   1.654   4.375  1.8127 -0.5642 -1.0415
43024SOL     OW31078   8.024   0.765   9.188  0.0741  0.7289  0.2994
43024SOL    HW131079   8.005   0.831   9.121  0.8783  0.4173 -0.2608
43024SOL    HW231080   8.056   0.814   9.263  1.5705  0.9354 -0.4428
43025SOL     OW31081   5.048   5.917   7.480  0.2185  0.2143  0.1095
43025SOL    HW131082   5.070   5.884   7.393  1.5139  1.3475 -0.0225
43025SOL    HW231083   4.973   5.974   7.465 -0.5123 -0.7546 -0.0198
43026SOL     OW31084   0.709   7.663   0.529 -0.2429 -0.1772 -0.3427
43026SOL    HW131085   0.711   7.585   0.475 -0.4851  0.0129 -0.6303
43026SOL    HW231086   0.619   7.697   0.520 -0.7757 -0.9853  1.3810
43027SOL     OW31087   3.697   0.746  10.939 -0.2619  0.3771 -0.1041
43027SOL    HW131088   3.633   0.809  10.905 -0.7360  0.8616  1.5845
43027SOL    HW231089   3.715   0.776  11.028  0.2205 -1.3360  0.4194
43028SOL     OW31090   1.094   1.968   2.829 -0.1863  0.0674  0.5683
43028SOL    HW131091   1.146   2.034   2.782  1.8064 -0.6272  1.6429
43028SOL    HW231092   1.005   1.978   2.796  0.7057  1.0413 -1.7341
43029SOL     OW31093  10.769   2.004   3.774  0.0283  0.3423  0.1502
43029SOL    HW131094  10.836   1.991   3.841  1.5175  0.6688 -1.2166
43029SOL    HW231095  10.784   2.092   3.741 -0.4390  0.0660 -0.8493
43030SOL     OW31096   7.274   9.584   9.960  0.0949 -0.0514 -0.0156
43030SOL    HW131097   7.217   9.529  10.013  0.3393 -1.0966 -0.7955
43030SOL    HW231098   7.231   9.669   9.959  0.1471  0.0333  1.9296
43031SOL     OW31099   1.309  10.305  10.327  0.4437 -0.1377 -0.3720
43031SOL    HW131100   1.240  10.353  10.373  3.0681  2.0765  1.5746
43031SOL    HW231101   1.317  10.222  10.374  0.0852  0.2094  0.3076
43032SOL     OW31102  10.994   1.536   6.787 -0.2459  0.1516  0.4869
43032SOL    HW131103  10.940   1.602   6.829  1.6117  0.5748  2.4372
43032SOL    HW231104  11.024   1.481   6.860  0.3399 -1.2575 -0.7664
43033SOL     OW31105  10.638   7.132  10.219 -0.5778  0.1084 -0.7940
43033SOL    HW131106  10.685   7.183  10.284 -2.9366  1.2373  0.1613
43033SOL    HW231107  10.687   7.146  10.138  1.2650  0.3360  0.2958
43034SOL     OW31108   1.516   9.723   4.670  0.3156 -0.5313  0.0950
43034SOL    HW131109   1.557   9.741   4.754  0.9387  0.9519 -0.4835
43034SOL    HW231110   1.530   9.629   4.655 -0.6655 -1.0364  2.0565
43035SOL     OW31111   9.599   2.122   5.542  0.3657  0.2733  0.0307
43035SOL    HW131112   9.610   2.060   5.469  0.7974  0.2659  0.0993
43035SOL    HW231113   9.593   2.208   5.499  0.8530  0.2942 -0.0062
43036SOL     OW31114   8.060   9.839   1.357  0.2002  0.1321  0.6396
43036SOL    HW131115   8.018   9.878   1.433 -0.5148 -0.6433  0.6509
43036SOL    HW231116   7.997   9.775   1.325  1.2010 -0.7457  0.3991
43037SOL     OW31117  10.193   5.608   3.849 -0.0798 -0.1569  0.1731
43037SOL    HW131118  10.232   5.532   3.891  1.5048  0.9029  0.7077
43037SOL    HW231119  10.100   5.604   3.873  0.2984 -0.9933  1.6118
43038SOL     OW31120   2.278  10.270   6.465  0.1135 -0.6274 -0.3483
43038SOL    HW131121   2.276  10.301   6.555 -1.0266  2.2847 -1.2791
43038SOL    HW231122   2.371  10.258   6.445  0.5649  1.4582  0.3637
43039SOL     OW31123   5.491   3.491   8.390  0.2768 -0.7101  0.2212
43039SOL    HW131124   5.518   3.579   8.366 -0.2889 -0.4081  0.6638
43039SOL    HW231125   5.458   3.499   8.480 -0.9105 -1.1204 -0.1523
43040SOL     OW31126   0.477   2.215   7.725 -0.5173  0.2078 -0.1547
43040SOL    HW131127   0.405   2.245   7.781  0.6805  0.7000  1.1945
43040SOL    HW231128   0.478   2.119   7.736 -0.2183  0.3115  0.7871
43041SOL     OW31129   2.226   0.868   2.080 -0.3359  0.0054  0.1686
43041SOL    HW131130   2.260   0.866   2.170  0.9297  1.5052 -0.2339
43041SOL    HW231131   2.142   0.822   2.085  0.3750 -1.2300  1.8177
43042SOL     OW31132   6.000   3.098   3.800  1.0439 -0.3165  0.2214
43042SOL    HW131133   5.996   3.188   3.768 -1.6667 -0.3534  0.2108
43042SOL    HW231134   6.032   3.107   3.890  1.4199  0.5972  0.0099
43043SOL     OW31135   2.862   0.945   6.478  0.2991 -0.8259 -0.3056
43043SOL    HW131136   2.859   0.958   6.383  1.6563 -2.2519 -0.5766
43043SOL    HW231137   2.917   1.016   6.510 -0.1908 -0.3173 -0.5549
43044SOL     OW31138   6.419   0.806   1.055 -0.1413  0.1455  0.0312
43044SOL    HW131139   6.388   0.746   1.123 -1.0172 -0.1068 -0.5830
43044SOL    HW231140   6.419   0.892   1.098 -0.3602 -0.0600  0.4522
43045SOL     OW31141   9.533  10.192   0.997  0.7279  0.2981  0.0897
43045SOL    HW131142   9.493  10.268   1.041  0.0844 -0.9561  1.7874
43045SOL    HW231143   9.570  10.140   1.068  1.2063 -0.9650 -1.0407
43046SOL     OW31144  10.675   7.548   0.730  0.0693  0.3226  0.3367
43046SOL    HW131145  10.694   7.455   0.744 -0.9113  0.0742  0.1165
43046SOL    HW231146  10.601   7.567   0.788 -1.7017  0.1721 -1.7425
43047SOL     OW31147   3.858  10.462   0.572 -0.4597  1.2445  0.3242
43047SOL    HW131148   3.829  10.431   0.486 -1.0043 -1.7145  1.4589
43047SOL    HW231149   3.789  10.436   0.632  1.4463  0.0369  2.1462
43048SOL     OW31150   9.160   9.464   3.235  0.4763  0.3744 -0.4236
43048SOL    HW131151   9.125   9.526   3.300 -0.9960 -0.6140 -0.2175
43048SOL    HW231152   9.250   9.447   3.265  0.4575  1.3798  0.2715
43049SOL     OW31153   6.956  10.525   1.722 -0.4901 -0.2035 -0.0098
43049SOL    HW131154   6.909  10.563   1.797  1.9315 -0.3565  1.7310
43049SOL    HW231155   6.936  10.432   1.727  1.6682 -0.6686  2.2092
43050SOL     OW31156   1.611   0.628  10.687 -0.1745 -0.0149 -0.3024
43050SOL    HW131157   1.566   0.696  10.638 -1.1340  1.1806  2.0763
43050SOL    HW231158   1.704   0.653  10.683 -0.3252  0.4783 -0.8311
43051SOL     OW31159   0.470   1.491   9.471  0.5395  0.3687 -0.1002
43051SOL    HW131160   0.557   1.469   9.436  0.3017  0.5178 -0.8000
43051SOL    HW231161   0.424   1.531   9.398 -0.0374  0.5328  0.3426
43052SOL     OW31162  10.259   9.248   9.915 -0.0002 -0.6553  0.1842
43052SOL    HW131163  10.284   9.159   9.940 -3.3643 -1.6457  0.5112
43052SOL    HW231164  10.228   9.240   9.825 -1.9687 -0.2406  0.7857
43053SOL     OW31165   0.468   5.921  10.085 -0.0488 -0.4708 -0.6812
43053SOL    HW131166   0.464   5.983  10.158 -2.3256  0.4925 -1.5218
43053SOL    HW231167   0.560   5.919  10.060  0.4114  0.9644  0.7342
43054SOL     OW31168   3.850   7.811   4.079 -0.2437 -0.5806  0.1586
43054SOL    HW131169   3.763   7.813   4.118 -0.8781 -1.2085 -1.1703
43054SOL    HW231170   3.908   7.846   4.148 -1.0578 -3.0906  2.2893
43055SOL     OW31171   3.525   4.972   3.853 -0.5200  0.2571  0.0283
43055SOL    HW131172   3.439   4.941   3.824  0.2934 -0.9431 -1.2167
43055SOL    HW231173   3.572   4.892   3.878  0.9208  0.6519 -1.2624
43056SOL     OW31174   8.651   1.705   3.376 -0.2280 -0.0662  0.0341
43056SOL    HW131175   8.557   1.694   3.389 -0.5216  0.7924 -1.1790
43056SOL    HW231176   8.683   1.742   3.458 -0.5845 -2.1011  1.1679
43057SOL     OW31177   5.599   5.274   6.009  0.0408  0.3731 -0.5303
43057SOL    HW131178   5.622   5.311   6.094  1.3544 -1.3463 -0.0984
43057SOL    HW231179   5.543   5.199   6.030  1.5807 -0.9659 -1.0563
43058SOL     OW31180   1.597   0.660   1.095 -0.1033  0.1240  0.3404
43058SOL    HW131181   1.631   0.579   1.133  0.9691 -0.0766 -0.9741
43058SOL    HW231182   1.589   0.641   1.002 -3.4541  0.3333  0.4714
43059SOL     OW31183   8.172   0.092   2.296 -0.5597 -0.3025  0.2620
43059SOL    HW131184   8.249   0.148   2.292  0.1463 -1.3200 -1.0141
43059SOL    HW231185   8.100   0.152   2.317  0.4106  0.8067  0.5223
43060SOL     OW31186   0.862   3.551   2.101 -0.2177  0.4473 -0.9543
43060SOL    HW131187   0.793   3.605   2.064 -0.2321  0.0376 -1.5424
43060SOL    HW231188   0.838   3.539   2.192 -0.9605  0.2429 -1.1745
43061SOL     OW31189   4.483   9.891   8.490  0.4031 -0.3479  0.4958
43061SOL    HW131190   4.551   9.838   8.449  1.4341  0.2246  1.4223
43061SOL    HW231191   4.403   9.871   8.440  0.8748 -2.3046  0.4633
43062SOL     OW31192   8.022   6.995   8.055 -0.3309 -0.0415  0.1329
43062SOL    HW131193   7.942   7.010   8.107 -0.2248  1.9994 -0.1926
43062SOL    HW231194   8.060   6.916   8.092 -3.2631 -1.9909 -0.6707
43063SOL     OW31195   3.090   6.936   7.246  0.7681 -0.1819 -0.3219
43063SOL    HW131196   3.042   6.938   7.329 -2.5201 -0.3440 -2.0571
43063SOL    HW231197   3.151   7.010   7.252  0.3811  0.0162  2.0550
43064SOL     OW31198   2.052   0.388   2.902 -0.2585  0.4216  0.0891
43064SOL    HW131199   2.082   0.479   2.899  1.0144  0.0122 -0.0438
43064SOL    HW231200   2.123   0.341   2.947 -1.0529 -0.4505  0.4647
43065SOL     OW31201   6.457   8.624   5.343 -0.1957  0.0042  0.4275
43065SOL    HW131202   6.364   8.602   5.353 -0.9507  1.7147 -1.9479
43065SOL    HW231203   6.466   8.708   5.388 -0.4716  1.1120 -1.4892
43066SOL     OW31204   3.810   9.914   5.716  0.1140  0.4544  0.5115
43066SOL    HW131205   3.768   9.864   5.646 -0.0514  0.0563  0.8833
43066SOL    HW231206   3.903   9.912   5.695  0.0992  0.0756  0.4587
43067SOL     OW31207   5.408   2.895   9.163  0.3125  0.0349  0.0375
43067SOL    HW131208   5.457   2.910   9.244  0.6670  0.2958 -0.2226
43067SOL    HW231209   5.457   2.943   9.096 -0.9837  1.3484 -0.0119
43068SOL     OW31210   8.909   3.717  10.107  0.3600  0.4271  0.1025
43068SOL    HW131211   8.859   3.698  10.028  0.3233 -3.1412  0.7965
43068SOL    HW231212   8.847   3.763  10.164  0.4038  3.0653 -1.8212
43069SOL     OW31213   9.451   3.220   9.332 -0.4274  0.1638  0.3643
43069SOL    HW131214   9.356   3.213   9.345 -0.7961 -0.3810 -2.1116
43069SOL    HW231215   9.468   3.314   9.336 -0.8084  0.2061  2.0651
43070SOL     OW31216   5.768   6.034   5.549 -0.1097 -0.2829 -0.1595
43070SOL    HW131217   5.816   5.999   5.474  1.0392  0.8528  0.0095
43070SOL    HW231218   5.807   5.991   5.625  1.0128  0.9806  0.0147
43071SOL     OW31219   5.522   8.684   7.129  0.2895 -0.2319 -0.3379
43071SOL    HW131220   5.613   8.653   7.131  0.1985 -0.4547  0.4411
43071SOL    HW231221   5.470   8.604   7.116  0.1016 -0.3377  0.9504
43072SOL     OW31222   5.649   6.213   0.753 -0.0850  0.2174 -0.2013
43072SOL    HW131223   5.576   6.186   0.809 -1.0891  0.4459 -1.3574
43072SOL    HW231224   5.725   6.212   0.811 -1.0984  0.5569  1.1992
43073SOL     OW31225   5.681   0.212   7.789 -0.7073 -0.4417 -0.1186
43073SOL    HW131226   5.706   0.132   7.835  0.4265 -1.7619 -2.8653
43073SOL    HW231227   5.588   0.202   7.770 -1.0368 -0.1624  1.2121
43074SOL     OW31228   0.616   4.110   5.302  0.2143 -0.5287  0.2815
43074SOL    HW131229   0.601   4.155   5.219  1.1552  1.5287  1.1659
43074SOL    HW231230   0.528   4.089   5.334 -0.2587  0.5351 -0.2618
43075SOL     OW31231   8.662  11.028   3.831 -0.4984  0.0453 -0.0411
43075SOL    HW131232   8.724  11.053   3.763 -0.4344 -0.8824 -0.3409
43075SOL    HW231233   8.610  10.959   3.792 -0.2287 -0.7498  0.9561
43076SOL     OW31234   0.564  10.323   0.584  0.1707  0.2621 -0.9637
43076SOL    HW131235   0.652  10.319   0.622  0.0074  1.1687 -0.4818
43076SOL    HW231236   0.506  10.294   0.654 -0.0598  1.2547 -0.7230
43077SOL     OW31237   2.905   3.841   6.984 -0.3071 -0.0987 -0.0163
43077SOL    HW131238   2.914   3.863   7.077 -0.9813 -2.7647  0.7733
43077SOL    HW231239   2.811   3.824   6.973 -0.0661 -1.0175 -0.8409
43078SOL     OW31240   5.415   3.224   1.806  0.1335 -0.3100 -0.1659
43078SOL    HW131241   5.342   3.260   1.857 -0.6194  0.6031 -1.7918
43078SOL    HW231242   5.377   3.148   1.761 -0.0353  0.5472 -1.5200
43079SOL     OW31243   4.415   4.916   3.143 -0.3474 -0.3719 -0.0934
43079SOL    HW131244   4.339   4.885   3.094  0.0728 -1.2143 -0.2343
43079SOL    HW231245   4.407   4.875   3.229  0.0974 -0.7219 -0.2108
43080SOL     OW31246   3.127   4.685   8.192  0.7352 -0.6442  0.1389
43080SOL    HW131247   3.057   4.671   8.255  1.7178  0.1896  1.4543
43080SOL    HW231248   3.099   4.637   8.114  0.6603 -3.9307  1.9959
43081SOL     OW31249   8.097   5.068   7.870  0.4766 -0.0713  0.1740
43081SOL    HW131250   8.057   5.134   7.926  1.1382 -0.3282  0.9620
43081SOL    HW231251   8.055   5.080   7.785  0.8095  1.5458  0.2227
43082SOL     OW31252   3.205   8.274   2.766  0.0923  0.1610 -0.6928
43082SOL    HW131253   3.265   8.303   2.835 -0.9605  0.8956 -0.0643
43082SOL    HW231254   3.251   8.296   2.684  0.4338  1.2626 -0.2279
43083SOL     OW31255   2.278   8.996   1.665  0.0573  0.0243 -0.3038
43083SOL    HW131256   2.354   9.035   1.708 -1.0643  1.5007  0.4582
43083SOL    HW231257   2.293   9.009   1.572  1.2512 -0.7065 -0.2169
43084SOL     OW31258   5.106   1.216   3.833  0.1778  0.3958 -0.4961
43084SOL    HW131259   5.015   1.195   3.812 -0.4170  0.7111  1.5907
43084SOL    HW231260   5.101   1.297   3.885  1.6026  0.1322  0.0999
43085SOL     OW31261   2.067   6.944   3.613 -0.0888 -0.5726  0.5897
43085SOL    HW131262   2.158   6.916   3.608  0.0199 -0.3770  1.4342
43085SOL    HW231263   2.055   7.001   3.537  0.0793 -1.7536 -0.3545
43086SOL     OW31264  10.710   2.238   0.808 -0.3568  0.0940  0.2845
43086SOL    HW131265  10.747   2.232   0.719 -3.1001 -1.9193 -0.8647
43086SOL    HW231266  10.627   2.192   0.802 -0.1790 -1.0593  4.2120
43087SOL     OW31267   5.057   7.044  10.972  0.0540  0.3498 -0.3750
43087SOL    HW131268   5.141   7.003  10.993 -0.4561 -0.5618 -0.0236
43087SOL    HW231269   5.071   7.138  10.983  0.9410  0.1795 -0.0361
43088SOL     OW31270   7.656   4.372   5.714 -0.2891 -0.4210 -0.0243
43088SOL    HW131271   7.605   4.298   5.747  1.1179 -0.7991  1.3932
43088SOL    HW231272   7.683   4.345   5.626  0.6783 -1.8792  0.6794
43089SOL     OW31273   2.301   3.150   5.230 -0.4713  0.5138 -0.2470
43089SOL    HW131274   2.372   3.214   5.241 -0.5825  1.0605 -2.2668
43089SOL    HW231275   2.336   3.085   5.169 -1.4366  0.3743 -0.6758
43090SOL     OW31276   4.771   4.761   0.092  0.1715 -0.2906  0.0068
43090SOL    HW131277   4.808   4.841   0.056 -0.7799 -0.6737 -1.9406
43090SOL    HW231278   4.753   4.706   0.016  0.4548 -2.2189  1.2635
43091SOL     OW31279   1.715   9.740   9.796 -0.4040  0.0758 -0.1692
43091SOL    HW131280   1.688   9.711   9.884 -0.1728  0.7847  0.1448
43091SOL    HW231281   1.695   9.834   9.795 -0.7229  0.0041 -1.0045
43092SOL     OW31282  10.873   6.125   8.992  0.3500  1.0590 -0.3263
43092SOL    HW131283  10.888   6.218   9.007 -1.3451  1.2423  0.4639
43092SOL    HW231284  10.917   6.106   8.909  3.7727  1.7025  1.1730
43093SOL     OW31285   9.071   8.886   7.465  0.0588 -0.0185 -0.6749
43093SOL    HW131286   9.045   8.828   7.394  0.4853 -0.9191 -0.1167
43093SOL    HW231287   9.006   8.956   7.464  0.0165 -0.0571 -1.8939
43094SOL     OW31288   1.700   5.603   3.942  0.2357 -0.5336  0.4765
43094SOL    HW131289   1.644   5.680   3.941 -0.7844 -1.2248  1.4136
43094SOL    HW231290   1.776   5.628   3.890  0.2273  1.3106  1.2699
43095SOL     OW31291   8.997   1.051  10.193 -0.2871  0.0541 -0.1598
43095SOL    HW131292   8.949   1.113  10.248 -0.8063  0.4546 -1.0413
43095SOL    HW231293   8.935   0.979  10.178  0.3778 -0.8029  1.0175
43096SOL     OW31294   2.959   6.778   1.165  0.3815  0.0374  0.1182
43096SOL    HW131295   2.942   6.871   1.153 -1.6813 -0.5077 -2.0390
43096SOL    HW231296   2.938   6.760   1.256  0.4435  1.5910  0.4564
43097SOL     OW31297   5.583   4.991   2.377 -0.6578 -0.3843 -0.6171
43097SOL    HW131298   5.578   4.901   2.409 -1.3736 -0.3510 -0.6380
43097SOL    HW231299   5.674   5.000   2.347 -1.4827 -2.2787 -4.0979
43098SOL     OW31300   9.478   8.315   0.221  0.2135 -0.1509 -0.1576
43098SOL    HW131301   9.430   8.294   0.301  2.1280 -4.2325  0.1949
43098SOL    HW231302   9.570   8.321   0.250  0.8102 -0.6035 -1.8706
43099SOL     OW31303   6.308   9.393   1.316 -0.3317  0.4369 -0.1692
43099SOL    HW131304   6.390   9.417   1.272  0.8672 -2.8387  0.0376
43099SOL    HW231305   6.282   9.311   1.275 -1.3972 -0.6237  2.4280
43100SOL     OW31306   8.821  10.625   6.149  0.5314 -0.5866  0.0773
43100SOL    HW131307   8.763  10.634   6.074  0.9082 -1.1699 -0.2888
43100SOL    HW231308   8.907  10.654   6.118  0.6465 -0.6343  0.3405
43101SOL     OW31309   9.410   5.176   1.701  0.4469  0.6174 -0.1128
43101SOL    HW131310   9.424   5.243   1.768  2.4457 -0.8616  1.0693
43101SOL    HW231311   9.365   5.105   1.747  0.0765  0.3580 -0.8579
43102SOL     OW31312   6.775   9.121   9.440  0.9247 -0.6621 -0.1504
43102SOL    HW131313   6.782   9.176   9.518  2.1145  1.2314 -1.4948
43102SOL    HW231314   6.722   9.046   9.468  1.1515  0.0269  2.3902
43103SOL     OW31315   0.429   6.337   5.898 -0.8127 -1.2132  0.1993
43103SOL    HW131316   0.347   6.383   5.884 -1.0220 -1.9418 -1.1362
43103SOL    HW231317   0.405   6.244   5.897 -0.1621 -1.4062  1.1441
43104SOL     OW31318   7.813   8.251   5.326  0.4680 -0.0822  0.1958
43104SOL    HW131319   7.790   8.205   5.245  0.6381  0.5419 -0.2223
43104SOL    HW231320   7.848   8.335   5.296  1.4174 -0.2101  0.8804
43105SOL     OW31321   1.278   9.751   2.999 -0.2271  0.3390  0.2557
43105SOL    HW131322   1.237   9.690   2.938 -0.0492 -0.7798  1.2029
43105SOL    HW231323   1.222   9.748   3.077  0.2305  0.7679  0.6059
43106SOL     OW31324   3.440   8.426   7.263  0.2452  0.1589 -0.2116
43106SOL    HW131325   3.511   8.366   7.238  0.5134 -0.1567  1.2202
43106SOL    HW231326   3.477   8.477   7.335 -1.0256 -0.1003  0.6469
43107SOL     OW31327   4.980   2.159   6.792 -0.2466  0.1735 -0.2215
43107SOL    HW131328   5.055   2.100   6.783  1.5729  2.1237  1.1832
43107SOL    HW231329   5.014   2.233   6.843 -3.1426  1.1506  0.4684
43108SOL     OW31330   1.730   9.133   9.010 -0.5252  0.4657 -0.9815
43108SOL    HW131331   1.667   9.166   8.947 -0.7782  2.3717  0.1702
43108SOL    HW231332   1.808   9.187   8.997 -0.4058  0.5504 -0.0146
43109SOL     OW31333  10.124   8.259   1.178  0.0902  0.1111  0.4949
43109SOL    HW131334  10.119   8.258   1.274  1.2918  3.0460  0.7130
43109SOL    HW231335  10.046   8.306   1.150  0.4676  0.5694  0.1795
43110SOL     OW31336   4.257   8.098   4.105  0.1443  0.6369 -0.0554
43110SOL    HW131337   4.334   8.149   4.078 -0.0689  0.4331 -1.0768
43110SOL    HW231338   4.293   8.014   4.132  0.3490  0.7943  0.1688
43111SOL     OW31339   6.239   7.872   8.696  0.0508 -0.0159 -0.4216
43111SOL    HW131340   6.268   7.890   8.606  0.7096  1.1721  0.0073
43111SOL    HW231341   6.307   7.814   8.731 -0.0588 -0.2517 -0.5938
43112SOL     OW31342   2.121  10.064   1.196 -0.0120  0.5726  0.5142
43112SOL    HW131343   2.103   9.970   1.191  1.7064  0.2253  0.0476
43112SOL    HW231344   2.163  10.085   1.113 -0.4125  1.7725  0.5961
43113SOL     OW31345   7.878   4.622   8.317 -0.3999  0.0279 -0.2269
43113SOL    HW131346   7.894   4.625   8.223  0.0786  1.0941 -0.1280
43113SOL    HW231347   7.807   4.559   8.328 -0.3296 -0.2456 -1.2768
43114SOL     OW31348   5.353   6.478   8.415  0.7094  0.0141  0.3092
43114SOL    HW131349   5.349   6.528   8.334  0.1762  1.1495  1.0051
43114SOL    HW231350   5.340   6.543   8.484  2.7207 -0.6698  1.4060
43115SOL     OW31351   5.001   3.865   0.610 -0.0020  0.5496 -0.4594
43115SOL    HW131352   5.090   3.876   0.644  0.8002  1.3920 -2.6566
43115SOL    HW231353   4.964   3.795   0.663  1.2624  1.4928  1.8060
43116SOL     OW31354   4.342   6.745   6.629 -0.1536 -0.2041 -0.2458
43116SOL    HW131355   4.435   6.762   6.644 -0.2545 -0.2407  0.4491
43116SOL    HW231356   4.329   6.656   6.663 -0.5587  0.0213  0.2004
43117SOL     OW31357   9.930   9.724   8.293 -0.6292 -0.9135 -0.1050
43117SOL    HW131358   9.970   9.638   8.277  0.7755 -0.3288  0.1755
43117SOL    HW231359   9.964   9.750   8.378 -1.7685 -0.4631  0.2280
43118SOL     OW31360   2.611   1.486   5.108  0.1585 -0.1196  0.0214
43118SOL    HW131361   2.706   1.487   5.122  0.3147  1.8991 -0.8783
43118SOL    HW231362   2.601   1.499   5.014 -1.0248  0.1543  0.1721
43119SOL     OW31363   6.123   3.487  10.327  0.3346 -0.2020  0.2219
43119SOL    HW131364   6.117   3.537  10.245  2.4787 -1.1642 -0.5949
43119SOL    HW231365   6.036   3.448  10.337 -0.3958  1.0234 -0.8392
43120SOL     OW31366   6.707   9.639   8.767 -0.7391 -0.0596  0.6467
43120SOL    HW131367   6.781   9.624   8.827 -0.1161 -3.2811 -0.7245
43120SOL    HW231368   6.637   9.585   8.802 -1.0570 -0.3186 -0.3623
43121SOL     OW31369   6.651   8.338   4.979 -0.3776 -0.3441  0.4652
43121SOL    HW131370   6.646   8.243   4.974 -1.9072 -0.3186  0.9445
43121SOL    HW231371   6.720   8.356   5.043  1.7508 -1.0504 -1.5146
43122SOL     OW31372   7.616   0.387  10.853  0.0027 -0.2490 -1.0953
43122SOL    HW131373   7.545   0.370  10.791  0.3084 -0.4587 -1.3876
43122SOL    HW231374   7.669   0.455  10.811 -1.0319  1.2599 -0.0776
43123SOL     OW31375   0.448   9.299   6.366  0.0075  0.3826 -0.1432
43123SOL    HW131376   0.404   9.312   6.281  1.5681 -1.1773 -1.2770
43123SOL    HW231377   0.530   9.255   6.343  0.4945 -0.0390  2.2084
43124SOL     OW31378   1.790   3.722   5.234  0.5761 -0.1406  0.6119
43124SOL    HW131379   1.829   3.719   5.147  0.8820  0.0834  0.7391
43124SOL    HW231380   1.766   3.631   5.253 -1.0562  0.0238 -0.4078
43125SOL     OW31381  10.122   9.365   8.057  0.3788  0.5933  0.4545
43125SOL    HW131382  10.169   9.282   8.067  1.0494  0.6029 -2.1190
43125SOL    HW231383  10.035   9.339   8.027  0.7383  0.8226 -0.8112
43126SOL     OW31384   1.672   4.925   4.346  0.0078 -0.0602 -0.1283
43126SOL    HW131385   1.712   4.928   4.259  0.7001 -1.0646  0.1367
43126SOL    HW231386   1.625   4.842   4.349  0.1714 -0.1396  0.5278
43127SOL     OW31387   7.217  10.013   7.386 -0.7862  0.6875  0.2485
43127SOL    HW131388   7.261  10.058   7.458 -0.3973 -1.0411  1.1293
43127SOL    HW231389   7.126  10.042   7.391 -0.8456  0.2813  1.6895
43128SOL     OW31390   4.805   4.972   1.749 -0.1688 -0.3670  0.1045
43128SOL    HW131391   4.876   4.957   1.688 -0.6129  0.5628 -0.6626
43128SOL    HW231392   4.847   5.001   1.830  0.3010  0.7568 -0.5290
43129SOL     OW31393   4.225   8.956   0.466 -0.4103 -0.0994 -0.1484
43129SOL    HW131394   4.305   8.936   0.418  1.2935  3.3575  0.9567
43129SOL    HW231395   4.186   9.030   0.418 -2.4334 -1.0454 -0.0649
43130SOL     OW31396   5.831   5.000   4.521  0.1147  0.0965 -0.2976
43130SOL    HW131397   5.781   5.058   4.578 -1.1248 -1.4818  0.2867
43130SOL    HW231398   5.766   4.962   4.462  0.7626 -1.3079 -0.1301
43131SOL     OW31399   7.502   8.208   3.030 -0.5264  0.1994  0.1197
43131SOL    HW131400   7.513   8.205   3.125  2.1343  3.0488  0.0804
43131SOL    HW231401   7.591   8.220   2.997 -1.5525  0.9367 -2.6243
43132SOL     OW31402  10.520   6.317   9.663 -0.1266  0.0899  0.3341
43132SOL    HW131403  10.550   6.391   9.610 -1.3066 -0.8719 -1.8049
43132SOL    HW231404  10.427   6.307   9.641 -0.0871 -1.7930  0.8004
43133SOL     OW31405  10.723   2.450   5.137 -0.1174 -0.1300 -0.2226
43133SOL    HW131406  10.703   2.401   5.217  1.5717  1.7559  1.4831
43133SOL    HW231407  10.638   2.487   5.110 -0.4221  1.0200  2.0620
43134SOL     OW31408   2.098   9.278   9.628 -0.4720  0.1243 -0.5755
43134SOL    HW131409   2.142   9.362   9.612  0.4311 -0.2833 -0.3378
43134SOL    HW231410   2.144   9.241   9.703 -0.2214 -1.0066 -1.2507
43135SOL     OW31411   9.543   7.369   7.373 -0.4234 -0.1187 -0.5865
43135SOL    HW131412   9.459   7.380   7.329 -2.2607 -0.8353  2.4585
43135SOL    HW231413   9.552   7.448   7.427  1.8672  0.8534 -2.2128
43136SOL     OW31414   9.788   4.319   6.684 -0.2579 -0.1082 -0.6765
43136SOL    HW131415   9.784   4.252   6.616 -0.7492 -0.4930 -0.2809
43136SOL    HW231416   9.723   4.384   6.658 -0.4912 -0.2874 -0.5500
43137SOL     OW31417   7.204   7.199   8.001  0.2121  0.5185  0.3587
43137SOL    HW131418   7.293   7.178   7.974  0.1373  2.5439 -1.8183
43137SOL    HW231419   7.215   7.267   8.067  0.2920  0.5427  0.3208
43138SOL     OW31420   4.998   0.619   0.357 -0.1516  0.1240  0.1873
43138SOL    HW131421   4.926   0.566   0.392  0.3671 -0.5161  0.3185
43138SOL    HW231422   5.019   0.576   0.274  1.7936 -1.3243  1.3448
43139SOL     OW31423   7.221  10.581   1.784  0.3951 -0.2878  0.1751
43139SOL    HW131424   7.130  10.565   1.759  0.8229  0.5539 -2.2793
43139SOL    HW231425   7.223  10.675   1.802  0.5552 -0.5197  1.4029
43140SOL     OW31426   8.456   6.940   5.703 -0.3648  0.2752  0.1238
43140SOL    HW131427   8.401   6.896   5.766 -1.0859 -0.9404 -1.2876
43140SOL    HW231428   8.406   6.939   5.622  0.3585  2.1226 -0.4082
43141SOL     OW31429   6.158   6.250   8.852 -0.0330 -0.3953 -0.2158
43141SOL    HW131430   6.243   6.278   8.884  0.1388 -1.2420  0.0951
43141SOL    HW231431   6.106   6.235   8.931  0.3834 -2.4643 -0.2804
43142SOL     OW31432   3.151   5.431   5.296  0.0004 -0.1169  0.2917
43142SOL    HW131433   3.215   5.432   5.367 -2.0339  1.5850  2.2849
43142SOL    HW231434   3.113   5.344   5.299  0.0297 -0.1077  1.2356
43143SOL     OW31435   8.130   8.113   9.701 -0.2317 -0.1589  0.5329
43143SOL    HW131436   8.185   8.160   9.638 -0.1764 -1.2894 -0.2979
43143SOL    HW231437   8.187   8.045   9.737 -0.9045 -0.9972  0.0650
43144SOL     OW31438   4.440   7.964   0.515  0.6826  0.3418 -0.6857
43144SOL    HW131439   4.474   8.035   0.461  2.1223 -0.0173 -0.3011
43144SOL    HW231440   4.510   7.900   0.517 -0.8076 -1.3984 -1.5071
43145SOL     OW31441   1.473   2.471   1.406 -0.4148 -0.1876 -0.0125
43145SOL    HW131442   1.436   2.528   1.338 -2.3839 -1.9224 -0.4906
43145SOL    HW231443   1.398   2.423   1.441  0.9019 -1.0844  1.7393
43146SOL     OW31444   1.274   4.422   6.193  0.3571 -0.9971 -0.1816
43146SOL    HW131445   1.369   4.424   6.199  0.5822 -3.1839 -1.7529
43146SOL    HW231446   1.243   4.412   6.283  1.6281 -0.6781  0.2984
43147SOL     OW31447   0.673   2.555   5.694 -0.0185  0.7694  0.3897
43147SOL    HW131448   0.686   2.487   5.628  0.6544  1.1147  0.1537
43147SOL    HW231449   0.613   2.618   5.652 -0.4479  0.4546  0.5191
43148SOL     OW31450   1.010   3.944  10.442  0.3080  0.2059 -0.6629
43148SOL    HW131451   1.085   3.885  10.447 -0.2374 -0.4172  1.3963
43148SOL    HW231452   1.047   4.032  10.453  0.7028 -0.1879  1.9485
43149SOL     OW31453   8.167   6.769   3.174  0.3505  0.0955 -0.1943
43149SOL    HW131454   8.196   6.824   3.102 -0.7961 -0.7739 -1.3593
43149SOL    HW231455   8.084   6.732   3.145  0.1760 -0.8025  1.3056
43150SOL     OW31456   4.333   3.138   0.880  0.1042  0.5680 -0.3260
43150SOL    HW131457   4.380   3.055   0.874  0.1999  0.6356 -0.5267
43150SOL    HW231458   4.311   3.146   0.972  0.3106  0.4386 -0.2632
43151SOL     OW31459   7.045   3.535   0.876  0.4064 -0.0983  0.3788
43151SOL    HW131460   7.023   3.554   0.968 -0.2901  1.1667 -0.0250
43151SOL    HW231461   6.976   3.577   0.826  1.3817  0.1877 -0.7770
43152SOL     OW31462   9.952   9.643   3.254 -0.5554 -0.5196  0.7955
43152SOL    HW131463   9.871   9.693   3.255  0.5315  1.3548  2.1487
43152SOL    HW231464   9.961   9.608   3.343  0.2072 -0.4963  0.7404
43153SOL     OW31465   9.798   8.433  10.150 -0.0502  0.2224 -0.4369
43153SOL    HW131466   9.821   8.418  10.059  1.3512 -1.9260  0.2063
43153SOL    HW231467   9.769   8.348  10.183 -1.8929  1.2562  0.7886
43154SOL     OW31468   3.360   9.575   3.828  0.3210 -0.1293 -0.4423
43154SOL    HW131469   3.312   9.537   3.755  0.0126  1.0152 -0.8558
43154SOL    HW231470   3.451   9.550   3.812  0.4045  0.9648 -1.7936
43155SOL     OW31471   3.715   9.968   7.703 -0.0570 -0.0403 -0.7979
43155SOL    HW131472   3.689   9.877   7.711 -0.7434  0.2082 -0.0657
43155SOL    HW231473   3.654  10.005   7.640 -1.1717  0.4152  0.5174
43156SOL     OW31474   1.537   0.335   9.698 -0.0854  0.0785 -0.4208
43156SOL    HW131475   1.570   0.404   9.756  1.8187 -1.5316  0.5333
43156SOL    HW231476   1.471   0.289   9.750  1.3405 -1.1172  0.4113
43157SOL     OW31477   2.111   7.285  10.073 -0.2955 -0.0574  0.1546
43157SOL    HW131478   2.163   7.338  10.134  0.3246 -1.0679  0.5463
43157SOL    HW231479   2.088   7.345  10.002 -1.4924  1.3008  1.6064
43158SOL     OW31480  10.879   0.716   2.569  0.2296 -0.1997  0.1335
43158SOL    HW131481  10.792   0.751   2.546  0.2198  0.0192  0.4936
43158SOL    HW231482  10.936   0.793   2.571  0.1312 -0.1452  1.2949
43159SOL     OW31483   9.178   3.454  10.607  0.6356 -0.1742  0.0722
43159SOL    HW131484   9.205   3.461  10.699 -0.4714  0.2682  0.3855
43159SOL    HW231485   9.246   3.402  10.566  2.4884  1.6863  0.5839
43160SOL     OW31486   4.683   3.258   6.766  0.1556  0.0489 -0.1720
43160SOL    HW131487   4.733   3.176   6.766  0.0749 -0.0041  0.1750
43160SOL    HW231488   4.646   3.263   6.854  0.2906  0.5419 -0.1407
43161SOL     OW31489   8.109   3.424  10.171 -0.5138  0.4580 -0.2165
43161SOL    HW131490   8.018   3.438  10.198 -1.5333 -0.3075 -2.8854
43161SOL    HW231491   8.116   3.469  10.087  1.5772  0.3994 -0.1210
43162SOL     OW31492   4.009   2.895   0.895  0.3600 -0.0172 -0.2825
43162SOL    HW131493   4.076   2.827   0.904  0.2494 -0.1870 -0.6849
43162SOL    HW231494   4.043   2.953   0.827  0.3468  0.1942 -0.1061
43163SOL     OW31495  10.024   1.667   0.206  0.3796  0.6017 -0.5952
43163SOL    HW131496   9.929   1.678   0.200  0.0442 -1.7193 -0.3057
43163SOL    HW231497  10.037   1.573   0.221  2.6934  1.0052  0.3391
43164SOL     OW31498   6.604   9.353   9.907 -0.0012  0.1586 -0.0872
43164SOL    HW131499   6.631   9.413   9.976 -0.9581  1.0732 -0.4795
43164SOL    HW231500   6.588   9.409   9.831 -1.3827 -0.5173 -0.3306
43165SOL     OW31501   7.582   4.264  10.878 -0.2273 -0.3219 -0.4019
43165SOL    HW131502   7.660   4.213  10.856  0.2035 -0.1279  0.5988
43165SOL    HW231503   7.519   4.243  10.809  0.4244 -1.1229 -0.7724
43166SOL     OW31504   2.782   9.349  10.748  0.1638 -0.0035  0.0696
43166SOL    HW131505   2.831   9.267  10.742  0.1829  0.1026 -1.5244
43166SOL    HW231506   2.719   9.344  10.676 -1.1489  0.5462  1.1398
43167SOL     OW31507   0.325   1.170   1.026 -0.1400 -0.3603 -0.4986
43167SOL    HW131508   0.279   1.151   1.108  0.3265 -0.9231 -0.3610
43167SOL    HW231509   0.416   1.147   1.044  0.2311  0.8494 -0.7341
43168SOL     OW31510  10.549   9.062   7.381 -0.0286 -0.2996 -0.2511
43168SOL    HW131511  10.483   9.074   7.314  1.1430 -1.0380 -1.5964
43168SOL    HW231512  10.605   8.991   7.348 -0.1556 -1.6236  2.1017
43169SOL     OW31513  10.316   6.881   7.209 -0.3417 -0.1774 -0.1409
43169SOL    HW131514  10.396   6.865   7.160 -0.5703  2.3115 -1.5028
43169SOL    HW231515  10.322   6.972   7.235 -1.6088 -0.6366  1.9765
43170SOL     OW31516   5.685   6.793   3.559  0.3590  0.4420 -0.0239
43170SOL    HW131517   5.695   6.714   3.612 -0.2744  1.4579  1.6861
43170SOL    HW231518   5.752   6.852   3.592 -1.9092  2.1664  1.7821
43171SOL     OW31519   9.718   3.777   5.333 -0.2439 -0.1592  0.5768
43171SOL    HW131520   9.790   3.784   5.396  0.6122 -1.2051 -0.2332
43171SOL    HW231521   9.759   3.791   5.248 -1.1474 -0.0135  0.1539
43172SOL     OW31522   5.304   8.846   0.005  0.2630  0.4301  0.3585
43172SOL    HW131523   5.364   8.849  -0.071  1.0835 -1.7171  0.8476
43172SOL    HW231524   5.218   8.867  -0.032  0.7474  0.0778 -1.0547
43173SOL     OW31525   4.683   1.584   7.965 -0.2631  0.3871 -0.4402
43173SOL    HW131526   4.735   1.639   7.907 -0.1659  0.4404 -0.3006
43173SOL    HW231527   4.651   1.643   8.033  0.9465  0.0203  0.4707
43174SOL     OW31528   1.860   9.456   5.870  0.1967 -0.0399  0.1046
43174SOL    HW131529   1.813   9.514   5.810  0.0020 -1.8234 -1.5886
43174SOL    HW231530   1.949   9.453   5.834 -0.2805 -2.2669 -1.0951
43175SOL     OW31531   6.816   7.267   6.708  0.3412 -0.6603  0.2618
43175SOL    HW131532   6.776   7.306   6.786 -2.0357 -2.2822 -0.0329
43175SOL    HW231533   6.905   7.245   6.735  0.5167  1.4138  1.5817
43176SOL     OW31534  10.783   5.590  10.792  0.4007  0.0673  0.0892
43176SOL    HW131535  10.691   5.595  10.819 -0.1237 -1.3013 -1.3236
43176SOL    HW231536  10.816   5.679  10.803 -1.0208  0.5353  0.8166
43177SOL     OW31537   9.225   6.996   8.762 -0.1691 -0.7541  0.4590
43177SOL    HW131538   9.202   6.939   8.835  1.7715 -0.9145  0.9998
43177SOL    HW231539   9.252   7.078   8.802 -0.3983 -0.3624 -0.1659
43178SOL     OW31540   2.555   1.140   9.789  0.4277 -0.3260  0.1076
43178SOL    HW131541   2.607   1.170   9.714  1.0084  2.6281  1.5391
43178SOL    HW231542   2.617   1.089   9.842 -0.1792 -3.1165 -1.6200
43179SOL     OW31543   2.696   9.923   3.717  0.0122 -0.4128 -0.2197
43179SOL    HW131544   2.721   9.838   3.753 -1.3628 -1.5563 -1.8204
43179SOL    HW231545   2.604   9.912   3.692  0.0599  1.2648 -1.2612
43180SOL     OW31546   9.839   7.136   2.115  0.4283  0.1655 -0.2280
43180SOL    HW131547   9.817   7.218   2.159  1.2686  0.6182 -0.6351
43180SOL    HW231548   9.909   7.098   2.169  2.3256  1.3079 -1.7511
43181SOL     OW31549   7.775   6.793   2.318  0.4259 -0.3286 -0.2642
43181SOL    HW131550   7.803   6.703   2.301 -1.1468 -0.6416 -1.4719
43181SOL    HW231551   7.766   6.832   2.231  0.8367  0.9224  0.2408
43182SOL     OW31552   1.954   0.866   9.934  0.2700 -0.3094  0.3907
43182SOL    HW131553   1.990   0.798   9.991 -0.2318 -0.9820 -0.0718
43182SOL    HW231554   1.871   0.830   9.903 -0.1039  0.6040  0.2850
43183SOL     OW31555   9.795   9.202   2.014  0.1705 -0.3454 -0.5660
43183SOL    HW131556   9.886   9.232   2.021 -0.0061  0.2233 -0.6881
43183SOL    HW231557   9.744   9.268   2.059 -0.4358  0.6906 -2.6366
43184SOL     OW31558   8.195   7.248   2.962 -0.2443  0.6181  0.3466
43184SOL    HW131559   8.182   7.188   3.036 -1.6198 -1.1322 -1.2315
43184SOL    HW231560   8.141   7.324   2.984 -3.1046 -1.1298 -0.1023
43185SOL     OW31561   8.088  10.199   4.577  0.0867  0.0118  0.2510
43185SOL    HW131562   8.147  10.184   4.650  2.3467  1.5826 -1.1429
43185SOL    HW231563   8.138  10.252   4.515 -2.5049  0.7110 -1.4277
43186SOL     OW31564   7.447   4.465   6.536  0.2741 -0.0763 -0.6367
43186SOL    HW131565   7.520   4.466   6.599 -0.9212 -0.8112  0.8350
43186SOL    HW231566   7.400   4.547   6.553 -0.2835 -0.4666 -0.2758
43187SOL     OW31567  10.218   6.722  10.919 -0.3383 -0.6023 -0.5268
43187SOL    HW131568  10.293   6.767  10.881  0.1732 -2.0381 -1.3020
43187SOL    HW231569  10.256   6.652  10.973 -1.0772  0.7101  1.8233
43188SOL     OW31570   3.270   3.002  10.321  0.2448  0.5896  0.4318
43188SOL    HW131571   3.285   3.096  10.313 -1.0495  0.6845 -1.5103
43188SOL    HW231572   3.232   2.976  10.237 -0.6912 -1.4320  1.4076
43189SOL     OW31573  10.364   5.122   2.381  0.1602  0.4726 -0.5722
43189SOL    HW131574  10.326   5.186   2.441 -1.4053 -0.3510 -0.6364
43189SOL    HW231575  10.402   5.055   2.438 -2.7621 -1.1668 -0.3547
43190SOL     OW31576   3.006   6.767   3.630  0.2837  0.2272  0.2965
43190SOL    HW131577   3.069   6.838   3.643  1.8458 -0.7377 -1.4907
43190SOL    HW231578   3.029   6.703   3.697  0.2192  0.5164  0.5980
43191SOL     OW31579   6.818   1.985   2.427 -0.0414 -0.2622 -0.1959
43191SOL    HW131580   6.902   1.969   2.469 -0.2979 -1.1718 -0.0036
43191SOL    HW231581   6.767   2.031   2.493 -0.9984 -3.0873  1.1804
43192SOL     OW31582   6.978   2.751   3.484  0.2419 -0.0408 -0.2299
43192SOL    HW131583   7.042   2.817   3.454  0.1364  0.2502  0.1787
43192SOL    HW231584   6.922   2.737   3.408 -0.3800  1.1251 -0.0190
43193SOL     OW31585   9.206   5.974   9.543  0.0966 -0.0474  0.3469
43193SOL    HW131586   9.299   5.973   9.520 -0.1741  2.5406 -1.2179
43193SOL    HW231587   9.167   5.906   9.489  0.8821 -0.2563  0.0314
43194SOL     OW31588   4.943   9.156   3.388  0.8685 -0.4091 -0.0506
43194SOL    HW131589   4.916   9.064   3.394  0.4645 -0.2410  1.0908
43194SOL    HW231590   5.000   9.168   3.464 -0.9380  0.8485  1.1984
43195SOL     OW31591   6.097   9.088  10.660  0.3779 -0.0820 -0.4186
43195SOL    HW131592   6.172   9.120  10.610  0.3546  1.0542  0.2539
43195SOL    HW231593   6.058   9.021  10.603  0.2578  1.2849 -2.0264
43196SOL     OW31594   5.428   9.045  10.243  0.7944  0.3784 -0.2628
43196SOL    HW131595   5.429   9.141  10.236  1.2753  0.4597  0.7806
43196SOL    HW231596   5.506   9.017  10.196  0.6760  0.4962 -0.5332
43197SOL     OW31597   9.470   5.414   8.491 -0.4642  0.5439 -0.6694
43197SOL    HW131598   9.531   5.460   8.434  1.7043 -0.0055  1.0641
43197SOL    HW231599   9.483   5.454   8.577 -2.3104  0.1390 -0.1519
43198SOL     OW31600   5.281   1.542   5.184 -0.7361 -0.1906  0.4986
43198SOL    HW131601   5.366   1.530   5.227 -0.5217  1.1868  0.4884
43198SOL    HW231602   5.291   1.622   5.134 -1.5428 -0.8577 -0.7774
43199SOL     OW31603   6.394   1.268   0.814  0.4210  0.4261  0.2657
43199SOL    HW131604   6.432   1.304   0.894  1.8810  0.4852 -0.4296
43199SOL    HW231605   6.399   1.173   0.826 -1.7966  0.3654  1.3304
43200SOL     OW31606   9.807  10.258   8.169  0.0968 -0.0006  0.6824
43200SOL    HW131607   9.844  10.187   8.221 -1.5618  0.7308  3.0033
43200SOL    HW231608   9.713  10.249   8.179 -0.2200  1.2296 -0.8032
43201SOL     OW31609   7.308  10.487   3.169 -0.1378  0.2782  0.0130
43201SOL    HW131610   7.263  10.403   3.166  0.2223 -0.0410 -4.8852
43201SOL    HW231611   7.394  10.467   3.207 -0.2484 -1.5001 -0.5631
43202SOL     OW31612   9.031   5.733   3.651  0.3155 -0.0860 -0.4305
43202SOL    HW131613   8.973   5.674   3.698 -1.6400  0.8338 -1.5514
43202SOL    HW231614   9.001   5.728   3.560  0.2974  2.3055 -0.6220
43203SOL     OW31615   9.844   2.363   4.837  0.4944 -0.5907 -0.1291
43203SOL    HW131616   9.786   2.291   4.813  0.2816 -0.6595  0.5542
43203SOL    HW231617   9.800   2.442   4.807  0.0309 -0.6423  0.4009
43204SOL     OW31618   3.701   0.322   8.089 -0.6208  0.6476  0.1375
43204SOL    HW131619   3.712   0.394   8.028  1.1009  0.8382  0.6284
43204SOL    HW231620   3.785   0.315   8.135 -0.2122 -2.5349 -0.8207
43205SOL     OW31621   2.310   6.510   2.383 -0.2333  0.8812  0.1975
43205SOL    HW131622   2.225   6.554   2.386 -1.7274 -1.7505 -0.1384
43205SOL    HW231623   2.291   6.425   2.344  2.8323  0.6701 -1.1362
43206SOL     OW31624   0.635   8.150  10.984  0.2096 -0.0103  0.4568
43206SOL    HW131625   0.674   8.093  10.917  0.2547  1.4512 -0.8246
43206SOL    HW231626   0.545   8.165  10.954  0.1208  0.3788  0.8977
43207SOL     OW31627   9.703   2.775   0.280 -0.0886  0.2487 -0.2847
43207SOL    HW131628   9.763   2.827   0.333 -1.5751 -0.3557  2.1425
43207SOL    HW231629   9.677   2.833   0.209 -0.2276  2.1873  1.2760
43208SOL     OW31630   4.282   0.357   9.172 -0.1522  0.5345 -0.4858
43208SOL    HW131631   4.332   0.433   9.142  2.3971 -1.5486 -1.8289
43208SOL    HW231632   4.225   0.335   9.099  0.8385 -0.2385 -1.0382
43209SOL     OW31633   7.342   2.098   7.922 -1.0961  0.5395 -0.2694
43209SOL    HW131634   7.306   2.126   8.006  0.4799  0.1438  0.5813
43209SOL    HW231635   7.382   2.013   7.941  3.9431  2.6321  0.0411
43210SOL     OW31636   2.749   8.074   6.416  0.2149  0.1016 -0.4545
43210SOL    HW131637   2.784   8.133   6.482 -0.9242  1.8841 -1.3687
43210SOL    HW231638   2.810   8.083   6.342  1.2405 -1.5535  0.1282
43211SOL     OW31639   0.260   1.805   1.157  0.2638  0.0553  0.0953
43211SOL    HW131640   0.331   1.867   1.174  0.9922 -0.9912  0.9915
43211SOL    HW231641   0.188   1.834   1.214  1.1785 -0.8539  1.7926
43212SOL     OW31642   9.996   2.677   8.747 -0.9609  0.3953 -0.0908
43212SOL    HW131643  10.036   2.590   8.752 -0.5792  0.6304  1.2693
43212SOL    HW231644   9.927   2.676   8.814 -1.9054  0.6847 -1.0251
43213SOL     OW31645   1.611   3.361   7.495 -0.5634 -0.0298 -0.1774
43213SOL    HW131646   1.626   3.267   7.495  0.3401  0.0960  0.4977
43213SOL    HW231647   1.644   3.391   7.410 -0.5076 -0.2740 -0.2426
43214SOL     OW31648   9.976   1.102   2.412  0.2773 -0.0525 -0.0292
43214SOL    HW131649   9.921   1.037   2.367  0.0798 -0.9224  1.3963
43214SOL    HW231650   9.915   1.167   2.444  0.0821 -0.8059  1.2006
43215SOL     OW31651   7.314   8.644   4.047  0.1157  0.2813 -0.5671
43215SOL    HW131652   7.363   8.687   3.976  1.2518  1.5471  0.9308
43215SOL    HW231653   7.373   8.575   4.077  0.7601  1.4018  0.8219
43216SOL     OW31654   6.234   5.031   8.493 -0.4532  0.4902  0.5650
43216SOL    HW131655   6.327   5.046   8.512 -0.7931  1.5372  1.5480
43216SOL    HW231656   6.215   5.089   8.419 -0.1373 -0.3636 -0.1988
43217SOL     OW31657   8.763   5.459   7.776 -0.5270 -0.1244 -0.3008
43217SOL    HW131658   8.833   5.502   7.726  1.3241  0.5809  2.6845
43217SOL    HW231659   8.686   5.513   7.760  0.1859  0.5455 -1.6827
43218SOL     OW31660   4.366   7.524   0.032 -0.3132 -0.6175  0.1624
43218SOL    HW131661   4.398   7.606  -0.005  0.4524 -0.5878  0.8744
43218SOL    HW231662   4.271   7.534   0.033 -0.3598 -0.5244 -1.5403
43219SOL     OW31663   6.469   7.690   7.702  0.5767  0.5390  0.1903
43219SOL    HW131664   6.464   7.722   7.792  1.5434  0.8273  0.1533
43219SOL    HW231665   6.479   7.768   7.649 -0.3711  0.3970 -0.2184
43220SOL     OW31666  10.767   0.252   1.390  0.1225  0.3434  0.1054
43220SOL    HW131667  10.707   0.302   1.446  0.7132  1.4037 -0.1831
43220SOL    HW231668  10.853   0.267   1.427  0.3931  0.1327 -0.4276
43221SOL     OW31669   0.350   6.941   5.762 -0.7884 -0.5030 -0.5444
43221SOL    HW131670   0.332   7.016   5.819 -0.7794 -1.1794  0.3703
43221SOL    HW231671   0.442   6.949   5.738 -0.8893 -0.0133 -0.7774
43222SOL     OW31672   1.424   2.644   4.357 -0.0718 -0.1625 -0.7424
43222SOL    HW131673   1.500   2.599   4.393 -1.3681 -1.5947  0.3397
43222SOL    HW231674   1.400   2.708   4.423 -1.1484 -1.2965  0.0042
43223SOL     OW31675   1.627   9.084   7.014  0.8428 -0.5175 -0.0087
43223SOL    HW131676   1.553   9.032   7.046  0.3554 -0.4026 -0.9168
43223SOL    HW231677   1.623   9.075   6.919  1.1425  0.6496 -0.1481
43224SOL     OW31678   1.666   3.524   4.469 -0.0587 -0.3239  0.0486
43224SOL    HW131679   1.586   3.493   4.512 -0.0211  1.0893  1.2103
43224SOL    HW231680   1.737   3.488   4.522  0.0177  0.2097  0.3157
43225SOL     OW31681  10.700   0.258   4.769  0.2238 -0.3305  0.0911
43225SOL    HW131682  10.649   0.183   4.739 -0.8117  1.2861 -2.5051
43225SOL    HW231683  10.646   0.300   4.835  0.9135 -1.8891  1.7459
43226SOL     OW31684   1.648   7.080   1.750  0.1956 -0.3165  0.0619
43226SOL    HW131685   1.607   7.141   1.811 -2.3517 -2.3408  0.5131
43226SOL    HW231686   1.692   7.137   1.687 -0.4600  1.9318  1.5016
43227SOL     OW31687   3.764   9.157   4.967 -0.2620 -0.1569  0.3335
43227SOL    HW131688   3.723   9.185   5.049 -0.5487  1.0206 -0.1989
43227SOL    HW231689   3.847   9.118   4.995 -1.2283 -1.6138  1.3304
43228SOL     OW31690   9.835   7.544   1.555  0.1081 -0.1780  0.4179
43228SOL    HW131691   9.781   7.578   1.484 -0.1707 -1.5098 -0.0334
43228SOL    HW231692   9.875   7.622   1.594 -1.7655  0.8169  0.4788
43229SOL     OW31693   4.832   7.571  10.683 -0.0568 -0.2638  0.3673
43229SOL    HW131694   4.835   7.486  10.639 -1.2448  0.0130 -0.2973
43229SOL    HW231695   4.741   7.579  10.713  0.1437  0.5970  0.7910
43230SOL     OW31696   9.697   6.400   6.797 -0.3206  0.6584  0.3514
43230SOL    HW131697   9.715   6.323   6.743 -0.8988  0.8409 -0.1093
43230SOL    HW231698   9.641   6.366   6.868 -0.5131  0.6366  0.1901
43231SOL     OW31699   4.118   6.267   0.095 -0.0206  0.4036  0.4272
43231SOL    HW131700   4.152   6.356   0.101 -1.8722  1.1462  0.5073
43231SOL    HW231701   4.109   6.239   0.186  0.6678  0.0760  0.4003
43232SOL     OW31702  10.429   7.283   5.230 -0.4671  0.0079 -0.2762
43232SOL    HW131703  10.385   7.360   5.264  0.8893  0.7801 -0.1927
43232SOL    HW231704  10.487   7.316   5.161  1.5864 -0.6013  1.0578
43233SOL     OW31705   1.797   5.655   7.773 -0.0741 -0.0428  0.7557
43233SOL    HW131706   1.702   5.657   7.759 -0.0418 -0.6334  0.4080
43233SOL    HW231707   1.830   5.732   7.725  0.0099 -1.9405 -2.4998
43234SOL     OW31708   1.654   9.749  10.302 -0.6428  0.5495 -0.2881
43234SOL    HW131709   1.619   9.702  10.227 -0.4075  0.0872 -0.1131
43234SOL    HW231710   1.710   9.816  10.264 -0.3527  0.1768 -0.5253
43235SOL     OW31711   2.991   0.116   8.881 -0.4804  0.4241  0.2896
43235SOL    HW131712   2.924   0.134   8.947 -0.4719 -2.3966  1.2181
43235SOL    HW231713   2.942   0.090   8.803 -0.4542  2.1897 -0.3692
43236SOL     OW31714   7.563   1.292   1.424  0.0233 -0.0941  0.0667
43236SOL    HW131715   7.527   1.381   1.419  0.2668 -0.0613 -1.5882
43236SOL    HW231716   7.491   1.235   1.397 -0.0550 -0.3933  0.8807
43237SOL     OW31717   8.811   1.288   5.721  0.0071 -0.2832 -0.7138
43237SOL    HW131718   8.817   1.382   5.736 -0.5335 -0.6283  2.5398
43237SOL    HW231719   8.718   1.271   5.706  0.1573 -0.2808 -1.6991
43238SOL     OW31720   3.273   7.556   2.597  0.5689  0.2727  0.4973
43238SOL    HW131721   3.260   7.461   2.600 -0.1971  0.3125 -0.8707
43238SOL    HW231722   3.354   7.568   2.549 -1.4686  0.3343 -3.3567
43239SOL     OW31723   7.045   8.750   1.113  0.0335 -0.3976  0.2716
43239SOL    HW131724   7.021   8.841   1.134  1.9790  0.2288 -0.0248
43239SOL    HW231725   6.961   8.705   1.103 -0.9830  1.3271  0.5770
43240SOL     OW31726   1.918   7.580  10.152 -0.0033 -0.3768  0.0177
43240SOL    HW131727   1.859   7.552  10.222 -0.1809 -2.1755 -0.8090
43240SOL    HW231728   1.866   7.645  10.103 -0.2967  0.0271  0.8349
43241SOL     OW31729  10.958   2.764   9.566 -0.0350  0.6202  0.2916
43241SOL    HW131730  10.917   2.792   9.483 -2.0238  1.1147  1.3614
43241SOL    HW231731  10.909   2.686   9.592 -0.9844  1.7421  2.0704
43242SOL     OW31732   1.368   0.751  10.350 -0.2421 -0.2795  0.1386
43242SOL    HW131733   1.420   0.794  10.418 -0.0412 -1.2383  0.6016
43242SOL    HW231734   1.408   0.778  10.267  1.3062 -1.3778  0.5000
43243SOL     OW31735  10.722   5.383   1.129 -0.2582  0.0521 -0.3200
43243SOL    HW131736  10.638   5.364   1.170 -1.3761  2.3327 -1.3757
43243SOL    HW231737  10.721   5.478   1.115  2.2956  0.0828 -0.8361
43244SOL     OW31738   0.336   7.929   5.290 -0.8069  0.4257  0.6089
43244SOL    HW131739   0.278   7.962   5.359 -1.3836  0.0762  0.2932
43244SOL    HW231740   0.382   7.856   5.331 -2.8413 -1.3239 -0.0279
43245SOL     OW31741   3.347   8.179   7.010 -0.3415 -0.2972  0.3054
43245SOL    HW131742   3.273   8.138   7.053 -1.2912  2.1917  1.2199
43245SOL    HW231743   3.312   8.213   6.928  0.2083 -0.5569 -0.0436
43246SOL     OW31744   8.641   4.003   7.070 -0.3457 -0.2180 -0.8647
43246SOL    HW131745   8.648   3.909   7.056 -0.6418 -0.7168  1.8629
43246SOL    HW231746   8.724   4.028   7.111 -1.4968  0.0163  1.4791
43247SOL     OW31747   9.871   6.230   2.131 -0.1908  0.2299 -0.1716
43247SOL    HW131748   9.944   6.215   2.070  0.7614  2.9508  0.1811
43247SOL    HW231749   9.914   6.243   2.216 -1.2706 -0.1756  0.4511
43248SOL     OW31750   2.527  10.145   0.166  0.7858  0.5626  0.2250
43248SOL    HW131751   2.592  10.083   0.133  0.2242  0.2384 -0.2813
43248SOL    HW231752   2.503  10.111   0.252  2.9511  1.9219  1.4412
43249SOL     OW31753   3.080   6.366  10.644 -0.1556 -0.1668  0.5599
43249SOL    HW131754   3.008   6.373  10.707  0.4977 -0.3862  1.3556
43249SOL    HW231755   3.056   6.294  10.587 -0.4329 -0.4228  0.9958
43250SOL     OW31756   4.612   3.126   3.086 -0.5034 -0.2669 -0.4319
43250SOL    HW131757   4.612   3.094   2.995  0.3457 -0.1337 -0.4849
43250SOL    HW231758   4.607   3.046   3.139  1.8711 -0.5574 -0.5591
43251SOL     OW31759   3.970   9.238   4.219 -0.1150  0.1228  0.1090
43251SOL    HW131760   3.907   9.308   4.237 -0.6371 -0.1814 -0.4990
43251SOL    HW231761   4.051   9.284   4.198  0.4298  0.5073  2.7433
43252SOL     OW31762   1.586   5.112   3.935 -0.7160 -0.2625 -0.0041
43252SOL    HW131763   1.600   5.182   3.872 -0.5475  0.9157  1.3088
43252SOL    HW231764   1.585   5.032   3.882  1.1500  0.5061 -1.2963
43253SOL     OW31765   3.116   4.539   3.504  0.4220 -0.1734 -0.5112
43253SOL    HW131766   3.038   4.575   3.546  0.0960 -2.7901  1.3748
43253SOL    HW231767   3.087   4.516   3.415 -0.8206 -0.5583 -0.0345
43254SOL     OW31768   4.046   5.044   1.330 -0.4815 -0.3032  0.8763
43254SOL    HW131769   3.982   4.979   1.360 -1.1627  0.3339  0.8450
43254SOL    HW231770   4.009   5.077   1.248  0.1687 -0.3181  0.5783
43255SOL     OW31771  10.658   8.114   8.139  0.0005  0.1092  0.6586
43255SOL    HW131772  10.591   8.173   8.103  0.1985  0.0548  0.1967
43255SOL    HW231773  10.646   8.120   8.234  0.3271  1.2714  0.6513
43256SOL     OW31774   9.613   7.760   8.846 -0.1972  0.2990 -0.1231
43256SOL    HW131775   9.616   7.729   8.755  1.9763  1.5324 -0.5384
43256SOL    HW231776   9.593   7.682   8.897  0.8856 -0.9301 -1.4782
43257SOL     OW31777  10.285   2.260   7.785 -0.2630 -0.6046 -0.1041
43257SOL    HW131778  10.360   2.200   7.784 -0.4011 -0.7769 -0.5972
43257SOL    HW231779  10.313   2.332   7.841  1.4977  0.8521 -2.6174
43258SOL     OW31780   0.565   7.317   6.244 -0.0653  0.0509 -0.6646
43258SOL    HW131781   0.499   7.265   6.198 -1.4667  1.8207 -0.7936
43258SOL    HW231782   0.514   7.372   6.304  1.4873  0.0281  0.7405
43259SOL     OW31783   7.538   7.707   1.210  0.3170 -0.1037  0.1385
43259SOL    HW131784   7.571   7.795   1.191 -1.1622  0.2466 -1.0054
43259SOL    HW231785   7.464   7.721   1.269 -1.5213 -0.2883 -1.9901
43260SOL     OW31786   6.089   4.808   3.411  0.5224 -0.0243  0.0676
43260SOL    HW131787   6.025   4.807   3.483  0.3154 -1.7783 -0.0817
43260SOL    HW231788   6.106   4.715   3.394  1.5576  0.3878 -1.2895
43261SOL     OW31789   8.275  10.341   3.755 -0.2353 -0.1570  0.0536
43261SOL    HW131790   8.307  10.429   3.737  1.7009 -1.1378 -1.6928
43261SOL    HW231791   8.185  10.353   3.783 -0.2412  2.3101 -0.8435
43262SOL     OW31792   9.981   4.093   9.150  0.3626 -0.7653 -0.2473
43262SOL    HW131793  10.068   4.088   9.188  0.8735 -0.1259 -1.3071
43262SOL    HW231794   9.991   4.057   9.061  0.0387  1.2759 -1.1657
43263SOL     OW31795  10.724   5.264   8.523 -0.5273 -0.5622 -0.7645
43263SOL    HW131796  10.708   5.358   8.524 -0.6781 -0.5338  1.9980
43263SOL    HW231797  10.638   5.224   8.514 -0.5605 -0.4179 -1.0601
43264SOL     OW31798   6.078   2.398   3.770 -0.1835 -0.5776  0.1835
43264SOL    HW131799   6.144   2.410   3.838  0.2203 -1.5626 -0.0205
43264SOL    HW231800   5.995   2.395   3.818  0.0889 -1.1532  0.6269
43265SOL     OW31801   3.292   3.582   2.282  0.3184  0.2816  0.0730
43265SOL    HW131802   3.386   3.575   2.270  0.1635  1.0566 -1.8396
43265SOL    HW231803   3.255   3.517   2.222 -0.4241  2.1983 -1.6464
43266SOL     OW31804   1.819   4.922  10.099 -0.5753  0.2312 -0.0150
43266SOL    HW131805   1.843   4.973  10.022 -1.0076 -0.3019 -0.5200
43266SOL    HW231806   1.755   4.858  10.066 -0.5637 -0.1796  0.7312
43267SOL     OW31807  10.079   4.730   7.411 -1.4167  0.2074  0.2479
43267SOL    HW131808   9.992   4.710   7.375 -0.9920  1.0280 -1.2907
43267SOL    HW231809  10.063   4.739   7.506 -2.6286 -1.5990  0.2785
43268SOL     OW31810   9.297   5.494   9.862 -0.4133 -0.8395 -0.1259
43268SOL    HW131811   9.209   5.503   9.825 -0.5179 -1.4180 -0.0205
43268SOL    HW231812   9.289   5.533   9.949 -1.1207 -2.7224  0.7107
43269SOL     OW31813   2.048   6.913   7.177  0.3692 -0.0032 -0.4734
43269SOL    HW131814   2.054   6.961   7.260 -0.1374 -0.3536 -0.2306
43269SOL    HW231815   1.986   6.843   7.194  0.6739 -0.4073 -0.9976
43270SOL     OW31816   9.977  10.893   4.022  0.0800 -0.4371  0.3457
43270SOL    HW131817   9.882  10.883   4.023  0.1384 -1.7560 -1.6644
43270SOL    HW231818  10.011  10.806   4.042  0.9202  0.1377  1.5980
43271SOL     OW31819   2.032   0.738   0.672  0.2192  0.0633 -0.0831
43271SOL    HW131820   2.086   0.811   0.641 -0.4036 -0.7027 -3.3609
43271SOL    HW231821   2.060   0.664   0.618 -0.8262 -1.5364  1.4898
43272SOL     OW31822   2.172   2.242  10.133  0.2639 -0.0833  0.2854
43272SOL    HW131823   2.231   2.187  10.185  0.9246  1.2502  1.0219
43272SOL    HW231824   2.213   2.329  10.136  0.2909  0.0741 -2.4483
43273SOL     OW31825   2.064  10.791   9.547  0.0164  0.1977 -0.1095
43273SOL    HW131826   2.002  10.863   9.534 -0.9064 -0.6143 -0.2613
43273SOL    HW231827   2.098  10.805   9.635 -0.6259  0.4564  0.0992
43274SOL     OW31828  10.621   3.578   6.847  0.0671  0.3658 -0.3582
43274SOL    HW131829  10.648   3.661   6.807  1.2680 -0.6616 -1.8072
43274SOL    HW231830  10.533   3.562   6.813  0.9382 -0.3209 -2.4687
43275SOL     OW31831  10.123   0.581   1.945  0.2675  0.0996 -0.4498
43275SOL    HW131832  10.064   0.632   1.890 -0.9671  0.1320  0.8631
43275SOL    HW231833  10.087   0.492   1.945 -1.1276  0.5644  2.0684
43276SOL     OW31834   4.730   7.713   2.362  0.4483 -0.2085  0.7012
43276SOL    HW131835   4.641   7.735   2.390  0.7264  0.7267  0.8859
43276SOL    HW231836   4.783   7.720   2.442  0.8089 -0.0089  0.4504
43277SOL     OW31837   2.083  10.995   1.353 -0.1023  0.1978  0.1924
43277SOL    HW131838   2.042  10.963   1.433  0.2643 -0.0963  0.2665
43277SOL    HW231839   2.128  10.918   1.317 -0.5001  0.2577 -0.4453
43278SOL     OW31840   3.463   9.703  10.889  0.2728  0.0934 -0.3890
43278SOL    HW131841   3.369   9.716  10.875  0.3430 -0.0692 -0.9994
43278SOL    HW231842   3.503   9.716  10.803  0.7186 -0.7169 -0.3160
43279SOL     OW31843   4.789   9.646   8.860  0.4415 -0.5038 -0.4726
43279SOL    HW131844   4.828   9.676   8.942 -2.3100 -1.3858  1.3113
43279SOL    HW231845   4.733   9.718   8.832  0.7155 -0.5401 -1.1469
43280SOL     OW31846  10.132   9.322   1.387 -0.2571 -0.0769 -0.3077
43280SOL    HW131847  10.123   9.410   1.424  0.7108  0.4238 -1.1938
43280SOL    HW231848  10.154   9.337   1.295  0.3562 -1.2432 -0.3758
43281SOL     OW31849   4.922   8.726  10.059  0.3836  0.1061  0.0440
43281SOL    HW131850   4.851   8.675  10.098 -1.2137  2.2212  0.1087
43281SOL    HW231851   4.921   8.703   9.967 -0.4843  0.1660  0.0274
43282SOL     OW31852   3.624   4.240   9.267 -0.2982  0.3719  0.1200
43282SOL    HW131853   3.633   4.266   9.175 -0.8474  0.7639  0.1750
43282SOL    HW231854   3.584   4.153   9.263  2.1838 -0.8592 -0.0889
43283SOL     OW31855   9.835   5.050   2.210 -0.4980 -0.1329 -0.7233
43283SOL    HW131856   9.745   5.020   2.201 -1.4848  1.2460  2.7401
43283SOL    HW231857   9.829   5.146   2.211  0.7976 -0.0188  0.5523
43284SOL     OW31858   0.987   9.050  10.571 -0.4054 -0.3099 -0.1229
43284SOL    HW131859   0.985   8.990  10.645 -0.4111  0.2147  0.3046
43284SOL    HW231860   1.035   9.003  10.503 -1.0682 -1.0928 -0.0504
43285SOL     OW31861   9.712   2.101   5.848 -0.5238 -1.1466  0.0768
43285SOL    HW131862   9.744   2.191   5.853 -0.2942 -1.1561 -0.9652
43285SOL    HW231863   9.617   2.109   5.843 -0.4482 -0.8739 -1.3416
43286SOL     OW31864   3.943   0.733  10.794  0.2403 -0.5730  0.0457
43286SOL    HW131865   3.862   0.729  10.845  0.0411 -2.7296 -0.3504
43286SOL    HW231866   3.996   0.661  10.827  0.9305 -0.7755 -1.4374
43287SOL     OW31867   1.171   7.693   5.571  0.0614  0.1878 -0.1387
43287SOL    HW131868   1.255   7.652   5.553 -0.3804 -0.6060 -0.4044
43287SOL    HW231869   1.109   7.649   5.514 -0.2582  1.9469 -1.2288
43288SOL     OW31870   2.104   2.558   3.859  0.0704  0.7125 -0.1400
43288SOL    HW131871   2.141   2.484   3.907  0.1762  0.4714 -0.5907
43288SOL    HW231872   2.179   2.611   3.835  0.3154 -0.5120 -2.3023
43289SOL     OW31873   6.464   5.127   9.685  0.5297 -0.1731 -0.1816
43289SOL    HW131874   6.525   5.114   9.757  0.8905 -0.7941 -0.5863
43289SOL    HW231875   6.513   5.180   9.622  0.8090 -0.9904 -0.6753
43290SOL     OW31876   1.418   7.287   9.717 -0.0357 -0.3730  0.3778
43290SOL    HW131877   1.487   7.265   9.654 -0.0321 -0.2170  0.3278
43290SOL    HW231878   1.433   7.378   9.739 -0.2316 -0.3350  0.3610
43291SOL     OW31879  10.257   7.996   2.426 -0.6657 -0.1932  0.2690
43291SOL    HW131880  10.216   8.042   2.352 -0.6021 -1.4509 -0.5990
43291SOL    HW231881  10.302   7.922   2.385  1.7505  0.6214  1.2949
43292SOL     OW31882   2.928   4.648   0.941 -0.5912 -0.0930 -0.2155
43292SOL    HW131883   2.965   4.630   0.855  0.5693  0.5865  0.1128
43292SOL    HW231884   2.858   4.711   0.926 -1.4656 -1.1867 -0.8256
43293SOL     OW31885   8.972   6.741   5.281  0.7834 -0.1957 -0.0844
43293SOL    HW131886   8.954   6.662   5.332  1.0272 -0.7614 -0.8582
43293SOL    HW231887   8.928   6.811   5.329 -0.8917 -1.0627 -0.3033
43294SOL     OW31888   7.259   9.825  11.034 -0.8606 -0.0989  0.0379
43294SOL    HW131889   7.190   9.775  11.076  0.2798 -0.9711  0.9100
43294SOL    HW231890   7.340   9.780  11.057  0.1640  1.7993  0.3766
43295SOL     OW31891  10.244   5.818   6.070 -0.3335 -0.1091 -0.8375
43295SOL    HW131892  10.161   5.775   6.050 -0.2304 -0.5912 -0.2607
43295SOL    HW231893  10.284   5.834   5.985 -0.6381 -0.6455 -1.0873
43296SOL     OW31894   7.389   1.214  10.205  0.3685  0.4802  0.2816
43296SOL    HW131895   7.390   1.125  10.171  1.3354  0.1901  1.0062
43296SOL    HW231896   7.309   1.219  10.258 -0.3767  0.4820 -0.8091
43297SOL     OW31897   9.112   9.133   3.846 -0.5602  0.0672  0.1039
43297SOL    HW131898   9.165   9.157   3.922  2.6037  3.1537 -2.6835
43297SOL    HW231899   9.056   9.210   3.830 -0.4175 -0.0626 -1.1953
43298SOL     OW31900   9.207   9.587   4.812  0.2575 -0.0506 -0.3275
43298SOL    HW131901   9.138   9.606   4.875  0.3073 -2.0471  0.4094
43298SOL    HW231902   9.193   9.650   4.741 -1.7425  0.2036  0.2325
43299SOL     OW31903   7.657  10.365  11.020 -0.3996  0.7721 -0.2766
43299SOL    HW131904   7.585  10.412  11.063 -1.9912 -1.7333  0.0189
43299SOL    HW231905   7.722  10.353  11.089 -0.3788  1.7002 -0.1206
43300SOL     OW31906   6.992  10.737   8.341  0.2969  0.0929 -0.0099
43300SOL    HW131907   7.045  10.755   8.419 -0.0817  1.2147  0.0012
43300SOL    HW231908   7.030  10.792   8.273  0.1771 -0.3465 -0.4382
43301SOL     OW31909   7.024   4.047   2.375 -0.3348  0.3672  0.3171
43301SOL    HW131910   6.953   4.013   2.320  2.1494 -2.4539 -1.4277
43301SOL    HW231911   7.010   4.006   2.460 -0.4346 -0.7711 -0.2269
43302SOL     OW31912   0.863   6.876   0.762 -0.2454  0.2130  0.2261
43302SOL    HW131913   0.949   6.916   0.771  0.6653 -1.8270  1.4061
43302SOL    HW231914   0.856   6.852   0.670  0.3078  0.6790  0.0630
43303SOL     OW31915   6.866   5.742   6.735 -0.3651  0.3089  0.6343
43303SOL    HW131916   6.833   5.773   6.651  0.4105 -2.2139 -0.7104
43303SOL    HW231917   6.807   5.669   6.758  0.7188 -0.4291  1.1513
43304SOL     OW31918   9.419   2.353   9.836  0.0301  0.6946  0.2603
43304SOL    HW131919   9.380   2.320   9.916 -0.3904 -2.5395 -1.1427
43304SOL    HW231920   9.349   2.350   9.771  1.0210  0.6938 -0.8580
43305SOL     OW31921   0.592   6.226   3.114  0.3447  0.0197 -0.2524
43305SOL    HW131922   0.554   6.240   3.027  2.8111 -1.4351 -1.6549
43305SOL    HW231923   0.673   6.277   3.114  0.1373  0.4108  1.4219
43306SOL     OW31924   9.329   2.606   4.778  0.1381 -0.2594  0.1180
43306SOL    HW131925   9.367   2.567   4.857  1.8309 -0.4573 -0.7507
43306SOL    HW231926   9.348   2.700   4.786  1.6353 -0.4637 -0.7108
43307SOL     OW31927   2.436   7.100   7.038  0.2731  0.2594 -0.8335
43307SOL    HW131928   2.454   7.049   7.117  0.7349  0.8041 -0.5700
43307SOL    HW231929   2.341   7.104   7.033  0.2047 -1.4728 -1.4293
43308SOL     OW31930   6.359   5.173   3.989  0.0860  0.3185 -0.2693
43308SOL    HW131931   6.331   5.236   3.923  0.4372  1.2176  0.4024
43308SOL    HW231932   6.414   5.224   4.048  0.6037 -0.6946  0.1522
43309SOL     OW31933   7.159   4.237  10.184 -0.2181  0.1178 -0.4759
43309SOL    HW131934   7.247   4.254  10.217 -0.2902  1.2408 -0.8271
43309SOL    HW231935   7.131   4.158  10.231  2.0056 -1.9649 -2.3493
43310NA      NA31936   9.886   4.886   0.279 -0.5471 -0.2250  0.1827
43311NA      NA31937  10.662  10.890   4.347 -0.6092  0.0753  0.4059
43312NA      NA31938   3.813   8.155   7.357 -0.6600 -0.5713  0.4296
43313NA      NA31939   5.346   4.779   2.979 -0.2377  0.0676 -0.4000
43314NA      NA31940   2.687   7.175  10.693 -0.2840 -0.2448 -0.2057
43315NA      NA31941   9.423   3.970   2.834  0.3030  0.3006  0.4094
43316NA      NA31942   6.178   1.277   7.740  0.6101 -0.2367  0.0983
43317NA      NA31943   7.179   1.361   5.753 -0.2874  0.6595 -0.4918
43318NA      NA31944   9.681   8.833  10.283 -0.0605  0.2337 -0.8253
43319NA      NA31945   6.529   2.235   6.174 -0.3194 -0.2048 -0.7534
43320NA      NA31946   9.142   2.327   4.483 -0.4450  0.3008  0.2429
43321NA      NA31947   8.605  10.294   2.753 -0.0445  0.0259  0.1220
43322NA      NA31948  10.073   1.528   7.893  0.5183  0.1408  0.3524
43323NA      NA31949   4.576   3.254   6.535  0.3576 -0.2291  0.6483
43324NA      NA31950   9.948   3.212   3.989  0.1020  0.0034  0.1809
43325NA      NA31951   7.158   3.492   5.131  0.1517 -0.5282 -0.1906
43326NA      NA31952   1.804   7.071   3.899  0.2741  0.1923  0.1699
43327NA      NA31953   7.099   5.201   6.818 -0.0863 -0.3744 -0.8965
43328NA      NA31954   0.833   7.860   0.948  0.3766 -0.1285  1.0538
43329NA      NA31955   4.248  10.878   2.107  0.1225  0.2561  0.2384
43330NA      NA31956   7.352   3.066   5.414 -0.2868  0.2982  0.1849
43331NA      NA31957   1.643   6.792   3.377 -0.5995 -0.2272  0.3749
43332NA      NA31958  10.513   2.879   2.773  0.2673  0.0045 -0.6242
43333NA      NA31959   1.158   1.692   4.277  0.2837 -0.0659  0.0355
43334NA      NA31960   6.844   7.086   3.879 -0.1692  0.0697  0.0052
43335NA      NA31961   1.648   3.901   5.316  0.0052 -0.1072  0.3805
43336NA      NA31962   0.959   3.971   2.728 -0.3175  0.2510 -0.3131
43337NA      NA31963   2.524   4.020  10.441 -0.1259 -0.1590  0.3990
43338NA      NA31964   0.228   0.151   1.837 -0.0384  0.5035  0.2213
43339NA      NA31965   9.564   3.660   0.019  0.5862  0.2239 -0.2045
43340NA      NA31966  10.307   4.456  10.574  0.3769 -0.0767  0.0503
43341NA      NA31967  10.084   5.108   4.844 -0.7662  0.3008 -0.3319
43342NA      NA31968   1.703   9.048   8.531  0.3867  0.0029  0.0300
43343NA      NA31969   0.059   1.771  10.304 -0.2104  0.3157  0.2408
43344NA      NA31970   0.563   7.108   7.660  0.0981  0.0941 -0.0001
43345NA      NA31971   9.020   3.385   3.852  0.0544 -0.0410 -0.4985
43346NA      NA31972  10.621   2.184   3.086 -0.1881  0.0096 -0.0322
43347NA      NA31973   7.360   3.671   3.195  0.3791  0.1536 -0.0579
43348NA      NA31974   8.583   2.955   5.875 -0.2422 -0.2743 -0.1483
43349NA      NA31975  10.441   5.357   2.731  0.2223 -0.3347 -0.1076
43350NA      NA31976   9.286   3.972   3.838 -0.3903  0.0939 -0.4687
43351NA      NA31977  10.032   4.912   2.169 -0.1155 -0.1960 -0.0649
43352NA      NA31978   7.751   4.569   7.935  0.6242 -0.1856 -0.1347
43353NA      NA31979   1.300   6.218   8.159  0.3498  0.1603  0.5830
43354NA      NA31980   9.535   3.562   3.314  0.2450 -0.4786  0.0866
43355NA      NA31981   4.701   6.741  10.861 -0.0966  0.1430  0.2359
43356NA      NA31982   0.192   2.731   0.698 -0.1398 -0.5616 -0.0900
43357NA      NA31983  10.931   3.161   0.699 -0.0214  0.1735 -0.0214
43358NA      NA31984   1.710   4.313  10.692 -1.0476 -0.0003 -0.2773
43359NA      NA31985  10.212   2.437   2.719 -0.0996 -0.1521  0.0009
43360NA      NA31986   1.298   7.480   3.254  0.3322  0.0404 -0.1812
43361NA      NA31987  10.899   1.428   2.242  0.2482  0.1966 -0.0935
43362NA      NA31988   3.686   4.451   0.054 -0.1917  0.1078  0.3578
43363NA      NA31989   7.048  10.080   9.499  0.3867 -0.1422 -0.3965
43364NA      NA31990   2.174   1.143   1.633 -0.3650 -0.1674 -0.5491
43365NA      NA31991   8.075   2.516   4.884 -0.4155  0.1036  0.4466
43366NA      NA31992   0.539   6.592   6.275 -0.1868  0.1519  0.1408
43367NA      NA31993   2.102   2.432   1.068  0.3304  0.3647 -0.2575
43368NA      NA31994   4.013  10.915   9.114 -0.1719  0.3260  0.8069
43369NA      NA31995   2.022   0.649   8.626 -0.2179 -0.6598  0.3406
43370NA      NA31996   0.825   3.470   8.221  0.0098 -0.3147 -0.0586
43371NA      NA31997   8.873   3.784   1.374 -0.3200  0.0293 -0.5361
43372NA      NA31998  10.135   7.442   8.843 -0.5985  0.2048 -0.0632
43373NA      NA31999   1.841   1.961   9.530 -0.0436  0.0474 -0.3033
43374NA      NA32000   7.954   5.291   2.143  0.0049  0.2096 -0.4268
43375NA      NA32001   7.339   8.094   7.267  0.3141 -0.0715 -0.4574
43376NA      NA32002   4.457   2.020   9.047 -0.0700  0.4020 -0.4999
43377NA      NA32003   6.862   0.489   7.927  0.0448  0.8632  0.3260
43378NA      NA32004   1.979   3.842   0.907 -0.2132  0.2862 -0.4284
43379NA      NA32005   4.360   8.521   4.441 -0.1098 -0.0007  0.2411
43380NA      NA32006  10.324   5.912   7.749 -0.2884 -0.4331  0.1386
43381NA      NA32007   0.096   3.880   8.863 -0.0739  0.2233  0.1336
43382NA      NA32008   3.422  10.507   8.071 -0.0162  0.2284 -0.2511
43383NA      NA32009   6.142   0.606   3.035 -0.1422  0.3525  0.0009
43384NA      NA32010   9.876   6.653   2.049 -0.1017  0.0514 -0.3758
43385NA      NA32011  10.013   3.565  10.376 -0.0299  0.0667  0.5065
43386NA      NA32012  10.845   2.595   3.876 -0.5765 -0.2035  0.0606
43387NA      NA32013   9.391   4.647   3.729  0.0838  0.0354 -0.1094
43388NA      NA32014   0.791   8.211  10.230  0.4515 -0.1758 -0.2230
43389NA      NA32015   2.894   3.214   9.246 -0.2468  0.0749  0.1516
43390NA      NA32016  11.038   3.325   1.758 -0.1001  0.3314  0.5604
43391NA      NA32017   8.448   4.564   3.773  0.0604  0.1952 -0.4760
43392NA      NA32018   8.664   2.453   2.027 -0.5677  0.5607 -0.5789
43393NA      NA32019   6.153   8.200   1.459  0.3374  0.0774 -0.0738
43394NA      NA32020   0.796   4.181   6.206  0.4278  0.0930 -0.0235
43395NA      NA32021   9.261   4.038   2.303  0.5398 -0.1178 -0.5284
43396NA      NA32022  10.789   3.087   3.359 -0.3294  0.3522  0.2013
43397NA      NA32023   8.941   4.634   6.140 -0.3702  0.3942  0.1230
43398NA      NA32024   3.417   7.865   3.280  0.5568  0.2953 -0.5130
43399NA      NA32025   3.973   7.118   3.715  0.2015  0.0642 -0.3783
43400NA      NA32026   7.733   0.609   6.966  0.4927  0.2015 -0.0216
43401NA      NA32027   3.003   2.313   1.449  0.2540  0.0873  0.1490
43402NA      NA32028   6.656   5.843   5.093 -0.3765  0.2264  0.6763
43403NA      NA32029   9.546   4.887   6.958 -0.2177  0.3108 -0.2403
43404NA      NA32030   7.437   2.342   6.760 -0.6282  0.2730  0.1493
43405NA      NA32031   8.842   2.154   6.640 -0.1802 -0.2366 -0.0664
43406NA      NA32032   8.795   3.145   4.817 -0.4256 -0.4304 -0.6482
43407NA      NA32033   6.627   5.048   4.758  0.5999 -0.0166  0.0685
43408NA      NA32034   6.589   5.187   3.096 -0.7623  0.2404 -0.0985
43409NA      NA32035   2.079   6.433   2.948  0.0162  0.2144 -0.3307
43410NA      NA32036   2.149   1.189   2.901 -0.1463 -0.0138  0.1011
43411NA      NA32037   1.722   8.256   7.564  0.2612  0.1810 -0.1832
43412NA      NA32038   6.297   5.630   6.618  0.3348 -0.4752  0.0176
43413NA      NA32039   2.686   9.865   3.171 -0.4163 -0.7325 -0.0965
43414NA      NA32040   8.563   3.714   3.696 -0.5268  0.3718  0.6416
43415NA      NA32041  10.316   4.220   3.509 -0.0620 -0.1246  0.0312
43416NA      NA32042  10.957   6.857   4.531  0.1093  0.3784  0.1808
43417NA      NA32043   8.501   7.219   0.827  0.0632  0.3713 -0.1817
43418NA      NA32044   9.050   4.567   0.274 -0.2220  0.2699  0.0467
43419NA      NA32045  10.197   2.145   4.893  0.2227  0.6131 -0.3381
43420NA      NA32046  10.254   3.239   1.952  0.4588  0.5394 -0.7275
43421NA      NA32047   7.232   0.036   0.491  0.2973 -0.0580  0.0238
43422NA      NA32048   7.402   7.565   6.386 -0.1786  0.1321 -0.6320
43423NA      NA32049   4.793   4.195   2.348 -0.0318  0.5832 -0.1097
43424NA      NA32050   5.507   1.801  10.801  0.0463 -0.4090  0.3656
43425NA      NA32051   4.045   0.526   3.197  0.2426  0.0129 -0.1911
43426NA      NA32052   0.296   1.573   1.112 -0.0251 -0.3389 -0.0769
43427NA      NA32053  10.937   2.840   5.478  0.1254 -0.2016 -0.2406
43428NA      NA32054   0.410   1.784   1.751 -0.3449  0.0060  0.1152
43429NA      NA32055   2.600   1.726   3.429  0.3072  0.2059  0.2999
43430NA      NA32056  10.231   4.021   2.017  0.4405  0.2486  0.1990
43431NA      NA32057   7.637   3.262   2.911 -0.3180  0.2112 -0.3916
43432NA      NA32058   1.531   9.726   1.198 -0.4442 -0.0526  0.3030
43433NA      NA32059  10.545   3.530   0.469  0.1029  0.4109  0.1196
43434NA      NA32060   8.689   3.156   5.343  0.9853 -0.1879  0.2118
43435NA      NA32061  10.092  10.454   9.702 -0.2043 -0.3251 -0.5570
43436NA      NA32062   9.532   8.090   7.807  0.3421 -0.1718  0.1911
43437NA      NA32063   9.808   5.172   1.087  0.6981  0.2209  0.2439
43438NA      NA32064   9.803  10.882   0.486 -0.2369  0.4612 -0.2478
43439NA      NA32065   5.052  10.272  10.394  0.2411  0.4914  0.1164
43440NA      NA32066   7.828   5.793  10.571  0.4599 -0.0842 -0.0711
43441NA      NA32067   5.635   6.080   8.316 -0.9401 -0.6189  0.2186
43442NA      NA32068   9.830   1.949   0.743  0.5552 -0.4219 -0.0421
43443NA      NA32069  11.036   9.642   9.971  0.0492 -0.1848  0.0179
43444NA      NA32070   0.921   6.508   5.415  0.0664  0.1155  0.6188
43445NA      NA32071   7.568   4.463  11.032 -0.4879 -0.0108  0.5237
43446NA      NA32072   7.064   2.189   3.817  0.1406  0.2509 -0.2933
43447NA      NA32073   8.058   6.200   8.006 -0.0480 -0.1758  0.2180
43448NA      NA32074   8.252   2.330   0.849  0.1473 -0.0258  0.4240
43449NA      NA32075   1.637   1.257   9.188  0.1582  0.2137 -0.0634
43450NA      NA32076  10.936   3.144   9.806  0.1771 -0.3815 -0.5898
43451NA      NA32077   7.949  10.927   1.099 -0.0605 -0.5778 -0.1873
43452NA      NA32078   4.716   7.572   3.993 -0.1909  0.5003 -0.1137
43453NA      NA32079   8.437   9.383   4.318 -0.5079  0.2466  0.3052
43454NA      NA32080   4.501   9.431   1.006 -0.7820 -0.4993  0.0350
43455NA      NA32081   9.181   2.263   4.142 -0.2782 -0.2728 -0.2387
43456NA      NA32082  10.312   4.071   7.332 -0.3734 -0.1580  0.1095
43457NA      NA32083   9.637   2.676   2.075 -0.5544  0.6913 -0.4989
43458NA      NA32084   3.626   5.907   0.009 -0.7131 -0.2340 -0.0927
43459NA      NA32085   3.064   2.654   6.938  0.0135  0.2695  0.5116
43460NA      NA32086   8.989   1.123   5.754  0.2346  0.3862  0.2631
43461NA      NA32087   4.047   9.225   2.561 -0.0627 -0.1189  0.3213
43462NA      NA32088   7.313   1.915  10.453  0.3014 -0.0217 -0.1737
43463NA      NA32089   7.243   1.823   5.108 -0.0018 -0.1545 -0.1610
43464NA      NA32090   6.030   4.005   2.272  0.2579 -0.6156 -0.1319
43465NA      NA32091   0.354   2.665   8.513 -0.4611 -0.1692  0.1921
43466NA      NA32092   9.417   2.760   1.782  0.1244 -0.3405 -0.5117
43467NA      NA32093   5.803  10.025   4.872  0.1397  0.1138 -0.6774
43468NA      NA32094   3.326   1.596   1.277 -0.0584  0.0185  0.1580
43469NA      NA32095   6.927   4.759  10.023 -0.3266 -0.0559  0.0175
43470NA      NA32096   0.420   5.354   6.564  0.0118  0.3056 -0.3580
43471NA      NA32097   0.145   6.347   9.826 -0.2974  0.1150 -0.4446
43472NA      NA32098   8.782   0.605   1.860  0.2373 -0.6172 -0.3413
43473NA      NA32099   9.565   5.916   5.418 -0.3313  0.1047 -0.2416
43474NA      NA32100   5.112   7.533   5.642  0.3982 -0.1199 -0.1710
43475NA      NA32101   9.135   3.942   3.115 -0.3944 -0.2326  0.1780
43476NA      NA32102   7.679  11.007   2.018 -0.3124  0.2503 -0.1048
43477NA      NA32103   8.526   6.107  10.646  0.3605 -0.3646  0.1355
43478NA      NA32104   9.205   4.373  10.578  0.0417 -0.0426  0.4319
43479NA      NA32105   9.108   8.491   7.840  0.2117 -0.4315  0.0972
43480NA      NA32106   5.176   8.722  10.096  0.0699  0.0811  0.5412
43481NA      NA32107   3.510   8.423   9.233 -0.5706 -0.1681 -0.0570
43482NA      NA32108   1.717   6.579   7.140 -0.1615 -0.0162 -0.0105
43483NA      NA32109   1.729   4.454   7.603  0.8429 -0.3042 -0.4768
43484NA      NA32110   3.281   6.786   4.939  0.0478  0.4864  0.2245
43485NA      NA32111   5.388   5.224   7.727  0.4740  0.3323  0.1450
43486NA      NA32112   9.752   0.824   1.829 -0.2318  0.0039 -0.2685
43487NA      NA32113   9.905  10.499   0.924 -0.3531 -0.0699 -0.2657
43488NA      NA32114   7.804   3.838   3.569  0.3626 -0.2706 -0.3567
43489NA      NA32115  10.654   2.871   3.645  0.1797 -0.0054 -0.0834
43490NA      NA32116   4.031   9.418   3.101  0.1879  0.6701  0.3159
43491NA      NA32117   8.473   2.916   3.391  0.1628 -0.2190 -0.2620
43492NA      NA32118   2.809   1.142   0.908 -0.5900 -0.2184  0.0844
43493NA      NA32119  10.390   7.121   0.419 -0.5126  0.3100 -0.3290
43494NA      NA32120   8.817   2.874   3.961  0.0832  0.4682  0.0874
43495NA      NA32121   0.828   3.180   5.807 -0.6265  0.0182  0.5073
43496NA      NA32122  10.577   2.876   2.377  0.0704  0.6985  0.2485
43497NA      NA32123  10.469   9.423   4.126 -0.1202 -0.3835  0.1803
43498NA      NA32124   7.866   5.283   4.298 -0.2409  0.1746  0.7122
43499NA      NA32125   9.123   3.506   1.801 -0.5604 -0.2324  0.1071
43500NA      NA32126   1.578   1.990   5.807  0.1054 -0.2419 -0.0660
43501NA      NA32127   8.863   4.595   3.330 -0.2544  0.5803  0.3991
43502NA      NA32128   9.062   3.398   0.947 -0.1604  0.5246  0.0924
43503NA      NA32129   7.337   1.849   2.680  0.6741  0.6792 -0.3902
43504CL      CL32130   9.721  10.138   8.725 -0.1619 -0.1814 -0.0639
43505CL      CL32131   7.961   7.191   0.397 -0.0148 -0.1678 -0.0209
43506CL      CL32132   4.136   9.064   6.984  0.2320  0.3535  0.2168
43507CL      CL32133   9.844   7.405   0.412 -0.3158  0.1972  0.3363
43508CL      CL32134   0.766   1.408   7.483 -0.1767  0.2917 -0.1160
43509CL      CL32135   2.940   5.695   4.391  0.0198  0.0410 -0.5269
43510CL      CL32136   2.327   5.633   4.089 -0.1898  0.0100 -0.3915
43511CL      CL32137   0.376   8.062   4.537 -0.2280  0.0448  0.3758
43512CL      CL32138   7.141   3.147   3.204  0.1598 -0.2104 -0.0242
43513CL      CL32139   5.825   2.166   6.503  0.0170 -0.4188  0.3618
43514CL      CL32140   0.054   1.281   0.689  0.3283  0.3128  0.0098
43515CL      CL32141   3.862   2.716   8.176  0.1271 -0.4390 -0.0307
43516CL      CL32142   1.291   3.224   8.635  0.0008 -0.5042 -0.3841
43517CL      CL32143   4.999   1.038   5.141  0.2512  0.0909 -0.0722
43518CL      CL32144   1.338   7.119   3.634  0.0993 -0.6363 -0.0006
43519CL      CL32145   6.465   3.355   7.969  0.0882 -0.4209  0.0049
43520CL      CL32146  10.893   3.333   7.431 -0.0226  0.0354 -0.0872
43521CL      CL32147   8.261   9.438   4.116  0.3371  0.1350 -0.5280
43522CL      CL32148   8.050   7.828   8.117 -0.3774  0.0144  0.0633
43523CL      CL32149   3.800   3.619  10.630  0.2463  0.3544  0.5241
43524CL      CL32150   3.771   9.745   3.007 -0.5901 -0.0020  0.1650
43525CL      CL32151  10.054   6.957   2.364 -0.2203 -0.1317 -0.0713
43526CL      CL32152   9.650   4.866   7.656 -0.1733 -0.0477 -0.1340
43527CL      CL32153   8.966   3.119   7.219 -0.0798  0.0625 -0.4505
43528CL      CL32154   5.403   4.512   6.036 -0.1259 -0.4082 -0.1781
43529CL      CL32155   5.905   5.796   3.262 -0.1271  0.1340 -0.1160
43530CL      CL32156   6.994   2.129   4.077 -0.2556  0.2187  0.3970
43531CL      CL32157   1.957   4.242   2.224  0.1867  0.0917  0.3697
43532CL      CL32158   8.800   8.546  10.493  0.2492  0.3930  0.0034
43533CL      CL32159   1.105   5.904   7.908 -0.4507  0.2079  0.0864
43534CL      CL32160   0.301   6.363   0.245 -0.3286 -0.1430  0.0647
43535CL      CL32161   7.305   3.805   5.495 -0.2963  0.8954  0.3816
43536CL      CL32162   7.542   0.729   7.429  0.1386  0.1335 -0.1620
43537CL      CL32163   5.402   6.714   9.851 -0.0867 -0.7290 -0.0586
43538CL      CL32164   4.722   1.926   4.299  0.5081 -0.1576 -0.1339
43539CL      CL32165   1.945   0.394   8.560  0.1520  0.1695  0.1835
43540CL      CL32166   8.871   8.198   2.676  0.0087  0.1660 -0.3429
43541CL      CL32167   7.886   5.258  10.695 -0.0295  0.0455  0.0480
43542CL      CL32168   4.629   4.593  10.928 -0.0294 -0.1084  0.1936
43543CL      CL32169   3.955   3.178   1.940 -0.0500  0.0198  0.0005
43544CL      CL32170   4.438   1.578   9.087 -0.0687  0.4146 -0.2048
43545CL      CL32171   6.331   7.292   4.591  0.6520 -0.0540  0.7073
43546CL      CL32172  10.318   8.162   2.858  0.0082  0.1094  0.5695
43547CL      CL32173   5.653   3.132   9.615 -0.0567  0.2188 -0.0681
43548CL      CL32174   5.310   6.720   8.207  0.3046  0.0393 -0.2667
43549CL      CL32175   9.649   3.823  10.047 -0.1360 -0.2174  0.2135
43550CL      CL32176  10.348  10.984   3.143  0.0184 -0.2883  0.1542
43551CL      CL32177   3.059   1.171   6.597  0.3395  0.2548 -0.3766
43552CL      CL32178   4.058   8.549   7.048 -0.6421 -0.0668  0.0814
43553CL      CL32179   4.003   8.208   5.594  0.1111  0.4964 -0.5580
43554CL      CL32180   8.516  10.541   5.949 -0.0654 -0.1850 -0.1807
43555CL      CL32181   5.737   4.176   6.932  0.4616  0.1683 -0.0611
43556CL      CL32182   6.777   9.916   2.807  0.5944 -0.0962 -0.2394
43557CL      CL32183   3.747   0.046   5.855  0.6960 -0.6728 -0.0952
43558CL      CL32184   9.501   5.914   6.573  0.1394  0.0341  0.1376
43559CL      CL32185   6.396  10.372   0.565 -0.0194  0.1356  0.4585
43560CL      CL32186   1.631   3.203   5.463 -0.3038  0.0985  0.3742
43561CL      CL32187   2.357   2.451   0.200 -0.4943 -0.3809  0.2370
43562CL      CL32188  10.555   4.587   8.930  0.5168  0.0962  0.0373
43563CL      CL32189  11.000   6.599   5.913  0.0770  0.4301  0.0821
43564CL      CL32190   4.235   3.009   8.654 -0.1393 -0.2580 -0.5678
43565CL      CL32191   5.285   1.225   2.088  0.1764  0.0599  0.2778
43566CL      CL32192   8.920   9.734   8.768 -0.1099  0.0598  0.3874
43567CL      CL32193   0.743   7.564   5.283  0.2491 -0.1775 -0.4758
43568CL      CL32194   7.359   4.580   4.264  0.1464 -0.0767  0.1482
43569CL      CL32195   4.211  10.795   3.688  0.2020 -0.1765 -0.0188
43570CL      CL32196   2.085   9.683  11.026  0.1912 -0.0349  0.0551
43571CL      CL32197   3.427   6.869   7.421  0.0075  0.0170 -0.0800
43572CL      CL32198   2.472   7.722   7.802 -0.0832 -0.3154 -0.0117
43573CL      CL32199   8.482   6.654   9.143  0.1043  0.3417 -0.3563
43574CL      CL32200   3.990   1.102   1.101  0.4156 -0.2508  0.1068
43575CL      CL32201   6.970   0.503  10.162 -0.1403  0.2079  0.7031
43576CL      CL32202   9.055   7.733   3.648 -0.1095  0.3918  0.1026
43577CL      CL32203   3.338   3.082   0.478  0.3317  0.0047 -0.2075
43578CL      CL32204  10.033   0.920   6.494 -0.1819 -0.1743 -0.0523
43579CL      CL32205   9.125   1.589   0.769 -0.1454 -0.0979 -0.0463
43580CL      CL32206   5.890   7.387   0.437  0.1955 -0.1883 -0.3626
43581CL      CL32207   4.908   0.203   2.679  0.0654  0.2226 -0.4448
43582CL      CL32208   7.733   5.749   7.660  0.1690 -0.2182 -0.1056
43583CL      CL32209   4.705   3.296   3.804  0.5004 -0.1162  0.4090
43584CL      CL32210   4.738   0.285   1.387 -0.4356 -0.3156 -0.0580
43585CL      CL32211   4.921   7.177   4.015  0.4274  0.2005  0.0215
43586CL      CL32212   2.448   9.512   3.596 -0.2750  0.3174 -0.3920
43587CL      CL32213   0.011   0.897   8.686  0.1988  0.2368  0.2197
43588CL      CL32214   0.257   2.270   9.781 -0.2075 -0.3382  0.0335
43589CL      CL32215   8.413   3.009   6.282  0.1845 -0.2502 -0.3027
43590CL      CL32216   7.080   5.665   3.783  0.1335  0.3995 -0.0337
43591CL      CL32217   9.303   9.763   9.612 -0.0166  0.3865  0.1290
43592CL      CL32218   5.844   5.254   7.048  0.1916  0.1581 -0.1859
43593CL      CL32219   1.113   5.792   6.228  0.1669  0.1244  0.3854
43594CL      CL32220   8.456   1.442   2.586 -0.0732 -0.2767  0.6170
43595CL      CL32221   7.231  10.974   7.462 -0.1371 -0.1739 -0.3254
43596CL      CL32222   3.629   7.103   5.533  0.5035 -0.3584  0.1860
43597CL      CL32223   1.886   5.048   0.386  0.0817 -0.0351 -0.0902
43598CL      CL32224   8.308   0.062   8.672  0.2876  0.0755 -0.1019
43599CL      CL32225   0.758   6.766   8.004  0.0661  0.1913  0.1956
43600CL      CL32226   2.345   0.480   3.506  0.0949  0.2113  0.1785
43601CL      CL32227   9.190   6.935   6.506 -0.2956  0.0865 -0.2817
43602CL      CL32228   8.660   6.587   2.738 -0.0659  0.4081  0.2367
43603CL      CL32229   1.480   0.934   8.796  0.2396 -0.4793 -0.3640
43604CL      CL32230   0.425   2.016   2.172 -0.5130  0.6987 -0.3479
43605CL      CL32231   8.986   6.639   1.966  0.2573 -0.1653  0.0898
43606CL      CL32232   8.125   6.043   9.788 -0.5197 -0.2780 -0.2558
43607CL      CL32233   7.929   0.270   2.236  0.0527 -0.0591  0.1579
43608CL      CL32234   5.501   0.956  10.246  0.1204  0.3125  0.1887
43609CL      CL32235   2.591   8.137   8.883  0.1574  0.1588 -0.1150
43610CL      CL32236   6.532   7.442   7.226 -0.2486  0.4000  0.1426
43611CL      CL32237   3.599  10.307   9.077  0.0304  0.1499  0.2372
43612CL      CL32238   0.533   8.264  10.609  0.3499 -0.2294 -0.2594
43613CL      CL32239   7.786   8.290   9.503  0.2218 -0.5800  0.5581
43614CL      CL32240   5.043   4.982   4.399 -0.0381 -0.2838  0.2249
43615CL      CL32241   0.326   2.777   9.322  0.3205  0.1449  0.7753
43616CL      CL32242   3.371   2.426   2.917 -0.0051 -0.2679 -0.2493
43617CL      CL32243   4.668   7.936   4.389 -0.1103  0.6296 -0.3907
43618CL      CL32244   0.650   0.698   2.101  0.1111  0.4292 -0.3352
43619CL      CL32245   5.592   7.530   7.289 -0.2134 -0.0457  0.3920
43620CL      CL32246  10.106   0.693   2.389  0.0927  0.2763 -0.0533
43621CL      CL32247   4.786   5.814   0.860 -0.3042  0.2620 -0.1836
43622CL      CL32248  10.831   5.108   6.444  0.3379  0.0627 -0.0589
43623CL      CL32249   0.792  10.280   0.772 -0.0506  0.5463 -0.1452
43624CL      CL32250   9.776   0.353   0.385 -0.3054  0.4617 -0.2628
43625CL      CL32251   9.472   9.072   1.061 -0.1087 -0.1409 -0.3759
43626CL      CL32252   1.286   8.982  10.224  0.6906  0.1967  0.3867
43627CL      CL32253   2.146   2.109   1.767 -0.0929 -0.1473  0.0888
  11.03956  11.03956  11.03956
